 Entering Link 1 = D:\Gaussian\G16W\l1.exe PID=     38284.
  
 Copyright (c) 1988,1990,1992,1993,1995,1998,2003,2009,2016,
            Gaussian, Inc.  All Rights Reserved.
  
 This is part of the Gaussian(R) 16 program.  It is based on
 the Gaussian(R) 09 system (copyright 2009, Gaussian, Inc.),
 the Gaussian(R) 03 system (copyright 2003, Gaussian, Inc.),
 the Gaussian(R) 98 system (copyright 1998, Gaussian, Inc.),
 the Gaussian(R) 94 system (copyright 1995, Gaussian, Inc.),
 the Gaussian 92(TM) system (copyright 1992, Gaussian, Inc.),
 the Gaussian 90(TM) system (copyright 1990, Gaussian, Inc.),
 the Gaussian 88(TM) system (copyright 1988, Gaussian, Inc.),
 the Gaussian 86(TM) system (copyright 1986, Carnegie Mellon
 University), and the Gaussian 82(TM) system (copyright 1983,
 Carnegie Mellon University). Gaussian is a federally registered
 trademark of Gaussian, Inc.
  
 This software contains proprietary and confidential information,
 including trade secrets, belonging to Gaussian, Inc.
  
 This software is provided under written license and may be
 used, copied, transmitted, or stored only in accord with that
 written license.
  
 The following legend is applicable only to US Government
 contracts under FAR:
  
                    RESTRICTED RIGHTS LEGEND
  
 Use, reproduction and disclosure by the US Government is
 subject to restrictions as set forth in subparagraphs (a)
 and (c) of the Commercial Computer Software - Restricted
 Rights clause in FAR 52.227-19.
  
 Gaussian, Inc.
 340 Quinnipiac St., Bldg. 40, Wallingford CT 06492
  
  
 ---------------------------------------------------------------
 Warning -- This program may not be used in any manner that
 competes with the business of Gaussian, Inc. or will provide
 assistance to any competitor of Gaussian, Inc.  The licensee
 of this program is prohibited from giving any competitor of
 Gaussian, Inc. access to this program.  By using this program,
 the user acknowledges that Gaussian, Inc. is engaged in the
 business of creating and licensing software in the field of
 computational chemistry and represents and warrants to the
 licensee that it is not a competitor of Gaussian, Inc. and that
 it will not use this program in any manner prohibited above.
 ---------------------------------------------------------------
  

 Cite this work as:
 Gaussian 16, Revision A.03,
 M. J. Frisch, G. W. Trucks, H. B. Schlegel, G. E. Scuseria, 
 M. A. Robb, J. R. Cheeseman, G. Scalmani, V. Barone, 
 G. A. Petersson, H. Nakatsuji, X. Li, M. Caricato, A. V. Marenich, 
 J. Bloino, B. G. Janesko, R. Gomperts, B. Mennucci, H. P. Hratchian, 
 J. V. Ortiz, A. F. Izmaylov, J. L. Sonnenberg, D. Williams-Young, 
 F. Ding, F. Lipparini, F. Egidi, J. Goings, B. Peng, A. Petrone, 
 T. Henderson, D. Ranasinghe, V. G. Zakrzewski, J. Gao, N. Rega, 
 G. Zheng, W. Liang, M. Hada, M. Ehara, K. Toyota, R. Fukuda, 
 J. Hasegawa, M. Ishida, T. Nakajima, Y. Honda, O. Kitao, H. Nakai, 
 T. Vreven, K. Throssell, J. A. Montgomery, Jr., J. E. Peralta, 
 F. Ogliaro, M. J. Bearpark, J. J. Heyd, E. N. Brothers, K. N. Kudin, 
 V. N. Staroverov, T. A. Keith, R. Kobayashi, J. Normand, 
 K. Raghavachari, A. P. Rendell, J. C. Burant, S. S. Iyengar, 
 J. Tomasi, M. Cossi, J. M. Millam, M. Klene, C. Adamo, R. Cammi, 
 J. W. Ochterski, R. L. Martin, K. Morokuma, O. Farkas, 
 J. B. Foresman, and D. J. Fox, Gaussian, Inc., Wallingford CT, 2016.
 
 ******************************************
 Gaussian 16:  EM64W-G16RevA.03 17-Dec-2016
                03-Dec-2025 
 ******************************************
 %nprocs=   4
 Will use up to    4 processors via shared memory.
 ------------------------------------
 #P B3LYP/6-31G* SCF=conver=7 out=wfn
 ------------------------------------
 1/38=1,172=1/1;
 2/12=2,17=6,18=5,40=1/2;
 3/5=1,6=6,7=1,11=2,25=1,30=1,74=-5/1,2,3;
 4//1;
 5/5=2,6=7,38=5/2;
 6/7=2,8=2,9=2,10=2,28=1/1;
 99/5=1,6=100,9=1/99;
 Leave Link    1 at Wed Dec 03 16:30:00 2025, MaxMem=           0 cpu:               0.0 elap:               0.1
 (Enter D:\Gaussian\G16W\l101.exe)
 ----------------------------------------------------
 Generated by Multiwfn (http://sobereva.com/multiwfn)
 ----------------------------------------------------
 Symbolic Z-matrix:
 Charge = -1 Multiplicity = 2
 C                    -1.60571   0.058    -0.00016 
 C                    -0.60984   1.0436   -0.00006 
 C                     0.7501    0.74459   0.00007 
 C                     1.12299  -0.60946   0.0001 
 C                     0.15539  -1.60917  -0.00001 
 C                    -1.19831  -1.27447  -0.00014 
 H                     0.45772  -2.65304  0. 
 O                     2.46726  -0.88264   0.00024 
 H                    -1.94024  -2.06621  -0.00022 
 H                     2.59309  -1.83679   0.00019 
 C                    -3.06771   0.43798  -0.00028 
 H                    -3.32683   1.03396   0.88073 
 H                    -3.32659   1.03432  -0.8811 
 H                    -3.7065   -0.4477   -0.00054 
 H                    -0.90404   2.08993  -0.0001 
 C                     1.80963   1.81535   0.00021 
 H                     2.45813   1.72956   0.87734 
 H                     2.45892   1.72901  -0.87628 
 H                     1.359     2.80959  -0.00028 
 
 ITRead=  0  0  0  0  0  0  0  0  0  0  0  0  0  0  0  0  0  0  0
 MicOpt= -1 -1 -1 -1 -1 -1 -1 -1 -1 -1 -1 -1 -1 -1 -1 -1 -1 -1 -1
 NAtoms=     19 NQM=       19 NQMF=       0 NMMI=      0 NMMIF=      0
                NMic=       0 NMicF=      0.
                    Isotopes and Nuclear Properties:
 (Nuclear quadrupole moments (NQMom) in fm**2, nuclear magnetic moments (NMagM)
  in nuclear magnetons)

  Atom         1           2           3           4           5           6           7           8           9          10
 IAtWgt=          12          12          12          12          12          12           1          16           1           1
 AtmWgt=  12.0000000  12.0000000  12.0000000  12.0000000  12.0000000  12.0000000   1.0078250  15.9949146   1.0078250   1.0078250
 NucSpn=           0           0           0           0           0           0           1           0           1           1
 AtZEff=   0.0000000   0.0000000   0.0000000   0.0000000   0.0000000   0.0000000   0.0000000   0.0000000   0.0000000   0.0000000
 NQMom=    0.0000000   0.0000000   0.0000000   0.0000000   0.0000000   0.0000000   0.0000000   0.0000000   0.0000000   0.0000000
 NMagM=    0.0000000   0.0000000   0.0000000   0.0000000   0.0000000   0.0000000   2.7928460   0.0000000   2.7928460   2.7928460
 AtZNuc=   6.0000000   6.0000000   6.0000000   6.0000000   6.0000000   6.0000000   1.0000000   8.0000000   1.0000000   1.0000000

  Atom        11          12          13          14          15          16          17          18          19
 IAtWgt=          12           1           1           1           1          12           1           1           1
 AtmWgt=  12.0000000   1.0078250   1.0078250   1.0078250   1.0078250  12.0000000   1.0078250   1.0078250   1.0078250
 NucSpn=           0           1           1           1           1           0           1           1           1
 AtZEff=   0.0000000   0.0000000   0.0000000   0.0000000   0.0000000   0.0000000   0.0000000   0.0000000   0.0000000
 NQMom=    0.0000000   0.0000000   0.0000000   0.0000000   0.0000000   0.0000000   0.0000000   0.0000000   0.0000000
 NMagM=    0.0000000   2.7928460   2.7928460   2.7928460   2.7928460   0.0000000   2.7928460   2.7928460   2.7928460
 AtZNuc=   6.0000000   1.0000000   1.0000000   1.0000000   1.0000000   6.0000000   1.0000000   1.0000000   1.0000000
 Leave Link  101 at Wed Dec 03 16:30:00 2025, MaxMem=   104857600 cpu:               0.0 elap:               0.1
 (Enter D:\Gaussian\G16W\l202.exe)
                          Input orientation:                          
 ---------------------------------------------------------------------
 Center     Atomic      Atomic             Coordinates (Angstroms)
 Number     Number       Type             X           Y           Z
 ---------------------------------------------------------------------
      1          6           0       -1.605709    0.058001   -0.000159
      2          6           0       -0.609836    1.043604   -0.000061
      3          6           0        0.750100    0.744594    0.000068
      4          6           0        1.122993   -0.609461    0.000096
      5          6           0        0.155387   -1.609174   -0.000012
      6          6           0       -1.198311   -1.274466   -0.000135
      7          1           0        0.457722   -2.653044   -0.000002
      8          8           0        2.467256   -0.882643    0.000238
      9          1           0       -1.940235   -2.066207   -0.000219
     10          1           0        2.593085   -1.836794    0.000187
     11          6           0       -3.067708    0.437977   -0.000275
     12          1           0       -3.326827    1.033957    0.880732
     13          1           0       -3.326594    1.034318   -0.881104
     14          1           0       -3.706495   -0.447702   -0.000538
     15          1           0       -0.904039    2.089928   -0.000102
     16          6           0        1.809631    1.815347    0.000205
     17          1           0        2.458134    1.729558    0.877343
     18          1           0        2.458923    1.729008   -0.876281
     19          1           0        1.358995    2.809593   -0.000283
 ---------------------------------------------------------------------
                    Distance matrix (angstroms):
                    1          2          3          4          5
     1  C    0.000000
     2  C    1.401134   0.000000
     3  C    2.453823   1.392420   0.000000
     4  C    2.809149   2.394853   1.404462   0.000000
     5  C    2.425063   2.760941   2.427737   1.391290   0.000000
     6  C    1.393356   2.391600   2.805870   2.414681   1.394463
     7  H    3.406980   3.847712   3.410195   2.149143   1.086771
     8  O    4.180174   3.630279   2.365698   1.371740   2.423342
     9  H    2.150388   3.382438   3.890823   3.391972   2.144880
    10  H    4.606530   4.307597   3.171775   1.915076   2.448302
    11  C    1.510570   2.531387   3.830101   4.319618   3.818268
    12  H    2.165804   2.856209   4.180985   4.824649   4.459559
    13  H    2.165803   2.856063   4.180890   4.824660   4.459660
    14  H    2.160796   3.437047   4.613330   4.832196   4.032760
    15  H    2.149667   1.086899   2.132158   3.375731   3.847823
    16  C    3.840939   2.539568   1.506359   2.520152   3.803139
    17  H    4.480952   3.263864   2.158042   2.832521   4.149642
    18  H    4.481193   3.264172   2.158040   2.832169   4.149408
    19  H    4.044840   2.644809   2.152899   3.427189   4.579757
                    6          7          8          9         10
     6  C    0.000000
     7  H    2.154744   0.000000
     8  O    3.686449   2.678161   0.000000
     9  H    1.085037   2.468719   4.563639   0.000000
    10  H    3.832871   2.286053   0.962412   4.539121   0.000000
    11  C    2.535174   4.688610   5.690331   2.746294   6.100751
    12  H    3.261184   5.356536   6.166038   3.508522   6.637916
    13  H    3.261315   5.356681   6.166052   3.508733   6.637963
    14  H    2.640933   4.712137   6.189053   2.395670   6.450914
    15  H    3.377239   4.934590   4.494642   4.283359   5.258234
    16  C    4.312153   4.668423   2.776980   5.397032   3.735229
    17  H    4.812870   4.896793   2.755538   5.875678   3.675116
    18  H    4.812884   4.896432   2.754828   5.875690   3.674390
    19  H    4.818646   5.536488   3.854977   5.887134   4.807483
                   11         12         13         14         15
    11  C    0.000000
    12  H    1.094764   0.000000
    13  H    1.094762   1.761836   0.000000
    14  H    1.092006   1.765247   1.765249   0.000000
    15  H    2.722206   2.785829   2.785543   3.780652   0.000000
    16  C    5.068095   5.269639   5.269489   5.962301   2.727526
    17  H    5.742240   5.826632   6.085932   6.596498   3.493420
    18  H    5.742630   6.086468   5.827077   6.596770   3.493918
    19  H    5.021978   5.087828   5.087454   6.022388   2.374709
                   16         17         18         19
    16  C    0.000000
    17  H    1.094206   0.000000
    18  H    1.094195   1.753624   0.000000
    19  H    1.091603   1.773361   1.773380   0.000000
 Stoichiometry    C8H10O(1-,2)
 Framework group  C1[X(C8H10O)]
 Deg. of freedom    51
 Full point group                 C1      NOp   1
 Largest Abelian subgroup         C1      NOp   1
 Largest concise Abelian subgroup C1      NOp   1
                         Standard orientation:                         
 ---------------------------------------------------------------------
 Center     Atomic      Atomic             Coordinates (Angstroms)
 Number     Number       Type             X           Y           Z
 ---------------------------------------------------------------------
      1          6           0       -1.605709    0.058001   -0.000159
      2          6           0       -0.609836    1.043604   -0.000061
      3          6           0        0.750100    0.744594    0.000068
      4          6           0        1.122993   -0.609461    0.000096
      5          6           0        0.155387   -1.609174   -0.000012
      6          6           0       -1.198311   -1.274466   -0.000135
      7          1           0        0.457722   -2.653044   -0.000002
      8          8           0        2.467256   -0.882643    0.000238
      9          1           0       -1.940235   -2.066207   -0.000219
     10          1           0        2.593085   -1.836794    0.000187
     11          6           0       -3.067708    0.437977   -0.000275
     12          1           0       -3.326827    1.033957    0.880732
     13          1           0       -3.326594    1.034318   -0.881104
     14          1           0       -3.706495   -0.447703   -0.000538
     15          1           0       -0.904039    2.089928   -0.000102
     16          6           0        1.809631    1.815347    0.000205
     17          1           0        2.458134    1.729558    0.877343
     18          1           0        2.458923    1.729008   -0.876281
     19          1           0        1.358995    2.809593   -0.000283
 ---------------------------------------------------------------------
 Rotational constants (GHZ):           3.0152298           1.2983664           0.9178306
 Leave Link  202 at Wed Dec 03 16:30:00 2025, MaxMem=   104857600 cpu:               0.0 elap:               0.0
 (Enter D:\Gaussian\G16W\l301.exe)
 Standard basis: 6-31G(d) (6D, 7F)
 Ernie: Thresh=  0.10000D-02 Tol=  0.10000D-05 Strict=F.
 There are   155 symmetry adapted cartesian basis functions of A   symmetry.
 There are   155 symmetry adapted basis functions of A   symmetry.
   155 basis functions,   292 primitive gaussians,   155 cartesian basis functions
    34 alpha electrons       33 beta electrons
       nuclear repulsion energy       425.3452322629 Hartrees.
 IExCor=  402 DFT=T Ex+Corr=B3LYP ExCW=0 ScaHFX=  0.200000
 ScaDFX=  0.800000  0.720000  1.000000  0.810000 ScalE2=  1.000000  1.000000
 IRadAn=      5 IRanWt=     -1 IRanGd=            0 ICorTp=0 IEmpDi=  4
 NAtoms=   19 NActive=   19 NUniq=   19 SFac= 1.00D+00 NAtFMM=   60 NAOKFM=F Big=F
 Integral buffers will be    131072 words long.
 Raffenetti 2 integral format.
 Two-electron integral symmetry is turned on.
 Leave Link  301 at Wed Dec 03 16:30:00 2025, MaxMem=   104857600 cpu:               0.0 elap:               0.1
 (Enter D:\Gaussian\G16W\l302.exe)
 NPDir=0 NMtPBC=     1 NCelOv=     1 NCel=       1 NClECP=     1 NCelD=      1
         NCelK=      1 NCelE2=     1 NClLst=     1 CellRange=     0.0.
 One-electron integrals computed using PRISM.
 One-electron integral symmetry used in STVInt
 NBasis=   155 RedAO= T EigKep=  3.79D-04  NBF=   155
 NBsUse=   155 1.00D-06 EigRej= -1.00D+00 NBFU=   155
 Precomputing XC quadrature grid using
 IXCGrd= 4 IRadAn=           5 IRanWt=          -1 IRanGd=           0 AccXCQ= 0.00D+00.
 Generated NRdTot=       0 NPtTot=           0 NUsed=           0 NTot=          32
 NSgBfM=   155   155   155   155   155 MxSgAt=    19 MxSgA2=    19.
 Leave Link  302 at Wed Dec 03 16:30:00 2025, MaxMem=   104857600 cpu:               0.0 elap:               0.4
 (Enter D:\Gaussian\G16W\l303.exe)
 DipDrv:  MaxL=1.
 Leave Link  303 at Wed Dec 03 16:30:00 2025, MaxMem=   104857600 cpu:               0.0 elap:               0.1
 (Enter D:\Gaussian\G16W\l401.exe)
 ExpMin= 1.61D-01 ExpMax= 5.48D+03 ExpMxC= 8.25D+02 IAcc=3 IRadAn=         5 AccDes= 0.00D+00
 Harris functional with IExCor=  402 and IRadAn=       5 diagonalized for initial guess.
 HarFok:  IExCor=  402 AccDes= 0.00D+00 IRadAn=         5 IDoV= 1 UseB2=F ITyADJ=14
 ICtDFT=  3500011 ScaDFX=  1.000000  1.000000  1.000000  1.000000
 FoFCou: FMM=F IPFlag=           0 FMFlag=      100000 FMFlg1=           0
         NFxFlg=           0 DoJE=T BraDBF=F KetDBF=T FulRan=T
         wScrn=  0.000000 ICntrl=       500 IOpCl=  0 I1Cent=   200000004 NGrid=           0
         NMat0=    1 NMatS0=      1 NMatT0=    0 NMatD0=    1 NMtDS0=    0 NMtDT0=    0
 Petite list used in FoFCou.
 Harris En= -386.304512876199    
 JPrj=0 DoOrth=F DoCkMO=F.
 Initial guess <Sx>= 0.0000 <Sy>= 0.0000 <Sz>= 0.5000 <S**2>= 0.7500 S= 0.5000
 Leave Link  401 at Wed Dec 03 16:30:02 2025, MaxMem=   104857600 cpu:               1.0 elap:               1.0
 (Enter D:\Gaussian\G16W\l502.exe)
 Integral symmetry usage will be decided dynamically.
 UHF open shell SCF:
 Using DIIS extrapolation, IDIIS=  1040.
 NGot=   104857600 LenX=   104806718 LenY=   104782252
 Requested convergence on RMS density matrix=1.00D-07 within 128 cycles.
 Requested convergence on MAX density matrix=1.00D-05.
 Requested convergence on             energy=1.00D-05.
 No special actions if energy rises.
 Fock matrices will be formed incrementally for  20 cycles.
 Integral accuracy reduced to 1.0D-05 until final iterations.

 Cycle   1  Pass 0  IDiag  1:
 FoFJK:  IHMeth= 1 ICntrl=       0 DoSepK=F KAlg= 0 I1Cent=           0 FoldK=F
 IRaf= 950000000 NMat=       1 IRICut=       1 DoRegI=T DoRafI=F ISym2E= 0 IDoP0=0 IntGTp=1.
 FoFCou: FMM=F IPFlag=           0 FMFlag=      100000 FMFlg1=           0
         NFxFlg=           0 DoJE=F BraDBF=F KetDBF=F FulRan=T
         wScrn=  0.000000 ICntrl=         0 IOpCl=  1 I1Cent=           0 NGrid=           0
         NMat0=    1 NMatS0=      1 NMatT0=    0 NMatD0=    1 NMtDS0=    0 NMtDT0=    0
 Symmetry not used in FoFCou.
 E= -385.582321471531    
 DIIS: error= 6.29D-02 at cycle   1 NSaved=   1.
 NSaved= 1 IEnMin= 1 EnMin= -385.582321471531     IErMin= 1 ErrMin= 6.29D-02
 ErrMax= 6.29D-02  0.00D+00 EMaxC= 1.00D-01 BMatC= 1.54D+00 BMatP= 1.54D+00
 IDIUse=3 WtCom= 3.71D-01 WtEn= 6.29D-01
 Coeff-Com:  0.100D+01
 Coeff-En:   0.100D+01
 Coeff:      0.100D+01
 Gap=     0.029 Goal=   None    Shift=    0.000
 Gap=     0.281 Goal=   None    Shift=    0.000
 GapD=    0.029 DampG=0.250 DampE=0.500 DampFc=0.2500 IDamp=-1.
 Damping current iteration by 2.50D-01
 RMSDP=2.58D-02 MaxDP=2.53D+00              OVMax= 9.78D-01

 Cycle   2  Pass 0  IDiag  1:
 RMSU=  6.44D-03    CP:  9.90D-01
 E= -385.738647898839     Delta-E=       -0.156326427307 Rises=F Damp=T
 DIIS: error= 2.77D-02 at cycle   2 NSaved=   2.
 NSaved= 2 IEnMin= 2 EnMin= -385.738647898839     IErMin= 2 ErrMin= 2.77D-02
 ErrMax= 2.77D-02  0.00D+00 EMaxC= 1.00D-01 BMatC= 3.35D-01 BMatP= 1.54D+00
 IDIUse=3 WtCom= 7.23D-01 WtEn= 2.77D-01
 Coeff-Com: -0.692D+00 0.169D+01
 Coeff-En:   0.000D+00 0.100D+01
 Coeff:     -0.500D+00 0.150D+01
 Gap=    -0.008 Goal=   None    Shift=    0.000
 Gap=     0.332 Goal=   None    Shift=    0.000
 RMSDP=7.05D-03 MaxDP=5.92D-01 DE=-1.56D-01 OVMax= 9.91D-01

 Cycle   3  Pass 0  IDiag  1:
 RMSU=  5.43D-03    CP:  9.72D-01  3.05D-01
 E= -385.960130293083     Delta-E=       -0.221482394244 Rises=F Damp=F
 DIIS: error= 2.49D-02 at cycle   3 NSaved=   3.
 NSaved= 3 IEnMin= 3 EnMin= -385.960130293083     IErMin= 3 ErrMin= 2.49D-02
 ErrMax= 2.49D-02  0.00D+00 EMaxC= 1.00D-01 BMatC= 2.31D-01 BMatP= 3.35D-01
 IDIUse=3 WtCom= 7.51D-01 WtEn= 2.49D-01
 Coeff-Com: -0.438D+00 0.107D+01 0.368D+00
 Coeff-En:   0.000D+00 0.000D+00 0.100D+01
 Coeff:     -0.329D+00 0.803D+00 0.525D+00
 Gap=     0.050 Goal=   None    Shift=    0.000
 Gap=     0.255 Goal=   None    Shift=    0.000
 RMSDP=2.58D-03 MaxDP=7.22D-02 DE=-2.21D-01 OVMax= 1.30D-01

 Cycle   4  Pass 0  IDiag  1:
 RMSU=  2.27D-03    CP:  9.76D-01  3.24D-01  7.78D-01
 E= -386.008567052487     Delta-E=       -0.048436759405 Rises=F Damp=F
 DIIS: error= 9.51D-03 at cycle   4 NSaved=   4.
 NSaved= 4 IEnMin= 4 EnMin= -386.008567052487     IErMin= 4 ErrMin= 9.51D-03
 ErrMax= 9.51D-03  0.00D+00 EMaxC= 1.00D-01 BMatC= 4.80D-02 BMatP= 2.31D-01
 IDIUse=3 WtCom= 9.05D-01 WtEn= 9.51D-02
 Coeff-Com: -0.164D+00 0.345D+00 0.293D+00 0.526D+00
 Coeff-En:   0.000D+00 0.000D+00 0.116D+00 0.884D+00
 Coeff:     -0.148D+00 0.312D+00 0.276D+00 0.560D+00
 Gap=     0.062 Goal=   None    Shift=    0.000
 Gap=     0.224 Goal=   None    Shift=    0.000
 RMSDP=8.49D-04 MaxDP=2.70D-02 DE=-4.84D-02 OVMax= 4.13D-02

 Cycle   5  Pass 0  IDiag  1:
 RMSU=  5.56D-04    CP:  9.75D-01  3.33D-01  8.45D-01  7.69D-01
 E= -386.017309179829     Delta-E=       -0.008742127341 Rises=F Damp=F
 DIIS: error= 2.97D-03 at cycle   5 NSaved=   5.
 NSaved= 5 IEnMin= 5 EnMin= -386.017309179829     IErMin= 5 ErrMin= 2.97D-03
 ErrMax= 2.97D-03  0.00D+00 EMaxC= 1.00D-01 BMatC= 4.05D-03 BMatP= 4.80D-02
 IDIUse=3 WtCom= 9.70D-01 WtEn= 2.97D-02
 Coeff-Com: -0.620D-01 0.956D-01 0.429D-01 0.233D+00 0.691D+00
 Coeff-En:   0.000D+00 0.000D+00 0.000D+00 0.223D-01 0.978D+00
 Coeff:     -0.601D-01 0.927D-01 0.416D-01 0.226D+00 0.700D+00
 Gap=     0.062 Goal=   None    Shift=    0.000
 Gap=     0.225 Goal=   None    Shift=    0.000
 RMSDP=3.63D-04 MaxDP=9.98D-03 DE=-8.74D-03 OVMax= 2.01D-02

 Cycle   6  Pass 0  IDiag  1:
 RMSU=  2.42D-04    CP:  9.75D-01  3.41D-01  8.33D-01  8.69D-01  7.80D-01
 E= -386.018128999918     Delta-E=       -0.000819820089 Rises=F Damp=F
 DIIS: error= 1.32D-03 at cycle   6 NSaved=   6.
 NSaved= 6 IEnMin= 6 EnMin= -386.018128999918     IErMin= 6 ErrMin= 1.32D-03
 ErrMax= 1.32D-03  0.00D+00 EMaxC= 1.00D-01 BMatC= 1.19D-03 BMatP= 4.05D-03
 IDIUse=3 WtCom= 9.87D-01 WtEn= 1.32D-02
 Coeff-Com: -0.278D-01 0.340D-01-0.169D-01 0.676D-01 0.471D+00 0.472D+00
 Coeff-En:   0.000D+00 0.000D+00 0.000D+00 0.000D+00 0.174D+00 0.826D+00
 Coeff:     -0.274D-01 0.335D-01-0.167D-01 0.667D-01 0.467D+00 0.477D+00
 Gap=     0.064 Goal=   None    Shift=    0.000
 Gap=     0.225 Goal=   None    Shift=    0.000
 RMSDP=1.93D-04 MaxDP=5.82D-03 DE=-8.20D-04 OVMax= 1.39D-02

 Cycle   7  Pass 0  IDiag  1:
 RMSU=  1.04D-04    CP:  9.75D-01  3.42D-01  8.42D-01  8.57D-01  9.45D-01
                    CP:  4.95D-01
 E= -386.018448102842     Delta-E=       -0.000319102924 Rises=F Damp=F
 DIIS: error= 3.86D-04 at cycle   7 NSaved=   7.
 NSaved= 7 IEnMin= 7 EnMin= -386.018448102842     IErMin= 7 ErrMin= 3.86D-04
 ErrMax= 3.86D-04  0.00D+00 EMaxC= 1.00D-01 BMatC= 8.31D-05 BMatP= 1.19D-03
 IDIUse=3 WtCom= 9.96D-01 WtEn= 3.86D-03
 Coeff-Com: -0.807D-02 0.843D-02-0.179D-01-0.498D-02 0.125D+00 0.238D+00
 Coeff-Com:  0.660D+00
 Coeff-En:   0.000D+00 0.000D+00 0.000D+00 0.000D+00 0.000D+00 0.000D+00
 Coeff-En:   0.100D+01
 Coeff:     -0.804D-02 0.840D-02-0.178D-01-0.496D-02 0.124D+00 0.237D+00
 Coeff:      0.661D+00
 Gap=     0.064 Goal=   None    Shift=    0.000
 Gap=     0.225 Goal=   None    Shift=    0.000
 RMSDP=6.56D-05 MaxDP=1.91D-03 DE=-3.19D-04 OVMax= 5.49D-03

 Cycle   8  Pass 0  IDiag  1:
 RMSU=  5.22D-05    CP:  9.75D-01  3.43D-01  8.42D-01  8.65D-01  9.58D-01
                    CP:  6.28D-01  1.09D+00
 E= -386.018476991014     Delta-E=       -0.000028888172 Rises=F Damp=F
 DIIS: error= 1.68D-04 at cycle   8 NSaved=   8.
 NSaved= 8 IEnMin= 8 EnMin= -386.018476991014     IErMin= 8 ErrMin= 1.68D-04
 ErrMax= 1.68D-04  0.00D+00 EMaxC= 1.00D-01 BMatC= 2.04D-05 BMatP= 8.31D-05
 IDIUse=3 WtCom= 9.98D-01 WtEn= 1.68D-03
 Coeff-Com:  0.975D-03-0.174D-02-0.617D-02-0.170D-01-0.423D-01 0.273D-01
 Coeff-Com:  0.387D+00 0.652D+00
 Coeff-En:   0.000D+00 0.000D+00 0.000D+00 0.000D+00 0.000D+00 0.000D+00
 Coeff-En:   0.000D+00 0.100D+01
 Coeff:      0.974D-03-0.174D-02-0.616D-02-0.170D-01-0.422D-01 0.272D-01
 Coeff:      0.387D+00 0.652D+00
 Gap=     0.065 Goal=   None    Shift=    0.000
 Gap=     0.226 Goal=   None    Shift=    0.000
 RMSDP=4.24D-05 MaxDP=1.24D-03 DE=-2.89D-05 OVMax= 4.27D-03

 Cycle   9  Pass 0  IDiag  1:
 RMSU=  2.62D-05    CP:  9.75D-01  3.44D-01  8.41D-01  8.68D-01  9.82D-01
                    CP:  6.40D-01  1.36D+00  1.17D+00
 E= -386.018487115981     Delta-E=       -0.000010124966 Rises=F Damp=F
 DIIS: error= 7.54D-05 at cycle   9 NSaved=   9.
 NSaved= 9 IEnMin= 9 EnMin= -386.018487115981     IErMin= 9 ErrMin= 7.54D-05
 ErrMax= 7.54D-05  0.00D+00 EMaxC= 1.00D-01 BMatC= 2.39D-06 BMatP= 2.04D-05
 IDIUse=1 WtCom= 1.00D+00 WtEn= 0.00D+00
 Coeff-Com:  0.206D-02-0.246D-02 0.138D-02-0.560D-02-0.405D-01-0.284D-01
 Coeff-Com:  0.174D-01 0.200D+00 0.856D+00
 Coeff:      0.206D-02-0.246D-02 0.138D-02-0.560D-02-0.405D-01-0.284D-01
 Coeff:      0.174D-01 0.200D+00 0.856D+00
 Gap=     0.065 Goal=   None    Shift=    0.000
 Gap=     0.226 Goal=   None    Shift=    0.000
 RMSDP=4.05D-05 MaxDP=1.18D-03 DE=-1.01D-05 OVMax= 4.70D-03

 Cycle  10  Pass 0  IDiag  1:
 RMSU=  1.28D-05    CP:  9.75D-01  3.44D-01  8.42D-01  8.68D-01  9.95D-01
                    CP:  6.52D-01  1.59D+00  1.67D+00  1.45D+00
 E= -386.018490840333     Delta-E=       -0.000003724352 Rises=F Damp=F
 DIIS: error= 6.20D-05 at cycle  10 NSaved=  10.
 NSaved=10 IEnMin=10 EnMin= -386.018490840333     IErMin=10 ErrMin= 6.20D-05
 ErrMax= 6.20D-05  0.00D+00 EMaxC= 1.00D-01 BMatC= 1.94D-06 BMatP= 2.39D-06
 IDIUse=1 WtCom= 1.00D+00 WtEn= 0.00D+00
 Coeff-Com:  0.104D-02-0.114D-02 0.259D-02 0.116D-02-0.115D-01-0.140D-01
 Coeff-Com: -0.791D-01-0.658D-01 0.545D+00 0.622D+00
 Coeff:      0.104D-02-0.114D-02 0.259D-02 0.116D-02-0.115D-01-0.140D-01
 Coeff:     -0.791D-01-0.658D-01 0.545D+00 0.622D+00
 Gap=     0.065 Goal=   None    Shift=    0.000
 Gap=     0.226 Goal=   None    Shift=    0.000
 RMSDP=2.80D-05 MaxDP=8.30D-04 DE=-3.72D-06 OVMax= 3.29D-03

 Cycle  11  Pass 0  IDiag  1:
 RMSU=  6.59D-06    CP:  9.75D-01  3.44D-01  8.42D-01  8.68D-01  1.00D+00
                    CP:  6.51D-01  1.75D+00  1.97D+00  1.97D+00  1.35D+00
 E= -386.018493028450     Delta-E=       -0.000002188117 Rises=F Damp=F
 DIIS: error= 4.64D-05 at cycle  11 NSaved=  11.
 NSaved=11 IEnMin=11 EnMin= -386.018493028450     IErMin=11 ErrMin= 4.64D-05
 ErrMax= 4.64D-05  0.00D+00 EMaxC= 1.00D-01 BMatC= 6.36D-07 BMatP= 1.94D-06
 IDIUse=1 WtCom= 1.00D+00 WtEn= 0.00D+00
 Coeff-Com: -0.203D-03 0.124D-03 0.148D-03 0.194D-02 0.137D-01 0.214D-01
 Coeff-Com: -0.196D-01-0.125D+00-0.173D+00 0.412D-01 0.124D+01
 Coeff:     -0.203D-03 0.124D-03 0.148D-03 0.194D-02 0.137D-01 0.214D-01
 Coeff:     -0.196D-01-0.125D+00-0.173D+00 0.412D-01 0.124D+01
 Gap=     0.065 Goal=   None    Shift=    0.000
 Gap=     0.226 Goal=   None    Shift=    0.000
 RMSDP=4.12D-05 MaxDP=1.26D-03 DE=-2.19D-06 OVMax= 4.89D-03

 Cycle  12  Pass 0  IDiag  1:
 RMSU=  3.43D-06    CP:  9.75D-01  3.44D-01  8.42D-01  8.68D-01  1.01D+00
                    CP:  6.51D-01  1.96D+00  2.44D+00  2.68D+00  2.27D+00
                    CP:  1.98D+00
 E= -386.018495357609     Delta-E=       -0.000002329159 Rises=F Damp=F
 DIIS: error= 3.64D-05 at cycle  12 NSaved=  12.
 NSaved=12 IEnMin=12 EnMin= -386.018495357609     IErMin=12 ErrMin= 3.64D-05
 ErrMax= 3.64D-05  0.00D+00 EMaxC= 1.00D-01 BMatC= 2.64D-07 BMatP= 6.36D-07
 IDIUse=1 WtCom= 1.00D+00 WtEn= 0.00D+00
 Coeff-Com: -0.554D-03 0.698D-03-0.106D-02-0.373D-03 0.594D-02 0.158D-01
 Coeff-Com:  0.334D-01-0.509D-02-0.148D+00-0.265D+00-0.300D+00 0.166D+01
 Coeff:     -0.554D-03 0.698D-03-0.106D-02-0.373D-03 0.594D-02 0.158D-01
 Coeff:      0.334D-01-0.509D-02-0.148D+00-0.265D+00-0.300D+00 0.166D+01
 Gap=     0.065 Goal=   None    Shift=    0.000
 Gap=     0.226 Goal=   None    Shift=    0.000
 RMSDP=5.08D-05 MaxDP=1.56D-03 DE=-2.33D-06 OVMax= 6.06D-03

 Cycle  13  Pass 0  IDiag  1:
 RMSU=  1.67D-05    CP:  9.75D-01  3.44D-01  8.43D-01  8.68D-01  1.03D+00
                    CP:  6.48D-01  2.22D+00  3.00D+00  3.00D+00  3.00D+00
                    CP:  3.00D+00  2.13D+00
 E= -386.018497234732     Delta-E=       -0.000001877123 Rises=F Damp=F
 DIIS: error= 2.47D-05 at cycle  13 NSaved=  13.
 NSaved=13 IEnMin=13 EnMin= -386.018497234732     IErMin=13 ErrMin= 2.47D-05
 ErrMax= 2.47D-05  0.00D+00 EMaxC= 1.00D-01 BMatC= 2.18D-07 BMatP= 2.64D-07
 IDIUse=1 WtCom= 1.00D+00 WtEn= 0.00D+00
 Coeff-Com: -0.300D-03 0.424D-03-0.105D-02-0.166D-02-0.414D-02 0.420D-03
 Coeff-Com:  0.335D-01 0.623D-01 0.304D-01-0.211D+00-0.124D+01 0.142D+01
 Coeff-Com:  0.903D+00
 Coeff:     -0.300D-03 0.424D-03-0.105D-02-0.166D-02-0.414D-02 0.420D-03
 Coeff:      0.335D-01 0.623D-01 0.304D-01-0.211D+00-0.124D+01 0.142D+01
 Coeff:      0.903D+00
 Gap=     0.065 Goal=   None    Shift=    0.000
 Gap=     0.226 Goal=   None    Shift=    0.000
 RMSDP=4.84D-05 MaxDP=1.49D-03 DE=-1.88D-06 OVMax= 5.74D-03

 Cycle  14  Pass 0  IDiag  1:
 RMSU=  2.86D-05    CP:  9.75D-01  3.44D-01  8.43D-01  8.69D-01  1.04D+00
                    CP:  6.45D-01  2.48D+00  3.00D+00  3.00D+00  3.00D+00
                    CP:  3.00D+00  3.00D+00  2.65D+00
 E= -386.018498165930     Delta-E=       -0.000000931198 Rises=F Damp=F
 DIIS: error= 6.95D-06 at cycle  14 NSaved=  14.
 NSaved=14 IEnMin=14 EnMin= -386.018498165930     IErMin=14 ErrMin= 6.95D-06
 ErrMax= 6.95D-06  0.00D+00 EMaxC= 1.00D-01 BMatC= 1.65D-08 BMatP= 2.18D-07
 IDIUse=1 WtCom= 1.00D+00 WtEn= 0.00D+00
 Coeff-Com:  0.160D-04 0.861D-05-0.345D-04-0.443D-03-0.314D-02-0.369D-02
 Coeff-Com: -0.110D-02 0.210D-01 0.830D-01 0.339D-01-0.388D+00 0.689D-01
 Coeff-Com:  0.189D+00 0.100D+01
 Coeff:      0.160D-04 0.861D-05-0.345D-04-0.443D-03-0.314D-02-0.369D-02
 Coeff:     -0.110D-02 0.210D-01 0.830D-01 0.339D-01-0.388D+00 0.689D-01
 Coeff:      0.189D+00 0.100D+01
 Gap=     0.065 Goal=   None    Shift=    0.000
 Gap=     0.226 Goal=   None    Shift=    0.000
 RMSDP=1.55D-05 MaxDP=4.76D-04 DE=-9.31D-07 OVMax= 1.84D-03

 Cycle  15  Pass 0  IDiag  1:
 RMSU=  3.39D-06    CP:  9.75D-01  3.44D-01  8.43D-01  8.69D-01  1.04D+00
                    CP:  6.44D-01  2.55D+00  3.00D+00  3.00D+00  3.00D+00
                    CP:  3.00D+00  3.00D+00  3.00D+00  1.32D+00
 E= -386.018498279216     Delta-E=       -0.000000113286 Rises=F Damp=F
 DIIS: error= 4.08D-06 at cycle  15 NSaved=  15.
 NSaved=15 IEnMin=15 EnMin= -386.018498279216     IErMin=15 ErrMin= 4.08D-06
 ErrMax= 4.08D-06  0.00D+00 EMaxC= 1.00D-01 BMatC= 8.41D-09 BMatP= 1.65D-08
 IDIUse=1 WtCom= 1.00D+00 WtEn= 0.00D+00
 Coeff-Com:  0.806D-04-0.106D-03 0.148D-03 0.825D-05-0.905D-03-0.171D-02
 Coeff-Com: -0.589D-02 0.463D-03 0.347D-01 0.473D-01 0.645D-02-0.198D+00
 Coeff-Com: -0.945D-01 0.474D+00 0.738D+00
 Coeff:      0.806D-04-0.106D-03 0.148D-03 0.825D-05-0.905D-03-0.171D-02
 Coeff:     -0.589D-02 0.463D-03 0.347D-01 0.473D-01 0.645D-02-0.198D+00
 Coeff:     -0.945D-01 0.474D+00 0.738D+00
 Gap=     0.065 Goal=   None    Shift=    0.000
 Gap=     0.226 Goal=   None    Shift=    0.000
 RMSDP=6.99D-06 MaxDP=2.18D-04 DE=-1.13D-07 OVMax= 8.23D-04

 Initial convergence to 1.0D-05 achieved.  Increase integral accuracy.
 Cycle  16  Pass 1  IDiag  1:
 E= -386.018481633564     Delta-E=        0.000016645652 Rises=F Damp=F
 DIIS: error= 1.25D-05 at cycle   1 NSaved=   1.
 NSaved= 1 IEnMin= 1 EnMin= -386.018481633564     IErMin= 1 ErrMin= 1.25D-05
 ErrMax= 1.25D-05  0.00D+00 EMaxC= 1.00D-01 BMatC= 9.24D-08 BMatP= 9.24D-08
 IDIUse=1 WtCom= 1.00D+00 WtEn= 0.00D+00
 Coeff-Com:  0.100D+01
 Coeff:      0.100D+01
 Gap=     0.065 Goal=   None    Shift=    0.000
 Gap=     0.226 Goal=   None    Shift=    0.000
 RMSDP=6.99D-06 MaxDP=2.18D-04 DE= 1.66D-05 OVMax= 4.06D-05

 Cycle  17  Pass 1  IDiag  1:
 RMSU=  4.80D-06    CP:  1.00D+00
 E= -386.018481653319     Delta-E=       -0.000000019755 Rises=F Damp=F
 DIIS: error= 1.88D-06 at cycle   2 NSaved=   2.
 NSaved= 2 IEnMin= 2 EnMin= -386.018481653319     IErMin= 2 ErrMin= 1.88D-06
 ErrMax= 1.88D-06  0.00D+00 EMaxC= 1.00D-01 BMatC= 2.52D-09 BMatP= 9.24D-08
 IDIUse=1 WtCom= 1.00D+00 WtEn= 0.00D+00
 Coeff-Com:  0.237D-01 0.976D+00
 Coeff:      0.237D-01 0.976D+00
 Gap=     0.065 Goal=   None    Shift=    0.000
 Gap=     0.226 Goal=   None    Shift=    0.000
 RMSDP=4.94D-07 MaxDP=1.34D-05 DE=-1.98D-08 OVMax= 2.97D-05

 Cycle  18  Pass 1  IDiag  1:
 RMSU=  4.92D-07    CP:  1.00D+00  1.01D+00
 E= -386.018481653403     Delta-E=       -0.000000000084 Rises=F Damp=F
 DIIS: error= 2.70D-06 at cycle   3 NSaved=   3.
 NSaved= 3 IEnMin= 3 EnMin= -386.018481653403     IErMin= 2 ErrMin= 1.88D-06
 ErrMax= 2.70D-06  0.00D+00 EMaxC= 1.00D-01 BMatC= 4.01D-09 BMatP= 2.52D-09
 IDIUse=1 WtCom= 1.00D+00 WtEn= 0.00D+00
 Coeff-Com: -0.101D-01 0.567D+00 0.443D+00
 Coeff:     -0.101D-01 0.567D+00 0.443D+00
 Gap=     0.065 Goal=   None    Shift=    0.000
 Gap=     0.226 Goal=   None    Shift=    0.000
 RMSDP=2.73D-07 MaxDP=7.98D-06 DE=-8.42D-11 OVMax= 1.37D-05

 Cycle  19  Pass 1  IDiag  1:
 RMSU=  2.35D-07    CP:  1.00D+00  1.02D+00  7.56D-01
 E= -386.018481654380     Delta-E=       -0.000000000977 Rises=F Damp=F
 DIIS: error= 7.26D-07 at cycle   4 NSaved=   4.
 NSaved= 4 IEnMin= 4 EnMin= -386.018481654380     IErMin= 4 ErrMin= 7.26D-07
 ErrMax= 7.26D-07  0.00D+00 EMaxC= 1.00D-01 BMatC= 1.52D-10 BMatP= 2.52D-09
 IDIUse=1 WtCom= 1.00D+00 WtEn= 0.00D+00
 Coeff-Com: -0.472D-02 0.137D+00 0.169D+00 0.698D+00
 Coeff:     -0.472D-02 0.137D+00 0.169D+00 0.698D+00
 Gap=     0.065 Goal=   None    Shift=    0.000
 Gap=     0.226 Goal=   None    Shift=    0.000
 RMSDP=1.68D-07 MaxDP=5.21D-06 DE=-9.77D-10 OVMax= 1.82D-05

 Cycle  20  Pass 1  IDiag  1:
 RMSU=  8.60D-08    CP:  1.00D+00  1.02D+00  9.68D-01  1.42D+00
 E= -386.018481654517     Delta-E=       -0.000000000137 Rises=F Damp=F
 DIIS: error= 3.44D-07 at cycle   5 NSaved=   5.
 NSaved= 5 IEnMin= 5 EnMin= -386.018481654517     IErMin= 5 ErrMin= 3.44D-07
 ErrMax= 3.44D-07  0.00D+00 EMaxC= 1.00D-01 BMatC= 7.18D-11 BMatP= 1.52D-10
 IDIUse=1 WtCom= 1.00D+00 WtEn= 0.00D+00
 Coeff-Com:  0.213D-02-0.182D+00-0.981D-01 0.343D+00 0.935D+00
 Coeff:      0.213D-02-0.182D+00-0.981D-01 0.343D+00 0.935D+00
 Gap=     0.065 Goal=   None    Shift=    0.000
 Gap=     0.226 Goal=   None    Shift=    0.000
 RMSDP=2.44D-07 MaxDP=8.16D-06 DE=-1.37D-10 OVMax= 2.72D-05

 Cycle  21  Pass 1  IDiag  1:
 RMSU=  5.91D-08    CP:  1.00D+00  1.03D+00  1.25D+00  2.17D+00  1.80D+00
 E= -386.018481654646     Delta-E=       -0.000000000129 Rises=F Damp=F
 DIIS: error= 2.68D-07 at cycle   6 NSaved=   6.
 NSaved= 6 IEnMin= 6 EnMin= -386.018481654646     IErMin= 6 ErrMin= 2.68D-07
 ErrMax= 2.68D-07  0.00D+00 EMaxC= 1.00D-01 BMatC= 2.28D-11 BMatP= 7.18D-11
 IDIUse=1 WtCom= 1.00D+00 WtEn= 0.00D+00
 Coeff-Com:  0.279D-02-0.147D+00-0.112D+00-0.806D-01 0.431D+00 0.906D+00
 Coeff:      0.279D-02-0.147D+00-0.112D+00-0.806D-01 0.431D+00 0.906D+00
 Gap=     0.065 Goal=   None    Shift=    0.000
 Gap=     0.226 Goal=   None    Shift=    0.000
 RMSDP=2.24D-07 MaxDP=6.67D-06 DE=-1.29D-10 OVMax= 2.58D-05

 Cycle  22  Pass 1  IDiag  1:
 RMSU=  3.87D-08    CP:  1.00D+00  1.03D+00  1.52D+00  2.83D+00  2.68D+00
                    CP:  1.47D+00
 E= -386.018481654724     Delta-E=       -0.000000000078 Rises=F Damp=F
 DIIS: error= 1.78D-07 at cycle   7 NSaved=   7.
 NSaved= 7 IEnMin= 7 EnMin= -386.018481654724     IErMin= 7 ErrMin= 1.78D-07
 ErrMax= 1.78D-07  0.00D+00 EMaxC= 1.00D-01 BMatC= 1.35D-11 BMatP= 2.28D-11
 IDIUse=1 WtCom= 1.00D+00 WtEn= 0.00D+00
 Coeff-Com:  0.113D-02-0.446D-01-0.422D-01-0.112D+00 0.102D-01 0.565D+00
 Coeff-Com:  0.623D+00
 Coeff:      0.113D-02-0.446D-01-0.422D-01-0.112D+00 0.102D-01 0.565D+00
 Coeff:      0.623D+00
 Gap=     0.065 Goal=   None    Shift=    0.000
 Gap=     0.226 Goal=   None    Shift=    0.000
 RMSDP=1.20D-07 MaxDP=4.21D-06 DE=-7.82D-11 OVMax= 1.40D-05

 Cycle  23  Pass 1  IDiag  1:
 RMSU=  5.31D-08    CP:  1.00D+00  1.03D+00  1.65D+00  3.00D+00  3.00D+00
                    CP:  2.01D+00  1.25D+00
 E= -386.018481654743     Delta-E=       -0.000000000020 Rises=F Damp=F
 DIIS: error= 1.60D-07 at cycle   8 NSaved=   8.
 NSaved= 8 IEnMin= 8 EnMin= -386.018481654743     IErMin= 8 ErrMin= 1.60D-07
 ErrMax= 1.60D-07  0.00D+00 EMaxC= 1.00D-01 BMatC= 6.54D-12 BMatP= 1.35D-11
 IDIUse=1 WtCom= 1.00D+00 WtEn= 0.00D+00
 Coeff-Com: -0.713D-03 0.477D-01 0.317D-01-0.176D-01-0.242D+00-0.110D+00
 Coeff-Com:  0.354D+00 0.937D+00
 Coeff:     -0.713D-03 0.477D-01 0.317D-01-0.176D-01-0.242D+00-0.110D+00
 Coeff:      0.354D+00 0.937D+00
 Gap=     0.065 Goal=   None    Shift=    0.000
 Gap=     0.226 Goal=   None    Shift=    0.000
 RMSDP=1.46D-07 MaxDP=4.43D-06 DE=-1.96D-11 OVMax= 1.73D-05

 Cycle  24  Pass 1  IDiag  1:
 RMSU=  4.20D-08    CP:  1.00D+00  1.03D+00  1.80D+00  3.00D+00  3.00D+00
                    CP:  2.60D+00  2.13D+00  2.99D+00
 E= -386.018481654791     Delta-E=       -0.000000000048 Rises=F Damp=F
 DIIS: error= 1.24D-07 at cycle   9 NSaved=   9.
 NSaved= 9 IEnMin= 9 EnMin= -386.018481654791     IErMin= 9 ErrMin= 1.24D-07
 ErrMax= 1.24D-07  0.00D+00 EMaxC= 1.00D-01 BMatC= 3.06D-12 BMatP= 6.54D-12
 IDIUse=1 WtCom= 1.00D+00 WtEn= 0.00D+00
 Coeff-Com: -0.125D-02 0.626D-01 0.521D-01 0.791D-01-0.179D+00-0.427D+00
 Coeff-Com: -0.191D+00 0.455D+00 0.115D+01
 Coeff:     -0.125D-02 0.626D-01 0.521D-01 0.791D-01-0.179D+00-0.427D+00
 Coeff:     -0.191D+00 0.455D+00 0.115D+01
 Gap=     0.065 Goal=   None    Shift=    0.000
 Gap=     0.226 Goal=   None    Shift=    0.000
 RMSDP=1.72D-07 MaxDP=5.43D-06 DE=-4.79D-11 OVMax= 2.04D-05

 Cycle  25  Pass 1  IDiag  1:
 RMSU=  1.30D-07    CP:  1.00D+00  1.04D+00  1.98D+00  3.00D+00  3.00D+00
                    CP:  3.00D+00  3.00D+00  3.00D+00  1.93D+00
 E= -386.018481654809     Delta-E=       -0.000000000017 Rises=F Damp=F
 DIIS: error= 6.46D-08 at cycle  10 NSaved=  10.
 NSaved=10 IEnMin=10 EnMin= -386.018481654809     IErMin=10 ErrMin= 6.46D-08
 ErrMax= 6.46D-08  0.00D+00 EMaxC= 1.00D-01 BMatC= 2.49D-12 BMatP= 3.06D-12
 IDIUse=1 WtCom= 1.00D+00 WtEn= 0.00D+00
 Coeff-Com: -0.401D-03 0.874D-02 0.145D-01 0.807D-01 0.498D-01-0.217D+00
 Coeff-Com: -0.463D+00-0.609D+00 0.107D+01 0.107D+01
 Coeff:     -0.401D-03 0.874D-02 0.145D-01 0.807D-01 0.498D-01-0.217D+00
 Coeff:     -0.463D+00-0.609D+00 0.107D+01 0.107D+01
 Gap=     0.065 Goal=   None    Shift=    0.000
 Gap=     0.226 Goal=   None    Shift=    0.000
 RMSDP=2.06D-07 MaxDP=6.30D-06 DE=-1.74D-11 OVMax= 2.45D-05

 Cycle  26  Pass 1  IDiag  1:
 RMSU=  5.48D-08    CP:  1.00D+00  1.04D+00  2.19D+00  3.00D+00  3.00D+00
                    CP:  3.00D+00  3.00D+00  3.00D+00  3.00D+00  2.23D+00
 E= -386.018481654815     Delta-E=       -0.000000000007 Rises=F Damp=F
 DIIS: error= 2.33D-08 at cycle  11 NSaved=  11.
 NSaved=11 IEnMin=11 EnMin= -386.018481654815     IErMin=11 ErrMin= 2.33D-08
 ErrMax= 2.33D-08  0.00D+00 EMaxC= 1.00D-01 BMatC= 2.61D-13 BMatP= 2.49D-12
 IDIUse=1 WtCom= 1.00D+00 WtEn= 0.00D+00
 Coeff-Com: -0.637D-04-0.320D-02 0.828D-03 0.325D-01 0.454D-01-0.599D-01
 Coeff-Com: -0.226D+00-0.396D+00 0.431D+00 0.560D+00 0.616D+00
 Coeff:     -0.637D-04-0.320D-02 0.828D-03 0.325D-01 0.454D-01-0.599D-01
 Coeff:     -0.226D+00-0.396D+00 0.431D+00 0.560D+00 0.616D+00
 Gap=     0.065 Goal=   None    Shift=    0.000
 Gap=     0.226 Goal=   None    Shift=    0.000
 RMSDP=4.09D-08 MaxDP=1.26D-06 DE=-6.59D-12 OVMax= 4.84D-06

 SCF Done:  E(UB3LYP) =  -386.018481655     A.U. after   26 cycles
            NFock= 26  Conv=0.41D-07     -V/T= 2.0081
 <Sx>= 0.0000 <Sy>= 0.0000 <Sz>= 0.5000 <S**2>= 0.7600 S= 0.5050
 <L.S>= 0.000000000000E+00
 KE= 3.828989605698D+02 PE=-1.760732882629D+03 EE= 5.664702081413D+02
 Annihilation of the first spin contaminant:
 S**2 before annihilation     0.7600,   after     0.7501
 Leave Link  502 at Wed Dec 03 16:30:49 2025, MaxMem=   104857600 cpu:              47.0 elap:              47.0
 (Enter D:\Gaussian\G16W\l601.exe)
 Copying SCF densities to generalized density rwf, IOpCl= 1 IROHF=0.

 **********************************************************************

            Population analysis using the SCF density.

 **********************************************************************

 Orbital symmetries:
 Alpha Orbitals:
       Occupied  (A) (A) (A) (A) (A) (A) (A) (A) (A) (A) (A) (A)
                 (A) (A) (A) (A) (A) (A) (A) (A) (A) (A) (A) (A)
                 (A) (A) (A) (A) (A) (A) (A) (A) (A) (A)
       Virtual   (A) (A) (A) (A) (A) (A) (A) (A) (A) (A) (A) (A)
                 (A) (A) (A) (A) (A) (A) (A) (A) (A) (A) (A) (A)
                 (A) (A) (A) (A) (A) (A) (A) (A) (A) (A) (A) (A)
                 (A) (A) (A) (A) (A) (A) (A) (A) (A) (A) (A) (A)
                 (A) (A) (A) (A) (A) (A) (A) (A) (A) (A) (A) (A)
                 (A) (A) (A) (A) (A) (A) (A) (A) (A) (A) (A) (A)
                 (A) (A) (A) (A) (A) (A) (A) (A) (A) (A) (A) (A)
                 (A) (A) (A) (A) (A) (A) (A) (A) (A) (A) (A) (A)
                 (A) (A) (A) (A) (A) (A) (A) (A) (A) (A) (A) (A)
                 (A) (A) (A) (A) (A) (A) (A) (A) (A) (A) (A) (A)
                 (A)
 Beta  Orbitals:
       Occupied  (A) (A) (A) (A) (A) (A) (A) (A) (A) (A) (A) (A)
                 (A) (A) (A) (A) (A) (A) (A) (A) (A) (A) (A) (A)
                 (A) (A) (A) (A) (A) (A) (A) (A) (A)
       Virtual   (A) (A) (A) (A) (A) (A) (A) (A) (A) (A) (A) (A)
                 (A) (A) (A) (A) (A) (A) (A) (A) (A) (A) (A) (A)
                 (A) (A) (A) (A) (A) (A) (A) (A) (A) (A) (A) (A)
                 (A) (A) (A) (A) (A) (A) (A) (A) (A) (A) (A) (A)
                 (A) (A) (A) (A) (A) (A) (A) (A) (A) (A) (A) (A)
                 (A) (A) (A) (A) (A) (A) (A) (A) (A) (A) (A) (A)
                 (A) (A) (A) (A) (A) (A) (A) (A) (A) (A) (A) (A)
                 (A) (A) (A) (A) (A) (A) (A) (A) (A) (A) (A) (A)
                 (A) (A) (A) (A) (A) (A) (A) (A) (A) (A) (A) (A)
                 (A) (A) (A) (A) (A) (A) (A) (A) (A) (A) (A) (A)
                 (A) (A)
 The electronic state is 2-A.
 Alpha  occ. eigenvalues --  -18.99542 -10.03022 -10.01637 -10.00383  -9.97781
 Alpha  occ. eigenvalues --   -9.95671  -9.95364  -9.94999  -9.94062  -0.87400
 Alpha  occ. eigenvalues --   -0.63655  -0.58043  -0.55286  -0.49267  -0.48262
 Alpha  occ. eigenvalues --   -0.41561  -0.36994  -0.33354  -0.28465  -0.26369
 Alpha  occ. eigenvalues --   -0.24994  -0.24104  -0.23485  -0.22469  -0.20877
 Alpha  occ. eigenvalues --   -0.19858  -0.19416  -0.17378  -0.14416  -0.12487
 Alpha  occ. eigenvalues --   -0.12302  -0.03979  -0.01360   0.15625
 Alpha virt. eigenvalues --    0.22125   0.22848   0.26327   0.28087   0.28932
 Alpha virt. eigenvalues --    0.30928   0.31182   0.32082   0.34616   0.36161
 Alpha virt. eigenvalues --    0.36820   0.39675   0.42107   0.42764   0.45260
 Alpha virt. eigenvalues --    0.52575   0.53846   0.56281   0.58040   0.66586
 Alpha virt. eigenvalues --    0.66796   0.70517   0.73059   0.73657   0.74196
 Alpha virt. eigenvalues --    0.75413   0.76866   0.77784   0.81117   0.81736
 Alpha virt. eigenvalues --    0.83901   0.84477   0.85395   0.87964   0.88558
 Alpha virt. eigenvalues --    0.89830   0.93694   0.95086   0.95973   0.96953
 Alpha virt. eigenvalues --    0.98844   1.02548   1.04275   1.04561   1.04762
 Alpha virt. eigenvalues --    1.06218   1.07093   1.08126   1.11176   1.11671
 Alpha virt. eigenvalues --    1.12753   1.16212   1.18822   1.21704   1.24353
 Alpha virt. eigenvalues --    1.25817   1.31853   1.34723   1.39566   1.41798
 Alpha virt. eigenvalues --    1.44825   1.46855   1.53154   1.55371   1.59471
 Alpha virt. eigenvalues --    1.62156   1.62222   1.65726   1.68233   1.72156
 Alpha virt. eigenvalues --    1.72222   1.91382   1.93698   1.97787   1.99929
 Alpha virt. eigenvalues --    2.03564   2.05423   2.06467   2.08179   2.08649
 Alpha virt. eigenvalues --    2.10279   2.12760   2.17699   2.19234   2.21210
 Alpha virt. eigenvalues --    2.28922   2.30811   2.34151   2.37301   2.38673
 Alpha virt. eigenvalues --    2.47995   2.48152   2.49392   2.51627   2.54589
 Alpha virt. eigenvalues --    2.54667   2.54963   2.56743   2.60339   2.65061
 Alpha virt. eigenvalues --    2.74608   2.80156   2.85572   2.88842   2.92996
 Alpha virt. eigenvalues --    3.00708   3.01755   3.07832   3.12114   3.21283
 Alpha virt. eigenvalues --    3.36729   3.64666   4.15327   4.31527   4.33898
 Alpha virt. eigenvalues --    4.36555   4.43904   4.50060   4.62388   4.68563
 Alpha virt. eigenvalues --    4.98210
  Beta  occ. eigenvalues --  -18.99561 -10.03129 -10.01626 -10.00417  -9.97921
  Beta  occ. eigenvalues --   -9.95357  -9.94983  -9.94557  -9.93548  -0.87435
  Beta  occ. eigenvalues --   -0.63069  -0.57754  -0.54785  -0.48611  -0.47940
  Beta  occ. eigenvalues --   -0.40999  -0.36519  -0.33028  -0.28326  -0.26094
  Beta  occ. eigenvalues --   -0.24881  -0.23724  -0.23337  -0.22200  -0.20793
  Beta  occ. eigenvalues --   -0.19764  -0.19156  -0.17141  -0.14207  -0.12260
  Beta  occ. eigenvalues --   -0.10723  -0.00609  -0.00126
  Beta virt. eigenvalues --    0.22443   0.22878   0.23773   0.26414   0.28185
  Beta virt. eigenvalues --    0.29074   0.31025   0.32079   0.32214   0.34812
  Beta virt. eigenvalues --    0.36425   0.37025   0.41894   0.42159   0.43119
  Beta virt. eigenvalues --    0.45487   0.52812   0.54064   0.56642   0.58518
  Beta virt. eigenvalues --    0.66907   0.67152   0.71164   0.73637   0.73860
  Beta virt. eigenvalues --    0.74419   0.76340   0.77183   0.78016   0.81845
  Beta virt. eigenvalues --    0.82200   0.84879   0.85237   0.86151   0.89060
  Beta virt. eigenvalues --    0.89971   0.90065   0.93871   0.95271   0.96298
  Beta virt. eigenvalues --    0.97243   0.99881   1.02817   1.04362   1.04904
  Beta virt. eigenvalues --    1.05172   1.06359   1.07342   1.08378   1.11224
  Beta virt. eigenvalues --    1.11841   1.12876   1.16266   1.19080   1.22074
  Beta virt. eigenvalues --    1.24547   1.26147   1.31958   1.35081   1.40268
  Beta virt. eigenvalues --    1.42091   1.45155   1.48010   1.53228   1.55877
  Beta virt. eigenvalues --    1.59765   1.62441   1.62955   1.66133   1.69710
  Beta virt. eigenvalues --    1.72442   1.73693   1.91520   1.93944   1.98063
  Beta virt. eigenvalues --    2.00570   2.03839   2.05739   2.07313   2.08960
  Beta virt. eigenvalues --    2.08990   2.10644   2.13217   2.18145   2.19791
  Beta virt. eigenvalues --    2.22003   2.29208   2.31540   2.34775   2.37997
  Beta virt. eigenvalues --    2.39063   2.48513   2.48741   2.49590   2.52674
  Beta virt. eigenvalues --    2.54943   2.55123   2.56479   2.57290   2.60659
  Beta virt. eigenvalues --    2.65300   2.75141   2.80795   2.86050   2.90258
  Beta virt. eigenvalues --    2.93657   3.01153   3.02188   3.08003   3.12319
  Beta virt. eigenvalues --    3.22112   3.36940   3.64963   4.15348   4.31910
  Beta virt. eigenvalues --    4.34669   4.36960   4.44331   4.50544   4.63111
  Beta virt. eigenvalues --    4.68674   4.98738
          Condensed to atoms (all electrons):
               1          2          3          4          5          6
     1  C    4.612873   0.504964   0.005415  -0.052992  -0.012400   0.585291
     2  C    0.504964   5.351976   0.394810  -0.004970  -0.049882  -0.051079
     3  C    0.005415   0.394810   4.933785   0.549080  -0.088835  -0.027608
     4  C   -0.052992  -0.004970   0.549080   4.676415   0.461484   0.011357
     5  C   -0.012400  -0.049882  -0.088835   0.461484   5.425884   0.331577
     6  C    0.585291  -0.051079  -0.027608   0.011357   0.331577   5.172121
     7  H    0.004579   0.001706   0.005011  -0.054128   0.306256  -0.041275
     8  O    0.000363   0.003498  -0.058570   0.255480  -0.069535   0.004274
     9  H   -0.046014   0.007994   0.001036   0.004454  -0.056174   0.319569
    10  H   -0.000116   0.000094   0.008300  -0.038281  -0.008110   0.000453
    11  C    0.315744  -0.088770   0.007827   0.000883   0.008541  -0.050856
    12  H   -0.027772   0.003276  -0.000345   0.000022  -0.000030  -0.001809
    13  H   -0.027769   0.003274  -0.000345   0.000023  -0.000030  -0.001805
    14  H   -0.024073   0.003342  -0.000113   0.000002  -0.000136  -0.003173
    15  H   -0.071001   0.325432  -0.053275   0.009632   0.000448   0.008079
    16  C    0.009058  -0.066872   0.304263  -0.068029   0.012195   0.000178
    17  H   -0.000137   0.002469  -0.039405  -0.005405   0.000252  -0.000023
    18  H   -0.000137   0.002467  -0.039377  -0.005405   0.000251  -0.000023
    19  H   -0.000371  -0.003501  -0.022247   0.004097  -0.000212   0.000028
               7          8          9         10         11         12
     1  C    0.004579   0.000363  -0.046014  -0.000116   0.315744  -0.027772
     2  C    0.001706   0.003498   0.007994   0.000094  -0.088770   0.003276
     3  C    0.005011  -0.058570   0.001036   0.008300   0.007827  -0.000345
     4  C   -0.054128   0.255480   0.004454  -0.038281   0.000883   0.000022
     5  C    0.306256  -0.069535  -0.056174  -0.008110   0.008541  -0.000030
     6  C   -0.041275   0.004274   0.319569   0.000453  -0.050856  -0.001809
     7  H    0.793902  -0.007877  -0.009156   0.011927  -0.000288   0.000004
     8  O   -0.007877   8.315548  -0.000075   0.233950   0.000001   0.000000
     9  H   -0.009156  -0.000075   0.780817  -0.000024  -0.017347   0.000151
    10  H    0.011927   0.233950  -0.000024   0.423413  -0.000001   0.000000
    11  C   -0.000288   0.000001  -0.017347  -0.000001   5.349089   0.331744
    12  H    0.000004   0.000000   0.000151   0.000000   0.331744   0.684043
    13  H    0.000004   0.000000   0.000151   0.000000   0.331733  -0.059265
    14  H   -0.000015   0.000000   0.010347   0.000000   0.346011  -0.034946
    15  H    0.000027  -0.000087  -0.000318   0.000013  -0.014090   0.003078
    16  C   -0.000300  -0.005213   0.000015  -0.000830  -0.000248  -0.000002
    17  H    0.000001   0.004317   0.000000  -0.000080   0.000003   0.000001
    18  H    0.000001   0.004325   0.000000  -0.000079   0.000003   0.000000
    19  H    0.000004   0.000324   0.000000   0.000002  -0.000014   0.000000
              13         14         15         16         17         18
     1  C   -0.027769  -0.024073  -0.071001   0.009058  -0.000137  -0.000137
     2  C    0.003274   0.003342   0.325432  -0.066872   0.002469   0.002467
     3  C   -0.000345  -0.000113  -0.053275   0.304263  -0.039405  -0.039377
     4  C    0.000023   0.000002   0.009632  -0.068029  -0.005405  -0.005405
     5  C   -0.000030  -0.000136   0.000448   0.012195   0.000252   0.000251
     6  C   -0.001805  -0.003173   0.008079   0.000178  -0.000023  -0.000023
     7  H    0.000004  -0.000015   0.000027  -0.000300   0.000001   0.000001
     8  O    0.000000   0.000000  -0.000087  -0.005213   0.004317   0.004325
     9  H    0.000151   0.010347  -0.000318   0.000015   0.000000   0.000000
    10  H    0.000000   0.000000   0.000013  -0.000830  -0.000080  -0.000079
    11  C    0.331733   0.346011  -0.014090  -0.000248   0.000003   0.000003
    12  H   -0.059265  -0.034946   0.003078  -0.000002   0.000001   0.000000
    13  H    0.684056  -0.034953   0.003083  -0.000002   0.000000   0.000001
    14  H   -0.034953   0.633800   0.000026   0.000003   0.000000   0.000000
    15  H    0.003083   0.000026   0.805710  -0.020505   0.000193   0.000192
    16  C   -0.000002   0.000003  -0.020505   5.300250   0.349392   0.349413
    17  H    0.000000   0.000000   0.000193   0.349392   0.681055  -0.058261
    18  H    0.000001   0.000000   0.000192   0.349413  -0.058261   0.680923
    19  H    0.000000   0.000000   0.010993   0.339779  -0.035015  -0.034971
              19
     1  C   -0.000371
     2  C   -0.003501
     3  C   -0.022247
     4  C    0.004097
     5  C   -0.000212
     6  C    0.000028
     7  H    0.000004
     8  O    0.000324
     9  H    0.000000
    10  H    0.000002
    11  C   -0.000014
    12  H    0.000000
    13  H    0.000000
    14  H    0.000000
    15  H    0.010993
    16  C    0.339779
    17  H   -0.035015
    18  H   -0.034971
    19  H    0.647023
          Atomic-Atomic Spin Densities.
               1          2          3          4          5          6
     1  C   -0.119731  -0.010598  -0.002206   0.004259  -0.002372   0.015304
     2  C   -0.010598   0.619653  -0.184437  -0.010777   0.021524  -0.036793
     3  C   -0.002206  -0.184437   0.439963   0.038089  -0.035161   0.016040
     4  C    0.004259  -0.010777   0.038089  -0.085328  -0.038528   0.005284
     5  C   -0.002372   0.021524  -0.035161  -0.038528   0.569471  -0.180765
     6  C    0.015304  -0.036793   0.016040   0.005284  -0.180765   0.415894
     7  H   -0.000162  -0.000067  -0.000071  -0.001076   0.005694  -0.000545
     8  O   -0.000028   0.000224  -0.003641   0.009003   0.000818   0.000029
     9  H   -0.001281   0.000100  -0.000089  -0.000062  -0.000738   0.004734
    10  H    0.000003  -0.000016   0.000141   0.000189  -0.000044   0.000015
    11  C    0.004064  -0.014699   0.001092  -0.000015  -0.000678   0.008922
    12  H    0.001242   0.005213  -0.000256  -0.000011   0.000145  -0.002155
    13  H    0.001242   0.005211  -0.000256  -0.000011   0.000145  -0.002153
    14  H    0.000268   0.000089  -0.000011   0.000001   0.000007   0.000004
    15  H    0.000100   0.006326  -0.001410  -0.000356  -0.000071  -0.000018
    16  C   -0.000242  -0.003405   0.015046  -0.001031  -0.000170   0.000015
    17  H   -0.000003   0.002340  -0.013633  -0.000685   0.000264  -0.000044
    18  H   -0.000003   0.002332  -0.013610  -0.000681   0.000264  -0.000044
    19  H    0.000017   0.000038  -0.000959   0.000007   0.000000   0.000001
               7          8          9         10         11         12
     1  C   -0.000162  -0.000028  -0.001281   0.000003   0.004064   0.001242
     2  C   -0.000067   0.000224   0.000100  -0.000016  -0.014699   0.005213
     3  C   -0.000071  -0.003641  -0.000089   0.000141   0.001092  -0.000256
     4  C   -0.001076   0.009003  -0.000062   0.000189  -0.000015  -0.000011
     5  C    0.005694   0.000818  -0.000738  -0.000044  -0.000678   0.000145
     6  C   -0.000545   0.000029   0.004734   0.000015   0.008922  -0.002155
     7  H   -0.025835   0.000343   0.000371  -0.000286   0.000005   0.000000
     8  O    0.000343  -0.011956   0.000002   0.000411   0.000000   0.000000
     9  H    0.000371   0.000002  -0.019413   0.000001   0.000505  -0.000005
    10  H   -0.000286   0.000411   0.000001  -0.000930   0.000000   0.000000
    11  C    0.000005   0.000000   0.000505   0.000000   0.042239  -0.015861
    12  H    0.000000   0.000000  -0.000005   0.000000  -0.015861   0.026898
    13  H    0.000000   0.000000  -0.000005   0.000000  -0.015873  -0.011156
    14  H    0.000000   0.000000  -0.000192   0.000000   0.000201   0.000156
    15  H   -0.000001   0.000002   0.000004   0.000000   0.000344  -0.000014
    16  C    0.000002   0.000446   0.000000  -0.000016   0.000006  -0.000001
    17  H    0.000000   0.000186   0.000000   0.000005  -0.000001   0.000001
    18  H    0.000000   0.000186   0.000000   0.000006  -0.000001  -0.000001
    19  H    0.000000  -0.000001   0.000000   0.000000   0.000000   0.000000
              13         14         15         16         17         18
     1  C    0.001242   0.000268   0.000100  -0.000242  -0.000003  -0.000003
     2  C    0.005211   0.000089   0.006326  -0.003405   0.002340   0.002332
     3  C   -0.000256  -0.000011  -0.001410   0.015046  -0.013633  -0.013610
     4  C   -0.000011   0.000001  -0.000356  -0.001031  -0.000685  -0.000681
     5  C    0.000145   0.000007  -0.000071  -0.000170   0.000264   0.000264
     6  C   -0.002153   0.000004  -0.000018   0.000015  -0.000044  -0.000044
     7  H    0.000000   0.000000  -0.000001   0.000002   0.000000   0.000000
     8  O    0.000000   0.000000   0.000002   0.000446   0.000186   0.000186
     9  H   -0.000005  -0.000192   0.000004   0.000000   0.000000   0.000000
    10  H    0.000000   0.000000   0.000000  -0.000016   0.000005   0.000006
    11  C   -0.015873   0.000201   0.000344   0.000006  -0.000001  -0.000001
    12  H   -0.011156   0.000156  -0.000014  -0.000001   0.000001  -0.000001
    13  H    0.026927   0.000145  -0.000012  -0.000001  -0.000001   0.000001
    14  H    0.000145  -0.001943  -0.000011   0.000000   0.000000   0.000000
    15  H   -0.000012  -0.000011  -0.030346   0.001076  -0.000009  -0.000009
    16  C   -0.000001   0.000000   0.001076  -0.037912  -0.001389  -0.001366
    17  H   -0.000001   0.000000  -0.000009  -0.001389   0.038573  -0.011389
    18  H    0.000001   0.000000  -0.000009  -0.001366  -0.011389   0.038465
    19  H    0.000000   0.000000  -0.000219   0.001616  -0.000245  -0.000211
              19
     1  C    0.000017
     2  C    0.000038
     3  C   -0.000959
     4  C    0.000007
     5  C    0.000000
     6  C    0.000001
     7  H    0.000000
     8  O   -0.000001
     9  H    0.000000
    10  H    0.000000
    11  C    0.000000
    12  H    0.000000
    13  H    0.000000
    14  H    0.000000
    15  H   -0.000219
    16  C    0.001616
    17  H   -0.000245
    18  H   -0.000211
    19  H    0.000270
 Mulliken charges and spin densities:
               1          2
     1  C    0.224494  -0.110128
     2  C   -0.340229   0.402260
     3  C    0.120593   0.254633
     4  C    0.256280  -0.081730
     5  C   -0.261543   0.339804
     6  C   -0.255276   0.243725
     7  H   -0.010382  -0.021626
     8  O   -0.680724  -0.003977
     9  H    0.004575  -0.016068
    10  H    0.369368  -0.000522
    11  C   -0.519964   0.010248
    12  H    0.101850   0.004195
    13  H    0.101846   0.004201
    14  H    0.103879  -0.001285
    15  H   -0.007628  -0.024626
    16  C   -0.502544  -0.027326
    17  H    0.100644   0.013970
    18  H    0.100677   0.013940
    19  H    0.094082   0.000312
 Sum of Mulliken charges =  -1.00000   1.00000
 Mulliken charges and spin densities with hydrogens summed into heavy atoms:
               1          2
     1  C    0.224494  -0.110128
     2  C   -0.347856   0.377634
     3  C    0.120593   0.254633
     4  C    0.256280  -0.081730
     5  C   -0.271925   0.318178
     6  C   -0.250700   0.227657
     8  O   -0.311356  -0.004500
    11  C   -0.212389   0.017360
    16  C   -0.207141   0.000896
 Electronic spatial extent (au):  <R**2>=           1308.7585
 Charge=             -1.0000 electrons
 Dipole moment (field-independent basis, Debye):
    X=              0.7136    Y=             -0.6610    Z=             -0.0001  Tot=              0.9727
 Quadrupole moment (field-independent basis, Debye-Ang):
   XX=            -69.9642   YY=            -61.6002   ZZ=            -60.7953
   XY=             -4.4996   XZ=             -0.0015   YZ=             -0.0005
 Traceless Quadrupole moment (field-independent basis, Debye-Ang):
   XX=             -5.8443   YY=              2.5197   ZZ=              3.3246
   XY=             -4.4996   XZ=             -0.0015   YZ=             -0.0005
 Octapole moment (field-independent basis, Debye-Ang**2):
  XXX=             18.8967  YYY=            -12.6019  ZZZ=              0.0021  XYY=             13.0025
  XXY=            -15.8476  XXZ=             -0.0016  XZZ=              6.0021  YZZ=              0.1627
  YYZ=             -0.0001  XYZ=             -0.0017
 Hexadecapole moment (field-independent basis, Debye-Ang**3):
 XXXX=          -1284.3215 YYYY=           -588.1710 ZZZZ=            -77.8715 XXXY=            -37.0263
 XXXZ=             -0.0684 YYYX=            -49.8102 YYYZ=             -0.0108 ZZZX=             -0.0548
 ZZZY=             -0.0057 XXYY=           -281.5146 XXZZ=           -211.7112 YYZZ=           -116.5753
 XXYZ=             -0.0042 YYXZ=             -0.0181 ZZXY=             -6.1528
 N-N= 4.253452322629D+02 E-N=-1.760732884624D+03  KE= 3.828989605698D+02
                          Isotropic Fermi Contact Couplings
        Atom                 a.u.       MegaHertz       Gauss      10(-4) cm-1
     1  C(13)             -0.02131     -23.96057      -8.54973      -7.99239
     2  C(13)              0.03759      42.25676      15.07826      14.09534
     3  C(13)              0.02314      26.01230       9.28184       8.67677
     4  C(13)             -0.01989     -22.35808      -7.97792      -7.45785
     5  C(13)              0.03160      35.52959      12.67784      11.85140
     6  C(13)              0.02075      23.32629       8.32340       7.78081
     7  H(1)              -0.00553     -24.71660      -8.81950      -8.24457
     8  O(17)             -0.00293       1.77864       0.63466       0.59329
     9  H(1)              -0.00425     -18.99674      -6.77851      -6.33663
    10  H(1)              -0.00016      -0.70887      -0.25294      -0.23645
    11  C(13)              0.00144       1.61381       0.57585       0.53831
    12  H(1)              -0.00110      -4.89620      -1.74708      -1.63319
    13  H(1)              -0.00109      -4.89313      -1.74599      -1.63217
    14  H(1)              -0.00040      -1.77487      -0.63332      -0.59203
    15  H(1)              -0.00640     -28.62156     -10.21288      -9.54712
    16  C(13)             -0.01019     -11.45137      -4.08613      -3.81976
    17  H(1)               0.00613      27.38470       9.77154       9.13455
    18  H(1)               0.00612      27.34899       9.75880       9.12264
    19  H(1)               0.00011       0.47522       0.16957       0.15852
 --------------------------------------------------------
       Center         ----  Spin Dipole Couplings  ----
                      3XX-RR        3YY-RR        3ZZ-RR
 --------------------------------------------------------
     1   Atom        0.033969      0.045363     -0.079332
     2   Atom       -0.208188     -0.205602      0.413790
     3   Atom       -0.153428     -0.161467      0.314894
     4   Atom        0.021483      0.034302     -0.055786
     5   Atom       -0.180520     -0.175615      0.356135
     6   Atom       -0.125064     -0.131264      0.256328
     7   Atom       -0.022647      0.023468     -0.000821
     8   Atom        0.020306      0.013236     -0.033541
     9   Atom       -0.000856      0.002677     -0.001822
    10   Atom        0.006367     -0.003238     -0.003129
    11   Atom        0.002687     -0.003647      0.000960
    12   Atom        0.003926     -0.001160     -0.002767
    13   Atom        0.003926     -0.001160     -0.002766
    14   Atom        0.004878     -0.002345     -0.002534
    15   Atom       -0.025593      0.026850     -0.001256
    16   Atom        0.002912      0.001663     -0.004576
    17   Atom        0.004346     -0.000765     -0.003582
    18   Atom        0.004351     -0.000769     -0.003582
    19   Atom       -0.001101      0.005219     -0.004118
 --------------------------------------------------------
                        XY            XZ            YZ
 --------------------------------------------------------
     1   Atom        0.005746      0.000010      0.000003
     2   Atom       -0.004787     -0.000075      0.000031
     3   Atom       -0.000476     -0.000052     -0.000004
     4   Atom        0.002847      0.000009     -0.000002
     5   Atom       -0.004081     -0.000050     -0.000021
     6   Atom        0.001380     -0.000029     -0.000016
     7   Atom       -0.014292     -0.000003      0.000000
     8   Atom       -0.003724      0.000009     -0.000001
     9   Atom        0.020463      0.000001      0.000002
    10   Atom       -0.001871      0.000001      0.000000
    11   Atom       -0.000699      0.000001     -0.000004
    12   Atom       -0.001386     -0.001920      0.000917
    13   Atom       -0.001386      0.001921     -0.000918
    14   Atom       -0.000505      0.000001      0.000000
    15   Atom       -0.015831     -0.000002     -0.000005
    16   Atom        0.007281      0.000000      0.000001
    17   Atom        0.005430      0.002377      0.001823
    18   Atom        0.005430     -0.002373     -0.001820
    19   Atom        0.005465      0.000000     -0.000001
 --------------------------------------------------------


 ---------------------------------------------------------------------------------
              Anisotropic Spin Dipole Couplings in Principal Axis System
 ---------------------------------------------------------------------------------

       Atom             a.u.   MegaHertz   Gauss  10(-4) cm-1        Axes

              Baa    -0.0793   -10.646    -3.799    -3.551 -0.0001  0.0000  1.0000
     1 C(13)  Bbb     0.0316     4.237     1.512     1.413  0.9231 -0.3847  0.0001
              Bcc     0.0478     6.409     2.287     2.138  0.3847  0.9231  0.0000
 
              Baa    -0.2119   -28.429   -10.144    -9.483  0.7940  0.6079  0.0001
     2 C(13)  Bbb    -0.2019   -27.098    -9.669    -9.039 -0.6079  0.7940 -0.0001
              Bcc     0.4138    55.527    19.813    18.522 -0.0001  0.0001  1.0000
 
              Baa    -0.1615   -21.671    -7.733    -7.229  0.0589  0.9983  0.0000
     3 C(13)  Bbb    -0.1534   -20.585    -7.345    -6.866  0.9983 -0.0589  0.0001
              Bcc     0.3149    42.256    15.078    14.095 -0.0001  0.0000  1.0000
 
              Baa    -0.0558    -7.486    -2.671    -2.497 -0.0001  0.0000  1.0000
     4 C(13)  Bbb     0.0209     2.802     1.000     0.935  0.9782 -0.2075  0.0001
              Bcc     0.0349     4.684     1.671     1.562  0.2075  0.9782  0.0000
 
              Baa    -0.1828   -24.534    -8.754    -8.184  0.8704  0.4924  0.0001
     5 C(13)  Bbb    -0.1733   -23.256    -8.298    -7.757 -0.4924  0.8704  0.0000
              Bcc     0.3561    47.790    17.053    15.941 -0.0001  0.0000  1.0000
 
              Baa    -0.1316   -17.654    -6.299    -5.889 -0.2078  0.9782  0.0000
     6 C(13)  Bbb    -0.1248   -16.743    -5.974    -5.585  0.9782  0.2078  0.0001
              Bcc     0.2563    34.397    12.274    11.474 -0.0001  0.0000  1.0000
 
              Baa    -0.0267   -14.255    -5.086    -4.755  0.9618  0.2739  0.0001
     7 H(1)   Bbb    -0.0008    -0.438    -0.156    -0.146 -0.0001 -0.0001  1.0000
              Bcc     0.0275    14.693     5.243     4.901 -0.2739  0.9618  0.0000
 
              Baa    -0.0335     2.427     0.866     0.810 -0.0002  0.0000  1.0000
     8 O(17)  Bbb     0.0116    -0.842    -0.300    -0.281  0.3947  0.9188  0.0000
              Bcc     0.0219    -1.585    -0.566    -0.529  0.9188 -0.3947  0.0002
 
              Baa    -0.0196   -10.473    -3.737    -3.493  0.7369 -0.6760  0.0000
     9 H(1)   Bbb    -0.0018    -0.972    -0.347    -0.324 -0.0001  0.0000  1.0000
              Bcc     0.0214    11.445     4.084     3.818  0.6760  0.7369  0.0001
 
              Baa    -0.0036    -1.915    -0.683    -0.639  0.1847  0.9828 -0.0006
    10 H(1)   Bbb    -0.0031    -1.669    -0.596    -0.557  0.0000  0.0006  1.0000
              Bcc     0.0067     3.585     1.279     1.196  0.9828 -0.1847  0.0001
 
              Baa    -0.0037    -0.500    -0.178    -0.167  0.1084  0.9941  0.0008
    11 C(13)  Bbb     0.0010     0.129     0.046     0.043 -0.0007 -0.0008  1.0000
              Bcc     0.0028     0.371     0.132     0.124  0.9941 -0.1084  0.0006
 
              Baa    -0.0034    -1.826    -0.652    -0.609  0.1974 -0.2621  0.9447
    12 H(1)   Bbb    -0.0014    -0.763    -0.272    -0.255  0.3101  0.9308  0.1934
              Bcc     0.0049     2.589     0.924     0.864  0.9300 -0.2548 -0.2650
 
              Baa    -0.0034    -1.826    -0.652    -0.609 -0.1974  0.2622  0.9446
    13 H(1)   Bbb    -0.0014    -0.764    -0.273    -0.255  0.3102  0.9308 -0.1935
              Bcc     0.0049     2.590     0.924     0.864  0.9300 -0.2548  0.2651
 
              Baa    -0.0025    -1.352    -0.482    -0.451 -0.0003 -0.0021  1.0000
    14 H(1)   Bbb    -0.0024    -1.270    -0.453    -0.424  0.0694  0.9976  0.0021
              Bcc     0.0049     2.622     0.935     0.874  0.9976 -0.0694  0.0002
 
              Baa    -0.0300   -16.007    -5.712    -5.339  0.9633  0.2683  0.0001
    15 H(1)   Bbb    -0.0013    -0.670    -0.239    -0.224 -0.0001  0.0001  1.0000
              Bcc     0.0313    16.678     5.951     5.563 -0.2683  0.9633 -0.0001
 
              Baa    -0.0050    -0.674    -0.240    -0.225 -0.6762  0.7367 -0.0017
    16 C(13)  Bbb    -0.0046    -0.614    -0.219    -0.205 -0.0011  0.0012  1.0000
              Bcc     0.0096     1.288     0.459     0.430  0.7367  0.6762  0.0000
 
              Baa    -0.0045    -2.415    -0.862    -0.806  0.1843 -0.6311  0.7535
    17 H(1)   Bbb    -0.0040    -2.134    -0.762    -0.712 -0.5462  0.5716  0.6123
              Bcc     0.0085     4.550     1.623     1.518  0.8171  0.5244  0.2393
 
              Baa    -0.0045    -2.415    -0.862    -0.806 -0.1867  0.6334  0.7510
    18 H(1)   Bbb    -0.0040    -2.134    -0.762    -0.712  0.5450 -0.5692  0.6156
              Bcc     0.0085     4.550     1.623     1.518  0.8174  0.5242 -0.2390
 
              Baa    -0.0043    -2.270    -0.810    -0.757  0.8662 -0.4997 -0.0004
    19 H(1)   Bbb    -0.0041    -2.197    -0.784    -0.733  0.0004 -0.0002  1.0000
              Bcc     0.0084     4.467     1.594     1.490  0.4997  0.8662 -0.0001
 

 ---------------------------------------------------------------------------------

 No NMR shielding tensors so no spin-rotation constants.
 Leave Link  601 at Wed Dec 03 16:30:49 2025, MaxMem=   104857600 cpu:               0.0 elap:               0.2
 (Enter D:\Gaussian\G16W\l9999.exe)
 1|1|UNPC-PC-20250526LCFF|SP|UB3LYP|6-31G(d)|C8H10O1(1-,2)|ADMINISTRATO
 R|03-Dec-2025|0||#P B3LYP/6-31G* SCF=conver=7 out=wfn||Generated by Mu
 ltiwfn (http://sobereva.com/multiwfn)||-1,2|C,0,-1.605709,0.058001,-0.
 000159|C,0,-0.609836,1.043604,-0.000061|C,0,0.7501,0.744594,0.000068|C
 ,0,1.122993,-0.609461,0.000096|C,0,0.155387,-1.609174,-0.000012|C,0,-1
 .198311,-1.274466,-0.000135|H,0,0.457722,-2.653044,-0.000002|O,0,2.467
 256,-0.882643,0.000238|H,0,-1.940235,-2.066207,-0.000219|H,0,2.593085,
 -1.836794,0.000187|C,0,-3.067708,0.437977,-0.000275|H,0,-3.326827,1.03
 3957,0.880732|H,0,-3.326594,1.034318,-0.881104|H,0,-3.706495,-0.447702
 ,-0.000538|H,0,-0.904039,2.089928,-0.000102|C,0,1.809631,1.815347,0.00
 0205|H,0,2.458134,1.729558,0.877343|H,0,2.458923,1.729008,-0.876281|H,
 0,1.358995,2.809593,-0.000283||Version=EM64W-G16RevA.03|State=2-A|HF=-
 386.0184817|S2=0.759969|S2-1=0.|S2A=0.750064|RMSD=4.085e-008|Dipole=0.
 2807583,-0.2600725,-0.0000224|Quadrupole=-4.3450835,1.8733104,2.471773
 1,-3.3453391,-0.0011284,-0.0003921|PG=C01 [X(C8H10O1)]||@

 Writing a WFN file to "N+1.wfn"


 Until you make peace with who you are,
 you'll never be content with what you have.
                           -- Doris Mortman
 Job cpu time:       0 days  0 hours  0 minutes 49.0 seconds.
 Elapsed time:       0 days  0 hours  0 minutes 49.1 seconds.
 File lengths (MBytes):  RWF=     29 Int=      0 D2E=      0 Chk=      3 Scr=      1
 Normal termination of Gaussian 16 at Wed Dec 03 16:30:49 2025.
