 Generated by Multiwfn (http://sobereva.com/multiwfn)
GAUSSIAN             67 MOL ORBITALS    292 PRIMITIVES       19 NUCLEI
  C    1    (CENTRE  1)  -3.03435023  0.10960555 -0.00030044  CHARGE =  6.0
  C    2    (CENTRE  2)  -1.15242323  1.97212552 -0.00011524  CHARGE =  6.0
  C    3    (CENTRE  3)   1.41748342  1.40707882  0.00012853  CHARGE =  6.0
  C    4    (CENTRE  4)   2.12214938 -1.15171420  0.00018144  CHARGE =  6.0
  C    5    (CENTRE  5)   0.29363928 -3.04089820 -0.00002265  CHARGE =  6.0
  C    6    (CENTRE  6)  -2.26447928 -2.40839206 -0.00025508  CHARGE =  6.0
  H    7    (CENTRE  7)   0.86496987 -5.01352654 -0.00000375  CHARGE =  1.0
  O    8    (CENTRE  8)   4.66243835 -1.66795305  0.00044978  CHARGE =  8.0
  H    9    (CENTRE  9)  -3.66651226 -3.90456588 -0.00041382  CHARGE =  1.0
  H   10    (CENTRE 10)   4.90022092 -3.47103709  0.00035341  CHARGE =  1.0
  C   11    (CENTRE 11)  -5.79712802  0.82765578 -0.00051965  CHARGE =  6.0
  H   12    (CENTRE 12)  -6.28679211  1.95389470  1.66434230  CHARGE =  1.0
  H   13    (CENTRE 13)  -6.28635180  1.95457689 -1.66504522  CHARGE =  1.0
  H   14    (CENTRE 14)  -7.00426030 -0.84603511 -0.00101664  CHARGE =  1.0
  H   15    (CENTRE 15)  -1.70838657  3.94939124 -0.00019272  CHARGE =  1.0
  C   16    (CENTRE 16)   3.41970658  3.43050899  0.00038742  CHARGE =  6.0
  H   17    (CENTRE 17)   4.64519966  3.26839142  1.65793802  CHARGE =  1.0
  H   18    (CENTRE 18)   4.64669066  3.26735207 -1.65593107  CHARGE =  1.0
  H   19    (CENTRE 19)   2.56812773  5.30936152 -0.00053476  CHARGE =  1.0
CENTRE ASSIGNMENTS    1  1  1  1  1  1  1  1  1  1  1  1  1  1  1  1  1  1  1  1
CENTRE ASSIGNMENTS    1  1  1  1  1  1  1  1  2  2  2  2  2  2  2  2  2  2  2  2
CENTRE ASSIGNMENTS    2  2  2  2  2  2  2  2  2  2  2  2  2  2  2  2  3  3  3  3
CENTRE ASSIGNMENTS    3  3  3  3  3  3  3  3  3  3  3  3  3  3  3  3  3  3  3  3
CENTRE ASSIGNMENTS    3  3  3  3  4  4  4  4  4  4  4  4  4  4  4  4  4  4  4  4
CENTRE ASSIGNMENTS    4  4  4  4  4  4  4  4  4  4  4  4  5  5  5  5  5  5  5  5
CENTRE ASSIGNMENTS    5  5  5  5  5  5  5  5  5  5  5  5  5  5  5  5  5  5  5  5
CENTRE ASSIGNMENTS    6  6  6  6  6  6  6  6  6  6  6  6  6  6  6  6  6  6  6  6
CENTRE ASSIGNMENTS    6  6  6  6  6  6  6  6  7  7  7  7  8  8  8  8  8  8  8  8
CENTRE ASSIGNMENTS    8  8  8  8  8  8  8  8  8  8  8  8  8  8  8  8  8  8  8  8
CENTRE ASSIGNMENTS    9  9  9  9 10 10 10 10 11 11 11 11 11 11 11 11 11 11 11 11
CENTRE ASSIGNMENTS   11 11 11 11 11 11 11 11 11 11 11 11 11 11 11 11 12 12 12 12
CENTRE ASSIGNMENTS   13 13 13 13 14 14 14 14 15 15 15 15 16 16 16 16 16 16 16 16
CENTRE ASSIGNMENTS   16 16 16 16 16 16 16 16 16 16 16 16 16 16 16 16 16 16 16 16
CENTRE ASSIGNMENTS   17 17 17 17 18 18 18 18 19 19 19 19
TYPE ASSIGNMENTS      1  1  1  1  1  1  1  1  1  2  2  2  3  3  3  4  4  4  1  2
TYPE ASSIGNMENTS      3  4  5  6  7  8  9 10  1  1  1  1  1  1  1  1  1  2  2  2
TYPE ASSIGNMENTS      3  3  3  4  4  4  1  2  3  4  5  6  7  8  9 10  1  1  1  1
TYPE ASSIGNMENTS      1  1  1  1  1  2  2  2  3  3  3  4  4  4  1  2  3  4  5  6
TYPE ASSIGNMENTS      7  8  9 10  1  1  1  1  1  1  1  1  1  2  2  2  3  3  3  4
TYPE ASSIGNMENTS      4  4  1  2  3  4  5  6  7  8  9 10  1  1  1  1  1  1  1  1
TYPE ASSIGNMENTS      1  2  2  2  3  3  3  4  4  4  1  2  3  4  5  6  7  8  9 10
TYPE ASSIGNMENTS      1  1  1  1  1  1  1  1  1  2  2  2  3  3  3  4  4  4  1  2
TYPE ASSIGNMENTS      3  4  5  6  7  8  9 10  1  1  1  1  1  1  1  1  1  1  1  1
TYPE ASSIGNMENTS      1  2  2  2  3  3  3  4  4  4  1  2  3  4  5  6  7  8  9 10
TYPE ASSIGNMENTS      1  1  1  1  1  1  1  1  1  1  1  1  1  1  1  1  1  2  2  2
TYPE ASSIGNMENTS      3  3  3  4  4  4  1  2  3  4  5  6  7  8  9 10  1  1  1  1
TYPE ASSIGNMENTS      1  1  1  1  1  1  1  1  1  1  1  1  1  1  1  1  1  1  1  1
TYPE ASSIGNMENTS      1  2  2  2  3  3  3  4  4  4  1  2  3  4  5  6  7  8  9 10
TYPE ASSIGNMENTS      1  1  1  1  1  1  1  1  1  1  1  1
EXPONENTS  0.3047525D+04 0.4573695D+03 0.1039487D+03 0.2921016D+02 0.9286663D+01
EXPONENTS  0.3163927D+01 0.7868272D+01 0.1881289D+01 0.5442493D+00 0.7868272D+01
EXPONENTS  0.1881289D+01 0.5442493D+00 0.7868272D+01 0.1881289D+01 0.5442493D+00
EXPONENTS  0.7868272D+01 0.1881289D+01 0.5442493D+00 0.1687145D+00 0.1687145D+00
EXPONENTS  0.1687145D+00 0.1687145D+00 0.8000000D+00 0.8000000D+00 0.8000000D+00
EXPONENTS  0.8000000D+00 0.8000000D+00 0.8000000D+00 0.3047525D+04 0.4573695D+03
EXPONENTS  0.1039487D+03 0.2921016D+02 0.9286663D+01 0.3163927D+01 0.7868272D+01
EXPONENTS  0.1881289D+01 0.5442493D+00 0.7868272D+01 0.1881289D+01 0.5442493D+00
EXPONENTS  0.7868272D+01 0.1881289D+01 0.5442493D+00 0.7868272D+01 0.1881289D+01
EXPONENTS  0.5442493D+00 0.1687145D+00 0.1687145D+00 0.1687145D+00 0.1687145D+00
EXPONENTS  0.8000000D+00 0.8000000D+00 0.8000000D+00 0.8000000D+00 0.8000000D+00
EXPONENTS  0.8000000D+00 0.3047525D+04 0.4573695D+03 0.1039487D+03 0.2921016D+02
EXPONENTS  0.9286663D+01 0.3163927D+01 0.7868272D+01 0.1881289D+01 0.5442493D+00
EXPONENTS  0.7868272D+01 0.1881289D+01 0.5442493D+00 0.7868272D+01 0.1881289D+01
EXPONENTS  0.5442493D+00 0.7868272D+01 0.1881289D+01 0.5442493D+00 0.1687145D+00
EXPONENTS  0.1687145D+00 0.1687145D+00 0.1687145D+00 0.8000000D+00 0.8000000D+00
EXPONENTS  0.8000000D+00 0.8000000D+00 0.8000000D+00 0.8000000D+00 0.3047525D+04
EXPONENTS  0.4573695D+03 0.1039487D+03 0.2921016D+02 0.9286663D+01 0.3163927D+01
EXPONENTS  0.7868272D+01 0.1881289D+01 0.5442493D+00 0.7868272D+01 0.1881289D+01
EXPONENTS  0.5442493D+00 0.7868272D+01 0.1881289D+01 0.5442493D+00 0.7868272D+01
EXPONENTS  0.1881289D+01 0.5442493D+00 0.1687145D+00 0.1687145D+00 0.1687145D+00
EXPONENTS  0.1687145D+00 0.8000000D+00 0.8000000D+00 0.8000000D+00 0.8000000D+00
EXPONENTS  0.8000000D+00 0.8000000D+00 0.3047525D+04 0.4573695D+03 0.1039487D+03
EXPONENTS  0.2921016D+02 0.9286663D+01 0.3163927D+01 0.7868272D+01 0.1881289D+01
EXPONENTS  0.5442493D+00 0.7868272D+01 0.1881289D+01 0.5442493D+00 0.7868272D+01
EXPONENTS  0.1881289D+01 0.5442493D+00 0.7868272D+01 0.1881289D+01 0.5442493D+00
EXPONENTS  0.1687145D+00 0.1687145D+00 0.1687145D+00 0.1687145D+00 0.8000000D+00
EXPONENTS  0.8000000D+00 0.8000000D+00 0.8000000D+00 0.8000000D+00 0.8000000D+00
EXPONENTS  0.3047525D+04 0.4573695D+03 0.1039487D+03 0.2921016D+02 0.9286663D+01
EXPONENTS  0.3163927D+01 0.7868272D+01 0.1881289D+01 0.5442493D+00 0.7868272D+01
EXPONENTS  0.1881289D+01 0.5442493D+00 0.7868272D+01 0.1881289D+01 0.5442493D+00
EXPONENTS  0.7868272D+01 0.1881289D+01 0.5442493D+00 0.1687145D+00 0.1687145D+00
EXPONENTS  0.1687145D+00 0.1687145D+00 0.8000000D+00 0.8000000D+00 0.8000000D+00
EXPONENTS  0.8000000D+00 0.8000000D+00 0.8000000D+00 0.1873114D+02 0.2825394D+01
EXPONENTS  0.6401217D+00 0.1612778D+00 0.5484672D+04 0.8252349D+03 0.1880470D+03
EXPONENTS  0.5296450D+02 0.1689757D+02 0.5799635D+01 0.1553962D+02 0.3599934D+01
EXPONENTS  0.1013762D+01 0.1553962D+02 0.3599934D+01 0.1013762D+01 0.1553962D+02
EXPONENTS  0.3599934D+01 0.1013762D+01 0.1553962D+02 0.3599934D+01 0.1013762D+01
EXPONENTS  0.2700058D+00 0.2700058D+00 0.2700058D+00 0.2700058D+00 0.8000000D+00
EXPONENTS  0.8000000D+00 0.8000000D+00 0.8000000D+00 0.8000000D+00 0.8000000D+00
EXPONENTS  0.1873114D+02 0.2825394D+01 0.6401217D+00 0.1612778D+00 0.1873114D+02
EXPONENTS  0.2825394D+01 0.6401217D+00 0.1612778D+00 0.3047525D+04 0.4573695D+03
EXPONENTS  0.1039487D+03 0.2921016D+02 0.9286663D+01 0.3163927D+01 0.7868272D+01
EXPONENTS  0.1881289D+01 0.5442493D+00 0.7868272D+01 0.1881289D+01 0.5442493D+00
EXPONENTS  0.7868272D+01 0.1881289D+01 0.5442493D+00 0.7868272D+01 0.1881289D+01
EXPONENTS  0.5442493D+00 0.1687145D+00 0.1687145D+00 0.1687145D+00 0.1687145D+00
EXPONENTS  0.8000000D+00 0.8000000D+00 0.8000000D+00 0.8000000D+00 0.8000000D+00
EXPONENTS  0.8000000D+00 0.1873114D+02 0.2825394D+01 0.6401217D+00 0.1612778D+00
EXPONENTS  0.1873114D+02 0.2825394D+01 0.6401217D+00 0.1612778D+00 0.1873114D+02
EXPONENTS  0.2825394D+01 0.6401217D+00 0.1612778D+00 0.1873114D+02 0.2825394D+01
EXPONENTS  0.6401217D+00 0.1612778D+00 0.3047525D+04 0.4573695D+03 0.1039487D+03
EXPONENTS  0.2921016D+02 0.9286663D+01 0.3163927D+01 0.7868272D+01 0.1881289D+01
EXPONENTS  0.5442493D+00 0.7868272D+01 0.1881289D+01 0.5442493D+00 0.7868272D+01
EXPONENTS  0.1881289D+01 0.5442493D+00 0.7868272D+01 0.1881289D+01 0.5442493D+00
EXPONENTS  0.1687145D+00 0.1687145D+00 0.1687145D+00 0.1687145D+00 0.8000000D+00
EXPONENTS  0.8000000D+00 0.8000000D+00 0.8000000D+00 0.8000000D+00 0.8000000D+00
EXPONENTS  0.1873114D+02 0.2825394D+01 0.6401217D+00 0.1612778D+00 0.1873114D+02
EXPONENTS  0.2825394D+01 0.6401217D+00 0.1612778D+00 0.1873114D+02 0.2825394D+01
EXPONENTS  0.6401217D+00 0.1612778D+00
MO    1     MO 0.0        OCC NO =    1.0000000  ORB. ENERGY =  -18.995422
  0.79696028D-05  0.14702361D-04  0.23734169D-04  0.30894836D-04  0.26362620D-04
  0.91023791D-05 -0.35027482D-04 -0.16144135D-04  0.45269838D-04  0.47497814D-04
  0.36418311D-04  0.18175290D-04 -0.10375744D-04 -0.79554624D-05 -0.39703333D-05
  0.51865849D-08  0.39767443D-08  0.19846741D-08 -0.24285258D-03 -0.17963607D-03
  0.48417553D-04 -0.14505896D-07  0.80435199D-05 -0.34933405D-04  0.34860292D-04
 -0.18993401D-04 -0.37045218D-08 -0.51980090D-09  0.49994408D-06  0.92229920D-06
  0.14888769D-05  0.19380753D-05  0.16537632D-05  0.57100468D-06  0.12668719D-04
  0.58390012D-05 -0.16373169D-04  0.79131015D-04  0.60672644D-04  0.30279901D-04
 -0.45210573D-04 -0.34664600D-04 -0.17300065D-04  0.68319936D-08  0.52383393D-08
  0.26142985D-08  0.43440868D-03  0.91564782D-04 -0.15128092D-03  0.15394287D-08
  0.62694583D-04  0.19496432D-04  0.17757682D-04 -0.79792639D-06 -0.55493750D-08
  0.90729291D-08 -0.34793104D-05 -0.64186482D-05 -0.10361688D-04 -0.13487840D-04
 -0.11509198D-04 -0.39738495D-05 -0.30522427D-04 -0.14067759D-04  0.39447463D-04
 -0.79664763D-04 -0.61081888D-04 -0.30484143D-04 -0.55371231D-04 -0.42455148D-04
 -0.21188094D-04 -0.18324756D-07 -0.14050261D-07 -0.70120648D-08 -0.10044772D-03
  0.46692011D-03  0.21007967D-03  0.72128053D-07 -0.95200085D-04 -0.82430364D-04
 -0.11464275D-04  0.59377957D-04  0.62550520D-08  0.30296526D-07 -0.25462790D-04
 -0.46973875D-04 -0.75830399D-04 -0.98708648D-04 -0.84228268D-04 -0.29081997D-04
 -0.54047986D-04 -0.24910667D-04  0.69852111D-04  0.54141570D-03  0.41512322D-03
  0.20717558D-03 -0.46300996D-04 -0.35500667D-04 -0.17717321D-04  0.69281047D-07
  0.53120313D-07  0.26510759D-07 -0.75135230D-04 -0.78039152D-03 -0.28081447D-04
 -0.93593670D-07  0.61020550D-05 -0.61197890D-04 -0.88580752D-04  0.63068590D-05
  0.24203307D-07 -0.53015953D-08  0.13138974D-04  0.24238841D-04  0.39129006D-04
  0.50934339D-04  0.43462364D-04  0.15006510D-04 -0.86870068D-04 -0.40038335D-04
  0.11227167D-03 -0.94187848D-04 -0.72217268D-04 -0.36041478D-04 -0.39779540D-04
 -0.30500428D-04 -0.15221851D-04 -0.69230071D-08 -0.53081227D-08 -0.26491253D-08
 -0.65304548D-03  0.13503581D-03 -0.30397205D-03  0.12137094D-07 -0.92253617D-04
 -0.55198972D-04  0.53113064D-04  0.12509478D-04 -0.22830649D-07  0.60707620D-08
 -0.53708318D-05 -0.99081359D-05 -0.15994804D-04 -0.20820482D-04 -0.17766155D-04
 -0.61342263D-05  0.31133920D-04  0.14349595D-04 -0.40237763D-04  0.89934282D-04
  0.68955903D-04  0.34413828D-04 -0.45798617D-05 -0.35115474D-05 -0.17525083D-05
  0.96435817D-08  0.73940868D-08  0.36901675D-08  0.43425648D-03  0.14737270D-03
  0.84268079D-04  0.13152808D-07  0.48077333D-04  0.13329149D-04 -0.83491372D-05
 -0.59917656D-04  0.72630294D-08 -0.59651209D-08 -0.19767155D-04 -0.33528836D-04
 -0.38171395D-04 -0.76783706D-04  0.82561925D+00  0.15195802D+01  0.24589675D+01
  0.32323817D+01  0.27723950D+01  0.94792893D+00 -0.15780017D-01 -0.70410130D-02
  0.20792206D-01 -0.17692130D-02 -0.13630832D-02 -0.59846696D-03 -0.26382493D-02
 -0.20326288D-02 -0.89243354D-03 -0.41981061D-06 -0.32344145D-06 -0.14200822D-06
  0.39162759D-02 -0.36368605D-03  0.19616436D-03 -0.30291624D-07 -0.92079264D-02
 -0.93245717D-02 -0.92461504D-02 -0.11980680D-03 -0.29997227D-09 -0.24741310D-07
  0.32694451D-05  0.55455976D-05  0.63134669D-05  0.29058715D-04  0.94065834D-04
  0.15955346D-03  0.18164597D-03 -0.17857728D-03  0.49356262D-06  0.91052666D-06
  0.14698724D-05  0.19133371D-05  0.16326540D-05  0.56371619D-06 -0.48077846D-05
 -0.22159035D-05  0.62136247D-05 -0.32124871D-04 -0.24631313D-04 -0.12292752D-04
  0.73647200D-05  0.56468002D-05  0.28181490D-05 -0.58863524D-08 -0.45132817D-08
 -0.22524439D-08 -0.89018851D-04 -0.24375629D-04  0.75523574D-05  0.25696530D-09
 -0.98167262D-05  0.19486547D-05 -0.52953047D-05  0.27822311D-05 -0.93932420D-09
  0.34318253D-08  0.19135724D-05  0.32457810D-05  0.36952070D-05  0.95969637D-06
  0.19145590D-05  0.32474544D-05  0.36971121D-05  0.96129691D-06  0.77971392D-06
  0.13225424D-05  0.15056678D-05  0.70170389D-05  0.23382939D-05  0.39661890D-05
  0.45153660D-05  0.47137576D-04  0.20905855D-04  0.38567221D-04  0.62259452D-04
  0.81043308D-04  0.69154402D-04  0.23877353D-04 -0.69637658D-04 -0.32095933D-04
  0.90000346D-04  0.14356812D-03  0.11007893D-03  0.54937101D-04 -0.76023046D-04
 -0.58289650D-04 -0.29090621D-04  0.11269375D-06  0.86406421D-07  0.43122860D-07
 -0.39580651D-03  0.39145912D-04  0.17872727D-03 -0.58287940D-07  0.65667413D-04
  0.60169461D-04  0.30230788D-04 -0.12639546D-03  0.82731526D-07 -0.95987820D-07
  0.35274754D-04  0.59832659D-04  0.68117367D-04  0.10791405D-04  0.35308709D-04
  0.59890253D-04  0.68182936D-04  0.10683927D-04 -0.50923845D-06 -0.86376479D-06
 -0.98336568D-06 -0.53226451D-04
MO    2     MO 0.0        OCC NO =    1.0000000  ORB. ENERGY =  -10.030220
 -0.73650498D-04 -0.13587079D-03 -0.21933758D-03 -0.28551236D-03 -0.24362821D-03
 -0.84118967D-04  0.16319131D-03  0.75214727D-04 -0.21090995D-03 -0.12934572D-03
 -0.99174097D-04 -0.49494825D-04  0.38506798D-04  0.29524570D-04  0.14734830D-04
 -0.16069676D-07 -0.12321208D-07 -0.61491465D-08  0.12967710D-02  0.77087757D-03
 -0.17098625D-03  0.70846411D-07 -0.87436478D-05  0.59985286D-04 -0.14536078D-03
  0.41553270D-04  0.26622338D-07  0.88593804D-08  0.28038621D-04  0.51725781D-04
  0.83501448D-04  0.10869408D-03  0.92748851D-04  0.32023949D-04 -0.85980892D-04
 -0.39628515D-04  0.11112249D-03 -0.14032434D-03 -0.10759180D-03 -0.53695849D-04
  0.68154889D-04  0.52256846D-04  0.26079829D-04 -0.86304621D-08 -0.66172910D-08
 -0.33024920D-08 -0.16086396D-02 -0.20270037D-03  0.76323223D-03 -0.17411968D-07
  0.62597541D-04  0.16217068D-04  0.44585905D-04 -0.18262444D-04  0.80839800D-08
 -0.82332926D-08  0.16778896D-02  0.30953786D-02  0.49969009D-02  0.65044802D-02
  0.55502847D-02  0.19163799D-02  0.25722274D-03  0.11855373D-03 -0.33243703D-03
  0.12189884D-03  0.93464301D-04  0.46645237D-04  0.52152553D-03  0.39987270D-03
  0.19956450D-03  0.14102171D-07  0.10812650D-07  0.53962702D-08  0.22909901D-02
 -0.95074063D-03 -0.13164996D-02 -0.10627924D-06 -0.36055949D-03 -0.26275150D-03
 -0.31162360D-03  0.22655830D-03 -0.21015705D-07  0.17168326D-07  0.53259167D+00
  0.98252764D+00  0.15861042D+01  0.20646365D+01  0.17617580D+01  0.60829271D+00
 -0.19693605D-01 -0.90767644D-02  0.25452195D-01  0.14707832D-02  0.11277033D-02
  0.56280297D-03 -0.46212123D-03 -0.35432525D-03 -0.17683313D-03  0.15875124D-06
  0.12172038D-06  0.60747002D-07 -0.41129752D-02  0.19121961D-02 -0.43467730D-03
  0.19284231D-06 -0.91154869D-02 -0.99764739D-02 -0.10321810D-01 -0.16719262D-03
  0.25844263D-06 -0.76392022D-08  0.16966513D-02  0.31299904D-02  0.50527750D-02
  0.65772118D-02  0.56123467D-02  0.19378085D-02  0.29787532D-03  0.13729046D-03
 -0.38497679D-03 -0.14608979D-03 -0.11201239D-03 -0.55902032D-04 -0.34279781D-03
 -0.26283562D-03 -0.13117339D-03 -0.21861384D-07 -0.16761923D-07 -0.83653743D-08
  0.26107899D-02 -0.18920322D-03  0.12714022D-02 -0.63024303D-09 -0.49369660D-03
 -0.21670622D-03 -0.36171222D-03 -0.17703178D-03 -0.35798787D-07 -0.13516677D-07
  0.39379554D-04  0.72647587D-04  0.11727573D-03  0.15265816D-03  0.13026348D-03
  0.44976849D-04 -0.96125755D-04 -0.44304272D-04  0.12423380D-03 -0.15245081D-03
 -0.11688961D-03 -0.58336108D-04 -0.46460070D-05 -0.35622635D-05 -0.17778191D-05
 -0.15821044D-07 -0.12130573D-07 -0.60540061D-08 -0.15725311D-02 -0.52654740D-03
 -0.48799387D-03 -0.54875262D-07  0.78287706D-04  0.66515197D-05  0.53982176D-04
  0.27485977D-04  0.78384483D-08  0.49686412D-08  0.39709150D-04  0.67354234D-04
  0.76680415D-04  0.39161299D-03  0.13327678D-03  0.24530043D-03  0.39694240D-03
  0.52179189D-03  0.44753787D-03  0.15302080D-03 -0.73698778D-03 -0.32884251D-03
  0.97107633D-03  0.72812301D-04  0.56097952D-04  0.24630023D-04  0.78011094D-04
  0.60103342D-04  0.26388605D-04  0.11674675D-07  0.89947077D-08  0.39491612D-08
 -0.17726192D-02  0.83387005D-03 -0.18973742D-03  0.89081820D-07 -0.50394940D-03
  0.77102929D-03  0.10344342D-02  0.60592069D-03 -0.32878808D-06  0.53478347D-07
 -0.25290309D-04 -0.42897151D-04 -0.48836890D-04 -0.16318852D-03  0.37140508D-04
  0.62997331D-04  0.71720235D-04 -0.71885663D-04  0.44737837D-05  0.82532573D-05
  0.13323316D-04  0.17342999D-04  0.14798813D-04  0.51096744D-05  0.15421014D-04
  0.71075310D-05 -0.19930259D-04  0.93156649D-04  0.71426610D-04  0.35646884D-04
 -0.21689118D-04 -0.16629840D-04 -0.82994557D-05  0.12554404D-07  0.96259204D-08
  0.48040089D-08  0.32627090D-03  0.92938927D-04 -0.33214984D-04  0.12755823D-08
  0.15973884D-04  0.11932267D-04  0.51431202D-05 -0.63413132D-05 -0.10885839D-08
 -0.10762504D-08 -0.52259202D-05 -0.88641497D-05 -0.10091521D-04 -0.14638110D-05
 -0.52273549D-05 -0.88665833D-05 -0.10094292D-04 -0.14678980D-05 -0.55174183D-05
 -0.93585858D-05 -0.10654419D-04 -0.14289107D-04 -0.29753794D-04 -0.50468066D-04
 -0.57456109D-04 -0.20605087D-03 -0.51674091D-04 -0.95328608D-04 -0.15388993D-03
 -0.20031897D-03 -0.17093254D-03 -0.59018897D-04  0.98989988D-04  0.45624395D-04
 -0.12793557D-03 -0.15647464D-03 -0.11997483D-03 -0.59875848D-04 -0.10612272D-03
 -0.81368168D-04 -0.40608418D-04 -0.25952200D-07 -0.19898501D-07 -0.99307467D-08
  0.79458336D-03 -0.21280722D-03 -0.17136194D-03 -0.31790404D-07  0.55854220D-04
  0.32504685D-04 -0.42648605D-04  0.11694359D-03  0.20368611D-07  0.24535708D-07
 -0.20962346D-04 -0.35556107D-04 -0.40479371D-04 -0.42065704D-05 -0.20970766D-04
 -0.35570388D-04 -0.40495630D-04 -0.42028301D-05 -0.22269684D-04 -0.37773599D-04
 -0.43003907D-04 -0.28786156D-05
MO    3     MO 0.0        OCC NO =    1.0000000  ORB. ENERGY =  -10.016373
  0.16164910D-02  0.29821103D-02  0.48140507D-02  0.62664637D-02  0.53471848D-02
  0.18462544D-02  0.32256136D-04  0.14866823D-04 -0.41688125D-04  0.30920642D-03
  0.23707987D-03  0.11831947D-03 -0.25072664D-04 -0.19224129D-04 -0.95941876D-05
  0.40148023D-07  0.30782958D-07  0.15362853D-07  0.81924689D-03 -0.47971736D-03
 -0.35926847D-04 -0.50154664D-07 -0.41389960D-03 -0.19821988D-03 -0.18424024D-03
  0.36236859D-04 -0.51088681D-07  0.32274788D-08 -0.28726196D-05 -0.52994223D-05
 -0.85549107D-05 -0.11135952D-04 -0.95023279D-05 -0.32809255D-05  0.14213554D-04
  0.65510141D-05 -0.18369727D-04  0.11785882D-03  0.90366671D-04  0.45099302D-04
 -0.42416161D-04 -0.32522022D-04 -0.16230768D-04 -0.89247893D-08 -0.68429623D-08
 -0.34151178D-08 -0.21451900D-03 -0.28489060D-03 -0.91766758D-05 -0.14546960D-07
 -0.44870294D-04  0.13125146D-03 -0.39846482D-04  0.13499487D-03 -0.92356389D-08
  0.10010349D-07 -0.19102258D-04 -0.35239937D-04 -0.56888185D-04 -0.74051514D-04
 -0.63188291D-04 -0.21817398D-04  0.63455855D-04  0.29246745D-04 -0.82010927D-04
  0.64881597D-04  0.49747093D-04  0.24827286D-04  0.49664330D-05  0.38079458D-05
  0.19004319D-05  0.19587311D-07  0.15018308D-07  0.74951882D-08  0.32531582D-03
 -0.31682660D-03  0.52103219D-05 -0.43537783D-07  0.56982697D-04 -0.38320469D-04
 -0.72808421D-04 -0.30842876D-04  0.22914753D-07 -0.45799786D-08 -0.60040028D-05
 -0.11076213D-04 -0.17880442D-04 -0.23275022D-04 -0.19860619D-04 -0.68573944D-05
 -0.53278023D-05 -0.24555792D-05  0.68857004D-05  0.73370386D-05  0.56255758D-05
  0.28075566D-05 -0.12107940D-04 -0.92836007D-05 -0.46331674D-05 -0.12659170D-08
 -0.97062484D-09 -0.48440982D-09 -0.13686998D-03  0.13756383D-03  0.76928169D-04
  0.20592466D-07 -0.33096930D-04  0.17793663D-04 -0.14396789D-04  0.20097159D-04
 -0.64974842D-08  0.54960434D-08 -0.17834436D-04 -0.32901052D-04 -0.53112499D-04
 -0.69136692D-04 -0.58994465D-04 -0.20369371D-04  0.61315532D-04  0.28260273D-04
 -0.79244754D-04  0.16983556D-04  0.13021914D-04  0.64988476D-05 -0.17506834D-04
 -0.13423130D-04 -0.66990825D-05  0.86057393D-08  0.65983350D-08  0.32930316D-08
  0.29117974D-03 -0.23903900D-04  0.14537026D-03 -0.65262767D-08  0.31033138D-04
 -0.42751178D-06 -0.67574560D-04 -0.32136200D-04  0.22144825D-07 -0.68399763D-08
 -0.12371464D-04 -0.22822936D-04 -0.36843295D-04 -0.47959022D-04 -0.40923521D-04
 -0.14129908D-04  0.20670916D-04  0.95272061D-05 -0.26715280D-04  0.12092683D-03
  0.92719025D-04  0.46273292D-04 -0.12823399D-04 -0.98321689D-05 -0.49069414D-05
 -0.55207045D-08 -0.42329260D-08 -0.21125268D-08 -0.17490373D-03 -0.36943672D-04
 -0.48484308D-04  0.58446583D-08 -0.61201456D-04  0.63453894D-04 -0.65036869D-04
  0.10554892D-03 -0.74247133D-08  0.20661900D-07  0.28888559D-05  0.49000464D-05
  0.55785297D-05  0.53441104D-04 -0.17388801D-05 -0.32004676D-05 -0.51789608D-05
 -0.68078889D-05 -0.58390868D-05 -0.19964829D-05  0.55461875D-05  0.24746981D-05
 -0.73078165D-05  0.41867010D-04  0.32256274D-04  0.14162242D-04 -0.14366037D-05
 -0.11068257D-05 -0.48595610D-06  0.11666549D-07  0.89884474D-08  0.39464126D-08
 -0.38068562D-04 -0.95788830D-05 -0.11267568D-04 -0.42011049D-08  0.16461876D-04
 -0.46747754D-05 -0.31646320D-04  0.19767181D-05  0.13484265D-07 -0.12586762D-08
 -0.57020131D-05 -0.96716934D-05 -0.11010881D-04 -0.38031808D-04 -0.12901689D-05
 -0.21883706D-05 -0.24913826D-05  0.14747026D-05  0.53255374D+00  0.98245767D+00
  0.15859913D+01  0.20644894D+01  0.17616326D+01  0.60824939D+00 -0.20032322D-01
 -0.92328791D-02  0.25889957D-01 -0.27249343D-03 -0.20893068D-03 -0.10427105D-03
  0.14615266D-03  0.11206059D-03  0.55926087D-04 -0.35098540D-08 -0.26911335D-08
 -0.13430642D-08 -0.33940383D-02 -0.18133495D-03  0.45540783D-04 -0.19811791D-07
 -0.10277389D-01 -0.10146345D-01 -0.10106534D-01  0.13969074D-03 -0.13584269D-07
  0.52990147D-08 -0.33676658D-05 -0.57121985D-05 -0.65031361D-05  0.50689657D-03
 -0.33661091D-05 -0.57095581D-05 -0.65001301D-05  0.50688504D-03 -0.85842450D-05
 -0.14560504D-04 -0.16576619D-04  0.50059239D-03 -0.15944167D-04 -0.27044326D-04
 -0.30789009D-04  0.52780942D-05 -0.22847293D-04 -0.42148794D-04 -0.68041223D-04
 -0.88569455D-04 -0.75576476D-04 -0.26094741D-04  0.20236907D-04  0.93271719D-05
 -0.26154364D-04  0.11474501D-04  0.87979199D-05  0.43907786D-05 -0.21243424D-04
 -0.16288110D-04 -0.81289085D-05 -0.14993268D-07 -0.11495887D-07 -0.57372532D-08
  0.12036937D-03 -0.10263791D-04 -0.58831127D-04  0.10810114D-07 -0.37622707D-04
  0.26227035D-04 -0.19088666D-04  0.20169713D-04 -0.12311956D-07  0.87178797D-08
 -0.23630768D-05 -0.40082255D-05 -0.45632230D-05 -0.84280323D-05 -0.23630074D-05
 -0.40081078D-05 -0.45630891D-05 -0.84219930D-05 -0.50857123D-05 -0.86263306D-05
 -0.98207725D-05  0.26020097D-04
MO    4     MO 0.0        OCC NO =    1.0000000  ORB. ENERGY =  -10.003828
 -0.12776657D-04 -0.23570437D-04 -0.38049993D-04 -0.49529786D-04 -0.42263856D-04
 -0.14592694D-04  0.46812764D-04  0.21575960D-04 -0.60501244D-04 -0.56450408D-04
 -0.43282592D-04 -0.21601047D-04  0.59425986D-05  0.45564077D-05  0.22739668D-05
  0.17539117D-07  0.13447883D-07  0.67114360D-08  0.19014454D-03  0.19575197D-03
 -0.48701971D-04 -0.13216510D-09  0.14964819D-04  0.17180767D-04 -0.50193962D-04
  0.44012210D-04  0.76544191D-08 -0.32488551D-09 -0.16396685D-04 -0.30248682D-04
 -0.48830752D-04 -0.63563130D-04 -0.54238534D-04 -0.18727262D-04  0.18876194D-04
  0.87000206D-05 -0.24395766D-04 -0.49102597D-04 -0.37648757D-04 -0.18789368D-04
 -0.10677685D-03 -0.81869715D-04 -0.40858725D-04 -0.44530292D-07 -0.34143003D-07
 -0.17039751D-07 -0.10930605D-03 -0.18424302D-05  0.50658496D-04  0.20392128D-07
 -0.29098779D-05  0.11697948D-04 -0.57005958D-04 -0.17380871D-03  0.26744425D-07
 -0.87834525D-08  0.12716083D-02  0.23458690D-02  0.37869600D-02  0.49294967D-02
  0.42063484D-02  0.14523510D-02  0.45078507D-04  0.20776643D-04 -0.58259875D-04
 -0.20254309D-03 -0.15529719D-03 -0.77504184D-04 -0.27334881D-03 -0.20958653D-03
 -0.10459837D-03  0.80642721D-09  0.61831724D-09  0.30858364D-09  0.81797430D-03
  0.32357017D-03  0.47276030D-03  0.33588220D-07 -0.25746369D-03 -0.33770170D-03
 -0.16897543D-03 -0.22855097D-03  0.52835143D-08 -0.11513429D-07  0.21160498D-04
  0.39036988D-04  0.63017802D-04  0.82030454D-04  0.69996735D-04  0.24168190D-04
  0.38773764D-04  0.17870792D-04 -0.50111567D-04 -0.14371562D-03 -0.11019202D-03
 -0.54993543D-04 -0.72094505D-04 -0.55277494D-04 -0.27587344D-04 -0.33810328D-07
 -0.25923615D-07 -0.12937701D-07 -0.11385946D-03 -0.69060856D-04  0.19779684D-03
 -0.48976943D-09 -0.57947607D-04  0.38462272D-04 -0.55360895D-04 -0.16795402D-03
 -0.20702426D-07  0.99415233D-08 -0.21691630D-04 -0.40016822D-04 -0.64599559D-04
 -0.84089432D-04 -0.71753664D-04 -0.24774816D-04  0.66080364D-04  0.30456379D-04
 -0.85402867D-04 -0.15141792D-04 -0.11609766D-04 -0.57940869D-05 -0.17631732D-04
 -0.13518894D-04 -0.67468754D-05  0.97723478D-08  0.74928164D-08  0.37394405D-08
  0.26046351D-03  0.91160112D-04  0.11359799D-03  0.40980204D-08  0.15217316D-04
  0.11521734D-04 -0.75109615D-04  0.69764738D-04  0.22329586D-07  0.38439438D-08
  0.55167830D-05  0.10177387D-04  0.16429459D-04  0.21386274D-04  0.18248946D-04
  0.63009226D-05 -0.13672295D-04 -0.63015484D-05  0.17670199D-04 -0.14476922D-05
 -0.11099985D-05 -0.55396707D-06 -0.15212040D-04 -0.11663628D-04 -0.58209676D-05
 -0.31292084D-08 -0.23992785D-08 -0.11974081D-08 -0.14154195D-03 -0.50578947D-04
 -0.11478288D-03  0.11507549D-08  0.85585233D-05 -0.14320739D-04  0.22429213D-06
 -0.17052723D-04  0.27138398D-08  0.87114781D-08 -0.34258470D-05 -0.58108849D-05
 -0.66154871D-05  0.22614650D-04 -0.52531425D-04 -0.96685865D-04 -0.15645598D-03
 -0.20566576D-03 -0.17639833D-03 -0.60313585D-04  0.16342158D-03  0.72918391D-04
 -0.21532899D-03  0.15124132D-03  0.11652328D-03  0.51159997D-04 -0.28035238D-03
 -0.21599640D-03 -0.94834052D-04 -0.10715447D-06 -0.82556740D-07 -0.36246855D-07
  0.33687520D-03 -0.12751660D-03  0.70908207D-04  0.20846247D-07 -0.15461143D-03
 -0.19535346D-03 -0.27781038D-03 -0.45624163D-05  0.31080965D-07  0.64211356D-07
 -0.96231655D-05 -0.16322710D-04 -0.18582829D-04 -0.38383203D-04  0.10849963D-04
  0.18403590D-04  0.20951837D-04  0.22618789D-04  0.12154608D-04  0.22422879D-04
  0.36197479D-04  0.47118363D-04  0.40206184D-04  0.13882229D-04  0.21614198D-04
  0.99619639D-05 -0.27934387D-04  0.18201863D-04  0.13956034D-04  0.69650390D-05
 -0.20083293D-04 -0.15398595D-04 -0.76849783D-05 -0.89022178D-08 -0.68256559D-08
 -0.34064807D-08  0.13580894D-03  0.50051733D-04 -0.70548343D-05  0.15196926D-07
  0.37232579D-05 -0.12413375D-04 -0.16293669D-04 -0.16971987D-04  0.10797920D-07
 -0.76491276D-09 -0.50781685D-05 -0.86135349D-05 -0.98062051D-05 -0.19017809D-05
 -0.50782189D-05 -0.86136204D-05 -0.98063023D-05 -0.18873572D-05 -0.39504096D-05
 -0.67006424D-05 -0.76284445D-05  0.58245454D-05 -0.62708581D-05 -0.10636562D-04
 -0.12109350D-04 -0.42594574D-04  0.53256570D+00  0.98247973D+00  0.15860269D+01
  0.20645358D+01  0.17616721D+01  0.60826305D+00 -0.20010204D-01 -0.92226848D-02
  0.25861371D-01  0.24523474D-03  0.18803044D-03  0.93840370D-04  0.17587888D-03
  0.13485277D-03  0.67300984D-04  0.98713228D-07  0.75687042D-07  0.37773139D-07
 -0.34949879D-02  0.14589464D-03  0.16994297D-03 -0.15264946D-07 -0.10192990D-01
 -0.10131937D-01 -0.10076884D-01 -0.22350930D-03 -0.61064262D-07 -0.58983987D-07
  0.17679361D-05  0.29987543D-05  0.34139758D-05  0.51374322D-03  0.17683781D-05
  0.29995040D-05  0.34148293D-05  0.51370752D-03 -0.10141394D-04 -0.17201724D-04
 -0.19583555D-04  0.49831326D-03
MO    5     MO 0.0        OCC NO =    1.0000000  ORB. ENERGY =   -9.977805
  0.53247828D+00  0.98231844D+00  0.15857665D+01  0.20641969D+01  0.17613829D+01
  0.60816320D+00 -0.19731436D-01 -0.90942008D-02  0.25501088D-01 -0.34637887D-03
 -0.26558135D-03 -0.13254371D-03  0.52723438D-04  0.40424989D-04  0.20174902D-04
 -0.97747083D-08 -0.74946264D-08 -0.37403438D-08 -0.37094657D-02 -0.33786655D-03
  0.18951322D-03 -0.23895836D-07 -0.10034081D-01 -0.99457043D-02 -0.10355828D-01
  0.22878308D-04  0.37655027D-07  0.12746875D-07  0.36235785D-02  0.66847947D-02
  0.10791331D-01  0.14047107D-01  0.11986422D-01  0.41386234D-02  0.88643179D-04
  0.40855560D-04 -0.11456326D-03  0.30884347D-03  0.23680158D-03  0.11818059D-03
  0.34104821D-03  0.26149413D-03  0.13050390D-03  0.30104145D-07  0.23081949D-07
  0.11519510D-07  0.14280290D-02 -0.91156637D-04 -0.49250528D-03 -0.10437338D-07
 -0.46370390D-03 -0.41862296D-03 -0.27072853D-03 -0.23616974D-03 -0.32766818D-07
 -0.21283740D-07  0.54845204D-04  0.10117869D-03  0.16333378D-03  0.21261205D-03
  0.18142225D-03  0.62640743D-04 -0.45116473D-04 -0.20794141D-04  0.58308942D-04
 -0.30644097D-04 -0.23495950D-04 -0.11726126D-04 -0.16305908D-04 -0.12502336D-04
 -0.62395418D-05 -0.86693393D-09 -0.66470995D-09 -0.33173685D-09 -0.60637720D-03
  0.28814928D-03  0.23030537D-03  0.25166660D-07  0.86912056D-04  0.28176667D-04
  0.46753236D-04 -0.25195827D-04  0.35150454D-08 -0.83251654D-08  0.12376916D-04
  0.22832993D-04  0.36859530D-04  0.47980156D-04  0.40941554D-04  0.14136135D-04
  0.87042902D-04  0.40117994D-04 -0.11249504D-03  0.13433269D-04  0.10299779D-04
  0.51403116D-05  0.28653251D-05  0.21969496D-05  0.10964318D-05 -0.14340955D-08
 -0.10995735D-08 -0.54876423D-09  0.67236355D-03 -0.35957170D-03  0.66322111D-05
 -0.34623753D-07 -0.29669700D-04 -0.11541777D-04 -0.82968136D-04  0.24962629D-04
  0.98576217D-08  0.56770923D-08  0.73339886D-04  0.13529777D-03  0.21841255D-03
  0.28430824D-03  0.24260074D-03  0.83764205D-04 -0.55723427D-04 -0.25682877D-04