 Generated by Multiwfn (http://sobereva.com/multiwfn)
GAUSSIAN             65 MOL ORBITALS    292 PRIMITIVES       19 NUCLEI
  C    1    (CENTRE  1)  -3.03435023  0.10960555 -0.00030044  CHARGE =  6.0
  C    2    (CENTRE  2)  -1.15242323  1.97212552 -0.00011524  CHARGE =  6.0
  C    3    (CENTRE  3)   1.41748342  1.40707882  0.00012853  CHARGE =  6.0
  C    4    (CENTRE  4)   2.12214938 -1.15171420  0.00018144  CHARGE =  6.0
  C    5    (CENTRE  5)   0.29363928 -3.04089820 -0.00002265  CHARGE =  6.0
  C    6    (CENTRE  6)  -2.26447928 -2.40839206 -0.00025508  CHARGE =  6.0
  H    7    (CENTRE  7)   0.86496987 -5.01352654 -0.00000375  CHARGE =  1.0
  O    8    (CENTRE  8)   4.66243835 -1.66795305  0.00044978  CHARGE =  8.0
  H    9    (CENTRE  9)  -3.66651226 -3.90456588 -0.00041382  CHARGE =  1.0
  H   10    (CENTRE 10)   4.90022092 -3.47103709  0.00035341  CHARGE =  1.0
  C   11    (CENTRE 11)  -5.79712802  0.82765578 -0.00051965  CHARGE =  6.0
  H   12    (CENTRE 12)  -6.28679211  1.95389470  1.66434230  CHARGE =  1.0
  H   13    (CENTRE 13)  -6.28635180  1.95457689 -1.66504522  CHARGE =  1.0
  H   14    (CENTRE 14)  -7.00426030 -0.84603511 -0.00101664  CHARGE =  1.0
  H   15    (CENTRE 15)  -1.70838657  3.94939124 -0.00019272  CHARGE =  1.0
  C   16    (CENTRE 16)   3.41970658  3.43050899  0.00038742  CHARGE =  6.0
  H   17    (CENTRE 17)   4.64519966  3.26839142  1.65793802  CHARGE =  1.0
  H   18    (CENTRE 18)   4.64669066  3.26735207 -1.65593107  CHARGE =  1.0
  H   19    (CENTRE 19)   2.56812773  5.30936152 -0.00053476  CHARGE =  1.0
CENTRE ASSIGNMENTS    1  1  1  1  1  1  1  1  1  1  1  1  1  1  1  1  1  1  1  1
CENTRE ASSIGNMENTS    1  1  1  1  1  1  1  1  2  2  2  2  2  2  2  2  2  2  2  2
CENTRE ASSIGNMENTS    2  2  2  2  2  2  2  2  2  2  2  2  2  2  2  2  3  3  3  3
CENTRE ASSIGNMENTS    3  3  3  3  3  3  3  3  3  3  3  3  3  3  3  3  3  3  3  3
CENTRE ASSIGNMENTS    3  3  3  3  4  4  4  4  4  4  4  4  4  4  4  4  4  4  4  4
CENTRE ASSIGNMENTS    4  4  4  4  4  4  4  4  4  4  4  4  5  5  5  5  5  5  5  5
CENTRE ASSIGNMENTS    5  5  5  5  5  5  5  5  5  5  5  5  5  5  5  5  5  5  5  5
CENTRE ASSIGNMENTS    6  6  6  6  6  6  6  6  6  6  6  6  6  6  6  6  6  6  6  6
CENTRE ASSIGNMENTS    6  6  6  6  6  6  6  6  7  7  7  7  8  8  8  8  8  8  8  8
CENTRE ASSIGNMENTS    8  8  8  8  8  8  8  8  8  8  8  8  8  8  8  8  8  8  8  8
CENTRE ASSIGNMENTS    9  9  9  9 10 10 10 10 11 11 11 11 11 11 11 11 11 11 11 11
CENTRE ASSIGNMENTS   11 11 11 11 11 11 11 11 11 11 11 11 11 11 11 11 12 12 12 12
CENTRE ASSIGNMENTS   13 13 13 13 14 14 14 14 15 15 15 15 16 16 16 16 16 16 16 16
CENTRE ASSIGNMENTS   16 16 16 16 16 16 16 16 16 16 16 16 16 16 16 16 16 16 16 16
CENTRE ASSIGNMENTS   17 17 17 17 18 18 18 18 19 19 19 19
TYPE ASSIGNMENTS      1  1  1  1  1  1  1  1  1  2  2  2  3  3  3  4  4  4  1  2
TYPE ASSIGNMENTS      3  4  5  6  7  8  9 10  1  1  1  1  1  1  1  1  1  2  2  2
TYPE ASSIGNMENTS      3  3  3  4  4  4  1  2  3  4  5  6  7  8  9 10  1  1  1  1
TYPE ASSIGNMENTS      1  1  1  1  1  2  2  2  3  3  3  4  4  4  1  2  3  4  5  6
TYPE ASSIGNMENTS      7  8  9 10  1  1  1  1  1  1  1  1  1  2  2  2  3  3  3  4
TYPE ASSIGNMENTS      4  4  1  2  3  4  5  6  7  8  9 10  1  1  1  1  1  1  1  1
TYPE ASSIGNMENTS      1  2  2  2  3  3  3  4  4  4  1  2  3  4  5  6  7  8  9 10
TYPE ASSIGNMENTS      1  1  1  1  1  1  1  1  1  2  2  2  3  3  3  4  4  4  1  2
TYPE ASSIGNMENTS      3  4  5  6  7  8  9 10  1  1  1  1  1  1  1  1  1  1  1  1
TYPE ASSIGNMENTS      1  2  2  2  3  3  3  4  4  4  1  2  3  4  5  6  7  8  9 10
TYPE ASSIGNMENTS      1  1  1  1  1  1  1  1  1  1  1  1  1  1  1  1  1  2  2  2
TYPE ASSIGNMENTS      3  3  3  4  4  4  1  2  3  4  5  6  7  8  9 10  1  1  1  1
TYPE ASSIGNMENTS      1  1  1  1  1  1  1  1  1  1  1  1  1  1  1  1  1  1  1  1
TYPE ASSIGNMENTS      1  2  2  2  3  3  3  4  4  4  1  2  3  4  5  6  7  8  9 10
TYPE ASSIGNMENTS      1  1  1  1  1  1  1  1  1  1  1  1
EXPONENTS  0.3047525D+04 0.4573695D+03 0.1039487D+03 0.2921016D+02 0.9286663D+01
EXPONENTS  0.3163927D+01 0.7868272D+01 0.1881289D+01 0.5442493D+00 0.7868272D+01
EXPONENTS  0.1881289D+01 0.5442493D+00 0.7868272D+01 0.1881289D+01 0.5442493D+00
EXPONENTS  0.7868272D+01 0.1881289D+01 0.5442493D+00 0.1687145D+00 0.1687145D+00
EXPONENTS  0.1687145D+00 0.1687145D+00 0.8000000D+00 0.8000000D+00 0.8000000D+00
EXPONENTS  0.8000000D+00 0.8000000D+00 0.8000000D+00 0.3047525D+04 0.4573695D+03
EXPONENTS  0.1039487D+03 0.2921016D+02 0.9286663D+01 0.3163927D+01 0.7868272D+01
EXPONENTS  0.1881289D+01 0.5442493D+00 0.7868272D+01 0.1881289D+01 0.5442493D+00
EXPONENTS  0.7868272D+01 0.1881289D+01 0.5442493D+00 0.7868272D+01 0.1881289D+01
EXPONENTS  0.5442493D+00 0.1687145D+00 0.1687145D+00 0.1687145D+00 0.1687145D+00
EXPONENTS  0.8000000D+00 0.8000000D+00 0.8000000D+00 0.8000000D+00 0.8000000D+00
EXPONENTS  0.8000000D+00 0.3047525D+04 0.4573695D+03 0.1039487D+03 0.2921016D+02
EXPONENTS  0.9286663D+01 0.3163927D+01 0.7868272D+01 0.1881289D+01 0.5442493D+00
EXPONENTS  0.7868272D+01 0.1881289D+01 0.5442493D+00 0.7868272D+01 0.1881289D+01
EXPONENTS  0.5442493D+00 0.7868272D+01 0.1881289D+01 0.5442493D+00 0.1687145D+00
EXPONENTS  0.1687145D+00 0.1687145D+00 0.1687145D+00 0.8000000D+00 0.8000000D+00
EXPONENTS  0.8000000D+00 0.8000000D+00 0.8000000D+00 0.8000000D+00 0.3047525D+04
EXPONENTS  0.4573695D+03 0.1039487D+03 0.2921016D+02 0.9286663D+01 0.3163927D+01
EXPONENTS  0.7868272D+01 0.1881289D+01 0.5442493D+00 0.7868272D+01 0.1881289D+01
EXPONENTS  0.5442493D+00 0.7868272D+01 0.1881289D+01 0.5442493D+00 0.7868272D+01
EXPONENTS  0.1881289D+01 0.5442493D+00 0.1687145D+00 0.1687145D+00 0.1687145D+00
EXPONENTS  0.1687145D+00 0.8000000D+00 0.8000000D+00 0.8000000D+00 0.8000000D+00
EXPONENTS  0.8000000D+00 0.8000000D+00 0.3047525D+04 0.4573695D+03 0.1039487D+03
EXPONENTS  0.2921016D+02 0.9286663D+01 0.3163927D+01 0.7868272D+01 0.1881289D+01
EXPONENTS  0.5442493D+00 0.7868272D+01 0.1881289D+01 0.5442493D+00 0.7868272D+01
EXPONENTS  0.1881289D+01 0.5442493D+00 0.7868272D+01 0.1881289D+01 0.5442493D+00
EXPONENTS  0.1687145D+00 0.1687145D+00 0.1687145D+00 0.1687145D+00 0.8000000D+00
EXPONENTS  0.8000000D+00 0.8000000D+00 0.8000000D+00 0.8000000D+00 0.8000000D+00
EXPONENTS  0.3047525D+04 0.4573695D+03 0.1039487D+03 0.2921016D+02 0.9286663D+01
EXPONENTS  0.3163927D+01 0.7868272D+01 0.1881289D+01 0.5442493D+00 0.7868272D+01
EXPONENTS  0.1881289D+01 0.5442493D+00 0.7868272D+01 0.1881289D+01 0.5442493D+00
EXPONENTS  0.7868272D+01 0.1881289D+01 0.5442493D+00 0.1687145D+00 0.1687145D+00
EXPONENTS  0.1687145D+00 0.1687145D+00 0.8000000D+00 0.8000000D+00 0.8000000D+00
EXPONENTS  0.8000000D+00 0.8000000D+00 0.8000000D+00 0.1873114D+02 0.2825394D+01
EXPONENTS  0.6401217D+00 0.1612778D+00 0.5484672D+04 0.8252349D+03 0.1880470D+03
EXPONENTS  0.5296450D+02 0.1689757D+02 0.5799635D+01 0.1553962D+02 0.3599934D+01
EXPONENTS  0.1013762D+01 0.1553962D+02 0.3599934D+01 0.1013762D+01 0.1553962D+02
EXPONENTS  0.3599934D+01 0.1013762D+01 0.1553962D+02 0.3599934D+01 0.1013762D+01
EXPONENTS  0.2700058D+00 0.2700058D+00 0.2700058D+00 0.2700058D+00 0.8000000D+00
EXPONENTS  0.8000000D+00 0.8000000D+00 0.8000000D+00 0.8000000D+00 0.8000000D+00
EXPONENTS  0.1873114D+02 0.2825394D+01 0.6401217D+00 0.1612778D+00 0.1873114D+02
EXPONENTS  0.2825394D+01 0.6401217D+00 0.1612778D+00 0.3047525D+04 0.4573695D+03
EXPONENTS  0.1039487D+03 0.2921016D+02 0.9286663D+01 0.3163927D+01 0.7868272D+01
EXPONENTS  0.1881289D+01 0.5442493D+00 0.7868272D+01 0.1881289D+01 0.5442493D+00
EXPONENTS  0.7868272D+01 0.1881289D+01 0.5442493D+00 0.7868272D+01 0.1881289D+01
EXPONENTS  0.5442493D+00 0.1687145D+00 0.1687145D+00 0.1687145D+00 0.1687145D+00
EXPONENTS  0.8000000D+00 0.8000000D+00 0.8000000D+00 0.8000000D+00 0.8000000D+00
EXPONENTS  0.8000000D+00 0.1873114D+02 0.2825394D+01 0.6401217D+00 0.1612778D+00
EXPONENTS  0.1873114D+02 0.2825394D+01 0.6401217D+00 0.1612778D+00 0.1873114D+02
EXPONENTS  0.2825394D+01 0.6401217D+00 0.1612778D+00 0.1873114D+02 0.2825394D+01
EXPONENTS  0.6401217D+00 0.1612778D+00 0.3047525D+04 0.4573695D+03 0.1039487D+03
EXPONENTS  0.2921016D+02 0.9286663D+01 0.3163927D+01 0.7868272D+01 0.1881289D+01
EXPONENTS  0.5442493D+00 0.7868272D+01 0.1881289D+01 0.5442493D+00 0.7868272D+01
EXPONENTS  0.1881289D+01 0.5442493D+00 0.7868272D+01 0.1881289D+01 0.5442493D+00
EXPONENTS  0.1687145D+00 0.1687145D+00 0.1687145D+00 0.1687145D+00 0.8000000D+00
EXPONENTS  0.8000000D+00 0.8000000D+00 0.8000000D+00 0.8000000D+00 0.8000000D+00
EXPONENTS  0.1873114D+02 0.2825394D+01 0.6401217D+00 0.1612778D+00 0.1873114D+02
EXPONENTS  0.2825394D+01 0.6401217D+00 0.1612778D+00 0.1873114D+02 0.2825394D+01
EXPONENTS  0.6401217D+00 0.1612778D+00
MO    1     MO 0.0        OCC NO =    1.0000000  ORB. ENERGY =  -19.411108
  0.83880218D-05  0.15474262D-04  0.24980257D-04  0.32516873D-04  0.27746706D-04
  0.95802709D-05 -0.36929803D-04 -0.17020912D-04  0.47728415D-04  0.49644840D-04
  0.38064514D-04  0.18996860D-04 -0.10737010D-04 -0.82324584D-05 -0.41085737D-05
  0.55223540D-08  0.42341908D-08  0.21131579D-08 -0.25537023D-03 -0.18914870D-03
  0.51526636D-04 -0.15461115D-07  0.79025329D-05 -0.36347203D-04  0.36342708D-04
 -0.19456771D-04 -0.39303176D-08 -0.58584653D-09  0.17793994D-07  0.32826444D-07
  0.52992059D-07  0.68979915D-07  0.58860687D-07  0.20323181D-07  0.15125710D-04
  0.69714261D-05 -0.19548606D-04  0.81510649D-04  0.62497196D-04  0.31190481D-04
 -0.46983101D-04 -0.36023662D-04 -0.17978332D-04  0.72261803D-08  0.55405767D-08
  0.27651361D-08  0.46088030D-03  0.99591306D-04 -0.15855462D-03  0.22873697D-08
  0.66331827D-04  0.19444701D-04  0.16027727D-04 -0.92667885D-06 -0.45816919D-08
  0.91404897D-08 -0.36984751D-05 -0.68229644D-05 -0.11014380D-04 -0.14337450D-04
 -0.12234172D-04 -0.42241657D-05 -0.31089392D-04 -0.14329072D-04  0.40180214D-04
 -0.87877527D-04 -0.67378914D-04 -0.33626800D-04 -0.53453139D-04 -0.40984476D-04
 -0.20454126D-04 -0.19487866D-07 -0.14942060D-07 -0.74571351D-08 -0.11156994D-03
  0.48821265D-03  0.21327991D-03  0.74239122D-07 -0.10009272D-03 -0.84223117D-04
 -0.13783937D-04  0.63684620D-04  0.60451450D-08  0.31651626D-07 -0.25746953D-04
 -0.47498102D-04 -0.76676663D-04 -0.99810233D-04 -0.85168253D-04 -0.29406551D-04
 -0.62443596D-04 -0.28780196D-04  0.80702674D-04  0.55756721D-03  0.42750717D-03
  0.21335604D-03 -0.46575395D-04 -0.35711059D-04 -0.17822321D-04  0.70487687D-07
  0.54045488D-07  0.26972486D-07 -0.67963797D-04 -0.80160943D-03 -0.32190197D-04
 -0.95209799D-07 -0.12341498D-04 -0.60188849D-04 -0.92833854D-04  0.16891737D-04
  0.21830179D-07 -0.42210285D-08  0.13534590D-04  0.24968676D-04  0.40307185D-04
  0.52467979D-04  0.44771022D-04  0.15458358D-04 -0.89778844D-04 -0.41378987D-04
  0.11603100D-03 -0.10253088D-03 -0.78614173D-04 -0.39233982D-04 -0.41676431D-04
 -0.31954844D-04 -0.15947707D-04 -0.75314546D-08 -0.57746417D-08 -0.28819509D-08
 -0.68200244D-03  0.14289264D-03 -0.31568441D-03  0.12484482D-07 -0.98932268D-04
 -0.54521137D-04  0.53360676D-04  0.12533865D-04 -0.24276592D-07  0.56294751D-08
 -0.59786140D-05 -0.11029375D-04 -0.17804832D-04 -0.23176601D-04 -0.19776635D-04
 -0.68283969D-05  0.33915018D-04  0.15631401D-04 -0.43832079D-04  0.92957733D-04
  0.71274094D-04  0.35570768D-04 -0.47415616D-05 -0.36355287D-05 -0.18143836D-05
  0.99057896D-08  0.75951312D-08  0.37905028D-08  0.45856258D-03  0.15634039D-03
  0.88802740D-04  0.14120504D-07  0.50780496D-04  0.13527596D-04 -0.10652391D-04
 -0.63323527D-04  0.82472484D-08 -0.62968619D-08 -0.20981958D-04 -0.35589372D-04
 -0.40517242D-04 -0.79489929D-04  0.82558296D+00  0.15195134D+01  0.24588595D+01
  0.32322396D+01  0.27722731D+01  0.94788726D+00 -0.15848599D-01 -0.70716142D-02
  0.20882571D-01 -0.21594152D-02 -0.16637130D-02 -0.73045962D-03 -0.25957670D-02
 -0.19998985D-02 -0.87806318D-03 -0.38956466D-06 -0.30013857D-06 -0.13177700D-06
  0.39703341D-02 -0.35419263D-03  0.19568184D-03 -0.32271153D-07 -0.93182368D-02
 -0.94335010D-02 -0.92834224D-02 -0.12033644D-03 -0.14149993D-07 -0.30206193D-07
  0.34215780D-05  0.58036439D-05  0.66072434D-05  0.31182132D-04  0.98627296D-04
  0.16729056D-03  0.19045439D-03 -0.18590395D-03  0.33858989D-06  0.62463223D-06
  0.10083501D-05  0.13125722D-05  0.11200203D-05  0.38671608D-06 -0.45077903D-05
 -0.20776364D-05  0.58259095D-05 -0.34494731D-04 -0.26448372D-04 -0.13199591D-04
  0.73761224D-05  0.56555428D-05  0.28225122D-05 -0.63911319D-08 -0.49003146D-08
 -0.24456004D-08 -0.92804923D-04 -0.25174360D-04  0.81307178D-05  0.46705656D-09
 -0.10514643D-04  0.14360466D-05 -0.63534301D-05  0.26273369D-05 -0.86222578D-09
  0.34623629D-08  0.19224745D-05  0.32608805D-05  0.37123972D-05  0.90606509D-06
  0.19234762D-05  0.32625797D-05  0.37143317D-05  0.90797123D-06  0.80647513D-06
  0.13679345D-05  0.15573450D-05  0.76028382D-05  0.23171748D-05  0.39303671D-05
  0.44745840D-05  0.49359052D-04  0.20828159D-04  0.38423886D-04  0.62028066D-04
  0.80742112D-04  0.68897391D-04  0.23788613D-04 -0.70178875D-04 -0.32345380D-04
  0.90699821D-04  0.14615585D-03  0.11206303D-03  0.55927307D-04 -0.72279818D-04
 -0.55419580D-04 -0.27658254D-04  0.11401092D-06  0.87416345D-07  0.43626882D-07
 -0.40496860D-03  0.40486039D-04  0.18280348D-03 -0.58528406D-07  0.66531493D-04
  0.56931691D-04  0.28143607D-04 -0.12945936D-03  0.84669136D-07 -0.97717843D-07
  0.35795540D-04  0.60716010D-04  0.69123032D-04  0.10503775D-04  0.35830120D-04
  0.60774664D-04  0.69189807D-04  0.10395197D-04 -0.40985789D-06 -0.69519655D-06
 -0.79145670D-06 -0.54152039D-04
MO    2     MO 0.0        OCC NO =    1.0000000  ORB. ENERGY =  -10.479435
 -0.73006853D-04 -0.13468339D-03 -0.21742075D-03 -0.28301721D-03 -0.24149910D-03
 -0.83383836D-04  0.16242231D-03  0.74860294D-04 -0.20991608D-03 -0.13666147D-03
 -0.10478335D-03 -0.52294235D-04  0.36580560D-04  0.28047653D-04  0.13997745D-04
 -0.16731370D-07 -0.12828553D-07 -0.64023471D-08  0.12779719D-02  0.76720818D-03
 -0.16988897D-03  0.70563046D-07 -0.12047907D-04  0.61382858D-04 -0.14672771D-03
  0.41950329D-04  0.26236476D-07  0.89720605D-08  0.29648943D-04  0.54696510D-04
  0.88297127D-04  0.11493662D-03  0.98075630D-04  0.33863158D-04 -0.81249931D-04
 -0.37448019D-04  0.10500815D-03 -0.14603761D-03 -0.11197237D-03 -0.55882062D-04
  0.76701492D-04  0.58809839D-04  0.29350231D-04 -0.93891128D-08 -0.71989761D-08
 -0.35927936D-08 -0.15895752D-02 -0.19977731D-03  0.74777938D-03 -0.17275056D-07
  0.56703323D-04  0.15539493D-04  0.37820413D-04 -0.18387200D-04  0.80523732D-08
 -0.77270429D-08  0.17985142D-02  0.33179074D-02  0.53561313D-02  0.69720915D-02
  0.59492984D-02  0.20541498D-02  0.24818406D-03  0.11438781D-03 -0.32075535D-03
  0.12144976D-03  0.93119969D-04  0.46473391D-04  0.51071735D-03  0.39158567D-03
  0.19542869D-03  0.14873778D-07  0.11404270D-07  0.56915299D-08  0.23161441D-02
 -0.93207351D-03 -0.13078827D-02 -0.10413464D-06 -0.35480023D-03 -0.29471862D-03
 -0.32301277D-03  0.23155136D-03 -0.16771865D-07  0.16773354D-07  0.53253031D+00
  0.98241444D+00  0.15859215D+01  0.20643986D+01  0.17615551D+01  0.60822263D+00
 -0.20010828D-01 -0.92229722D-02  0.25862177D-01  0.92218213D-03  0.70707076D-03
  0.35287787D-03 -0.23971963D-03 -0.18380180D-03 -0.91729982D-04  0.99409659D-07
  0.76221021D-07  0.38039632D-07 -0.41612005D-02  0.19093409D-02 -0.45602612D-03
  0.19254096D-06 -0.96420651D-02 -0.10325153D-01 -0.10424928D-01 -0.12149324D-03
  0.16996291D-06 -0.79410348D-08  0.16973878D-02  0.31313490D-02  0.50549683D-02
  0.65800667D-02  0.56147829D-02  0.19386496D-02  0.29751591D-03  0.13712481D-03
 -0.38451228D-03 -0.12203670D-03 -0.93570000D-04 -0.46697988D-04 -0.32550670D-03
 -0.24957789D-03 -0.12455686D-03 -0.18786498D-07 -0.14404295D-07 -0.71887529D-08
  0.26173865D-02 -0.20177464D-03  0.12711054D-02 -0.19813063D-08 -0.47696821D-03
 -0.21876219D-03 -0.36648812D-03 -0.17331122D-03 -0.31122766D-07 -0.13342435D-07
  0.33275589D-04  0.61386964D-04  0.99097594D-04  0.12899562D-03  0.11007220D-03
  0.38005285D-04 -0.96075641D-04 -0.44281175D-04  0.12416904D-03 -0.16266759D-03
 -0.12472319D-03 -0.62245612D-04 -0.61540672D-05 -0.47185484D-05 -0.23548864D-05
 -0.16719562D-07 -0.12819500D-07 -0.63978289D-08 -0.15785880D-02 -0.53004593D-03
 -0.47999800D-03 -0.55059075D-07  0.70276091D-04  0.54169972D-05  0.51435628D-04
  0.32036018D-04  0.70553556D-08  0.53883202D-08  0.40766182D-04  0.69147161D-04
  0.78721598D-04  0.38978152D-03  0.12622874D-03  0.23232827D-03  0.37595100D-03
  0.49419811D-03  0.42387084D-03  0.14492864D-03 -0.69439645D-03 -0.30983834D-03
  0.91495678D-03 -0.34450329D-04 -0.26542121D-04 -0.11653421D-04  0.88383660D-04
  0.68094845D-04  0.29897305D-04 -0.30310192D-10 -0.23352369D-10 -0.10252948D-10
 -0.16982818D-02  0.76526692D-03 -0.16806209D-03  0.82044260D-07 -0.34591352D-03
  0.72105559D-03  0.96450650D-03  0.51372494D-03 -0.28024774D-06  0.44072060D-07
 -0.24572966D-04 -0.41680402D-04 -0.47451664D-04 -0.16072219D-03  0.36084418D-04
  0.61206003D-04  0.69680871D-04 -0.68267338D-04 -0.81781208D-06 -0.15087036D-05
 -0.24355154D-05 -0.31703174D-05 -0.27052376D-05 -0.93405352D-06  0.16475820D-04
  0.75936904D-05 -0.21293501D-04  0.94542454D-04  0.72489157D-04  0.36177170D-04
 -0.22482590D-04 -0.17238224D-04 -0.86030821D-05  0.12965768D-07  0.99413284D-08
  0.49614196D-08  0.32860605D-03  0.93402210D-04 -0.32960600D-04  0.11027824D-08
  0.16960904D-04  0.10725523D-04  0.51056259D-05 -0.68825103D-05 -0.95348647D-09
 -0.15262795D-08 -0.54135038D-05 -0.91823270D-05 -0.10453755D-04 -0.17757976D-05
 -0.54149678D-05 -0.91848103D-05 -0.10456582D-04 -0.17802911D-05 -0.54430194D-05
 -0.92323911D-05 -0.10510751D-04 -0.14933159D-04 -0.28669908D-04 -0.48629591D-04
 -0.55363070D-04 -0.19911560D-03 -0.22182247D-04 -0.40921914D-04 -0.66060657D-04
 -0.85991347D-04 -0.73376572D-04 -0.25335167D-04  0.92987216D-04  0.42857723D-04
 -0.12017753D-03 -0.15068601D-03 -0.11553648D-03 -0.57660799D-04 -0.10332465D-03
 -0.79222787D-04 -0.39537723D-04 -0.24756633D-07 -0.18981816D-07 -0.94732566D-08
  0.76980163D-03 -0.20886340D-03 -0.16403358D-03 -0.31527785D-07  0.58899143D-04
  0.31270087D-04 -0.41439293D-04  0.10990095D-03  0.22622727D-07  0.21656749D-07
 -0.19804657D-04 -0.33592446D-04 -0.38243813D-04 -0.26187016D-05 -0.19812532D-04
 -0.33605804D-04 -0.38259020D-04 -0.26148192D-05 -0.21598447D-04 -0.36635054D-04
 -0.41707714D-04 -0.34544145D-05
MO    3     MO 0.0        OCC NO =    1.0000000  ORB. ENERGY =  -10.417356
  0.53241463D+00  0.98220103D+00  0.15855770D+01  0.20639501D+01  0.17611724D+01
  0.60809051D+00 -0.20094771D-01 -0.92616614D-02  0.25970665D-01  0.43476643D-03
  0.33335133D-03  0.16636567D-03 -0.26929510D-03 -0.20647840D-03 -0.10304719D-03
  0.33935652D-07  0.26019705D-07  0.12985657D-07 -0.37869596D-02 -0.56319385D-03
  0.26263566D-03 -0.42180924D-07 -0.10524472D-01 -0.10328705D-01 -0.10471978D-01
  0.59139804D-04 -0.27438525D-07  0.11796563D-07  0.36160191D-02  0.66708492D-02
  0.10768819D-01  0.14017803D-01  0.11961416D-01  0.41299896D-02  0.10219614D-03
  0.47102109D-04 -0.13207923D-03  0.27950002D-03  0.21430289D-03  0.10695216D-03
  0.33479195D-03  0.25669723D-03  0.12810991D-03  0.28681934D-07  0.21991488D-07
  0.10975294D-07  0.16041343D-02 -0.30017698D-04 -0.58245761D-03 -0.53008863D-08
 -0.46014747D-03 -0.42591206D-03 -0.29404253D-03 -0.25818604D-03 -0.29063594D-07
 -0.23343362D-07  0.10037116D-03  0.18516518D-03  0.29891402D-03  0.38909724D-03
  0.33201738D-03  0.11463762D-03 -0.53807338D-04 -0.24799753D-04  0.69541096D-04
  0.72995480D-07  0.55968304D-07  0.27932106D-07 -0.67927095D-05 -0.52082188D-05
 -0.25992662D-05  0.21695011D-08  0.16634358D-08  0.83017107D-09 -0.73370826D-03
  0.33821423D-03  0.23173109D-03  0.30040719D-07  0.67112017D-04  0.27207152D-04
  0.42708660D-04 -0.29604954D-04  0.55048274D-09 -0.89242401D-08  0.86949927D-05
  0.16040564D-04  0.25894443D-04  0.33706871D-04  0.28762134D-04  0.99308738D-05
  0.95098802D-04  0.43830951D-04 -0.12290656D-03  0.27614220D-04  0.21172832D-04
  0.10566727D-04  0.23928754D-05  0.18347051D-05  0.91564643D-06 -0.41889630D-09
 -0.32118312D-09 -0.16029289D-09  0.70712119D-03 -0.40293998D-03  0.11064877D-04
 -0.38881391D-07 -0.47997820D-04 -0.14564506D-04 -0.95270738D-04  0.32224703D-04
  0.84541846D-08  0.65878767D-08  0.10199254D-03  0.18815632D-03  0.30374264D-03
  0.39538266D-03  0.33738074D-03  0.11648946D-03 -0.56226628D-04 -0.25914801D-04
  0.72667808D-04  0.43956347D-04  0.33702939D-04  0.16820129D-04 -0.68549625D-05
 -0.52559505D-05 -0.26230876D-05  0.39629193D-08  0.30385151D-08  0.15164320D-08
 -0.80549435D-03  0.59056043D-04 -0.40337419D-03 -0.39736730D-10  0.70325838D-04
  0.41992263D-04  0.51839699D-04 -0.63845234D-04  0.34996480D-09 -0.80340072D-08
  0.70292164D-02  0.12967532D-01  0.20933617D-01  0.27249349D-01  0.23251919D-01
  0.80283288D-02 -0.14417053D-04 -0.66448063D-05  0.18632731D-04  0.71072377D-04
  0.54493791D-04  0.27196221D-04 -0.44587676D-03 -0.34187002D-03 -0.17061710D-03
  0.41120739D-08  0.31528774D-08  0.15735068D-08  0.16839099D-02  0.17593724D-03
  0.64076229D-03  0.21537924D-07 -0.42802198D-03 -0.63758038D-03 -0.37274334D-03
  0.17939126D-03 -0.79801795D-08  0.77356169D-08 -0.18013661D-04 -0.30554578D-04
 -0.34785307D-04 -0.97763990D-04 -0.21153890D-04 -0.38934450D-04 -0.63003290D-04
 -0.82819588D-04 -0.71033880D-04 -0.24287690D-04  0.73755172D-04  0.32909414D-04
 -0.97181941D-04  0.14037355D-04  0.10815026D-04  0.47483787D-05 -0.22378696D-04
 -0.17241579D-04 -0.75699817D-05 -0.11693410D-08 -0.90091417D-09 -0.39554984D-09
  0.24449289D-03 -0.52835894D-04  0.28588719D-04 -0.55176910D-08 -0.72244112D-04
 -0.75714733D-04 -0.65888784D-04 -0.15661679D-04  0.10109880D-08 -0.68341609D-09
 -0.10058802D-07 -0.17061633D-07 -0.19424066D-07  0.12030597D-03 -0.55788932D-06
 -0.94628589D-06 -0.10773130D-05  0.10852653D-04  0.89379099D-03  0.16488698D-02
  0.26617872D-02  0.34648560D-02  0.29565679D-02  0.10208319D-02  0.11637884D-04
  0.53638899D-05 -0.15040907D-04 -0.32646982D-03 -0.25031635D-03 -0.12492540D-03
  0.18189106D-03  0.13946253D-03  0.69601578D-04  0.33348674D-07  0.25569648D-07
  0.12761046D-07  0.31916503D-03  0.14882853D-03 -0.12950823D-03 -0.27025075D-07
 -0.46972421D-03 -0.15120813D-03 -0.58996719D-04  0.14368681D-03 -0.55896772D-07
  0.16483116D-07 -0.26922231D-04 -0.45665200D-04 -0.51988216D-04  0.76841115D-04
 -0.26914961D-04 -0.45652869D-04 -0.51974178D-04  0.76787603D-04 -0.16249817D-04
 -0.27562766D-04 -0.31379235D-04 -0.63766142D-04  0.40608787D-05  0.68880188D-05
  0.78417660D-05  0.97385658D-04 -0.82084632D-05 -0.15143012D-04 -0.24445516D-04
 -0.31820799D-04 -0.27152745D-04 -0.93751905D-05  0.21293195D-04  0.98140143D-05
 -0.27519521D-04  0.30597347D-04  0.23460105D-04  0.11708237D-04  0.48063597D-04
  0.36852118D-04  0.18391789D-04 -0.12231403D-07 -0.93782639D-08 -0.46804110D-08
 -0.10662816D-03  0.28749885D-05  0.20069820D-04  0.17890368D-07  0.16846822D-04
 -0.33917286D-04 -0.36936966D-04  0.70834829D-05  0.31271705D-07 -0.12999551D-07
 -0.78889800D-06 -0.13381203D-05 -0.15234027D-05  0.62742899D-05 -0.78414955D-06
 -0.13300661D-05 -0.15142332D-05  0.63011049D-05 -0.29608592D-05 -0.50221777D-05
 -0.57175718D-05  0.12073894D-04
MO    4     MO 0.0        OCC NO =    1.0000000  ORB. ENERGY =  -10.407433
 -0.99983032D-04 -0.18444917D-03 -0.29775815D-03 -0.38759264D-03 -0.33073350D-03
 -0.11419433D-03 -0.49572040D-04 -0.22847708D-04  0.64067358D-04 -0.56965609D-05
 -0.43677616D-05 -0.21798192D-05 -0.17938822D-04 -0.13754351D-04 -0.68643853D-05
 -0.13358909D-09 -0.10242764D-09 -0.51118570D-10 -0.71660407D-03 -0.38530235D-03
 -0.10030715D-04 -0.35710083D-07  0.45727002D-04  0.41520230D-04  0.50058125D-04
  0.16661954D-04  0.35595265D-08  0.63963469D-09  0.52240530D-02  0.96373577D-02
  0.15557684D-01  0.20251481D-01  0.17280626D-01  0.59665848D-02  0.70850796D-04
  0.32655067D-04 -0.91568217D-04 -0.41236480D-03 -0.31617517D-03 -0.15779357D-03
  0.16989155D-03  0.13026207D-03  0.65009900D-04 -0.34609368D-07 -0.26536268D-07
 -0.13243458D-07  0.16679566D-02  0.36208551D-03 -0.50939030D-03  0.28928536D-07
 -0.54414043D-03 -0.36710147D-03 -0.34052851D-03  0.89044368D-04 -0.43813682D-07
  0.13592756D-07  0.53246371D+00  0.98229157D+00  0.15857232D+01  0.20641404D+01
  0.17613347D+01  0.60814656D+00 -0.20028099D-01 -0.92309324D-02  0.25884498D-01
 -0.10479408D-03 -0.80349455D-04 -0.40100009D-04 -0.73966592D-03 -0.56712891D-03
 -0.28303707D-03 -0.60115870D-08 -0.46093036D-08 -0.23003655D-08 -0.38413349D-02
  0.36002717D-03  0.49037178D-03  0.51877815D-07 -0.10306929D-01 -0.10261696D-01
 -0.10468884D-01 -0.18907452D-03  0.62650734D-07  0.19613933D-07 -0.20546203D-02
 -0.37903733D-02 -0.61188378D-02 -0.79649087D-02 -0.67964710D-02 -0.23466581D-02
  0.28700836D-03  0.13228189D-03 -0.37093223D-03  0.13300170D-03  0.10197727D-03
  0.50893803D-04 -0.49150008D-03 -0.37685108D-03 -0.18807510D-03  0.14872554D-07
  0.11403331D-07  0.56910615D-08  0.15801608D-02 -0.36111713D-03  0.50331872D-03
 -0.37929763D-07 -0.29551367D-03 -0.61434238D-03 -0.18922436D-03  0.12058875D-03
 -0.18267820D-07  0.51992518D-08 -0.92409278D-04 -0.17047707D-03 -0.27520285D-03
 -0.35823235D-03 -0.30568031D-03 -0.10554407D-03 -0.85323758D-05 -0.39325642D-05
  0.11027321D-04 -0.47167303D-05 -0.36164896D-05 -0.18048818D-05 -0.23066298D-04
 -0.17685774D-04 -0.88264409D-05  0.10716579D-08  0.82167931D-09  0.41007557D-09
 -0.54597855D-03  0.16104049D-03 -0.25131800D-03  0.12964117D-07  0.72115290D-04
  0.10244034D-03  0.17320577D-04  0.86058393D-04  0.18068684D-07  0.10153721D-07
 -0.18357381D-03 -0.33865783D-03 -0.54669874D-03 -0.71163932D-03 -0.60724312D-03
 -0.20966646D-03  0.76345500D-04  0.35187571D-04 -0.98669623D-04 -0.44386946D-04
 -0.34033095D-04 -0.16984899D-04 -0.89578324D-05 -0.68682977D-05 -0.34277619D-05
 -0.41017567D-08 -0.31449669D-08 -0.15695589D-08  0.57445605D-03  0.24431052D-03
  0.16813934D-03  0.24679543D-07 -0.10820201D-04 -0.82520741D-05 -0.72351691D-04
 -0.15979202D-04  0.10880095D-07 -0.11755658D-08 -0.12795262D-04 -0.21703186D-04
 -0.24708311D-04 -0.65465452D-04  0.67131785D-05  0.12355832D-04  0.19994069D-04
  0.26282763D-04  0.22542573D-04  0.77076886D-05  0.24201414D-04  0.10798624D-04
 -0.31888481D-04  0.56054260D-05  0.43186786D-05  0.18961325D-05  0.49421489D-04
  0.38076593D-04  0.16717675D-04 -0.15934457D-07 -0.12276640D-07 -0.53901063D-08
  0.60521876D-05 -0.12891336D-04 -0.51921649D-04  0.42180016D-08  0.94825421D-04
  0.87166118D-04 -0.19890355D-04 -0.33929384D-05  0.21421143D-07  0.86693627D-08
  0.12357304D-04  0.20960327D-04  0.23862591D-04  0.83178602D-04 -0.38642639D-05
 -0.65545229D-05 -0.74620927D-05  0.27166297D-04 -0.13144046D-04 -0.24248198D-04
 -0.39144110D-04 -0.50954000D-04 -0.43479141D-04 -0.15012302D-04  0.25730187D-04
  0.11859020D-04 -0.33253929D-04 -0.47998246D-04 -0.36802011D-04 -0.18366783D-04
 -0.75954823D-05 -0.58237340D-05 -0.29064514D-05 -0.10830719D-07 -0.83043087D-08
 -0.41444320D-08 -0.70276968D-04 -0.13870159D-05  0.51633697D-04  0.66775705D-08
  0.10078498D-05 -0.56310613D-04 -0.21052095D-04  0.42559226D-04 -0.10347707D-08
 -0.12882756D-07 -0.53020359D-05 -0.89932564D-05 -0.10238505D-04 -0.10296747D-04
 -0.53033401D-05 -0.89954685D-05 -0.10241023D-04 -0.10293941D-04  0.40013543D-05
  0.67870542D-05  0.77268213D-05  0.24880001D-04  0.63468493D-05  0.10765458D-04
  0.12256093D-04  0.11663565D-03  0.96683881D-03  0.17836288D-02  0.28793299D-02
  0.37480321D-02  0.31982025D-02  0.11042625D-02  0.55253319D-05  0.25466204D-05
 -0.71409895D-05  0.32601563D-03  0.24996811D-03  0.12475160D-03  0.18783077D-03
  0.14401672D-03  0.71874437D-04  0.17103522D-06  0.13113896D-06  0.65447530D-07
  0.31739381D-03 -0.17233047D-03 -0.87125917D-04 -0.10644085D-06 -0.30992126D-03
 -0.31322805D-03 -0.43271582D-04 -0.32788388D-03 -0.75320301D-07 -0.59794779D-07
 -0.27789764D-04 -0.47136699D-04 -0.53663466D-04  0.76984611D-04 -0.27775235D-04
 -0.47112056D-04 -0.53635411D-04  0.76858511D-04 -0.14306454D-04 -0.24266454D-04
 -0.27626500D-04 -0.50036891D-04
MO    5     MO 0.0        OCC NO =    1.0000000  ORB. ENERGY =  -10.397144
 -0.23184553D-02 -0.42770974D-02 -0.69045614D-02 -0.89876874D-02 -0.76692099D-02
 -0.26479939D-02  0.10637445D-03  0.49027888D-04 -0.13747931D-03 -0.90404823D-04
 -0.69316684D-04 -0.34593883D-04  0.18065679D-03  0.13851617D-03  0.69129275D-04
 -0.35009878D-08 -0.26843354D-08 -0.13396715D-08 -0.29082408D-03 -0.12609123D-03
  0.26630025D-04 -0.15021755D-07 -0.20286048D-06 -0.61354823D-04  0.27747409D-04
 -0.96928049D-05 -0.34990946D-08 -0.35940265D-08 -0.14866681D-03 -0.27426123D-03
 -0.44274267D-03 -0.57631941D-03 -0.49177439D-03 -0.16979788D-03  0.67994479D-04
  0.31338593D-04 -0.87876686D-04 -0.22372745D-04 -0.17154002D-04 -0.85610491D-05
  0.55409027D-04  0.42484128D-04  0.21202557D-04 -0.41143837D-08 -0.31546485D-08
 -0.15743907D-08  0.31107694D-03  0.52983715D-04 -0.16736830D-03  0.79932211D-08
  0.14360475D-04  0.17651308D-04 -0.62866603D-04  0.43510996D-04  0.16885516D-07
  0.38715775D-08  0.15245588D-03  0.28125133D-03  0.45402684D-03  0.59100805D-03
  0.50430824D-03  0.17412552D-03 -0.72579046D-05 -0.33451616D-05  0.93801822D-05
  0.41501770D-04  0.31820925D-04  0.15880872D-04  0.41232844D-04  0.31614729D-04
  0.15777966D-04  0.10283927D-07  0.78850632D-08  0.39351991D-08 -0.47472243D-03
  0.10353503D-03  0.14286914D-03  0.44925976D-08  0.35545346D-04  0.97288352D-04
 -0.34522710D-05 -0.60871190D-04  0.52541266D-08 -0.78786251D-08 -0.18830565D-02
 -0.34738716D-02 -0.56079058D-02 -0.72998271D-02 -0.62289557D-02 -0.21507087D-02
  0.30093606D-03  0.13870115D-03 -0.38893251D-03  0.34908188D-03  0.26765385D-03
  0.13357803D-03  0.35916520D-03  0.27538509D-03  0.13743646D-03  0.38014790D-07
  0.29147330D-07  0.14546560D-07  0.14446235D-02 -0.54663577D-03 -0.16653603D-03
 -0.54676992D-07 -0.36026164D-03 -0.45211909D-03 -0.19170362D-03 -0.24562568D-03
 -0.37274691D-07 -0.30589226D-07  0.50614174D+00  0.93373269D+00  0.15073341D+01
  0.19621011D+01  0.16742644D+01  0.57808327D+00 -0.18967845D-01 -0.87422623D-02