 Entering Link 1 = D:\Gaussian\G16W\l1.exe PID=     43800.
  
 Copyright (c) 1988,1990,1992,1993,1995,1998,2003,2009,2016,
            Gaussian, Inc.  All Rights Reserved.
  
 This is part of the Gaussian(R) 16 program.  It is based on
 the Gaussian(R) 09 system (copyright 2009, Gaussian, Inc.),
 the Gaussian(R) 03 system (copyright 2003, Gaussian, Inc.),
 the Gaussian(R) 98 system (copyright 1998, Gaussian, Inc.),
 the Gaussian(R) 94 system (copyright 1995, Gaussian, Inc.),
 the Gaussian 92(TM) system (copyright 1992, Gaussian, Inc.),
 the Gaussian 90(TM) system (copyright 1990, Gaussian, Inc.),
 the Gaussian 88(TM) system (copyright 1988, Gaussian, Inc.),
 the Gaussian 86(TM) system (copyright 1986, Carnegie Mellon
 University), and the Gaussian 82(TM) system (copyright 1983,
 Carnegie Mellon University). Gaussian is a federally registered
 trademark of Gaussian, Inc.
  
 This software contains proprietary and confidential information,
 including trade secrets, belonging to Gaussian, Inc.
  
 This software is provided under written license and may be
 used, copied, transmitted, or stored only in accord with that
 written license.
  
 The following legend is applicable only to US Government
 contracts under FAR:
  
                    RESTRICTED RIGHTS LEGEND
  
 Use, reproduction and disclosure by the US Government is
 subject to restrictions as set forth in subparagraphs (a)
 and (c) of the Commercial Computer Software - Restricted
 Rights clause in FAR 52.227-19.
  
 Gaussian, Inc.
 340 Quinnipiac St., Bldg. 40, Wallingford CT 06492
  
  
 ---------------------------------------------------------------
 Warning -- This program may not be used in any manner that
 competes with the business of Gaussian, Inc. or will provide
 assistance to any competitor of Gaussian, Inc.  The licensee
 of this program is prohibited from giving any competitor of
 Gaussian, Inc. access to this program.  By using this program,
 the user acknowledges that Gaussian, Inc. is engaged in the
 business of creating and licensing software in the field of
 computational chemistry and represents and warrants to the
 licensee that it is not a competitor of Gaussian, Inc. and that
 it will not use this program in any manner prohibited above.
 ---------------------------------------------------------------
  

 Cite this work as:
 Gaussian 16, Revision A.03,
 M. J. Frisch, G. W. Trucks, H. B. Schlegel, G. E. Scuseria, 
 M. A. Robb, J. R. Cheeseman, G. Scalmani, V. Barone, 
 G. A. Petersson, H. Nakatsuji, X. Li, M. Caricato, A. V. Marenich, 
 J. Bloino, B. G. Janesko, R. Gomperts, B. Mennucci, H. P. Hratchian, 
 J. V. Ortiz, A. F. Izmaylov, J. L. Sonnenberg, D. Williams-Young, 
 F. Ding, F. Lipparini, F. Egidi, J. Goings, B. Peng, A. Petrone, 
 T. Henderson, D. Ranasinghe, V. G. Zakrzewski, J. Gao, N. Rega, 
 G. Zheng, W. Liang, M. Hada, M. Ehara, K. Toyota, R. Fukuda, 
 J. Hasegawa, M. Ishida, T. Nakajima, Y. Honda, O. Kitao, H. Nakai, 
 T. Vreven, K. Throssell, J. A. Montgomery, Jr., J. E. Peralta, 
 F. Ogliaro, M. J. Bearpark, J. J. Heyd, E. N. Brothers, K. N. Kudin, 
 V. N. Staroverov, T. A. Keith, R. Kobayashi, J. Normand, 
 K. Raghavachari, A. P. Rendell, J. C. Burant, S. S. Iyengar, 
 J. Tomasi, M. Cossi, J. M. Millam, M. Klene, C. Adamo, R. Cammi, 
 J. W. Ochterski, R. L. Martin, K. Morokuma, O. Farkas, 
 J. B. Foresman, and D. J. Fox, Gaussian, Inc., Wallingford CT, 2016.
 
 ******************************************
 Gaussian 16:  EM64W-G16RevA.03 17-Dec-2016
                03-Dec-2025 
 ******************************************
 %nprocs=   4
 Will use up to    4 processors via shared memory.
 ------------------------------------
 #P B3LYP/6-31G* SCF=conver=7 out=wfn
 ------------------------------------
 1/38=1,172=1/1;
 2/12=2,17=6,18=5,40=1/2;
 3/5=1,6=6,7=1,11=2,25=1,30=1,74=-5/1,2,3;
 4//1;
 5/5=2,6=7,38=5/2;
 6/7=2,8=2,9=2,10=2,28=1/1;
 99/5=1,6=100,9=1/99;
 Leave Link    1 at Wed Dec 03 16:30:59 2025, MaxMem=           0 cpu:               0.0 elap:               0.1
 (Enter D:\Gaussian\G16W\l101.exe)
 ----------------------------------------------------
 Generated by Multiwfn (http://sobereva.com/multiwfn)
 ----------------------------------------------------
 Symbolic Z-matrix:
 Charge =  1 Multiplicity = 2
 C                    -1.60571   0.058    -0.00016 
 C                    -0.60984   1.0436   -0.00006 
 C                     0.7501    0.74459   0.00007 
 C                     1.12299  -0.60946   0.0001 
 C                     0.15539  -1.60917  -0.00001 
 C                    -1.19831  -1.27447  -0.00014 
 H                     0.45772  -2.65304  0. 
 O                     2.46726  -0.88264   0.00024 
 H                    -1.94024  -2.06621  -0.00022 
 H                     2.59309  -1.83679   0.00019 
 C                    -3.06771   0.43798  -0.00028 
 H                    -3.32683   1.03396   0.88073 
 H                    -3.32659   1.03432  -0.8811 
 H                    -3.7065   -0.4477   -0.00054 
 H                    -0.90404   2.08993  -0.0001 
 C                     1.80963   1.81535   0.00021 
 H                     2.45813   1.72956   0.87734 
 H                     2.45892   1.72901  -0.87628 
 H                     1.359     2.80959  -0.00028 
 
 ITRead=  0  0  0  0  0  0  0  0  0  0  0  0  0  0  0  0  0  0  0
 MicOpt= -1 -1 -1 -1 -1 -1 -1 -1 -1 -1 -1 -1 -1 -1 -1 -1 -1 -1 -1
 NAtoms=     19 NQM=       19 NQMF=       0 NMMI=      0 NMMIF=      0
                NMic=       0 NMicF=      0.
                    Isotopes and Nuclear Properties:
 (Nuclear quadrupole moments (NQMom) in fm**2, nuclear magnetic moments (NMagM)
  in nuclear magnetons)

  Atom         1           2           3           4           5           6           7           8           9          10
 IAtWgt=          12          12          12          12          12          12           1          16           1           1
 AtmWgt=  12.0000000  12.0000000  12.0000000  12.0000000  12.0000000  12.0000000   1.0078250  15.9949146   1.0078250   1.0078250
 NucSpn=           0           0           0           0           0           0           1           0           1           1
 AtZEff=   0.0000000   0.0000000   0.0000000   0.0000000   0.0000000   0.0000000   0.0000000   0.0000000   0.0000000   0.0000000
 NQMom=    0.0000000   0.0000000   0.0000000   0.0000000   0.0000000   0.0000000   0.0000000   0.0000000   0.0000000   0.0000000
 NMagM=    0.0000000   0.0000000   0.0000000   0.0000000   0.0000000   0.0000000   2.7928460   0.0000000   2.7928460   2.7928460
 AtZNuc=   6.0000000   6.0000000   6.0000000   6.0000000   6.0000000   6.0000000   1.0000000   8.0000000   1.0000000   1.0000000

  Atom        11          12          13          14          15          16          17          18          19
 IAtWgt=          12           1           1           1           1          12           1           1           1
 AtmWgt=  12.0000000   1.0078250   1.0078250   1.0078250   1.0078250  12.0000000   1.0078250   1.0078250   1.0078250
 NucSpn=           0           1           1           1           1           0           1           1           1
 AtZEff=   0.0000000   0.0000000   0.0000000   0.0000000   0.0000000   0.0000000   0.0000000   0.0000000   0.0000000
 NQMom=    0.0000000   0.0000000   0.0000000   0.0000000   0.0000000   0.0000000   0.0000000   0.0000000   0.0000000
 NMagM=    0.0000000   2.7928460   2.7928460   2.7928460   2.7928460   0.0000000   2.7928460   2.7928460   2.7928460
 AtZNuc=   6.0000000   1.0000000   1.0000000   1.0000000   1.0000000   6.0000000   1.0000000   1.0000000   1.0000000
 Leave Link  101 at Wed Dec 03 16:30:59 2025, MaxMem=   104857600 cpu:               0.0 elap:               0.1
 (Enter D:\Gaussian\G16W\l202.exe)
                          Input orientation:                          
 ---------------------------------------------------------------------
 Center     Atomic      Atomic             Coordinates (Angstroms)
 Number     Number       Type             X           Y           Z
 ---------------------------------------------------------------------
      1          6           0       -1.605709    0.058001   -0.000159
      2          6           0       -0.609836    1.043604   -0.000061
      3          6           0        0.750100    0.744594    0.000068
      4          6           0        1.122993   -0.609461    0.000096
      5          6           0        0.155387   -1.609174   -0.000012
      6          6           0       -1.198311   -1.274466   -0.000135
      7          1           0        0.457722   -2.653044   -0.000002
      8          8           0        2.467256   -0.882643    0.000238
      9          1           0       -1.940235   -2.066207   -0.000219
     10          1           0        2.593085   -1.836794    0.000187
     11          6           0       -3.067708    0.437977   -0.000275
     12          1           0       -3.326827    1.033957    0.880732
     13          1           0       -3.326594    1.034318   -0.881104
     14          1           0       -3.706495   -0.447702   -0.000538
     15          1           0       -0.904039    2.089928   -0.000102
     16          6           0        1.809631    1.815347    0.000205
     17          1           0        2.458134    1.729558    0.877343
     18          1           0        2.458923    1.729008   -0.876281
     19          1           0        1.358995    2.809593   -0.000283
 ---------------------------------------------------------------------
                    Distance matrix (angstroms):
                    1          2          3          4          5
     1  C    0.000000
     2  C    1.401134   0.000000
     3  C    2.453823   1.392420   0.000000
     4  C    2.809149   2.394853   1.404462   0.000000
     5  C    2.425063   2.760941   2.427737   1.391290   0.000000
     6  C    1.393356   2.391600   2.805870   2.414681   1.394463
     7  H    3.406980   3.847712   3.410195   2.149143   1.086771
     8  O    4.180174   3.630279   2.365698   1.371740   2.423342
     9  H    2.150388   3.382438   3.890823   3.391972   2.144880
    10  H    4.606530   4.307597   3.171775   1.915076   2.448302
    11  C    1.510570   2.531387   3.830101   4.319618   3.818268
    12  H    2.165804   2.856209   4.180985   4.824649   4.459559
    13  H    2.165803   2.856063   4.180890   4.824660   4.459660
    14  H    2.160796   3.437047   4.613330   4.832196   4.032760
    15  H    2.149667   1.086899   2.132158   3.375731   3.847823
    16  C    3.840939   2.539568   1.506359   2.520152   3.803139
    17  H    4.480952   3.263864   2.158042   2.832521   4.149642
    18  H    4.481193   3.264172   2.158040   2.832169   4.149408
    19  H    4.044840   2.644809   2.152899   3.427189   4.579757
                    6          7          8          9         10
     6  C    0.000000
     7  H    2.154744   0.000000
     8  O    3.686449   2.678161   0.000000
     9  H    1.085037   2.468719   4.563639   0.000000
    10  H    3.832871   2.286053   0.962412   4.539121   0.000000
    11  C    2.535174   4.688610   5.690331   2.746294   6.100751
    12  H    3.261184   5.356536   6.166038   3.508522   6.637916
    13  H    3.261315   5.356681   6.166052   3.508733   6.637963
    14  H    2.640933   4.712137   6.189053   2.395670   6.450914
    15  H    3.377239   4.934590   4.494642   4.283359   5.258234
    16  C    4.312153   4.668423   2.776980   5.397032   3.735229
    17  H    4.812870   4.896793   2.755538   5.875678   3.675116
    18  H    4.812884   4.896432   2.754828   5.875690   3.674390
    19  H    4.818646   5.536488   3.854977   5.887134   4.807483
                   11         12         13         14         15
    11  C    0.000000
    12  H    1.094764   0.000000
    13  H    1.094762   1.761836   0.000000
    14  H    1.092006   1.765247   1.765249   0.000000
    15  H    2.722206   2.785829   2.785543   3.780652   0.000000
    16  C    5.068095   5.269639   5.269489   5.962301   2.727526
    17  H    5.742240   5.826632   6.085932   6.596498   3.493420
    18  H    5.742630   6.086468   5.827077   6.596770   3.493918
    19  H    5.021978   5.087828   5.087454   6.022388   2.374709
                   16         17         18         19
    16  C    0.000000
    17  H    1.094206   0.000000
    18  H    1.094195   1.753624   0.000000
    19  H    1.091603   1.773361   1.773380   0.000000
 Stoichiometry    C8H10O(1+,2)
 Framework group  C1[X(C8H10O)]
 Deg. of freedom    51
 Full point group                 C1      NOp   1
 Largest Abelian subgroup         C1      NOp   1
 Largest concise Abelian subgroup C1      NOp   1
                         Standard orientation:                         
 ---------------------------------------------------------------------
 Center     Atomic      Atomic             Coordinates (Angstroms)
 Number     Number       Type             X           Y           Z
 ---------------------------------------------------------------------
      1          6           0       -1.605709    0.058001   -0.000159
      2          6           0       -0.609836    1.043604   -0.000061
      3          6           0        0.750100    0.744594    0.000068
      4          6           0        1.122993   -0.609461    0.000096
      5          6           0        0.155387   -1.609174   -0.000012
      6          6           0       -1.198311   -1.274466   -0.000135
      7          1           0        0.457722   -2.653044   -0.000002
      8          8           0        2.467256   -0.882643    0.000238
      9          1           0       -1.940235   -2.066207   -0.000219
     10          1           0        2.593085   -1.836794    0.000187
     11          6           0       -3.067708    0.437977   -0.000275
     12          1           0       -3.326827    1.033957    0.880732
     13          1           0       -3.326594    1.034318   -0.881104
     14          1           0       -3.706495   -0.447703   -0.000538
     15          1           0       -0.904039    2.089928   -0.000102
     16          6           0        1.809631    1.815347    0.000205
     17          1           0        2.458134    1.729558    0.877343
     18          1           0        2.458923    1.729008   -0.876281
     19          1           0        1.358995    2.809593   -0.000283
 ---------------------------------------------------------------------
 Rotational constants (GHZ):           3.0152298           1.2983664           0.9178306
 Leave Link  202 at Wed Dec 03 16:30:59 2025, MaxMem=   104857600 cpu:               0.0 elap:               0.0
 (Enter D:\Gaussian\G16W\l301.exe)
 Standard basis: 6-31G(d) (6D, 7F)
 Ernie: Thresh=  0.10000D-02 Tol=  0.10000D-05 Strict=F.
 There are   155 symmetry adapted cartesian basis functions of A   symmetry.
 There are   155 symmetry adapted basis functions of A   symmetry.
   155 basis functions,   292 primitive gaussians,   155 cartesian basis functions
    33 alpha electrons       32 beta electrons
       nuclear repulsion energy       425.3452322629 Hartrees.
 IExCor=  402 DFT=T Ex+Corr=B3LYP ExCW=0 ScaHFX=  0.200000
 ScaDFX=  0.800000  0.720000  1.000000  0.810000 ScalE2=  1.000000  1.000000
 IRadAn=      5 IRanWt=     -1 IRanGd=            0 ICorTp=0 IEmpDi=  4
 NAtoms=   19 NActive=   19 NUniq=   19 SFac= 1.00D+00 NAtFMM=   60 NAOKFM=F Big=F
 Integral buffers will be    131072 words long.
 Raffenetti 2 integral format.
 Two-electron integral symmetry is turned on.
 Leave Link  301 at Wed Dec 03 16:30:59 2025, MaxMem=   104857600 cpu:               0.0 elap:               0.1
 (Enter D:\Gaussian\G16W\l302.exe)
 NPDir=0 NMtPBC=     1 NCelOv=     1 NCel=       1 NClECP=     1 NCelD=      1
         NCelK=      1 NCelE2=     1 NClLst=     1 CellRange=     0.0.
 One-electron integrals computed using PRISM.
 One-electron integral symmetry used in STVInt
 NBasis=   155 RedAO= T EigKep=  3.79D-04  NBF=   155
 NBsUse=   155 1.00D-06 EigRej= -1.00D+00 NBFU=   155
 Precomputing XC quadrature grid using
 IXCGrd= 4 IRadAn=           5 IRanWt=          -1 IRanGd=           0 AccXCQ= 0.00D+00.
 Generated NRdTot=       0 NPtTot=           0 NUsed=           0 NTot=          32
 NSgBfM=   155   155   155   155   155 MxSgAt=    19 MxSgA2=    19.
 Leave Link  302 at Wed Dec 03 16:30:59 2025, MaxMem=   104857600 cpu:               0.0 elap:               0.3
 (Enter D:\Gaussian\G16W\l303.exe)
 DipDrv:  MaxL=1.
 Leave Link  303 at Wed Dec 03 16:30:59 2025, MaxMem=   104857600 cpu:               0.0 elap:               0.1
 (Enter D:\Gaussian\G16W\l401.exe)
 ExpMin= 1.61D-01 ExpMax= 5.48D+03 ExpMxC= 8.25D+02 IAcc=3 IRadAn=         5 AccDes= 0.00D+00
 Harris functional with IExCor=  402 and IRadAn=       5 diagonalized for initial guess.
 HarFok:  IExCor=  402 AccDes= 0.00D+00 IRadAn=         5 IDoV= 1 UseB2=F ITyADJ=14
 ICtDFT=  3500011 ScaDFX=  1.000000  1.000000  1.000000  1.000000
 FoFCou: FMM=F IPFlag=           0 FMFlag=      100000 FMFlg1=           0
         NFxFlg=           0 DoJE=T BraDBF=F KetDBF=T FulRan=T
         wScrn=  0.000000 ICntrl=       500 IOpCl=  0 I1Cent=   200000004 NGrid=           0
         NMat0=    1 NMatS0=      1 NMatT0=    0 NMatD0=    1 NMtDS0=    0 NMtDT0=    0
 Petite list used in FoFCou.
 Harris En= -385.854005407879    
 JPrj=0 DoOrth=F DoCkMO=F.
 Initial guess <Sx>= 0.0000 <Sy>= 0.0000 <Sz>= 0.5000 <S**2>= 0.7500 S= 0.5000
 Leave Link  401 at Wed Dec 03 16:31:01 2025, MaxMem=   104857600 cpu:               2.0 elap:               1.1
 (Enter D:\Gaussian\G16W\l502.exe)
 Integral symmetry usage will be decided dynamically.
 UHF open shell SCF:
 Using DIIS extrapolation, IDIIS=  1040.
 NGot=   104857600 LenX=   104806718 LenY=   104782252
 Requested convergence on RMS density matrix=1.00D-07 within 128 cycles.
 Requested convergence on MAX density matrix=1.00D-05.
 Requested convergence on             energy=1.00D-05.
 No special actions if energy rises.
 Fock matrices will be formed incrementally for  20 cycles.
 Integral accuracy reduced to 1.0D-05 until final iterations.

 Cycle   1  Pass 0  IDiag  1:
 FoFJK:  IHMeth= 1 ICntrl=       0 DoSepK=F KAlg= 0 I1Cent=           0 FoldK=F
 IRaf= 950000000 NMat=       1 IRICut=       1 DoRegI=T DoRafI=F ISym2E= 0 IDoP0=0 IntGTp=1.
 FoFCou: FMM=F IPFlag=           0 FMFlag=      100000 FMFlg1=           0
         NFxFlg=           0 DoJE=F BraDBF=F KetDBF=F FulRan=T
         wScrn=  0.000000 ICntrl=         0 IOpCl=  1 I1Cent=           0 NGrid=           0
         NMat0=    1 NMatS0=      1 NMatT0=    0 NMatD0=    1 NMtDS0=    0 NMtDT0=    0
 Symmetry not used in FoFCou.
 E= -385.631241794952    
 DIIS: error= 4.30D-02 at cycle   1 NSaved=   1.
 NSaved= 1 IEnMin= 1 EnMin= -385.631241794952     IErMin= 1 ErrMin= 4.30D-02
 ErrMax= 4.30D-02  0.00D+00 EMaxC= 1.00D-01 BMatC= 7.39D-01 BMatP= 7.39D-01
 IDIUse=3 WtCom= 5.70D-01 WtEn= 4.30D-01
 Coeff-Com:  0.100D+01
 Coeff-En:   0.100D+01
 Coeff:      0.100D+01
 Gap=     0.264 Goal=   None    Shift=    0.000
 Gap=     0.040 Goal=   None    Shift=    0.000
 GapD=    0.040 DampG=0.250 DampE=0.500 DampFc=0.2500 IDamp=-1.
 Damping current iteration by 2.50D-01
 RMSDP=5.63D-03 MaxDP=1.25D-01              OVMax= 2.70D-01

 Cycle   2  Pass 0  IDiag  1:
 RMSU=  1.37D-03    CP:  9.88D-01
 E= -385.697928289282     Delta-E=       -0.066686494330 Rises=F Damp=T
 DIIS: error= 2.12D-02 at cycle   2 NSaved=   2.
 NSaved= 2 IEnMin= 2 EnMin= -385.697928289282     IErMin= 2 ErrMin= 2.12D-02
 ErrMax= 2.12D-02  0.00D+00 EMaxC= 1.00D-01 BMatC= 2.07D-01 BMatP= 7.39D-01
 IDIUse=3 WtCom= 7.88D-01 WtEn= 2.12D-01
 Coeff-Com: -0.903D+00 0.190D+01
 Coeff-En:   0.000D+00 0.100D+01
 Coeff:     -0.712D+00 0.171D+01
 Gap=     0.243 Goal=   None    Shift=    0.000
 Gap=     0.072 Goal=   None    Shift=    0.000
 RMSDP=2.53D-03 MaxDP=4.56D-02 DE=-6.67D-02 OVMax= 2.35D-01

 Cycle   3  Pass 0  IDiag  1:
 RMSU=  1.90D-03    CP:  9.62D-01  2.12D+00
 E= -385.803888740694     Delta-E=       -0.105960451412 Rises=F Damp=F
 DIIS: error= 1.28D-02 at cycle   3 NSaved=   3.
 NSaved= 3 IEnMin= 3 EnMin= -385.803888740694     IErMin= 3 ErrMin= 1.28D-02
 ErrMax= 1.28D-02  0.00D+00 EMaxC= 1.00D-01 BMatC= 5.07D-02 BMatP= 2.07D-01
 IDIUse=3 WtCom= 8.72D-01 WtEn= 1.28D-01
 Coeff-Com: -0.434D+00 0.929D+00 0.505D+00
 Coeff-En:   0.000D+00 0.000D+00 0.100D+01
 Coeff:     -0.379D+00 0.811D+00 0.568D+00
 Gap=     0.240 Goal=   None    Shift=    0.000
 Gap=     0.073 Goal=   None    Shift=    0.000
 RMSDP=1.25D-03 MaxDP=3.39D-02 DE=-1.06D-01 OVMax= 1.23D-01

 Cycle   4  Pass 0  IDiag  1:
 RMSU=  9.44D-04    CP:  9.65D-01  2.21D+00  5.78D-01
 E= -385.810412127573     Delta-E=       -0.006523386878 Rises=F Damp=F
 DIIS: error= 1.00D-02 at cycle   4 NSaved=   4.
 NSaved= 4 IEnMin= 4 EnMin= -385.810412127573     IErMin= 4 ErrMin= 1.00D-02
 ErrMax= 1.00D-02  0.00D+00 EMaxC= 1.00D-01 BMatC= 2.79D-02 BMatP= 5.07D-02
 IDIUse=3 WtCom= 9.00D-01 WtEn= 1.00D-01
 Coeff-Com: -0.462D-01 0.122D+00 0.414D+00 0.510D+00
 Coeff-En:   0.000D+00 0.000D+00 0.387D+00 0.613D+00
 Coeff:     -0.416D-01 0.110D+00 0.411D+00 0.521D+00
 Gap=     0.234 Goal=   None    Shift=    0.000
 Gap=     0.077 Goal=   None    Shift=    0.000
 RMSDP=5.90D-04 MaxDP=1.52D-02 DE=-6.52D-03 OVMax= 6.37D-02

 Cycle   5  Pass 0  IDiag  1:
 RMSU=  2.10D-04    CP:  9.64D-01  2.11D+00  7.52D-01  5.52D-01
 E= -385.818102039063     Delta-E=       -0.007689911490 Rises=F Damp=F
 DIIS: error= 1.61D-03 at cycle   5 NSaved=   5.
 NSaved= 5 IEnMin= 5 EnMin= -385.818102039063     IErMin= 5 ErrMin= 1.61D-03
 ErrMax= 1.61D-03  0.00D+00 EMaxC= 1.00D-01 BMatC= 1.34D-03 BMatP= 2.79D-02
 IDIUse=3 WtCom= 9.84D-01 WtEn= 1.61D-02
 Coeff-Com:  0.499D-02 0.366D-02 0.199D+00 0.302D+00 0.490D+00
 Coeff-En:   0.000D+00 0.000D+00 0.000D+00 0.000D+00 0.100D+01
 Coeff:      0.491D-02 0.360D-02 0.196D+00 0.297D+00 0.499D+00
 Gap=     0.234 Goal=   None    Shift=    0.000
 Gap=     0.078 Goal=   None    Shift=    0.000
 RMSDP=1.40D-04 MaxDP=5.43D-03 DE=-7.69D-03 OVMax= 9.55D-03

 Cycle   6  Pass 0  IDiag  1:
 RMSU=  9.59D-05    CP:  9.64D-01  2.12D+00  7.41D-01  5.84D-01  5.59D-01
 E= -385.818411546524     Delta-E=       -0.000309507461 Rises=F Damp=F
 DIIS: error= 6.73D-04 at cycle   6 NSaved=   6.
 NSaved= 6 IEnMin= 6 EnMin= -385.818411546524     IErMin= 6 ErrMin= 6.73D-04
 ErrMax= 6.73D-04  0.00D+00 EMaxC= 1.00D-01 BMatC= 1.48D-04 BMatP= 1.34D-03
 IDIUse=3 WtCom= 9.93D-01 WtEn= 6.73D-03
 Coeff-Com:  0.654D-02-0.102D-01 0.584D-01 0.998D-01 0.284D+00 0.561D+00
 Coeff-En:   0.000D+00 0.000D+00 0.000D+00 0.000D+00 0.613D-02 0.994D+00
 Coeff:      0.650D-02-0.101D-01 0.580D-01 0.991D-01 0.282D+00 0.564D+00
 Gap=     0.234 Goal=   None    Shift=    0.000
 Gap=     0.079 Goal=   None    Shift=    0.000
 RMSDP=4.70D-05 MaxDP=2.19D-03 DE=-3.10D-04 OVMax= 3.74D-03

 Cycle   7  Pass 0  IDiag  1:
 RMSU=  3.91D-05    CP:  9.64D-01  2.12D+00  7.46D-01  5.87D-01  6.38D-01
                    CP:  8.22D-01
 E= -385.818444992110     Delta-E=       -0.000033445586 Rises=F Damp=F
 DIIS: error= 2.63D-04 at cycle   7 NSaved=   7.
 NSaved= 7 IEnMin= 7 EnMin= -385.818444992110     IErMin= 7 ErrMin= 2.63D-04
 ErrMax= 2.63D-04  0.00D+00 EMaxC= 1.00D-01 BMatC= 2.38D-05 BMatP= 1.48D-04
 IDIUse=3 WtCom= 9.97D-01 WtEn= 2.63D-03
 Coeff-Com:  0.280D-02-0.634D-02-0.664D-02-0.440D-02 0.644D-01 0.314D+00
 Coeff-Com:  0.636D+00
 Coeff-En:   0.000D+00 0.000D+00 0.000D+00 0.000D+00 0.000D+00 0.000D+00
 Coeff-En:   0.100D+01
 Coeff:      0.279D-02-0.633D-02-0.663D-02-0.439D-02 0.643D-01 0.313D+00
 Coeff:      0.637D+00
 Gap=     0.234 Goal=   None    Shift=    0.000
 Gap=     0.079 Goal=   None    Shift=    0.000
 RMSDP=2.51D-05 MaxDP=9.24D-04 DE=-3.34D-05 OVMax= 3.85D-03

 Cycle   8  Pass 0  IDiag  1:
 RMSU=  2.05D-05    CP:  9.64D-01  2.13D+00  7.47D-01  5.92D-01  6.87D-01
                    CP:  9.08D-01  9.37D-01
 E= -385.818454854498     Delta-E=       -0.000009862388 Rises=F Damp=F
 DIIS: error= 1.03D-04 at cycle   8 NSaved=   8.
 NSaved= 8 IEnMin= 8 EnMin= -385.818454854498     IErMin= 8 ErrMin= 1.03D-04
 ErrMax= 1.03D-04  0.00D+00 EMaxC= 1.00D-01 BMatC= 3.26D-06 BMatP= 2.38D-05
 IDIUse=3 WtCom= 9.99D-01 WtEn= 1.03D-03
 Coeff-Com: -0.135D-02 0.181D-02-0.148D-01-0.250D-01-0.643D-01-0.906D-01
 Coeff-Com:  0.144D+00 0.105D+01
 Coeff-En:   0.000D+00 0.000D+00 0.000D+00 0.000D+00 0.000D+00 0.000D+00
 Coeff-En:   0.000D+00 0.100D+01
 Coeff:     -0.135D-02 0.180D-02-0.148D-01-0.250D-01-0.643D-01-0.906D-01
 Coeff:      0.144D+00 0.105D+01
 Gap=     0.234 Goal=   None    Shift=    0.000
 Gap=     0.080 Goal=   None    Shift=    0.000
 RMSDP=2.15D-05 MaxDP=8.24D-04 DE=-9.86D-06 OVMax= 3.75D-03

 Cycle   9  Pass 0  IDiag  1:
 RMSU=  8.24D-06    CP:  9.64D-01  2.13D+00  7.48D-01  5.94D-01  7.12D-01
                    CP:  9.92D-01  1.28D+00  1.53D+00
 E= -385.818458983707     Delta-E=       -0.000004129208 Rises=F Damp=F
 DIIS: error= 7.96D-05 at cycle   9 NSaved=   9.
 NSaved= 9 IEnMin= 9 EnMin= -385.818458983707     IErMin= 9 ErrMin= 7.96D-05
 ErrMax= 7.96D-05  0.00D+00 EMaxC= 1.00D-01 BMatC= 8.36D-07 BMatP= 3.26D-06
 IDIUse=1 WtCom= 1.00D+00 WtEn= 0.00D+00
 Coeff-Com: -0.814D-03 0.142D-02-0.515D-02-0.965D-02-0.374D-01-0.735D-01
 Coeff-Com: -0.104D-01 0.427D+00 0.709D+00
 Coeff:     -0.814D-03 0.142D-02-0.515D-02-0.965D-02-0.374D-01-0.735D-01
 Coeff:     -0.104D-01 0.427D+00 0.709D+00
 Gap=     0.234 Goal=   None    Shift=    0.000
 Gap=     0.080 Goal=   None    Shift=    0.000
 RMSDP=1.10D-05 MaxDP=5.20D-04 DE=-4.13D-06 OVMax= 2.48D-03

 Cycle  10  Pass 0  IDiag  1:
 RMSU=  6.36D-06    CP:  9.64D-01  2.13D+00  7.48D-01  5.94D-01  7.22D-01
                    CP:  1.03D+00  1.40D+00  1.81D+00  1.09D+00
 E= -385.818460123748     Delta-E=       -0.000001140041 Rises=F Damp=F
 DIIS: error= 6.54D-05 at cycle  10 NSaved=  10.
 NSaved=10 IEnMin=10 EnMin= -385.818460123748     IErMin=10 ErrMin= 6.54D-05
 ErrMax= 6.54D-05  0.00D+00 EMaxC= 1.00D-01 BMatC= 8.24D-07 BMatP= 8.36D-07
 IDIUse=1 WtCom= 1.00D+00 WtEn= 0.00D+00
 Coeff-Com:  0.464D-03-0.538D-03 0.533D-02 0.871D-02 0.166D-01 0.293D-01
 Coeff-Com: -0.652D-01-0.475D+00 0.532D+00 0.948D+00
 Coeff:      0.464D-03-0.538D-03 0.533D-02 0.871D-02 0.166D-01 0.293D-01
 Coeff:     -0.652D-01-0.475D+00 0.532D+00 0.948D+00
 Gap=     0.234 Goal=   None    Shift=    0.000
 Gap=     0.080 Goal=   None    Shift=    0.000
 RMSDP=1.24D-05 MaxDP=4.52D-04 DE=-1.14D-06 OVMax= 2.56D-03

 Cycle  11  Pass 0  IDiag  1:
 RMSU=  2.41D-06    CP:  9.64D-01  2.13D+00  7.48D-01  5.95D-01  7.32D-01
                    CP:  1.07D+00  1.54D+00  2.18D+00  1.78D+00  1.48D+00
 E= -385.818461114513     Delta-E=       -0.000000990764 Rises=F Damp=F
 DIIS: error= 2.44D-05 at cycle  11 NSaved=  11.
 NSaved=11 IEnMin=11 EnMin= -385.818461114513     IErMin=11 ErrMin= 2.44D-05
 ErrMax= 2.44D-05  0.00D+00 EMaxC= 1.00D-01 BMatC= 1.28D-07 BMatP= 8.24D-07
 IDIUse=1 WtCom= 1.00D+00 WtEn= 0.00D+00
 Coeff-Com:  0.385D-03-0.556D-03 0.328D-02 0.554D-02 0.158D-01 0.337D-01
 Coeff-Com: -0.128D-01-0.311D+00 0.133D+00 0.114D+00 0.102D+01
 Coeff:      0.385D-03-0.556D-03 0.328D-02 0.554D-02 0.158D-01 0.337D-01
 Coeff:     -0.128D-01-0.311D+00 0.133D+00 0.114D+00 0.102D+01
 Gap=     0.234 Goal=   None    Shift=    0.000
 Gap=     0.080 Goal=   None    Shift=    0.000
 RMSDP=7.10D-06 MaxDP=2.68D-04 DE=-9.91D-07 OVMax= 1.58D-03

 Initial convergence to 1.0D-05 achieved.  Increase integral accuracy.
 Cycle  12  Pass 1  IDiag  1:
 E= -385.818442865040     Delta-E=        0.000018249473 Rises=F Damp=F
 DIIS: error= 1.48D-05 at cycle   1 NSaved=   1.
 NSaved= 1 IEnMin= 1 EnMin= -385.818442865040     IErMin= 1 ErrMin= 1.48D-05
 ErrMax= 1.48D-05  0.00D+00 EMaxC= 1.00D-01 BMatC= 1.66D-07 BMatP= 1.66D-07
 IDIUse=1 WtCom= 1.00D+00 WtEn= 0.00D+00
 Coeff-Com:  0.100D+01
 Coeff:      0.100D+01
 Gap=     0.234 Goal=   None    Shift=    0.000
 Gap=     0.080 Goal=   None    Shift=    0.000
 RMSDP=7.10D-06 MaxDP=2.68D-04 DE= 1.82D-05 OVMax= 3.02D-04

 Cycle  13  Pass 1  IDiag  1:
 RMSU=  4.92D-06    CP:  1.00D+00
 E= -385.818442912894     Delta-E=       -0.000000047854 Rises=F Damp=F
 DIIS: error= 1.83D-05 at cycle   2 NSaved=   2.
 NSaved= 2 IEnMin= 2 EnMin= -385.818442912894     IErMin= 1 ErrMin= 1.48D-05
 ErrMax= 1.83D-05  0.00D+00 EMaxC= 1.00D-01 BMatC= 8.72D-08 BMatP= 1.66D-07
 IDIUse=1 WtCom= 1.00D+00 WtEn= 0.00D+00
 Coeff-Com:  0.391D+00 0.609D+00
 Coeff:      0.391D+00 0.609D+00
 Gap=     0.234 Goal=   None    Shift=    0.000
 Gap=     0.080 Goal=   None    Shift=    0.000
 RMSDP=1.88D-06 MaxDP=8.99D-05 DE=-4.79D-08 OVMax= 3.51D-04

 Cycle  14  Pass 1  IDiag  1:
 RMSU=  1.87D-06    CP:  1.00D+00  9.68D-01
 E= -385.818442942477     Delta-E=       -0.000000029583 Rises=F Damp=F
 DIIS: error= 1.32D-05 at cycle   3 NSaved=   3.
 NSaved= 3 IEnMin= 3 EnMin= -385.818442942477     IErMin= 3 ErrMin= 1.32D-05
 ErrMax= 1.32D-05  0.00D+00 EMaxC= 1.00D-01 BMatC= 5.34D-08 BMatP= 8.72D-08
 IDIUse=1 WtCom= 1.00D+00 WtEn= 0.00D+00
 Coeff-Com: -0.229D-01 0.432D+00 0.591D+00
 Coeff:     -0.229D-01 0.432D+00 0.591D+00
 Gap=     0.234 Goal=   None    Shift=    0.000
 Gap=     0.080 Goal=   None    Shift=    0.000
 RMSDP=1.04D-06 MaxDP=3.82D-05 DE=-2.96D-08 OVMax= 1.59D-04

 Cycle  15  Pass 1  IDiag  1:
 RMSU=  8.68D-07    CP:  1.00D+00  1.08D+00  1.07D+00
 E= -385.818442964787     Delta-E=       -0.000000022311 Rises=F Damp=F
 DIIS: error= 5.18D-06 at cycle   4 NSaved=   4.
 NSaved= 4 IEnMin= 4 EnMin= -385.818442964787     IErMin= 4 ErrMin= 5.18D-06
 ErrMax= 5.18D-06  0.00D+00 EMaxC= 1.00D-01 BMatC= 6.44D-09 BMatP= 5.34D-08
 IDIUse=1 WtCom= 1.00D+00 WtEn= 0.00D+00
 Coeff-Com: -0.357D-01 0.134D+00-0.519D-02 0.907D+00
 Coeff:     -0.357D-01 0.134D+00-0.519D-02 0.907D+00
 Gap=     0.234 Goal=   None    Shift=    0.000
 Gap=     0.080 Goal=   None    Shift=    0.000
 RMSDP=8.88D-07 MaxDP=3.73D-05 DE=-2.23D-08 OVMax= 1.95D-04

 Cycle  16  Pass 1  IDiag  1:
 RMSU=  3.99D-07    CP:  1.00D+00  1.15D+00  1.34D+00  1.60D+00
 E= -385.818442973468     Delta-E=       -0.000000008681 Rises=F Damp=F
 DIIS: error= 4.92D-06 at cycle   5 NSaved=   5.
 NSaved= 5 IEnMin= 5 EnMin= -385.818442973468     IErMin= 5 ErrMin= 4.92D-06
 ErrMax= 4.92D-06  0.00D+00 EMaxC= 1.00D-01 BMatC= 7.09D-09 BMatP= 6.44D-09
 IDIUse=1 WtCom= 1.00D+00 WtEn= 0.00D+00
 Coeff-Com: -0.116D-02-0.269D+00-0.840D+00 0.983D+00 0.113D+01
 Coeff:     -0.116D-02-0.269D+00-0.840D+00 0.983D+00 0.113D+01
 Gap=     0.234 Goal=   None    Shift=    0.000
 Gap=     0.080 Goal=   None    Shift=    0.000
 RMSDP=1.71D-06 MaxDP=5.79D-05 DE=-8.68D-09 OVMax= 3.75D-04

 Cycle  17  Pass 1  IDiag  1:
 RMSU=  2.49D-07    CP:  1.00D+00  1.29D+00  1.85D+00  3.00D+00  1.35D+00
 E= -385.818442984378     Delta-E=       -0.000000010910 Rises=F Damp=F
 DIIS: error= 2.55D-06 at cycle   6 NSaved=   6.
 NSaved= 6 IEnMin= 6 EnMin= -385.818442984378     IErMin= 6 ErrMin= 2.55D-06
 ErrMax= 2.55D-06  0.00D+00 EMaxC= 1.00D-01 BMatC= 2.37D-09 BMatP= 6.44D-09
 IDIUse=1 WtCom= 1.00D+00 WtEn= 0.00D+00
 Coeff-Com:  0.998D-02-0.276D+00-0.759D+00 0.600D+00 0.924D+00 0.501D+00
 Coeff:      0.998D-02-0.276D+00-0.759D+00 0.600D+00 0.924D+00 0.501D+00
 Gap=     0.234 Goal=   None    Shift=    0.000
 Gap=     0.080 Goal=   None    Shift=    0.000
 RMSDP=7.33D-07 MaxDP=2.70D-05 DE=-1.09D-08 OVMax= 1.53D-04

 Cycle  18  Pass 1  IDiag  1:
 RMSU=  5.24D-07    CP:  1.00D+00  1.34D+00  2.05D+00  3.00D+00  1.72D+00
                    CP:  6.27D-01
 E= -385.818442986138     Delta-E=       -0.000000001760 Rises=F Damp=F
 DIIS: error= 4.29D-07 at cycle   7 NSaved=   7.
 NSaved= 7 IEnMin= 7 EnMin= -385.818442986138     IErMin= 7 ErrMin= 4.29D-07
 ErrMax= 4.29D-07  0.00D+00 EMaxC= 1.00D-01 BMatC= 7.82D-11 BMatP= 2.37D-09
 IDIUse=1 WtCom= 1.00D+00 WtEn= 0.00D+00
 Coeff-Com:  0.330D-02-0.471D-01-0.134D+00 0.907D-01 0.118D+00 0.170D+00
 Coeff-Com:  0.799D+00
 Coeff:      0.330D-02-0.471D-01-0.134D+00 0.907D-01 0.118D+00 0.170D+00
 Coeff:      0.799D+00
 Gap=     0.234 Goal=   None    Shift=    0.000
 Gap=     0.080 Goal=   None    Shift=    0.000
 RMSDP=9.87D-08 MaxDP=3.86D-06 DE=-1.76D-09 OVMax= 1.98D-05

 SCF Done:  E(UB3LYP) =  -385.818442986     A.U. after   18 cycles
            NFock= 18  Conv=0.99D-07     -V/T= 2.0095
 <Sx>= 0.0000 <Sy>= 0.0000 <Sz>= 0.5000 <S**2>= 0.7594 S= 0.5047
 <L.S>= 0.000000000000E+00
 KE= 3.822034630272D+02 PE=-1.733931415247D+03 EE= 5.405642769708D+02
 Annihilation of the first spin contaminant:
 S**2 before annihilation     0.7594,   after     0.7500
 Leave Link  502 at Wed Dec 03 16:31:32 2025, MaxMem=   104857600 cpu:              31.0 elap:              31.9
 (Enter D:\Gaussian\G16W\l601.exe)
 Copying SCF densities to generalized density rwf, IOpCl= 1 IROHF=0.

 **********************************************************************

            Population analysis using the SCF density.

 **********************************************************************

 Orbital symmetries:
 Alpha Orbitals:
       Occupied  (A) (A) (A) (A) (A) (A) (A) (A) (A) (A) (A) (A)
                 (A) (A) (A) (A) (A) (A) (A) (A) (A) (A) (A) (A)
                 (A) (A) (A) (A) (A) (A) (A) (A) (A)
       Virtual   (A) (A) (A) (A) (A) (A) (A) (A) (A) (A) (A) (A)
                 (A) (A) (A) (A) (A) (A) (A) (A) (A) (A) (A) (A)
                 (A) (A) (A) (A) (A) (A) (A) (A) (A) (A) (A) (A)
                 (A) (A) (A) (A) (A) (A) (A) (A) (A) (A) (A) (A)
                 (A) (A) (A) (A) (A) (A) (A) (A) (A) (A) (A) (A)
                 (A) (A) (A) (A) (A) (A) (A) (A) (A) (A) (A) (A)
                 (A) (A) (A) (A) (A) (A) (A) (A) (A) (A) (A) (A)
                 (A) (A) (A) (A) (A) (A) (A) (A) (A) (A) (A) (A)
                 (A) (A) (A) (A) (A) (A) (A) (A) (A) (A) (A) (A)
                 (A) (A) (A) (A) (A) (A) (A) (A) (A) (A) (A) (A)
                 (A) (A)
 Beta  Orbitals:
       Occupied  (A) (A) (A) (A) (A) (A) (A) (A) (A) (A) (A) (A)
                 (A) (A) (A) (A) (A) (A) (A) (A) (A) (A) (A) (A)
                 (A) (A) (A) (A) (A) (A) (A) (A)
       Virtual   (A) (A) (A) (A) (A) (A) (A) (A) (A) (A) (A) (A)
                 (A) (A) (A) (A) (A) (A) (A) (A) (A) (A) (A) (A)
                 (A) (A) (A) (A) (A) (A) (A) (A) (A) (A) (A) (A)
                 (A) (A) (A) (A) (A) (A) (A) (A) (A) (A) (A) (A)
                 (A) (A) (A) (A) (A) (A) (A) (A) (A) (A) (A) (A)
                 (A) (A) (A) (A) (A) (A) (A) (A) (A) (A) (A) (A)
                 (A) (A) (A) (A) (A) (A) (A) (A) (A) (A) (A) (A)
                 (A) (A) (A) (A) (A) (A) (A) (A) (A) (A) (A) (A)
                 (A) (A) (A) (A) (A) (A) (A) (A) (A) (A) (A) (A)
                 (A) (A) (A) (A) (A) (A) (A) (A) (A) (A) (A) (A)
                 (A) (A) (A)
 The electronic state is 2-A.
 Alpha  occ. eigenvalues --  -19.41111 -10.47944 -10.41736 -10.40743 -10.39714
 Alpha  occ. eigenvalues --  -10.39621 -10.37936 -10.34792 -10.34096  -1.28346
 Alpha  occ. eigenvalues --   -1.06923  -0.98176  -0.95968  -0.87173  -0.86707
 Alpha  occ. eigenvalues --   -0.82297  -0.77074  -0.74308  -0.68846  -0.65320
 Alpha  occ. eigenvalues --   -0.63842  -0.62898  -0.60202  -0.59309  -0.59283
 Alpha  occ. eigenvalues --   -0.56761  -0.56129  -0.54835  -0.53418  -0.52668
 Alpha  occ. eigenvalues --   -0.52634  -0.44302  -0.43632
 Alpha virt. eigenvalues --   -0.20259  -0.19970  -0.10544  -0.07347  -0.05027
 Alpha virt. eigenvalues --   -0.03293  -0.02058  -0.00986   0.00161   0.01992
 Alpha virt. eigenvalues --    0.03611   0.04108   0.04556   0.04812   0.06603
 Alpha virt. eigenvalues --    0.08862   0.14328   0.14683   0.16927   0.19711
 Alpha virt. eigenvalues --    0.29403   0.29591   0.31958   0.33661   0.36277
 Alpha virt. eigenvalues --    0.36947   0.38064   0.38178   0.39572   0.41407
 Alpha virt. eigenvalues --    0.42154   0.44562   0.46207   0.46905   0.49947
 Alpha virt. eigenvalues --    0.51522   0.53046   0.56861   0.58005   0.58234
 Alpha virt. eigenvalues --    0.59433   0.60469   0.64831   0.67867   0.69668
 Alpha virt. eigenvalues --    0.70830   0.71484   0.72375   0.75289   0.77457
 Alpha virt. eigenvalues --    0.77737   0.79139   0.80526   0.81402   0.82041
 Alpha virt. eigenvalues --    0.86409   0.87925   0.93557   0.97454   1.01607
 Alpha virt. eigenvalues --    1.02901   1.03078   1.06189   1.13780   1.14882
 Alpha virt. eigenvalues --    1.19594   1.20785   1.24841   1.25001   1.26718
 Alpha virt. eigenvalues --    1.29444   1.35119   1.51540   1.53897   1.57395
 Alpha virt. eigenvalues --    1.57673   1.64346   1.65147   1.66703   1.70255
 Alpha virt. eigenvalues --    1.70372   1.70910   1.73468   1.77060   1.80447
 Alpha virt. eigenvalues --    1.80896   1.86800   1.90682   1.95564   1.97682
 Alpha virt. eigenvalues --    1.98490   2.07523   2.10438   2.11440   2.12105
 Alpha virt. eigenvalues --    2.12141   2.15701   2.17261   2.17799   2.20866
 Alpha virt. eigenvalues --    2.26877   2.32346   2.38814   2.43074   2.45634
 Alpha virt. eigenvalues --    2.52271   2.58145   2.59946   2.66790   2.69684
 Alpha virt. eigenvalues --    2.80157   2.94107   3.22017   3.75435   3.89296
 Alpha virt. eigenvalues --    3.91940   3.96973   4.07371   4.10292   4.22223
 Alpha virt. eigenvalues --    4.26640   4.55620
  Beta  occ. eigenvalues --  -19.40553 -10.47546 -10.41262 -10.40523 -10.39658
  Beta  occ. eigenvalues --  -10.39512 -10.38038 -10.34798 -10.34100  -1.27182
  Beta  occ. eigenvalues --   -1.06047  -0.97162  -0.95499  -0.86889  -0.86380
  Beta  occ. eigenvalues --   -0.81835  -0.76533  -0.73974  -0.68508  -0.65017
  Beta  occ. eigenvalues --   -0.62634  -0.61236  -0.59832  -0.59028  -0.57827
  Beta  occ. eigenvalues --   -0.56028  -0.55772  -0.54612  -0.53228  -0.52428
  Beta  occ. eigenvalues --   -0.50443  -0.43756
  Beta virt. eigenvalues --   -0.35768  -0.18644  -0.17117  -0.10338  -0.07148
  Beta virt. eigenvalues --   -0.03445  -0.03243  -0.01973  -0.00856   0.00317
  Beta virt. eigenvalues --    0.02219   0.03895   0.04259   0.05145   0.05259
  Beta virt. eigenvalues --    0.07228   0.09318   0.14681   0.14969   0.17204
  Beta virt. eigenvalues --    0.19984   0.29666   0.29965   0.32844   0.34024
  Beta virt. eigenvalues --    0.36818   0.37826   0.38467   0.38493   0.39725
  Beta virt. eigenvalues --    0.41662   0.42425   0.44733   0.46892   0.47517
  Beta virt. eigenvalues --    0.50601   0.51700   0.53313   0.57184   0.58489
  Beta virt. eigenvalues --    0.59127   0.59626   0.61400   0.64960   0.67863
  Beta virt. eigenvalues --    0.69816   0.71499   0.71640   0.72787   0.75403
  Beta virt. eigenvalues --    0.77755   0.78063   0.80502   0.80729   0.81679
  Beta virt. eigenvalues --    0.82293   0.86629   0.88200   0.93988   0.97699
  Beta virt. eigenvalues --    1.01684   1.03152   1.04303   1.06465   1.14914
  Beta virt. eigenvalues --    1.15357   1.20720   1.21484   1.25218   1.25952
  Beta virt. eigenvalues --    1.27055   1.30062   1.35470   1.52677   1.54327
  Beta virt. eigenvalues --    1.57927   1.58275   1.64972   1.66030   1.67292
  Beta virt. eigenvalues --    1.70569   1.70612   1.71187   1.73731   1.77306
  Beta virt. eigenvalues --    1.80836   1.81731   1.87463   1.91295   1.96114
  Beta virt. eigenvalues --    1.98508   1.99211   2.08671   2.10850   2.11481
  Beta virt. eigenvalues --    2.12403   2.12739   2.16739   2.17505   2.17938
  Beta virt. eigenvalues --    2.21822   2.27408   2.33671   2.39284   2.44321
  Beta virt. eigenvalues --    2.46736   2.52683   2.58298   2.60160   2.67262
  Beta virt. eigenvalues --    2.69946   2.80988   2.94337   3.22234   3.76266
  Beta virt. eigenvalues --    3.89828   3.92153   3.97511   4.07375   4.10587
  Beta virt. eigenvalues --    4.22563   4.27412   4.56220
          Condensed to atoms (all electrons):
               1          2          3          4          5          6
     1  C    4.673198   0.469989  -0.014909  -0.033812  -0.023292   0.495052
     2  C    0.469989   5.032870   0.564792  -0.023858  -0.052887  -0.039215
     3  C   -0.014909   0.564792   4.755008   0.424099  -0.073866  -0.028506
     4  C   -0.033812  -0.023858   0.424099   4.659674   0.424876  -0.007375
     5  C   -0.023292  -0.052887  -0.073866   0.424876   5.102599   0.497049
     6  C    0.495052  -0.039215  -0.028506  -0.007375   0.497049   4.938405
     7  H    0.002902   0.000703   0.003415  -0.039523   0.352014  -0.019594
     8  O   -0.000020   0.003364  -0.061236   0.329014  -0.060642   0.003788
     9  H   -0.033688   0.005162   0.000408   0.002790  -0.031359   0.360121
    10  H   -0.000031  -0.000090   0.006958  -0.022404  -0.003922   0.000428
    11  C    0.359470  -0.056276   0.004519   0.000477   0.006899  -0.050309
    12  H   -0.021552  -0.002832  -0.000080   0.000013  -0.000213   0.001274
    13  H   -0.021555  -0.002832  -0.000080   0.000013  -0.000213   0.001276
    14  H   -0.031115   0.003559  -0.000127  -0.000010   0.000326  -0.002374
    15  H   -0.045383   0.364744  -0.034680   0.006012  -0.000068   0.005496
    16  C    0.005791  -0.047679   0.353393  -0.061424   0.008097  -0.000129
    17  H   -0.000171   0.000624  -0.023309  -0.004470  -0.000001   0.000009
    18  H   -0.000171   0.000629  -0.023315  -0.004475  -0.000001   0.000009
    19  H    0.000209  -0.004115  -0.027778   0.005057  -0.000155   0.000009
               7          8          9         10         11         12
     1  C    0.002902  -0.000020  -0.033688  -0.000031   0.359470  -0.021552
     2  C    0.000703   0.003364   0.005162  -0.000090  -0.056276  -0.002832
     3  C    0.003415  -0.061236   0.000408   0.006958   0.004519  -0.000080
     4  C   -0.039523   0.329014   0.002790  -0.022404   0.000477   0.000013
     5  C    0.352014  -0.060642  -0.031359  -0.003922   0.006899  -0.000213
     6  C   -0.019594   0.003788   0.360121   0.000428  -0.050309   0.001274
     7  H    0.496447  -0.004062  -0.004123   0.005735  -0.000138   0.000002
     8  O   -0.004062   8.077823  -0.000040   0.243805   0.000001   0.000000
     9  H   -0.004123  -0.000040   0.488108  -0.000010  -0.006516   0.000095
    10  H    0.005735   0.243805  -0.000010   0.308669   0.000000   0.000000
    11  C   -0.000138   0.000001  -0.006516   0.000000   5.201029   0.362114
    12  H    0.000002   0.000000   0.000095   0.000000   0.362114   0.473547
    13  H    0.000002   0.000000   0.000095   0.000000   0.362118  -0.020198
    14  H   -0.000004   0.000000   0.004902   0.000000   0.371860  -0.022593
    15  H    0.000013  -0.000046  -0.000135   0.000005  -0.005513   0.001445
    16  C   -0.000132  -0.004842   0.000007  -0.000207  -0.000135   0.000000
    17  H    0.000001   0.001710   0.000000  -0.000025   0.000002   0.000000
    18  H    0.000001   0.001714   0.000000  -0.000025   0.000002   0.000000
    19  H    0.000002   0.000240   0.000000  -0.000001  -0.000008   0.000000
              13         14         15         16         17         18
     1  C   -0.021555  -0.031115  -0.045383   0.005791  -0.000171  -0.000171
     2  C   -0.002832   0.003559   0.364744  -0.047679   0.000624   0.000629
     3  C   -0.000080  -0.000127  -0.034680   0.353393  -0.023309  -0.023315
     4  C    0.000013  -0.000010   0.006012  -0.061424  -0.004470  -0.004475
     5  C   -0.000213   0.000326  -0.000068   0.008097  -0.000001  -0.000001
     6  C    0.001276  -0.002374   0.005496  -0.000129   0.000009   0.000009
     7  H    0.000002  -0.000004   0.000013  -0.000132   0.000001   0.000001
     8  O    0.000000   0.000000  -0.000046  -0.004842   0.001710   0.001714
     9  H    0.000095   0.004902  -0.000135   0.000007   0.000000   0.000000
    10  H    0.000000   0.000000   0.000005  -0.000207  -0.000025  -0.000025
    11  C    0.362118   0.371860  -0.005513  -0.000135   0.000002   0.000002
    12  H   -0.020198  -0.022593   0.001445   0.000000   0.000000   0.000000
    13  H    0.473555  -0.022595   0.001446   0.000000   0.000000   0.000000
    14  H   -0.022595   0.492109   0.000030   0.000001   0.000000   0.000000
    15  H    0.001446   0.000030   0.511139  -0.007831   0.000093   0.000093
    16  C    0.000000   0.000001  -0.007831   5.182518   0.366094   0.366104
    17  H    0.000000   0.000000   0.000093   0.366094   0.485721  -0.023935
    18  H    0.000000   0.000000   0.000093   0.366104  -0.023935   0.485725
    19  H    0.000000   0.000000   0.005483   0.368172  -0.022362  -0.022363
              19
     1  C    0.000209
     2  C   -0.004115
     3  C   -0.027778
     4  C    0.005057
     5  C   -0.000155
     6  C    0.000009
     7  H    0.000002
     8  O    0.000240
     9  H    0.000000
    10  H   -0.000001
    11  C   -0.000008
    12  H    0.000000
    13  H    0.000000
    14  H    0.000000
    15  H    0.005483
    16  C    0.368172
    17  H   -0.022362
    18  H   -0.022363
    19  H    0.495337
          Atomic-Atomic Spin Densities.
               1          2          3          4          5          6
     1  C    0.339523   0.016896  -0.006572  -0.006359  -0.008050   0.042017
     2  C    0.016896  -0.093654  -0.014558  -0.004824   0.001096  -0.001771
     3  C   -0.006572  -0.014558   0.158919   0.042300   0.000304  -0.002733
     4  C   -0.006359  -0.004824   0.042300   0.271858   0.037296  -0.006474
     5  C   -0.008050   0.001096   0.000304   0.037296   0.030746  -0.029477
     6  C    0.042017  -0.001771  -0.002733  -0.006474  -0.029477   0.072760
     7  H    0.000097  -0.000069   0.000111  -0.000859   0.001062   0.000122
     8  O    0.000070   0.000137  -0.005653  -0.063933  -0.003432   0.000234
     9  H   -0.001054  -0.000006  -0.000052   0.000059   0.000284   0.000929
    10  H    0.000002  -0.000008  -0.000104   0.000577   0.000303  -0.000002
    11  C   -0.016533   0.000278   0.000037   0.000021   0.000041  -0.002127
    12  H   -0.006096  -0.000276   0.000052   0.000011   0.000018  -0.000385
    13  H   -0.006094  -0.000276   0.000052   0.000011   0.000018  -0.000385
    14  H   -0.000395  -0.000039  -0.000003   0.000000   0.000007   0.000288
    15  H   -0.000658   0.001273   0.000191   0.000078  -0.000044   0.000010
    16  C    0.000115   0.001697  -0.007783  -0.003142  -0.000102  -0.000012
    17  H    0.000016   0.000164  -0.002982  -0.001010  -0.000024   0.000007
    18  H    0.000016   0.000164  -0.002979  -0.001010  -0.000024   0.000007
    19  H    0.000003   0.000143  -0.000230   0.000041  -0.000003   0.000002
               7          8          9         10         11         12
     1  C    0.000097   0.000070  -0.001054   0.000002  -0.016533  -0.006096
     2  C   -0.000069   0.000137  -0.000006  -0.000008   0.000278  -0.000276
     3  C    0.000111  -0.005653  -0.000052  -0.000104   0.000037   0.000052
     4  C   -0.000859  -0.063933   0.000059   0.000577   0.000021   0.000011
     5  C    0.001062  -0.003432   0.000284   0.000303   0.000041   0.000018
     6  C    0.000122   0.000234   0.000929  -0.000002  -0.002127  -0.000385
     7  H   -0.003344   0.000027   0.000108  -0.000109   0.000003   0.000000
     8  O    0.000027   0.260839   0.000000  -0.001864   0.000000   0.000000
     9  H    0.000108   0.000000  -0.004688   0.000000   0.000202  -0.000001
    10  H   -0.000109  -0.001864   0.000000  -0.004985   0.000000   0.000000
    11  C    0.000003   0.000000   0.000202   0.000000  -0.015987   0.008239
    12  H    0.000000   0.000000  -0.000001   0.000000   0.008239   0.026777
    13  H    0.000000   0.000000  -0.000001   0.000000   0.008236  -0.005139
    14  H    0.000000   0.000000  -0.000062   0.000000   0.000947  -0.000258
    15  H   -0.000001   0.000000   0.000002   0.000000   0.000121  -0.000029
    16  C    0.000003   0.000613   0.000000   0.000006   0.000002  -0.000001
    17  H    0.000000   0.000633   0.000000   0.000002   0.000000   0.000000
    18  H    0.000000   0.000634   0.000000   0.000002   0.000000   0.000000
    19  H    0.000000  -0.000006   0.000000   0.000000   0.000000   0.000000
              13         14         15         16         17         18
     1  C   -0.006094  -0.000395  -0.000658   0.000115   0.000016   0.000016
     2  C   -0.000276  -0.000039   0.001273   0.001697   0.000164   0.000164
     3  C    0.000052  -0.000003   0.000191  -0.007783  -0.002982  -0.002979
     4  C    0.000011   0.000000   0.000078  -0.003142  -0.001010  -0.001010
     5  C    0.000018   0.000007  -0.000044  -0.000102  -0.000024  -0.000024
     6  C   -0.000385   0.000288   0.000010  -0.000012   0.000007   0.000007
     7  H    0.000000   0.000000  -0.000001   0.000003   0.000000   0.000000
     8  O    0.000000   0.000000   0.000000   0.000613   0.000633   0.000634
     9  H   -0.000001  -0.000062   0.000002   0.000000   0.000000   0.000000
    10  H    0.000000   0.000000   0.000000   0.000006   0.000002   0.000002
    11  C    0.008236   0.000947   0.000121   0.000002   0.000000   0.000000
    12  H   -0.005139  -0.000258  -0.000029  -0.000001   0.000000   0.000000
    13  H    0.026765  -0.000256  -0.000029  -0.000001   0.000000   0.000000
    14  H   -0.000256  -0.000428   0.000003   0.000000   0.000000   0.000000
    15  H   -0.000029   0.000003   0.001142   0.000137   0.000001   0.000001
    16  C   -0.000001   0.000000   0.000137  -0.007213   0.004370   0.004364
    17  H    0.000000   0.000000   0.000001   0.004370   0.011982  -0.002339
    18  H    0.000000   0.000000   0.000001   0.004364  -0.002339   0.011971
    19  H    0.000000   0.000000  -0.000056   0.000484  -0.000099  -0.000097
              19
     1  C    0.000003
     2  C    0.000143
     3  C   -0.000230
     4  C    0.000041
     5  C   -0.000003
     6  C    0.000002
     7  H    0.000000
     8  O   -0.000006
     9  H    0.000000
    10  H    0.000000
    11  C    0.000000
    12  H    0.000000
    13  H    0.000000
    14  H    0.000000
    15  H   -0.000056
    16  C    0.000484
    17  H   -0.000099
    18  H   -0.000097
    19  H   -0.000670
 Mulliken charges and spin densities:
               1          2
     1  C    0.219091   0.346943
     2  C   -0.216652  -0.093635
     3  C    0.175292   0.158317
     4  C    0.345325   0.264642
     5  C   -0.145245   0.030019
     6  C   -0.155414   0.073008
     7  H    0.206339  -0.002849
     8  O   -0.530573   0.188299
     9  H    0.214182  -0.004280
    10  H    0.461115  -0.006180
    11  C   -0.549596  -0.016521
    12  H    0.228979   0.022911
    13  H    0.228968   0.022900
    14  H    0.206031  -0.000193
    15  H    0.197658   0.002143
    16  C   -0.527800  -0.006463
    17  H    0.220020   0.010720
    18  H    0.220007   0.010709
    19  H    0.202274  -0.000489
 Sum of Mulliken charges =   1.00000   1.00000
 Mulliken charges and spin densities with hydrogens summed into heavy atoms:
               1          2
     1  C    0.219091   0.346943
     2  C   -0.018994  -0.091492
     3  C    0.175292   0.158317
     4  C    0.345325   0.264642
     5  C    0.061093   0.027170
     6  C    0.058768   0.068728
     8  O   -0.069459   0.182119
    11  C    0.114382   0.029097
    16  C    0.114502   0.014476
 Electronic spatial extent (au):  <R**2>=           1250.4375
 Charge=              1.0000 electrons
 Dipole moment (field-independent basis, Debye):
    X=             -0.4307    Y=             -1.8178    Z=              0.0000  Tot=              1.8681
 Quadrupole moment (field-independent basis, Debye-Ang):
   XX=            -28.5599   YY=            -33.3665   ZZ=            -51.9897
   XY=             -4.5955   XZ=              0.0020   YZ=              0.0002
 Traceless Quadrupole moment (field-independent basis, Debye-Ang):
   XX=              9.4121   YY=              4.6056   ZZ=            -14.0177
   XY=             -4.5955   XZ=              0.0020   YZ=              0.0002
 Octapole moment (field-independent basis, Debye-Ang**2):
  XXX=            -10.0376  YYY=            -17.8819  ZZZ=              0.0030  XYY=             17.6901
  XXY=            -10.0384  XXZ=             -0.0017  XZZ=              3.8636  YZZ=              1.1350
  YYZ=              0.0006  XYZ=              0.0004
 Hexadecapole moment (field-independent basis, Debye-Ang**3):
 XXXX=           -865.6650 YYYY=           -403.8434 ZZZZ=            -61.8611 XXXY=            -50.7019
 XXXZ=             -0.0405 YYYX=            -33.8731 YYYZ=             -0.0074 ZZZX=             -0.0438
 ZZZY=             -0.0019 XXYY=           -180.7401 XXZZ=           -173.7593 YYZZ=            -96.1316
 XXYZ=              0.0004 YYXZ=             -0.0057 ZZXY=             -5.6808
 N-N= 4.253452322629D+02 E-N=-1.733931426805D+03  KE= 3.822034630272D+02
                          Isotropic Fermi Contact Couplings
        Atom                 a.u.       MegaHertz       Gauss      10(-4) cm-1
     1  C(13)              0.03381      38.01229      13.56373      12.67954
     2  C(13)             -0.01519     -17.07694      -6.09348      -5.69625
     3  C(13)              0.01272      14.29760       5.10174       4.76917
     4  C(13)              0.01955      21.97275       7.84042       7.32932
     5  C(13)             -0.00234      -2.63601      -0.94059      -0.87928
     6  C(13)              0.00174       1.95317       0.69694       0.65151
     7  H(1)              -0.00110      -4.93859      -1.76221      -1.64734
     8  O(17)              0.03732     -22.62539      -8.07330      -7.54702
     9  H(1)              -0.00161      -7.20124      -2.56958      -2.40208
    10  H(1)              -0.00323     -14.45574      -5.15817      -4.82191
    11  C(13)             -0.00971     -10.91317      -3.89409      -3.64024
    12  H(1)               0.01304      58.28387      20.79714      19.44141
    13  H(1)               0.01303      58.25627      20.78729      19.43220
    14  H(1)              -0.00003      -0.11748      -0.04192      -0.03919
    15  H(1)               0.00067       2.98860       1.06641       0.99689
    16  C(13)             -0.00487      -5.47287      -1.95286      -1.82555
    17  H(1)               0.00595      26.61296       9.49617       8.87713
    18  H(1)               0.00595      26.58367       9.48571       8.86736
    19  H(1)              -0.00016      -0.70440      -0.25135      -0.23496
 --------------------------------------------------------
       Center         ----  Spin Dipole Couplings  ----
                      3XX-RR        3YY-RR        3ZZ-RR
 --------------------------------------------------------
     1   Atom       -0.182696     -0.184933      0.367629
     2   Atom        0.033246      0.029819     -0.063065
     3   Atom       -0.097035     -0.083981      0.181016
     4   Atom       -0.163324     -0.168111      0.331435
     5   Atom       -0.028001     -0.027393      0.055394
     6   Atom       -0.054916     -0.047896      0.102813
     7   Atom       -0.005728      0.011723     -0.005995
     8   Atom       -0.423884     -0.419296      0.843180
     9   Atom       -0.003835      0.009244     -0.005408
    10   Atom       -0.022965      0.038152     -0.015187
    11   Atom       -0.008359     -0.016925      0.025284
    12   Atom        0.001365      0.000124     -0.001489
    13   Atom        0.001363      0.000130     -0.001493
    14   Atom        0.006424     -0.002584     -0.003839
    15   Atom        0.001140      0.004124     -0.005264
    16   Atom       -0.009404     -0.000086      0.009490
    17   Atom        0.000510      0.002388     -0.002898
    18   Atom        0.000517      0.002389     -0.002906
    19   Atom       -0.002380      0.005140     -0.002761
 --------------------------------------------------------
                        XY            XZ            YZ
 --------------------------------------------------------
     1   Atom       -0.003747     -0.000046     -0.000007
     2   Atom        0.002801      0.000008      0.000000
     3   Atom        0.000192     -0.000031     -0.000001
     4   Atom       -0.002327     -0.000050     -0.000005
     5   Atom        0.004939     -0.000006      0.000000
     6   Atom       -0.001588     -0.000014      0.000000
     7   Atom        0.001680      0.000000      0.000001
     8   Atom       -0.007560     -0.000125     -0.000045
     9   Atom        0.010032      0.000000      0.000001
    10   Atom       -0.013566     -0.000001      0.000001
    11   Atom       -0.003919     -0.000002      0.000000
    12   Atom       -0.005158     -0.003597      0.005271
    13   Atom       -0.005157      0.003595     -0.005271
    14   Atom        0.002057      0.000001      0.000000
    15   Atom        0.002432      0.000001      0.000000
    16   Atom        0.003256     -0.000002      0.000000
    17   Atom        0.003454      0.003364      0.002233
    18   Atom        0.003454     -0.003361     -0.002230
    19   Atom        0.000533      0.000000      0.000000
 --------------------------------------------------------


 ---------------------------------------------------------------------------------
              Anisotropic Spin Dipole Couplings in Principal Axis System
 ---------------------------------------------------------------------------------

       Atom             a.u.   MegaHertz   Gauss  10(-4) cm-1        Axes

              Baa    -0.1877   -25.191    -8.989    -8.403  0.5975  0.8019  0.0001
     1 C(13)  Bbb    -0.1799   -24.141    -8.614    -8.053  0.8019 -0.5975  0.0001
              Bcc     0.3676    49.332    17.603    16.455 -0.0001  0.0000  1.0000
 
              Baa    -0.0631    -8.463    -3.020    -2.823 -0.0001  0.0000  1.0000
     2 C(13)  Bbb     0.0282     3.791     1.353     1.264 -0.4890  0.8723  0.0000
              Bcc     0.0348     4.672     1.667     1.558  0.8723  0.4890  0.0001
 
              Baa    -0.0970   -13.022    -4.646    -4.344  0.9999 -0.0147  0.0001
     3 C(13)  Bbb    -0.0840   -11.269    -4.021    -3.759  0.0147  0.9999  0.0000
              Bcc     0.1810    24.291     8.668     8.102 -0.0001  0.0000  1.0000
 
              Baa    -0.1691   -22.686    -8.095    -7.567  0.3762  0.9265  0.0000
     4 C(13)  Bbb    -0.1624   -21.790    -7.775    -7.268  0.9265 -0.3762  0.0001
              Bcc     0.3314    44.475    15.870    14.835 -0.0001  0.0000  1.0000
 
              Baa    -0.0326    -4.381    -1.563    -1.461  0.7285 -0.6851  0.0001
     5 C(13)  Bbb    -0.0227    -3.053    -1.089    -1.018  0.6851  0.7285  0.0001
              Bcc     0.0554     7.433     2.652     2.479 -0.0001  0.0000  1.0000
 
              Baa    -0.0553    -7.415    -2.646    -2.473  0.9775  0.2108  0.0001
     6 C(13)  Bbb    -0.0476    -6.381    -2.277    -2.129 -0.2108  0.9775  0.0000
              Bcc     0.1028    13.796     4.923     4.602 -0.0001  0.0000  1.0000
 
              Baa    -0.0060    -3.199    -1.141    -1.067 -0.0004  0.0000  1.0000
     7 H(1)   Bbb    -0.0059    -3.142    -1.121    -1.048  0.9955 -0.0949  0.0004
              Bcc     0.0119     6.340     2.262     2.115  0.0949  0.9955  0.0000
 
              Baa    -0.4295    31.078    11.089    10.366  0.8032  0.5957  0.0001
     8 O(17)  Bbb    -0.4137    29.934    10.681     9.985 -0.5957  0.8032  0.0000
              Bcc     0.8432   -61.012   -21.771   -20.351 -0.0001  0.0000  1.0000
 
              Baa    -0.0093    -4.947    -1.765    -1.650  0.8792 -0.4764  0.0001
     9 H(1)   Bbb    -0.0054    -2.886    -1.030    -0.963 -0.0001  0.0000  1.0000
              Bcc     0.0147     7.832     2.795     2.613  0.4764  0.8792  0.0001
 
              Baa    -0.0258   -13.787    -4.920    -4.599  0.9783  0.2074  0.0001
    10 H(1)   Bbb    -0.0152    -8.103    -2.891    -2.703 -0.0001  0.0000  1.0000
              Bcc     0.0410    21.891     7.811     7.302 -0.2074  0.9783  0.0000
 
              Baa    -0.0184    -2.475    -0.883    -0.826  0.3621  0.9321  0.0000
    11 C(13)  Bbb    -0.0068    -0.917    -0.327    -0.306  0.9321 -0.3621  0.0001
              Bcc     0.0253     3.393     1.211     1.132 -0.0001  0.0000  1.0000
 
              Baa    -0.0061    -3.264    -1.165    -1.089  0.1610  0.7110 -0.6845
    12 H(1)   Bbb    -0.0034    -1.797    -0.641    -0.599  0.7748  0.3386  0.5339
              Bcc     0.0095     5.061     1.806     1.688 -0.6114  0.6163  0.4964
 
              Baa    -0.0061    -3.264    -1.165    -1.089  0.1607  0.7106  0.6850
    13 H(1)   Bbb    -0.0034    -1.796    -0.641    -0.599  0.7750  0.3389 -0.5334
              Bcc     0.0095     5.060     1.806     1.688 -0.6112  0.6166 -0.4962
 
              Baa    -0.0038    -2.049    -0.731    -0.683 -0.0002  0.0005  1.0000
    14 H(1)   Bbb    -0.0030    -1.618    -0.577    -0.540 -0.2125  0.9772 -0.0005
              Bcc     0.0069     3.666     1.308     1.223  0.9772  0.2125  0.0001
 
              Baa    -0.0053    -2.809    -1.002    -0.937 -0.0001  0.0000  1.0000
    15 H(1)   Bbb    -0.0002    -0.118    -0.042    -0.039  0.8727 -0.4883  0.0001
              Bcc     0.0055     2.927     1.044     0.976  0.4883  0.8727  0.0000
 
              Baa    -0.0104    -1.399    -0.499    -0.467  0.9539 -0.3003  0.0001
    16 C(13)  Bbb     0.0009     0.126     0.045     0.042  0.3003  0.9539  0.0000
              Bcc     0.0095     1.274     0.454     0.425 -0.0001  0.0000  1.0000
 
              Baa    -0.0050    -2.650    -0.946    -0.884 -0.5148 -0.0184  0.8571
    17 H(1)   Bbb    -0.0016    -0.869    -0.310    -0.290 -0.6060  0.7150 -0.3486
              Bcc     0.0066     3.519     1.256     1.174  0.6064  0.6989  0.3792
 
              Baa    -0.0050    -2.651    -0.946    -0.884  0.5138  0.0188  0.8577
    18 H(1)   Bbb    -0.0016    -0.868    -0.310    -0.290 -0.6067  0.7149  0.3477
              Bcc     0.0066     3.519     1.256     1.174  0.6066  0.6990 -0.3787
 
              Baa    -0.0028    -1.473    -0.526    -0.491  0.0010  0.0000  1.0000
    19 H(1)   Bbb    -0.0024    -1.290    -0.460    -0.430  0.9975 -0.0703 -0.0010
              Bcc     0.0052     2.763     0.986     0.922  0.0703  0.9975 -0.0001
 

 ---------------------------------------------------------------------------------

 No NMR shielding tensors so no spin-rotation constants.
 Leave Link  601 at Wed Dec 03 16:31:33 2025, MaxMem=   104857600 cpu:               0.0 elap:               0.2
 (Enter D:\Gaussian\G16W\l9999.exe)
 1|1|UNPC-PC-20250526LCFF|SP|UB3LYP|6-31G(d)|C8H10O1(1+,2)|ADMINISTRATO
 R|03-Dec-2025|0||#P B3LYP/6-31G* SCF=conver=7 out=wfn||Generated by Mu
 ltiwfn (http://sobereva.com/multiwfn)||1,2|C,0,-1.605709,0.058001,-0.0
 00159|C,0,-0.609836,1.043604,-0.000061|C,0,0.7501,0.744594,0.000068|C,
 0,1.122993,-0.609461,0.000096|C,0,0.155387,-1.609174,-0.000012|C,0,-1.
 198311,-1.274466,-0.000135|H,0,0.457722,-2.653044,-0.000002|O,0,2.4672
 56,-0.882643,0.000238|H,0,-1.940235,-2.066207,-0.000219|H,0,2.593085,-
 1.836794,0.000187|C,0,-3.067708,0.437977,-0.000275|H,0,-3.326827,1.033
 957,0.880732|H,0,-3.326594,1.034318,-0.881104|H,0,-3.706495,-0.447702,
 -0.000538|H,0,-0.904039,2.089928,-0.000102|C,0,1.809631,1.815347,0.000
 205|H,0,2.458134,1.729558,0.877343|H,0,2.458923,1.729008,-0.876281|H,0
 ,1.358995,2.809593,-0.000283||Version=EM64W-G16RevA.03|State=2-A|HF=-3
 85.818443|S2=0.759359|S2-1=0.|S2A=0.750041|RMSD=9.874e-008|Dipole=-0.1
 694393,-0.7151819,-0.0000013|Quadrupole=6.9976585,3.4241315,-10.42179,
 -3.4166219,0.0014607,0.0001749|PG=C01 [X(C8H10O1)]||@

 Writing a WFN file to "N-1.wfn"


 Time has a wonderful way of weeding out the trivial.
                                -- Richard Ben Sapir
 Job cpu time:       0 days  0 hours  0 minutes 34.0 seconds.
 Elapsed time:       0 days  0 hours  0 minutes 34.0 seconds.
 File lengths (MBytes):  RWF=     29 Int=      0 D2E=      0 Chk=      3 Scr=      1
 Normal termination of Gaussian 16 at Wed Dec 03 16:31:33 2025.
