 Entering Link 1 = D:\Gaussian\G16W\l1.exe PID=     43236.
  
 Copyright (c) 1988,1990,1992,1993,1995,1998,2003,2009,2016,
            Gaussian, Inc.  All Rights Reserved.
  
 This is part of the Gaussian(R) 16 program.  It is based on
 the Gaussian(R) 09 system (copyright 2009, Gaussian, Inc.),
 the Gaussian(R) 03 system (copyright 2003, Gaussian, Inc.),
 the Gaussian(R) 98 system (copyright 1998, Gaussian, Inc.),
 the Gaussian(R) 94 system (copyright 1995, Gaussian, Inc.),
 the Gaussian 92(TM) system (copyright 1992, Gaussian, Inc.),
 the Gaussian 90(TM) system (copyright 1990, Gaussian, Inc.),
 the Gaussian 88(TM) system (copyright 1988, Gaussian, Inc.),
 the Gaussian 86(TM) system (copyright 1986, Carnegie Mellon
 University), and the Gaussian 82(TM) system (copyright 1983,
 Carnegie Mellon University). Gaussian is a federally registered
 trademark of Gaussian, Inc.
  
 This software contains proprietary and confidential information,
 including trade secrets, belonging to Gaussian, Inc.
  
 This software is provided under written license and may be
 used, copied, transmitted, or stored only in accord with that
 written license.
  
 The following legend is applicable only to US Government
 contracts under FAR:
  
                    RESTRICTED RIGHTS LEGEND
  
 Use, reproduction and disclosure by the US Government is
 subject to restrictions as set forth in subparagraphs (a)
 and (c) of the Commercial Computer Software - Restricted
 Rights clause in FAR 52.227-19.
  
 Gaussian, Inc.
 340 Quinnipiac St., Bldg. 40, Wallingford CT 06492
  
  
 ---------------------------------------------------------------
 Warning -- This program may not be used in any manner that
 competes with the business of Gaussian, Inc. or will provide
 assistance to any competitor of Gaussian, Inc.  The licensee
 of this program is prohibited from giving any competitor of
 Gaussian, Inc. access to this program.  By using this program,
 the user acknowledges that Gaussian, Inc. is engaged in the
 business of creating and licensing software in the field of
 computational chemistry and represents and warrants to the
 licensee that it is not a competitor of Gaussian, Inc. and that
 it will not use this program in any manner prohibited above.
 ---------------------------------------------------------------
  

 Cite this work as:
 Gaussian 16, Revision A.03,
 M. J. Frisch, G. W. Trucks, H. B. Schlegel, G. E. Scuseria, 
 M. A. Robb, J. R. Cheeseman, G. Scalmani, V. Barone, 
 G. A. Petersson, H. Nakatsuji, X. Li, M. Caricato, A. V. Marenich, 
 J. Bloino, B. G. Janesko, R. Gomperts, B. Mennucci, H. P. Hratchian, 
 J. V. Ortiz, A. F. Izmaylov, J. L. Sonnenberg, D. Williams-Young, 
 F. Ding, F. Lipparini, F. Egidi, J. Goings, B. Peng, A. Petrone, 
 T. Henderson, D. Ranasinghe, V. G. Zakrzewski, J. Gao, N. Rega, 
 G. Zheng, W. Liang, M. Hada, M. Ehara, K. Toyota, R. Fukuda, 
 J. Hasegawa, M. Ishida, T. Nakajima, Y. Honda, O. Kitao, H. Nakai, 
 T. Vreven, K. Throssell, J. A. Montgomery, Jr., J. E. Peralta, 
 F. Ogliaro, M. J. Bearpark, J. J. Heyd, E. N. Brothers, K. N. Kudin, 
 V. N. Staroverov, T. A. Keith, R. Kobayashi, J. Normand, 
 K. Raghavachari, A. P. Rendell, J. C. Burant, S. S. Iyengar, 
 J. Tomasi, M. Cossi, J. M. Millam, M. Klene, C. Adamo, R. Cammi, 
 J. W. Ochterski, R. L. Martin, K. Morokuma, O. Farkas, 
 J. B. Foresman, and D. J. Fox, Gaussian, Inc., Wallingford CT, 2016.
 
 ******************************************
 Gaussian 16:  EM64W-G16RevA.03 17-Dec-2016
                03-Dec-2025 
 ******************************************
 %nprocs=   4
 Will use up to    4 processors via shared memory.
 ------------------------------------
 #P B3LYP/6-31G* SCF=conver=7 out=wfn
 ------------------------------------
 1/38=1,172=1/1;
 2/12=2,17=6,18=5,40=1/2;
 3/5=1,6=6,7=1,11=2,25=1,30=1,74=-5/1,2,3;
 4//1;
 5/5=2,6=7,38=5/2;
 6/7=2,8=2,9=2,10=2,28=1/1;
 99/5=1,6=100,9=1/99;
 Leave Link    1 at Wed Dec 03 16:29:33 2025, MaxMem=           0 cpu:               0.0 elap:               0.1
 (Enter D:\Gaussian\G16W\l101.exe)
 ----------------------------------------------------
 Generated by Multiwfn (http://sobereva.com/multiwfn)
 ----------------------------------------------------
 Symbolic Z-matrix:
 Charge =  0 Multiplicity = 1
 C                    -1.60571   0.058    -0.00016 
 C                    -0.60984   1.0436   -0.00006 
 C                     0.7501    0.74459   0.00007 
 C                     1.12299  -0.60946   0.0001 
 C                     0.15539  -1.60917  -0.00001 
 C                    -1.19831  -1.27447  -0.00014 
 H                     0.45772  -2.65304  0. 
 O                     2.46726  -0.88264   0.00024 
 H                    -1.94024  -2.06621  -0.00022 
 H                     2.59309  -1.83679   0.00019 
 C                    -3.06771   0.43798  -0.00028 
 H                    -3.32683   1.03396   0.88073 
 H                    -3.32659   1.03432  -0.8811 
 H                    -3.7065   -0.4477   -0.00054 
 H                    -0.90404   2.08993  -0.0001 
 C                     1.80963   1.81535   0.00021 
 H                     2.45813   1.72956   0.87734 
 H                     2.45892   1.72901  -0.87628 
 H                     1.359     2.80959  -0.00028 
 
 ITRead=  0  0  0  0  0  0  0  0  0  0  0  0  0  0  0  0  0  0  0
 MicOpt= -1 -1 -1 -1 -1 -1 -1 -1 -1 -1 -1 -1 -1 -1 -1 -1 -1 -1 -1
 NAtoms=     19 NQM=       19 NQMF=       0 NMMI=      0 NMMIF=      0
                NMic=       0 NMicF=      0.
                    Isotopes and Nuclear Properties:
 (Nuclear quadrupole moments (NQMom) in fm**2, nuclear magnetic moments (NMagM)
  in nuclear magnetons)

  Atom         1           2           3           4           5           6           7           8           9          10
 IAtWgt=          12          12          12          12          12          12           1          16           1           1
 AtmWgt=  12.0000000  12.0000000  12.0000000  12.0000000  12.0000000  12.0000000   1.0078250  15.9949146   1.0078250   1.0078250
 NucSpn=           0           0           0           0           0           0           1           0           1           1
 AtZEff=   0.0000000   0.0000000   0.0000000   0.0000000   0.0000000   0.0000000   0.0000000   0.0000000   0.0000000   0.0000000
 NQMom=    0.0000000   0.0000000   0.0000000   0.0000000   0.0000000   0.0000000   0.0000000   0.0000000   0.0000000   0.0000000
 NMagM=    0.0000000   0.0000000   0.0000000   0.0000000   0.0000000   0.0000000   2.7928460   0.0000000   2.7928460   2.7928460
 AtZNuc=   6.0000000   6.0000000   6.0000000   6.0000000   6.0000000   6.0000000   1.0000000   8.0000000   1.0000000   1.0000000

  Atom        11          12          13          14          15          16          17          18          19
 IAtWgt=          12           1           1           1           1          12           1           1           1
 AtmWgt=  12.0000000   1.0078250   1.0078250   1.0078250   1.0078250  12.0000000   1.0078250   1.0078250   1.0078250
 NucSpn=           0           1           1           1           1           0           1           1           1
 AtZEff=   0.0000000   0.0000000   0.0000000   0.0000000   0.0000000   0.0000000   0.0000000   0.0000000   0.0000000
 NQMom=    0.0000000   0.0000000   0.0000000   0.0000000   0.0000000   0.0000000   0.0000000   0.0000000   0.0000000
 NMagM=    0.0000000   2.7928460   2.7928460   2.7928460   2.7928460   0.0000000   2.7928460   2.7928460   2.7928460
 AtZNuc=   6.0000000   1.0000000   1.0000000   1.0000000   1.0000000   6.0000000   1.0000000   1.0000000   1.0000000
 Leave Link  101 at Wed Dec 03 16:29:33 2025, MaxMem=   104857600 cpu:               0.0 elap:               0.1
 (Enter D:\Gaussian\G16W\l202.exe)
                          Input orientation:                          
 ---------------------------------------------------------------------
 Center     Atomic      Atomic             Coordinates (Angstroms)
 Number     Number       Type             X           Y           Z
 ---------------------------------------------------------------------
      1          6           0       -1.605709    0.058001   -0.000159
      2          6           0       -0.609836    1.043604   -0.000061
      3          6           0        0.750100    0.744594    0.000068
      4          6           0        1.122993   -0.609461    0.000096
      5          6           0        0.155387   -1.609174   -0.000012
      6          6           0       -1.198311   -1.274466   -0.000135
      7          1           0        0.457722   -2.653044   -0.000002
      8          8           0        2.467256   -0.882643    0.000238
      9          1           0       -1.940235   -2.066207   -0.000219
     10          1           0        2.593085   -1.836794    0.000187
     11          6           0       -3.067708    0.437977   -0.000275
     12          1           0       -3.326827    1.033957    0.880732
     13          1           0       -3.326594    1.034318   -0.881104
     14          1           0       -3.706495   -0.447702   -0.000538
     15          1           0       -0.904039    2.089928   -0.000102
     16          6           0        1.809631    1.815347    0.000205
     17          1           0        2.458134    1.729558    0.877343
     18          1           0        2.458923    1.729008   -0.876281
     19          1           0        1.358995    2.809593   -0.000283
 ---------------------------------------------------------------------
                    Distance matrix (angstroms):
                    1          2          3          4          5
     1  C    0.000000
     2  C    1.401134   0.000000
     3  C    2.453823   1.392420   0.000000
     4  C    2.809149   2.394853   1.404462   0.000000
     5  C    2.425063   2.760941   2.427737   1.391290   0.000000
     6  C    1.393356   2.391600   2.805870   2.414681   1.394463
     7  H    3.406980   3.847712   3.410195   2.149143   1.086771
     8  O    4.180174   3.630279   2.365698   1.371740   2.423342
     9  H    2.150388   3.382438   3.890823   3.391972   2.144880
    10  H    4.606530   4.307597   3.171775   1.915076   2.448302
    11  C    1.510570   2.531387   3.830101   4.319618   3.818268
    12  H    2.165804   2.856209   4.180985   4.824649   4.459559
    13  H    2.165803   2.856063   4.180890   4.824660   4.459660
    14  H    2.160796   3.437047   4.613330   4.832196   4.032760
    15  H    2.149667   1.086899   2.132158   3.375731   3.847823
    16  C    3.840939   2.539568   1.506359   2.520152   3.803139
    17  H    4.480952   3.263864   2.158042   2.832521   4.149642
    18  H    4.481193   3.264172   2.158040   2.832169   4.149408
    19  H    4.044840   2.644809   2.152899   3.427189   4.579757
                    6          7          8          9         10
     6  C    0.000000
     7  H    2.154744   0.000000
     8  O    3.686449   2.678161   0.000000
     9  H    1.085037   2.468719   4.563639   0.000000
    10  H    3.832871   2.286053   0.962412   4.539121   0.000000
    11  C    2.535174   4.688610   5.690331   2.746294   6.100751
    12  H    3.261184   5.356536   6.166038   3.508522   6.637916
    13  H    3.261315   5.356681   6.166052   3.508733   6.637963
    14  H    2.640933   4.712137   6.189053   2.395670   6.450914
    15  H    3.377239   4.934590   4.494642   4.283359   5.258234
    16  C    4.312153   4.668423   2.776980   5.397032   3.735229
    17  H    4.812870   4.896793   2.755538   5.875678   3.675116
    18  H    4.812884   4.896432   2.754828   5.875690   3.674390
    19  H    4.818646   5.536488   3.854977   5.887134   4.807483
                   11         12         13         14         15
    11  C    0.000000
    12  H    1.094764   0.000000
    13  H    1.094762   1.761836   0.000000
    14  H    1.092006   1.765247   1.765249   0.000000
    15  H    2.722206   2.785829   2.785543   3.780652   0.000000
    16  C    5.068095   5.269639   5.269489   5.962301   2.727526
    17  H    5.742240   5.826632   6.085932   6.596498   3.493420
    18  H    5.742630   6.086468   5.827077   6.596770   3.493918
    19  H    5.021978   5.087828   5.087454   6.022388   2.374709
                   16         17         18         19
    16  C    0.000000
    17  H    1.094206   0.000000
    18  H    1.094195   1.753624   0.000000
    19  H    1.091603   1.773361   1.773380   0.000000
 Stoichiometry    C8H10O
 Framework group  C1[X(C8H10O)]
 Deg. of freedom    51
 Full point group                 C1      NOp   1
 Largest Abelian subgroup         C1      NOp   1
 Largest concise Abelian subgroup C1      NOp   1
                         Standard orientation:                         
 ---------------------------------------------------------------------
 Center     Atomic      Atomic             Coordinates (Angstroms)
 Number     Number       Type             X           Y           Z
 ---------------------------------------------------------------------
      1          6           0       -1.605709    0.058001   -0.000159
      2          6           0       -0.609836    1.043604   -0.000061
      3          6           0        0.750100    0.744594    0.000068
      4          6           0        1.122993   -0.609461    0.000096
      5          6           0        0.155387   -1.609174   -0.000012
      6          6           0       -1.198311   -1.274466   -0.000135
      7          1           0        0.457722   -2.653044   -0.000002
      8          8           0        2.467256   -0.882643    0.000238
      9          1           0       -1.940235   -2.066207   -0.000219
     10          1           0        2.593085   -1.836794    0.000187
     11          6           0       -3.067708    0.437977   -0.000275
     12          1           0       -3.326827    1.033957    0.880732
     13          1           0       -3.326594    1.034318   -0.881104
     14          1           0       -3.706495   -0.447703   -0.000538
     15          1           0       -0.904039    2.089928   -0.000102
     16          6           0        1.809631    1.815347    0.000205
     17          1           0        2.458134    1.729558    0.877343
     18          1           0        2.458923    1.729008   -0.876281
     19          1           0        1.358995    2.809593   -0.000283
 ---------------------------------------------------------------------
 Rotational constants (GHZ):           3.0152298           1.2983664           0.9178306
 Leave Link  202 at Wed Dec 03 16:29:33 2025, MaxMem=   104857600 cpu:               0.0 elap:               0.0
 (Enter D:\Gaussian\G16W\l301.exe)
 Standard basis: 6-31G(d) (6D, 7F)
 Ernie: Thresh=  0.10000D-02 Tol=  0.10000D-05 Strict=F.
 There are   155 symmetry adapted cartesian basis functions of A   symmetry.
 There are   155 symmetry adapted basis functions of A   symmetry.
   155 basis functions,   292 primitive gaussians,   155 cartesian basis functions
    33 alpha electrons       33 beta electrons
       nuclear repulsion energy       425.3452322629 Hartrees.
 IExCor=  402 DFT=T Ex+Corr=B3LYP ExCW=0 ScaHFX=  0.200000
 ScaDFX=  0.800000  0.720000  1.000000  0.810000 ScalE2=  1.000000  1.000000
 IRadAn=      5 IRanWt=     -1 IRanGd=            0 ICorTp=0 IEmpDi=  4
 NAtoms=   19 NActive=   19 NUniq=   19 SFac= 1.00D+00 NAtFMM=   60 NAOKFM=F Big=F
 Integral buffers will be    131072 words long.
 Raffenetti 2 integral format.
 Two-electron integral symmetry is turned on.
 Leave Link  301 at Wed Dec 03 16:29:33 2025, MaxMem=   104857600 cpu:               0.0 elap:               0.1
 (Enter D:\Gaussian\G16W\l302.exe)
 NPDir=0 NMtPBC=     1 NCelOv=     1 NCel=       1 NClECP=     1 NCelD=      1
         NCelK=      1 NCelE2=     1 NClLst=     1 CellRange=     0.0.
 One-electron integrals computed using PRISM.
 One-electron integral symmetry used in STVInt
 NBasis=   155 RedAO= T EigKep=  3.79D-04  NBF=   155
 NBsUse=   155 1.00D-06 EigRej= -1.00D+00 NBFU=   155
 Precomputing XC quadrature grid using
 IXCGrd= 4 IRadAn=           5 IRanWt=          -1 IRanGd=           0 AccXCQ= 0.00D+00.
 Generated NRdTot=       0 NPtTot=           0 NUsed=           0 NTot=          32
 NSgBfM=   155   155   155   155   155 MxSgAt=    19 MxSgA2=    19.
 Leave Link  302 at Wed Dec 03 16:29:33 2025, MaxMem=   104857600 cpu:               0.0 elap:               0.3
 (Enter D:\Gaussian\G16W\l303.exe)
 DipDrv:  MaxL=1.
 Leave Link  303 at Wed Dec 03 16:29:33 2025, MaxMem=   104857600 cpu:               0.0 elap:               0.1
 (Enter D:\Gaussian\G16W\l401.exe)
 ExpMin= 1.61D-01 ExpMax= 5.48D+03 ExpMxC= 8.25D+02 IAcc=3 IRadAn=         5 AccDes= 0.00D+00
 Harris functional with IExCor=  402 and IRadAn=       5 diagonalized for initial guess.
 HarFok:  IExCor=  402 AccDes= 0.00D+00 IRadAn=         5 IDoV= 1 UseB2=F ITyADJ=14
 ICtDFT=  3500011 ScaDFX=  1.000000  1.000000  1.000000  1.000000
 FoFCou: FMM=F IPFlag=           0 FMFlag=      100000 FMFlg1=           0
         NFxFlg=           0 DoJE=T BraDBF=F KetDBF=T FulRan=T
         wScrn=  0.000000 ICntrl=       500 IOpCl=  0 I1Cent=   200000004 NGrid=           0
         NMat0=    1 NMatS0=      1 NMatT0=    0 NMatD0=    1 NMtDS0=    0 NMtDT0=    0
 Petite list used in FoFCou.
 Harris En= -386.156446907053    
 JPrj=0 DoOrth=F DoCkMO=F.
 Leave Link  401 at Wed Dec 03 16:29:34 2025, MaxMem=   104857600 cpu:               1.0 elap:               1.0
 (Enter D:\Gaussian\G16W\l502.exe)
 Keep R1 ints in memory in canonical form, NReq=77009775.
 FoFCou: FMM=F IPFlag=           0 FMFlag=           0 FMFlg1=           0
         NFxFlg=           0 DoJE=F BraDBF=F KetDBF=F FulRan=T
         wScrn=  0.000000 ICntrl=       600 IOpCl=  0 I1Cent=           0 NGrid=           0
         NMat0=    1 NMatS0=  12090 NMatT0=    0 NMatD0=    1 NMtDS0=    0 NMtDT0=    0
 Symmetry not used in FoFCou.
 Two-electron integral symmetry not used.
 Closed shell SCF:
 Using DIIS extrapolation, IDIIS=  1040.
 NGot=   104857600 LenX=    31716623 LenY=    31692157
 Requested convergence on RMS density matrix=1.00D-07 within 128 cycles.
 Requested convergence on MAX density matrix=1.00D-05.
 Requested convergence on             energy=1.00D-05.
 No special actions if energy rises.
 Integral accuracy reduced to 1.0D-05 until final iterations.

 Cycle   1  Pass 0  IDiag  1:
 E= -385.835933782600    
 DIIS: error= 4.76D-02 at cycle   1 NSaved=   1.
 NSaved= 1 IEnMin= 1 EnMin= -385.835933782600     IErMin= 1 ErrMin= 4.76D-02
 ErrMax= 4.76D-02  0.00D+00 EMaxC= 1.00D-01 BMatC= 2.52D-01 BMatP= 2.52D-01
 IDIUse=3 WtCom= 5.24D-01 WtEn= 4.76D-01
 Coeff-Com:  0.100D+01
 Coeff-En:   0.100D+01
 Coeff:      0.100D+01
 Gap=     0.231 Goal=   None    Shift=    0.000
 GapD=    0.231 DampG=1.000 DampE=0.500 DampFc=0.5000 IDamp=-1.
 Damping current iteration by 5.00D-01
 RMSDP=7.36D-03 MaxDP=1.34D-01              OVMax= 1.62D-01

 Cycle   2  Pass 0  IDiag  1:
 E= -385.960129577366     Delta-E=       -0.124195794766 Rises=F Damp=T
 DIIS: error= 6.26D-03 at cycle   2 NSaved=   2.
 NSaved= 2 IEnMin= 2 EnMin= -385.960129577366     IErMin= 2 ErrMin= 6.26D-03
 ErrMax= 6.26D-03  0.00D+00 EMaxC= 1.00D-01 BMatC= 1.07D-02 BMatP= 2.52D-01
 IDIUse=3 WtCom= 9.37D-01 WtEn= 6.26D-02
 Coeff-Com:  0.306D-01 0.969D+00
 Coeff-En:   0.485D-01 0.952D+00
 Coeff:      0.317D-01 0.968D+00
 Gap=     0.282 Goal=   None    Shift=    0.000
 RMSDP=1.95D-03 MaxDP=3.54D-02 DE=-1.24D-01 OVMax= 1.13D-01

 Cycle   3  Pass 0  IDiag  1:
 E= -386.094597888809     Delta-E=       -0.134468311443 Rises=F Damp=F
 DIIS: error= 6.05D-03 at cycle   3 NSaved=   3.
 NSaved= 3 IEnMin= 3 EnMin= -386.094597888809     IErMin= 3 ErrMin= 6.05D-03
 ErrMax= 6.05D-03  0.00D+00 EMaxC= 1.00D-01 BMatC= 5.76D-03 BMatP= 1.07D-02
 IDIUse=3 WtCom= 9.40D-01 WtEn= 6.05D-02
 Coeff-Com: -0.163D-01 0.401D+00 0.615D+00
 Coeff-En:   0.000D+00 0.000D+00 0.100D+01
 Coeff:     -0.153D-01 0.377D+00 0.638D+00
 Gap=     0.217 Goal=   None    Shift=    0.000
 RMSDP=9.37D-04 MaxDP=2.68D-02 DE=-1.34D-01 OVMax= 5.94D-02

 Cycle   4  Pass 0  IDiag  1:
 E= -386.096948827198     Delta-E=       -0.002350938389 Rises=F Damp=F
 DIIS: error= 5.04D-03 at cycle   4 NSaved=   4.
 NSaved= 4 IEnMin= 4 EnMin= -386.096948827198     IErMin= 4 ErrMin= 5.04D-03
 ErrMax= 5.04D-03  0.00D+00 EMaxC= 1.00D-01 BMatC= 3.48D-03 BMatP= 5.76D-03
 IDIUse=3 WtCom= 9.50D-01 WtEn= 5.04D-02
 Coeff-Com: -0.135D-01 0.771D-01 0.440D+00 0.497D+00
 Coeff-En:   0.000D+00 0.000D+00 0.407D+00 0.593D+00
 Coeff:     -0.128D-01 0.732D-01 0.438D+00 0.502D+00
 Gap=     0.215 Goal=   None    Shift=    0.000
 RMSDP=4.57D-04 MaxDP=1.07D-02 DE=-2.35D-03 OVMax= 2.75D-02

 Cycle   5  Pass 0  IDiag  1:
 E= -386.100754507007     Delta-E=       -0.003805679808 Rises=F Damp=F
 DIIS: error= 6.71D-04 at cycle   5 NSaved=   5.
 NSaved= 5 IEnMin= 5 EnMin= -386.100754507007     IErMin= 5 ErrMin= 6.71D-04
 ErrMax= 6.71D-04  0.00D+00 EMaxC= 1.00D-01 BMatC= 7.39D-05 BMatP= 3.48D-03
 IDIUse=3 WtCom= 9.93D-01 WtEn= 6.71D-03
 Coeff-Com: -0.487D-02 0.190D-01 0.188D+00 0.245D+00 0.553D+00
 Coeff-En:   0.000D+00 0.000D+00 0.000D+00 0.000D+00 0.100D+01
 Coeff:     -0.483D-02 0.188D-01 0.187D+00 0.243D+00 0.556D+00
 Gap=     0.215 Goal=   None    Shift=    0.000
 RMSDP=7.25D-05 MaxDP=1.69D-03 DE=-3.81D-03 OVMax= 4.11D-03

 Cycle   6  Pass 0  IDiag  1:
 E= -386.100814039342     Delta-E=       -0.000059532336 Rises=F Damp=F
 DIIS: error= 2.61D-04 at cycle   6 NSaved=   6.
 NSaved= 6 IEnMin= 6 EnMin= -386.100814039342     IErMin= 6 ErrMin= 2.61D-04
 ErrMax= 2.61D-04  0.00D+00 EMaxC= 1.00D-01 BMatC= 1.17D-05 BMatP= 7.39D-05
 IDIUse=3 WtCom= 9.97D-01 WtEn= 2.61D-03
 Coeff-Com: -0.923D-03 0.660D-03 0.477D-01 0.709D-01 0.321D+00 0.561D+00
 Coeff-En:   0.000D+00 0.000D+00 0.000D+00 0.000D+00 0.124D+00 0.876D+00
 Coeff:     -0.921D-03 0.658D-03 0.476D-01 0.708D-01 0.320D+00 0.562D+00
 Gap=     0.215 Goal=   None    Shift=    0.000
 RMSDP=2.52D-05 MaxDP=5.75D-04 DE=-5.95D-05 OVMax= 1.01D-03

 Cycle   7  Pass 0  IDiag  1:
 E= -386.100824406527     Delta-E=       -0.000010367185 Rises=F Damp=F
 DIIS: error= 5.00D-05 at cycle   7 NSaved=   7.
 NSaved= 7 IEnMin= 7 EnMin= -386.100824406527     IErMin= 7 ErrMin= 5.00D-05
 ErrMax= 5.00D-05  0.00D+00 EMaxC= 1.00D-01 BMatC= 3.35D-07 BMatP= 1.17D-05
 IDIUse=1 WtCom= 1.00D+00 WtEn= 0.00D+00
 Coeff-Com: -0.344D-03-0.120D-03 0.211D-01 0.319D-01 0.156D+00 0.295D+00
 Coeff-Com:  0.496D+00
 Coeff:     -0.344D-03-0.120D-03 0.211D-01 0.319D-01 0.156D+00 0.295D+00
 Coeff:      0.496D+00
 Gap=     0.215 Goal=   None    Shift=    0.000
 RMSDP=5.24D-06 MaxDP=1.51D-04 DE=-1.04D-05 OVMax= 3.36D-04

 Initial convergence to 1.0D-05 achieved.  Increase integral accuracy.
 Cycle   8  Pass 1  IDiag  1:
 E= -386.100808067207     Delta-E=        0.000016339319 Rises=F Damp=F
 DIIS: error= 1.45D-05 at cycle   1 NSaved=   1.
 NSaved= 1 IEnMin= 1 EnMin= -386.100808067207     IErMin= 1 ErrMin= 1.45D-05
 ErrMax= 1.45D-05  0.00D+00 EMaxC= 1.00D-01 BMatC= 5.27D-08 BMatP= 5.27D-08
 IDIUse=1 WtCom= 1.00D+00 WtEn= 0.00D+00
 Coeff-Com:  0.100D+01
 Coeff:      0.100D+01
 Gap=     0.215 Goal=   None    Shift=    0.000
 RMSDP=5.24D-06 MaxDP=1.51D-04 DE= 1.63D-05 OVMax= 3.01D-04

 Cycle   9  Pass 1  IDiag  1:
 E= -386.100807949111     Delta-E=        0.000000118097 Rises=F Damp=F
 DIIS: error= 2.76D-05 at cycle   2 NSaved=   2.
 NSaved= 2 IEnMin= 1 EnMin= -386.100808067207     IErMin= 1 ErrMin= 1.45D-05
 ErrMax= 2.76D-05  0.00D+00 EMaxC= 1.00D-01 BMatC= 1.61D-07 BMatP= 5.27D-08
 IDIUse=1 WtCom= 1.00D+00 WtEn= 0.00D+00
 Coeff-Com:  0.642D+00 0.358D+00
 Coeff:      0.642D+00 0.358D+00
 Gap=     0.215 Goal=   None    Shift=    0.000
 RMSDP=3.07D-06 MaxDP=6.86D-05 DE= 1.18D-07 OVMax= 2.04D-04

 Cycle  10  Pass 1  IDiag  1:
 E= -386.100808126833     Delta-E=       -0.000000177722 Rises=F Damp=F
 DIIS: error= 3.29D-06 at cycle   3 NSaved=   3.
 NSaved= 3 IEnMin= 3 EnMin= -386.100808126833     IErMin= 3 ErrMin= 3.29D-06
 ErrMax= 3.29D-06  0.00D+00 EMaxC= 1.00D-01 BMatC= 1.25D-09 BMatP= 5.27D-08
 IDIUse=1 WtCom= 1.00D+00 WtEn= 0.00D+00
 Coeff-Com:  0.142D+00 0.116D+00 0.742D+00
 Coeff:      0.142D+00 0.116D+00 0.742D+00
 Gap=     0.215 Goal=   None    Shift=    0.000
 RMSDP=3.85D-07 MaxDP=1.52D-05 DE=-1.78D-07 OVMax= 2.15D-05

 Cycle  11  Pass 1  IDiag  1:
 E= -386.100808127511     Delta-E=       -0.000000000678 Rises=F Damp=F
 DIIS: error= 2.06D-06 at cycle   4 NSaved=   4.
 NSaved= 4 IEnMin= 4 EnMin= -386.100808127511     IErMin= 4 ErrMin= 2.06D-06
 ErrMax= 2.06D-06  0.00D+00 EMaxC= 1.00D-01 BMatC= 6.72D-10 BMatP= 1.25D-09
 IDIUse=1 WtCom= 1.00D+00 WtEn= 0.00D+00
 Coeff-Com: -0.528D-02 0.209D-01 0.466D+00 0.518D+00
 Coeff:     -0.528D-02 0.209D-01 0.466D+00 0.518D+00
 Gap=     0.215 Goal=   None    Shift=    0.000
 RMSDP=1.76D-07 MaxDP=6.55D-06 DE=-6.78D-10 OVMax= 1.09D-05

 Cycle  12  Pass 1  IDiag  1:
 E= -386.100808128153     Delta-E=       -0.000000000643 Rises=F Damp=F
 DIIS: error= 3.07D-07 at cycle   5 NSaved=   5.
 NSaved= 5 IEnMin= 5 EnMin= -386.100808128153     IErMin= 5 ErrMin= 3.07D-07
 ErrMax= 3.07D-07  0.00D+00 EMaxC= 1.00D-01 BMatC= 1.22D-11 BMatP= 6.72D-10
 IDIUse=1 WtCom= 1.00D+00 WtEn= 0.00D+00
 Coeff-Com: -0.708D-02 0.607D-02 0.187D+00 0.232D+00 0.582D+00
 Coeff:     -0.708D-02 0.607D-02 0.187D+00 0.232D+00 0.582D+00
 Gap=     0.215 Goal=   None    Shift=    0.000
 RMSDP=3.59D-08 MaxDP=8.61D-07 DE=-6.43D-10 OVMax= 1.95D-06

 SCF Done:  E(RB3LYP) =  -386.100808128     A.U. after   12 cycles
            NFock= 12  Conv=0.36D-07     -V/T= 2.0094
 KE= 3.824912536923D+02 PE=-1.747551065315D+03 EE= 5.536137712316D+02
 Leave Link  502 at Wed Dec 03 16:29:46 2025, MaxMem=   104857600 cpu:              12.0 elap:              11.6
 (Enter D:\Gaussian\G16W\l601.exe)
 Copying SCF densities to generalized density rwf, IOpCl= 0 IROHF=0.

 **********************************************************************

            Population analysis using the SCF density.

 **********************************************************************

 Orbital symmetries:
       Occupied  (A) (A) (A) (A) (A) (A) (A) (A) (A) (A) (A) (A)
                 (A) (A) (A) (A) (A) (A) (A) (A) (A) (A) (A) (A)
                 (A) (A) (A) (A) (A) (A) (A) (A) (A)
       Virtual   (A) (A) (A) (A) (A) (A) (A) (A) (A) (A) (A) (A)
                 (A) (A) (A) (A) (A) (A) (A) (A) (A) (A) (A) (A)
                 (A) (A) (A) (A) (A) (A) (A) (A) (A) (A) (A) (A)
                 (A) (A) (A) (A) (A) (A) (A) (A) (A) (A) (A) (A)
                 (A) (A) (A) (A) (A) (A) (A) (A) (A) (A) (A) (A)
                 (A) (A) (A) (A) (A) (A) (A) (A) (A) (A) (A) (A)
                 (A) (A) (A) (A) (A) (A) (A) (A) (A) (A) (A) (A)
                 (A) (A) (A) (A) (A) (A) (A) (A) (A) (A) (A) (A)
                 (A) (A) (A) (A) (A) (A) (A) (A) (A) (A) (A) (A)
                 (A) (A) (A) (A) (A) (A) (A) (A) (A) (A) (A) (A)
                 (A) (A)
 The electronic state is 1-A.
 Alpha  occ. eigenvalues --  -19.17344 -10.23790 -10.18552 -10.18279 -10.18176
 Alpha  occ. eigenvalues --  -10.18021 -10.17717 -10.17663 -10.17308  -1.05445
 Alpha  occ. eigenvalues --   -0.84749  -0.77152  -0.75094  -0.68230  -0.67144
 Alpha  occ. eigenvalues --   -0.61271  -0.56538  -0.53414  -0.47880  -0.45462
 Alpha  occ. eigenvalues --   -0.42753  -0.42264  -0.40770  -0.40275  -0.39665
 Alpha  occ. eigenvalues --   -0.38269  -0.37749  -0.36232  -0.34105  -0.32678
 Alpha  occ. eigenvalues --   -0.31602  -0.23754  -0.20691
 Alpha virt. eigenvalues --    0.00837   0.02172   0.07215   0.10333   0.12485
 Alpha virt. eigenvalues --    0.13289   0.14790   0.14933   0.16353   0.19019
 Alpha virt. eigenvalues --    0.19233   0.20341   0.21940   0.24449   0.25121
 Alpha virt. eigenvalues --    0.27129   0.33591   0.34360   0.36806   0.38874
 Alpha virt. eigenvalues --    0.48315   0.48542   0.51993   0.54481   0.55574
 Alpha virt. eigenvalues --    0.55631   0.56834   0.57955   0.58183   0.61438
 Alpha virt. eigenvalues --    0.61981   0.64721   0.65107   0.66603   0.69282
 Alpha virt. eigenvalues --    0.69990   0.71799   0.75532   0.77122   0.77271
 Alpha virt. eigenvalues --    0.78497   0.80281   0.83619   0.85581   0.88151
 Alpha virt. eigenvalues --    0.88412   0.88793   0.89359   0.91639   0.94910
 Alpha virt. eigenvalues --    0.95282   0.96765   0.99191   1.00198   1.01696
 Alpha virt. eigenvalues --    1.05603   1.07351   1.12967   1.16310   1.20349
 Alpha virt. eigenvalues --    1.22748   1.25546   1.25887   1.34482   1.35685
 Alpha virt. eigenvalues --    1.40305   1.42052   1.44176   1.46123   1.47095
 Alpha virt. eigenvalues --    1.50952   1.53922   1.73681   1.74696   1.78243
 Alpha virt. eigenvalues --    1.79150   1.84349   1.85984   1.86955   1.89343
 Alpha virt. eigenvalues --    1.90287   1.90898   1.93387   1.97304   2.00260
 Alpha virt. eigenvalues --    2.01809   2.08056   2.11184   2.15376   2.18526
 Alpha virt. eigenvalues --    2.18631   2.28428   2.29593   2.31148   2.31696
 Alpha virt. eigenvalues --    2.33462   2.35997   2.36583   2.36735   2.41161
 Alpha virt. eigenvalues --    2.47316   2.54571   2.60105   2.64990   2.67711
 Alpha virt. eigenvalues --    2.73144   2.79204   2.80879   2.88050   2.91264
 Alpha virt. eigenvalues --    3.01486   3.15676   3.43431   3.97254   4.10799
 Alpha virt. eigenvalues --    4.12630   4.17342   4.25542   4.30342   4.42137
 Alpha virt. eigenvalues --    4.48341   4.77266
          Condensed to atoms (all electrons):
               1          2          3          4          5          6
     1  C    4.636262   0.506081  -0.016866  -0.042556  -0.021265   0.568241
     2  C    0.506081   5.061034   0.550376  -0.013978  -0.066817  -0.022580
     3  C   -0.016866   0.550376   4.744273   0.508237  -0.061400  -0.037915
     4  C   -0.042556  -0.013978   0.508237   4.622153   0.478626  -0.007082
     5  C   -0.021265  -0.066817  -0.061400   0.478626   5.153197   0.466909
     6  C    0.568241  -0.022580  -0.037915  -0.007082   0.466909   4.957661
     7  H    0.003355   0.001178   0.003959  -0.043759   0.338068  -0.030664
     8  O    0.000167   0.003533  -0.065259   0.298099  -0.069437   0.004358
     9  H   -0.038158   0.006458   0.000699   0.003216  -0.043215   0.348460
    10  H   -0.000068  -0.000023   0.008277  -0.031283  -0.006931   0.000537
    11  C    0.348440  -0.065122   0.005848   0.000620   0.008186  -0.055722
    12  H   -0.027321  -0.002754  -0.000034   0.000028  -0.000190   0.000542
    13  H   -0.027322  -0.002754  -0.000034   0.000028  -0.000190   0.000544
    14  H   -0.029092   0.003405  -0.000126  -0.000003   0.000160  -0.002695
    15  H   -0.054612   0.351938  -0.044612   0.006964   0.000158   0.006549
    16  C    0.006967  -0.058030   0.334529  -0.060939   0.010191  -0.000018
    17  H   -0.000137   0.000674  -0.026146  -0.005038  -0.000049   0.000018
    18  H   -0.000137   0.000679  -0.026145  -0.005042  -0.000049   0.000018
    19  H    0.000033  -0.003859  -0.027976   0.004708  -0.000171   0.000011
               7          8          9         10         11         12
     1  C    0.003355   0.000167  -0.038158  -0.000068   0.348440  -0.027321
     2  C    0.001178   0.003533   0.006458  -0.000023  -0.065122  -0.002754
     3  C    0.003959  -0.065259   0.000699   0.008277   0.005848  -0.000034
     4  C   -0.043759   0.298099   0.003216  -0.031283   0.000620   0.000028
     5  C    0.338068  -0.069437  -0.043215  -0.006931   0.008186  -0.000190
     6  C   -0.030664   0.004358   0.348460   0.000537  -0.055722   0.000542
     7  H    0.619462  -0.005310  -0.005872   0.007816  -0.000203   0.000003
     8  O   -0.005310   8.231947  -0.000056   0.243779   0.000000   0.000000
     9  H   -0.005872  -0.000056   0.613128  -0.000015  -0.010605   0.000117
    10  H    0.007816   0.243779  -0.000015   0.372185  -0.000001   0.000000
    11  C   -0.000203   0.000000  -0.010605  -0.000001   5.216890   0.363045
    12  H    0.000003   0.000000   0.000117   0.000000   0.363045   0.568987
    13  H    0.000003   0.000000   0.000117   0.000000   0.363045  -0.034767
    14  H   -0.000009   0.000000   0.007036   0.000000   0.364526  -0.028329
    15  H    0.000020  -0.000063  -0.000210   0.000008  -0.008502   0.002136
    16  C   -0.000202  -0.003025   0.000011  -0.000506  -0.000189  -0.000001
    17  H    0.000001   0.003322   0.000000  -0.000050   0.000003   0.000000
    18  H    0.000001   0.003329   0.000000  -0.000051   0.000003   0.000000
    19  H    0.000003   0.000306   0.000000  -0.000002  -0.000009   0.000000
              13         14         15         16         17         18
     1  C   -0.027322  -0.029092  -0.054612   0.006967  -0.000137  -0.000137
     2  C   -0.002754   0.003405   0.351938  -0.058030   0.000674   0.000679
     3  C   -0.000034  -0.000126  -0.044612   0.334529  -0.026146  -0.026145
     4  C    0.000028  -0.000003   0.006964  -0.060939  -0.005038  -0.005042
     5  C   -0.000190   0.000160   0.000158   0.010191  -0.000049  -0.000049
     6  C    0.000544  -0.002695   0.006549  -0.000018   0.000018   0.000018
     7  H    0.000003  -0.000009   0.000020  -0.000202   0.000001   0.000001
     8  O    0.000000   0.000000  -0.000063  -0.003025   0.003322   0.003329
     9  H    0.000117   0.007036  -0.000210   0.000011   0.000000   0.000000
    10  H    0.000000   0.000000   0.000008  -0.000506  -0.000050  -0.000051
    11  C    0.363045   0.364526  -0.008502  -0.000189   0.000003   0.000003
    12  H   -0.034767  -0.028329   0.002136  -0.000001   0.000000   0.000000
    13  H    0.568984  -0.028327   0.002138  -0.000001   0.000000   0.000000
    14  H   -0.028327   0.562264   0.000008   0.000002   0.000000   0.000000
    15  H    0.002138   0.000008   0.629174  -0.011954   0.000120   0.000120
    16  C   -0.000001   0.000002  -0.011954   5.207485   0.365580   0.365582
    17  H    0.000000   0.000000   0.000120   0.365580   0.558090  -0.033865
    18  H    0.000000   0.000000   0.000120   0.365582  -0.033865   0.558065
    19  H    0.000000   0.000000   0.007537   0.358480  -0.028469  -0.028464
              19
     1  C    0.000033
     2  C   -0.003859
     3  C   -0.027976
     4  C    0.004708
     5  C   -0.000171
     6  C    0.000011
     7  H    0.000003
     8  O    0.000306
     9  H    0.000000
    10  H   -0.000002
    11  C   -0.000009
    12  H    0.000000
    13  H    0.000000
    14  H    0.000000
    15  H    0.007537
    16  C    0.358480
    17  H   -0.028469
    18  H   -0.028464
    19  H    0.571490
 Mulliken charges:
               1
     1  C    0.187988
     2  C   -0.249440
     3  C    0.150316
     4  C    0.287004
     5  C   -0.185780
     6  C   -0.197173
     7  H    0.112150
     8  O   -0.645691
     9  H    0.118889
    10  H    0.406329
    11  C   -0.530254
    12  H    0.158539
    13  H    0.158536
    14  H    0.151181
    15  H    0.113081
    16  C   -0.513961
    17  H    0.165947
    18  H    0.165957
    19  H    0.146382
 Sum of Mulliken charges =   0.00000
 Mulliken charges with hydrogens summed into heavy atoms:
               1
     1  C    0.187988
     2  C   -0.136358
     3  C    0.150316
     4  C    0.287004
     5  C   -0.073630
     6  C   -0.078283
     8  O   -0.239362
    11  C   -0.061998
    16  C   -0.035676
 Electronic spatial extent (au):  <R**2>=           1279.8556
 Charge=              0.0000 electrons
 Dipole moment (field-independent basis, Debye):
    X=             -0.1987    Y=             -1.0495    Z=             -0.0001  Tot=              1.0681
 Quadrupole moment (field-independent basis, Debye-Ang):
   XX=            -51.4592   YY=            -45.8848   ZZ=            -56.1404
   XY=             -3.5236   XZ=              0.0001   YZ=              0.0000
 Traceless Quadrupole moment (field-independent basis, Debye-Ang):
   XX=             -0.2978   YY=              5.2767   ZZ=             -4.9789
   XY=             -3.5236   XZ=              0.0001   YZ=              0.0000
 Octapole moment (field-independent basis, Debye-Ang**2):
  XXX=              4.1115  YYY=            -16.2403  ZZZ=              0.0027  XYY=             14.2659
  XXY=            -11.6714  XXZ=             -0.0017  XZZ=              4.9086  YZZ=              0.7864
  YYZ=              0.0003  XYZ=             -0.0002
 Hexadecapole moment (field-independent basis, Debye-Ang**3):
 XXXX=          -1095.7258 YYYY=           -485.8093 ZZZZ=            -69.0868 XXXY=            -33.0069
 XXXZ=             -0.0547 YYYX=            -40.7176 YYYZ=             -0.0084 ZZZX=             -0.0489
 ZZZY=             -0.0032 XXYY=           -230.4748 XXZZ=           -193.3936 YYZZ=           -104.4038
 XXYZ=             -0.0005 YYXZ=             -0.0114 ZZXY=             -5.0836
 N-N= 4.253452322629D+02 E-N=-1.747551071226D+03  KE= 3.824912536923D+02
 No NMR shielding tensors so no spin-rotation constants.
 Leave Link  601 at Wed Dec 03 16:29:46 2025, MaxMem=   104857600 cpu:               0.0 elap:               0.1
 (Enter D:\Gaussian\G16W\l9999.exe)
 1|1|UNPC-PC-20250526LCFF|SP|RB3LYP|6-31G(d)|C8H10O1|ADMINISTRATOR|03-D
 ec-2025|0||#P B3LYP/6-31G* SCF=conver=7 out=wfn||Generated by Multiwfn
  (http://sobereva.com/multiwfn)||0,1|C,0,-1.605709,0.058001,-0.000159|
 C,0,-0.609836,1.043604,-0.000061|C,0,0.7501,0.744594,0.000068|C,0,1.12
 2993,-0.609461,0.000096|C,0,0.155387,-1.609174,-0.000012|C,0,-1.198311
 ,-1.274466,-0.000135|H,0,0.457722,-2.653044,-0.000002|O,0,2.467256,-0.
 882643,0.000238|H,0,-1.940235,-2.066207,-0.000219|H,0,2.593085,-1.8367
 94,0.000187|C,0,-3.067708,0.437977,-0.000275|H,0,-3.326827,1.033957,0.
 880732|H,0,-3.326594,1.034318,-0.881104|H,0,-3.706495,-0.447702,-0.000
 538|H,0,-0.904039,2.089928,-0.000102|C,0,1.809631,1.815347,0.000205|H,
 0,2.458134,1.729558,0.877343|H,0,2.458923,1.729008,-0.876281|H,0,1.358
 995,2.809593,-0.000283||Version=EM64W-G16RevA.03|State=1-A|HF=-386.100
 8081|RMSD=3.595e-008|Dipole=-0.0781692,-0.4128943,-0.000027|Quadrupole
 =-0.2213715,3.9230726,-3.701701,-2.6197106,0.0000998,0.0000254|PG=C01 
 [X(C8H10O1)]||@

 Writing a WFN file to "N.wfn"


 It takes a long time to grow an old friend.
                            -- John Leonard
 Job cpu time:       0 days  0 hours  0 minutes 13.0 seconds.
 Elapsed time:       0 days  0 hours  0 minutes 13.5 seconds.
 File lengths (MBytes):  RWF=     15 Int=      0 D2E=      0 Chk=      3 Scr=      1
 Normal termination of Gaussian 16 at Wed Dec 03 16:29:46 2025.
