 Generated by Multiwfn (http://sobereva.com/multiwfn)
GAUSSIAN             33 MOL ORBITALS    292 PRIMITIVES       19 NUCLEI
  C    1    (CENTRE  1)  -3.03435023  0.10960555 -0.00030044  CHARGE =  6.0
  C    2    (CENTRE  2)  -1.15242323  1.97212552 -0.00011524  CHARGE =  6.0
  C    3    (CENTRE  3)   1.41748342  1.40707882  0.00012853  CHARGE =  6.0
  C    4    (CENTRE  4)   2.12214938 -1.15171420  0.00018144  CHARGE =  6.0
  C    5    (CENTRE  5)   0.29363928 -3.04089820 -0.00002265  CHARGE =  6.0
  C    6    (CENTRE  6)  -2.26447928 -2.40839206 -0.00025508  CHARGE =  6.0
  H    7    (CENTRE  7)   0.86496987 -5.01352654 -0.00000375  CHARGE =  1.0
  O    8    (CENTRE  8)   4.66243835 -1.66795305  0.00044978  CHARGE =  8.0
  H    9    (CENTRE  9)  -3.66651226 -3.90456588 -0.00041382  CHARGE =  1.0
  H   10    (CENTRE 10)   4.90022092 -3.47103709  0.00035341  CHARGE =  1.0
  C   11    (CENTRE 11)  -5.79712802  0.82765578 -0.00051965  CHARGE =  6.0
  H   12    (CENTRE 12)  -6.28679211  1.95389470  1.66434230  CHARGE =  1.0
  H   13    (CENTRE 13)  -6.28635180  1.95457689 -1.66504522  CHARGE =  1.0
  H   14    (CENTRE 14)  -7.00426030 -0.84603511 -0.00101664  CHARGE =  1.0
  H   15    (CENTRE 15)  -1.70838657  3.94939124 -0.00019272  CHARGE =  1.0
  C   16    (CENTRE 16)   3.41970658  3.43050899  0.00038742  CHARGE =  6.0
  H   17    (CENTRE 17)   4.64519966  3.26839142  1.65793802  CHARGE =  1.0
  H   18    (CENTRE 18)   4.64669066  3.26735207 -1.65593107  CHARGE =  1.0
  H   19    (CENTRE 19)   2.56812773  5.30936152 -0.00053476  CHARGE =  1.0
CENTRE ASSIGNMENTS    1  1  1  1  1  1  1  1  1  1  1  1  1  1  1  1  1  1  1  1
CENTRE ASSIGNMENTS    1  1  1  1  1  1  1  1  2  2  2  2  2  2  2  2  2  2  2  2
CENTRE ASSIGNMENTS    2  2  2  2  2  2  2  2  2  2  2  2  2  2  2  2  3  3  3  3
CENTRE ASSIGNMENTS    3  3  3  3  3  3  3  3  3  3  3  3  3  3  3  3  3  3  3  3
CENTRE ASSIGNMENTS    3  3  3  3  4  4  4  4  4  4  4  4  4  4  4  4  4  4  4  4
CENTRE ASSIGNMENTS    4  4  4  4  4  4  4  4  4  4  4  4  5  5  5  5  5  5  5  5
CENTRE ASSIGNMENTS    5  5  5  5  5  5  5  5  5  5  5  5  5  5  5  5  5  5  5  5
CENTRE ASSIGNMENTS    6  6  6  6  6  6  6  6  6  6  6  6  6  6  6  6  6  6  6  6
CENTRE ASSIGNMENTS    6  6  6  6  6  6  6  6  7  7  7  7  8  8  8  8  8  8  8  8
CENTRE ASSIGNMENTS    8  8  8  8  8  8  8  8  8  8  8  8  8  8  8  8  8  8  8  8
CENTRE ASSIGNMENTS    9  9  9  9 10 10 10 10 11 11 11 11 11 11 11 11 11 11 11 11
CENTRE ASSIGNMENTS   11 11 11 11 11 11 11 11 11 11 11 11 11 11 11 11 12 12 12 12
CENTRE ASSIGNMENTS   13 13 13 13 14 14 14 14 15 15 15 15 16 16 16 16 16 16 16 16
CENTRE ASSIGNMENTS   16 16 16 16 16 16 16 16 16 16 16 16 16 16 16 16 16 16 16 16
CENTRE ASSIGNMENTS   17 17 17 17 18 18 18 18 19 19 19 19
TYPE ASSIGNMENTS      1  1  1  1  1  1  1  1  1  2  2  2  3  3  3  4  4  4  1  2
TYPE ASSIGNMENTS      3  4  5  6  7  8  9 10  1  1  1  1  1  1  1  1  1  2  2  2
TYPE ASSIGNMENTS      3  3  3  4  4  4  1  2  3  4  5  6  7  8  9 10  1  1  1  1
TYPE ASSIGNMENTS      1  1  1  1  1  2  2  2  3  3  3  4  4  4  1  2  3  4  5  6
TYPE ASSIGNMENTS      7  8  9 10  1  1  1  1  1  1  1  1  1  2  2  2  3  3  3  4
TYPE ASSIGNMENTS      4  4  1  2  3  4  5  6  7  8  9 10  1  1  1  1  1  1  1  1
TYPE ASSIGNMENTS      1  2  2  2  3  3  3  4  4  4  1  2  3  4  5  6  7  8  9 10
TYPE ASSIGNMENTS      1  1  1  1  1  1  1  1  1  2  2  2  3  3  3  4  4  4  1  2
TYPE ASSIGNMENTS      3  4  5  6  7  8  9 10  1  1  1  1  1  1  1  1  1  1  1  1
TYPE ASSIGNMENTS      1  2  2  2  3  3  3  4  4  4  1  2  3  4  5  6  7  8  9 10
TYPE ASSIGNMENTS      1  1  1  1  1  1  1  1  1  1  1  1  1  1  1  1  1  2  2  2
TYPE ASSIGNMENTS      3  3  3  4  4  4  1  2  3  4  5  6  7  8  9 10  1  1  1  1
TYPE ASSIGNMENTS      1  1  1  1  1  1  1  1  1  1  1  1  1  1  1  1  1  1  1  1
TYPE ASSIGNMENTS      1  2  2  2  3  3  3  4  4  4  1  2  3  4  5  6  7  8  9 10
TYPE ASSIGNMENTS      1  1  1  1  1  1  1  1  1  1  1  1
EXPONENTS  0.3047525D+04 0.4573695D+03 0.1039487D+03 0.2921016D+02 0.9286663D+01
EXPONENTS  0.3163927D+01 0.7868272D+01 0.1881289D+01 0.5442493D+00 0.7868272D+01
EXPONENTS  0.1881289D+01 0.5442493D+00 0.7868272D+01 0.1881289D+01 0.5442493D+00
EXPONENTS  0.7868272D+01 0.1881289D+01 0.5442493D+00 0.1687145D+00 0.1687145D+00
EXPONENTS  0.1687145D+00 0.1687145D+00 0.8000000D+00 0.8000000D+00 0.8000000D+00
EXPONENTS  0.8000000D+00 0.8000000D+00 0.8000000D+00 0.3047525D+04 0.4573695D+03
EXPONENTS  0.1039487D+03 0.2921016D+02 0.9286663D+01 0.3163927D+01 0.7868272D+01
EXPONENTS  0.1881289D+01 0.5442493D+00 0.7868272D+01 0.1881289D+01 0.5442493D+00
EXPONENTS  0.7868272D+01 0.1881289D+01 0.5442493D+00 0.7868272D+01 0.1881289D+01
EXPONENTS  0.5442493D+00 0.1687145D+00 0.1687145D+00 0.1687145D+00 0.1687145D+00
EXPONENTS  0.8000000D+00 0.8000000D+00 0.8000000D+00 0.8000000D+00 0.8000000D+00
EXPONENTS  0.8000000D+00 0.3047525D+04 0.4573695D+03 0.1039487D+03 0.2921016D+02
EXPONENTS  0.9286663D+01 0.3163927D+01 0.7868272D+01 0.1881289D+01 0.5442493D+00
EXPONENTS  0.7868272D+01 0.1881289D+01 0.5442493D+00 0.7868272D+01 0.1881289D+01
EXPONENTS  0.5442493D+00 0.7868272D+01 0.1881289D+01 0.5442493D+00 0.1687145D+00
EXPONENTS  0.1687145D+00 0.1687145D+00 0.1687145D+00 0.8000000D+00 0.8000000D+00
EXPONENTS  0.8000000D+00 0.8000000D+00 0.8000000D+00 0.8000000D+00 0.3047525D+04
EXPONENTS  0.4573695D+03 0.1039487D+03 0.2921016D+02 0.9286663D+01 0.3163927D+01
EXPONENTS  0.7868272D+01 0.1881289D+01 0.5442493D+00 0.7868272D+01 0.1881289D+01
EXPONENTS  0.5442493D+00 0.7868272D+01 0.1881289D+01 0.5442493D+00 0.7868272D+01
EXPONENTS  0.1881289D+01 0.5442493D+00 0.1687145D+00 0.1687145D+00 0.1687145D+00
EXPONENTS  0.1687145D+00 0.8000000D+00 0.8000000D+00 0.8000000D+00 0.8000000D+00
EXPONENTS  0.8000000D+00 0.8000000D+00 0.3047525D+04 0.4573695D+03 0.1039487D+03
EXPONENTS  0.2921016D+02 0.9286663D+01 0.3163927D+01 0.7868272D+01 0.1881289D+01
EXPONENTS  0.5442493D+00 0.7868272D+01 0.1881289D+01 0.5442493D+00 0.7868272D+01
EXPONENTS  0.1881289D+01 0.5442493D+00 0.7868272D+01 0.1881289D+01 0.5442493D+00
EXPONENTS  0.1687145D+00 0.1687145D+00 0.1687145D+00 0.1687145D+00 0.8000000D+00
EXPONENTS  0.8000000D+00 0.8000000D+00 0.8000000D+00 0.8000000D+00 0.8000000D+00
EXPONENTS  0.3047525D+04 0.4573695D+03 0.1039487D+03 0.2921016D+02 0.9286663D+01
EXPONENTS  0.3163927D+01 0.7868272D+01 0.1881289D+01 0.5442493D+00 0.7868272D+01
EXPONENTS  0.1881289D+01 0.5442493D+00 0.7868272D+01 0.1881289D+01 0.5442493D+00
EXPONENTS  0.7868272D+01 0.1881289D+01 0.5442493D+00 0.1687145D+00 0.1687145D+00
EXPONENTS  0.1687145D+00 0.1687145D+00 0.8000000D+00 0.8000000D+00 0.8000000D+00
EXPONENTS  0.8000000D+00 0.8000000D+00 0.8000000D+00 0.1873114D+02 0.2825394D+01
EXPONENTS  0.6401217D+00 0.1612778D+00 0.5484672D+04 0.8252349D+03 0.1880470D+03
EXPONENTS  0.5296450D+02 0.1689757D+02 0.5799635D+01 0.1553962D+02 0.3599934D+01
EXPONENTS  0.1013762D+01 0.1553962D+02 0.3599934D+01 0.1013762D+01 0.1553962D+02
EXPONENTS  0.3599934D+01 0.1013762D+01 0.1553962D+02 0.3599934D+01 0.1013762D+01
EXPONENTS  0.2700058D+00 0.2700058D+00 0.2700058D+00 0.2700058D+00 0.8000000D+00
EXPONENTS  0.8000000D+00 0.8000000D+00 0.8000000D+00 0.8000000D+00 0.8000000D+00
EXPONENTS  0.1873114D+02 0.2825394D+01 0.6401217D+00 0.1612778D+00 0.1873114D+02
EXPONENTS  0.2825394D+01 0.6401217D+00 0.1612778D+00 0.3047525D+04 0.4573695D+03
EXPONENTS  0.1039487D+03 0.2921016D+02 0.9286663D+01 0.3163927D+01 0.7868272D+01
EXPONENTS  0.1881289D+01 0.5442493D+00 0.7868272D+01 0.1881289D+01 0.5442493D+00
EXPONENTS  0.7868272D+01 0.1881289D+01 0.5442493D+00 0.7868272D+01 0.1881289D+01
EXPONENTS  0.5442493D+00 0.1687145D+00 0.1687145D+00 0.1687145D+00 0.1687145D+00
EXPONENTS  0.8000000D+00 0.8000000D+00 0.8000000D+00 0.8000000D+00 0.8000000D+00
EXPONENTS  0.8000000D+00 0.1873114D+02 0.2825394D+01 0.6401217D+00 0.1612778D+00
EXPONENTS  0.1873114D+02 0.2825394D+01 0.6401217D+00 0.1612778D+00 0.1873114D+02
EXPONENTS  0.2825394D+01 0.6401217D+00 0.1612778D+00 0.1873114D+02 0.2825394D+01
EXPONENTS  0.6401217D+00 0.1612778D+00 0.3047525D+04 0.4573695D+03 0.1039487D+03
EXPONENTS  0.2921016D+02 0.9286663D+01 0.3163927D+01 0.7868272D+01 0.1881289D+01
EXPONENTS  0.5442493D+00 0.7868272D+01 0.1881289D+01 0.5442493D+00 0.7868272D+01
EXPONENTS  0.1881289D+01 0.5442493D+00 0.7868272D+01 0.1881289D+01 0.5442493D+00
EXPONENTS  0.1687145D+00 0.1687145D+00 0.1687145D+00 0.1687145D+00 0.8000000D+00
EXPONENTS  0.8000000D+00 0.8000000D+00 0.8000000D+00 0.8000000D+00 0.8000000D+00
EXPONENTS  0.1873114D+02 0.2825394D+01 0.6401217D+00 0.1612778D+00 0.1873114D+02
EXPONENTS  0.2825394D+01 0.6401217D+00 0.1612778D+00 0.1873114D+02 0.2825394D+01
EXPONENTS  0.6401217D+00 0.1612778D+00
MO    1     MO 0.0        OCC NO =    2.0000000  ORB. ENERGY =  -19.173436
  0.79793166D-05  0.14720281D-04  0.23763098D-04  0.30932493D-04  0.26394752D-04
  0.91134736D-05 -0.35121529D-04 -0.16187481D-04  0.45391386D-04  0.47593100D-04
  0.36491370D-04  0.18211751D-04 -0.10297446D-04 -0.78954288D-05 -0.39403723D-05
  0.52004301D-08  0.39873600D-08  0.19899721D-08 -0.24248141D-03 -0.17988982D-03
  0.48787455D-04 -0.14546957D-07  0.78733915D-05 -0.35125576D-04  0.34836800D-04
 -0.18962523D-04 -0.37034601D-08 -0.51206904D-09  0.36314011D-06  0.66992259D-06
  0.10814628D-05  0.14077432D-05  0.12012298D-05  0.41475579D-06  0.13160676D-04
  0.60657437D-05 -0.17008978D-04  0.78631664D-04  0.60289773D-04  0.30088822D-04
 -0.44927443D-04 -0.34447514D-04 -0.17191724D-04  0.69266269D-08  0.53108982D-08
  0.26505104D-08  0.43591398D-03  0.93025533D-04 -0.15081237D-03  0.16912864D-08
  0.63520979D-04  0.18971865D-04  0.16923268D-04 -0.18604234D-08 -0.52070020D-08
  0.91221065D-08 -0.36686148D-05 -0.67678780D-05 -0.10925453D-04 -0.14221694D-04
 -0.12135397D-04 -0.41900611D-05 -0.29775435D-04 -0.13723471D-04  0.38482044D-04
 -0.81415282D-04 -0.62424074D-04 -0.31153988D-04 -0.53414483D-04 -0.40954838D-04
 -0.20439334D-04 -0.18797168D-07 -0.14412476D-07 -0.71928356D-08 -0.98802420D-04
  0.46716459D-03  0.20599638D-03  0.72085087D-07 -0.96337141D-04 -0.81356971D-04
 -0.13098135D-04  0.63051339D-04  0.62998682D-08  0.30879209D-07 -0.25369432D-04
 -0.46801649D-04 -0.75552373D-04 -0.98346741D-04 -0.83919452D-04 -0.28975370D-04
 -0.60083870D-04 -0.27692601D-04  0.77652943D-04  0.53916844D-03  0.41340016D-03
  0.20631565D-03 -0.45215977D-04 -0.34668743D-04 -0.17302133D-04  0.68830507D-07
  0.52774867D-07  0.26338357D-07 -0.74294007D-04 -0.77428440D-03 -0.31181809D-04
 -0.92880436D-07 -0.12106560D-04 -0.62083075D-04 -0.89947377D-04  0.14540421D-04
  0.20561821D-07 -0.46266654D-08  0.13045594D-04  0.24066574D-04  0.38850913D-04
  0.50572345D-04  0.43153474D-04  0.14899857D-04 -0.86627639D-04 -0.39926600D-04
  0.11195835D-03 -0.96285822D-04 -0.73825861D-04 -0.36844279D-04 -0.39944595D-04
 -0.30626982D-04 -0.15285011D-04 -0.70566230D-08 -0.54105709D-08 -0.27002541D-08
 -0.65329909D-03  0.13538374D-03 -0.30205800D-03  0.12155302D-07 -0.95331411D-04
 -0.52250555D-04  0.51783666D-04  0.12418596D-04 -0.23208875D-07  0.60560261D-08
 -0.55235749D-05 -0.10189917D-04 -0.16449686D-04 -0.21412603D-04 -0.18271413D-04
 -0.63086799D-05  0.31669789D-04  0.14596577D-04 -0.40930325D-04  0.89603057D-04
  0.68701941D-04  0.34287084D-04 -0.48331673D-05 -0.37057662D-05 -0.18494370D-05
  0.95692768D-08  0.73371145D-08  0.36617343D-08  0.43558310D-03  0.14817157D-03
  0.84164569D-04  0.13236123D-07  0.48520178D-04  0.13207594D-04 -0.92599472D-05
 -0.61368945D-04  0.75194894D-08 -0.60972818D-08 -0.19915046D-04 -0.33779688D-04
 -0.38456980D-04 -0.75390570D-04  0.82562099D+00  0.15195834D+01  0.24589727D+01
  0.32323884D+01  0.27724008D+01  0.94793091D+00 -0.15789646D-01 -0.70453093D-02
  0.20804893D-01 -0.20242598D-02 -0.15595831D-02 -0.68474097D-03 -0.25952524D-02
 -0.19995021D-02 -0.87788911D-03 -0.43533363D-06 -0.33540110D-06 -0.14725915D-06
  0.39008713D-02 -0.34976493D-03  0.19302118D-03 -0.29411658D-07 -0.91992331D-02
 -0.93155007D-02 -0.92360900D-02 -0.12064543D-03 -0.86652775D-09 -0.24708190D-07
  0.32713131D-05  0.55487662D-05  0.63170741D-05  0.29242099D-04  0.94962472D-04
  0.16107433D-03  0.18337743D-03 -0.18103811D-03  0.42493788D-06  0.78392741D-06
  0.12655019D-05  0.16473075D-05  0.14056505D-05  0.48533732D-06 -0.46155275D-05
 -0.21272924D-05  0.59651499D-05 -0.32533702D-04 -0.24944779D-04 -0.12449193D-04
  0.73035137D-05  0.55998710D-05  0.27947281D-05 -0.59904806D-08 -0.45931205D-08
 -0.22922891D-08 -0.88918021D-04 -0.24265413D-04  0.75941205D-05  0.31907766D-09
 -0.99713205D-05  0.17670842D-05 -0.56602614D-05  0.26692323D-05 -0.91226410D-09
  0.34282528D-08  0.18926894D-05  0.32103594D-05  0.36548808D-05  0.92984356D-06
  0.18936727D-05  0.32120273D-05  0.36567796D-05  0.93151557D-06  0.76432704D-06
  0.12964433D-05  0.14759549D-05  0.71185728D-05  0.22642090D-05  0.38405270D-05
  0.43723043D-05  0.47101605D-04  0.20635177D-04  0.38067873D-04  0.61453350D-04
  0.79994002D-04  0.68259027D-04  0.23568202D-04 -0.69108530D-04 -0.31852058D-04
  0.89316496D-04  0.14311324D-03  0.10973015D-03  0.54763037D-04 -0.75158100D-04
 -0.57626464D-04 -0.28759644D-04  0.11269974D-06  0.86411014D-07  0.43125152D-07
 -0.39256806D-03  0.38463042D-04  0.17856046D-03 -0.58401917D-07  0.65226351D-04
  0.58108039D-04  0.28953089D-04 -0.12667245D-03  0.82968917D-07 -0.96119486D-07
  0.35219724D-04  0.59739317D-04  0.68011101D-04  0.10355664D-04  0.35253674D-04
  0.59796904D-04  0.68076662D-04  0.10248084D-04 -0.63906611D-06 -0.10839771D-05
 -0.12340696D-05 -0.53545121D-04
MO    2     MO 0.0        OCC NO =    2.0000000  ORB. ENERGY =  -10.237900
 -0.74791964D-04 -0.13797657D-03 -0.22273696D-03 -0.28993735D-03 -0.24740406D-03
 -0.85422677D-04  0.16193095D-03  0.74633829D-04 -0.20928105D-03 -0.13516082D-03
 -0.10363274D-03 -0.51720002D-04  0.37290996D-04  0.28592370D-04  0.14269597D-04
 -0.16423839D-07 -0.12592758D-07 -0.62846690D-08  0.12758993D-02  0.76538915D-03
 -0.17058542D-03  0.70293785D-07 -0.11172305D-04  0.59474638D-04 -0.14582687D-03
  0.40708341D-04  0.26162319D-07  0.87655147D-08  0.38579074D-04  0.71170858D-04
  0.11489183D-03  0.14955503D-03  0.12761558D-03  0.44062592D-04 -0.81375142D-04
 -0.37505729D-04  0.10516998D-03 -0.14337580D-03 -0.10993147D-03 -0.54863507D-04
  0.74574395D-04  0.57178916D-04  0.28536287D-04 -0.93476553D-08 -0.71671892D-08
 -0.35769297D-08 -0.15948455D-02 -0.20367783D-03  0.74784275D-03 -0.17502283D-07
  0.61023748D-04  0.16974547D-04  0.39387108D-04 -0.18462927D-04  0.86780589D-08
 -0.77296447D-08  0.24861143D-02  0.45863955D-02  0.74038644D-02  0.96376315D-02
  0.82238084D-02  0.28394834D-02  0.22167687D-03  0.10217067D-03 -0.28649721D-03
  0.11743951D-03  0.90045169D-04  0.44938850D-04  0.53486168D-03  0.41009801D-03
  0.20466765D-03  0.15017771D-07  0.11514674D-07  0.57466296D-08  0.22960320D-02
 -0.94443209D-03 -0.13025095D-02 -0.10557264D-06 -0.37610171D-03 -0.32243394D-03
 -0.33215521D-03  0.24579433D-03 -0.19155226D-07  0.17625417D-07  0.53256405D+00
  0.98247669D+00  0.15860220D+01  0.20645294D+01  0.17616667D+01  0.60826117D+00
 -0.19793305D-01 -0.91227161D-02  0.25581048D-01  0.11249124D-02  0.86251147D-03
  0.43045367D-03 -0.30912855D-03 -0.23702017D-03 -0.11828968D-03  0.11305564D-06
  0.86683896D-07  0.43261339D-07 -0.41131078D-02  0.19172944D-02 -0.44830056D-03
  0.19391156D-06 -0.92899719D-02 -0.10035439D-01 -0.10384366D-01 -0.13365301D-03
  0.23449965D-06 -0.41080303D-08  0.25272522D-02  0.46622869D-02  0.75263766D-02
  0.97971060D-02  0.83598883D-02  0.28864685D-02  0.26597457D-03  0.12258744D-03
 -0.34374797D-03 -0.14422627D-03 -0.11058356D-03 -0.55188944D-04 -0.34821784D-03
 -0.26699135D-03 -0.13324740D-03 -0.21145622D-07 -0.16213122D-07 -0.80914840D-08
  0.26063121D-02 -0.20126415D-03  0.12692121D-02 -0.20662793D-08 -0.51400553D-03
 -0.24601421D-03 -0.37839928D-03 -0.19443811D-03 -0.36010117D-07 -0.15473154D-07
  0.41167112D-04  0.75945283D-04  0.12259923D-03  0.15958778D-03  0.13617654D-03
  0.47018486D-04 -0.94633127D-04 -0.43616322D-04  0.12230472D-03 -0.15854230D-03
 -0.12156018D-03 -0.60667049D-04 -0.62177787D-05 -0.47673983D-05 -0.23792659D-05
 -0.16304593D-07 -0.12501328D-07 -0.62390387D-08 -0.15739195D-02 -0.52747737D-03
 -0.47961888D-03 -0.54774796D-07  0.75827026D-04  0.72311721D-05  0.51443136D-04
  0.28947859D-04  0.80330950D-08  0.51024554D-08  0.40689287D-04  0.69016732D-04
  0.78573110D-04  0.39129157D-03  0.13160548D-03  0.24222434D-03  0.39196470D-03
  0.51524858D-03  0.44192571D-03  0.15110191D-03 -0.71954243D-03 -0.32105843D-03
  0.94808984D-03  0.24210890D-04  0.18653186D-04  0.81897532D-05  0.80928732D-04
  0.62351225D-04  0.27375546D-04  0.70780532D-08  0.54532584D-08  0.23942742D-08
 -0.17522925D-02  0.80357544D-03 -0.17845539D-03  0.85884986D-07 -0.41408142D-03
  0.74782465D-03  0.10068740D-02  0.55791972D-03 -0.30458074D-06  0.48154852D-07
 -0.24508549D-04 -0.41571137D-04 -0.47327271D-04 -0.16041086D-03  0.37590564D-04
  0.63760712D-04  0.72589316D-04 -0.70581061D-04  0.45682724D-07  0.84275705D-07
  0.13604712D-06  0.17709292D-06  0.15111371D-06  0.52175934D-07  0.16139217D-04
  0.74385503D-05 -0.20858472D-04  0.94387023D-04  0.72369982D-04  0.36117693D-04
 -0.21884292D-04 -0.16779487D-04 -0.83741400D-05  0.12933030D-07  0.99162268D-08
  0.49488922D-08  0.32726780D-03  0.92982425D-04 -0.33083432D-04  0.11096209D-08
  0.16907809D-04  0.11067126D-04  0.52520144D-05 -0.66276739D-05 -0.86626569D-09
 -0.13347756D-08 -0.53224032D-05 -0.90278032D-05 -0.10277835D-04 -0.16811936D-05
 -0.53238346D-05 -0.90302311D-05 -0.10280599D-04 -0.16856338D-05 -0.54700574D-05
 -0.92782527D-05 -0.10562963D-04 -0.14933358D-04 -0.28555776D-04 -0.48436000D-04
 -0.55142674D-04 -0.19979647D-03 -0.27832065D-04 -0.51344725D-04 -0.82886306D-04
 -0.10789334D-03 -0.92065584D-04 -0.31788034D-04  0.95718861D-04  0.44116735D-04
 -0.12370793D-03 -0.15256742D-03 -0.11697902D-03 -0.58380730D-04 -0.10558259D-03
 -0.80954031D-04 -0.40401735D-04 -0.25094669D-07 -0.19241000D-07 -0.96026076D-08
  0.77984997D-03 -0.20942188D-03 -0.16821668D-03 -0.31659230D-07  0.56300202D-04
  0.33899423D-04 -0.41555561D-04  0.11414566D-03  0.20052152D-07  0.23839774D-07
 -0.20306048D-04 -0.34442901D-04 -0.39212025D-04 -0.35660272D-05 -0.20314340D-04
 -0.34456966D-04 -0.39228037D-04 -0.35629253D-05 -0.21804055D-04 -0.36983803D-04
 -0.42104753D-04 -0.26528385D-05
MO    3     MO 0.0        OCC NO =    2.0000000  ORB. ENERGY =  -10.185516
  0.16207705D-02  0.29900051D-02  0.48267954D-02  0.62830534D-02  0.53613409D-02
  0.18511422D-02 -0.10171191D-03 -0.46878927D-04  0.13145340D-03 -0.58527164D-06
 -0.44874917D-06 -0.22395729D-06 -0.17202420D-04 -0.13189725D-04 -0.65825971D-05
  0.96699562D-10  0.74143091D-10  0.37002599D-10 -0.61419469D-03 -0.33665015D-03
  0.12210484D-04 -0.31024766D-07  0.13198751D-04  0.74220562D-05  0.99761606D-05
  0.27603274D-04  0.50686194D-08  0.18955820D-08  0.17904777D-01  0.33030818D-01
  0.53321982D-01  0.69409378D-01  0.59227148D-01  0.20449711D-01 -0.41292284D-03
 -0.19031576D-03  0.53366526D-03 -0.44834652D-03 -0.34376368D-03 -0.17156217D-03
  0.16200217D-03  0.12421299D-03  0.61990987D-04 -0.37641705D-07 -0.28861272D-07
 -0.14403797D-07  0.15019012D-02  0.37203598D-03 -0.42361417D-03  0.30161248D-07
 -0.82328431D-03 -0.62103897D-03 -0.58419490D-03  0.87197429D-04 -0.50391024D-07
  0.12350248D-07  0.53216886D+00  0.98174763D+00  0.15848451D+01  0.20629974D+01
  0.17603594D+01  0.60780980D+00 -0.19895201D-01 -0.91696802D-02  0.25712740D-01
 -0.11777857D-04 -0.90305139D-05 -0.45068593D-05 -0.22376767D-03 -0.17157086D-03
 -0.85625884D-04  0.23469577D-07  0.17994983D-07  0.89807577D-08 -0.37563780D-02
  0.29062710D-03  0.36394067D-03  0.43347073D-07 -0.10131671D-01 -0.10148478D-01
 -0.10450309D-01 -0.14602302D-03  0.98116889D-07  0.25324001D-07 -0.27344629D-02
 -0.50445501D-02 -0.81434680D-02 -0.10600376D-01 -0.90453197D-02 -0.31231315D-02
  0.31342946D-03  0.14445935D-03 -0.40507910D-03  0.12114035D-03  0.92882733D-04
  0.46354994D-04 -0.46690952D-03 -0.35799660D-03 -0.17866540D-03  0.12875956D-07
  0.98724664D-08  0.49270527D-08  0.14607852D-02 -0.30882040D-03  0.48472858D-03
 -0.32358625D-07 -0.26806986D-03 -0.51725777D-03 -0.16274964D-03  0.76122031D-04
 -0.18390921D-07  0.80273778D-09 -0.24247926D-03 -0.44732689D-03 -0.72212430D-03
 -0.93999127D-03 -0.80209625D-03 -0.27694456D-03 -0.31073860D-05 -0.14321914D-05
  0.40160141D-05 -0.14855174D-05 -0.11390005D-05 -0.56844109D-06 -0.63440270D-05
 -0.48641975D-05 -0.24275755D-05  0.15913979D-08  0.12201829D-08  0.60895680D-09
 -0.48243844D-03  0.15521798D-03 -0.23217021D-03  0.12596177D-07  0.72357042D-04
  0.10797731D-03  0.25514141D-04  0.87157627D-04  0.15930396D-07  0.10315140D-07
 -0.26624538D-03 -0.49117073D-03 -0.79290185D-03 -0.10321226D-02 -0.88071210D-03
 -0.30408872D-03  0.75740588D-04  0.34908768D-04 -0.97887828D-04 -0.33769076D-04
 -0.25891986D-04 -0.12921915D-04 -0.90922649D-05 -0.69713720D-05 -0.34792032D-05
 -0.30229418D-08 -0.23178000D-08 -0.11567446D-08  0.53875562D-03  0.21901460D-03
  0.15586485D-03  0.22142371D-07 -0.66699450D-05 -0.44831599D-05 -0.65051481D-04
 -0.11686469D-04  0.10432938D-07 -0.76608232D-09 -0.13053965D-04 -0.22141996D-04
 -0.25207879D-04 -0.63366776D-04  0.10319275D-04  0.18992975D-04  0.30734219D-04
  0.40400991D-04  0.34651695D-04  0.11848003D-04  0.11932979D-04  0.53244722D-05
 -0.15723238D-04 -0.48552098D-05 -0.37406774D-05 -0.16423589D-05  0.53009248D-04
  0.40840768D-04  0.17931297D-04 -0.17915080D-07 -0.13802604D-07 -0.60600864D-08
 -0.28018124D-04 -0.40312938D-05 -0.52917288D-04  0.53763278D-08  0.10427616D-03
  0.10106950D-03 -0.52955574D-05 -0.97060634D-05  0.20447370D-07  0.88882383D-08
  0.10460210D-04  0.17742497D-04  0.20199205D-04  0.74714221D-04 -0.34575288D-05
 -0.58646233D-05 -0.66766663D-05  0.25447017D-04 -0.15250769D-04 -0.28134691D-04
 -0.45418115D-04 -0.59120891D-04 -0.50447964D-04 -0.17418470D-04  0.25144190D-04
  0.11588934D-04 -0.32496581D-04 -0.50058149D-04 -0.38381414D-04 -0.19155015D-04
 -0.98650421D-05 -0.75638885D-05 -0.37749105D-05 -0.11206157D-07 -0.85921702D-08
 -0.42880951D-08 -0.62459165D-04  0.52115216D-06  0.46294799D-04  0.68298857D-08
 -0.23431095D-05 -0.50499350D-04 -0.21256941D-04  0.38076981D-04 -0.15816072D-08
 -0.11736955D-07 -0.53462207D-05 -0.90682022D-05 -0.10323828D-04 -0.85463042D-05
 -0.53474913D-05 -0.90703574D-05 -0.10326281D-04 -0.85425894D-05  0.37490600D-05
  0.63591154D-05  0.72396281D-05  0.24076724D-04 -0.12143163D-05 -0.20597103D-05
 -0.23449074D-05  0.98975853D-04  0.53287827D-02  0.98305636D-02  0.15869578D-01
  0.20657475D-01  0.17627061D-01  0.60862005D-02 -0.16148435D-03 -0.74427989D-04
  0.20870385D-03  0.34642529D-03  0.26561694D-03  0.13256147D-03  0.20274862D-03
  0.15545478D-03  0.77582831D-04  0.17923360D-06  0.13742495D-06  0.68584683D-07
  0.38489775D-03 -0.19923406D-03 -0.97826098D-04 -0.11372989D-06 -0.43215677D-03
 -0.44635100D-03 -0.13275014D-03 -0.40747596D-03 -0.78997543D-07 -0.74857037D-07
 -0.30361451D-04 -0.51498767D-04 -0.58629526D-04  0.82640440D-04 -0.30345671D-04
 -0.51472002D-04 -0.58599055D-04  0.82510927D-04 -0.18167748D-04 -0.30815939D-04
 -0.35082858D-04 -0.53467283D-04
MO    4     MO 0.0        OCC NO =    2.0000000  ORB. ENERGY =  -10.182790
  0.52811710D+00  0.97427293D+00  0.15727786D+01  0.20472904D+01  0.17469566D+01
  0.60318214D+00 -0.19664960D-01 -0.90635623D-02  0.25415175D-01  0.45428505D-04
  0.34831697D-04  0.17383458D-04 -0.25607651D-05 -0.19634322D-05 -0.97989030D-06
  0.15859246D-07  0.12159864D-07  0.60686243D-08 -0.34578743D-02 -0.35382690D-03
  0.16815323D-03 -0.25311736D-07 -0.10155736D-01 -0.10025388D-01 -0.10383943D-01
  0.59386234D-04  0.19358885D-07  0.17029724D-07  0.24664788D-01  0.45501717D-01
  0.73453879D-01  0.95615126D-01  0.81588560D-01  0.28170569D-01 -0.70078111D-03
 -0.32298937D-03  0.90569592D-03  0.32062149D-03  0.24583222D-03  0.12268751D-03
  0.34635700D-03  0.26556458D-03  0.13253534D-03  0.32215431D-07  0.24700749D-07
  0.12327405D-07  0.12547201D-02 -0.95748341D-04 -0.45654838D-03 -0.10603306D-07
 -0.87633778D-03 -0.83467128D-03 -0.69470766D-03 -0.26112434D-03 -0.31467418D-07
 -0.24991377D-07 -0.23883030D-02 -0.44059527D-02 -0.71125738D-02 -0.92584577D-02
 -0.79002588D-02 -0.27277695D-02  0.65501536D-04  0.30189598D-04 -0.84654785D-04
  0.12041329D-04  0.92325270D-05  0.46076780D-05 -0.14542940D-05 -0.11150604D-05
 -0.55649330D-06  0.33507326D-08  0.25691293D-08  0.12821756D-08 -0.50836138D-03
  0.23486047D-03  0.18483911D-03  0.19392510D-07  0.11423896D-03  0.66310879D-04
  0.73047880D-04 -0.26202468D-04  0.33021315D-08 -0.84357085D-08 -0.54717814D-04
 -0.10094368D-03 -0.16295440D-03 -0.21211821D-03 -0.18100085D-03 -0.62495245D-04
  0.90587556D-04  0.41751722D-04 -0.11707619D-03  0.31893596D-04  0.24453986D-04
  0.12204253D-04  0.11441077D-04  0.87722922D-05  0.43779886D-05  0.35170946D-09
  0.26966850D-09  0.13458348D-09  0.58616529D-03 -0.33170240D-03 -0.10842203D-05
 -0.31730877D-07 -0.39699609D-04 -0.14346565D-04 -0.85765179D-04  0.28919194D-04
  0.78755197D-08  0.61457625D-08  0.15244799D-01  0.28123678D-01  0.45400337D-01
  0.59097749D-01  0.50428216D-01  0.17411651D-01 -0.58989931D-03 -0.27188405D-03
  0.76239126D-03  0.76584548D-04  0.58720174D-04  0.29305482D-04 -0.55967768D-05
 -0.42912535D-05 -0.21416362D-05  0.66564790D-08  0.51037659D-08  0.25471369D-08
 -0.62293652D-03  0.84663740D-05 -0.32516151D-03 -0.38154981D-08 -0.26846025D-03
 -0.27679072D-03 -0.27694383D-03 -0.64094675D-04 -0.11255927D-08 -0.74358456D-08
  0.60575260D-01  0.11174953D+00  0.18039839D+00  0.23482510D+00  0.20037668D+00
  0.69185253D-01 -0.20151695D-02 -0.92878980D-03  0.26044236D-02  0.98122444D-04
  0.75234067D-04  0.37547072D-04 -0.44222727D-03 -0.33907182D-03 -0.16922060D-03
  0.59367157D-08  0.45518970D-08  0.22717156D-08  0.11896641D-02  0.85785135D-04
  0.53309289D-03  0.12420456D-07 -0.14666128D-02 -0.16434598D-02 -0.14277085D-02
  0.14757566D-03 -0.46711215D-08  0.63388518D-08 -0.19234279D-04 -0.32624978D-04
 -0.37142384D-04 -0.69254970D-04 -0.18949569D-04 -0.34877323D-04 -0.56438092D-04
 -0.74189451D-04 -0.63631861D-04 -0.21756814D-04  0.66699127D-04  0.29761021D-04
 -0.87884692D-04  0.20534401D-04  0.15820649D-04  0.69461171D-05 -0.22953175D-04
 -0.17684184D-04 -0.77643093D-05  0.59840456D-09  0.46103845D-09  0.20242071D-09
  0.20888956D-03 -0.48982527D-04  0.27297850D-04 -0.52960826D-08 -0.60707726D-04
 -0.67086587D-04 -0.63474118D-04 -0.12089624D-04  0.28424934D-08 -0.74337674D-09
 -0.12731253D-04 -0.21594614D-04 -0.24584705D-04  0.11732289D-03 -0.53890175D-06
 -0.91407937D-06 -0.10406471D-05  0.11344514D-04  0.10381811D-01  0.19152414D-01
  0.30917934D-01  0.40245963D-01  0.34341954D-01  0.11857451D-01 -0.34647350D-03
 -0.15968932D-03  0.44778552D-03 -0.35515853D-03 -0.27231303D-03 -0.13590329D-03
  0.19588589D-03  0.15019287D-03  0.74956770D-04  0.32464535D-07  0.24891746D-07
  0.12422726D-07  0.37239829D-03  0.18083698D-03 -0.13581214D-03 -0.25547075D-07
 -0.73168003D-03 -0.34143770D-03 -0.24362877D-03  0.18723191D-03 -0.69196785D-07
  0.19842927D-07 -0.30351804D-04 -0.51482405D-04 -0.58610898D-04  0.86806158D-04
 -0.30344191D-04 -0.51469492D-04 -0.58596197D-04  0.86750782D-04 -0.19142149D-04
 -0.32468708D-04 -0.36964477D-04 -0.56122756D-04 -0.49462774D-05 -0.83898227D-05
 -0.95515166D-05  0.71641991D-04 -0.49728632D-04 -0.91739617D-04 -0.14809619D-03
 -0.19277723D-03 -0.16449716D-03 -0.56796917D-04  0.23359923D-04  0.10766567D-04
 -0.30190579D-04  0.25347721D-04  0.19435025D-04  0.96994396D-05  0.39149932D-04
  0.30017685D-04  0.14980928D-04 -0.13826420D-07 -0.10601222D-07 -0.52907526D-08
 -0.74550532D-04  0.94160507D-06  0.91141323D-05  0.17438776D-07  0.16004741D-04
 -0.24748218D-04 -0.33855501D-04  0.79154685D-05  0.27809006D-07 -0.95542579D-08
 -0.92616737D-06 -0.15709551D-05 -0.17884769D-05  0.42929437D-05 -0.92187372D-06
 -0.15636723D-05 -0.17801857D-05  0.43180655D-05 -0.32727856D-05 -0.55512639D-05
 -0.63199177D-05  0.14846123D-04
MO    5     MO 0.0        OCC NO =    2.0000000  ORB. ENERGY =  -10.181759
 -0.25741183D-01 -0.47487456D-01 -0.76659479D-01 -0.99787863D-01 -0.85149165D-01
 -0.29399960D-01  0.94405320D-03  0.43511326D-03 -0.12201030D-02 -0.49988388D-04
 -0.38327925D-04 -0.19128321D-04  0.10578379D-03  0.81108304D-04  0.40478728D-04
 -0.84314663D-09 -0.64647136D-09 -0.32263452D-09 -0.38578361D-03 -0.22364523D-03
  0.81863850D-04 -0.23739670D-07  0.48832314D-03  0.47384047D-03  0.52257383D-03
 -0.29317149D-04 -0.39823052D-08 -0.50138679D-08 -0.18537011D-02 -0.34197165D-02
 -0.55204828D-02 -0.71860283D-02 -0.61318509D-02 -0.21171808D-02  0.12857370D-03
  0.59259501D-04 -0.16616983D-03 -0.32401565D-04 -0.24843465D-04 -0.12398630D-04
  0.27011216D-04  0.20710487D-04  0.10335985D-04 -0.57174759D-08 -0.43837979D-08
 -0.21878224D-08  0.42034236D-03  0.84803381D-04 -0.21447782D-03  0.11159610D-07
  0.60661430D-04  0.56531310D-04 -0.23277729D-04  0.42228138D-04  0.18319559D-07
  0.37059845D-08  0.43322526D-03  0.79921601D-03  0.12901824D-02  0.16794342D-02
  0.14330642D-02  0.49480264D-03 -0.35022356D-04 -0.16141772D-04  0.45263213D-04
  0.18071991D-04  0.13856456D-04  0.69153428D-05  0.20416372D-04  0.15653979D-04
  0.78124329D-05  0.82008644D-08  0.62879026D-08  0.31381041D-08 -0.56828180D-03
  0.17554592D-03  0.19324061D-03  0.11655726D-07  0.24359397D-04  0.92907358D-04
  0.94315551D-05 -0.54823810D-04  0.12497103D-08 -0.76988708D-08 -0.27677175D-02
 -0.51058983D-02 -0.82425030D-02 -0.10729290D-01 -0.91553225D-02 -0.31611128D-02
  0.35882716D-03  0.16538311D-03 -0.46375151D-03  0.32654256D-03  0.25037212D-03
  0.12495324D-03  0.34350845D-03  0.26338049D-03  0.13144532D-03  0.36042696D-07
  0.27635253D-07  0.13791928D-07  0.16043042D-02 -0.62416143D-03 -0.18970247D-03
 -0.62801831D-07 -0.31195379D-03 -0.40987496D-03 -0.18430154D-03 -0.17781715D-03
 -0.28184249D-07 -0.23690636D-07  0.52357119D+00  0.96588661D+00  0.15592405D+01
  0.20296678D+01  0.17319192D+01  0.59799009D+00 -0.19603969D-01 -0.90354515D-02