 Entering Link 1 = D:\Gaussian\G16W\l1.exe PID=      7576.
  
 Copyright (c) 1988,1990,1992,1993,1995,1998,2003,2009,2016,
            Gaussian, Inc.  All Rights Reserved.
  
 This is part of the Gaussian(R) 16 program.  It is based on
 the Gaussian(R) 09 system (copyright 2009, Gaussian, Inc.),
 the Gaussian(R) 03 system (copyright 2003, Gaussian, Inc.),
 the Gaussian(R) 98 system (copyright 1998, Gaussian, Inc.),
 the Gaussian(R) 94 system (copyright 1995, Gaussian, Inc.),
 the Gaussian 92(TM) system (copyright 1992, Gaussian, Inc.),
 the Gaussian 90(TM) system (copyright 1990, Gaussian, Inc.),
 the Gaussian 88(TM) system (copyright 1988, Gaussian, Inc.),
 the Gaussian 86(TM) system (copyright 1986, Carnegie Mellon
 University), and the Gaussian 82(TM) system (copyright 1983,
 Carnegie Mellon University). Gaussian is a federally registered
 trademark of Gaussian, Inc.
  
 This software contains proprietary and confidential information,
 including trade secrets, belonging to Gaussian, Inc.
  
 This software is provided under written license and may be
 used, copied, transmitted, or stored only in accord with that
 written license.
  
 The following legend is applicable only to US Government
 contracts under FAR:
  
                    RESTRICTED RIGHTS LEGEND
  
 Use, reproduction and disclosure by the US Government is
 subject to restrictions as set forth in subparagraphs (a)
 and (c) of the Commercial Computer Software - Restricted
 Rights clause in FAR 52.227-19.
  
 Gaussian, Inc.
 340 Quinnipiac St., Bldg. 40, Wallingford CT 06492
  
  
 ---------------------------------------------------------------
 Warning -- This program may not be used in any manner that
 competes with the business of Gaussian, Inc. or will provide
 assistance to any competitor of Gaussian, Inc.  The licensee
 of this program is prohibited from giving any competitor of
 Gaussian, Inc. access to this program.  By using this program,
 the user acknowledges that Gaussian, Inc. is engaged in the
 business of creating and licensing software in the field of
 computational chemistry and represents and warrants to the
 licensee that it is not a competitor of Gaussian, Inc. and that
 it will not use this program in any manner prohibited above.
 ---------------------------------------------------------------
  

 Cite this work as:
 Gaussian 16, Revision A.03,
 M. J. Frisch, G. W. Trucks, H. B. Schlegel, G. E. Scuseria, 
 M. A. Robb, J. R. Cheeseman, G. Scalmani, V. Barone, 
 G. A. Petersson, H. Nakatsuji, X. Li, M. Caricato, A. V. Marenich, 
 J. Bloino, B. G. Janesko, R. Gomperts, B. Mennucci, H. P. Hratchian, 
 J. V. Ortiz, A. F. Izmaylov, J. L. Sonnenberg, D. Williams-Young, 
 F. Ding, F. Lipparini, F. Egidi, J. Goings, B. Peng, A. Petrone, 
 T. Henderson, D. Ranasinghe, V. G. Zakrzewski, J. Gao, N. Rega, 
 G. Zheng, W. Liang, M. Hada, M. Ehara, K. Toyota, R. Fukuda, 
 J. Hasegawa, M. Ishida, T. Nakajima, Y. Honda, O. Kitao, H. Nakai, 
 T. Vreven, K. Throssell, J. A. Montgomery, Jr., J. E. Peralta, 
 F. Ogliaro, M. J. Bearpark, J. J. Heyd, E. N. Brothers, K. N. Kudin, 
 V. N. Staroverov, T. A. Keith, R. Kobayashi, J. Normand, 
 K. Raghavachari, A. P. Rendell, J. C. Burant, S. S. Iyengar, 
 J. Tomasi, M. Cossi, J. M. Millam, M. Klene, C. Adamo, R. Cammi, 
 J. W. Ochterski, R. L. Martin, K. Morokuma, O. Farkas, 
 J. B. Foresman, and D. J. Fox, Gaussian, Inc., Wallingford CT, 2016.
 
 ******************************************
 Gaussian 16:  EM64W-G16RevA.03 17-Dec-2016
                01-Dec-2025 
 ******************************************
 %nprocshared=14
 Will use up to   14 processors via shared memory.
 %mem=80GB
 %chk=P3.chk
 ---------------------------------------------------------
 # ub3lyp/6-311g(d,p) geom=connectivity temperature=823.15
 ---------------------------------------------------------
 1/38=1,57=2,112=823150,172=1/1;
 2/12=2,17=6,18=5,40=1/2;
 3/5=4,6=6,7=101,11=2,25=1,30=1,74=-5,116=2/1,2,3;
 4//1;
 5/5=2,38=5/2;
 6/7=2,8=2,9=2,10=2,28=1/1;
 99/5=1,9=1/99;
 -------------------
 Title Card Required
 -------------------
 Symbolic Z-matrix:
 Charge =  0 Multiplicity = 1
 C                    -1.60571   0.058    -0.00016 
 C                    -0.60984   1.0436   -0.00006 
 C                     0.7501    0.74459   0.00007 
 C                     1.12299  -0.60946   0.0001 
 C                     0.15539  -1.60917  -0.00001 
 C                    -1.19831  -1.27447  -0.00014 
 H                     0.45772  -2.65304  0. 
 O                     2.46726  -0.88264   0.00024 
 H                    -1.94024  -2.06621  -0.00022 
 H                     2.59309  -1.83679   0.00019 
 C                    -3.06771   0.43798  -0.00028 
 H                    -3.32683   1.03396   0.88073 
 H                    -3.32659   1.03432  -0.8811 
 H                    -3.7065   -0.4477   -0.00054 
 H                    -0.90404   2.08993  -0.0001 
 C                     1.80963   1.81535   0.00021 
 H                     2.45813   1.72956   0.87734 
 H                     2.45892   1.72901  -0.87628 
 H                     1.359     2.80959  -0.00028 
 
                          Input orientation:                          
 ---------------------------------------------------------------------
 Center     Atomic      Atomic             Coordinates (Angstroms)
 Number     Number       Type             X           Y           Z
 ---------------------------------------------------------------------
      1          6           0       -1.605709    0.058001   -0.000159
      2          6           0       -0.609836    1.043604   -0.000061
      3          6           0        0.750100    0.744594    0.000068
      4          6           0        1.122993   -0.609461    0.000096
      5          6           0        0.155387   -1.609174   -0.000012
      6          6           0       -1.198311   -1.274466   -0.000135
      7          1           0        0.457722   -2.653044   -0.000002
      8          8           0        2.467256   -0.882643    0.000238
      9          1           0       -1.940235   -2.066207   -0.000219
     10          1           0        2.593085   -1.836794    0.000187
     11          6           0       -3.067708    0.437977   -0.000275
     12          1           0       -3.326827    1.033957    0.880732
     13          1           0       -3.326594    1.034318   -0.881104
     14          1           0       -3.706495   -0.447702   -0.000538
     15          1           0       -0.904039    2.089928   -0.000102
     16          6           0        1.809631    1.815347    0.000205
     17          1           0        2.458134    1.729558    0.877343
     18          1           0        2.458923    1.729008   -0.876281
     19          1           0        1.358995    2.809593   -0.000283
 ---------------------------------------------------------------------
                    Distance matrix (angstroms):
                    1          2          3          4          5
     1  C    0.000000
     2  C    1.401134   0.000000
     3  C    2.453823   1.392420   0.000000
     4  C    2.809149   2.394853   1.404462   0.000000
     5  C    2.425063   2.760941   2.427737   1.391290   0.000000
     6  C    1.393356   2.391600   2.805870   2.414681   1.394463
     7  H    3.406980   3.847712   3.410195   2.149143   1.086771
     8  O    4.180174   3.630279   2.365698   1.371740   2.423342
     9  H    2.150388   3.382438   3.890823   3.391972   2.144880
    10  H    4.606530   4.307597   3.171775   1.915076   2.448302
    11  C    1.510570   2.531387   3.830101   4.319618   3.818268
    12  H    2.165804   2.856209   4.180985   4.824649   4.459559
    13  H    2.165803   2.856063   4.180890   4.824660   4.459660
    14  H    2.160796   3.437047   4.613330   4.832196   4.032760
    15  H    2.149667   1.086899   2.132158   3.375731   3.847823
    16  C    3.840939   2.539568   1.506359   2.520152   3.803139
    17  H    4.480952   3.263864   2.158042   2.832521   4.149642
    18  H    4.481193   3.264172   2.158040   2.832169   4.149408
    19  H    4.044840   2.644809   2.152899   3.427189   4.579757
                    6          7          8          9         10
     6  C    0.000000
     7  H    2.154744   0.000000
     8  O    3.686449   2.678161   0.000000
     9  H    1.085037   2.468719   4.563639   0.000000
    10  H    3.832871   2.286053   0.962412   4.539121   0.000000
    11  C    2.535174   4.688610   5.690331   2.746294   6.100751
    12  H    3.261184   5.356536   6.166038   3.508522   6.637916
    13  H    3.261315   5.356681   6.166052   3.508733   6.637963
    14  H    2.640933   4.712137   6.189053   2.395670   6.450914
    15  H    3.377239   4.934590   4.494642   4.283359   5.258234
    16  C    4.312153   4.668423   2.776980   5.397032   3.735229
    17  H    4.812870   4.896793   2.755538   5.875678   3.675116
    18  H    4.812884   4.896432   2.754828   5.875690   3.674390
    19  H    4.818646   5.536488   3.854977   5.887134   4.807483
                   11         12         13         14         15
    11  C    0.000000
    12  H    1.094764   0.000000
    13  H    1.094762   1.761836   0.000000
    14  H    1.092006   1.765247   1.765249   0.000000
    15  H    2.722206   2.785829   2.785543   3.780652   0.000000
    16  C    5.068095   5.269639   5.269489   5.962301   2.727526
    17  H    5.742240   5.826632   6.085932   6.596498   3.493420
    18  H    5.742630   6.086468   5.827077   6.596770   3.493918
    19  H    5.021978   5.087828   5.087454   6.022388   2.374709
                   16         17         18         19
    16  C    0.000000
    17  H    1.094206   0.000000
    18  H    1.094195   1.753624   0.000000
    19  H    1.091603   1.773361   1.773380   0.000000
 Stoichiometry    C8H10O
 Framework group  C1[X(C8H10O)]
 Deg. of freedom    51
 Full point group                 C1      NOp   1
 Largest Abelian subgroup         C1      NOp   1
 Largest concise Abelian subgroup C1      NOp   1
                         Standard orientation:                         
 ---------------------------------------------------------------------
 Center     Atomic      Atomic             Coordinates (Angstroms)
 Number     Number       Type             X           Y           Z
 ---------------------------------------------------------------------
      1          6           0       -1.605709    0.058001   -0.000159
      2          6           0       -0.609836    1.043604   -0.000061
      3          6           0        0.750100    0.744594    0.000068
      4          6           0        1.122993   -0.609461    0.000096
      5          6           0        0.155387   -1.609174   -0.000012
      6          6           0       -1.198311   -1.274466   -0.000135
      7          1           0        0.457722   -2.653044   -0.000002
      8          8           0        2.467256   -0.882643    0.000238
      9          1           0       -1.940235   -2.066207   -0.000219
     10          1           0        2.593085   -1.836794    0.000187
     11          6           0       -3.067708    0.437977   -0.000275
     12          1           0       -3.326827    1.033957    0.880732
     13          1           0       -3.326594    1.034318   -0.881104
     14          1           0       -3.706495   -0.447703   -0.000538
     15          1           0       -0.904039    2.089928   -0.000102
     16          6           0        1.809631    1.815347    0.000205
     17          1           0        2.458134    1.729558    0.877343
     18          1           0        2.458923    1.729008   -0.876281
     19          1           0        1.358995    2.809593   -0.000283
 ---------------------------------------------------------------------
 Rotational constants (GHZ):           3.0152298           1.2983664           0.9178306
 Standard basis: 6-311G(d,p) (5D, 7F)
 There are   231 symmetry adapted cartesian basis functions of A   symmetry.
 There are   222 symmetry adapted basis functions of A   symmetry.
   222 basis functions,   368 primitive gaussians,   231 cartesian basis functions
    33 alpha electrons       33 beta electrons
       nuclear repulsion energy       425.3452322629 Hartrees.
 NAtoms=   19 NActive=   19 NUniq=   19 SFac= 1.00D+00 NAtFMM=   60 NAOKFM=F Big=F
 Integral buffers will be    131072 words long.
 Raffenetti 2 integral format.
 Two-electron integral symmetry is turned on.
 One-electron integrals computed using PRISM.
 NBasis=   222 RedAO= T EigKep=  1.63D-04  NBF=   222
 NBsUse=   222 1.00D-06 EigRej= -1.00D+00 NBFU=   222
 ExpMin= 1.03D-01 ExpMax= 8.59D+03 ExpMxC= 1.30D+03 IAcc=3 IRadAn=         5 AccDes= 0.00D+00
 Harris functional with IExCor=  402 and IRadAn=       5 diagonalized for initial guess.
 HarFok:  IExCor=  402 AccDes= 0.00D+00 IRadAn=         5 IDoV= 1 UseB2=F ITyADJ=14
 ICtDFT=  3500011 ScaDFX=  1.000000  1.000000  1.000000  1.000000
 FoFCou: FMM=F IPFlag=           0 FMFlag=      100000 FMFlg1=           0
         NFxFlg=           0 DoJE=T BraDBF=F KetDBF=T FulRan=T
         wScrn=  0.000000 ICntrl=       500 IOpCl=  0 I1Cent=   200000004 NGrid=           0
         NMat0=    1 NMatS0=      1 NMatT0=    0 NMatD0=    1 NMtDS0=    0 NMtDT0=    0
 Petite list used in FoFCou.
 Initial guess <Sx>= 0.0000 <Sy>= 0.0000 <Sz>= 0.0000 <S**2>= 0.0000 S= 0.0000
 Requested convergence on RMS density matrix=1.00D-08 within 128 cycles.
 Requested convergence on MAX density matrix=1.00D-06.
 Requested convergence on             energy=1.00D-06.
 No special actions if energy rises.
 Integral accuracy reduced to 1.0D-05 until final iterations.
 Initial convergence to 1.0D-05 achieved.  Increase integral accuracy.
 SCF Done:  E(UB3LYP) =  -386.207076502     A.U. after   14 cycles
            NFock= 14  Conv=0.36D-08     -V/T= 2.0042
 <Sx>= 0.0000 <Sy>= 0.0000 <Sz>= 0.0000 <S**2>= 0.0000 S= 0.0000
 <L.S>= 0.000000000000E+00
 Annihilation of the first spin contaminant:
 S**2 before annihilation     0.0000,   after     0.0000

 **********************************************************************

            Population analysis using the SCF density.

 **********************************************************************

 Orbital symmetries:
 Alpha Orbitals:
       Occupied  (A) (A) (A) (A) (A) (A) (A) (A) (A) (A) (A) (A)
                 (A) (A) (A) (A) (A) (A) (A) (A) (A) (A) (A) (A)
                 (A) (A) (A) (A) (A) (A) (A) (A) (A)
       Virtual   (A) (A) (A) (A) (A) (A) (A) (A) (A) (A) (A) (A)
                 (A) (A) (A) (A) (A) (A) (A) (A) (A) (A) (A) (A)
                 (A) (A) (A) (A) (A) (A) (A) (A) (A) (A) (A) (A)
                 (A) (A) (A) (A) (A) (A) (A) (A) (A) (A) (A) (A)
                 (A) (A) (A) (A) (A) (A) (A) (A) (A) (A) (A) (A)
                 (A) (A) (A) (A) (A) (A) (A) (A) (A) (A) (A) (A)
                 (A) (A) (A) (A) (A) (A) (A) (A) (A) (A) (A) (A)
                 (A) (A) (A) (A) (A) (A) (A) (A) (A) (A) (A) (A)
                 (A) (A) (A) (A) (A) (A) (A) (A) (A) (A) (A) (A)
                 (A) (A) (A) (A) (A) (A) (A) (A) (A) (A) (A) (A)
                 (A) (A) (A) (A) (A) (A) (A) (A) (A) (A) (A) (A)
                 (A) (A) (A) (A) (A) (A) (A) (A) (A) (A) (A) (A)
                 (A) (A) (A) (A) (A) (A) (A) (A) (A) (A) (A) (A)
                 (A) (A) (A) (A) (A) (A) (A) (A) (A) (A) (A) (A)
                 (A) (A) (A) (A) (A) (A) (A) (A) (A) (A) (A) (A)
                 (A) (A) (A) (A) (A) (A) (A) (A) (A)
 Beta  Orbitals:
       Occupied  (A) (A) (A) (A) (A) (A) (A) (A) (A) (A) (A) (A)
                 (A) (A) (A) (A) (A) (A) (A) (A) (A) (A) (A) (A)
                 (A) (A) (A) (A) (A) (A) (A) (A) (A)
       Virtual   (A) (A) (A) (A) (A) (A) (A) (A) (A) (A) (A) (A)
                 (A) (A) (A) (A) (A) (A) (A) (A) (A) (A) (A) (A)
                 (A) (A) (A) (A) (A) (A) (A) (A) (A) (A) (A) (A)
                 (A) (A) (A) (A) (A) (A) (A) (A) (A) (A) (A) (A)
                 (A) (A) (A) (A) (A) (A) (A) (A) (A) (A) (A) (A)
                 (A) (A) (A) (A) (A) (A) (A) (A) (A) (A) (A) (A)
                 (A) (A) (A) (A) (A) (A) (A) (A) (A) (A) (A) (A)
                 (A) (A) (A) (A) (A) (A) (A) (A) (A) (A) (A) (A)
                 (A) (A) (A) (A) (A) (A) (A) (A) (A) (A) (A) (A)
                 (A) (A) (A) (A) (A) (A) (A) (A) (A) (A) (A) (A)
                 (A) (A) (A) (A) (A) (A) (A) (A) (A) (A) (A) (A)
                 (A) (A) (A) (A) (A) (A) (A) (A) (A) (A) (A) (A)
                 (A) (A) (A) (A) (A) (A) (A) (A) (A) (A) (A) (A)
                 (A) (A) (A) (A) (A) (A) (A) (A) (A) (A) (A) (A)
                 (A) (A) (A) (A) (A) (A) (A) (A) (A) (A) (A) (A)
                 (A) (A) (A) (A) (A) (A) (A) (A) (A)
 The electronic state is 1-A.
 Alpha  occ. eigenvalues --  -19.14620 -10.22712 -10.17472 -10.17173 -10.16944
 Alpha  occ. eigenvalues --  -10.16766 -10.16504 -10.16375 -10.16065  -1.06081
 Alpha  occ. eigenvalues --   -0.85525  -0.77823  -0.75767  -0.68828  -0.67756
 Alpha  occ. eigenvalues --   -0.61940  -0.57244  -0.54117  -0.48774  -0.46130
 Alpha  occ. eigenvalues --   -0.43383  -0.42972  -0.41306  -0.40977  -0.40284
 Alpha  occ. eigenvalues --   -0.38916  -0.38485  -0.36934  -0.34885  -0.33455
 Alpha  occ. eigenvalues --   -0.32466  -0.24644  -0.21565
 Alpha virt. eigenvalues --   -0.00496   0.00999   0.03175   0.05209   0.06511
 Alpha virt. eigenvalues --    0.07856   0.09439   0.11165   0.11209   0.13264
 Alpha virt. eigenvalues --    0.14266   0.14687   0.18070   0.20724   0.21269
 Alpha virt. eigenvalues --    0.23861   0.28444   0.28672   0.30454   0.31751
 Alpha virt. eigenvalues --    0.32112   0.32208   0.33271   0.35776   0.36755
 Alpha virt. eigenvalues --    0.39799   0.40521   0.41422   0.42427   0.43735
 Alpha virt. eigenvalues --    0.46448   0.47479   0.47866   0.48302   0.49923
 Alpha virt. eigenvalues --    0.52327   0.53327   0.53575   0.55585   0.57367
 Alpha virt. eigenvalues --    0.57700   0.57955   0.59557   0.60992   0.61744
 Alpha virt. eigenvalues --    0.62406   0.62494   0.64973   0.65190   0.65863
 Alpha virt. eigenvalues --    0.70297   0.72357   0.76644   0.79133   0.81754
 Alpha virt. eigenvalues --    0.83429   0.83723   0.85243   0.86761   0.88853
 Alpha virt. eigenvalues --    0.93709   0.94637   0.94774   1.00125   1.00995
 Alpha virt. eigenvalues --    1.01431   1.03229   1.07320   1.07839   1.13395
 Alpha virt. eigenvalues --    1.16728   1.20026   1.24450   1.32546   1.32908
 Alpha virt. eigenvalues --    1.36970   1.37506   1.39839   1.39996   1.43050
 Alpha virt. eigenvalues --    1.46019   1.46344   1.47007   1.49582   1.50162
 Alpha virt. eigenvalues --    1.51163   1.52635   1.54412   1.55776   1.56948
 Alpha virt. eigenvalues --    1.58630   1.58774   1.59731   1.61156   1.63799
 Alpha virt. eigenvalues --    1.67011   1.69404   1.72336   1.74956   1.77501
 Alpha virt. eigenvalues --    1.78778   1.79666   1.79768   1.85031   1.87928
 Alpha virt. eigenvalues --    1.87978   1.90661   1.92036   1.93222   1.94899
 Alpha virt. eigenvalues --    1.95279   1.99618   2.01934   2.05628   2.08751
 Alpha virt. eigenvalues --    2.11214   2.12364   2.15948   2.18378   2.23117
 Alpha virt. eigenvalues --    2.26934   2.29944   2.31342   2.34459   2.35803
 Alpha virt. eigenvalues --    2.37071   2.38159   2.44037   2.44247   2.46747
 Alpha virt. eigenvalues --    2.48303   2.49000   2.52107   2.54674   2.56429
 Alpha virt. eigenvalues --    2.57297   2.58465   2.60820   2.60895   2.63976
 Alpha virt. eigenvalues --    2.64853   2.66345   2.72534   2.73892   2.76828
 Alpha virt. eigenvalues --    2.76991   2.86105   2.87346   2.88349   2.91346
 Alpha virt. eigenvalues --    2.93094   2.94036   3.00395   3.06841   3.09812
 Alpha virt. eigenvalues --    3.14052   3.17060   3.19703   3.21736   3.34537
 Alpha virt. eigenvalues --    3.38322   3.43098   3.52757   3.56473   3.63350
 Alpha virt. eigenvalues --    3.66954   3.78573   3.78807   3.81708   3.84746
 Alpha virt. eigenvalues --    3.86122   4.00694   4.07068   4.13218   4.31077
 Alpha virt. eigenvalues --    4.35367   4.81686   4.84715   5.38149   5.69425
 Alpha virt. eigenvalues --   23.48397  23.87894  23.90548  23.93370  23.95048
 Alpha virt. eigenvalues --   24.05904  24.10255  24.17850  49.91733
  Beta  occ. eigenvalues --  -19.14620 -10.22712 -10.17472 -10.17173 -10.16944
  Beta  occ. eigenvalues --  -10.16766 -10.16504 -10.16375 -10.16065  -1.06081
  Beta  occ. eigenvalues --   -0.85525  -0.77823  -0.75767  -0.68828  -0.67756
  Beta  occ. eigenvalues --   -0.61940  -0.57244  -0.54117  -0.48774  -0.46130
  Beta  occ. eigenvalues --   -0.43383  -0.42972  -0.41306  -0.40977  -0.40284
  Beta  occ. eigenvalues --   -0.38916  -0.38485  -0.36934  -0.34885  -0.33455
  Beta  occ. eigenvalues --   -0.32466  -0.24644  -0.21565
  Beta virt. eigenvalues --   -0.00496   0.00999   0.03175   0.05209   0.06511
  Beta virt. eigenvalues --    0.07856   0.09439   0.11165   0.11209   0.13264
  Beta virt. eigenvalues --    0.14266   0.14687   0.18070   0.20724   0.21269
  Beta virt. eigenvalues --    0.23861   0.28444   0.28672   0.30454   0.31751
  Beta virt. eigenvalues --    0.32112   0.32208   0.33271   0.35776   0.36755
  Beta virt. eigenvalues --    0.39799   0.40521   0.41422   0.42427   0.43735
  Beta virt. eigenvalues --    0.46448   0.47479   0.47866   0.48302   0.49923
  Beta virt. eigenvalues --    0.52327   0.53327   0.53575   0.55585   0.57367
  Beta virt. eigenvalues --    0.57700   0.57955   0.59557   0.60992   0.61744
  Beta virt. eigenvalues --    0.62406   0.62494   0.64973   0.65190   0.65863
  Beta virt. eigenvalues --    0.70297   0.72357   0.76644   0.79133   0.81754
  Beta virt. eigenvalues --    0.83429   0.83723   0.85243   0.86761   0.88853
  Beta virt. eigenvalues --    0.93709   0.94637   0.94774   1.00125   1.00995
  Beta virt. eigenvalues --    1.01431   1.03229   1.07320   1.07839   1.13395
  Beta virt. eigenvalues --    1.16728   1.20026   1.24450   1.32546   1.32908
  Beta virt. eigenvalues --    1.36970   1.37506   1.39839   1.39996   1.43050
  Beta virt. eigenvalues --    1.46019   1.46344   1.47007   1.49582   1.50162
  Beta virt. eigenvalues --    1.51163   1.52635   1.54412   1.55776   1.56948
  Beta virt. eigenvalues --    1.58630   1.58774   1.59731   1.61156   1.63799
  Beta virt. eigenvalues --    1.67011   1.69404   1.72336   1.74956   1.77501
  Beta virt. eigenvalues --    1.78778   1.79666   1.79768   1.85031   1.87928
  Beta virt. eigenvalues --    1.87978   1.90661   1.92036   1.93222   1.94899
  Beta virt. eigenvalues --    1.95279   1.99618   2.01934   2.05628   2.08751
  Beta virt. eigenvalues --    2.11214   2.12364   2.15948   2.18378   2.23117
  Beta virt. eigenvalues --    2.26934   2.29944   2.31342   2.34459   2.35803
  Beta virt. eigenvalues --    2.37071   2.38159   2.44037   2.44247   2.46747
  Beta virt. eigenvalues --    2.48303   2.49000   2.52107   2.54674   2.56429
  Beta virt. eigenvalues --    2.57297   2.58465   2.60820   2.60895   2.63976
  Beta virt. eigenvalues --    2.64853   2.66345   2.72534   2.73892   2.76828
  Beta virt. eigenvalues --    2.76991   2.86105   2.87346   2.88349   2.91346
  Beta virt. eigenvalues --    2.93094   2.94036   3.00395   3.06841   3.09812
  Beta virt. eigenvalues --    3.14052   3.17060   3.19703   3.21736   3.34537
  Beta virt. eigenvalues --    3.38322   3.43098   3.52757   3.56473   3.63350
  Beta virt. eigenvalues --    3.66954   3.78573   3.78807   3.81708   3.84746
  Beta virt. eigenvalues --    3.86122   4.00694   4.07068   4.13218   4.31077
  Beta virt. eigenvalues --    4.35367   4.81686   4.84715   5.38149   5.69425
  Beta virt. eigenvalues --   23.48397  23.87894  23.90548  23.93370  23.95048
  Beta virt. eigenvalues --   24.05904  24.10255  24.17850  49.91733
          Condensed to atoms (all electrons):
               1          2          3          4          5          6
     1  C    5.027765   0.518127  -0.050266  -0.050881  -0.048085   0.542823
     2  C    0.518127   4.803121   0.570736  -0.042899  -0.057909  -0.043231
     3  C   -0.050266   0.570736   5.099476   0.472941  -0.068937  -0.037525
     4  C   -0.050881  -0.042899   0.472941   4.821041   0.445199  -0.023114
     5  C   -0.048085  -0.057909  -0.068937   0.445199   5.087950   0.452184
     6  C    0.542823  -0.043231  -0.037525  -0.023114   0.452184   4.842746
     7  H    0.007884   0.000430   0.006200  -0.053885   0.397797  -0.020879
     8  O   -0.000354   0.003593  -0.093353   0.392579  -0.074492   0.006430
     9  H   -0.043227   0.007871  -0.000101   0.007301  -0.034463   0.407284
    10  H   -0.000050  -0.000343   0.013115  -0.049685  -0.009293   0.000818
    11  C    0.362512  -0.059731   0.006202  -0.000225   0.008144  -0.058377
    12  H   -0.038293  -0.005107   0.000215   0.000058  -0.000322   0.001137
    13  H   -0.038293  -0.005109   0.000215   0.000058  -0.000322   0.001141
    14  H   -0.034036   0.006846  -0.000315  -0.000009   0.000467  -0.007842
    15  H   -0.054299   0.420534  -0.044195   0.011209  -0.001366   0.008790
    16  C    0.008696  -0.060290   0.343150  -0.068706   0.010622  -0.001368
    17  H   -0.000209   0.001663  -0.034008  -0.009025   0.000281  -0.000011
    18  H   -0.000209   0.001674  -0.033997  -0.009039   0.000282  -0.000011
    19  H    0.000525  -0.011923  -0.035880   0.009534  -0.000127  -0.000058
               7          8          9         10         11         12
     1  C    0.007884  -0.000354  -0.043227  -0.000050   0.362512  -0.038293
     2  C    0.000430   0.003593   0.007871  -0.000343  -0.059731  -0.005107
     3  C    0.006200  -0.093353  -0.000101   0.013115   0.006202   0.000215
     4  C   -0.053885   0.392579   0.007301  -0.049685  -0.000225   0.000058
     5  C    0.397797  -0.074492  -0.034463  -0.009293   0.008144  -0.000322
     6  C   -0.020879   0.006430   0.407284   0.000818  -0.058377   0.001137
     7  H    0.590010  -0.004025  -0.009432   0.006268  -0.000348   0.000020
     8  O   -0.004025   7.798645  -0.000132   0.324145   0.000000   0.000000
     9  H   -0.009432  -0.000132   0.591135  -0.000044  -0.009725   0.000096
    10  H    0.006268   0.324145  -0.000044   0.471450  -0.000004   0.000000
    11  C   -0.000348   0.000000  -0.009725  -0.000004   4.804087   0.402245
    12  H    0.000020   0.000000   0.000096   0.000000   0.402245   0.581140
    13  H    0.000020   0.000000   0.000096   0.000000   0.402250  -0.033567
    14  H   -0.000030   0.000000   0.003992   0.000000   0.405777  -0.027604
    15  H    0.000074  -0.000115  -0.000452   0.000050  -0.005387   0.001272
    16  C   -0.000498   0.007367   0.000062  -0.000885  -0.000205  -0.000007
    17  H   -0.000002   0.005338   0.000000  -0.000236   0.000014  -0.000009
    18  H   -0.000002   0.005350   0.000000  -0.000237   0.000014   0.000005
    19  H    0.000022   0.000257  -0.000001   0.000021  -0.000048   0.000000
              13         14         15         16         17         18
     1  C   -0.038293  -0.034036  -0.054299   0.008696  -0.000209  -0.000209
     2  C   -0.005109   0.006846   0.420534  -0.060290   0.001663   0.001674
     3  C    0.000215  -0.000315  -0.044195   0.343150  -0.034008  -0.033997
     4  C    0.000058  -0.000009   0.011209  -0.068706  -0.009025  -0.009039
     5  C   -0.000322   0.000467  -0.001366   0.010622   0.000281   0.000282
     6  C    0.001141  -0.007842   0.008790  -0.001368  -0.000011  -0.000011
     7  H    0.000020  -0.000030   0.000074  -0.000498  -0.000002  -0.000002
     8  O    0.000000   0.000000  -0.000115   0.007367   0.005338   0.005350
     9  H    0.000096   0.003992  -0.000452   0.000062   0.000000   0.000000
    10  H    0.000000   0.000000   0.000050  -0.000885  -0.000236  -0.000237
    11  C    0.402250   0.405777  -0.005387  -0.000205   0.000014   0.000014
    12  H   -0.033567  -0.027604   0.001272  -0.000007  -0.000009   0.000005
    13  H    0.581138  -0.027603   0.001273  -0.000007   0.000005  -0.000009
    14  H   -0.027603   0.578322  -0.000022   0.000012  -0.000001  -0.000001
    15  H    0.001273  -0.000022   0.599972  -0.013583   0.000088   0.000088
    16  C   -0.000007   0.000012  -0.013583   4.795937   0.400423   0.400422
    17  H    0.000005  -0.000001   0.000088   0.400423   0.576238  -0.033854
    18  H   -0.000009  -0.000001   0.000088   0.400422  -0.033854   0.576216
    19  H    0.000000   0.000002   0.004585   0.404727  -0.028264  -0.028262
              19
     1  C    0.000525
     2  C   -0.011923
     3  C   -0.035880
     4  C    0.009534
     5  C   -0.000127
     6  C   -0.000058
     7  H    0.000022
     8  O    0.000257
     9  H   -0.000001
    10  H    0.000021
    11  C   -0.000048
    12  H    0.000000
    13  H    0.000000
    14  H    0.000002
    15  H    0.004585
    16  C    0.404727
    17  H   -0.028264
    18  H   -0.028262
    19  H    0.586866
          Atomic-Atomic Spin Densities.
               1          2          3          4          5          6
     1  C    0.000000   0.000000   0.000000   0.000000   0.000000   0.000000
     2  C    0.000000   0.000000   0.000000   0.000000   0.000000   0.000000
     3  C    0.000000   0.000000   0.000000   0.000000   0.000000   0.000000
     4  C    0.000000   0.000000   0.000000   0.000000   0.000000   0.000000
     5  C    0.000000   0.000000   0.000000   0.000000   0.000000   0.000000
     6  C    0.000000   0.000000   0.000000   0.000000   0.000000   0.000000
     7  H    0.000000   0.000000   0.000000   0.000000   0.000000   0.000000
     8  O    0.000000   0.000000   0.000000   0.000000   0.000000   0.000000
     9  H    0.000000   0.000000   0.000000   0.000000   0.000000   0.000000
    10  H    0.000000   0.000000   0.000000   0.000000   0.000000   0.000000
    11  C    0.000000   0.000000   0.000000   0.000000   0.000000   0.000000
    12  H    0.000000   0.000000   0.000000   0.000000   0.000000   0.000000
    13  H    0.000000   0.000000   0.000000   0.000000   0.000000   0.000000
    14  H    0.000000   0.000000   0.000000   0.000000   0.000000   0.000000
    15  H    0.000000   0.000000   0.000000   0.000000   0.000000   0.000000
    16  C    0.000000   0.000000   0.000000   0.000000   0.000000   0.000000
    17  H    0.000000   0.000000   0.000000   0.000000   0.000000   0.000000
    18  H    0.000000   0.000000   0.000000   0.000000   0.000000   0.000000
    19  H    0.000000   0.000000   0.000000   0.000000   0.000000   0.000000
               7          8          9         10         11         12
     1  C    0.000000   0.000000   0.000000   0.000000   0.000000   0.000000
     2  C    0.000000   0.000000   0.000000   0.000000   0.000000   0.000000
     3  C    0.000000   0.000000   0.000000   0.000000   0.000000   0.000000
     4  C    0.000000   0.000000   0.000000   0.000000   0.000000   0.000000
     5  C    0.000000   0.000000   0.000000   0.000000   0.000000   0.000000
     6  C    0.000000   0.000000   0.000000   0.000000   0.000000   0.000000
     7  H    0.000000   0.000000   0.000000   0.000000   0.000000   0.000000
     8  O    0.000000   0.000000   0.000000   0.000000   0.000000   0.000000
     9  H    0.000000   0.000000   0.000000   0.000000   0.000000   0.000000
    10  H    0.000000   0.000000   0.000000   0.000000   0.000000   0.000000
    11  C    0.000000   0.000000   0.000000   0.000000   0.000000   0.000000
    12  H    0.000000   0.000000   0.000000   0.000000   0.000000   0.000000
    13  H    0.000000   0.000000   0.000000   0.000000   0.000000   0.000000
    14  H    0.000000   0.000000   0.000000   0.000000   0.000000   0.000000
    15  H    0.000000   0.000000   0.000000   0.000000   0.000000   0.000000
    16  C    0.000000   0.000000   0.000000   0.000000   0.000000   0.000000
    17  H    0.000000   0.000000   0.000000   0.000000   0.000000   0.000000
    18  H    0.000000   0.000000   0.000000   0.000000   0.000000   0.000000
    19  H    0.000000   0.000000   0.000000   0.000000   0.000000   0.000000
              13         14         15         16         17         18
     1  C    0.000000   0.000000   0.000000   0.000000   0.000000   0.000000
     2  C    0.000000   0.000000   0.000000   0.000000   0.000000   0.000000
     3  C    0.000000   0.000000   0.000000   0.000000   0.000000   0.000000
     4  C    0.000000   0.000000   0.000000   0.000000   0.000000   0.000000
     5  C    0.000000   0.000000   0.000000   0.000000   0.000000   0.000000
     6  C    0.000000   0.000000   0.000000   0.000000   0.000000   0.000000
     7  H    0.000000   0.000000   0.000000   0.000000   0.000000   0.000000
     8  O    0.000000   0.000000   0.000000   0.000000   0.000000   0.000000
     9  H    0.000000   0.000000   0.000000   0.000000   0.000000   0.000000
    10  H    0.000000   0.000000   0.000000   0.000000   0.000000   0.000000
    11  C    0.000000   0.000000   0.000000   0.000000   0.000000   0.000000
    12  H    0.000000   0.000000   0.000000   0.000000   0.000000   0.000000
    13  H    0.000000   0.000000   0.000000   0.000000   0.000000   0.000000
    14  H    0.000000   0.000000   0.000000   0.000000   0.000000   0.000000
    15  H    0.000000   0.000000   0.000000   0.000000   0.000000   0.000000
    16  C    0.000000   0.000000   0.000000   0.000000   0.000000   0.000000
    17  H    0.000000   0.000000   0.000000   0.000000   0.000000   0.000000
    18  H    0.000000   0.000000   0.000000   0.000000   0.000000   0.000000
    19  H    0.000000   0.000000   0.000000   0.000000   0.000000   0.000000
              19
     1  C    0.000000
     2  C    0.000000
     3  C    0.000000
     4  C    0.000000
     5  C    0.000000
     6  C    0.000000
     7  H    0.000000
     8  O    0.000000
     9  H    0.000000
    10  H    0.000000
    11  C    0.000000
    12  H    0.000000
    13  H    0.000000
    14  H    0.000000
    15  H    0.000000
    16  C    0.000000
    17  H    0.000000
    18  H    0.000000
    19  H    0.000000
 Mulliken charges and spin densities:
               1          2
     1  C   -0.110129   0.000000
     2  C   -0.048055   0.000000
     3  C   -0.113673   0.000000
     4  C    0.147548   0.000000
     5  C   -0.107609   0.000000
     6  C   -0.070936   0.000000
     7  H    0.080378   0.000000
     8  O   -0.371232   0.000000
     9  H    0.079740   0.000000
    10  H    0.244909   0.000000
    11  C   -0.257196   0.000000
    12  H    0.118720   0.000000
    13  H    0.118714   0.000000
    14  H    0.102044   0.000000
    15  H    0.071484   0.000000
    16  C   -0.225869   0.000000
    17  H    0.121569   0.000000
    18  H    0.121569   0.000000
    19  H    0.098023   0.000000
 Sum of Mulliken charges =   0.00000   0.00000
 Mulliken charges and spin densities with hydrogens summed into heavy atoms:
               1          2
     1  C   -0.110129   0.000000
     2  C    0.023429   0.000000
     3  C   -0.113673   0.000000
     4  C    0.147548   0.000000
     5  C   -0.027232   0.000000
     6  C    0.008804   0.000000
     8  O   -0.126323   0.000000
    11  C    0.082283   0.000000
    16  C    0.115292   0.000000
 Electronic spatial extent (au):  <R**2>=           1281.8552
 Charge=              0.0000 electrons
 Dipole moment (field-independent basis, Debye):
    X=             -0.1990    Y=             -1.0198    Z=             -0.0001  Tot=              1.0390
 Quadrupole moment (field-independent basis, Debye-Ang):
   XX=            -52.1878   YY=            -46.5263   ZZ=            -57.4598
   XY=             -3.4799   XZ=              0.0002   YZ=              0.0000
 Traceless Quadrupole moment (field-independent basis, Debye-Ang):
   XX=             -0.1299   YY=              5.5317   ZZ=             -5.4018
   XY=             -3.4799   XZ=              0.0002   YZ=              0.0000
 Octapole moment (field-independent basis, Debye-Ang**2):
  XXX=              4.0560  YYY=            -16.6475  ZZZ=              0.0030  XYY=             14.2820
  XXY=            -11.6224  XXZ=             -0.0018  XZZ=              5.3452  YZZ=              0.8559
  YYZ=              0.0002  XYZ=             -0.0002
 Hexadecapole moment (field-independent basis, Debye-Ang**3):
 XXXX=          -1115.5476 YYYY=           -493.7470 ZZZZ=            -75.6183 XXXY=            -32.5917
 XXXZ=             -0.0552 YYYX=            -41.0577 YYYZ=             -0.0089 ZZZX=             -0.0496
 ZZZY=             -0.0033 XXYY=           -235.0162 XXZZ=           -198.3297 YYZZ=           -108.5216
 XXYZ=             -0.0002 YYXZ=             -0.0112 ZZXY=             -5.7116
 N-N= 4.253452322629D+02 E-N=-1.749715277771D+03  KE= 3.846003751441D+02
                          Isotropic Fermi Contact Couplings
        Atom                 a.u.       MegaHertz       Gauss      10(-4) cm-1
     1  C(13)              0.00000       0.00000       0.00000       0.00000
     2  C(13)              0.00000       0.00000       0.00000       0.00000
     3  C(13)              0.00000       0.00000       0.00000       0.00000
     4  C(13)              0.00000       0.00000       0.00000       0.00000
     5  C(13)              0.00000       0.00000       0.00000       0.00000
     6  C(13)              0.00000       0.00000       0.00000       0.00000
     7  H(1)               0.00000       0.00000       0.00000       0.00000
     8  O(17)              0.00000       0.00000       0.00000       0.00000
     9  H(1)               0.00000       0.00000       0.00000       0.00000
    10  H(1)               0.00000       0.00000       0.00000       0.00000
    11  C(13)              0.00000       0.00000       0.00000       0.00000
    12  H(1)               0.00000       0.00000       0.00000       0.00000
    13  H(1)               0.00000       0.00000       0.00000       0.00000
    14  H(1)               0.00000       0.00000       0.00000       0.00000
    15  H(1)               0.00000       0.00000       0.00000       0.00000
    16  C(13)              0.00000       0.00000       0.00000       0.00000
    17  H(1)               0.00000       0.00000       0.00000       0.00000
    18  H(1)               0.00000       0.00000       0.00000       0.00000
    19  H(1)               0.00000       0.00000       0.00000       0.00000
 --------------------------------------------------------
       Center         ----  Spin Dipole Couplings  ----
                      3XX-RR        3YY-RR        3ZZ-RR
 --------------------------------------------------------
     1   Atom        0.000000      0.000000      0.000000
     2   Atom        0.000000      0.000000      0.000000
     3   Atom        0.000000      0.000000      0.000000
     4   Atom        0.000000      0.000000      0.000000
     5   Atom        0.000000      0.000000      0.000000
     6   Atom        0.000000      0.000000      0.000000
     7   Atom        0.000000      0.000000      0.000000
     8   Atom        0.000000      0.000000      0.000000
     9   Atom        0.000000      0.000000      0.000000
    10   Atom        0.000000      0.000000      0.000000
    11   Atom        0.000000      0.000000      0.000000
    12   Atom        0.000000      0.000000      0.000000
    13   Atom        0.000000      0.000000      0.000000
    14   Atom        0.000000      0.000000      0.000000
    15   Atom        0.000000      0.000000      0.000000
    16   Atom        0.000000      0.000000      0.000000
    17   Atom        0.000000      0.000000      0.000000
    18   Atom        0.000000      0.000000      0.000000
    19   Atom        0.000000      0.000000      0.000000
 --------------------------------------------------------
                        XY            XZ            YZ
 --------------------------------------------------------
     1   Atom        0.000000      0.000000      0.000000
     2   Atom        0.000000      0.000000      0.000000
     3   Atom        0.000000      0.000000      0.000000
     4   Atom        0.000000      0.000000      0.000000
     5   Atom        0.000000      0.000000      0.000000
     6   Atom        0.000000      0.000000      0.000000
     7   Atom        0.000000      0.000000      0.000000
     8   Atom        0.000000      0.000000      0.000000
     9   Atom        0.000000      0.000000      0.000000
    10   Atom        0.000000      0.000000      0.000000
    11   Atom        0.000000      0.000000      0.000000
    12   Atom        0.000000      0.000000      0.000000
    13   Atom        0.000000      0.000000      0.000000
    14   Atom        0.000000      0.000000      0.000000
    15   Atom        0.000000      0.000000      0.000000
    16   Atom        0.000000      0.000000      0.000000
    17   Atom        0.000000      0.000000      0.000000
    18   Atom        0.000000      0.000000      0.000000
    19   Atom        0.000000      0.000000      0.000000
 --------------------------------------------------------


 ---------------------------------------------------------------------------------
              Anisotropic Spin Dipole Couplings in Principal Axis System
 ---------------------------------------------------------------------------------

       Atom             a.u.   MegaHertz   Gauss  10(-4) cm-1        Axes

              Baa     0.0000     0.000     0.000     0.000  1.0000  0.0000  0.0000
     1 C(13)  Bbb     0.0000     0.000     0.000     0.000  0.0000  1.0000  0.0000
              Bcc     0.0000     0.000     0.000     0.000  0.0000  0.0000  1.0000
 
              Baa     0.0000     0.000     0.000     0.000  1.0000  0.0000  0.0000
     2 C(13)  Bbb     0.0000     0.000     0.000     0.000  0.0000  1.0000  0.0000
              Bcc     0.0000     0.000     0.000     0.000  0.0000  0.0000  1.0000
 
              Baa     0.0000     0.000     0.000     0.000  1.0000  0.0000  0.0000
     3 C(13)  Bbb     0.0000     0.000     0.000     0.000  0.0000  1.0000  0.0000
              Bcc     0.0000     0.000     0.000     0.000  0.0000  0.0000  1.0000
 
              Baa     0.0000     0.000     0.000     0.000  1.0000  0.0000  0.0000
     4 C(13)  Bbb     0.0000     0.000     0.000     0.000  0.0000  1.0000  0.0000
              Bcc     0.0000     0.000     0.000     0.000  0.0000  0.0000  1.0000
 
              Baa     0.0000     0.000     0.000     0.000  1.0000  0.0000  0.0000
     5 C(13)  Bbb     0.0000     0.000     0.000     0.000  0.0000  1.0000  0.0000
              Bcc     0.0000     0.000     0.000     0.000  0.0000  0.0000  1.0000
 
              Baa     0.0000     0.000     0.000     0.000  1.0000  0.0000  0.0000
     6 C(13)  Bbb     0.0000     0.000     0.000     0.000  0.0000  1.0000  0.0000
              Bcc     0.0000     0.000     0.000     0.000  0.0000  0.0000  1.0000
 
              Baa     0.0000     0.000     0.000     0.000  1.0000  0.0000  0.0000
     7 H(1)   Bbb     0.0000     0.000     0.000     0.000  0.0000  1.0000  0.0000
              Bcc     0.0000     0.000     0.000     0.000  0.0000  0.0000  1.0000
 
              Baa     0.0000     0.000     0.000     0.000  1.0000  0.0000  0.0000
     8 O(17)  Bbb     0.0000     0.000     0.000     0.000  0.0000  1.0000  0.0000
              Bcc     0.0000     0.000     0.000     0.000  0.0000  0.0000  1.0000
 
              Baa     0.0000     0.000     0.000     0.000  1.0000  0.0000  0.0000
     9 H(1)   Bbb     0.0000     0.000     0.000     0.000  0.0000  1.0000  0.0000
              Bcc     0.0000     0.000     0.000     0.000  0.0000  0.0000  1.0000
 
              Baa     0.0000     0.000     0.000     0.000  1.0000  0.0000  0.0000
    10 H(1)   Bbb     0.0000     0.000     0.000     0.000  0.0000  1.0000  0.0000
              Bcc     0.0000     0.000     0.000     0.000  0.0000  0.0000  1.0000
 
              Baa     0.0000     0.000     0.000     0.000  1.0000  0.0000  0.0000
    11 C(13)  Bbb     0.0000     0.000     0.000     0.000  0.0000  1.0000  0.0000
              Bcc     0.0000     0.000     0.000     0.000  0.0000  0.0000  1.0000
 
              Baa     0.0000     0.000     0.000     0.000  1.0000  0.0000  0.0000
    12 H(1)   Bbb     0.0000     0.000     0.000     0.000  0.0000  1.0000  0.0000
              Bcc     0.0000     0.000     0.000     0.000  0.0000  0.0000  1.0000
 
              Baa     0.0000     0.000     0.000     0.000  1.0000  0.0000  0.0000
    13 H(1)   Bbb     0.0000     0.000     0.000     0.000  0.0000  1.0000  0.0000
              Bcc     0.0000     0.000     0.000     0.000  0.0000  0.0000  1.0000
 
              Baa     0.0000     0.000     0.000     0.000  1.0000  0.0000  0.0000
    14 H(1)   Bbb     0.0000     0.000     0.000     0.000  0.0000  1.0000  0.0000
              Bcc     0.0000     0.000     0.000     0.000  0.0000  0.0000  1.0000
 
              Baa     0.0000     0.000     0.000     0.000  1.0000  0.0000  0.0000
    15 H(1)   Bbb     0.0000     0.000     0.000     0.000  0.0000  1.0000  0.0000
              Bcc     0.0000     0.000     0.000     0.000  0.0000  0.0000  1.0000
 
              Baa     0.0000     0.000     0.000     0.000  1.0000  0.0000  0.0000
    16 C(13)  Bbb     0.0000     0.000     0.000     0.000  0.0000  1.0000  0.0000
              Bcc     0.0000     0.000     0.000     0.000  0.0000  0.0000  1.0000
 
              Baa     0.0000     0.000     0.000     0.000  1.0000  0.0000  0.0000
    17 H(1)   Bbb     0.0000     0.000     0.000     0.000  0.0000  1.0000  0.0000
              Bcc     0.0000     0.000     0.000     0.000  0.0000  0.0000  1.0000
 
              Baa     0.0000     0.000     0.000     0.000  1.0000  0.0000  0.0000
    18 H(1)   Bbb     0.0000     0.000     0.000     0.000  0.0000  1.0000  0.0000
              Bcc     0.0000     0.000     0.000     0.000  0.0000  0.0000  1.0000
 
              Baa     0.0000     0.000     0.000     0.000  1.0000  0.0000  0.0000
    19 H(1)   Bbb     0.0000     0.000     0.000     0.000  0.0000  1.0000  0.0000
              Bcc     0.0000     0.000     0.000     0.000  0.0000  0.0000  1.0000
 

 ---------------------------------------------------------------------------------

 1|1|UNPC-PC-20250526LCFF|SP|UB3LYP|6-311G(d,p)|C8H10O1|ADMINISTRATOR|0
 1-Dec-2025|0||# ub3lyp/6-311g(d,p) geom=connectivity temperature=823.1
 5||Title Card Required||0,1|C,0,-1.605709,0.058001,-0.000159|C,0,-0.60
 9836,1.043604,-0.000061|C,0,0.7501,0.744594,0.000068|C,0,1.122993,-0.6
 09461,0.000096|C,0,0.155387,-1.609174,-0.000012|C,0,-1.198311,-1.27446
 6,-0.000135|H,0,0.457722,-2.653044,-0.000002|O,0,2.467256,-0.882643,0.
 000238|H,0,-1.940235,-2.066207,-0.000219|H,0,2.593085,-1.836794,0.0001
 87|C,0,-3.067708,0.437977,-0.000275|H,0,-3.326827,1.033957,0.880732|H,
 0,-3.326594,1.034318,-0.881104|H,0,-3.706495,-0.447702,-0.000538|H,0,-
 0.904039,2.089928,-0.000102|C,0,1.809631,1.815347,0.000205|H,0,2.45813
 4,1.729558,0.877343|H,0,2.458923,1.729008,-0.876281|H,0,1.358995,2.809
 593,-0.000283||Version=EM64W-G16RevA.03|State=1-A|HF=-386.2070765|S2=0
 .|S2-1=0.|S2A=0.|RMSD=3.573e-009|Dipole=-0.0783118,-0.4012087,-0.00002
 39|Quadrupole=-0.0965533,4.1126655,-4.0161122,-2.5872121,0.00016,0.000
 0265|PG=C01 [X(C8H10O1)]||@


 I WISH TO HAVE NO CONNECTION WITH ANY SHIP THAT DOES NOT SAIL FAST,
 FOR I INTEND TO GO IN HARM'S WAY.
     -- JOHN PAUL JONES, USN 1747-1792
 Job cpu time:       0 days  0 hours  0 minutes 27.0 seconds.
 Elapsed time:       0 days  0 hours  0 minutes 27.3 seconds.
 File lengths (MBytes):  RWF=     52 Int=      0 D2E=      0 Chk=      5 Scr=      1
 Normal termination of Gaussian 16 at Mon Dec 01 21:53:16 2025.
