 Generated by Multiwfn (http://sobereva.com/multiwfn)
GAUSSIAN             37 MOL ORBITALS    316 PRIMITIVES       19 NUCLEI
  C    1    (CENTRE  1)  -2.01149285 -2.61921884  0.00014939  CHARGE =  6.0
  C    2    (CENTRE  2)   0.62225436 -2.42191455  0.00011349  CHARGE =  6.0
  C    3    (CENTRE  3)   1.76235648 -0.05955097 -0.00002257  CHARGE =  6.0
  C    4    (CENTRE  4)   0.20110455  2.25331703 -0.00014163  CHARGE =  6.0
  C    5    (CENTRE  5)  -2.50806731  1.87845786 -0.00009060  CHARGE =  6.0
  C    6    (CENTRE  6)  -3.61232510 -0.47433048  0.00005491  CHARGE =  6.0
  H    7    (CENTRE  7)  -2.85511014 -4.48769307  0.00025333  CHARGE =  1.0
  H    8    (CENTRE  8)  -3.63087824  3.59387003 -0.00018131  CHARGE =  1.0
  O    9    (CENTRE  9)   1.17991098  4.38746407 -0.00025690  CHARGE =  8.0
  O   10    (CENTRE 10)   4.25595406  0.37171654 -0.00006604  CHARGE =  8.0
  H   11    (CENTRE 11)   1.74244991 -4.13244556  0.00018719  CHARGE =  1.0
  C   12    (CENTRE 12)  -6.45096965 -0.78648098  0.00017774  CHARGE =  6.0
  H   13    (CENTRE 13)  -7.29828879  0.09725704  1.66534960  CHARGE =  1.0
  H   14    (CENTRE 14)  -7.29859304  0.09863277 -1.66409839  CHARGE =  1.0
  H   15    (CENTRE 15)  -6.99120654 -2.77760789 -0.00058193  CHARGE =  1.0
  C   16    (CENTRE 16)   5.93941459 -1.72949459  0.00001711  CHARGE =  6.0
  H   17    (CENTRE 17)   5.68022915 -2.89314824 -1.69090416  CHARGE =  1.0
  H   18    (CENTRE 18)   7.83055049 -0.92403860 -0.00004903  CHARGE =  1.0
  H   19    (CENTRE 19)   5.68027639 -2.89297816  1.69106121  CHARGE =  1.0
CENTRE ASSIGNMENTS    1  1  1  1  1  1  1  1  1  1  1  1  1  1  1  1  1  1  1  1
CENTRE ASSIGNMENTS    1  1  1  1  1  1  1  1  2  2  2  2  2  2  2  2  2  2  2  2
CENTRE ASSIGNMENTS    2  2  2  2  2  2  2  2  2  2  2  2  2  2  2  2  3  3  3  3
CENTRE ASSIGNMENTS    3  3  3  3  3  3  3  3  3  3  3  3  3  3  3  3  3  3  3  3
CENTRE ASSIGNMENTS    3  3  3  3  4  4  4  4  4  4  4  4  4  4  4  4  4  4  4  4
CENTRE ASSIGNMENTS    4  4  4  4  4  4  4  4  4  4  4  4  5  5  5  5  5  5  5  5
CENTRE ASSIGNMENTS    5  5  5  5  5  5  5  5  5  5  5  5  5  5  5  5  5  5  5  5
CENTRE ASSIGNMENTS    6  6  6  6  6  6  6  6  6  6  6  6  6  6  6  6  6  6  6  6
CENTRE ASSIGNMENTS    6  6  6  6  6  6  6  6  7  7  7  7  8  8  8  8  9  9  9  9
CENTRE ASSIGNMENTS    9  9  9  9  9  9  9  9  9  9  9  9  9  9  9  9  9  9  9  9
CENTRE ASSIGNMENTS    9  9  9  9 10 10 10 10 10 10 10 10 10 10 10 10 10 10 10 10
CENTRE ASSIGNMENTS   10 10 10 10 10 10 10 10 10 10 10 10 11 11 11 11 12 12 12 12
CENTRE ASSIGNMENTS   12 12 12 12 12 12 12 12 12 12 12 12 12 12 12 12 12 12 12 12
CENTRE ASSIGNMENTS   12 12 12 12 13 13 13 13 14 14 14 14 15 15 15 15 16 16 16 16
CENTRE ASSIGNMENTS   16 16 16 16 16 16 16 16 16 16 16 16 16 16 16 16 16 16 16 16
CENTRE ASSIGNMENTS   16 16 16 16 17 17 17 17 18 18 18 18 19 19 19 19
TYPE ASSIGNMENTS      1  1  1  1  1  1  1  1  1  2  2  2  3  3  3  4  4  4  1  2
TYPE ASSIGNMENTS      3  4  5  6  7  8  9 10  1  1  1  1  1  1  1  1  1  2  2  2
TYPE ASSIGNMENTS      3  3  3  4  4  4  1  2  3  4  5  6  7  8  9 10  1  1  1  1
TYPE ASSIGNMENTS      1  1  1  1  1  2  2  2  3  3  3  4  4  4  1  2  3  4  5  6
TYPE ASSIGNMENTS      7  8  9 10  1  1  1  1  1  1  1  1  1  2  2  2  3  3  3  4
TYPE ASSIGNMENTS      4  4  1  2  3  4  5  6  7  8  9 10  1  1  1  1  1  1  1  1
TYPE ASSIGNMENTS      1  2  2  2  3  3  3  4  4  4  1  2  3  4  5  6  7  8  9 10
TYPE ASSIGNMENTS      1  1  1  1  1  1  1  1  1  2  2  2  3  3  3  4  4  4  1  2
TYPE ASSIGNMENTS      3  4  5  6  7  8  9 10  1  1  1  1  1  1  1  1  1  1  1  1
TYPE ASSIGNMENTS      1  1  1  1  1  2  2  2  3  3  3  4  4  4  1  2  3  4  5  6
TYPE ASSIGNMENTS      7  8  9 10  1  1  1  1  1  1  1  1  1  2  2  2  3  3  3  4
TYPE ASSIGNMENTS      4  4  1  2  3  4  5  6  7  8  9 10  1  1  1  1  1  1  1  1
TYPE ASSIGNMENTS      1  1  1  1  1  2  2  2  3  3  3  4  4  4  1  2  3  4  5  6
TYPE ASSIGNMENTS      7  8  9 10  1  1  1  1  1  1  1  1  1  1  1  1  1  1  1  1
TYPE ASSIGNMENTS      1  1  1  1  1  2  2  2  3  3  3  4  4  4  1  2  3  4  5  6
TYPE ASSIGNMENTS      7  8  9 10  1  1  1  1  1  1  1  1  1  1  1  1
EXPONENTS  0.3047525D+04 0.4573695D+03 0.1039487D+03 0.2921016D+02 0.9286663D+01
EXPONENTS  0.3163927D+01 0.7868272D+01 0.1881289D+01 0.5442493D+00 0.7868272D+01
EXPONENTS  0.1881289D+01 0.5442493D+00 0.7868272D+01 0.1881289D+01 0.5442493D+00
EXPONENTS  0.7868272D+01 0.1881289D+01 0.5442493D+00 0.1687145D+00 0.1687145D+00
EXPONENTS  0.1687145D+00 0.1687145D+00 0.8000000D+00 0.8000000D+00 0.8000000D+00
EXPONENTS  0.8000000D+00 0.8000000D+00 0.8000000D+00 0.3047525D+04 0.4573695D+03
EXPONENTS  0.1039487D+03 0.2921016D+02 0.9286663D+01 0.3163927D+01 0.7868272D+01
EXPONENTS  0.1881289D+01 0.5442493D+00 0.7868272D+01 0.1881289D+01 0.5442493D+00
EXPONENTS  0.7868272D+01 0.1881289D+01 0.5442493D+00 0.7868272D+01 0.1881289D+01
EXPONENTS  0.5442493D+00 0.1687145D+00 0.1687145D+00 0.1687145D+00 0.1687145D+00
EXPONENTS  0.8000000D+00 0.8000000D+00 0.8000000D+00 0.8000000D+00 0.8000000D+00
EXPONENTS  0.8000000D+00 0.3047525D+04 0.4573695D+03 0.1039487D+03 0.2921016D+02
EXPONENTS  0.9286663D+01 0.3163927D+01 0.7868272D+01 0.1881289D+01 0.5442493D+00
EXPONENTS  0.7868272D+01 0.1881289D+01 0.5442493D+00 0.7868272D+01 0.1881289D+01
EXPONENTS  0.5442493D+00 0.7868272D+01 0.1881289D+01 0.5442493D+00 0.1687145D+00
EXPONENTS  0.1687145D+00 0.1687145D+00 0.1687145D+00 0.8000000D+00 0.8000000D+00
EXPONENTS  0.8000000D+00 0.8000000D+00 0.8000000D+00 0.8000000D+00 0.3047525D+04
EXPONENTS  0.4573695D+03 0.1039487D+03 0.2921016D+02 0.9286663D+01 0.3163927D+01
EXPONENTS  0.7868272D+01 0.1881289D+01 0.5442493D+00 0.7868272D+01 0.1881289D+01
EXPONENTS  0.5442493D+00 0.7868272D+01 0.1881289D+01 0.5442493D+00 0.7868272D+01
EXPONENTS  0.1881289D+01 0.5442493D+00 0.1687145D+00 0.1687145D+00 0.1687145D+00
EXPONENTS  0.1687145D+00 0.8000000D+00 0.8000000D+00 0.8000000D+00 0.8000000D+00
EXPONENTS  0.8000000D+00 0.8000000D+00 0.3047525D+04 0.4573695D+03 0.1039487D+03
EXPONENTS  0.2921016D+02 0.9286663D+01 0.3163927D+01 0.7868272D+01 0.1881289D+01
EXPONENTS  0.5442493D+00 0.7868272D+01 0.1881289D+01 0.5442493D+00 0.7868272D+01
EXPONENTS  0.1881289D+01 0.5442493D+00 0.7868272D+01 0.1881289D+01 0.5442493D+00
EXPONENTS  0.1687145D+00 0.1687145D+00 0.1687145D+00 0.1687145D+00 0.8000000D+00
EXPONENTS  0.8000000D+00 0.8000000D+00 0.8000000D+00 0.8000000D+00 0.8000000D+00
EXPONENTS  0.3047525D+04 0.4573695D+03 0.1039487D+03 0.2921016D+02 0.9286663D+01
EXPONENTS  0.3163927D+01 0.7868272D+01 0.1881289D+01 0.5442493D+00 0.7868272D+01
EXPONENTS  0.1881289D+01 0.5442493D+00 0.7868272D+01 0.1881289D+01 0.5442493D+00
EXPONENTS  0.7868272D+01 0.1881289D+01 0.5442493D+00 0.1687145D+00 0.1687145D+00
EXPONENTS  0.1687145D+00 0.1687145D+00 0.8000000D+00 0.8000000D+00 0.8000000D+00
EXPONENTS  0.8000000D+00 0.8000000D+00 0.8000000D+00 0.1873114D+02 0.2825394D+01
EXPONENTS  0.6401217D+00 0.1612778D+00 0.1873114D+02 0.2825394D+01 0.6401217D+00
EXPONENTS  0.1612778D+00 0.5484672D+04 0.8252349D+03 0.1880470D+03 0.5296450D+02
EXPONENTS  0.1689757D+02 0.5799635D+01 0.1553962D+02 0.3599934D+01 0.1013762D+01
EXPONENTS  0.1553962D+02 0.3599934D+01 0.1013762D+01 0.1553962D+02 0.3599934D+01
EXPONENTS  0.1013762D+01 0.1553962D+02 0.3599934D+01 0.1013762D+01 0.2700058D+00
EXPONENTS  0.2700058D+00 0.2700058D+00 0.2700058D+00 0.8000000D+00 0.8000000D+00
EXPONENTS  0.8000000D+00 0.8000000D+00 0.8000000D+00 0.8000000D+00 0.5484672D+04
EXPONENTS  0.8252349D+03 0.1880470D+03 0.5296450D+02 0.1689757D+02 0.5799635D+01
EXPONENTS  0.1553962D+02 0.3599934D+01 0.1013762D+01 0.1553962D+02 0.3599934D+01
EXPONENTS  0.1013762D+01 0.1553962D+02 0.3599934D+01 0.1013762D+01 0.1553962D+02
EXPONENTS  0.3599934D+01 0.1013762D+01 0.2700058D+00 0.2700058D+00 0.2700058D+00
EXPONENTS  0.2700058D+00 0.8000000D+00 0.8000000D+00 0.8000000D+00 0.8000000D+00
EXPONENTS  0.8000000D+00 0.8000000D+00 0.1873114D+02 0.2825394D+01 0.6401217D+00
EXPONENTS  0.1612778D+00 0.3047525D+04 0.4573695D+03 0.1039487D+03 0.2921016D+02
EXPONENTS  0.9286663D+01 0.3163927D+01 0.7868272D+01 0.1881289D+01 0.5442493D+00
EXPONENTS  0.7868272D+01 0.1881289D+01 0.5442493D+00 0.7868272D+01 0.1881289D+01
EXPONENTS  0.5442493D+00 0.7868272D+01 0.1881289D+01 0.5442493D+00 0.1687145D+00
EXPONENTS  0.1687145D+00 0.1687145D+00 0.1687145D+00 0.8000000D+00 0.8000000D+00
EXPONENTS  0.8000000D+00 0.8000000D+00 0.8000000D+00 0.8000000D+00 0.1873114D+02
EXPONENTS  0.2825394D+01 0.6401217D+00 0.1612778D+00 0.1873114D+02 0.2825394D+01
EXPONENTS  0.6401217D+00 0.1612778D+00 0.1873114D+02 0.2825394D+01 0.6401217D+00
EXPONENTS  0.1612778D+00 0.3047525D+04 0.4573695D+03 0.1039487D+03 0.2921016D+02
EXPONENTS  0.9286663D+01 0.3163927D+01 0.7868272D+01 0.1881289D+01 0.5442493D+00
EXPONENTS  0.7868272D+01 0.1881289D+01 0.5442493D+00 0.7868272D+01 0.1881289D+01
EXPONENTS  0.5442493D+00 0.7868272D+01 0.1881289D+01 0.5442493D+00 0.1687145D+00
EXPONENTS  0.1687145D+00 0.1687145D+00 0.1687145D+00 0.8000000D+00 0.8000000D+00
EXPONENTS  0.8000000D+00 0.8000000D+00 0.8000000D+00 0.8000000D+00 0.1873114D+02
EXPONENTS  0.2825394D+01 0.6401217D+00 0.1612778D+00 0.1873114D+02 0.2825394D+01
EXPONENTS  0.6401217D+00 0.1612778D+00 0.1873114D+02 0.2825394D+01 0.6401217D+00
EXPONENTS  0.1612778D+00
MO    1     MO 0.0        OCC NO =    2.0000000  ORB. ENERGY =  -19.007165
 -0.15245708D-05 -0.28125354D-05 -0.45403042D-05 -0.59101271D-05 -0.50431221D-05
 -0.17412689D-05  0.15613615D-04  0.71963010D-05 -0.20179179D-04  0.10085492D-03
  0.77329153D-04  0.38592667D-04  0.14315421D-04  0.10976157D-04  0.54778714D-05
 -0.12981320D-08 -0.99532529D-09 -0.49673708D-09  0.30596570D-03  0.86941856D-04
  0.84928568D-04 -0.54133143D-08  0.60475737D-04 -0.45882858D-05  0.83597495D-05
 -0.14506070D-04 -0.29310565D-09  0.14403335D-08  0.11291177D-04  0.20830017D-04
  0.33626107D-04  0.43771200D-04  0.37350044D-04  0.12896073D-04 -0.81573418D-04
 -0.37597114D-04  0.10542623D-03 -0.96531070D-04 -0.74013902D-04 -0.36938124D-04
 -0.34636487D-04 -0.26557061D-04 -0.13253835D-04  0.33631640D-08  0.25786608D-08
  0.12869325D-08 -0.54543958D-03  0.20301959D-03 -0.25860184D-03  0.11624804D-07
 -0.89250215D-04 -0.79576927D-04  0.50156208D-04 -0.38289400D-04  0.44016054D-08
  0.14943540D-07 -0.20469320D-04 -0.37761898D-04 -0.60959411D-04 -0.79351041D-04
 -0.67710387D-04 -0.23378769D-04 -0.78751508D-04 -0.36296498D-04  0.10177917D-03
  0.54429776D-03  0.41733300D-03  0.20827842D-03  0.17469464D-03  0.13394477D-03
  0.66847829D-04 -0.13478113D-07 -0.10334162D-07 -0.51574710D-08 -0.15473120D-03
 -0.66657470D-03 -0.26855524D-03  0.19704525D-07 -0.91330036D-04 -0.74473587D-05
 -0.98178221D-04  0.18145541D-03 -0.89455223D-08 -0.10716408D-07  0.10363382D-04
  0.19118417D-04  0.30863053D-04  0.40174524D-04  0.34280994D-04  0.11836404D-04
 -0.59649432D-04 -0.27492369D-04  0.77091472D-04  0.52587249D-04  0.40320567D-04
  0.20122789D-04  0.56388513D-04  0.43235135D-04  0.21577362D-04 -0.32519220D-08
 -0.24933675D-08 -0.12443651D-08  0.10783906D-04  0.14168080D-03  0.18645629D-03
 -0.11261299D-07  0.47979033D-06 -0.28797791D-04  0.31263783D-04  0.38022479D-04
 -0.85083273D-09  0.66123435D-08  0.86568903D-05  0.15970272D-04  0.25780971D-04
  0.33559164D-04  0.28636096D-04  0.98873556D-05 -0.25790617D-04 -0.11886872D-04
  0.33332029D-04  0.69467642D-04  0.53263382D-04  0.26582161D-04 -0.35998018D-04
 -0.27600997D-04 -0.13774832D-04  0.32377794D-09  0.24825239D-09  0.12389534D-09
  0.12190384D-03 -0.28667562D-05 -0.28459549D-04  0.16541263D-08  0.31931014D-05
  0.32683400D-04  0.53895553D-04  0.28482770D-04 -0.17359352D-08  0.21918017D-08
  0.47777099D-05  0.88139418D-05  0.14228435D-04  0.18521195D-04  0.15804169D-04
  0.54567998D-05 -0.19040137D-04 -0.87755818D-05  0.24607647D-04  0.34903128D-04
  0.26761505D-04  0.13355866D-04  0.23079311D-04  0.17695752D-04  0.88314205D-05
 -0.12661579D-08 -0.97080955D-09 -0.48450201D-09 -0.11489510D-03 -0.90762234D-04
 -0.12044131D-04  0.18488531D-08  0.17338472D-04 -0.30126029D-04  0.26604104D-04
  0.20700981D-04 -0.13935446D-08  0.62750461D-08  0.25369974D-05  0.43032278D-05
  0.48990727D-05  0.18261321D-04  0.39532205D-06  0.67054101D-06  0.76338724D-06
 -0.11217638D-04  0.40370968D-04  0.74304132D-04  0.12023811D-03  0.15805636D-03
  0.13556402D-03  0.46351642D-04 -0.16120821D-03 -0.71930788D-04  0.21241258D-03
  0.13657692D-03  0.10522515D-03  0.46199510D-04 -0.14881846D-03 -0.11465660D-03
 -0.50340422D-04  0.51317741D-08  0.39537553D-08  0.17359115D-08 -0.43477422D-03
  0.16365684D-04  0.10743649D-03 -0.48745181D-08  0.23401264D-03  0.18984960D-03
  0.25032088D-03 -0.14084447D-04  0.88588148D-09  0.53134062D-08  0.82558174D+00
  0.15195111D+01  0.24588558D+01  0.32322348D+01  0.27722690D+01  0.94788585D+00
 -0.15720643D-01 -0.70145202D-02  0.20713972D-01 -0.85422306D-03 -0.65813281D-03
 -0.28895575D-03 -0.29805004D-02 -0.22963148D-02 -0.10082059D-02  0.14866476D-06
  0.11453818D-06  0.50288430D-07  0.41301162D-02 -0.35190107D-03 -0.17078966D-04
  0.38685708D-08 -0.93715809D-02 -0.95511961D-02 -0.93798765D-02  0.17315997D-03
 -0.81093833D-08  0.15144963D-07 -0.17087829D-04 -0.28984192D-04 -0.32997479D-04
 -0.11552161D-03  0.23997341D-05  0.44270409D-05  0.71466167D-05  0.93027714D-05
  0.79380717D-05  0.27408254D-05 -0.92684971D-05 -0.42718418D-05  0.11978690D-04
 -0.14894567D-04 -0.11420209D-04 -0.56994848D-05  0.76541926D-05  0.58687494D-05
  0.29289173D-05 -0.19154169D-08 -0.14686202D-08 -0.73294442D-09 -0.58931252D-04
 -0.15921569D-04 -0.90930522D-05  0.30986216D-08 -0.31478142D-05  0.10552992D-04
  0.34403698D-05 -0.11098497D-04 -0.56447602D-10  0.12186363D-07  0.25082956D-05
  0.42545440D-05  0.48436480D-05  0.34705840D-05  0.25101972D-05  0.42577696D-05
  0.48473202D-05  0.34745734D-05 -0.50487742D-06 -0.85636766D-06 -0.97494432D-06
  0.18429195D-05  0.63029677D-05  0.11627745D-04  0.18770785D-04  0.24433985D-04
  0.20849564D-04  0.71988533D-05 -0.78648137D-04 -0.36248854D-04  0.10164557D-03
 -0.27869938D-03 -0.21368901D-03 -0.10664579D-03  0.46837771D-03  0.35912232D-03
  0.17922721D-03 -0.19373584D-07 -0.14854436D-07 -0.74134045D-08 -0.30805844D-03
  0.56720818D-04 -0.10732478D-03  0.45556663D-08  0.15867018D-03  0.34293329D-03
  0.20397841D-04 -0.43018631D-03  0.18136353D-07 -0.25782994D-07  0.13451879D-04
  0.22816933D-04  0.25976272D-04  0.13810668D-04  0.24470078D-04  0.41505884D-04
  0.47252982D-04  0.16770342D-04  0.13452060D-04  0.22817240D-04  0.25976621D-04
  0.13810335D-04
MO    2     MO 0.0        OCC NO =    2.0000000  ORB. ENERGY =  -18.865108
  0.11386479D-04  0.21005830D-04  0.33909922D-04  0.44140643D-04  0.37665291D-04
  0.13004920D-04 -0.43910753D-04 -0.20238426D-04  0.56750659D-04  0.18412411D-05
  0.14117469D-05  0.70456063D-06  0.40735737D-04  0.31233579D-04  0.15587745D-04
 -0.20561465D-08 -0.15765227D-08 -0.78679531D-09 -0.35034452D-03 -0.97372380D-04
 -0.16361013D-03  0.93203369D-08 -0.25314661D-04  0.18867539D-04  0.50350750D-04
  0.40993995D-04 -0.58013995D-09  0.29427849D-08 -0.31488104D-05 -0.58089404D-05
 -0.93774309D-05 -0.12206629D-04 -0.10415938D-04 -0.35963732D-05  0.22017769D-04
  0.10147970D-04 -0.28455966D-04  0.29468540D-04  0.22594607D-04  0.11276292D-04
  0.11701092D-03  0.89716551D-04  0.44774847D-04 -0.75587613D-08 -0.57955787D-08
 -0.28924000D-08  0.58377024D-03 -0.12748848D-03  0.23652554D-03 -0.11166838D-07
  0.15586564D-04  0.36690998D-04  0.98548001D-05  0.25436261D-04 -0.32958733D-08
 -0.30147316D-08  0.27527125D-04  0.50782170D-04  0.81978168D-04  0.10671122D-03
  0.91056875D-04  0.31439751D-04 -0.11474629D-03 -0.52886461D-04  0.14829916D-03
  0.28906360D-04  0.22163563D-04  0.11061171D-04 -0.41389321D-04 -0.31734706D-04
 -0.15837843D-04  0.15377447D-08  0.11790451D-08  0.58842614D-09 -0.62069135D-03
  0.62618341D-03  0.13971918D-03 -0.10964093D-07  0.99370202D-04 -0.39692699D-04
  0.74649941D-04  0.42115193D-04 -0.44322220D-08  0.12604631D-07 -0.46454087D-04
 -0.85698719D-04 -0.13834430D-03 -0.18008318D-03 -0.15366530D-03 -0.53056936D-04
 -0.58599214D-04 -0.27008324D-04  0.75734160D-04  0.74215520D-04  0.56903753D-04
  0.28398961D-04  0.14409975D-03  0.11048655D-03  0.55140531D-04 -0.72965217D-08
 -0.55945100D-08 -0.27920526D-08 -0.10142253D-03 -0.50573217D-03 -0.10744367D-02
  0.60689295D-07 -0.26963094D-03 -0.84180157D-03 -0.20533289D-03 -0.66362700D-03
  0.32639624D-07  0.65867531D-07  0.15078529D-04  0.27816941D-04  0.44905168D-04
  0.58453187D-04  0.49878210D-04  0.17221747D-04 -0.94326962D-04 -0.43475211D-04
  0.12190903D-03 -0.44488192D-04 -0.34110724D-04 -0.17023642D-04 -0.61021672D-04
 -0.46787547D-04 -0.23350265D-04  0.20386480D-08  0.15631060D-08  0.78009943D-09
 -0.72663755D-03 -0.19769401D-03  0.42706909D-03 -0.20467155D-07 -0.65505792D-04
 -0.75432596D-04  0.55162214D-04 -0.71626384D-04  0.85061775D-08  0.12935589D-07
 -0.47040119D-05 -0.86779833D-05 -0.14008956D-04 -0.18235498D-04 -0.15560384D-04
 -0.53726265D-05  0.33440585D-04  0.15412735D-04 -0.43218918D-04  0.71252277D-04
  0.54631727D-04  0.27265061D-04  0.92898605D-04  0.71228758D-04  0.35548142D-04
 -0.70207480D-08 -0.53830643D-08 -0.26865264D-08  0.56053542D-03  0.18215264D-03
  0.99448914D-04 -0.73670611D-08  0.14074536D-04  0.72644582D-04  0.42687551D-05
  0.31449138D-04 -0.41210024D-08 -0.83958641D-08 -0.98468301D-05 -0.16702088D-04
 -0.19014736D-04 -0.54555119D-04 -0.22000441D-04 -0.37316912D-04 -0.42483986D-04
 -0.16164868D-03  0.82560171D+00  0.15195479D+01  0.24589153D+01  0.32323130D+01
  0.27723361D+01  0.94790878D+00 -0.15564405D-01 -0.69448072D-02  0.20508109D-01
 -0.13370215D-02 -0.10301030D-02 -0.45227068D-03 -0.28874954D-02 -0.22246596D-02
 -0.97674538D-03  0.15249152D-06  0.11748650D-06  0.51582900D-07  0.45886529D-02
 -0.28076387D-03 -0.60217619D-03  0.31018389D-07 -0.93106401D-02 -0.89042471D-02
 -0.93718140D-02  0.47728290D-03 -0.24626449D-07 -0.49417595D-07  0.78254806D-04
  0.14403062D-03  0.23306873D-03  0.30637537D-03  0.26277637D-03  0.89847704D-04
 -0.20128673D-03 -0.89813748D-04  0.26522120D-03 -0.13954533D-03 -0.10751215D-03
 -0.47203625D-04  0.11434239D-03  0.88094650D-04  0.38678297D-04 -0.90565910D-09
 -0.69776151D-09 -0.30635489D-09 -0.60721704D-03  0.21575409D-03 -0.13455406D-05
 -0.34330339D-08  0.17705818D-03  0.28447134D-03  0.24852279D-03 -0.92694683D-04
  0.72116057D-08 -0.23670545D-08  0.73484659D-05  0.12464389D-04  0.14190266D-04
  0.78094564D-04  0.62923980D-05  0.11608246D-04  0.18739308D-04  0.24393011D-04
  0.20814600D-04  0.71867813D-05 -0.20839206D-04 -0.96047708D-05  0.26932780D-04
  0.70436967D-05  0.54006599D-05  0.26953078D-05  0.35635822D-05  0.27323288D-05
  0.13636236D-05  0.98963229D-09  0.75878727D-09  0.37868803D-09 -0.54570244D-05
 -0.24710863D-05 -0.17119876D-04 -0.12902478D-08 -0.69646339D-06  0.28245380D-04
  0.19452802D-04 -0.28170636D-04 -0.25180310D-09  0.14060013D-07  0.29175457D-05
  0.49487098D-05  0.56339312D-05  0.67687335D-05  0.29185334D-05  0.49503851D-05
  0.56358385D-05  0.67715790D-05  0.67674912D-06  0.11478946D-05  0.13068374D-05
 -0.41859667D-05  0.75110686D-05  0.13856455D-04  0.22368615D-04  0.29117290D-04
  0.24845836D-04  0.85786702D-05 -0.32416748D-04 -0.14940850D-04  0.41895702D-04
 -0.21563066D-04 -0.16533192D-04 -0.82512213D-05 -0.15136765D-04 -0.11605911D-04
 -0.57921630D-05  0.11171702D-08  0.85657528D-09  0.42749110D-09 -0.60549131D-04
  0.36913076D-04 -0.15932593D-04  0.63583337D-09 -0.65632500D-07 -0.12617884D-04
  0.27010017D-04  0.64037696D-04 -0.30926233D-08  0.37775186D-08  0.56431554D-05
  0.95718596D-05  0.10897224D-04 -0.48309981D-05 -0.86438838D-06 -0.14661663D-05
 -0.16691785D-05 -0.90038701D-05  0.56432465D-05  0.95720142D-05  0.10897400D-04
 -0.48315798D-05
MO    3     MO 0.0        OCC NO =    2.0000000  ORB. ENERGY =  -10.103118
 -0.18797446D-04 -0.34677618D-04 -0.55980428D-04 -0.72869884D-04 -0.62180004D-04
 -0.21469261D-04  0.65039642D-04  0.29976712D-04 -0.84057828D-04  0.11393981D-04
  0.87361817D-05  0.43599669D-05 -0.46707522D-04 -0.35812365D-04 -0.17872880D-04
  0.41042182D-08  0.31468542D-08  0.15705008D-08  0.20036700D-03  0.69573728D-04
  0.80734346D-04 -0.53619016D-08  0.53725273D-04 -0.22194805D-04 -0.78747150D-04
  0.13245530D-04 -0.33730573D-08 -0.56069639D-08  0.26611527D-05  0.49093072D-05
  0.79251439D-05  0.10316183D-04  0.88028173D-05  0.30394013D-05 -0.34405526D-04
 -0.15857476D-04  0.44466017D-04 -0.15402530D-03 -0.11809683D-03 -0.58938595D-04
 -0.34514770D-04 -0.26463736D-04 -0.13207259D-04  0.20502737D-08  0.15720198D-08
  0.78454805D-09 -0.31997137D-03  0.43217833D-05 -0.23864526D-04  0.16516405D-08
 -0.10616746D-03  0.31014546D-04 -0.82645349D-05 -0.10608263D-03  0.63325816D-08
 -0.27804052D-08 -0.16980123D-04 -0.31325012D-04 -0.50568282D-04 -0.65824878D-04
 -0.56168488D-04 -0.19393629D-04  0.55651005D-04  0.25649497D-04 -0.71923867D-04
 -0.97513173D-04 -0.74766916D-04 -0.37313931D-04  0.19537875D-03  0.14980403D-03
  0.74762712D-04 -0.92330895D-08 -0.70793474D-08 -0.35330905D-08 -0.12569382D-03
  0.39248523D-03 -0.40781990D-03  0.18796283D-07  0.23610406D-03  0.34647032D-04
 -0.53966962D-04  0.96510126D-04 -0.12450082D-07 -0.73997835D-08 -0.36332273D-04
 -0.67025949D-04 -0.10820066D-03 -0.14084511D-03 -0.12018339D-03 -0.41496437D-04
  0.10553654D-03  0.48641696D-04 -0.13639639D-03  0.95480494D-04  0.73208387D-04
  0.36536116D-04 -0.29405474D-04 -0.22546252D-04 -0.11252160D-04  0.79853595D-09
  0.61226672D-09  0.30556400D-09  0.53567511D-03  0.57203903D-05 -0.39095562D-03
  0.22046540D-07 -0.37330432D-05 -0.42567470D-04 -0.91275010D-04 -0.57387135D-04
  0.25920515D-08 -0.66471297D-08  0.63435271D-05  0.11702569D-04  0.18891575D-04
  0.24591217D-04  0.20983730D-04  0.72451777D-05 -0.25773405D-04 -0.11878939D-04
  0.33309785D-04 -0.81487717D-04 -0.62479613D-04 -0.31181706D-04 -0.35701195D-04
 -0.27373412D-04 -0.13661251D-04  0.58256841D-09  0.44667651D-09  0.22292288D-09
 -0.23383603D-03 -0.33668812D-04  0.14857926D-03 -0.70724523D-08 -0.31379477D-04
  0.12250971D-04  0.14856953D-04  0.25522016D-04 -0.19204507D-09 -0.16623886D-08
 -0.74632525D-06 -0.13768243D-05 -0.22226214D-05 -0.28931927D-05 -0.24687665D-05
 -0.85240576D-06  0.24673989D-05  0.11372219D-05 -0.31888889D-05 -0.49449872D-05
 -0.37915025D-05 -0.18922255D-05  0.49743159D-04  0.38139900D-04  0.19034483D-04
 -0.27778532D-08 -0.21298816D-08 -0.10629602D-08  0.80845762D-04  0.60695611D-05
  0.76357237D-04 -0.51158590D-08 -0.15657749D-04  0.11184170D-04 -0.49257905D-05
  0.45257125D-04 -0.82772199D-09 -0.14635354D-08  0.23613189D-05  0.40052438D-05
  0.45598285D-05  0.37376397D-04 -0.10393954D-04 -0.17630113D-04 -0.20071260D-04
 -0.33026550D-04 -0.37667595D-04 -0.69328483D-04 -0.11218657D-03 -0.14747239D-03
 -0.12648621D-03 -0.43247784D-04  0.12955139D-03  0.57805579D-04 -0.17070065D-03
  0.93518605D-04  0.72051044D-04  0.31634289D-04 -0.15360470D-04 -0.11834414D-04
 -0.51959454D-05  0.23624546D-08  0.18201439D-08  0.79914120D-09  0.37100723D-03
 -0.76892980D-04 -0.56143689D-04  0.22849535D-08 -0.11400764D-03 -0.12939525D-03
 -0.13989471D-03  0.40563981D-04 -0.11103226D-08 -0.68721373D-09 -0.56572052D-04
 -0.10412278D-03 -0.16849030D-03 -0.22148522D-03 -0.18996659D-03 -0.64952803D-04
 -0.21138066D-04 -0.94317638D-05  0.27852125D-04 -0.16742797D-03 -0.12899423D-03
 -0.56635413D-04 -0.12143994D-03 -0.93562928D-04 -0.41079165D-04  0.94973872D-08
  0.73172248D-08  0.32126558D-08  0.20455771D-03  0.13074821D-03  0.18690577D-03
 -0.11162018D-07 -0.36675243D-03 -0.48412623D-03  0.12231324D-03  0.52484522D-03
 -0.13542539D-07  0.52730730D-07  0.64061394D-05  0.10866025D-04  0.12370585D-04
  0.31947360D-04 -0.32842176D-05 -0.60587401D-05 -0.97806852D-05 -0.12731546D-04
 -0.10863851D-04 -0.37510268D-05  0.58065423D-05  0.26762301D-05 -0.75044284D-05
 -0.11506314D-04 -0.88223117D-05 -0.44029519D-05  0.80347245D-05  0.61605172D-05
  0.30745298D-05 -0.35667114D-08 -0.27347281D-08 -0.13648210D-08  0.76626209D-05
  0.70715902D-05 -0.22503030D-04  0.39928954D-08  0.56757367D-06  0.13548710D-05
 -0.20476601D-04 -0.33352686D-04 -0.35677068D-08  0.25709933D-07  0.14840083D-05
  0.25171590D-05  0.28656966D-05  0.37569549D-05  0.14872185D-05  0.25226041D-05
  0.28718957D-05  0.37680755D-05 -0.42413801D-05 -0.71941835D-05 -0.81903236D-05
 -0.56557718D-05  0.53255957D+00  0.98246842D+00  0.15860087D+01  0.20645120D+01
  0.17616519D+01  0.60825605D+00 -0.19705867D-01 -0.90824163D-02  0.25468043D-01
 -0.66469798D-03 -0.50964825D-03 -0.25435020D-03  0.57753242D-03  0.44281523D-03
  0.22099583D-03 -0.18028699D-07 -0.13823263D-07 -0.68987771D-08 -0.26770953D-02
  0.99888490D-04  0.55683414D-04 -0.41516896D-08 -0.10013612D-01 -0.99705226D-02
 -0.10117367D-01 -0.14402588D-03  0.35363890D-08 -0.13845249D-07 -0.10835228D-04
 -0.18378597D-04 -0.20923383D-04  0.49122241D-03 -0.46772877D-04 -0.79335651D-04
 -0.90320835D-04  0.40760138D-03 -0.10835532D-04 -0.18379113D-04 -0.20923970D-04
  0.49122313D-03
MO    4     MO 0.0        OCC NO =    2.0000000  ORB. ENERGY =  -10.038853
  0.35961561D-04  0.66342058D-04  0.10709665D-03  0.13940802D-03  0.11895712D-03
  0.41073033D-04 -0.73338184D-04 -0.33801502D-04  0.94782940D-04 -0.17717356D-03
 -0.13584544D-03 -0.67796398D-04 -0.56069162D-04 -0.42990277D-04 -0.21455161D-04
  0.49587806D-08  0.38020784D-08  0.18975036D-08 -0.13266452D-02 -0.33297365D-03
 -0.47705698D-03  0.27957653D-07  0.33927531D-04  0.41676367D-04  0.32252834D-04
  0.58675830D-04 -0.29500270D-08 -0.19373002D-08  0.40982406D-02  0.75604537D-02
  0.12204916D-01  0.15887175D-01  0.13556555D-01  0.46807527D-02  0.20491795D-03
  0.94446495D-04 -0.26483783D-03  0.22161167D-04  0.16991777D-04  0.84800876D-05
 -0.39713353D-03 -0.30449680D-03 -0.15196524D-03  0.19051622D-07  0.14607576D-07
  0.72902040D-08  0.24919981D-02 -0.51975608D-03  0.10191187D-02 -0.48731504D-07
 -0.39647342D-03 -0.43183537D-03 -0.41157089D-03 -0.30043178D-03  0.14312015D-07
  0.34127830D-08  0.53248364D+00  0.98232834D+00  0.15857825D+01  0.20642177D+01
  0.17614007D+01  0.60816932D+00 -0.19794388D-01 -0.91232156D-02  0.25582449D-01
  0.17513400D-02  0.13428164D-02  0.67015950D-03 -0.72678320D-04 -0.55725126D-04
 -0.27810744D-04 -0.20454610D-07 -0.15683298D-07 -0.78270647D-08 -0.32891472D-02
  0.16470065D-02  0.43859844D-03 -0.34742067D-07 -0.91180183D-02 -0.10088458D-01
 -0.10477530D-01  0.53873982D-03 -0.53325761D-07 -0.45590296D-07  0.77174400D-02
  0.14237170D-01  0.22983207D-01  0.29917306D-01  0.25528492D-01  0.88143747D-02
 -0.52806502D-05 -0.24338468D-05  0.68247606D-05 -0.16485535D-03 -0.12640063D-03
 -0.63082772D-04  0.22342991D-03  0.17131188D-03  0.85496637D-04 -0.11425220D-07
 -0.87601340D-08 -0.43719208D-08  0.15265363D-02 -0.31033461D-03 -0.10089958D-02
  0.59322143D-07 -0.68211224D-03 -0.48471634D-03 -0.48422363D-03  0.32195489D-03
 -0.18111704D-07 -0.35345088D-08  0.32457336D-04  0.59877447D-04  0.96660766D-04
  0.12582360D-03  0.10736550D-03  0.37070728D-04 -0.33145491D-04 -0.15276727D-04
  0.42837536D-04 -0.17095429D-03 -0.13107691D-03 -0.65416563D-04  0.62181131D-04
  0.47676548D-04  0.23793939D-04 -0.95606131D-09 -0.73304717D-09 -0.36584191D-09
 -0.11405425D-02 -0.23701863D-03  0.44025441D-03 -0.22187291D-07  0.70200356D-04
 -0.14844710D-04 -0.10477328D-04  0.21983210D-05  0.60784768D-09 -0.94264246D-09
 -0.84649878D-04 -0.15616250D-03 -0.25209469D-03 -0.32815238D-03 -0.28001302D-03
 -0.96681767D-04  0.13579628D-03  0.62588380D-04 -0.17550435D-03 -0.15130457D-03
 -0.11601075D-03 -0.57897495D-04 -0.37330040D-04 -0.28622307D-04 -0.14284537D-04
  0.22087012D-08  0.16934920D-08  0.84517120D-09  0.96667237D-03  0.62581397D-03
  0.12246794D-03 -0.14473716D-07 -0.32594190D-04  0.57203854D-04 -0.13581646D-03
 -0.16251461D-04 -0.14519498D-08 -0.21473550D-07 -0.18369575D-04 -0.31158276D-04
 -0.35472596D-04 -0.11222723D-03 -0.19593949D-04 -0.33235046D-04 -0.37836925D-04
 -0.91569228D-04 -0.84536194D-04 -0.15559172D-03 -0.25177678D-03 -0.33096762D-03
 -0.28386901D-03 -0.97059635D-04  0.29113646D-03  0.12990452D-03 -0.38360979D-03
  0.38237836D-04  0.29460192D-04  0.12934611D-04 -0.23909125D-04 -0.18420692D-04
 -0.80876758D-05  0.63873307D-08  0.49210940D-08  0.21606253D-08  0.88350892D-03
 -0.11213197D-03 -0.11543327D-03  0.36207000D-08 -0.28890017D-03 -0.25281882D-03
 -0.31356555D-03  0.17293118D-04  0.54178789D-09 -0.36273748D-08  0.11353940D-03
  0.20897310D-03  0.33815792D-03  0.44451806D-03  0.38126055D-03  0.13035946D-03
 -0.72694916D-03 -0.32436330D-03  0.95784916D-03 -0.57847192D-04 -0.44568143D-04
 -0.19567815D-04  0.73353565D-04  0.56514967D-04  0.24813115D-04 -0.83439633D-09
 -0.64285739D-09 -0.28224902D-09 -0.18140351D-02  0.99823616D-03  0.12196008D-03
 -0.15637354D-07 -0.59161599D-03  0.76649718D-03  0.99894661D-03 -0.45320096D-03
  0.50116874D-07  0.27340138D-07  0.41925000D-04  0.71112736D-04  0.80959336D-04
  0.30663543D-03 -0.32606198D-04 -0.60152068D-04 -0.97104089D-04 -0.12640067D-03
 -0.10785792D-03 -0.37240749D-04  0.26392927D-04  0.12164476D-04 -0.34110460D-04
  0.86890850D-04  0.66622393D-04  0.33249243D-04  0.77178135D-06  0.59175299D-06
  0.29532621D-06  0.86287883D-08  0.66160076D-08  0.33018515D-08  0.30197542D-03
  0.87581985D-04  0.63455477D-05 -0.16372234D-07  0.17428598D-04 -0.44598562D-05
 -0.31626570D-05  0.44011641D-05 -0.32786433D-08 -0.11371626D-07 -0.65505692D-05
 -0.11111005D-04 -0.12649487D-04 -0.55947085D-05 -0.65536309D-05 -0.11116198D-04
 -0.12655399D-04 -0.56078735D-05 -0.36745663D-05 -0.62327598D-05 -0.70957768D-05
 -0.17520344D-04  0.10548110D-04  0.19459203D-04  0.31413188D-04  0.40890637D-04
  0.34892055D-04  0.12047388D-04  0.55500041D-04  0.25579918D-04 -0.71728760D-04
 -0.20202067D-04 -0.15489664D-04 -0.77304279D-05  0.23840680D-04  0.18279521D-04
  0.91227623D-05 -0.89822454D-10 -0.68870161D-10 -0.34371037D-10 -0.22590305D-04
 -0.89582101D-04 -0.82140633D-04  0.44940093D-08  0.18205962D-03 -0.10835489D-03
  0.60333347D-04 -0.19096821D-03  0.84294666D-08  0.19953627D-07 -0.18732451D-04
 -0.31773783D-04 -0.36173329D-04 -0.25438110D-04  0.22294930D-04  0.37816421D-04