 Entering Link 1 = D:\Gaussian\G16W\l1.exe PID=     34920.
  
 Copyright (c) 1988,1990,1992,1993,1995,1998,2003,2009,2016,
            Gaussian, Inc.  All Rights Reserved.
  
 This is part of the Gaussian(R) 16 program.  It is based on
 the Gaussian(R) 09 system (copyright 2009, Gaussian, Inc.),
 the Gaussian(R) 03 system (copyright 2003, Gaussian, Inc.),
 the Gaussian(R) 98 system (copyright 1998, Gaussian, Inc.),
 the Gaussian(R) 94 system (copyright 1995, Gaussian, Inc.),
 the Gaussian 92(TM) system (copyright 1992, Gaussian, Inc.),
 the Gaussian 90(TM) system (copyright 1990, Gaussian, Inc.),
 the Gaussian 88(TM) system (copyright 1988, Gaussian, Inc.),
 the Gaussian 86(TM) system (copyright 1986, Carnegie Mellon
 University), and the Gaussian 82(TM) system (copyright 1983,
 Carnegie Mellon University). Gaussian is a federally registered
 trademark of Gaussian, Inc.
  
 This software contains proprietary and confidential information,
 including trade secrets, belonging to Gaussian, Inc.
  
 This software is provided under written license and may be
 used, copied, transmitted, or stored only in accord with that
 written license.
  
 The following legend is applicable only to US Government
 contracts under FAR:
  
                    RESTRICTED RIGHTS LEGEND
  
 Use, reproduction and disclosure by the US Government is
 subject to restrictions as set forth in subparagraphs (a)
 and (c) of the Commercial Computer Software - Restricted
 Rights clause in FAR 52.227-19.
  
 Gaussian, Inc.
 340 Quinnipiac St., Bldg. 40, Wallingford CT 06492
  
  
 ---------------------------------------------------------------
 Warning -- This program may not be used in any manner that
 competes with the business of Gaussian, Inc. or will provide
 assistance to any competitor of Gaussian, Inc.  The licensee
 of this program is prohibited from giving any competitor of
 Gaussian, Inc. access to this program.  By using this program,
 the user acknowledges that Gaussian, Inc. is engaged in the
 business of creating and licensing software in the field of
 computational chemistry and represents and warrants to the
 licensee that it is not a competitor of Gaussian, Inc. and that
 it will not use this program in any manner prohibited above.
 ---------------------------------------------------------------
  

 Cite this work as:
 Gaussian 16, Revision A.03,
 M. J. Frisch, G. W. Trucks, H. B. Schlegel, G. E. Scuseria, 
 M. A. Robb, J. R. Cheeseman, G. Scalmani, V. Barone, 
 G. A. Petersson, H. Nakatsuji, X. Li, M. Caricato, A. V. Marenich, 
 J. Bloino, B. G. Janesko, R. Gomperts, B. Mennucci, H. P. Hratchian, 
 J. V. Ortiz, A. F. Izmaylov, J. L. Sonnenberg, D. Williams-Young, 
 F. Ding, F. Lipparini, F. Egidi, J. Goings, B. Peng, A. Petrone, 
 T. Henderson, D. Ranasinghe, V. G. Zakrzewski, J. Gao, N. Rega, 
 G. Zheng, W. Liang, M. Hada, M. Ehara, K. Toyota, R. Fukuda, 
 J. Hasegawa, M. Ishida, T. Nakajima, Y. Honda, O. Kitao, H. Nakai, 
 T. Vreven, K. Throssell, J. A. Montgomery, Jr., J. E. Peralta, 
 F. Ogliaro, M. J. Bearpark, J. J. Heyd, E. N. Brothers, K. N. Kudin, 
 V. N. Staroverov, T. A. Keith, R. Kobayashi, J. Normand, 
 K. Raghavachari, A. P. Rendell, J. C. Burant, S. S. Iyengar, 
 J. Tomasi, M. Cossi, J. M. Millam, M. Klene, C. Adamo, R. Cammi, 
 J. W. Ochterski, R. L. Martin, K. Morokuma, O. Farkas, 
 J. B. Foresman, and D. J. Fox, Gaussian, Inc., Wallingford CT, 2016.
 
 ******************************************
 Gaussian 16:  EM64W-G16RevA.03 17-Dec-2016
                03-Dec-2025 
 ******************************************
 %nprocs=   4
 Will use up to    4 processors via shared memory.
 ------------------------------------
 #P B3LYP/6-31G* SCF=conver=7 out=wfn
 ------------------------------------
 1/38=1,172=1/1;
 2/12=2,17=6,18=5,40=1/2;
 3/5=1,6=6,7=1,11=2,25=1,30=1,74=-5/1,2,3;
 4//1;
 5/5=2,6=7,38=5/2;
 6/7=2,8=2,9=2,10=2,28=1/1;
 99/5=1,6=100,9=1/99;
 Leave Link    1 at Wed Dec 03 17:08:44 2025, MaxMem=           0 cpu:               0.0 elap:               0.1
 (Enter D:\Gaussian\G16W\l101.exe)
 ----------------------------------------------------
 Generated by Multiwfn (http://sobereva.com/multiwfn)
 ----------------------------------------------------
 Symbolic Z-matrix:
 Charge = -1 Multiplicity = 1
 C                    -1.06444  -1.38603   0.00008 
 C                     0.32928  -1.28162   0.00006 
 C                     0.9326   -0.03151  -0.00001 
 C                     0.10642   1.1924   -0.00008 
 C                    -1.32721   0.99404  -0.00005 
 C                    -1.91156  -0.25101   0.00003 
 H                    -1.51086  -2.37479   0.00013 
 H                    -1.92138   1.90179  -0.0001 
 O                     0.62438   2.32175  -0.00014 
 O                     2.25215   0.1967   -0.00004 
 H                     0.92207  -2.1868    0.0001 
 C                    -3.41371  -0.41619   0.00009 
 H                    -3.86209   0.05147   0.88127 
 H                    -3.86225   0.05219  -0.8806 
 H                    -3.69959  -1.46985  -0.00031 
 C                     3.143    -0.91521   0.00001 
 H                     3.00585  -1.53099  -0.89479 
 H                     4.14375  -0.48898  -0.00003 
 H                     3.00587  -1.5309    0.89487 
 
 ITRead=  0  0  0  0  0  0  0  0  0  0  0  0  0  0  0  0  0  0  0
 MicOpt= -1 -1 -1 -1 -1 -1 -1 -1 -1 -1 -1 -1 -1 -1 -1 -1 -1 -1 -1
 NAtoms=     19 NQM=       19 NQMF=       0 NMMI=      0 NMMIF=      0
                NMic=       0 NMicF=      0.
                    Isotopes and Nuclear Properties:
 (Nuclear quadrupole moments (NQMom) in fm**2, nuclear magnetic moments (NMagM)
  in nuclear magnetons)

  Atom         1           2           3           4           5           6           7           8           9          10
 IAtWgt=          12          12          12          12          12          12           1           1          16          16
 AtmWgt=  12.0000000  12.0000000  12.0000000  12.0000000  12.0000000  12.0000000   1.0078250   1.0078250  15.9949146  15.9949146
 NucSpn=           0           0           0           0           0           0           1           1           0           0
 AtZEff=   0.0000000   0.0000000   0.0000000   0.0000000   0.0000000   0.0000000   0.0000000   0.0000000   0.0000000   0.0000000
 NQMom=    0.0000000   0.0000000   0.0000000   0.0000000   0.0000000   0.0000000   0.0000000   0.0000000   0.0000000   0.0000000
 NMagM=    0.0000000   0.0000000   0.0000000   0.0000000   0.0000000   0.0000000   2.7928460   2.7928460   0.0000000   0.0000000
 AtZNuc=   6.0000000   6.0000000   6.0000000   6.0000000   6.0000000   6.0000000   1.0000000   1.0000000   8.0000000   8.0000000

  Atom        11          12          13          14          15          16          17          18          19
 IAtWgt=           1          12           1           1           1          12           1           1           1
 AtmWgt=   1.0078250  12.0000000   1.0078250   1.0078250   1.0078250  12.0000000   1.0078250   1.0078250   1.0078250
 NucSpn=           1           0           1           1           1           0           1           1           1
 AtZEff=   0.0000000   0.0000000   0.0000000   0.0000000   0.0000000   0.0000000   0.0000000   0.0000000   0.0000000
 NQMom=    0.0000000   0.0000000   0.0000000   0.0000000   0.0000000   0.0000000   0.0000000   0.0000000   0.0000000
 NMagM=    2.7928460   0.0000000   2.7928460   2.7928460   2.7928460   0.0000000   2.7928460   2.7928460   2.7928460
 AtZNuc=   1.0000000   6.0000000   1.0000000   1.0000000   1.0000000   6.0000000   1.0000000   1.0000000   1.0000000
 Leave Link  101 at Wed Dec 03 17:08:45 2025, MaxMem=   104857600 cpu:               1.0 elap:               0.1
 (Enter D:\Gaussian\G16W\l202.exe)
                          Input orientation:                          
 ---------------------------------------------------------------------
 Center     Atomic      Atomic             Coordinates (Angstroms)
 Number     Number       Type             X           Y           Z
 ---------------------------------------------------------------------
      1          6           0       -1.064436   -1.386031    0.000079
      2          6           0        0.329283   -1.281622    0.000060
      3          6           0        0.932599   -0.031513   -0.000012
      4          6           0        0.106420    1.192404   -0.000075
      5          6           0       -1.327212    0.994037   -0.000048
      6          6           0       -1.911560   -0.251005    0.000029
      7          1           0       -1.510859   -2.374785    0.000134
      8          1           0       -1.921378    1.901794   -0.000096
      9          8           0        0.624382    2.321746   -0.000136
     10          8           0        2.252154    0.196704   -0.000035
     11          1           0        0.922065   -2.186796    0.000099
     12          6           0       -3.413706   -0.416188    0.000094
     13          1           0       -3.862088    0.051466    0.881265
     14          1           0       -3.862249    0.052194   -0.880603
     15          1           0       -3.699587   -1.469847   -0.000308
     16          6           0        3.143003   -0.915209    0.000009
     17          1           0        3.005848   -1.530988   -0.894788
     18          1           0        4.143749   -0.488980   -0.000026
     19          1           0        3.005873   -1.530898    0.894871
 ---------------------------------------------------------------------
                    Distance matrix (angstroms):
                    1          2          3          4          5
     1  C    0.000000
     2  C    1.397624   0.000000
     3  C    2.413062   1.388079   0.000000
     4  C    2.831825   2.484044   1.476667   0.000000
     5  C    2.394530   2.814711   2.481632   1.447291   0.000000
     6  C    1.416299   2.466485   2.852616   2.481063   1.375352
     7  H    1.084863   2.140357   3.385471   3.916686   3.373824
     8  H    3.397667   3.898668   3.447153   2.148301   1.084922
     9  O    4.074275   3.615431   2.373357   1.242456   2.360409
    10  O    3.674890   2.425465   1.339145   2.365501   3.667097
    11  H    2.141824   1.082003   2.155309   3.476244   3.895760
    12  C    2.541587   3.841737   4.363295   3.870253   2.518371
    13  H    3.266457   4.485670   4.875711   4.222269   2.844424
    14  H    3.266780   4.485931   4.875758   4.222054   2.844092
    15  H    2.636484   4.033264   4.850356   4.644703   3.420364
    16  C    4.233700   2.837478   2.380505   3.696332   4.860868
    17  H    4.170013   2.833185   2.710611   4.077261   5.094283
    18  H    5.284874   3.895951   3.243572   4.373451   5.668400
    19  H    4.170019   2.833189   2.710615   4.077270   5.094291
                    6          7          8          9         10
     6  C    0.000000
     7  H    2.161250   0.000000
     8  H    2.152821   4.296237   0.000000
     9  O    3.612485   5.159133   2.580165   0.000000
    10  O    4.187715   4.557721   4.508403   2.676835   0.000000
    11  H    3.431722   2.440176   4.980134   4.518359   2.729507
    12  C    1.511201   2.730738   2.756825   4.878774   5.698913
    13  H    2.161626   3.491613   2.822564   5.104846   6.179137
    14  H    2.161627   3.492128   2.821931   5.104503   6.179175
    15  H    2.163935   2.368426   3.811822   5.750903   6.180664
    16  C    5.098017   4.877376   5.795124   4.101381   1.424768
    17  H    5.159453   4.681188   6.071410   4.616854   2.086518
    18  H    6.059983   5.960776   6.519322   4.504012   2.012037
    19  H    5.159459   4.681193   6.071420   4.616861   2.086518
                   11         12         13         14         15
    11  H    0.000000
    12  C    4.683371   0.000000
    13  H    5.354847   1.093713   0.000000
    14  H    5.355219   1.093709   1.761868   0.000000
    15  H    4.676931   1.091753   1.765778   1.765782   0.000000
    16  C    2.559199   6.575671   7.126175   7.126353   6.865032
    17  H    2.360733   6.576798   7.268223   7.048221   6.765108
    18  H    3.641679   7.557806   8.072310   8.072440   7.904430
    19  H    2.360736   6.576792   7.047904   7.268397   6.765225
                   16         17         18         19
    16  C    0.000000
    17  H    1.094832   0.000000
    18  H    1.087733   1.783591   0.000000
    19  H    1.094831   1.789659   1.783591   0.000000
 Stoichiometry    C8H9O2(1-)
 Framework group  C1[X(C8H9O2)]
 Deg. of freedom    51
 Full point group                 C1      NOp   1
 Largest Abelian subgroup         C1      NOp   1
 Largest concise Abelian subgroup C1      NOp   1
                         Standard orientation:                         
 ---------------------------------------------------------------------
 Center     Atomic      Atomic             Coordinates (Angstroms)
 Number     Number       Type             X           Y           Z
 ---------------------------------------------------------------------
      1          6           0       -1.064436   -1.386031    0.000079
      2          6           0        0.329283   -1.281622    0.000060
      3          6           0        0.932599   -0.031513   -0.000012
      4          6           0        0.106420    1.192404   -0.000075
      5          6           0       -1.327212    0.994037   -0.000048
      6          6           0       -1.911560   -0.251005    0.000029
      7          1           0       -1.510859   -2.374785    0.000134
      8          1           0       -1.921378    1.901794   -0.000096
      9          8           0        0.624382    2.321746   -0.000136
     10          8           0        2.252154    0.196704   -0.000035
     11          1           0        0.922065   -2.186796    0.000099
     12          6           0       -3.413706   -0.416188    0.000094
     13          1           0       -3.862088    0.051466    0.881265
     14          1           0       -3.862249    0.052194   -0.880603
     15          1           0       -3.699587   -1.469847   -0.000308
     16          6           0        3.143003   -0.915209    0.000009
     17          1           0        3.005848   -1.530988   -0.894788
     18          1           0        4.143749   -0.488980   -0.000026
     19          1           0        3.005873   -1.530898    0.894871
 ---------------------------------------------------------------------
 Rotational constants (GHZ):           2.5878352           0.9612915           0.7071570
 Leave Link  202 at Wed Dec 03 17:08:45 2025, MaxMem=   104857600 cpu:               0.0 elap:               0.1
 (Enter D:\Gaussian\G16W\l301.exe)
 Standard basis: 6-31G(d) (6D, 7F)
 Ernie: Thresh=  0.10000D-02 Tol=  0.10000D-05 Strict=F.
 There are   168 symmetry adapted cartesian basis functions of A   symmetry.
 There are   168 symmetry adapted basis functions of A   symmetry.
   168 basis functions,   316 primitive gaussians,   168 cartesian basis functions
    37 alpha electrons       37 beta electrons
       nuclear repulsion energy       501.2226345287 Hartrees.
 IExCor=  402 DFT=T Ex+Corr=B3LYP ExCW=0 ScaHFX=  0.200000
 ScaDFX=  0.800000  0.720000  1.000000  0.810000 ScalE2=  1.000000  1.000000
 IRadAn=      5 IRanWt=     -1 IRanGd=            0 ICorTp=0 IEmpDi=  4
 NAtoms=   19 NActive=   19 NUniq=   19 SFac= 1.00D+00 NAtFMM=   60 NAOKFM=F Big=F
 Integral buffers will be    131072 words long.
 Raffenetti 2 integral format.
 Two-electron integral symmetry is turned on.
 Leave Link  301 at Wed Dec 03 17:08:45 2025, MaxMem=   104857600 cpu:               0.0 elap:               0.1
 (Enter D:\Gaussian\G16W\l302.exe)
 NPDir=0 NMtPBC=     1 NCelOv=     1 NCel=       1 NClECP=     1 NCelD=      1
         NCelK=      1 NCelE2=     1 NClLst=     1 CellRange=     0.0.
 One-electron integrals computed using PRISM.
 One-electron integral symmetry used in STVInt
 NBasis=   168 RedAO= T EigKep=  4.38D-04  NBF=   168
 NBsUse=   168 1.00D-06 EigRej= -1.00D+00 NBFU=   168
 Precomputing XC quadrature grid using
 IXCGrd= 4 IRadAn=           5 IRanWt=          -1 IRanGd=           0 AccXCQ= 0.00D+00.
 Generated NRdTot=       0 NPtTot=           0 NUsed=           0 NTot=          32
 NSgBfM=   167   167   167   167   167 MxSgAt=    19 MxSgA2=    19.
 Leave Link  302 at Wed Dec 03 17:08:45 2025, MaxMem=   104857600 cpu:               0.0 elap:               0.4
 (Enter D:\Gaussian\G16W\l303.exe)
 DipDrv:  MaxL=1.
 Leave Link  303 at Wed Dec 03 17:08:45 2025, MaxMem=   104857600 cpu:               0.0 elap:               0.1
 (Enter D:\Gaussian\G16W\l401.exe)
 ExpMin= 1.61D-01 ExpMax= 5.48D+03 ExpMxC= 8.25D+02 IAcc=3 IRadAn=         5 AccDes= 0.00D+00
 Harris functional with IExCor=  402 and IRadAn=       5 diagonalized for initial guess.
 HarFok:  IExCor=  402 AccDes= 0.00D+00 IRadAn=         5 IDoV= 1 UseB2=F ITyADJ=14
 ICtDFT=  3500011 ScaDFX=  1.000000  1.000000  1.000000  1.000000
 FoFCou: FMM=F IPFlag=           0 FMFlag=      100000 FMFlg1=           0
         NFxFlg=           0 DoJE=T BraDBF=F KetDBF=T FulRan=T
         wScrn=  0.000000 ICntrl=       500 IOpCl=  0 I1Cent=   200000004 NGrid=           0
         NMat0=    1 NMatS0=      1 NMatT0=    0 NMatD0=    1 NMtDS0=    0 NMtDT0=    0
 Petite list used in FoFCou.
 Harris En= -460.957150060178    
 JPrj=0 DoOrth=F DoCkMO=F.
 Leave Link  401 at Wed Dec 03 17:08:46 2025, MaxMem=   104857600 cpu:               1.0 elap:               1.2
 (Enter D:\Gaussian\G16W\l502.exe)
 Keep R1 ints in memory in canonical form, NReq=104755543.
 FoFCou: FMM=F IPFlag=           0 FMFlag=           0 FMFlg1=           0
         NFxFlg=           0 DoJE=F BraDBF=F KetDBF=F FulRan=T
         wScrn=  0.000000 ICntrl=       600 IOpCl=  0 I1Cent=           0 NGrid=           0
         NMat0=    1 NMatS0=  14196 NMatT0=    0 NMatD0=    1 NMtDS0=    0 NMtDT0=    0
 Symmetry not used in FoFCou.
 Two-electron integral symmetry not used.
 Closed shell SCF:
 Using DIIS extrapolation, IDIIS=  1040.
 NGot=   104857600 LenX=     4027843 LenY=     3999178
 Requested convergence on RMS density matrix=1.00D-07 within 128 cycles.
 Requested convergence on MAX density matrix=1.00D-05.
 Requested convergence on             energy=1.00D-05.
 No special actions if energy rises.
 Integral accuracy reduced to 1.0D-05 until final iterations.

 Cycle   1  Pass 0  IDiag  1:
 CalDSu:  requested number of processors reduced to:   3 ShMem   1 Linda.
 E= -460.354494727868    
 DIIS: error= 3.91D-02 at cycle   1 NSaved=   1.
 NSaved= 1 IEnMin= 1 EnMin= -460.354494727868     IErMin= 1 ErrMin= 3.91D-02
 ErrMax= 3.91D-02  0.00D+00 EMaxC= 1.00D-01 BMatC= 3.43D-01 BMatP= 3.43D-01
 IDIUse=3 WtCom= 6.09D-01 WtEn= 3.91D-01
 Coeff-Com:  0.100D+01
 Coeff-En:   0.100D+01
 Coeff:      0.100D+01
 Gap=     0.172 Goal=   None    Shift=    0.000
 GapD=    0.172 DampG=1.000 DampE=0.500 DampFc=0.5000 IDamp=-1.
 Damping current iteration by 5.00D-01
 RMSDP=1.24D-02 MaxDP=2.61D-01              OVMax= 3.42D-01

 Cycle   2  Pass 0  IDiag  1:
 CalDSu:  requested number of processors reduced to:   3 ShMem   1 Linda.
 E= -460.495889330552     Delta-E=       -0.141394602684 Rises=F Damp=T
 DIIS: error= 1.21D-02 at cycle   2 NSaved=   2.
 NSaved= 2 IEnMin= 2 EnMin= -460.495889330552     IErMin= 2 ErrMin= 1.21D-02
 ErrMax= 1.21D-02  0.00D+00 EMaxC= 1.00D-01 BMatC= 2.97D-02 BMatP= 3.43D-01
 IDIUse=3 WtCom= 8.79D-01 WtEn= 1.21D-01
 Coeff-Com:  0.126D+00 0.874D+00
 Coeff-En:   0.186D+00 0.814D+00
 Coeff:      0.133D+00 0.867D+00
 Gap=     0.264 Goal=   None    Shift=    0.000
 RMSDP=3.81D-03 MaxDP=8.41D-02 DE=-1.41D-01 OVMax= 2.52D-01

 Cycle   3  Pass 0  IDiag  1:
 CalDSu:  requested number of processors reduced to:   3 ShMem   1 Linda.
 E= -460.675686998019     Delta-E=       -0.179797667467 Rises=F Damp=F
 DIIS: error= 1.70D-02 at cycle   3 NSaved=   3.
 NSaved= 3 IEnMin= 3 EnMin= -460.675686998019     IErMin= 2 ErrMin= 1.21D-02
 ErrMax= 1.70D-02  0.00D+00 EMaxC= 1.00D-01 BMatC= 4.17D-02 BMatP= 2.97D-02
 IDIUse=2 WtCom= 0.00D+00 WtEn= 1.00D+00
 Coeff-En:   0.000D+00 0.000D+00 0.100D+01
 Coeff:      0.000D+00 0.000D+00 0.100D+01
 Gap=     0.151 Goal=   None    Shift=    0.000
 RMSDP=5.18D-03 MaxDP=1.57D-01 DE=-1.80D-01 OVMax= 3.11D-01

 Cycle   4  Pass 0  IDiag  1:
 CalDSu:  requested number of processors reduced to:   3 ShMem   1 Linda.
 E= -460.503444016242     Delta-E=        0.172242981777 Rises=F Damp=F
 DIIS: error= 4.22D-02 at cycle   4 NSaved=   4.
 NSaved= 4 IEnMin= 3 EnMin= -460.675686998019     IErMin= 2 ErrMin= 1.21D-02
 ErrMax= 4.22D-02  0.00D+00 EMaxC= 1.00D-01 BMatC= 2.44D-01 BMatP= 2.97D-02
 IDIUse=2 WtCom= 0.00D+00 WtEn= 1.00D+00
 Coeff-En:   0.000D+00 0.000D+00 0.798D+00 0.202D+00
 Coeff:      0.000D+00 0.000D+00 0.798D+00 0.202D+00
 Gap=     0.179 Goal=   None    Shift=    0.000
 RMSDP=2.96D-03 MaxDP=9.24D-02 DE= 1.72D-01 OVMax= 1.58D-01

 Cycle   5  Pass 0  IDiag  1:
 CalDSu:  requested number of processors reduced to:   3 ShMem   1 Linda.
 E= -460.697465743764     Delta-E=       -0.194021727522 Rises=F Damp=F
 DIIS: error= 1.07D-02 at cycle   5 NSaved=   5.
 NSaved= 5 IEnMin= 5 EnMin= -460.697465743764     IErMin= 5 ErrMin= 1.07D-02
 ErrMax= 1.07D-02  0.00D+00 EMaxC= 1.00D-01 BMatC= 1.74D-02 BMatP= 2.97D-02
 IDIUse=3 WtCom= 8.93D-01 WtEn= 1.07D-01
 Coeff-Com:  0.253D-02 0.896D-02 0.365D+00-0.240D-01 0.648D+00
 Coeff-En:   0.000D+00 0.000D+00 0.334D+00 0.000D+00 0.666D+00
 Coeff:      0.226D-02 0.800D-02 0.361D+00-0.215D-01 0.650D+00
 Gap=     0.170 Goal=   None    Shift=    0.000
 RMSDP=9.70D-04 MaxDP=2.73D-02 DE=-1.94D-01 OVMax= 5.50D-02

 Cycle   6  Pass 0  IDiag  1:
 CalDSu:  requested number of processors reduced to:   3 ShMem   1 Linda.
 E= -460.712209902793     Delta-E=       -0.014744159029 Rises=F Damp=F
 DIIS: error= 1.16D-03 at cycle   6 NSaved=   6.
 NSaved= 6 IEnMin= 6 EnMin= -460.712209902793     IErMin= 6 ErrMin= 1.16D-03
 ErrMax= 1.16D-03  0.00D+00 EMaxC= 1.00D-01 BMatC= 2.86D-04 BMatP= 1.74D-02
 IDIUse=3 WtCom= 9.88D-01 WtEn= 1.16D-02
 Coeff-Com: -0.278D-02 0.102D-01 0.151D+00-0.537D-01 0.428D+00 0.467D+00
 Coeff-En:   0.000D+00 0.000D+00 0.000D+00 0.000D+00 0.000D+00 0.100D+01
 Coeff:     -0.275D-02 0.101D-01 0.149D+00-0.531D-01 0.423D+00 0.474D+00
 Gap=     0.168 Goal=   None    Shift=    0.000
 RMSDP=1.36D-04 MaxDP=4.28D-03 DE=-1.47D-02 OVMax= 9.65D-03

 Cycle   7  Pass 0  IDiag  1:
 CalDSu:  requested number of processors reduced to:   3 ShMem   1 Linda.
 E= -460.712519290137     Delta-E=       -0.000309387343 Rises=F Damp=F
 DIIS: error= 1.69D-04 at cycle   7 NSaved=   7.
 NSaved= 7 IEnMin= 7 EnMin= -460.712519290137     IErMin= 7 ErrMin= 1.69D-04
 ErrMax= 1.69D-04  0.00D+00 EMaxC= 1.00D-01 BMatC= 1.08D-05 BMatP= 2.86D-04
 IDIUse=3 WtCom= 9.98D-01 WtEn= 1.69D-03
 Coeff-Com: -0.970D-03 0.220D-02 0.552D-01-0.235D-01 0.166D+00 0.224D+00
 Coeff-Com:  0.577D+00
 Coeff-En:   0.000D+00 0.000D+00 0.000D+00 0.000D+00 0.000D+00 0.000D+00
 Coeff-En:   0.100D+01
 Coeff:     -0.968D-03 0.219D-02 0.551D-01-0.234D-01 0.165D+00 0.224D+00
 Coeff:      0.578D+00
 Gap=     0.168 Goal=   None    Shift=    0.000
 RMSDP=2.22D-05 MaxDP=5.35D-04 DE=-3.09D-04 OVMax= 1.33D-03

 Cycle   8  Pass 0  IDiag  1:
 CalDSu:  requested number of processors reduced to:   3 ShMem   1 Linda.
 E= -460.712528127438     Delta-E=       -0.000008837301 Rises=F Damp=F
 DIIS: error= 7.44D-05 at cycle   8 NSaved=   8.
 NSaved= 8 IEnMin= 8 EnMin= -460.712528127438     IErMin= 8 ErrMin= 7.44D-05
 ErrMax= 7.44D-05  0.00D+00 EMaxC= 1.00D-01 BMatC= 1.42D-06 BMatP= 1.08D-05
 IDIUse=1 WtCom= 1.00D+00 WtEn= 0.00D+00
 Coeff-Com:  0.134D-03-0.703D-03 0.866D-02-0.398D-02 0.227D-01 0.465D-01
 Coeff-Com:  0.302D+00 0.624D+00
 Coeff:      0.134D-03-0.703D-03 0.866D-02-0.398D-02 0.227D-01 0.465D-01
 Coeff:      0.302D+00 0.624D+00
 Gap=     0.168 Goal=   None    Shift=    0.000
 RMSDP=9.41D-06 MaxDP=2.42D-04 DE=-8.84D-06 OVMax= 3.07D-04

 Initial convergence to 1.0D-05 achieved.  Increase integral accuracy.
 Cycle   9  Pass 1  IDiag  1:
 CalDSu:  requested number of processors reduced to:   3 ShMem   1 Linda.
 E= -460.712526122568     Delta-E=        0.000002004870 Rises=F Damp=F
 DIIS: error= 1.20D-05 at cycle   1 NSaved=   1.
 NSaved= 1 IEnMin= 1 EnMin= -460.712526122568     IErMin= 1 ErrMin= 1.20D-05
 ErrMax= 1.20D-05  0.00D+00 EMaxC= 1.00D-01 BMatC= 5.31D-08 BMatP= 5.31D-08
 IDIUse=1 WtCom= 1.00D+00 WtEn= 0.00D+00
 Coeff-Com:  0.100D+01
 Coeff:      0.100D+01
 Gap=     0.168 Goal=   None    Shift=    0.000
 RMSDP=9.41D-06 MaxDP=2.42D-04 DE= 2.00D-06 OVMax= 2.27D-04

 Cycle  10  Pass 1  IDiag  1:
 CalDSu:  requested number of processors reduced to:   3 ShMem   1 Linda.
 E= -460.712526055868     Delta-E=        0.000000066700 Rises=F Damp=F
 DIIS: error= 2.28D-05 at cycle   2 NSaved=   2.
 NSaved= 2 IEnMin= 1 EnMin= -460.712526122568     IErMin= 1 ErrMin= 1.20D-05
 ErrMax= 2.28D-05  0.00D+00 EMaxC= 1.00D-01 BMatC= 1.28D-07 BMatP= 5.31D-08
 IDIUse=1 WtCom= 1.00D+00 WtEn= 0.00D+00
 Coeff-Com:  0.612D+00 0.388D+00
 Coeff:      0.612D+00 0.388D+00
 Gap=     0.168 Goal=   None    Shift=    0.000
 RMSDP=2.51D-06 MaxDP=5.83D-05 DE= 6.67D-08 OVMax= 1.67D-04

 Cycle  11  Pass 1  IDiag  1:
 CalDSu:  requested number of processors reduced to:   3 ShMem   1 Linda.
 E= -460.712526176058     Delta-E=       -0.000000120191 Rises=F Damp=F
 DIIS: error= 2.56D-06 at cycle   3 NSaved=   3.
 NSaved= 3 IEnMin= 3 EnMin= -460.712526176058     IErMin= 3 ErrMin= 2.56D-06
 ErrMax= 2.56D-06  0.00D+00 EMaxC= 1.00D-01 BMatC= 1.62D-09 BMatP= 5.31D-08
 IDIUse=1 WtCom= 1.00D+00 WtEn= 0.00D+00
 Coeff-Com:  0.199D+00 0.156D+00 0.645D+00
 Coeff:      0.199D+00 0.156D+00 0.645D+00
 Gap=     0.168 Goal=   None    Shift=    0.000
 RMSDP=5.17D-07 MaxDP=1.02D-05 DE=-1.20D-07 OVMax= 3.38D-05

 Cycle  12  Pass 1  IDiag  1:
 CalDSu:  requested number of processors reduced to:   3 ShMem   1 Linda.
 E= -460.712526177098     Delta-E=       -0.000000001040 Rises=F Damp=F
 DIIS: error= 1.54D-06 at cycle   4 NSaved=   4.
 NSaved= 4 IEnMin= 4 EnMin= -460.712526177098     IErMin= 4 ErrMin= 1.54D-06
 ErrMax= 1.54D-06  0.00D+00 EMaxC= 1.00D-01 BMatC= 8.07D-10 BMatP= 1.62D-09
 IDIUse=1 WtCom= 1.00D+00 WtEn= 0.00D+00
 Coeff-Com:  0.213D-01 0.321D-01 0.428D+00 0.519D+00
 Coeff:      0.213D-01 0.321D-01 0.428D+00 0.519D+00
 Gap=     0.168 Goal=   None    Shift=    0.000
 RMSDP=2.38D-07 MaxDP=5.90D-06 DE=-1.04D-09 OVMax= 1.55D-05

 Cycle  13  Pass 1  IDiag  1:
 CalDSu:  requested number of processors reduced to:   3 ShMem   1 Linda.
 E= -460.712526177849     Delta-E=       -0.000000000750 Rises=F Damp=F
 DIIS: error= 6.89D-07 at cycle   5 NSaved=   5.
 NSaved= 5 IEnMin= 5 EnMin= -460.712526177849     IErMin= 5 ErrMin= 6.89D-07
 ErrMax= 6.89D-07  0.00D+00 EMaxC= 1.00D-01 BMatC= 8.65D-11 BMatP= 8.07D-10
 IDIUse=1 WtCom= 1.00D+00 WtEn= 0.00D+00
 Coeff-Com: -0.977D-02 0.251D-02 0.212D+00 0.316D+00 0.479D+00
 Coeff:     -0.977D-02 0.251D-02 0.212D+00 0.316D+00 0.479D+00
 Gap=     0.168 Goal=   None    Shift=    0.000
 RMSDP=7.29D-08 MaxDP=2.13D-06 DE=-7.50D-10 OVMax= 3.03D-06

 SCF Done:  E(RB3LYP) =  -460.712526178     A.U. after   13 cycles
            NFock= 13  Conv=0.73D-07     -V/T= 2.0086
 KE= 4.567883167522D+02 PE=-2.089664855863D+03 EE= 6.709413784042D+02
 Leave Link  502 at Wed Dec 03 17:09:02 2025, MaxMem=   104857600 cpu:              16.0 elap:              15.8
 (Enter D:\Gaussian\G16W\l601.exe)
 Copying SCF densities to generalized density rwf, IOpCl= 0 IROHF=0.

 **********************************************************************

            Population analysis using the SCF density.

 **********************************************************************

 Orbital symmetries:
       Occupied  (A) (A) (A) (A) (A) (A) (A) (A) (A) (A) (A) (A)
                 (A) (A) (A) (A) (A) (A) (A) (A) (A) (A) (A) (A)
                 (A) (A) (A) (A) (A) (A) (A) (A) (A) (A) (A) (A)
                 (A)
       Virtual   (A) (A) (A) (A) (A) (A) (A) (A) (A) (A) (A) (A)
                 (A) (A) (A) (A) (A) (A) (A) (A) (A) (A) (A) (A)
                 (A) (A) (A) (A) (A) (A) (A) (A) (A) (A) (A) (A)
                 (A) (A) (A) (A) (A) (A) (A) (A) (A) (A) (A) (A)
                 (A) (A) (A) (A) (A) (A) (A) (A) (A) (A) (A) (A)
                 (A) (A) (A) (A) (A) (A) (A) (A) (A) (A) (A) (A)
                 (A) (A) (A) (A) (A) (A) (A) (A) (A) (A) (A) (A)
                 (A) (A) (A) (A) (A) (A) (A) (A) (A) (A) (A) (A)
                 (A) (A) (A) (A) (A) (A) (A) (A) (A) (A) (A) (A)
                 (A) (A) (A) (A) (A) (A) (A) (A) (A) (A) (A) (A)
                 (A) (A) (A) (A) (A) (A) (A) (A) (A) (A) (A)
 The electronic state is 1-A.
 Alpha  occ. eigenvalues --  -19.00717 -18.86511 -10.10312 -10.03885 -10.03622
 Alpha  occ. eigenvalues --  -10.02863 -10.00660 -10.00259  -9.98671  -9.96935
 Alpha  occ. eigenvalues --   -0.89871  -0.77188  -0.64905  -0.59697  -0.56927
 Alpha  occ. eigenvalues --   -0.52237  -0.48781  -0.41148  -0.38580  -0.34895
 Alpha  occ. eigenvalues --   -0.32285  -0.31822  -0.28058  -0.26968  -0.26883
 Alpha  occ. eigenvalues --   -0.25365  -0.22368  -0.20583  -0.20536  -0.18175
 Alpha  occ. eigenvalues --   -0.17182  -0.14425  -0.14283  -0.11290  -0.04437
 Alpha  occ. eigenvalues --   -0.01015   0.03099
 Alpha virt. eigenvalues --    0.19927   0.22527   0.22955   0.24628   0.26733
 Alpha virt. eigenvalues --    0.27885   0.28320   0.29595   0.30720   0.31328
 Alpha virt. eigenvalues --    0.32791   0.35562   0.38621   0.39742   0.43745
 Alpha virt. eigenvalues --    0.47559   0.49956   0.52742   0.55804   0.58098
 Alpha virt. eigenvalues --    0.62312   0.66559   0.67959   0.69096   0.69347
 Alpha virt. eigenvalues --    0.71341   0.73390   0.73884   0.74256   0.78439
 Alpha virt. eigenvalues --    0.78970   0.80957   0.81771   0.83840   0.85765
 Alpha virt. eigenvalues --    0.87498   0.88476   0.89904   0.90317   0.93274
 Alpha virt. eigenvalues --    0.96681   0.97386   0.99121   0.99507   1.01690
 Alpha virt. eigenvalues --    1.02796   1.04432   1.04673   1.07346   1.07584
 Alpha virt. eigenvalues --    1.08582   1.10425   1.15483   1.17566   1.19137
 Alpha virt. eigenvalues --    1.19366   1.21137   1.27787   1.28023   1.30498
 Alpha virt. eigenvalues --    1.32175   1.37306   1.41460   1.42767   1.44198
 Alpha virt. eigenvalues --    1.48929   1.54606   1.56809   1.57032   1.62907
 Alpha virt. eigenvalues --    1.63352   1.64809   1.65859   1.68657   1.70735
 Alpha virt. eigenvalues --    1.84068   1.90627   1.95213   1.97336   1.99507
 Alpha virt. eigenvalues --    2.01074   2.04932   2.06831   2.06904   2.07744
 Alpha virt. eigenvalues --    2.11472   2.12698   2.16218   2.17887   2.20449
 Alpha virt. eigenvalues --    2.21852   2.24083   2.26135   2.29031   2.31659
 Alpha virt. eigenvalues --    2.33481   2.35465   2.39674   2.41341   2.47361
 Alpha virt. eigenvalues --    2.48758   2.49043   2.51776   2.55527   2.58555
 Alpha virt. eigenvalues --    2.59016   2.69599   2.75281   2.84143   2.84455
 Alpha virt. eigenvalues --    2.87659   2.88496   2.89470   2.97422   3.04939
 Alpha virt. eigenvalues --    3.08489   3.12126   3.16453   3.26770   3.47411
 Alpha virt. eigenvalues --    3.58809   4.12141   4.27572   4.28770   4.35240
 Alpha virt. eigenvalues --    4.39991   4.44053   4.53951   4.60221   4.77521
 Alpha virt. eigenvalues --    5.18538
          Condensed to atoms (all electrons):
               1          2          3          4          5          6
     1  C    5.087115   0.457065  -0.005009  -0.040568  -0.038874   0.557560
     2  C    0.457065   5.205321   0.407128  -0.019628  -0.040733  -0.020425
     3  C   -0.005009   0.407128   5.123102   0.292374  -0.083357  -0.031150
     4  C   -0.040568  -0.019628   0.292374   4.470599   0.431812   0.010794
     5  C   -0.038874  -0.040733  -0.083357   0.431812   5.433280   0.447801
     6  C    0.557560  -0.020425  -0.031150   0.010794   0.447801   4.691260
     7  H    0.329560  -0.056238   0.005129   0.000322   0.007743  -0.045717
     8  H    0.007657  -0.000491   0.011312  -0.032436   0.314898  -0.072139
     9  O    0.000162   0.007095  -0.098694   0.545091  -0.085846   0.005916
    10  O    0.003857  -0.075227   0.255193  -0.049286   0.003086   0.000237
    11  H   -0.041458   0.325213  -0.047044   0.001836   0.000571   0.004046
    12  C   -0.055294   0.010003  -0.000682   0.005255  -0.076518   0.315948
    13  H   -0.000320  -0.000170   0.000040  -0.000066   0.000033  -0.027465
    14  H   -0.000314  -0.000170   0.000040  -0.000066   0.000034  -0.027462
    15  H   -0.003246  -0.000144   0.000059  -0.000110   0.003116  -0.024658
    16  C    0.000428  -0.012496  -0.050840   0.005231  -0.000113  -0.000017
    17  H   -0.000281   0.007455  -0.001410  -0.000482   0.000001  -0.000006
    18  H   -0.000001   0.000207   0.003395   0.000174   0.000007   0.000000
    19  H   -0.000281   0.007455  -0.001411  -0.000482   0.000001  -0.000006
               7          8          9         10         11         12
     1  C    0.329560   0.007657   0.000162   0.003857  -0.041458  -0.055294
     2  C   -0.056238  -0.000491   0.007095  -0.075227   0.325213   0.010003
     3  C    0.005129   0.011312  -0.098694   0.255193  -0.047044  -0.000682
     4  C    0.000322  -0.032436   0.545091  -0.049286   0.001836   0.005255
     5  C    0.007743   0.314898  -0.085846   0.003086   0.000571  -0.076518
     6  C   -0.045717  -0.072139   0.005916   0.000237   0.004046   0.315948
     7  H    0.749457  -0.000250   0.000001  -0.000069  -0.007812  -0.016075
     8  H   -0.000250   0.740551   0.003864  -0.000063   0.000028  -0.013632
     9  O    0.000001   0.003864   8.297634   0.000260  -0.000085  -0.000089
    10  O   -0.000069  -0.000063   0.000260   8.198069  -0.008019   0.000001
    11  H   -0.007812   0.000028  -0.000085  -0.008019   0.712619  -0.000266
    12  C   -0.016075  -0.013632  -0.000089   0.000001  -0.000266   5.307735
    13  H    0.000146   0.002639  -0.000001   0.000000   0.000004   0.348600
    14  H    0.000145   0.002644  -0.000001   0.000000   0.000004   0.348600
    15  H    0.009937   0.000121   0.000001   0.000000  -0.000010   0.347935
    16  C   -0.000016   0.000005  -0.000043   0.273342   0.005344   0.000000
    17  H    0.000007   0.000000  -0.000025  -0.039555   0.001759   0.000000
    18  H    0.000000   0.000000   0.000027  -0.038315  -0.000037   0.000000
    19  H    0.000007   0.000000  -0.000025  -0.039555   0.001759   0.000000
              13         14         15         16         17         18
     1  C   -0.000320  -0.000314  -0.003246   0.000428  -0.000281  -0.000001
     2  C   -0.000170  -0.000170  -0.000144  -0.012496   0.007455   0.000207
     3  C    0.000040   0.000040   0.000059  -0.050840  -0.001410   0.003395
     4  C   -0.000066  -0.000066  -0.000110   0.005231  -0.000482   0.000174
     5  C    0.000033   0.000034   0.003116  -0.000113   0.000001   0.000007
     6  C   -0.027465  -0.027462  -0.024658  -0.000017  -0.000006   0.000000
     7  H    0.000146   0.000145   0.009937  -0.000016   0.000007   0.000000
     8  H    0.002639   0.002644   0.000121   0.000005   0.000000   0.000000
     9  O   -0.000001  -0.000001   0.000001  -0.000043  -0.000025   0.000027
    10  O    0.000000   0.000000   0.000000   0.273342  -0.039555  -0.038315
    11  H    0.000004   0.000004  -0.000010   0.005344   0.001759  -0.000037
    12  C    0.348600   0.348600   0.347935   0.000000   0.000000   0.000000
    13  H    0.636080  -0.044948  -0.033462   0.000000   0.000000   0.000000
    14  H   -0.044948   0.636062  -0.033458   0.000000   0.000000   0.000000
    15  H   -0.033462  -0.033458   0.622322   0.000000   0.000000   0.000000
    16  C    0.000000   0.000000   0.000000   4.884595   0.345663   0.382199
    17  H    0.000000   0.000000   0.000000   0.345663   0.670548  -0.038868
    18  H    0.000000   0.000000   0.000000   0.382199  -0.038868   0.604786
    19  H    0.000000   0.000000   0.000000   0.345664  -0.061504  -0.038868
              19
     1  C   -0.000281
     2  C    0.007455
     3  C   -0.001411
     4  C   -0.000482
     5  C    0.000001
     6  C   -0.000006
     7  H    0.000007
     8  H    0.000000
     9  O   -0.000025
    10  O   -0.039555
    11  H    0.001759
    12  C    0.000000
    13  H    0.000000
    14  H    0.000000
    15  H    0.000000
    16  C    0.345664
    17  H   -0.061504
    18  H   -0.038868
    19  H    0.670549
 Mulliken charges:
               1
     1  C   -0.257759
     2  C   -0.201220
     3  C    0.221827
     4  C    0.379636
     5  C   -0.316942
     6  C    0.215484
     7  H    0.023725
     8  H    0.035293
     9  O   -0.675241
    10  O   -0.483956
    11  H    0.051550
    12  C   -0.521521
    13  H    0.118890
    14  H    0.118890
    15  H    0.111599
    16  C   -0.178946
    17  H    0.116698
    18  H    0.125294
    19  H    0.116698
 Sum of Mulliken charges =  -1.00000
 Mulliken charges with hydrogens summed into heavy atoms:
               1
     1  C   -0.234034
     2  C   -0.149670
     3  C    0.221827
     4  C    0.379636
     5  C   -0.281649
     6  C    0.215484
     9  O   -0.675241
    10  O   -0.483956
    12  C   -0.172143
    16  C    0.179744
 Electronic spatial extent (au):  <R**2>=           1633.0707
 Charge=             -1.0000 electrons
 Dipole moment (field-independent basis, Debye):
    X=              0.5234    Y=             -5.1431    Z=              0.0003  Tot=              5.1697
 Quadrupole moment (field-independent basis, Debye-Ang):
   XX=            -68.1101   YY=            -78.0595   ZZ=            -63.2342
   XY=             -7.6775   XZ=              0.0005   YZ=              0.0009
 Traceless Quadrupole moment (field-independent basis, Debye-Ang):
   XX=              1.6912   YY=             -8.2582   ZZ=              6.5671
   XY=             -7.6775   XZ=              0.0005   YZ=              0.0009
 Octapole moment (field-independent basis, Debye-Ang**2):
  XXX=             40.7535  YYY=            -25.5374  ZZZ=             -0.0005  XYY=             -1.9798
  XXY=             -3.2297  XXZ=             -0.0005  XZZ=              7.5649  YZZ=              4.9723
  YYZ=              0.0016  XYZ=              0.0007
 Hexadecapole moment (field-independent basis, Debye-Ang**3):
 XXXX=          -1607.3788 YYYY=           -671.0635 ZZZZ=            -77.5342 XXXY=            -22.7138
 XXXZ=              0.0153 YYYX=            -21.6107 YYYZ=              0.0193 ZZZX=              0.0096
 ZZZY=              0.0143 XXYY=           -366.9107 XXZZ=           -275.8188 YYZZ=           -112.9762
 XXYZ=              0.0049 YYXZ=              0.0067 ZZXY=             -0.2103
 N-N= 5.012226345287D+02 E-N=-2.089664903949D+03  KE= 4.567883167522D+02
 No NMR shielding tensors so no spin-rotation constants.
 Leave Link  601 at Wed Dec 03 17:09:02 2025, MaxMem=   104857600 cpu:               0.0 elap:               0.2
 (Enter D:\Gaussian\G16W\l9999.exe)
 1|1|UNPC-PC-20250526LCFF|SP|RB3LYP|6-31G(d)|C8H9O2(1-)|ADMINISTRATOR|0
 3-Dec-2025|0||#P B3LYP/6-31G* SCF=conver=7 out=wfn||Generated by Multi
 wfn (http://sobereva.com/multiwfn)||-1,1|C,0,-1.064436,-1.386031,0.000
 079|C,0,0.329283,-1.281622,0.00006|C,0,0.932599,-0.031513,-0.000012|C,
 0,0.10642,1.192404,-0.000075|C,0,-1.327212,0.994037,-0.000048|C,0,-1.9
 1156,-0.251005,0.000029|H,0,-1.510859,-2.374785,0.000134|H,0,-1.921378
 ,1.901794,-0.000096|O,0,0.624382,2.321746,-0.000136|O,0,2.252154,0.196
 704,-0.000035|H,0,0.922065,-2.186796,0.000099|C,0,-3.413706,-0.416188,
 0.000094|H,0,-3.862088,0.051466,0.881265|H,0,-3.862249,0.052194,-0.880
 603|H,0,-3.699587,-1.469847,-0.000308|C,0,3.143003,-0.915209,0.000009|
 H,0,3.005848,-1.530988,-0.894788|H,0,4.143749,-0.48898,-0.000026|H,0,3
 .005873,-1.530898,0.894871||Version=EM64W-G16RevA.03|State=1-A|HF=-460
 .7125262|RMSD=7.291e-008|Dipole=0.2059282,-2.0234545,0.0001212|Quadrup
 ole=1.2573456,-6.1398002,4.8824546,-5.7080415,0.0003358,0.0006598|PG=C
 01 [X(C8H9O2)]||@

 Writing a WFN file to "N+1.wfn"


 THEORY:  SUPPOSITION WHICH HAS SCIENTIFIC BASIS,
          BUT NOT EXPERIMENTALLY PROVEN.
 FACT:    A THEORY WHICH HAS BEEN PROVEN BY ENOUGH 
          MONEY TO PAY FOR THE EXPERIMENTS.

                          --  THE WIZARD OF ID
 Job cpu time:       0 days  0 hours  0 minutes 19.0 seconds.
 Elapsed time:       0 days  0 hours  0 minutes 18.0 seconds.
 File lengths (MBytes):  RWF=     15 Int=      0 D2E=      0 Chk=      3 Scr=      1
 Normal termination of Gaussian 16 at Wed Dec 03 17:09:03 2025.
