 Entering Link 1 = D:\Gaussian\G16W\l1.exe PID=     42364.
  
 Copyright (c) 1988,1990,1992,1993,1995,1998,2003,2009,2016,
            Gaussian, Inc.  All Rights Reserved.
  
 This is part of the Gaussian(R) 16 program.  It is based on
 the Gaussian(R) 09 system (copyright 2009, Gaussian, Inc.),
 the Gaussian(R) 03 system (copyright 2003, Gaussian, Inc.),
 the Gaussian(R) 98 system (copyright 1998, Gaussian, Inc.),
 the Gaussian(R) 94 system (copyright 1995, Gaussian, Inc.),
 the Gaussian 92(TM) system (copyright 1992, Gaussian, Inc.),
 the Gaussian 90(TM) system (copyright 1990, Gaussian, Inc.),
 the Gaussian 88(TM) system (copyright 1988, Gaussian, Inc.),
 the Gaussian 86(TM) system (copyright 1986, Carnegie Mellon
 University), and the Gaussian 82(TM) system (copyright 1983,
 Carnegie Mellon University). Gaussian is a federally registered
 trademark of Gaussian, Inc.
  
 This software contains proprietary and confidential information,
 including trade secrets, belonging to Gaussian, Inc.
  
 This software is provided under written license and may be
 used, copied, transmitted, or stored only in accord with that
 written license.
  
 The following legend is applicable only to US Government
 contracts under FAR:
  
                    RESTRICTED RIGHTS LEGEND
  
 Use, reproduction and disclosure by the US Government is
 subject to restrictions as set forth in subparagraphs (a)
 and (c) of the Commercial Computer Software - Restricted
 Rights clause in FAR 52.227-19.
  
 Gaussian, Inc.
 340 Quinnipiac St., Bldg. 40, Wallingford CT 06492
  
  
 ---------------------------------------------------------------
 Warning -- This program may not be used in any manner that
 competes with the business of Gaussian, Inc. or will provide
 assistance to any competitor of Gaussian, Inc.  The licensee
 of this program is prohibited from giving any competitor of
 Gaussian, Inc. access to this program.  By using this program,
 the user acknowledges that Gaussian, Inc. is engaged in the
 business of creating and licensing software in the field of
 computational chemistry and represents and warrants to the
 licensee that it is not a competitor of Gaussian, Inc. and that
 it will not use this program in any manner prohibited above.
 ---------------------------------------------------------------
  

 Cite this work as:
 Gaussian 16, Revision A.03,
 M. J. Frisch, G. W. Trucks, H. B. Schlegel, G. E. Scuseria, 
 M. A. Robb, J. R. Cheeseman, G. Scalmani, V. Barone, 
 G. A. Petersson, H. Nakatsuji, X. Li, M. Caricato, A. V. Marenich, 
 J. Bloino, B. G. Janesko, R. Gomperts, B. Mennucci, H. P. Hratchian, 
 J. V. Ortiz, A. F. Izmaylov, J. L. Sonnenberg, D. Williams-Young, 
 F. Ding, F. Lipparini, F. Egidi, J. Goings, B. Peng, A. Petrone, 
 T. Henderson, D. Ranasinghe, V. G. Zakrzewski, J. Gao, N. Rega, 
 G. Zheng, W. Liang, M. Hada, M. Ehara, K. Toyota, R. Fukuda, 
 J. Hasegawa, M. Ishida, T. Nakajima, Y. Honda, O. Kitao, H. Nakai, 
 T. Vreven, K. Throssell, J. A. Montgomery, Jr., J. E. Peralta, 
 F. Ogliaro, M. J. Bearpark, J. J. Heyd, E. N. Brothers, K. N. Kudin, 
 V. N. Staroverov, T. A. Keith, R. Kobayashi, J. Normand, 
 K. Raghavachari, A. P. Rendell, J. C. Burant, S. S. Iyengar, 
 J. Tomasi, M. Cossi, J. M. Millam, M. Klene, C. Adamo, R. Cammi, 
 J. W. Ochterski, R. L. Martin, K. Morokuma, O. Farkas, 
 J. B. Foresman, and D. J. Fox, Gaussian, Inc., Wallingford CT, 2016.
 
 ******************************************
 Gaussian 16:  EM64W-G16RevA.03 17-Dec-2016
                03-Dec-2025 
 ******************************************
 %nprocs=   4
 Will use up to    4 processors via shared memory.
 ------------------------------------
 #P B3LYP/6-31G* SCF=conver=7 out=wfn
 ------------------------------------
 1/38=1,172=1/1;
 2/12=2,17=6,18=5,40=1/2;
 3/5=1,6=6,7=1,11=2,25=1,30=1,74=-5/1,2,3;
 4//1;
 5/5=2,6=7,38=5/2;
 6/7=2,8=2,9=2,10=2,28=1/1;
 99/5=1,6=100,9=1/99;
 Leave Link    1 at Wed Dec 03 17:09:20 2025, MaxMem=           0 cpu:               0.0 elap:               0.1
 (Enter D:\Gaussian\G16W\l101.exe)
 ----------------------------------------------------
 Generated by Multiwfn (http://sobereva.com/multiwfn)
 ----------------------------------------------------
 Symbolic Z-matrix:
 Charge =  1 Multiplicity = 1
 C                    -1.06444  -1.38603   0.00008 
 C                     0.32928  -1.28162   0.00006 
 C                     0.9326   -0.03151  -0.00001 
 C                     0.10642   1.1924   -0.00008 
 C                    -1.32721   0.99404  -0.00005 
 C                    -1.91156  -0.25101   0.00003 
 H                    -1.51086  -2.37479   0.00013 
 H                    -1.92138   1.90179  -0.0001 
 O                     0.62438   2.32175  -0.00014 
 O                     2.25215   0.1967   -0.00004 
 H                     0.92207  -2.1868    0.0001 
 C                    -3.41371  -0.41619   0.00009 
 H                    -3.86209   0.05147   0.88127 
 H                    -3.86225   0.05219  -0.8806 
 H                    -3.69959  -1.46985  -0.00031 
 C                     3.143    -0.91521   0.00001 
 H                     3.00585  -1.53099  -0.89479 
 H                     4.14375  -0.48898  -0.00003 
 H                     3.00587  -1.5309    0.89487 
 
 ITRead=  0  0  0  0  0  0  0  0  0  0  0  0  0  0  0  0  0  0  0
 MicOpt= -1 -1 -1 -1 -1 -1 -1 -1 -1 -1 -1 -1 -1 -1 -1 -1 -1 -1 -1
 NAtoms=     19 NQM=       19 NQMF=       0 NMMI=      0 NMMIF=      0
                NMic=       0 NMicF=      0.
                    Isotopes and Nuclear Properties:
 (Nuclear quadrupole moments (NQMom) in fm**2, nuclear magnetic moments (NMagM)
  in nuclear magnetons)

  Atom         1           2           3           4           5           6           7           8           9          10
 IAtWgt=          12          12          12          12          12          12           1           1          16          16
 AtmWgt=  12.0000000  12.0000000  12.0000000  12.0000000  12.0000000  12.0000000   1.0078250   1.0078250  15.9949146  15.9949146
 NucSpn=           0           0           0           0           0           0           1           1           0           0
 AtZEff=   0.0000000   0.0000000   0.0000000   0.0000000   0.0000000   0.0000000   0.0000000   0.0000000   0.0000000   0.0000000
 NQMom=    0.0000000   0.0000000   0.0000000   0.0000000   0.0000000   0.0000000   0.0000000   0.0000000   0.0000000   0.0000000
 NMagM=    0.0000000   0.0000000   0.0000000   0.0000000   0.0000000   0.0000000   2.7928460   2.7928460   0.0000000   0.0000000
 AtZNuc=   6.0000000   6.0000000   6.0000000   6.0000000   6.0000000   6.0000000   1.0000000   1.0000000   8.0000000   8.0000000

  Atom        11          12          13          14          15          16          17          18          19
 IAtWgt=           1          12           1           1           1          12           1           1           1
 AtmWgt=   1.0078250  12.0000000   1.0078250   1.0078250   1.0078250  12.0000000   1.0078250   1.0078250   1.0078250
 NucSpn=           1           0           1           1           1           0           1           1           1
 AtZEff=   0.0000000   0.0000000   0.0000000   0.0000000   0.0000000   0.0000000   0.0000000   0.0000000   0.0000000
 NQMom=    0.0000000   0.0000000   0.0000000   0.0000000   0.0000000   0.0000000   0.0000000   0.0000000   0.0000000
 NMagM=    2.7928460   0.0000000   2.7928460   2.7928460   2.7928460   0.0000000   2.7928460   2.7928460   2.7928460
 AtZNuc=   1.0000000   6.0000000   1.0000000   1.0000000   1.0000000   6.0000000   1.0000000   1.0000000   1.0000000
 Leave Link  101 at Wed Dec 03 17:09:20 2025, MaxMem=   104857600 cpu:               0.0 elap:               0.1
 (Enter D:\Gaussian\G16W\l202.exe)
                          Input orientation:                          
 ---------------------------------------------------------------------
 Center     Atomic      Atomic             Coordinates (Angstroms)
 Number     Number       Type             X           Y           Z
 ---------------------------------------------------------------------
      1          6           0       -1.064436   -1.386031    0.000079
      2          6           0        0.329283   -1.281622    0.000060
      3          6           0        0.932599   -0.031513   -0.000012
      4          6           0        0.106420    1.192404   -0.000075
      5          6           0       -1.327212    0.994037   -0.000048
      6          6           0       -1.911560   -0.251005    0.000029
      7          1           0       -1.510859   -2.374785    0.000134
      8          1           0       -1.921378    1.901794   -0.000096
      9          8           0        0.624382    2.321746   -0.000136
     10          8           0        2.252154    0.196704   -0.000035
     11          1           0        0.922065   -2.186796    0.000099
     12          6           0       -3.413706   -0.416188    0.000094
     13          1           0       -3.862088    0.051466    0.881265
     14          1           0       -3.862249    0.052194   -0.880603
     15          1           0       -3.699587   -1.469847   -0.000308
     16          6           0        3.143003   -0.915209    0.000009
     17          1           0        3.005848   -1.530988   -0.894788
     18          1           0        4.143749   -0.488980   -0.000026
     19          1           0        3.005873   -1.530898    0.894871
 ---------------------------------------------------------------------
                    Distance matrix (angstroms):
                    1          2          3          4          5
     1  C    0.000000
     2  C    1.397624   0.000000
     3  C    2.413062   1.388079   0.000000
     4  C    2.831825   2.484044   1.476667   0.000000
     5  C    2.394530   2.814711   2.481632   1.447291   0.000000
     6  C    1.416299   2.466485   2.852616   2.481063   1.375352
     7  H    1.084863   2.140357   3.385471   3.916686   3.373824
     8  H    3.397667   3.898668   3.447153   2.148301   1.084922
     9  O    4.074275   3.615431   2.373357   1.242456   2.360409
    10  O    3.674890   2.425465   1.339145   2.365501   3.667097
    11  H    2.141824   1.082003   2.155309   3.476244   3.895760
    12  C    2.541587   3.841737   4.363295   3.870253   2.518371
    13  H    3.266457   4.485670   4.875711   4.222269   2.844424
    14  H    3.266780   4.485931   4.875758   4.222054   2.844092
    15  H    2.636484   4.033264   4.850356   4.644703   3.420364
    16  C    4.233700   2.837478   2.380505   3.696332   4.860868
    17  H    4.170013   2.833185   2.710611   4.077261   5.094283
    18  H    5.284874   3.895951   3.243572   4.373451   5.668400
    19  H    4.170019   2.833189   2.710615   4.077270   5.094291
                    6          7          8          9         10
     6  C    0.000000
     7  H    2.161250   0.000000
     8  H    2.152821   4.296237   0.000000
     9  O    3.612485   5.159133   2.580165   0.000000
    10  O    4.187715   4.557721   4.508403   2.676835   0.000000
    11  H    3.431722   2.440176   4.980134   4.518359   2.729507
    12  C    1.511201   2.730738   2.756825   4.878774   5.698913
    13  H    2.161626   3.491613   2.822564   5.104846   6.179137
    14  H    2.161627   3.492128   2.821931   5.104503   6.179175
    15  H    2.163935   2.368426   3.811822   5.750903   6.180664
    16  C    5.098017   4.877376   5.795124   4.101381   1.424768
    17  H    5.159453   4.681188   6.071410   4.616854   2.086518
    18  H    6.059983   5.960776   6.519322   4.504012   2.012037
    19  H    5.159459   4.681193   6.071420   4.616861   2.086518
                   11         12         13         14         15
    11  H    0.000000
    12  C    4.683371   0.000000
    13  H    5.354847   1.093713   0.000000
    14  H    5.355219   1.093709   1.761868   0.000000
    15  H    4.676931   1.091753   1.765778   1.765782   0.000000
    16  C    2.559199   6.575671   7.126175   7.126353   6.865032
    17  H    2.360733   6.576798   7.268223   7.048221   6.765108
    18  H    3.641679   7.557806   8.072310   8.072440   7.904430
    19  H    2.360736   6.576792   7.047904   7.268397   6.765225
                   16         17         18         19
    16  C    0.000000
    17  H    1.094832   0.000000
    18  H    1.087733   1.783591   0.000000
    19  H    1.094831   1.789659   1.783591   0.000000
 Stoichiometry    C8H9O2(1+)
 Framework group  C1[X(C8H9O2)]
 Deg. of freedom    51
 Full point group                 C1      NOp   1
 Largest Abelian subgroup         C1      NOp   1
 Largest concise Abelian subgroup C1      NOp   1
                         Standard orientation:                         
 ---------------------------------------------------------------------
 Center     Atomic      Atomic             Coordinates (Angstroms)
 Number     Number       Type             X           Y           Z
 ---------------------------------------------------------------------
      1          6           0       -1.064436   -1.386031    0.000079
      2          6           0        0.329283   -1.281622    0.000060
      3          6           0        0.932599   -0.031513   -0.000012
      4          6           0        0.106420    1.192404   -0.000075
      5          6           0       -1.327212    0.994037   -0.000048
      6          6           0       -1.911560   -0.251005    0.000029
      7          1           0       -1.510859   -2.374785    0.000134
      8          1           0       -1.921378    1.901794   -0.000096
      9          8           0        0.624382    2.321746   -0.000136
     10          8           0        2.252154    0.196704   -0.000035
     11          1           0        0.922065   -2.186796    0.000099
     12          6           0       -3.413706   -0.416188    0.000094
     13          1           0       -3.862088    0.051466    0.881265
     14          1           0       -3.862249    0.052194   -0.880603
     15          1           0       -3.699587   -1.469847   -0.000308
     16          6           0        3.143003   -0.915209    0.000009
     17          1           0        3.005848   -1.530988   -0.894788
     18          1           0        4.143749   -0.488980   -0.000026
     19          1           0        3.005873   -1.530898    0.894871
 ---------------------------------------------------------------------
 Rotational constants (GHZ):           2.5878352           0.9612915           0.7071570
 Leave Link  202 at Wed Dec 03 17:09:20 2025, MaxMem=   104857600 cpu:               0.0 elap:               0.1
 (Enter D:\Gaussian\G16W\l301.exe)
 Standard basis: 6-31G(d) (6D, 7F)
 Ernie: Thresh=  0.10000D-02 Tol=  0.10000D-05 Strict=F.
 There are   168 symmetry adapted cartesian basis functions of A   symmetry.
 There are   168 symmetry adapted basis functions of A   symmetry.
   168 basis functions,   316 primitive gaussians,   168 cartesian basis functions
    36 alpha electrons       36 beta electrons
       nuclear repulsion energy       501.2226345287 Hartrees.
 IExCor=  402 DFT=T Ex+Corr=B3LYP ExCW=0 ScaHFX=  0.200000
 ScaDFX=  0.800000  0.720000  1.000000  0.810000 ScalE2=  1.000000  1.000000
 IRadAn=      5 IRanWt=     -1 IRanGd=            0 ICorTp=0 IEmpDi=  4
 NAtoms=   19 NActive=   19 NUniq=   19 SFac= 1.00D+00 NAtFMM=   60 NAOKFM=F Big=F
 Integral buffers will be    131072 words long.
 Raffenetti 2 integral format.
 Two-electron integral symmetry is turned on.
 Leave Link  301 at Wed Dec 03 17:09:20 2025, MaxMem=   104857600 cpu:               0.0 elap:               0.1
 (Enter D:\Gaussian\G16W\l302.exe)
 NPDir=0 NMtPBC=     1 NCelOv=     1 NCel=       1 NClECP=     1 NCelD=      1
         NCelK=      1 NCelE2=     1 NClLst=     1 CellRange=     0.0.
 One-electron integrals computed using PRISM.
 One-electron integral symmetry used in STVInt
 NBasis=   168 RedAO= T EigKep=  4.38D-04  NBF=   168
 NBsUse=   168 1.00D-06 EigRej= -1.00D+00 NBFU=   168
 Precomputing XC quadrature grid using
 IXCGrd= 4 IRadAn=           5 IRanWt=          -1 IRanGd=           0 AccXCQ= 0.00D+00.
 Generated NRdTot=       0 NPtTot=           0 NUsed=           0 NTot=          32
 NSgBfM=   167   167   167   167   167 MxSgAt=    19 MxSgA2=    19.
 Leave Link  302 at Wed Dec 03 17:09:20 2025, MaxMem=   104857600 cpu:               0.0 elap:               0.4
 (Enter D:\Gaussian\G16W\l303.exe)
 DipDrv:  MaxL=1.
 Leave Link  303 at Wed Dec 03 17:09:21 2025, MaxMem=   104857600 cpu:               1.0 elap:               0.1
 (Enter D:\Gaussian\G16W\l401.exe)
 ExpMin= 1.61D-01 ExpMax= 5.48D+03 ExpMxC= 8.25D+02 IAcc=3 IRadAn=         5 AccDes= 0.00D+00
 Harris functional with IExCor=  402 and IRadAn=       5 diagonalized for initial guess.
 HarFok:  IExCor=  402 AccDes= 0.00D+00 IRadAn=         5 IDoV= 1 UseB2=F ITyADJ=14
 ICtDFT=  3500011 ScaDFX=  1.000000  1.000000  1.000000  1.000000
 FoFCou: FMM=F IPFlag=           0 FMFlag=      100000 FMFlg1=           0
         NFxFlg=           0 DoJE=T BraDBF=F KetDBF=T FulRan=T
         wScrn=  0.000000 ICntrl=       500 IOpCl=  0 I1Cent=   200000004 NGrid=           0
         NMat0=    1 NMatS0=      1 NMatT0=    0 NMatD0=    1 NMtDS0=    0 NMtDT0=    0
 Petite list used in FoFCou.
 Harris En= -460.430527147652    
 JPrj=0 DoOrth=F DoCkMO=F.
 Leave Link  401 at Wed Dec 03 17:09:22 2025, MaxMem=   104857600 cpu:               1.0 elap:               1.0
 (Enter D:\Gaussian\G16W\l502.exe)
 Keep R1 ints in memory in canonical form, NReq=104755543.
 FoFCou: FMM=F IPFlag=           0 FMFlag=           0 FMFlg1=           0
         NFxFlg=           0 DoJE=F BraDBF=F KetDBF=F FulRan=T
         wScrn=  0.000000 ICntrl=       600 IOpCl=  0 I1Cent=           0 NGrid=           0
         NMat0=    1 NMatS0=  14196 NMatT0=    0 NMatD0=    1 NMtDS0=    0 NMtDT0=    0
 Symmetry not used in FoFCou.
 Two-electron integral symmetry not used.
 Closed shell SCF:
 Using DIIS extrapolation, IDIIS=  1040.
 NGot=   104857600 LenX=     4027843 LenY=     3999178
 Requested convergence on RMS density matrix=1.00D-07 within 128 cycles.
 Requested convergence on MAX density matrix=1.00D-05.
 Requested convergence on             energy=1.00D-05.
 No special actions if energy rises.
 Integral accuracy reduced to 1.0D-05 until final iterations.

 Cycle   1  Pass 0  IDiag  1:
 CalDSu:  requested number of processors reduced to:   3 ShMem   1 Linda.
 E= -460.198233168743    
 DIIS: error= 3.18D-02 at cycle   1 NSaved=   1.
 NSaved= 1 IEnMin= 1 EnMin= -460.198233168743     IErMin= 1 ErrMin= 3.18D-02
 ErrMax= 3.18D-02  0.00D+00 EMaxC= 1.00D-01 BMatC= 2.05D-01 BMatP= 2.05D-01
 IDIUse=3 WtCom= 6.82D-01 WtEn= 3.18D-01
 Coeff-Com:  0.100D+01
 Coeff-En:   0.100D+01
 Coeff:      0.100D+01
 Gap=     0.065 Goal=   None    Shift=    0.000
 GapD=    0.065 DampG=0.500 DampE=0.500 DampFc=0.2500 IDamp=-1.
 Damping current iteration by 2.50D-01
 RMSDP=7.48D-03 MaxDP=2.27D-01              OVMax= 4.95D-01

 Cycle   2  Pass 0  IDiag  1:
 CalDSu:  requested number of processors reduced to:   3 ShMem   1 Linda.
 E= -460.262510084369     Delta-E=       -0.064276915626 Rises=F Damp=T
 DIIS: error= 1.69D-02 at cycle   2 NSaved=   2.
 NSaved= 2 IEnMin= 2 EnMin= -460.262510084369     IErMin= 2 ErrMin= 1.69D-02
 ErrMax= 1.69D-02  0.00D+00 EMaxC= 1.00D-01 BMatC= 4.48D-02 BMatP= 2.05D-01
 IDIUse=3 WtCom= 8.31D-01 WtEn= 1.69D-01
 Coeff-Com: -0.390D+00 0.139D+01
 Coeff-En:   0.000D+00 0.100D+01
 Coeff:     -0.325D+00 0.132D+01
 Gap=     0.122 Goal=   None    Shift=    0.000
 RMSDP=2.46D-03 MaxDP=5.14D-02 DE=-6.43D-02 OVMax= 4.91D-01

 Cycle   3  Pass 0  IDiag  1:
 CalDSu:  requested number of processors reduced to:   3 ShMem   1 Linda.
 E= -460.346877616975     Delta-E=       -0.084367532607 Rises=F Damp=F
 DIIS: error= 1.72D-02 at cycle   3 NSaved=   3.
 NSaved= 3 IEnMin= 3 EnMin= -460.346877616975     IErMin= 2 ErrMin= 1.69D-02
 ErrMax= 1.72D-02  0.00D+00 EMaxC= 1.00D-01 BMatC= 4.91D-02 BMatP= 4.48D-02
 IDIUse=3 WtCom= 8.28D-01 WtEn= 1.72D-01
 Coeff-Com: -0.356D+00 0.893D+00 0.463D+00
 Coeff-En:   0.000D+00 0.000D+00 0.100D+01
 Coeff:     -0.295D+00 0.739D+00 0.556D+00
 Gap=     0.092 Goal=   None    Shift=    0.000
 RMSDP=2.11D-03 MaxDP=8.92D-02 DE=-8.44D-02 OVMax= 2.13D-01

 Cycle   4  Pass 0  IDiag  1:
 CalDSu:  requested number of processors reduced to:   3 ShMem   1 Linda.
 E= -460.374098821376     Delta-E=       -0.027221204401 Rises=F Damp=F
 DIIS: error= 1.23D-02 at cycle   4 NSaved=   4.
 NSaved= 4 IEnMin= 4 EnMin= -460.374098821376     IErMin= 4 ErrMin= 1.23D-02
 ErrMax= 1.23D-02  0.00D+00 EMaxC= 1.00D-01 BMatC= 2.26D-02 BMatP= 4.48D-02
 IDIUse=3 WtCom= 8.77D-01 WtEn= 1.23D-01
 Coeff-Com: -0.770D-01 0.232D+00 0.392D+00 0.454D+00
 Coeff-En:   0.000D+00 0.000D+00 0.348D+00 0.652D+00
 Coeff:     -0.675D-01 0.203D+00 0.386D+00 0.478D+00
 Gap=     0.111 Goal=   None    Shift=    0.000
 RMSDP=1.00D-03 MaxDP=4.10D-02 DE=-2.72D-02 OVMax= 8.11D-02

 Cycle   5  Pass 0  IDiag  1:
 CalDSu:  requested number of processors reduced to:   3 ShMem   1 Linda.
 E= -460.393938398627     Delta-E=       -0.019839577251 Rises=F Damp=F
 DIIS: error= 2.47D-03 at cycle   5 NSaved=   5.
 NSaved= 5 IEnMin= 5 EnMin= -460.393938398627     IErMin= 5 ErrMin= 2.47D-03
 ErrMax= 2.47D-03  0.00D+00 EMaxC= 1.00D-01 BMatC= 1.06D-03 BMatP= 2.26D-02
 IDIUse=3 WtCom= 9.75D-01 WtEn= 2.47D-02
 Coeff-Com: -0.256D-02 0.238D-01 0.173D+00 0.284D+00 0.522D+00
 Coeff-En:   0.000D+00 0.000D+00 0.000D+00 0.000D+00 0.100D+01
 Coeff:     -0.250D-02 0.232D-01 0.169D+00 0.277D+00 0.534D+00
 Gap=     0.089 Goal=   None    Shift=    0.000
 RMSDP=2.60D-04 MaxDP=7.79D-03 DE=-1.98D-02 OVMax= 1.90D-02

 Cycle   6  Pass 0  IDiag  1:
 CalDSu:  requested number of processors reduced to:   3 ShMem   1 Linda.
 E= -460.394857212122     Delta-E=       -0.000918813494 Rises=F Damp=F
 DIIS: error= 1.45D-03 at cycle   6 NSaved=   6.
 NSaved= 6 IEnMin= 6 EnMin= -460.394857212122     IErMin= 6 ErrMin= 1.45D-03
 ErrMax= 1.45D-03  0.00D+00 EMaxC= 1.00D-01 BMatC= 2.10D-04 BMatP= 1.06D-03
 IDIUse=3 WtCom= 9.85D-01 WtEn= 1.45D-02
 Coeff-Com:  0.459D-02-0.557D-02 0.610D-01 0.108D+00 0.342D+00 0.490D+00
 Coeff-En:   0.000D+00 0.000D+00 0.000D+00 0.000D+00 0.194D+00 0.806D+00
 Coeff:      0.452D-02-0.548D-02 0.601D-01 0.106D+00 0.340D+00 0.495D+00
 Gap=     0.090 Goal=   None    Shift=    0.000
 RMSDP=1.04D-04 MaxDP=4.24D-03 DE=-9.19D-04 OVMax= 1.08D-02

 Cycle   7  Pass 0  IDiag  1:
 CalDSu:  requested number of processors reduced to:   3 ShMem   1 Linda.
 E= -460.395065405134     Delta-E=       -0.000208193012 Rises=F Damp=F
 DIIS: error= 4.43D-04 at cycle   7 NSaved=   7.
 NSaved= 7 IEnMin= 7 EnMin= -460.395065405134     IErMin= 7 ErrMin= 4.43D-04
 ErrMax= 4.43D-04  0.00D+00 EMaxC= 1.00D-01 BMatC= 3.53D-05 BMatP= 2.10D-04
 IDIUse=3 WtCom= 9.96D-01 WtEn= 4.43D-03
 Coeff-Com:  0.310D-02-0.660D-02 0.114D-01 0.188D-01 0.147D+00 0.345D+00
 Coeff-Com:  0.481D+00
 Coeff-En:   0.000D+00 0.000D+00 0.000D+00 0.000D+00 0.000D+00 0.106D+00
 Coeff-En:   0.894D+00
 Coeff:      0.308D-02-0.657D-02 0.113D-01 0.187D-01 0.147D+00 0.344D+00
 Coeff:      0.483D+00
 Gap=     0.090 Goal=   None    Shift=    0.000
 RMSDP=3.53D-05 MaxDP=1.50D-03 DE=-2.08D-04 OVMax= 2.95D-03

 Cycle   8  Pass 0  IDiag  1:
 CalDSu:  requested number of processors reduced to:   3 ShMem   1 Linda.
 E= -460.395095001357     Delta-E=       -0.000029596223 Rises=F Damp=F
 DIIS: error= 1.57D-04 at cycle   8 NSaved=   8.
 NSaved= 8 IEnMin= 8 EnMin= -460.395095001357     IErMin= 8 ErrMin= 1.57D-04
 ErrMax= 1.57D-04  0.00D+00 EMaxC= 1.00D-01 BMatC= 4.35D-06 BMatP= 3.53D-05
 IDIUse=3 WtCom= 9.98D-01 WtEn= 1.57D-03
 Coeff-Com:  0.205D-02-0.444D-02-0.302D-03-0.288D-02 0.545D-01 0.172D+00
 Coeff-Com:  0.308D+00 0.471D+00
 Coeff-En:   0.000D+00 0.000D+00 0.000D+00 0.000D+00 0.000D+00 0.000D+00
 Coeff-En:   0.000D+00 0.100D+01
 Coeff:      0.205D-02-0.443D-02-0.302D-03-0.288D-02 0.545D-01 0.172D+00
 Coeff:      0.307D+00 0.472D+00
 Gap=     0.090 Goal=   None    Shift=    0.000
 RMSDP=1.29D-05 MaxDP=5.09D-04 DE=-2.96D-05 OVMax= 7.24D-04

 Cycle   9  Pass 0  IDiag  1:
 CalDSu:  requested number of processors reduced to:   3 ShMem   1 Linda.
 E= -460.395098354923     Delta-E=       -0.000003353566 Rises=F Damp=F
 DIIS: error= 6.18D-05 at cycle   9 NSaved=   9.
 NSaved= 9 IEnMin= 9 EnMin= -460.395098354923     IErMin= 9 ErrMin= 6.18D-05
 ErrMax= 6.18D-05  0.00D+00 EMaxC= 1.00D-01 BMatC= 4.16D-07 BMatP= 4.35D-06
 IDIUse=1 WtCom= 1.00D+00 WtEn= 0.00D+00
 Coeff-Com:  0.605D-03-0.985D-03-0.142D-02-0.516D-02 0.250D-02 0.281D-01
 Coeff-Com:  0.587D-01 0.238D+00 0.679D+00
 Coeff:      0.605D-03-0.985D-03-0.142D-02-0.516D-02 0.250D-02 0.281D-01
 Coeff:      0.587D-01 0.238D+00 0.679D+00
 Gap=     0.090 Goal=   None    Shift=    0.000
 RMSDP=4.47D-06 MaxDP=1.04D-04 DE=-3.35D-06 OVMax= 2.55D-04

 Initial convergence to 1.0D-05 achieved.  Increase integral accuracy.
 Cycle  10  Pass 1  IDiag  1:
 CalDSu:  requested number of processors reduced to:   3 ShMem   1 Linda.
 E= -460.395105376289     Delta-E=       -0.000007021366 Rises=F Damp=F
 DIIS: error= 2.32D-05 at cycle   1 NSaved=   1.
 NSaved= 1 IEnMin= 1 EnMin= -460.395105376289     IErMin= 1 ErrMin= 2.32D-05
 ErrMax= 2.32D-05  0.00D+00 EMaxC= 1.00D-01 BMatC= 6.71D-08 BMatP= 6.71D-08
 IDIUse=1 WtCom= 1.00D+00 WtEn= 0.00D+00
 Coeff-Com:  0.100D+01
 Coeff:      0.100D+01
 Gap=     0.090 Goal=   None    Shift=    0.000
 RMSDP=4.47D-06 MaxDP=1.04D-04 DE=-7.02D-06 OVMax= 2.99D-04

 Cycle  11  Pass 1  IDiag  1:
 CalDSu:  requested number of processors reduced to:   3 ShMem   1 Linda.
 E= -460.395105172952     Delta-E=        0.000000203337 Rises=F Damp=F
 DIIS: error= 5.40D-05 at cycle   2 NSaved=   2.
 NSaved= 2 IEnMin= 1 EnMin= -460.395105376289     IErMin= 1 ErrMin= 2.32D-05
 ErrMax= 5.40D-05  0.00D+00 EMaxC= 1.00D-01 BMatC= 3.18D-07 BMatP= 6.71D-08
 IDIUse=1 WtCom= 1.00D+00 WtEn= 0.00D+00
 Coeff-Com:  0.691D+00 0.309D+00
 Coeff:      0.691D+00 0.309D+00
 Gap=     0.090 Goal=   None    Shift=    0.000
 RMSDP=3.05D-06 MaxDP=1.34D-04 DE= 2.03D-07 OVMax= 1.68D-04

 Cycle  12  Pass 1  IDiag  1:
 CalDSu:  requested number of processors reduced to:   3 ShMem   1 Linda.
 E= -460.395105442150     Delta-E=       -0.000000269198 Rises=F Damp=F
 DIIS: error= 6.56D-06 at cycle   3 NSaved=   3.
 NSaved= 3 IEnMin= 3 EnMin= -460.395105442150     IErMin= 3 ErrMin= 6.56D-06
 ErrMax= 6.56D-06  0.00D+00 EMaxC= 1.00D-01 BMatC= 6.62D-09 BMatP= 6.71D-08
 IDIUse=1 WtCom= 1.00D+00 WtEn= 0.00D+00
 Coeff-Com:  0.368D+00 0.183D+00 0.449D+00
 Coeff:      0.368D+00 0.183D+00 0.449D+00
 Gap=     0.090 Goal=   None    Shift=    0.000
 RMSDP=6.56D-07 MaxDP=2.57D-05 DE=-2.69D-07 OVMax= 5.31D-05

 Cycle  13  Pass 1  IDiag  1:
 CalDSu:  requested number of processors reduced to:   3 ShMem   1 Linda.
 E= -460.395105446695     Delta-E=       -0.000000004545 Rises=F Damp=F
 DIIS: error= 2.93D-06 at cycle   4 NSaved=   4.
 NSaved= 4 IEnMin= 4 EnMin= -460.395105446695     IErMin= 4 ErrMin= 2.93D-06
 ErrMax= 2.93D-06  0.00D+00 EMaxC= 1.00D-01 BMatC= 1.10D-09 BMatP= 6.62D-09
 IDIUse=1 WtCom= 1.00D+00 WtEn= 0.00D+00
 Coeff-Com:  0.816D-01 0.417D-01 0.273D+00 0.604D+00
 Coeff:      0.816D-01 0.417D-01 0.273D+00 0.604D+00
 Gap=     0.090 Goal=   None    Shift=    0.000
 RMSDP=3.85D-07 MaxDP=1.50D-05 DE=-4.55D-09 OVMax= 5.60D-05

 Cycle  14  Pass 1  IDiag  1:
 CalDSu:  requested number of processors reduced to:   3 ShMem   1 Linda.
 E= -460.395105447492     Delta-E=       -0.000000000797 Rises=F Damp=F
 DIIS: error= 1.56D-06 at cycle   5 NSaved=   5.
 NSaved= 5 IEnMin= 5 EnMin= -460.395105447492     IErMin= 5 ErrMin= 1.56D-06
 ErrMax= 1.56D-06  0.00D+00 EMaxC= 1.00D-01 BMatC= 6.37D-10 BMatP= 1.10D-09
 IDIUse=1 WtCom= 1.00D+00 WtEn= 0.00D+00
 Coeff-Com: -0.230D-01-0.122D-01 0.742D-01 0.483D+00 0.478D+00
 Coeff:     -0.230D-01-0.122D-01 0.742D-01 0.483D+00 0.478D+00
 Gap=     0.090 Goal=   None    Shift=    0.000
 RMSDP=1.44D-07 MaxDP=4.36D-06 DE=-7.97D-10 OVMax= 9.98D-06

 Cycle  15  Pass 1  IDiag  1:
 CalDSu:  requested number of processors reduced to:   3 ShMem   1 Linda.
 E= -460.395105448155     Delta-E=       -0.000000000663 Rises=F Damp=F
 DIIS: error= 2.83D-07 at cycle   6 NSaved=   6.
 NSaved= 6 IEnMin= 6 EnMin= -460.395105448155     IErMin= 6 ErrMin= 2.83D-07
 ErrMax= 2.83D-07  0.00D+00 EMaxC= 1.00D-01 BMatC= 3.00D-11 BMatP= 6.37D-10
 IDIUse=1 WtCom= 1.00D+00 WtEn= 0.00D+00
 Coeff-Com: -0.185D-01-0.109D-01 0.119D-01 0.251D+00 0.220D+00 0.547D+00
 Coeff:     -0.185D-01-0.109D-01 0.119D-01 0.251D+00 0.220D+00 0.547D+00
 Gap=     0.090 Goal=   None    Shift=    0.000
 RMSDP=3.53D-08 MaxDP=9.05D-07 DE=-6.63D-10 OVMax= 1.66D-06

 SCF Done:  E(RB3LYP) =  -460.395105448     A.U. after   15 cycles
            NFock= 15  Conv=0.35D-07     -V/T= 2.0093
 KE= 4.561370709877D+02 PE=-2.060305847303D+03 EE= 6.425510363386D+02
 Leave Link  502 at Wed Dec 03 17:09:40 2025, MaxMem=   104857600 cpu:              18.0 elap:              18.3
 (Enter D:\Gaussian\G16W\l601.exe)
 Copying SCF densities to generalized density rwf, IOpCl= 0 IROHF=0.

 **********************************************************************

            Population analysis using the SCF density.

 **********************************************************************

 Orbital symmetries:
       Occupied  (A) (A) (A) (A) (A) (A) (A) (A) (A) (A) (A) (A)
                 (A) (A) (A) (A) (A) (A) (A) (A) (A) (A) (A) (A)
                 (A) (A) (A) (A) (A) (A) (A) (A) (A) (A) (A) (A)
       Virtual   (A) (A) (A) (A) (A) (A) (A) (A) (A) (A) (A) (A)
                 (A) (A) (A) (A) (A) (A) (A) (A) (A) (A) (A) (A)
                 (A) (A) (A) (A) (A) (A) (A) (A) (A) (A) (A) (A)
                 (A) (A) (A) (A) (A) (A) (A) (A) (A) (A) (A) (A)
                 (A) (A) (A) (A) (A) (A) (A) (A) (A) (A) (A) (A)
                 (A) (A) (A) (A) (A) (A) (A) (A) (A) (A) (A) (A)
                 (A) (A) (A) (A) (A) (A) (A) (A) (A) (A) (A) (A)
                 (A) (A) (A) (A) (A) (A) (A) (A) (A) (A) (A) (A)
                 (A) (A) (A) (A) (A) (A) (A) (A) (A) (A) (A) (A)
                 (A) (A) (A) (A) (A) (A) (A) (A) (A) (A) (A) (A)
                 (A) (A) (A) (A) (A) (A) (A) (A) (A) (A) (A) (A)
 The electronic state is 1-A.
 Alpha  occ. eigenvalues --  -19.42068 -19.35990 -10.49699 -10.47703 -10.43955
 Alpha  occ. eigenvalues --  -10.41374 -10.40820 -10.40489 -10.39763 -10.34329
 Alpha  occ. eigenvalues --   -1.29793  -1.23230  -1.06603  -0.97843  -0.94578
 Alpha  occ. eigenvalues --   -0.90727  -0.85692  -0.81123  -0.77440  -0.73616
 Alpha  occ. eigenvalues --   -0.70733  -0.67144  -0.65731  -0.64792  -0.62519
 Alpha  occ. eigenvalues --   -0.62138  -0.60976  -0.57757  -0.57704  -0.56127
 Alpha  occ. eigenvalues --   -0.54283  -0.54159  -0.53396  -0.51207  -0.45773
 Alpha  occ. eigenvalues --   -0.43935
 Alpha virt. eigenvalues --   -0.34912  -0.19593  -0.18559  -0.08973  -0.06145
 Alpha virt. eigenvalues --   -0.04588  -0.04348  -0.02074  -0.01151  -0.00314
 Alpha virt. eigenvalues --    0.00507   0.00810   0.02771   0.04395   0.04612
 Alpha virt. eigenvalues --    0.06704   0.08990   0.11149   0.15204   0.16580
 Alpha virt. eigenvalues --    0.18307   0.27893   0.29747   0.30557   0.31594
 Alpha virt. eigenvalues --    0.34242   0.35327   0.35801   0.37547   0.38779
 Alpha virt. eigenvalues --    0.39656   0.41017   0.41913   0.42949   0.45574
 Alpha virt. eigenvalues --    0.46069   0.48779   0.52988   0.53152   0.54788
 Alpha virt. eigenvalues --    0.57673   0.60014   0.61191   0.63886   0.67078
 Alpha virt. eigenvalues --    0.68008   0.69133   0.70013   0.71373   0.73071
 Alpha virt. eigenvalues --    0.75744   0.75926   0.76705   0.79781   0.80389
 Alpha virt. eigenvalues --    0.81014   0.82393   0.85209   0.88394   0.88430
 Alpha virt. eigenvalues --    0.92815   0.94921   0.99033   1.01586   1.04377
 Alpha virt. eigenvalues --    1.06144   1.12345   1.14570   1.16926   1.19399
 Alpha virt. eigenvalues --    1.20561   1.22530   1.24820   1.27932   1.30617
 Alpha virt. eigenvalues --    1.31737   1.44863   1.51189   1.54591   1.57438
 Alpha virt. eigenvalues --    1.57813   1.60593   1.66281   1.66888   1.67259
 Alpha virt. eigenvalues --    1.70434   1.71695   1.73352   1.74663   1.78078
 Alpha virt. eigenvalues --    1.81671   1.82818   1.84640   1.87134   1.91054
 Alpha virt. eigenvalues --    1.92415   1.93842   1.99983   2.04076   2.05237
 Alpha virt. eigenvalues --    2.07047   2.09847   2.10651   2.14641   2.17771
 Alpha virt. eigenvalues --    2.19706   2.21292   2.29375   2.35317   2.41836
 Alpha virt. eigenvalues --    2.42617   2.45267   2.47718   2.48769   2.56484
 Alpha virt. eigenvalues --    2.64342   2.67019   2.72196   2.75282   2.84851
 Alpha virt. eigenvalues --    3.04958   3.16921   3.70534   3.86266   3.88615
 Alpha virt. eigenvalues --    3.98749   4.01239   4.07870   4.15262   4.19586
 Alpha virt. eigenvalues --    4.37492   4.76228
          Condensed to atoms (all electrons):
               1          2          3          4          5          6
     1  C    4.936233   0.463952   0.008624  -0.025112  -0.031457   0.463779
     2  C    0.463952   5.143030   0.397208  -0.048586  -0.025542  -0.039649
     3  C    0.008624   0.397208   4.875946   0.252177  -0.115727  -0.012884
     4  C   -0.025112  -0.048586   0.252177   4.591003   0.380670  -0.003922
     5  C   -0.031457  -0.025542  -0.115727   0.380670   5.228502   0.500159
     6  C    0.463779  -0.039649  -0.012884  -0.003922   0.500159   4.703131
     7  H    0.357897  -0.034066   0.002963   0.000142   0.005249  -0.031964
     8  H    0.005360  -0.000411   0.006155  -0.030086   0.357216  -0.037616
     9  O   -0.000267   0.005516  -0.068313   0.492701  -0.059415   0.004585
    10  O    0.003023  -0.062101   0.344072  -0.051101   0.003258  -0.000020
    11  H   -0.025276   0.361961  -0.036143   0.001857   0.000146   0.003027
    12  C   -0.050980   0.007247  -0.000239   0.003729  -0.052665   0.355578
    13  H    0.001527  -0.000196   0.000011  -0.000055  -0.004555  -0.023746
    14  H    0.001530  -0.000196   0.000011  -0.000055  -0.004554  -0.023751
    15  H   -0.002827   0.000356   0.000020  -0.000127   0.003665  -0.032812
    16  C    0.000259  -0.002488  -0.040704   0.003976  -0.000113   0.000003
    17  H    0.000054   0.003923  -0.007832  -0.000416  -0.000007  -0.000001
    18  H   -0.000002   0.000068   0.003197   0.000026   0.000004   0.000000
    19  H    0.000054   0.003923  -0.007832  -0.000416  -0.000007  -0.000001
               7          8          9         10         11         12
     1  C    0.357897   0.005360  -0.000267   0.003023  -0.025276  -0.050980
     2  C   -0.034066  -0.000411   0.005516  -0.062101   0.361961   0.007247
     3  C    0.002963   0.006155  -0.068313   0.344072  -0.036143  -0.000239
     4  C    0.000142  -0.030086   0.492701  -0.051101   0.001857   0.003729
     5  C    0.005249   0.357216  -0.059415   0.003258   0.000146  -0.052665
     6  C   -0.031964  -0.037616   0.004585  -0.000020   0.003027   0.355578
     7  H    0.469401  -0.000104   0.000001  -0.000037  -0.003887  -0.005834
     8  H   -0.000104   0.473715   0.000400  -0.000038   0.000010  -0.005893
     9  O    0.000001   0.000400   7.967771  -0.003630  -0.000037  -0.000054
    10  O   -0.000037  -0.000038  -0.003630   8.028817  -0.006304   0.000000
    11  H   -0.003887   0.000010  -0.000037  -0.006304   0.475693  -0.000129
    12  C   -0.005834  -0.005893  -0.000054   0.000000  -0.000129   5.180463
    13  H    0.000089   0.001274   0.000001   0.000000   0.000002   0.369468
    14  H    0.000088   0.001277   0.000001   0.000000   0.000002   0.369475
    15  H    0.005210   0.000065   0.000000   0.000000  -0.000003   0.372767
    16  C   -0.000004   0.000002  -0.000113   0.201313   0.007172   0.000000
    17  H    0.000002   0.000000   0.000001  -0.025488   0.001173   0.000000
    18  H    0.000000   0.000000   0.000005  -0.027344  -0.000067   0.000000
    19  H    0.000002   0.000000   0.000001  -0.025488   0.001173   0.000000
              13         14         15         16         17         18
     1  C    0.001527   0.001530  -0.002827   0.000259   0.000054  -0.000002
     2  C   -0.000196  -0.000196   0.000356  -0.002488   0.003923   0.000068
     3  C    0.000011   0.000011   0.000020  -0.040704  -0.007832   0.003197
     4  C   -0.000055  -0.000055  -0.000127   0.003976  -0.000416   0.000026
     5  C   -0.004555  -0.004554   0.003665  -0.000113  -0.000007   0.000004
     6  C   -0.023746  -0.023751  -0.032812   0.000003  -0.000001   0.000000
     7  H    0.000089   0.000088   0.005210  -0.000004   0.000002   0.000000
     8  H    0.001274   0.001277   0.000065   0.000002   0.000000   0.000000
     9  O    0.000001   0.000001   0.000000  -0.000113   0.000001   0.000005
    10  O    0.000000   0.000000   0.000000   0.201313  -0.025488  -0.027344
    11  H    0.000002   0.000002  -0.000003   0.007172   0.001173  -0.000067
    12  C    0.369468   0.369475   0.372767   0.000000   0.000000   0.000000
    13  H    0.477771  -0.020993  -0.022771   0.000000   0.000000   0.000000
    14  H   -0.020993   0.477775  -0.022771   0.000000   0.000000   0.000000
    15  H   -0.022771  -0.022771   0.503566   0.000000   0.000000   0.000000
    16  C    0.000000   0.000000   0.000000   4.986198   0.367699   0.386140
    17  H    0.000000   0.000000   0.000000   0.367699   0.506031  -0.022998
    18  H    0.000000   0.000000   0.000000   0.386140  -0.022998   0.437932
    19  H    0.000000   0.000000   0.000000   0.367699  -0.034654  -0.022998
              19
     1  C    0.000054
     2  C    0.003923
     3  C   -0.007832
     4  C   -0.000416
     5  C   -0.000007
     6  C   -0.000001
     7  H    0.000002
     8  H    0.000000
     9  O    0.000001
    10  O   -0.025488
    11  H    0.001173
    12  C    0.000000
    13  H    0.000000
    14  H    0.000000
    15  H    0.000000
    16  C    0.367699
    17  H   -0.034654
    18  H   -0.022998
    19  H    0.506031
 Mulliken charges:
               1
     1  C   -0.106373
     2  C   -0.173948
     3  C    0.399288
     4  C    0.433595
     5  C   -0.184826
     6  C    0.176104
     7  H    0.234851
     8  H    0.228674
     9  O   -0.339155
    10  O   -0.378930
    11  H    0.219631
    12  C   -0.542932
    13  H    0.222174
    14  H    0.222161
    15  H    0.195662
    16  C   -0.277039
    17  H    0.212513
    18  H    0.246037
    19  H    0.212513
 Sum of Mulliken charges =   1.00000
 Mulliken charges with hydrogens summed into heavy atoms:
               1
     1  C    0.128477
     2  C    0.045682
     3  C    0.399288
     4  C    0.433595
     5  C    0.043848
     6  C    0.176104
     9  O   -0.339155
    10  O   -0.378930
    12  C    0.097066
    16  C    0.394025
 Electronic spatial extent (au):  <R**2>=           1572.3128
 Charge=              1.0000 electrons
 Dipole moment (field-independent basis, Debye):
    X=             -0.6169    Y=             -4.6343    Z=              0.0003  Tot=              4.6751
 Quadrupole moment (field-independent basis, Debye-Ang):
   XX=            -24.1300   YY=            -48.4615   ZZ=            -55.0907
   XY=             -6.4366   XZ=             -0.0004   YZ=             -0.0003
 Traceless Quadrupole moment (field-independent basis, Debye-Ang):
   XX=             18.4307   YY=             -5.9008   ZZ=            -12.5299
   XY=             -6.4366   XZ=             -0.0004   YZ=             -0.0003
 Octapole moment (field-independent basis, Debye-Ang**2):
  XXX=             24.5097  YYY=            -18.3670  ZZZ=              0.0005  XYY=             -4.1657
  XXY=            -20.6919  XXZ=              0.0023  XZZ=              5.2628  YZZ=              3.7482
  YYZ=              0.0004  XYZ=              0.0012
 Hexadecapole moment (field-independent basis, Debye-Ang**3):
 XXXX=          -1029.1385 YYYY=           -487.0939 ZZZZ=            -63.2004 XXXY=            -45.5143
 XXXZ=              0.0034 YYYX=             -6.8399 YYYZ=              0.0128 ZZZX=              0.0054
 ZZZY=              0.0118 XXYY=           -279.0912 XXZZ=           -236.8641 YYZZ=            -93.9786
 XXYZ=              0.0010 YYXZ=              0.0066 ZZXY=             -2.8595
 N-N= 5.012226345287D+02 E-N=-2.060305807761D+03  KE= 4.561370709877D+02
 No NMR shielding tensors so no spin-rotation constants.
 Leave Link  601 at Wed Dec 03 17:09:40 2025, MaxMem=   104857600 cpu:               0.0 elap:               0.1
 (Enter D:\Gaussian\G16W\l9999.exe)
 1|1|UNPC-PC-20250526LCFF|SP|RB3LYP|6-31G(d)|C8H9O2(1+)|ADMINISTRATOR|0
 3-Dec-2025|0||#P B3LYP/6-31G* SCF=conver=7 out=wfn||Generated by Multi
 wfn (http://sobereva.com/multiwfn)||1,1|C,0,-1.064436,-1.386031,0.0000
 79|C,0,0.329283,-1.281622,0.00006|C,0,0.932599,-0.031513,-0.000012|C,0
 ,0.10642,1.192404,-0.000075|C,0,-1.327212,0.994037,-0.000048|C,0,-1.91
 156,-0.251005,0.000029|H,0,-1.510859,-2.374785,0.000134|H,0,-1.921378,
 1.901794,-0.000096|O,0,0.624382,2.321746,-0.000136|O,0,2.252154,0.1967
 04,-0.000035|H,0,0.922065,-2.186796,0.000099|C,0,-3.413706,-0.416188,0
 .000094|H,0,-3.862088,0.051466,0.881265|H,0,-3.862249,0.052194,-0.8806
 03|H,0,-3.699587,-1.469847,-0.000308|C,0,3.143003,-0.915209,0.000009|H
 ,0,3.005848,-1.530988,-0.894788|H,0,4.143749,-0.48898,-0.000026|H,0,3.
 005873,-1.530898,0.894871||Version=EM64W-G16RevA.03|State=1-A|HF=-460.
 3951054|RMSD=3.532e-008|Dipole=-0.2427011,-1.8232592,0.0001296|Quadrup
 ole=13.7027931,-4.387087,-9.3157061,-4.7854275,-0.0003246,-0.0002507|P
 G=C01 [X(C8H9O2)]||@

 Writing a WFN file to "N-1.wfn"


 KEEP CLOSE TO NATURES HEART, YOURSELF;
 AND BREAK CLEAR AWAY, ONCE IN A WHILE, AND
 CLIMB A MOUNTAIN OR SPEND A WEEK IN THE
 WOODS.  WASH YOUR SPIRIT CLEAN...
                                         -- JOHN MUIR
 Job cpu time:       0 days  0 hours  0 minutes 20.0 seconds.
 Elapsed time:       0 days  0 hours  0 minutes 20.4 seconds.
 File lengths (MBytes):  RWF=     15 Int=      0 D2E=      0 Chk=      3 Scr=      1
 Normal termination of Gaussian 16 at Wed Dec 03 17:09:40 2025.
