 Generated by Multiwfn (http://sobereva.com/multiwfn)
GAUSSIAN             36 MOL ORBITALS    316 PRIMITIVES       19 NUCLEI
  C    1    (CENTRE  1)  -2.01149285 -2.61921884  0.00014939  CHARGE =  6.0
  C    2    (CENTRE  2)   0.62225436 -2.42191455  0.00011349  CHARGE =  6.0
  C    3    (CENTRE  3)   1.76235648 -0.05955097 -0.00002257  CHARGE =  6.0
  C    4    (CENTRE  4)   0.20110455  2.25331703 -0.00014163  CHARGE =  6.0
  C    5    (CENTRE  5)  -2.50806731  1.87845786 -0.00009060  CHARGE =  6.0
  C    6    (CENTRE  6)  -3.61232510 -0.47433048  0.00005491  CHARGE =  6.0
  H    7    (CENTRE  7)  -2.85511014 -4.48769307  0.00025333  CHARGE =  1.0
  H    8    (CENTRE  8)  -3.63087824  3.59387003 -0.00018131  CHARGE =  1.0
  O    9    (CENTRE  9)   1.17991098  4.38746407 -0.00025690  CHARGE =  8.0
  O   10    (CENTRE 10)   4.25595406  0.37171654 -0.00006604  CHARGE =  8.0
  H   11    (CENTRE 11)   1.74244991 -4.13244556  0.00018719  CHARGE =  1.0
  C   12    (CENTRE 12)  -6.45096965 -0.78648098  0.00017774  CHARGE =  6.0
  H   13    (CENTRE 13)  -7.29828879  0.09725704  1.66534960  CHARGE =  1.0
  H   14    (CENTRE 14)  -7.29859304  0.09863277 -1.66409839  CHARGE =  1.0
  H   15    (CENTRE 15)  -6.99120654 -2.77760789 -0.00058193  CHARGE =  1.0
  C   16    (CENTRE 16)   5.93941459 -1.72949459  0.00001711  CHARGE =  6.0
  H   17    (CENTRE 17)   5.68022915 -2.89314824 -1.69090416  CHARGE =  1.0
  H   18    (CENTRE 18)   7.83055049 -0.92403860 -0.00004903  CHARGE =  1.0
  H   19    (CENTRE 19)   5.68027639 -2.89297816  1.69106121  CHARGE =  1.0
CENTRE ASSIGNMENTS    1  1  1  1  1  1  1  1  1  1  1  1  1  1  1  1  1  1  1  1
CENTRE ASSIGNMENTS    1  1  1  1  1  1  1  1  2  2  2  2  2  2  2  2  2  2  2  2
CENTRE ASSIGNMENTS    2  2  2  2  2  2  2  2  2  2  2  2  2  2  2  2  3  3  3  3
CENTRE ASSIGNMENTS    3  3  3  3  3  3  3  3  3  3  3  3  3  3  3  3  3  3  3  3
CENTRE ASSIGNMENTS    3  3  3  3  4  4  4  4  4  4  4  4  4  4  4  4  4  4  4  4
CENTRE ASSIGNMENTS    4  4  4  4  4  4  4  4  4  4  4  4  5  5  5  5  5  5  5  5
CENTRE ASSIGNMENTS    5  5  5  5  5  5  5  5  5  5  5  5  5  5  5  5  5  5  5  5
CENTRE ASSIGNMENTS    6  6  6  6  6  6  6  6  6  6  6  6  6  6  6  6  6  6  6  6
CENTRE ASSIGNMENTS    6  6  6  6  6  6  6  6  7  7  7  7  8  8  8  8  9  9  9  9
CENTRE ASSIGNMENTS    9  9  9  9  9  9  9  9  9  9  9  9  9  9  9  9  9  9  9  9
CENTRE ASSIGNMENTS    9  9  9  9 10 10 10 10 10 10 10 10 10 10 10 10 10 10 10 10
CENTRE ASSIGNMENTS   10 10 10 10 10 10 10 10 10 10 10 10 11 11 11 11 12 12 12 12
CENTRE ASSIGNMENTS   12 12 12 12 12 12 12 12 12 12 12 12 12 12 12 12 12 12 12 12
CENTRE ASSIGNMENTS   12 12 12 12 13 13 13 13 14 14 14 14 15 15 15 15 16 16 16 16
CENTRE ASSIGNMENTS   16 16 16 16 16 16 16 16 16 16 16 16 16 16 16 16 16 16 16 16
CENTRE ASSIGNMENTS   16 16 16 16 17 17 17 17 18 18 18 18 19 19 19 19
TYPE ASSIGNMENTS      1  1  1  1  1  1  1  1  1  2  2  2  3  3  3  4  4  4  1  2
TYPE ASSIGNMENTS      3  4  5  6  7  8  9 10  1  1  1  1  1  1  1  1  1  2  2  2
TYPE ASSIGNMENTS      3  3  3  4  4  4  1  2  3  4  5  6  7  8  9 10  1  1  1  1
TYPE ASSIGNMENTS      1  1  1  1  1  2  2  2  3  3  3  4  4  4  1  2  3  4  5  6
TYPE ASSIGNMENTS      7  8  9 10  1  1  1  1  1  1  1  1  1  2  2  2  3  3  3  4
TYPE ASSIGNMENTS      4  4  1  2  3  4  5  6  7  8  9 10  1  1  1  1  1  1  1  1
TYPE ASSIGNMENTS      1  2  2  2  3  3  3  4  4  4  1  2  3  4  5  6  7  8  9 10
TYPE ASSIGNMENTS      1  1  1  1  1  1  1  1  1  2  2  2  3  3  3  4  4  4  1  2
TYPE ASSIGNMENTS      3  4  5  6  7  8  9 10  1  1  1  1  1  1  1  1  1  1  1  1
TYPE ASSIGNMENTS      1  1  1  1  1  2  2  2  3  3  3  4  4  4  1  2  3  4  5  6
TYPE ASSIGNMENTS      7  8  9 10  1  1  1  1  1  1  1  1  1  2  2  2  3  3  3  4
TYPE ASSIGNMENTS      4  4  1  2  3  4  5  6  7  8  9 10  1  1  1  1  1  1  1  1
TYPE ASSIGNMENTS      1  1  1  1  1  2  2  2  3  3  3  4  4  4  1  2  3  4  5  6
TYPE ASSIGNMENTS      7  8  9 10  1  1  1  1  1  1  1  1  1  1  1  1  1  1  1  1
TYPE ASSIGNMENTS      1  1  1  1  1  2  2  2  3  3  3  4  4  4  1  2  3  4  5  6
TYPE ASSIGNMENTS      7  8  9 10  1  1  1  1  1  1  1  1  1  1  1  1
EXPONENTS  0.3047525D+04 0.4573695D+03 0.1039487D+03 0.2921016D+02 0.9286663D+01
EXPONENTS  0.3163927D+01 0.7868272D+01 0.1881289D+01 0.5442493D+00 0.7868272D+01
EXPONENTS  0.1881289D+01 0.5442493D+00 0.7868272D+01 0.1881289D+01 0.5442493D+00
EXPONENTS  0.7868272D+01 0.1881289D+01 0.5442493D+00 0.1687145D+00 0.1687145D+00
EXPONENTS  0.1687145D+00 0.1687145D+00 0.8000000D+00 0.8000000D+00 0.8000000D+00
EXPONENTS  0.8000000D+00 0.8000000D+00 0.8000000D+00 0.3047525D+04 0.4573695D+03
EXPONENTS  0.1039487D+03 0.2921016D+02 0.9286663D+01 0.3163927D+01 0.7868272D+01
EXPONENTS  0.1881289D+01 0.5442493D+00 0.7868272D+01 0.1881289D+01 0.5442493D+00
EXPONENTS  0.7868272D+01 0.1881289D+01 0.5442493D+00 0.7868272D+01 0.1881289D+01
EXPONENTS  0.5442493D+00 0.1687145D+00 0.1687145D+00 0.1687145D+00 0.1687145D+00
EXPONENTS  0.8000000D+00 0.8000000D+00 0.8000000D+00 0.8000000D+00 0.8000000D+00
EXPONENTS  0.8000000D+00 0.3047525D+04 0.4573695D+03 0.1039487D+03 0.2921016D+02
EXPONENTS  0.9286663D+01 0.3163927D+01 0.7868272D+01 0.1881289D+01 0.5442493D+00
EXPONENTS  0.7868272D+01 0.1881289D+01 0.5442493D+00 0.7868272D+01 0.1881289D+01
EXPONENTS  0.5442493D+00 0.7868272D+01 0.1881289D+01 0.5442493D+00 0.1687145D+00
EXPONENTS  0.1687145D+00 0.1687145D+00 0.1687145D+00 0.8000000D+00 0.8000000D+00
EXPONENTS  0.8000000D+00 0.8000000D+00 0.8000000D+00 0.8000000D+00 0.3047525D+04
EXPONENTS  0.4573695D+03 0.1039487D+03 0.2921016D+02 0.9286663D+01 0.3163927D+01
EXPONENTS  0.7868272D+01 0.1881289D+01 0.5442493D+00 0.7868272D+01 0.1881289D+01
EXPONENTS  0.5442493D+00 0.7868272D+01 0.1881289D+01 0.5442493D+00 0.7868272D+01
EXPONENTS  0.1881289D+01 0.5442493D+00 0.1687145D+00 0.1687145D+00 0.1687145D+00
EXPONENTS  0.1687145D+00 0.8000000D+00 0.8000000D+00 0.8000000D+00 0.8000000D+00
EXPONENTS  0.8000000D+00 0.8000000D+00 0.3047525D+04 0.4573695D+03 0.1039487D+03
EXPONENTS  0.2921016D+02 0.9286663D+01 0.3163927D+01 0.7868272D+01 0.1881289D+01
EXPONENTS  0.5442493D+00 0.7868272D+01 0.1881289D+01 0.5442493D+00 0.7868272D+01
EXPONENTS  0.1881289D+01 0.5442493D+00 0.7868272D+01 0.1881289D+01 0.5442493D+00
EXPONENTS  0.1687145D+00 0.1687145D+00 0.1687145D+00 0.1687145D+00 0.8000000D+00
EXPONENTS  0.8000000D+00 0.8000000D+00 0.8000000D+00 0.8000000D+00 0.8000000D+00
EXPONENTS  0.3047525D+04 0.4573695D+03 0.1039487D+03 0.2921016D+02 0.9286663D+01
EXPONENTS  0.3163927D+01 0.7868272D+01 0.1881289D+01 0.5442493D+00 0.7868272D+01
EXPONENTS  0.1881289D+01 0.5442493D+00 0.7868272D+01 0.1881289D+01 0.5442493D+00
EXPONENTS  0.7868272D+01 0.1881289D+01 0.5442493D+00 0.1687145D+00 0.1687145D+00
EXPONENTS  0.1687145D+00 0.1687145D+00 0.8000000D+00 0.8000000D+00 0.8000000D+00
EXPONENTS  0.8000000D+00 0.8000000D+00 0.8000000D+00 0.1873114D+02 0.2825394D+01
EXPONENTS  0.6401217D+00 0.1612778D+00 0.1873114D+02 0.2825394D+01 0.6401217D+00
EXPONENTS  0.1612778D+00 0.5484672D+04 0.8252349D+03 0.1880470D+03 0.5296450D+02
EXPONENTS  0.1689757D+02 0.5799635D+01 0.1553962D+02 0.3599934D+01 0.1013762D+01
EXPONENTS  0.1553962D+02 0.3599934D+01 0.1013762D+01 0.1553962D+02 0.3599934D+01
EXPONENTS  0.1013762D+01 0.1553962D+02 0.3599934D+01 0.1013762D+01 0.2700058D+00
EXPONENTS  0.2700058D+00 0.2700058D+00 0.2700058D+00 0.8000000D+00 0.8000000D+00
EXPONENTS  0.8000000D+00 0.8000000D+00 0.8000000D+00 0.8000000D+00 0.5484672D+04
EXPONENTS  0.8252349D+03 0.1880470D+03 0.5296450D+02 0.1689757D+02 0.5799635D+01
EXPONENTS  0.1553962D+02 0.3599934D+01 0.1013762D+01 0.1553962D+02 0.3599934D+01
EXPONENTS  0.1013762D+01 0.1553962D+02 0.3599934D+01 0.1013762D+01 0.1553962D+02
EXPONENTS  0.3599934D+01 0.1013762D+01 0.2700058D+00 0.2700058D+00 0.2700058D+00
EXPONENTS  0.2700058D+00 0.8000000D+00 0.8000000D+00 0.8000000D+00 0.8000000D+00
EXPONENTS  0.8000000D+00 0.8000000D+00 0.1873114D+02 0.2825394D+01 0.6401217D+00
EXPONENTS  0.1612778D+00 0.3047525D+04 0.4573695D+03 0.1039487D+03 0.2921016D+02
EXPONENTS  0.9286663D+01 0.3163927D+01 0.7868272D+01 0.1881289D+01 0.5442493D+00
EXPONENTS  0.7868272D+01 0.1881289D+01 0.5442493D+00 0.7868272D+01 0.1881289D+01
EXPONENTS  0.5442493D+00 0.7868272D+01 0.1881289D+01 0.5442493D+00 0.1687145D+00
EXPONENTS  0.1687145D+00 0.1687145D+00 0.1687145D+00 0.8000000D+00 0.8000000D+00
EXPONENTS  0.8000000D+00 0.8000000D+00 0.8000000D+00 0.8000000D+00 0.1873114D+02
EXPONENTS  0.2825394D+01 0.6401217D+00 0.1612778D+00 0.1873114D+02 0.2825394D+01
EXPONENTS  0.6401217D+00 0.1612778D+00 0.1873114D+02 0.2825394D+01 0.6401217D+00
EXPONENTS  0.1612778D+00 0.3047525D+04 0.4573695D+03 0.1039487D+03 0.2921016D+02
EXPONENTS  0.9286663D+01 0.3163927D+01 0.7868272D+01 0.1881289D+01 0.5442493D+00
EXPONENTS  0.7868272D+01 0.1881289D+01 0.5442493D+00 0.7868272D+01 0.1881289D+01
EXPONENTS  0.5442493D+00 0.7868272D+01 0.1881289D+01 0.5442493D+00 0.1687145D+00
EXPONENTS  0.1687145D+00 0.1687145D+00 0.1687145D+00 0.8000000D+00 0.8000000D+00
EXPONENTS  0.8000000D+00 0.8000000D+00 0.8000000D+00 0.8000000D+00 0.1873114D+02
EXPONENTS  0.2825394D+01 0.6401217D+00 0.1612778D+00 0.1873114D+02 0.2825394D+01
EXPONENTS  0.6401217D+00 0.1612778D+00 0.1873114D+02 0.2825394D+01 0.6401217D+00
EXPONENTS  0.1612778D+00
MO    1     MO 0.0        OCC NO =    2.0000000  ORB. ENERGY =  -19.420677
 -0.15561674D-05 -0.28708250D-05 -0.46344017D-05 -0.60326139D-05 -0.51476404D-05
 -0.17773565D-05  0.15569646D-04  0.71760358D-05 -0.20122353D-04  0.99127672D-04
  0.76004811D-04  0.37931728D-04  0.14551503D-04  0.11157169D-04  0.55682095D-05
 -0.13542166D-08 -0.10383274D-08 -0.51819814D-09  0.30477979D-03  0.88439554D-04
  0.83078228D-04 -0.52852875D-08  0.60914975D-04 -0.47997991D-05  0.76339964D-05
 -0.15641532D-04 -0.24291593D-09  0.14417187D-08  0.10805847D-04  0.19934678D-04
  0.32180751D-04  0.41889776D-04  0.35744622D-04  0.12341759D-04 -0.79382484D-04
 -0.36587314D-04  0.10259465D-03 -0.96698903D-04 -0.74142586D-04 -0.37002347D-04
 -0.32142148D-04 -0.24644561D-04 -0.12299363D-04  0.32511937D-08  0.24928091D-08
  0.12440864D-08 -0.52997838D-03  0.20520972D-03 -0.25059017D-03  0.11135704D-07
 -0.91524721D-04 -0.74538052D-04  0.46862578D-04 -0.40971660D-04  0.45458124D-08
  0.13998996D-07 -0.20012316D-04 -0.36918814D-04 -0.59598414D-04 -0.77579426D-04
 -0.66198665D-04 -0.22856808D-04 -0.87844588D-04 -0.40487490D-04  0.11353115D-03
  0.54130506D-03  0.41503839D-03  0.20713324D-03  0.17184942D-03  0.13176323D-03
  0.65759089D-04 -0.13339830D-07 -0.10228135D-07 -0.51045563D-08 -0.14954756D-03
 -0.65507773D-03 -0.25291673D-03  0.18856255D-07 -0.12002840D-03 -0.94999075D-05
 -0.97462927D-04  0.16935222D-03 -0.77299223D-08 -0.10351640D-07  0.10215390D-04
  0.18845399D-04  0.30422318D-04  0.39600818D-04  0.33791450D-04  0.11667376D-04
 -0.59761261D-04 -0.27543911D-04  0.77236001D-04  0.45533328D-04  0.34912068D-04
  0.17423569D-04  0.57818964D-04  0.44331915D-04  0.22124732D-04 -0.33238240D-08
 -0.25484974D-08 -0.12718788D-08 -0.21475149D-05  0.14046576D-03  0.18591870D-03
 -0.11273051D-07 -0.44633000D-05 -0.28425580D-04  0.29569798D-04  0.41562182D-04
 -0.10212921D-08  0.63913173D-08  0.81064725D-05  0.14954859D-04  0.24141779D-04
  0.31425423D-04  0.26815371D-04  0.92587030D-05 -0.23686285D-04 -0.10916987D-04
  0.30612372D-04  0.68552073D-04  0.52561382D-04  0.26231813D-04 -0.34836431D-04
 -0.26710366D-04 -0.13330345D-04  0.31975589D-09  0.24516854D-09  0.12235628D-09
  0.12888313D-03 -0.97168666D-07 -0.30417654D-04  0.17494899D-08  0.44464599D-05
  0.31651638D-04  0.51259733D-04  0.30366959D-04 -0.18835932D-08  0.19643905D-08
  0.48071601D-05  0.88682716D-05  0.14316140D-04  0.18635361D-04  0.15901587D-04
  0.54904359D-05 -0.19267453D-04 -0.88803513D-05  0.24901432D-04  0.35089306D-04
  0.26904254D-04  0.13427109D-04  0.22429900D-04  0.17197824D-04  0.85829197D-05
 -0.11994923D-08 -0.91969462D-09 -0.45899207D-09 -0.11554397D-03 -0.91766891D-04
 -0.14089548D-04  0.19023699D-08  0.17010261D-04 -0.30287812D-04  0.26508022D-04
  0.19527478D-04 -0.12291090D-08  0.62895266D-08  0.24228321D-05  0.41095819D-05
  0.46786137D-05  0.18212266D-04  0.45269825D-06  0.76786191D-06  0.87418364D-06
 -0.10178326D-04  0.76317253D-05  0.14046449D-04  0.22729805D-04  0.29878965D-04
  0.25627015D-04  0.87623116D-05 -0.15716592D-03 -0.70127126D-04  0.20708634D-03
  0.13492882D-03  0.10395538D-03  0.45642013D-04 -0.14324987D-03 -0.11036631D-03
 -0.48456753D-04  0.48485470D-08  0.37355441D-08  0.16401051D-08 -0.42633530D-03
  0.15075907D-04  0.10497477D-03 -0.47226479D-08  0.22935040D-03  0.18578954D-03
  0.24445189D-03 -0.11567701D-04  0.72796212D-09  0.50921635D-08  0.82559418D+00
  0.15195340D+01  0.24588929D+01  0.32322835D+01  0.27723108D+01  0.94790014D+00
 -0.15698777D-01 -0.70047636D-02  0.20685161D-01 -0.12971256D-02 -0.99936535D-03
 -0.43877522D-03 -0.28372422D-02 -0.21859422D-02 -0.95974636D-03  0.15225885D-06
  0.11730724D-06  0.51504196D-07  0.41119014D-02 -0.31724656D-03 -0.33329876D-04
  0.40307959D-08 -0.93446527D-02 -0.95222583D-02 -0.93707994D-02  0.16757092D-03
 -0.81460386D-08  0.13337333D-07 -0.17319037D-04 -0.29376364D-04 -0.33443952D-04
 -0.11398418D-03  0.22762322D-05  0.41992039D-05  0.67788171D-05  0.88240057D-05
  0.75295400D-05  0.25997692D-05 -0.89330281D-05 -0.41172245D-05  0.11545127D-04
 -0.15543323D-04 -0.11917634D-04 -0.59477345D-05  0.71488508D-05  0.54812854D-05
  0.27355456D-05 -0.21370288D-08 -0.16385381D-08 -0.81774535D-09 -0.58935757D-04
 -0.15904909D-04 -0.83406232D-05  0.32766575D-08 -0.34578318D-05  0.99939766D-05
  0.29949230D-05 -0.10235176D-04 -0.61221491D-10  0.11508839D-07  0.24372502D-05
  0.41340377D-05  0.47064558D-05  0.32943844D-05  0.24390707D-05  0.41371256D-05
  0.47099713D-05  0.32984938D-05 -0.44169656D-06 -0.74920097D-06 -0.85293883D-06
  0.22278591D-05  0.70536846D-05  0.13012671D-04  0.21006485D-04  0.27344202D-04
  0.23332857D-04  0.80562750D-05 -0.74924173D-04 -0.34532483D-04  0.96832687D-04
 -0.27190069D-03 -0.20847621D-03 -0.10404424D-03  0.46024412D-03  0.35288600D-03
  0.17611485D-03 -0.19084626D-07 -0.14632881D-07 -0.73028331D-08 -0.32312907D-03
  0.57504809D-04 -0.11286311D-03  0.48760545D-08  0.16745687D-03  0.34747954D-03
  0.24674958D-04 -0.44322632D-03  0.18590776D-07 -0.25619544D-07  0.14407245D-04
  0.24437414D-04  0.27821132D-04  0.14046592D-04  0.26138723D-04  0.44336221D-04
  0.50475221D-04  0.19153127D-04  0.14407404D-04  0.24437684D-04  0.27821440D-04
  0.14046222D-04
MO    2     MO 0.0        OCC NO =    2.0000000  ORB. ENERGY =  -19.359903
  0.11546212D-04  0.21300506D-04  0.34385621D-04  0.44759862D-04  0.38193671D-04
  0.13187357D-04 -0.44457897D-04 -0.20490604D-04  0.57457792D-04  0.17975375D-05
  0.13782377D-05  0.68783722D-06  0.41493381D-04  0.31814493D-04  0.15877662D-04
 -0.20925431D-08 -0.16044293D-08 -0.80072268D-09 -0.35325083D-03 -0.98514872D-04
 -0.16544969D-03  0.94277233D-08 -0.25372995D-04  0.19400703D-04  0.50892951D-04
  0.41435192D-04 -0.60548319D-09  0.29590982D-08 -0.33007585D-05 -0.60892549D-05
 -0.98299454D-05 -0.12795668D-04 -0.10918567D-04 -0.37699187D-05  0.22639426D-04
  0.10434491D-04 -0.29259401D-04  0.29871801D-04  0.22903803D-04  0.11430603D-04
  0.11812066D-03  0.90567426D-04  0.45199493D-04 -0.76178898D-08 -0.58409147D-08
 -0.29150258D-08  0.59029570D-03 -0.12801144D-03  0.23914214D-03 -0.11289086D-07
  0.15696057D-04  0.36935153D-04  0.93187452D-05  0.27233117D-04 -0.33947537D-08
 -0.30813233D-08  0.27603671D-04  0.50923383D-04  0.82206130D-04  0.10700796D-03
  0.91310082D-04  0.31527177D-04 -0.11450760D-03 -0.52776450D-04  0.14799068D-03
  0.28421029D-04  0.21791442D-04  0.10875457D-04 -0.44920719D-04 -0.34442358D-04
 -0.17189150D-04  0.17569462D-08  0.13471149D-08  0.67230475D-09 -0.62873924D-03
  0.62953335D-03  0.14128915D-03 -0.11107121D-07  0.10243666D-03 -0.41213324D-04
  0.74778129D-04  0.39404830D-04 -0.42615821D-08  0.12754194D-07 -0.47516117D-04
 -0.87657958D-04 -0.14150712D-03 -0.18420023D-03 -0.15717839D-03 -0.54269921D-04
 -0.63696966D-04 -0.29357873D-04  0.82322541D-04  0.61534132D-04  0.47180469D-04
  0.23546361D-04  0.11691273D-03  0.89641266D-04  0.44737274D-04 -0.58884836D-08
 -0.45149157D-08 -0.22532594D-08 -0.92302516D-04 -0.50528969D-03 -0.10783082D-02
  0.61003299D-07 -0.28339212D-03 -0.88993322D-03 -0.20653913D-03 -0.70671614D-03
  0.34907480D-07  0.70860098D-07  0.15029755D-04  0.27726963D-04  0.44759916D-04
  0.58264111D-04  0.49716871D-04  0.17166041D-04 -0.93505867D-04 -0.43096769D-04
  0.12084784D-03 -0.45167540D-04 -0.34631605D-04 -0.17283598D-04 -0.63149279D-04
 -0.48418862D-04 -0.24164406D-04  0.21763246D-08  0.16686677D-08  0.83278212D-09
 -0.73118451D-03 -0.19710563D-03  0.43082089D-03 -0.20697776D-07 -0.62223237D-04
 -0.75802892D-04  0.54711415D-04 -0.76693746D-04  0.86052134D-08  0.13038497D-07
 -0.47750735D-05 -0.88090781D-05 -0.14220583D-04 -0.18510974D-04 -0.15795448D-04
 -0.54537886D-05  0.33744884D-04  0.15552986D-04 -0.43612197D-04  0.72124410D-04
  0.55300423D-04  0.27598787D-04  0.93487357D-04  0.71680176D-04  0.35773431D-04
 -0.70492479D-08 -0.54049162D-08 -0.26974320D-08  0.56607967D-03  0.18385183D-03
  0.10118775D-03 -0.75192288D-08  0.13515951D-04  0.73822220D-04  0.39854219D-05
  0.31885693D-04 -0.40792794D-08 -0.85296482D-08 -0.10036653D-04 -0.17024064D-04
 -0.19381295D-04 -0.55189174D-04 -0.22464771D-04 -0.38104504D-04 -0.43380631D-04
 -0.16242576D-03  0.82562421D+00  0.15195893D+01  0.24589823D+01  0.32324011D+01
  0.27724116D+01  0.94793462D+00 -0.15522518D-01 -0.69261171D-02  0.20452917D-01
 -0.14512096D-02 -0.11180788D-02 -0.49089679D-03 -0.32582448D-02 -0.25103019D-02
 -0.11021578D-02  0.18024804D-06  0.13887140D-06  0.60972023D-07  0.45722468D-02
 -0.27928867D-03 -0.59278996D-03  0.30179074D-07 -0.92676099D-02 -0.88445416D-02
 -0.93605569D-02  0.49790592D-03 -0.25597607D-07 -0.54321902D-07  0.10983776D-03
  0.20216011D-03  0.32713321D-03  0.43002577D-03  0.36883060D-03  0.12610945D-03
 -0.20208687D-03 -0.90170768D-04  0.26627548D-03 -0.13674884D-03 -0.10535761D-03
 -0.46257666D-04  0.11271756D-03  0.86842801D-04  0.38128667D-04 -0.88531624D-09
 -0.68208844D-09 -0.29947356D-09 -0.60860090D-03  0.21551969D-03 -0.10894235D-05
 -0.34209970D-08  0.17612590D-03  0.28345811D-03  0.24684504D-03 -0.92381446D-04
  0.71877363D-08 -0.24445847D-08  0.73856686D-05  0.12527492D-04  0.14262107D-04
  0.78676525D-04  0.62688339D-05  0.11564775D-04  0.18669132D-04  0.24301663D-04
  0.20736653D-04  0.71598679D-05 -0.20775340D-04 -0.95753352D-05  0.26850239D-04
  0.69600299D-05  0.53365094D-05  0.26632922D-05  0.30467994D-05  0.23360926D-05
  0.11658739D-05  0.83001488D-09  0.63640277D-09  0.31760958D-09 -0.50302438D-05
 -0.22734161D-05 -0.17103528D-04 -0.11762547D-08 -0.62667608D-06  0.28175337D-04
  0.19321011D-04 -0.28597193D-04 -0.28190685D-09  0.14034718D-07  0.28951339D-05
  0.49106950D-05  0.55906527D-05  0.67899866D-05  0.28960828D-05  0.49123045D-05
  0.55924851D-05  0.67930600D-05  0.69294405D-06  0.11753643D-05  0.13381107D-05
 -0.41135685D-05  0.75164607D-05  0.13866402D-04  0.22384673D-04  0.29138193D-04
  0.24863673D-04  0.85848287D-05 -0.32250784D-04 -0.14864357D-04  0.41681208D-04
 -0.21952847D-04 -0.16832051D-04 -0.84003729D-05 -0.14486592D-04 -0.11107400D-04
 -0.55433711D-05  0.10869214D-08  0.83338238D-09  0.41591622D-09 -0.60253427D-04
  0.36891312D-04 -0.15820851D-04  0.62710755D-09  0.25708750D-06 -0.12017610D-04
  0.26996645D-04  0.63232891D-04 -0.30560925D-08  0.37168859D-08  0.56523322D-05
  0.95874252D-05  0.10914945D-04 -0.48806647D-05 -0.88531904D-06 -0.15016687D-05
 -0.17095967D-05 -0.90706003D-05  0.56524221D-05  0.95875778D-05  0.10915118D-04
 -0.48812392D-05
MO    3     MO 0.0        OCC NO =    2.0000000  ORB. ENERGY =  -10.496987
  0.44844875D-04  0.82730038D-04  0.13355193D-03  0.17384493D-03  0.14834220D-03
  0.51218996D-04 -0.71274894D-04 -0.32850533D-04  0.92116325D-04 -0.18301421D-03
 -0.14032369D-03 -0.70031355D-04 -0.60796396D-04 -0.46614820D-04 -0.23264062D-04
  0.52705048D-08  0.40410888D-08  0.20167865D-08 -0.13425908D-02 -0.34107565D-03
 -0.47408283D-03  0.27807580D-07  0.30842448D-04  0.41772365D-04  0.29731590D-04
  0.61598408D-04 -0.31207119D-08 -0.22590762D-08  0.15277090D-02  0.28183249D-02
  0.45496502D-02  0.59222927D-02  0.50535031D-02  0.17448532D-02  0.29997133D-03
  0.13825651D-03 -0.38768569D-03  0.29489255D-04  0.22610491D-04  0.11284219D-04
 -0.39378762D-03 -0.30193137D-03 -0.15068491D-03  0.18621571D-07  0.14277840D-07
  0.71256427D-08  0.24954357D-02 -0.54738840D-03  0.10259112D-02 -0.48701312D-07
 -0.34090081D-03 -0.38251127D-03 -0.35955763D-03 -0.29023218D-03  0.13396379D-07
  0.31959272D-08  0.53255935D+00  0.98246801D+00  0.15860080D+01  0.20645112D+01
  0.17616511D+01  0.60825580D+00 -0.19728041D-01 -0.90926362D-02  0.25496701D-01
  0.11189672D-02  0.85795309D-03  0.42817872D-03  0.14051574D-03  0.10773856D-03
  0.53769092D-04 -0.20913404D-07 -0.16035072D-07 -0.80026247D-08 -0.33607024D-02
  0.16944994D-02  0.38167817D-03 -0.32497440D-07 -0.91649994D-02 -0.10013472D-01
 -0.10446085D-01  0.45569534D-03 -0.47308551D-07 -0.50100707D-07  0.37949845D-02
  0.70010053D-02  0.11301793D-01  0.14711577D-01  0.12553415D-01  0.43343926D-02
  0.13009379D-03  0.59960110D-04 -0.16813441D-03 -0.17842870D-03 -0.13680781D-03
 -0.68276686D-04  0.24252516D-03  0.18595291D-03  0.92803535D-04 -0.12660058D-07
 -0.97069292D-08 -0.48444380D-08  0.16082170D-02 -0.30083834D-03 -0.10321861D-02
  0.60819224D-07 -0.62994761D-03 -0.48569718D-03 -0.41735189D-03  0.38892690D-03
 -0.21714052D-07  0.37374716D-08  0.44312810D-05  0.81748482D-05  0.13196740D-04
  0.17178234D-04  0.14658218D-04  0.50611305D-05 -0.29817037D-04 -0.13742645D-04
  0.38535812D-04 -0.17729406D-03 -0.13593784D-03 -0.67842508D-04  0.66700185D-04
  0.51141471D-04  0.25523178D-04 -0.11316989D-08 -0.86771491D-09 -0.43305056D-09
 -0.11520922D-02 -0.23736949D-03  0.44038987D-03 -0.22298310D-07  0.73401703D-04
 -0.81724324D-05 -0.15804178D-04  0.34850011D-05  0.23187370D-09 -0.23814298D-08
 -0.50448338D-04 -0.93067332D-04 -0.15023953D-03 -0.19556723D-03 -0.16687787D-03
 -0.57618919D-04  0.13475891D-03  0.62110257D-04 -0.17416364D-03 -0.15727078D-03
 -0.12058526D-03 -0.60180497D-04 -0.40098320D-04 -0.30744848D-04 -0.15343834D-04
  0.22691664D-08  0.17398529D-08  0.86830852D-09  0.96524426D-03  0.62814822D-03
  0.12645060D-03 -0.14548139D-07 -0.37591425D-04  0.55815267D-04 -0.13832070D-03
 -0.18134448D-04 -0.13579964D-08 -0.21526522D-07 -0.17843237D-04 -0.30265507D-04
 -0.34456210D-04 -0.11113396D-03 -0.19158381D-04 -0.32496240D-04 -0.36995821D-04
 -0.89285499D-04 -0.85330312D-04 -0.15705333D-03 -0.25414193D-03 -0.33407668D-03
 -0.28653562D-03 -0.97971396D-04  0.29622572D-03  0.13217534D-03 -0.39031554D-03
  0.36433492D-04  0.28070041D-04  0.12324260D-04 -0.23578523D-04 -0.18165981D-04
 -0.79758439D-05  0.65466811D-08  0.50438648D-08  0.22145283D-08  0.89088253D-03
 -0.11732934D-03 -0.11879337D-03  0.36978381D-08 -0.28447654D-03 -0.25435393D-03
 -0.32397382D-03  0.33631898D-04 -0.15582304D-09 -0.44999576D-08  0.10916950D-03
  0.20093016D-03  0.32514292D-03  0.42740947D-03  0.36658662D-03  0.12534219D-03
 -0.69943497D-03 -0.31208652D-03  0.92159568D-03 -0.11138703D-03 -0.85817702D-04
 -0.37678593D-04  0.44773619D-04  0.34495660D-04  0.15145453D-04  0.96953389D-09
  0.74697360D-09  0.32796164D-09 -0.17751652D-02  0.93156456D-03  0.12496591D-03
 -0.15197627D-07 -0.45353902D-03  0.72680821D-03  0.96332574D-03 -0.37444358D-03
  0.43638491D-07  0.27335650D-07  0.44753842D-04  0.75910986D-04  0.86421974D-04
  0.31873991D-03 -0.50383698D-05 -0.92948085D-05 -0.15004703D-04 -0.19531665D-04
 -0.16666405D-04 -0.57545091D-05  0.25928934D-04  0.11950622D-04 -0.33510791D-04
  0.88406706D-04  0.67784655D-04  0.33829294D-04  0.85218709D-06  0.65340301D-06
  0.32609389D-06  0.91593929D-08  0.70228415D-08  0.35048901D-08  0.30485517D-03
  0.88312429D-04  0.57644901D-05 -0.16839430D-07  0.17920146D-04 -0.55283173D-05
 -0.39849892D-05  0.38961647D-05 -0.33238193D-08 -0.11223168D-07 -0.66385623D-05
 -0.11260258D-04 -0.12819406D-04 -0.56377279D-05 -0.66416240D-05 -0.11265451D-04
 -0.12825318D-04 -0.56513627D-05 -0.37694062D-05 -0.63936264D-05 -0.72789177D-05
 -0.18276046D-04 -0.13137624D-04 -0.24236350D-04 -0.39124984D-04 -0.50929105D-04
 -0.43457897D-04 -0.15004968D-04  0.44086111D-04  0.20319248D-04 -0.56977293D-04
 -0.35228715D-04 -0.27011144D-04 -0.13480454D-04  0.34091019D-04  0.26138831D-04
  0.13045109D-04 -0.45339919D-09 -0.34763774D-09 -0.17349560D-09 -0.31115913D-04
 -0.73356150D-04 -0.74028054D-04  0.39726983D-08  0.17605710D-03 -0.86916419D-04
  0.64648601D-04 -0.18232644D-03  0.79539054D-08  0.18077384D-07 -0.16383728D-04
 -0.27789904D-04 -0.31637823D-04 -0.22946467D-04  0.20040615D-04  0.33992677D-04
  0.38699461D-04  0.36477100D-04 -0.16383233D-04 -0.27789063D-04 -0.31636867D-04
 -0.22946208D-04
MO    4     MO 0.0        OCC NO =    2.0000000  ORB. ENERGY =  -10.477027
 -0.73197613D-04 -0.13503530D-03 -0.21798885D-03 -0.28375671D-03 -0.24213011D-03
 -0.83601710D-04  0.12761171D-03  0.58816119D-04 -0.16492654D-03 -0.39835365D-04
 -0.30543231D-04 -0.15243213D-04 -0.83494302D-04 -0.64018135D-04 -0.31949536D-04
  0.77744909D-09  0.59609865D-09  0.29749500D-09  0.10883525D-02  0.34189651D-03
  0.49662033D-03 -0.26966011D-07 -0.59479521D-06 -0.45627746D-04 -0.13050319D-03
 -0.44588720D-04  0.31908507D-09 -0.70529865D-08  0.22830777D-05  0.42118325D-05
  0.67992036D-05  0.88505428D-05  0.75521842D-05  0.26075877D-05 -0.76019750D-04
 -0.35037433D-04  0.98248620D-04 -0.16133490D-04 -0.12370137D-04 -0.61735654D-05
 -0.18343454D-03 -0.14064597D-03 -0.70192195D-04  0.13362458D-07  0.10245485D-07
  0.51132152D-08 -0.14963795D-02  0.42998409D-03 -0.60441478D-03  0.26240651D-07
  0.69827945D-04  0.23999378D-04  0.25083504D-04  0.87106032D-04 -0.32533100D-09
 -0.13999020D-08 -0.40607702D-02 -0.74913280D-02 -0.12093326D-01 -0.15741917D-01
 -0.13432607D-01 -0.46379563D-02  0.45997912D-03  0.21200396D-03 -0.59448122D-03
  0.23266508D-03  0.17839283D-03  0.89030523D-04 -0.26315843D-03 -0.20177319D-03
 -0.10069896D-03  0.13053928D-07  0.10008924D-07  0.49951547D-08  0.24501581D-02
 -0.14275453D-02  0.10827868D-03  0.38502797D-08 -0.35846888D-03 -0.56667860D-03
 -0.28943807D-03  0.20467310D-03 -0.79944819D-08  0.29954891D-07  0.53259318D+00
  0.98253042D+00  0.15861087D+01  0.20646423D+01  0.17617630D+01  0.60829444D+00
 -0.19981200D-01 -0.92093166D-02  0.25823885D-01  0.46334997D-03  0.35526737D-03
  0.17730332D-03  0.35793204D-03  0.27443959D-03  0.13696459D-03 -0.18421612D-07
 -0.14124524D-07 -0.70491272D-08 -0.33894561D-02  0.80564958D-03  0.20740205D-02
 -0.12261999D-06 -0.10016503D-01 -0.93207212D-02 -0.10372052D-01  0.82802535D-03
 -0.46422777D-07 -0.10809506D-06  0.11095198D-02  0.20468475D-02  0.33042464D-02
  0.43011471D-02  0.36701766D-02  0.12672238D-02  0.28855317D-03  0.13299389D-03
 -0.37292875D-03 -0.30268759D-03 -0.23208165D-03 -0.11582501D-03  0.12345273D-03
  0.94655720D-04  0.47239838D-04  0.17352150D-08  0.13304528D-08  0.66398920D-09
  0.26677961D-02  0.68157808D-03 -0.10864199D-02  0.52481697D-07 -0.49653297D-03
 -0.22741031D-03 -0.37639004D-03 -0.20818646D-03  0.13417570D-07 -0.12501141D-07
  0.41409958D-04  0.76393287D-04  0.12332245D-03  0.16052919D-03  0.13697985D-03
  0.47295850D-04 -0.13003323D-03 -0.59932197D-04  0.16805613D-03 -0.10459074D-03
 -0.80193545D-04 -0.40022199D-04 -0.10794304D-03 -0.82763880D-04 -0.41304976D-04
  0.94693844D-08  0.72605234D-08  0.36235100D-08 -0.16952978D-02 -0.67367952D-03
 -0.36855570D-03  0.26028247D-07 -0.12825843D-04  0.64913302D-05  0.61756413D-04
 -0.69027006D-04  0.12691293D-07  0.55867279D-08  0.29677983D-04  0.50339477D-04
  0.57309715D-04  0.17283665D-03  0.52054182D-04  0.88293744D-04  0.10051931D-03
  0.35568949D-03  0.11694800D-03  0.21524675D-03  0.34830988D-03  0.45786309D-03
  0.39270651D-03  0.13427302D-03 -0.90032316D-03 -0.40172244D-03  0.11862917D-02
 -0.30998844D-04 -0.23882939D-04 -0.10485896D-04  0.76168882D-04  0.58684017D-04
  0.25765444D-04 -0.15828755D-07 -0.12195203D-07 -0.53543509D-08 -0.26940578D-02
  0.43191583D-03  0.84758919D-03 -0.39496119D-07  0.92107148D-03  0.36322015D-03
  0.11860659D-02 -0.64409691D-03  0.32499581D-07  0.80643885D-07 -0.73647280D-04
 -0.13555031D-03 -0.21934599D-03 -0.28833644D-03 -0.24730449D-03 -0.84557606D-04
  0.28910511D-03  0.12899814D-03 -0.38093322D-03  0.76670701D-04  0.59070642D-04
  0.25935194D-04  0.37061566D-04  0.28553939D-04  0.12536717D-04 -0.74734194D-08
 -0.57578668D-08 -0.25280136D-08  0.85622085D-03 -0.24517457D-03 -0.79418192D-04
  0.82116407D-08 -0.13961751D-03 -0.26391226D-03 -0.29061818D-03  0.68180742D-04
 -0.70626608D-08 -0.45778665D-08 -0.21622504D-04 -0.36675860D-04 -0.41754170D-04
 -0.21638287D-03 -0.18745013D-04 -0.34580890D-04 -0.55824278D-04 -0.72666623D-04
 -0.62006561D-04 -0.21409375D-04  0.49183299D-04  0.22668538D-04 -0.63564946D-04
 -0.41905524D-04 -0.32130498D-04 -0.16035370D-04 -0.11810121D-04 -0.90552519D-05
 -0.45192053D-05 -0.74803903D-08 -0.57354888D-08 -0.28624109D-08 -0.91505537D-04
 -0.25379350D-04  0.71331237D-04  0.10412447D-07 -0.27655574D-05 -0.70935550D-04
 -0.35875119D-04  0.12203083D-03  0.46034230D-09 -0.57542818D-07 -0.78312426D-05
 -0.13283270D-04 -0.15122533D-04 -0.18954460D-04 -0.78351940D-05 -0.13289972D-04
 -0.15130163D-04 -0.18959521D-04  0.36966884D-05  0.62702833D-05  0.71384959D-05
  0.27978340D-04 -0.27983904D-04 -0.51624839D-04 -0.83338497D-04 -0.10848196D-03
 -0.92567854D-04 -0.31961455D-04  0.59707612D-04  0.27519184D-04 -0.77166664D-04
  0.76043794D-04  0.58305558D-04  0.29098560D-04 -0.47364412D-04 -0.36316027D-04
 -0.18124243D-04  0.10416737D-08  0.79868935D-09  0.39860196D-09  0.10683817D-03
 -0.79514322D-04  0.12219267D-04 -0.73075994D-10 -0.15023894D-04 -0.68097672D-04
 -0.48661623D-04 -0.24147881D-04  0.10759085D-08  0.88398570D-09 -0.10240814D-04
 -0.17370359D-04 -0.19775540D-04  0.50153628D-05  0.23964159D-05  0.40647750D-05