 Entering Link 1 = D:\Gaussian\G16W\l1.exe PID=     41900.
  
 Copyright (c) 1988,1990,1992,1993,1995,1998,2003,2009,2016,
            Gaussian, Inc.  All Rights Reserved.
  
 This is part of the Gaussian(R) 16 program.  It is based on
 the Gaussian(R) 09 system (copyright 2009, Gaussian, Inc.),
 the Gaussian(R) 03 system (copyright 2003, Gaussian, Inc.),
 the Gaussian(R) 98 system (copyright 1998, Gaussian, Inc.),
 the Gaussian(R) 94 system (copyright 1995, Gaussian, Inc.),
 the Gaussian 92(TM) system (copyright 1992, Gaussian, Inc.),
 the Gaussian 90(TM) system (copyright 1990, Gaussian, Inc.),
 the Gaussian 88(TM) system (copyright 1988, Gaussian, Inc.),
 the Gaussian 86(TM) system (copyright 1986, Carnegie Mellon
 University), and the Gaussian 82(TM) system (copyright 1983,
 Carnegie Mellon University). Gaussian is a federally registered
 trademark of Gaussian, Inc.
  
 This software contains proprietary and confidential information,
 including trade secrets, belonging to Gaussian, Inc.
  
 This software is provided under written license and may be
 used, copied, transmitted, or stored only in accord with that
 written license.
  
 The following legend is applicable only to US Government
 contracts under FAR:
  
                    RESTRICTED RIGHTS LEGEND
  
 Use, reproduction and disclosure by the US Government is
 subject to restrictions as set forth in subparagraphs (a)
 and (c) of the Commercial Computer Software - Restricted
 Rights clause in FAR 52.227-19.
  
 Gaussian, Inc.
 340 Quinnipiac St., Bldg. 40, Wallingford CT 06492
  
  
 ---------------------------------------------------------------
 Warning -- This program may not be used in any manner that
 competes with the business of Gaussian, Inc. or will provide
 assistance to any competitor of Gaussian, Inc.  The licensee
 of this program is prohibited from giving any competitor of
 Gaussian, Inc. access to this program.  By using this program,
 the user acknowledges that Gaussian, Inc. is engaged in the
 business of creating and licensing software in the field of
 computational chemistry and represents and warrants to the
 licensee that it is not a competitor of Gaussian, Inc. and that
 it will not use this program in any manner prohibited above.
 ---------------------------------------------------------------
  

 Cite this work as:
 Gaussian 16, Revision A.03,
 M. J. Frisch, G. W. Trucks, H. B. Schlegel, G. E. Scuseria, 
 M. A. Robb, J. R. Cheeseman, G. Scalmani, V. Barone, 
 G. A. Petersson, H. Nakatsuji, X. Li, M. Caricato, A. V. Marenich, 
 J. Bloino, B. G. Janesko, R. Gomperts, B. Mennucci, H. P. Hratchian, 
 J. V. Ortiz, A. F. Izmaylov, J. L. Sonnenberg, D. Williams-Young, 
 F. Ding, F. Lipparini, F. Egidi, J. Goings, B. Peng, A. Petrone, 
 T. Henderson, D. Ranasinghe, V. G. Zakrzewski, J. Gao, N. Rega, 
 G. Zheng, W. Liang, M. Hada, M. Ehara, K. Toyota, R. Fukuda, 
 J. Hasegawa, M. Ishida, T. Nakajima, Y. Honda, O. Kitao, H. Nakai, 
 T. Vreven, K. Throssell, J. A. Montgomery, Jr., J. E. Peralta, 
 F. Ogliaro, M. J. Bearpark, J. J. Heyd, E. N. Brothers, K. N. Kudin, 
 V. N. Staroverov, T. A. Keith, R. Kobayashi, J. Normand, 
 K. Raghavachari, A. P. Rendell, J. C. Burant, S. S. Iyengar, 
 J. Tomasi, M. Cossi, J. M. Millam, M. Klene, C. Adamo, R. Cammi, 
 J. W. Ochterski, R. L. Martin, K. Morokuma, O. Farkas, 
 J. B. Foresman, and D. J. Fox, Gaussian, Inc., Wallingford CT, 2016.
 
 ******************************************
 Gaussian 16:  EM64W-G16RevA.03 17-Dec-2016
                03-Dec-2025 
 ******************************************
 %nprocs=   4
 Will use up to    4 processors via shared memory.
 ------------------------------------
 #P B3LYP/6-31G* SCF=conver=7 out=wfn
 ------------------------------------
 1/38=1,172=1/1;
 2/12=2,17=6,18=5,40=1/2;
 3/5=1,6=6,7=1,11=2,25=1,30=1,74=-5/1,2,3;
 4//1;
 5/5=2,6=7,38=5/2;
 6/7=2,8=2,9=2,10=2,28=1/1;
 99/5=1,6=100,9=1/99;
 Leave Link    1 at Wed Dec 03 17:07:50 2025, MaxMem=           0 cpu:               0.0 elap:               0.1
 (Enter D:\Gaussian\G16W\l101.exe)
 ----------------------------------------------------
 Generated by Multiwfn (http://sobereva.com/multiwfn)
 ----------------------------------------------------
 Symbolic Z-matrix:
 Charge =  0 Multiplicity = 2
 C                    -1.06444  -1.38603   0.00008 
 C                     0.32928  -1.28162   0.00006 
 C                     0.9326   -0.03151  -0.00001 
 C                     0.10642   1.1924   -0.00008 
 C                    -1.32721   0.99404  -0.00005 
 C                    -1.91156  -0.25101   0.00003 
 H                    -1.51086  -2.37479   0.00013 
 H                    -1.92138   1.90179  -0.0001 
 O                     0.62438   2.32175  -0.00014 
 O                     2.25215   0.1967   -0.00004 
 H                     0.92207  -2.1868    0.0001 
 C                    -3.41371  -0.41619   0.00009 
 H                    -3.86209   0.05147   0.88127 
 H                    -3.86225   0.05219  -0.8806 
 H                    -3.69959  -1.46985  -0.00031 
 C                     3.143    -0.91521   0.00001 
 H                     3.00585  -1.53099  -0.89479 
 H                     4.14375  -0.48898  -0.00003 
 H                     3.00587  -1.5309    0.89487 
 
 ITRead=  0  0  0  0  0  0  0  0  0  0  0  0  0  0  0  0  0  0  0
 MicOpt= -1 -1 -1 -1 -1 -1 -1 -1 -1 -1 -1 -1 -1 -1 -1 -1 -1 -1 -1
 NAtoms=     19 NQM=       19 NQMF=       0 NMMI=      0 NMMIF=      0
                NMic=       0 NMicF=      0.
                    Isotopes and Nuclear Properties:
 (Nuclear quadrupole moments (NQMom) in fm**2, nuclear magnetic moments (NMagM)
  in nuclear magnetons)

  Atom         1           2           3           4           5           6           7           8           9          10
 IAtWgt=          12          12          12          12          12          12           1           1          16          16
 AtmWgt=  12.0000000  12.0000000  12.0000000  12.0000000  12.0000000  12.0000000   1.0078250   1.0078250  15.9949146  15.9949146
 NucSpn=           0           0           0           0           0           0           1           1           0           0
 AtZEff=   0.0000000   0.0000000   0.0000000   0.0000000   0.0000000   0.0000000   0.0000000   0.0000000   0.0000000   0.0000000
 NQMom=    0.0000000   0.0000000   0.0000000   0.0000000   0.0000000   0.0000000   0.0000000   0.0000000   0.0000000   0.0000000
 NMagM=    0.0000000   0.0000000   0.0000000   0.0000000   0.0000000   0.0000000   2.7928460   2.7928460   0.0000000   0.0000000
 AtZNuc=   6.0000000   6.0000000   6.0000000   6.0000000   6.0000000   6.0000000   1.0000000   1.0000000   8.0000000   8.0000000

  Atom        11          12          13          14          15          16          17          18          19
 IAtWgt=           1          12           1           1           1          12           1           1           1
 AtmWgt=   1.0078250  12.0000000   1.0078250   1.0078250   1.0078250  12.0000000   1.0078250   1.0078250   1.0078250
 NucSpn=           1           0           1           1           1           0           1           1           1
 AtZEff=   0.0000000   0.0000000   0.0000000   0.0000000   0.0000000   0.0000000   0.0000000   0.0000000   0.0000000
 NQMom=    0.0000000   0.0000000   0.0000000   0.0000000   0.0000000   0.0000000   0.0000000   0.0000000   0.0000000
 NMagM=    2.7928460   0.0000000   2.7928460   2.7928460   2.7928460   0.0000000   2.7928460   2.7928460   2.7928460
 AtZNuc=   1.0000000   6.0000000   1.0000000   1.0000000   1.0000000   6.0000000   1.0000000   1.0000000   1.0000000
 Leave Link  101 at Wed Dec 03 17:07:50 2025, MaxMem=   104857600 cpu:               0.0 elap:               0.1
 (Enter D:\Gaussian\G16W\l202.exe)
                          Input orientation:                          
 ---------------------------------------------------------------------
 Center     Atomic      Atomic             Coordinates (Angstroms)
 Number     Number       Type             X           Y           Z
 ---------------------------------------------------------------------
      1          6           0       -1.064436   -1.386031    0.000079
      2          6           0        0.329283   -1.281622    0.000060
      3          6           0        0.932599   -0.031513   -0.000012
      4          6           0        0.106420    1.192404   -0.000075
      5          6           0       -1.327212    0.994037   -0.000048
      6          6           0       -1.911560   -0.251005    0.000029
      7          1           0       -1.510859   -2.374785    0.000134
      8          1           0       -1.921378    1.901794   -0.000096
      9          8           0        0.624382    2.321746   -0.000136
     10          8           0        2.252154    0.196704   -0.000035
     11          1           0        0.922065   -2.186796    0.000099
     12          6           0       -3.413706   -0.416188    0.000094
     13          1           0       -3.862088    0.051466    0.881265
     14          1           0       -3.862249    0.052194   -0.880603
     15          1           0       -3.699587   -1.469847   -0.000308
     16          6           0        3.143003   -0.915209    0.000009
     17          1           0        3.005848   -1.530988   -0.894788
     18          1           0        4.143749   -0.488980   -0.000026
     19          1           0        3.005873   -1.530898    0.894871
 ---------------------------------------------------------------------
                    Distance matrix (angstroms):
                    1          2          3          4          5
     1  C    0.000000
     2  C    1.397624   0.000000
     3  C    2.413062   1.388079   0.000000
     4  C    2.831825   2.484044   1.476667   0.000000
     5  C    2.394530   2.814711   2.481632   1.447291   0.000000
     6  C    1.416299   2.466485   2.852616   2.481063   1.375352
     7  H    1.084863   2.140357   3.385471   3.916686   3.373824
     8  H    3.397667   3.898668   3.447153   2.148301   1.084922
     9  O    4.074275   3.615431   2.373357   1.242456   2.360409
    10  O    3.674890   2.425465   1.339145   2.365501   3.667097
    11  H    2.141824   1.082003   2.155309   3.476244   3.895760
    12  C    2.541587   3.841737   4.363295   3.870253   2.518371
    13  H    3.266457   4.485670   4.875711   4.222269   2.844424
    14  H    3.266780   4.485931   4.875758   4.222054   2.844092
    15  H    2.636484   4.033264   4.850356   4.644703   3.420364
    16  C    4.233700   2.837478   2.380505   3.696332   4.860868
    17  H    4.170013   2.833185   2.710611   4.077261   5.094283
    18  H    5.284874   3.895951   3.243572   4.373451   5.668400
    19  H    4.170019   2.833189   2.710615   4.077270   5.094291
                    6          7          8          9         10
     6  C    0.000000
     7  H    2.161250   0.000000
     8  H    2.152821   4.296237   0.000000
     9  O    3.612485   5.159133   2.580165   0.000000
    10  O    4.187715   4.557721   4.508403   2.676835   0.000000
    11  H    3.431722   2.440176   4.980134   4.518359   2.729507
    12  C    1.511201   2.730738   2.756825   4.878774   5.698913
    13  H    2.161626   3.491613   2.822564   5.104846   6.179137
    14  H    2.161627   3.492128   2.821931   5.104503   6.179175
    15  H    2.163935   2.368426   3.811822   5.750903   6.180664
    16  C    5.098017   4.877376   5.795124   4.101381   1.424768
    17  H    5.159453   4.681188   6.071410   4.616854   2.086518
    18  H    6.059983   5.960776   6.519322   4.504012   2.012037
    19  H    5.159459   4.681193   6.071420   4.616861   2.086518
                   11         12         13         14         15
    11  H    0.000000
    12  C    4.683371   0.000000
    13  H    5.354847   1.093713   0.000000
    14  H    5.355219   1.093709   1.761868   0.000000
    15  H    4.676931   1.091753   1.765778   1.765782   0.000000
    16  C    2.559199   6.575671   7.126175   7.126353   6.865032
    17  H    2.360733   6.576798   7.268223   7.048221   6.765108
    18  H    3.641679   7.557806   8.072310   8.072440   7.904430
    19  H    2.360736   6.576792   7.047904   7.268397   6.765225
                   16         17         18         19
    16  C    0.000000
    17  H    1.094832   0.000000
    18  H    1.087733   1.783591   0.000000
    19  H    1.094831   1.789659   1.783591   0.000000
 Stoichiometry    C8H9O2(2)
 Framework group  C1[X(C8H9O2)]
 Deg. of freedom    51
 Full point group                 C1      NOp   1
 Largest Abelian subgroup         C1      NOp   1
 Largest concise Abelian subgroup C1      NOp   1
                         Standard orientation:                         
 ---------------------------------------------------------------------
 Center     Atomic      Atomic             Coordinates (Angstroms)
 Number     Number       Type             X           Y           Z
 ---------------------------------------------------------------------
      1          6           0       -1.064436   -1.386031    0.000079
      2          6           0        0.329283   -1.281622    0.000060
      3          6           0        0.932599   -0.031513   -0.000012
      4          6           0        0.106420    1.192404   -0.000075
      5          6           0       -1.327212    0.994037   -0.000048
      6          6           0       -1.911560   -0.251005    0.000029
      7          1           0       -1.510859   -2.374785    0.000134
      8          1           0       -1.921378    1.901794   -0.000096
      9          8           0        0.624382    2.321746   -0.000136
     10          8           0        2.252154    0.196704   -0.000035
     11          1           0        0.922065   -2.186796    0.000099
     12          6           0       -3.413706   -0.416188    0.000094
     13          1           0       -3.862088    0.051466    0.881265
     14          1           0       -3.862249    0.052194   -0.880603
     15          1           0       -3.699587   -1.469847   -0.000308
     16          6           0        3.143003   -0.915209    0.000009
     17          1           0        3.005848   -1.530988   -0.894788
     18          1           0        4.143749   -0.488980   -0.000026
     19          1           0        3.005873   -1.530898    0.894871
 ---------------------------------------------------------------------
 Rotational constants (GHZ):           2.5878352           0.9612915           0.7071570
 Leave Link  202 at Wed Dec 03 17:07:50 2025, MaxMem=   104857600 cpu:               0.0 elap:               0.1
 (Enter D:\Gaussian\G16W\l301.exe)
 Standard basis: 6-31G(d) (6D, 7F)
 Ernie: Thresh=  0.10000D-02 Tol=  0.10000D-05 Strict=F.
 There are   168 symmetry adapted cartesian basis functions of A   symmetry.
 There are   168 symmetry adapted basis functions of A   symmetry.
   168 basis functions,   316 primitive gaussians,   168 cartesian basis functions
    37 alpha electrons       36 beta electrons
       nuclear repulsion energy       501.2226345287 Hartrees.
 IExCor=  402 DFT=T Ex+Corr=B3LYP ExCW=0 ScaHFX=  0.200000
 ScaDFX=  0.800000  0.720000  1.000000  0.810000 ScalE2=  1.000000  1.000000
 IRadAn=      5 IRanWt=     -1 IRanGd=            0 ICorTp=0 IEmpDi=  4
 NAtoms=   19 NActive=   19 NUniq=   19 SFac= 1.00D+00 NAtFMM=   60 NAOKFM=F Big=F
 Integral buffers will be    131072 words long.
 Raffenetti 2 integral format.
 Two-electron integral symmetry is turned on.
 Leave Link  301 at Wed Dec 03 17:07:50 2025, MaxMem=   104857600 cpu:               0.0 elap:               0.1
 (Enter D:\Gaussian\G16W\l302.exe)
 NPDir=0 NMtPBC=     1 NCelOv=     1 NCel=       1 NClECP=     1 NCelD=      1
         NCelK=      1 NCelE2=     1 NClLst=     1 CellRange=     0.0.
 One-electron integrals computed using PRISM.
 One-electron integral symmetry used in STVInt
 NBasis=   168 RedAO= T EigKep=  4.38D-04  NBF=   168
 NBsUse=   168 1.00D-06 EigRej= -1.00D+00 NBFU=   168
 Precomputing XC quadrature grid using
 IXCGrd= 4 IRadAn=           5 IRanWt=          -1 IRanGd=           0 AccXCQ= 0.00D+00.
 Generated NRdTot=       0 NPtTot=           0 NUsed=           0 NTot=          32
 NSgBfM=   167   167   167   167   167 MxSgAt=    19 MxSgA2=    19.
 Leave Link  302 at Wed Dec 03 17:07:51 2025, MaxMem=   104857600 cpu:               1.0 elap:               0.4
 (Enter D:\Gaussian\G16W\l303.exe)
 DipDrv:  MaxL=1.
 Leave Link  303 at Wed Dec 03 17:07:51 2025, MaxMem=   104857600 cpu:               0.0 elap:               0.1
 (Enter D:\Gaussian\G16W\l401.exe)
 ExpMin= 1.61D-01 ExpMax= 5.48D+03 ExpMxC= 8.25D+02 IAcc=3 IRadAn=         5 AccDes= 0.00D+00
 Harris functional with IExCor=  402 and IRadAn=       5 diagonalized for initial guess.
 HarFok:  IExCor=  402 AccDes= 0.00D+00 IRadAn=         5 IDoV= 1 UseB2=F ITyADJ=14
 ICtDFT=  3500011 ScaDFX=  1.000000  1.000000  1.000000  1.000000
 FoFCou: FMM=F IPFlag=           0 FMFlag=      100000 FMFlg1=           0
         NFxFlg=           0 DoJE=T BraDBF=F KetDBF=T FulRan=T
         wScrn=  0.000000 ICntrl=       500 IOpCl=  0 I1Cent=   200000004 NGrid=           0
         NMat0=    1 NMatS0=      1 NMatT0=    0 NMatD0=    1 NMtDS0=    0 NMtDT0=    0
 Petite list used in FoFCou.
 Harris En= -460.693838603915    
 JPrj=0 DoOrth=F DoCkMO=F.
 Initial guess <Sx>= 0.0000 <Sy>= 0.0000 <Sz>= 0.5000 <S**2>= 0.7500 S= 0.5000
 Leave Link  401 at Wed Dec 03 17:07:52 2025, MaxMem=   104857600 cpu:               1.0 elap:               1.1
 (Enter D:\Gaussian\G16W\l502.exe)
 Integral symmetry usage will be decided dynamically.
 UHF open shell SCF:
 Using DIIS extrapolation, IDIIS=  1040.
 NGot=   104857600 LenX=   104798149 LenY=   104769484
 Requested convergence on RMS density matrix=1.00D-07 within 128 cycles.
 Requested convergence on MAX density matrix=1.00D-05.
 Requested convergence on             energy=1.00D-05.
 No special actions if energy rises.
 Fock matrices will be formed incrementally for  20 cycles.
 Integral accuracy reduced to 1.0D-05 until final iterations.

 Cycle   1  Pass 0  IDiag  1:
 FoFJK:  IHMeth= 1 ICntrl=       0 DoSepK=F KAlg= 0 I1Cent=           0 FoldK=F
 IRaf= 920000000 NMat=       1 IRICut=       1 DoRegI=T DoRafI=F ISym2E= 0 IDoP0=0 IntGTp=1.
 FoFCou: FMM=F IPFlag=           0 FMFlag=      100000 FMFlg1=           0
         NFxFlg=           0 DoJE=F BraDBF=F KetDBF=F FulRan=T
         wScrn=  0.000000 ICntrl=         0 IOpCl=  1 I1Cent=           0 NGrid=           0
         NMat0=    1 NMatS0=      1 NMatT0=    0 NMatD0=    1 NMtDS0=    0 NMtDT0=    0
 Symmetry not used in FoFCou.
 E= -460.417668234137    
 DIIS: error= 3.70D-02 at cycle   1 NSaved=   1.
 NSaved= 1 IEnMin= 1 EnMin= -460.417668234137     IErMin= 1 ErrMin= 3.70D-02
 ErrMax= 3.70D-02  0.00D+00 EMaxC= 1.00D-01 BMatC= 1.00D+00 BMatP= 1.00D+00
 IDIUse=3 WtCom= 6.30D-01 WtEn= 3.70D-01
 Coeff-Com:  0.100D+01
 Coeff-En:   0.100D+01
 Coeff:      0.100D+01
 Gap=     0.186 Goal=   None    Shift=    0.000
 Gap=     0.089 Goal=   None    Shift=    0.000
 GapD=    0.089 DampG=0.500 DampE=0.500 DampFc=0.2500 IDamp=-1.
 Damping current iteration by 2.50D-01
 RMSDP=8.16D-03 MaxDP=2.39D-01              OVMax= 4.57D-01

 Cycle   2  Pass 0  IDiag  1:
 RMSU=  2.03D-03    CP:  9.92D-01
 E= -460.505310195599     Delta-E=       -0.087641961462 Rises=F Damp=T
 DIIS: error= 1.92D-02 at cycle   2 NSaved=   2.
 NSaved= 2 IEnMin= 2 EnMin= -460.505310195599     IErMin= 2 ErrMin= 1.92D-02
 ErrMax= 1.92D-02  0.00D+00 EMaxC= 1.00D-01 BMatC= 2.39D-01 BMatP= 1.00D+00
 IDIUse=3 WtCom= 8.08D-01 WtEn= 1.92D-01
 Coeff-Com: -0.620D+00 0.162D+01
 Coeff-En:   0.000D+00 0.100D+01
 Coeff:     -0.501D+00 0.150D+01
 Gap=     0.263 Goal=   None    Shift=    0.000
 Gap=     0.128 Goal=   None    Shift=    0.000
 RMSDP=2.52D-03 MaxDP=5.49D-02 DE=-8.76D-02 OVMax= 3.09D-01

 Cycle   3  Pass 0  IDiag  1:
 RMSU=  2.32D-03    CP:  9.72D-01  1.41D+00
 E= -460.637204670413     Delta-E=       -0.131894474814 Rises=F Damp=F
 DIIS: error= 1.69D-02 at cycle   3 NSaved=   3.
 NSaved= 3 IEnMin= 3 EnMin= -460.637204670413     IErMin= 3 ErrMin= 1.69D-02
 ErrMax= 1.69D-02  0.00D+00 EMaxC= 1.00D-01 BMatC= 1.32D-01 BMatP= 2.39D-01
 IDIUse=3 WtCom= 8.31D-01 WtEn= 1.69D-01
 Coeff-Com: -0.386D+00 0.908D+00 0.478D+00
 Coeff-En:   0.000D+00 0.000D+00 0.100D+01
 Coeff:     -0.321D+00 0.754D+00 0.566D+00
 Gap=     0.187 Goal=   None    Shift=    0.000
 Gap=     0.117 Goal=   None    Shift=    0.000
 RMSDP=1.76D-03 MaxDP=7.24D-02 DE=-1.32D-01 OVMax= 1.19D-01

 Cycle   4  Pass 0  IDiag  1:
 RMSU=  1.12D-03    CP:  9.78D-01  1.66D+00  4.66D-01
 E= -460.660151435823     Delta-E=       -0.022946765410 Rises=F Damp=F
 DIIS: error= 9.94D-03 at cycle   4 NSaved=   4.
 NSaved= 4 IEnMin= 4 EnMin= -460.660151435823     IErMin= 4 ErrMin= 9.94D-03
 ErrMax= 9.94D-03  0.00D+00 EMaxC= 1.00D-01 BMatC= 4.38D-02 BMatP= 1.32D-01
 IDIUse=3 WtCom= 9.01D-01 WtEn= 9.94D-02
 Coeff-Com: -0.188D-01 0.102D+00 0.354D+00 0.563D+00
 Coeff-En:   0.000D+00 0.000D+00 0.256D+00 0.744D+00
 Coeff:     -0.170D-01 0.918D-01 0.344D+00 0.581D+00
 Gap=     0.197 Goal=   None    Shift=    0.000
 Gap=     0.117 Goal=   None    Shift=    0.000
 RMSDP=8.33D-04 MaxDP=3.09D-02 DE=-2.29D-02 OVMax= 4.55D-02

 Cycle   5  Pass 0  IDiag  1:
 RMSU=  4.08D-04    CP:  9.76D-01  1.48D+00  6.52D-01  5.98D-01
 E= -460.668965132957     Delta-E=       -0.008813697134 Rises=F Damp=F
 DIIS: error= 3.03D-03 at cycle   5 NSaved=   5.
 NSaved= 5 IEnMin= 5 EnMin= -460.668965132957     IErMin= 5 ErrMin= 3.03D-03
 ErrMax= 3.03D-03  0.00D+00 EMaxC= 1.00D-01 BMatC= 3.75D-03 BMatP= 4.38D-02
 IDIUse=3 WtCom= 9.70D-01 WtEn= 3.03D-02
 Coeff-Com:  0.270D-01-0.256D-01 0.180D+00 0.372D+00 0.446D+00
 Coeff-En:   0.000D+00 0.000D+00 0.000D+00 0.000D+00 0.100D+01
 Coeff:      0.262D-01-0.248D-01 0.175D+00 0.360D+00 0.463D+00
 Gap=     0.194 Goal=   None    Shift=    0.000
 Gap=     0.118 Goal=   None    Shift=    0.000
 RMSDP=2.66D-04 MaxDP=9.43D-03 DE=-8.81D-03 OVMax= 2.10D-02

 Cycle   6  Pass 0  IDiag  1:
 RMSU=  1.63D-04    CP:  9.76D-01  1.50D+00  6.60D-01  6.91D-01  5.67D-01
 E= -460.670010921498     Delta-E=       -0.001045788541 Rises=F Damp=F
 DIIS: error= 1.01D-03 at cycle   6 NSaved=   6.
 NSaved= 6 IEnMin= 6 EnMin= -460.670010921498     IErMin= 6 ErrMin= 1.01D-03
 ErrMax= 1.01D-03  0.00D+00 EMaxC= 1.00D-01 BMatC= 4.75D-04 BMatP= 3.75D-03
 IDIUse=3 WtCom= 9.90D-01 WtEn= 1.01D-02
 Coeff-Com:  0.175D-01-0.303D-01 0.119D-01 0.254D-01 0.226D+00 0.750D+00
 Coeff-En:   0.000D+00 0.000D+00 0.000D+00 0.000D+00 0.000D+00 0.100D+01
 Coeff:      0.173D-01-0.300D-01 0.118D-01 0.251D-01 0.224D+00 0.752D+00
 Gap=     0.196 Goal=   None    Shift=    0.000
 Gap=     0.116 Goal=   None    Shift=    0.000
 RMSDP=1.11D-04 MaxDP=4.18D-03 DE=-1.05D-03 OVMax= 1.04D-02

 Cycle   7  Pass 0  IDiag  1:
 RMSU=  6.98D-05    CP:  9.76D-01  1.50D+00  6.69D-01  6.89D-01  7.64D-01
                    CP:  1.11D+00
 E= -460.670214831739     Delta-E=       -0.000203910241 Rises=F Damp=F
 DIIS: error= 4.78D-04 at cycle   7 NSaved=   7.
 NSaved= 7 IEnMin= 7 EnMin= -460.670214831739     IErMin= 7 ErrMin= 4.78D-04
 ErrMax= 4.78D-04  0.00D+00 EMaxC= 1.00D-01 BMatC= 1.48D-04 BMatP= 4.75D-04
 IDIUse=3 WtCom= 9.95D-01 WtEn= 4.78D-03
 Coeff-Com:  0.424D-02-0.121D-01-0.426D-01-0.103D+00-0.785D-02 0.434D+00
 Coeff-Com:  0.727D+00
 Coeff-En:   0.000D+00 0.000D+00 0.000D+00 0.000D+00 0.000D+00 0.000D+00
 Coeff-En:   0.100D+01
 Coeff:      0.422D-02-0.120D-01-0.424D-01-0.102D+00-0.781D-02 0.432D+00
 Coeff:      0.728D+00
 Gap=     0.197 Goal=   None    Shift=    0.000
 Gap=     0.117 Goal=   None    Shift=    0.000
 RMSDP=7.35D-05 MaxDP=2.92D-03 DE=-2.04D-04 OVMax= 9.11D-03

 Cycle   8  Pass 0  IDiag  1:
 RMSU=  4.00D-05    CP:  9.76D-01  1.49D+00  6.75D-01  7.02D-01  8.42D-01
                    CP:  1.40D+00  9.89D-01
 E= -460.670294119063     Delta-E=       -0.000079287323 Rises=F Damp=F
 DIIS: error= 2.04D-04 at cycle   8 NSaved=   8.
 NSaved= 8 IEnMin= 8 EnMin= -460.670294119063     IErMin= 8 ErrMin= 2.04D-04
 ErrMax= 2.04D-04  0.00D+00 EMaxC= 1.00D-01 BMatC= 3.35D-05 BMatP= 1.48D-04
 IDIUse=3 WtCom= 9.98D-01 WtEn= 2.04D-03
 Coeff-Com: -0.338D-02 0.507D-02-0.217D-01-0.623D-01-0.957D-01-0.842D-01
 Coeff-Com:  0.363D+00 0.899D+00
 Coeff-En:   0.000D+00 0.000D+00 0.000D+00 0.000D+00 0.000D+00 0.000D+00
 Coeff-En:   0.000D+00 0.100D+01
 Coeff:     -0.338D-02 0.506D-02-0.217D-01-0.621D-01-0.955D-01-0.840D-01
 Coeff:      0.362D+00 0.899D+00
 Gap=     0.198 Goal=   None    Shift=    0.000
 Gap=     0.118 Goal=   None    Shift=    0.000
 RMSDP=5.36D-05 MaxDP=2.24D-03 DE=-7.93D-05 OVMax= 5.83D-03

 Cycle   9  Pass 0  IDiag  1:
 RMSU=  1.75D-05    CP:  9.75D-01  1.48D+00  6.80D-01  7.06D-01  8.97D-01
                    CP:  1.60D+00  1.34D+00  1.11D+00
 E= -460.670318177904     Delta-E=       -0.000024058842 Rises=F Damp=F
 DIIS: error= 1.03D-04 at cycle   9 NSaved=   9.
 NSaved= 9 IEnMin= 9 EnMin= -460.670318177904     IErMin= 9 ErrMin= 1.03D-04
 ErrMax= 1.03D-04  0.00D+00 EMaxC= 1.00D-01 BMatC= 6.93D-06 BMatP= 3.35D-05
 IDIUse=3 WtCom= 9.99D-01 WtEn= 1.03D-03
 Coeff-Com: -0.189D-02 0.355D-02-0.559D-02-0.196D-01-0.505D-01-0.110D+00
 Coeff-Com:  0.108D+00 0.494D+00 0.581D+00
 Coeff-En:   0.000D+00 0.000D+00 0.000D+00 0.000D+00 0.000D+00 0.000D+00
 Coeff-En:   0.000D+00 0.000D+00 0.100D+01
 Coeff:     -0.189D-02 0.354D-02-0.558D-02-0.195D-01-0.505D-01-0.110D+00
 Coeff:      0.108D+00 0.494D+00 0.582D+00
 Gap=     0.198 Goal=   None    Shift=    0.000
 Gap=     0.118 Goal=   None    Shift=    0.000
 RMSDP=1.50D-05 MaxDP=7.05D-04 DE=-2.41D-05 OVMax= 2.20D-03

 Cycle  10  Pass 0  IDiag  1:
 RMSU=  8.53D-06    CP:  9.75D-01  1.49D+00  6.81D-01  7.06D-01  9.09D-01
                    CP:  1.65D+00  1.41D+00  1.23D+00  7.13D-01
 E= -460.670321023077     Delta-E=       -0.000002845173 Rises=F Damp=F
 DIIS: error= 3.36D-05 at cycle  10 NSaved=  10.
 NSaved=10 IEnMin=10 EnMin= -460.670321023077     IErMin=10 ErrMin= 3.36D-05
 ErrMax= 3.36D-05  0.00D+00 EMaxC= 1.00D-01 BMatC= 9.14D-07 BMatP= 6.93D-06
 IDIUse=1 WtCom= 1.00D+00 WtEn= 0.00D+00
 Coeff-Com:  0.227D-03-0.129D-03 0.297D-02 0.745D-02 0.519D-02-0.220D-01
 Coeff-Com: -0.397D-01-0.476D-01 0.235D+00 0.859D+00
 Coeff:      0.227D-03-0.129D-03 0.297D-02 0.745D-02 0.519D-02-0.220D-01
 Coeff:     -0.397D-01-0.476D-01 0.235D+00 0.859D+00
 Gap=     0.198 Goal=   None    Shift=    0.000
 Gap=     0.118 Goal=   None    Shift=    0.000
 RMSDP=7.34D-06 MaxDP=4.39D-04 DE=-2.85D-06 OVMax= 8.59D-04

 Initial convergence to 1.0D-05 achieved.  Increase integral accuracy.
 Cycle  11  Pass 1  IDiag  1:
 E= -460.670322505197     Delta-E=       -0.000001482120 Rises=F Damp=F
 DIIS: error= 2.39D-05 at cycle   1 NSaved=   1.
 NSaved= 1 IEnMin= 1 EnMin= -460.670322505197     IErMin= 1 ErrMin= 2.39D-05
 ErrMax= 2.39D-05  0.00D+00 EMaxC= 1.00D-01 BMatC= 2.51D-07 BMatP= 2.51D-07
 IDIUse=1 WtCom= 1.00D+00 WtEn= 0.00D+00
 Coeff-Com:  0.100D+01
 Coeff:      0.100D+01
 Gap=     0.198 Goal=   None    Shift=    0.000
 Gap=     0.118 Goal=   None    Shift=    0.000
 RMSDP=7.34D-06 MaxDP=4.39D-04 DE=-1.48D-06 OVMax= 4.20D-04

 Cycle  12  Pass 1  IDiag  1:
 RMSU=  6.89D-06    CP:  1.00D+00
 E= -460.670322574238     Delta-E=       -0.000000069041 Rises=F Damp=F
 DIIS: error= 1.44D-05 at cycle   2 NSaved=   2.
 NSaved= 2 IEnMin= 2 EnMin= -460.670322574238     IErMin= 2 ErrMin= 1.44D-05
 ErrMax= 1.44D-05  0.00D+00 EMaxC= 1.00D-01 BMatC= 2.49D-07 BMatP= 2.51D-07
 IDIUse=1 WtCom= 1.00D+00 WtEn= 0.00D+00
 Coeff-Com:  0.498D+00 0.502D+00
 Coeff:      0.498D+00 0.502D+00
 Gap=     0.198 Goal=   None    Shift=    0.000
 Gap=     0.118 Goal=   None    Shift=    0.000
 RMSDP=1.93D-06 MaxDP=7.67D-05 DE=-6.90D-08 OVMax= 1.74D-04

 Cycle  13  Pass 1  IDiag  1:
 RMSU=  1.92D-06    CP:  1.00D+00  9.72D-01
 E= -460.670322641785     Delta-E=       -0.000000067547 Rises=F Damp=F
 DIIS: error= 9.18D-06 at cycle   3 NSaved=   3.
 NSaved= 3 IEnMin= 3 EnMin= -460.670322641785     IErMin= 3 ErrMin= 9.18D-06
 ErrMax= 9.18D-06  0.00D+00 EMaxC= 1.00D-01 BMatC= 2.83D-08 BMatP= 2.49D-07
 IDIUse=1 WtCom= 1.00D+00 WtEn= 0.00D+00
 Coeff-Com: -0.466D-01 0.190D+00 0.856D+00
 Coeff:     -0.466D-01 0.190D+00 0.856D+00
 Gap=     0.198 Goal=   None    Shift=    0.000
 Gap=     0.118 Goal=   None    Shift=    0.000
 RMSDP=1.21D-06 MaxDP=7.57D-05 DE=-6.75D-08 OVMax= 1.98D-04

 Cycle  14  Pass 1  IDiag  1:
 RMSU=  1.10D-06    CP:  1.00D+00  1.04D+00  8.87D-01
 E= -460.670322660989     Delta-E=       -0.000000019204 Rises=F Damp=F
 DIIS: error= 4.89D-06 at cycle   4 NSaved=   4.
 NSaved= 4 IEnMin= 4 EnMin= -460.670322660989     IErMin= 4 ErrMin= 4.89D-06
 ErrMax= 4.89D-06  0.00D+00 EMaxC= 1.00D-01 BMatC= 1.45D-08 BMatP= 2.83D-08
 IDIUse=1 WtCom= 1.00D+00 WtEn= 0.00D+00
 Coeff-Com: -0.119D+00 0.161D-01 0.524D+00 0.579D+00
 Coeff:     -0.119D+00 0.161D-01 0.524D+00 0.579D+00
 Gap=     0.198 Goal=   None    Shift=    0.000
 Gap=     0.118 Goal=   None    Shift=    0.000
 RMSDP=6.47D-07 MaxDP=4.00D-05 DE=-1.92D-08 OVMax= 7.13D-05

 Cycle  15  Pass 1  IDiag  1:
 RMSU=  4.89D-07    CP:  1.00D+00  1.06D+00  1.07D+00  1.17D+00
 E= -460.670322668574     Delta-E=       -0.000000007585 Rises=F Damp=F
 DIIS: error= 2.87D-06 at cycle   5 NSaved=   5.
 NSaved= 5 IEnMin= 5 EnMin= -460.670322668574     IErMin= 5 ErrMin= 2.87D-06
 ErrMax= 2.87D-06  0.00D+00 EMaxC= 1.00D-01 BMatC= 1.96D-09 BMatP= 1.45D-08
 IDIUse=1 WtCom= 1.00D+00 WtEn= 0.00D+00
 Coeff-Com: -0.264D-01-0.904D-01-0.167D+00 0.164D+00 0.112D+01
 Coeff:     -0.264D-01-0.904D-01-0.167D+00 0.164D+00 0.112D+01
 Gap=     0.198 Goal=   None    Shift=    0.000
 Gap=     0.118 Goal=   None    Shift=    0.000
 RMSDP=6.28D-07 MaxDP=3.68D-05 DE=-7.59D-09 OVMax= 9.53D-05

 Cycle  16  Pass 1  IDiag  1:
 RMSU=  2.15D-07    CP:  1.00D+00  1.09D+00  1.17D+00  1.64D+00  1.24D+00
 E= -460.670322671406     Delta-E=       -0.000000002832 Rises=F Damp=F
 DIIS: error= 1.57D-06 at cycle   6 NSaved=   6.
 NSaved= 6 IEnMin= 6 EnMin= -460.670322671406     IErMin= 6 ErrMin= 1.57D-06
 ErrMax= 1.57D-06  0.00D+00 EMaxC= 1.00D-01 BMatC= 1.42D-09 BMatP= 1.96D-09
 IDIUse=1 WtCom= 1.00D+00 WtEn= 0.00D+00
 Coeff-Com:  0.115D-02-0.656D-01-0.199D+00 0.227D-02 0.761D+00 0.500D+00
 Coeff:      0.115D-02-0.656D-01-0.199D+00 0.227D-02 0.761D+00 0.500D+00
 Gap=     0.198 Goal=   None    Shift=    0.000
 Gap=     0.118 Goal=   None    Shift=    0.000
 RMSDP=2.02D-07 MaxDP=9.51D-06 DE=-2.83D-09 OVMax= 2.18D-05

 Cycle  17  Pass 1  IDiag  1:
 RMSU=  8.68D-08    CP:  1.00D+00  1.09D+00  1.19D+00  1.74D+00  1.43D+00
                    CP:  6.11D-01
 E= -460.670322671926     Delta-E=       -0.000000000520 Rises=F Damp=F
 DIIS: error= 4.00D-07 at cycle   7 NSaved=   7.
 NSaved= 7 IEnMin= 7 EnMin= -460.670322671926     IErMin= 7 ErrMin= 4.00D-07
 ErrMax= 4.00D-07  0.00D+00 EMaxC= 1.00D-01 BMatC= 1.11D-10 BMatP= 1.42D-09
 IDIUse=1 WtCom= 1.00D+00 WtEn= 0.00D+00
 Coeff-Com:  0.402D-02-0.222D-01-0.767D-01-0.251D-01 0.241D+00 0.251D+00
 Coeff-Com:  0.628D+00
 Coeff:      0.402D-02-0.222D-01-0.767D-01-0.251D-01 0.241D+00 0.251D+00
 Coeff:      0.628D+00
 Gap=     0.198 Goal=   None    Shift=    0.000
 Gap=     0.118 Goal=   None    Shift=    0.000
 RMSDP=6.24D-08 MaxDP=2.61D-06 DE=-5.20D-10 OVMax= 6.32D-06

 SCF Done:  E(UB3LYP) =  -460.670322672     A.U. after   17 cycles
            NFock= 17  Conv=0.62D-07     -V/T= 2.0091
 <Sx>= 0.0000 <Sy>= 0.0000 <Sz>= 0.5000 <S**2>= 0.7794 S= 0.5146
 <L.S>= 0.000000000000E+00
 KE= 4.565116503868D+02 PE=-2.075199813111D+03 EE= 6.567952055236D+02
 Annihilation of the first spin contaminant:
 S**2 before annihilation     0.7794,   after     0.7506
 Leave Link  502 at Wed Dec 03 17:08:25 2025, MaxMem=   104857600 cpu:              33.0 elap:              33.1
 (Enter D:\Gaussian\G16W\l601.exe)
 Copying SCF densities to generalized density rwf, IOpCl= 1 IROHF=0.

 **********************************************************************

            Population analysis using the SCF density.

 **********************************************************************

 Orbital symmetries:
 Alpha Orbitals:
       Occupied  (A) (A) (A) (A) (A) (A) (A) (A) (A) (A) (A) (A)
                 (A) (A) (A) (A) (A) (A) (A) (A) (A) (A) (A) (A)
                 (A) (A) (A) (A) (A) (A) (A) (A) (A) (A) (A) (A)
                 (A)
       Virtual   (A) (A) (A) (A) (A) (A) (A) (A) (A) (A) (A) (A)
                 (A) (A) (A) (A) (A) (A) (A) (A) (A) (A) (A) (A)
                 (A) (A) (A) (A) (A) (A) (A) (A) (A) (A) (A) (A)
                 (A) (A) (A) (A) (A) (A) (A) (A) (A) (A) (A) (A)
                 (A) (A) (A) (A) (A) (A) (A) (A) (A) (A) (A) (A)
                 (A) (A) (A) (A) (A) (A) (A) (A) (A) (A) (A) (A)
                 (A) (A) (A) (A) (A) (A) (A) (A) (A) (A) (A) (A)
                 (A) (A) (A) (A) (A) (A) (A) (A) (A) (A) (A) (A)
                 (A) (A) (A) (A) (A) (A) (A) (A) (A) (A) (A) (A)
                 (A) (A) (A) (A) (A) (A) (A) (A) (A) (A) (A) (A)
                 (A) (A) (A) (A) (A) (A) (A) (A) (A) (A) (A)
 Beta  Orbitals:
       Occupied  (A) (A) (A) (A) (A) (A) (A) (A) (A) (A) (A) (A)
                 (A) (A) (A) (A) (A) (A) (A) (A) (A) (A) (A) (A)
                 (A) (A) (A) (A) (A) (A) (A) (A) (A) (A) (A) (A)
       Virtual   (A) (A) (A) (A) (A) (A) (A) (A) (A) (A) (A) (A)
                 (A) (A) (A) (A) (A) (A) (A) (A) (A) (A) (A) (A)
                 (A) (A) (A) (A) (A) (A) (A) (A) (A) (A) (A) (A)
                 (A) (A) (A) (A) (A) (A) (A) (A) (A) (A) (A) (A)
                 (A) (A) (A) (A) (A) (A) (A) (A) (A) (A) (A) (A)
                 (A) (A) (A) (A) (A) (A) (A) (A) (A) (A) (A) (A)
                 (A) (A) (A) (A) (A) (A) (A) (A) (A) (A) (A) (A)
                 (A) (A) (A) (A) (A) (A) (A) (A) (A) (A) (A) (A)
                 (A) (A) (A) (A) (A) (A) (A) (A) (A) (A) (A) (A)
                 (A) (A) (A) (A) (A) (A) (A) (A) (A) (A) (A) (A)
                 (A) (A) (A) (A) (A) (A) (A) (A) (A) (A) (A) (A)
 The electronic state is 2-A.
 Alpha  occ. eigenvalues --  -19.19959 -19.12385 -10.26266 -10.25210 -10.24851
 Alpha  occ. eigenvalues --  -10.21193 -10.20544 -10.19882 -10.19056 -10.18960
 Alpha  occ. eigenvalues --   -1.08965  -1.01560  -0.85677  -0.78137  -0.74515
 Alpha  occ. eigenvalues --   -0.72190  -0.67668  -0.60898  -0.57865  -0.54205
 Alpha  occ. eigenvalues --   -0.50438  -0.48735  -0.46325  -0.45452  -0.43685
 Alpha  occ. eigenvalues --   -0.42964  -0.41721  -0.40703  -0.39808  -0.38130
 Alpha  occ. eigenvalues --   -0.36536  -0.35367  -0.33958  -0.32810  -0.24784
 Alpha  occ. eigenvalues --   -0.24356  -0.20033
 Alpha virt. eigenvalues --   -0.00255   0.00978   0.08377   0.09679   0.11486
 Alpha virt. eigenvalues --    0.12793   0.14238   0.14560   0.15325   0.15742
 Alpha virt. eigenvalues --    0.16025   0.19196   0.19568   0.22804   0.24770
 Alpha virt. eigenvalues --    0.28039   0.30645   0.33848   0.36128   0.37930
 Alpha virt. eigenvalues --    0.45542   0.48525   0.49807   0.51202   0.52623
 Alpha virt. eigenvalues --    0.52838   0.54442   0.55463   0.56027   0.59052
 Alpha virt. eigenvalues --    0.59304   0.61542   0.62521   0.64232   0.66928
 Alpha virt. eigenvalues --    0.67071   0.70492   0.71218   0.72670   0.75035
 Alpha virt. eigenvalues --    0.78565   0.78846   0.82233   0.84097   0.84713
 Alpha virt. eigenvalues --    0.86049   0.87492   0.87815   0.90005   0.91070
 Alpha virt. eigenvalues --    0.92639   0.95485   0.95712   0.98713   0.99135
 Alpha virt. eigenvalues --    1.00442   1.03235   1.07391   1.07886   1.11586
 Alpha virt. eigenvalues --    1.13373   1.17955   1.22693   1.23403   1.23997
 Alpha virt. eigenvalues --    1.30910   1.34981   1.36630   1.38289   1.41423
 Alpha virt. eigenvalues --    1.43448   1.44056   1.48288   1.48411   1.50851
 Alpha virt. eigenvalues --    1.65034   1.70791   1.74858   1.77244   1.78474
 Alpha virt. eigenvalues --    1.80272   1.85831   1.86590   1.87144   1.88684
 Alpha virt. eigenvalues --    1.90656   1.92951   1.95119   1.98158   2.00895
 Alpha virt. eigenvalues --    2.02695   2.04326   2.06570   2.10853   2.11068
 Alpha virt. eigenvalues --    2.13514   2.17790   2.22968   2.23144   2.27583
 Alpha virt. eigenvalues --    2.28596   2.30954   2.31732   2.36553   2.39240
 Alpha virt. eigenvalues --    2.39656   2.49370   2.55483   2.62789   2.63233
 Alpha virt. eigenvalues --    2.66376   2.68346   2.68865   2.76817   2.84377
 Alpha virt. eigenvalues --    2.87742   2.92282   2.96015   3.05492   3.26337
 Alpha virt. eigenvalues --    3.37950   3.91263   4.07071   4.08803   4.17836
 Alpha virt. eigenvalues --    4.20819   4.25186   4.34775   4.39652   4.57325
 Alpha virt. eigenvalues --    4.97312
  Beta  occ. eigenvalues --  -19.19711 -19.11422 -10.25884 -10.25220 -10.24959
  Beta  occ. eigenvalues --  -10.20717 -10.20670 -10.20066 -10.18954 -10.18731
  Beta  occ. eigenvalues --   -1.08422  -0.99816  -0.85097  -0.77886  -0.74132
  Beta  occ. eigenvalues --   -0.71586  -0.67129  -0.60528  -0.57570  -0.53895
  Beta  occ. eigenvalues --   -0.50248  -0.48033  -0.46151  -0.45221  -0.43538
  Beta  occ. eigenvalues --   -0.42670  -0.40987  -0.39703  -0.39057  -0.37868
  Beta  occ. eigenvalues --   -0.36365  -0.33701  -0.32957  -0.30562  -0.23577
  Beta  occ. eigenvalues --   -0.23379
  Beta virt. eigenvalues --   -0.11559   0.01307   0.03376   0.08480   0.09806
  Beta virt. eigenvalues --    0.11586   0.12855   0.14636   0.15034   0.15413
  Beta virt. eigenvalues --    0.16095   0.16126   0.19394   0.20270   0.22929
  Beta virt. eigenvalues --    0.25075   0.28499   0.30834   0.34051   0.36475
  Beta virt. eigenvalues --    0.38365   0.45626   0.48867   0.50579   0.51464
  Beta virt. eigenvalues --    0.52792   0.53201   0.54608   0.55661   0.56214
  Beta virt. eigenvalues --    0.59393   0.59988   0.61790   0.62738   0.65112
  Beta virt. eigenvalues --    0.67353   0.67977   0.70723   0.71292   0.72885
  Beta virt. eigenvalues --    0.75078   0.79091   0.79101   0.82414   0.84275
  Beta virt. eigenvalues --    0.84780   0.86300   0.87633   0.87845   0.90390
  Beta virt. eigenvalues --    0.91149   0.92741   0.95508   0.96014   0.99255
  Beta virt. eigenvalues --    1.00612   1.00926   1.03284   1.08343   1.09245
  Beta virt. eigenvalues --    1.11755   1.13761   1.18210   1.23515   1.23558
  Beta virt. eigenvalues --    1.24208   1.31115   1.35633   1.37114   1.38627
  Beta virt. eigenvalues --    1.42258   1.44257   1.44388   1.48399   1.49283
  Beta virt. eigenvalues --    1.51324   1.65338   1.71279   1.75218   1.77643
  Beta virt. eigenvalues --    1.80086   1.80720   1.86291   1.87627   1.87706
  Beta virt. eigenvalues --    1.89036   1.91575   1.93302   1.95822   1.98648
  Beta virt. eigenvalues --    2.01218   2.03349   2.05017   2.07077   2.11184
  Beta virt. eigenvalues --    2.12002   2.13663   2.18131   2.23073   2.23543
  Beta virt. eigenvalues --    2.28363   2.28971   2.31823   2.31974   2.36626
  Beta virt. eigenvalues --    2.39534   2.39916   2.50269   2.55928   2.63685
  Beta virt. eigenvalues --    2.63912   2.67447   2.68606   2.69144   2.77151
  Beta virt. eigenvalues --    2.84831   2.87952   2.92531   2.96306   3.06054
  Beta virt. eigenvalues --    3.26508   3.38117   3.91973   4.07475   4.09111
  Beta virt. eigenvalues --    4.17769   4.21567   4.25538   4.34999   4.40006
  Beta virt. eigenvalues --    4.57711   4.97841
          Condensed to atoms (all electrons):
               1          2          3          4          5          6
     1  C    4.991165   0.460975   0.002284  -0.032988  -0.031478   0.518891
     2  C    0.460975   5.168207   0.408967  -0.037892  -0.033130  -0.031861
     3  C    0.002284   0.408967   4.950880   0.302078  -0.101915  -0.020833
     4  C   -0.032988  -0.037892   0.302078   4.545222   0.414798  -0.000837
     5  C   -0.031478  -0.033130  -0.101915   0.414798   5.290810   0.479029
     6  C    0.518891  -0.031861  -0.020833  -0.000837   0.479029   4.682831
     7  H    0.352705  -0.043153   0.003713   0.000257   0.006358  -0.038582
     8  H    0.006336  -0.000442   0.008169  -0.031883   0.344322  -0.051702
     9  O   -0.000077   0.006192  -0.080565   0.495783  -0.069048   0.005116
    10  O    0.003551  -0.068550   0.303235  -0.052900   0.003177   0.000105
    11  H   -0.033354   0.352224  -0.040741   0.001957   0.000333   0.003555
    12  C   -0.054370   0.008359  -0.000359   0.004419  -0.061751   0.348258
    13  H    0.000863  -0.000185   0.000021  -0.000050  -0.002889  -0.026109
    14  H    0.000867  -0.000185   0.000020  -0.000050  -0.002887  -0.026112
    15  H   -0.002800   0.000154   0.000034  -0.000118   0.003366  -0.030089
    16  C    0.000284  -0.007549  -0.043067   0.004806  -0.000117  -0.000005
    17  H   -0.000077   0.005524  -0.005567  -0.000441  -0.000005  -0.000003
    18  H   -0.000001   0.000094   0.003365   0.000090   0.000005   0.000000
    19  H   -0.000077   0.005524  -0.005567  -0.000441  -0.000005  -0.000003
               7          8          9         10         11         12
     1  C    0.352705   0.006336  -0.000077   0.003551  -0.033354  -0.054370
     2  C   -0.043153  -0.000442   0.006192  -0.068550   0.352224   0.008359
     3  C    0.003713   0.008169  -0.080565   0.303235  -0.040741  -0.000359
     4  C    0.000257  -0.031883   0.495783  -0.052900   0.001957   0.004419
     5  C    0.006358   0.344322  -0.069048   0.003177   0.000333  -0.061751
     6  C   -0.038582  -0.051702   0.005116   0.000105   0.003555   0.348258
     7  H    0.592008  -0.000167   0.000001  -0.000052  -0.005485  -0.009927
     8  H   -0.000167   0.588036   0.002074  -0.000049   0.000017  -0.008804
     9  O    0.000001   0.002074   8.126516  -0.001622  -0.000056  -0.000071
    10  O   -0.000052  -0.000049  -0.001622   8.132794  -0.007185   0.000000
    11  H   -0.005485   0.000017  -0.000056  -0.007185   0.580538  -0.000187
    12  C   -0.009927  -0.008804  -0.000071   0.000000  -0.000187   5.208847
    13  H    0.000114   0.001820   0.000001   0.000000   0.000003   0.365610
    14  H    0.000114   0.001823   0.000001   0.000000   0.000003   0.365613
    15  H    0.006965   0.000074   0.000000   0.000000  -0.000007   0.365191
    16  C   -0.000009   0.000003  -0.000115   0.239646   0.006449   0.000000
    17  H    0.000004   0.000000  -0.000007  -0.032765   0.001456   0.000000
    18  H    0.000000   0.000000   0.000011  -0.032869  -0.000071   0.000000
    19  H    0.000004   0.000000  -0.000007  -0.032765   0.001456   0.000000
              13         14         15         16         17         18
     1  C    0.000863   0.000867  -0.002800   0.000284  -0.000077  -0.000001
     2  C   -0.000185  -0.000185   0.000154  -0.007549   0.005524   0.000094
     3  C    0.000021   0.000020   0.000034  -0.043067  -0.005567   0.003365
     4  C   -0.000050  -0.000050  -0.000118   0.004806  -0.000441   0.000090
     5  C   -0.002889  -0.002887   0.003366  -0.000117  -0.000005   0.000005
     6  C   -0.026109  -0.026112  -0.030089  -0.000005  -0.000003   0.000000
     7  H    0.000114   0.000114   0.006965  -0.000009   0.000004   0.000000
     8  H    0.001820   0.001823   0.000074   0.000003   0.000000   0.000000
     9  O    0.000001   0.000001   0.000000  -0.000115  -0.000007   0.000011
    10  O    0.000000   0.000000   0.000000   0.239646  -0.032765  -0.032869
    11  H    0.000003   0.000003  -0.000007   0.006449   0.001456  -0.000071
    12  C    0.365610   0.365613   0.365191   0.000000   0.000000   0.000000
    13  H    0.548665  -0.030506  -0.027658   0.000000   0.000000   0.000000
    14  H   -0.030506   0.548659  -0.027655   0.000000   0.000000   0.000000
    15  H   -0.027658  -0.027655   0.557729   0.000000   0.000000   0.000000
    16  C    0.000000   0.000000   0.000000   4.908211   0.363251   0.388457
    17  H    0.000000   0.000000   0.000000   0.363251   0.584505  -0.030598
    18  H    0.000000   0.000000   0.000000   0.388457  -0.030598   0.518571
    19  H    0.000000   0.000000   0.000000   0.363252  -0.045881  -0.030599
              19
     1  C   -0.000077
     2  C    0.005524
     3  C   -0.005567
     4  C   -0.000441
     5  C   -0.000005
     6  C   -0.000003
     7  H    0.000004
     8  H    0.000000
     9  O   -0.000007
    10  O   -0.032765
    11  H    0.001456
    12  C    0.000000
    13  H    0.000000
    14  H    0.000000
    15  H    0.000000
    16  C    0.363252
    17  H   -0.045881
    18  H   -0.030599
    19  H    0.584505
          Atomic-Atomic Spin Densities.
               1          2          3          4          5          6
     1  C    0.415241  -0.019770  -0.013719  -0.003439  -0.013892   0.016629
     2  C   -0.019770  -0.160563   0.021370   0.001227   0.001415  -0.001057
     3  C   -0.013719   0.021370   0.293380   0.028939   0.004229  -0.001180
     4  C   -0.003439   0.001227   0.028939  -0.073501   0.028425  -0.000625
     5  C   -0.013892   0.001415   0.004229   0.028425   0.276555  -0.024675
     6  C    0.016629  -0.001057  -0.001180  -0.000625  -0.024675  -0.123614
     7  H    0.000409   0.000452  -0.000042  -0.000033   0.000031  -0.000057
     8  H    0.000025  -0.000041  -0.000071  -0.000079   0.001078   0.000793
     9  O    0.000129  -0.000146  -0.008736  -0.050543  -0.009412   0.000155
    10  O    0.000362  -0.000025  -0.051765  -0.001827  -0.000147  -0.000005
    11  H   -0.000540   0.001444  -0.000592   0.000058  -0.000022   0.000022
    12  C   -0.000202   0.000031  -0.000030  -0.000026  -0.001998   0.006486
    13  H   -0.000464   0.000000   0.000008   0.000011   0.000843   0.001293
    14  H   -0.000463   0.000000   0.000008   0.000011   0.000843   0.001292
    15  H   -0.000124   0.000005   0.000000  -0.000003   0.000047   0.000334
    16  C    0.000031   0.000369  -0.002130  -0.000123  -0.000012   0.000002
    17  H   -0.000079   0.000082   0.001909   0.000036   0.000004  -0.000001
    18  H    0.000000  -0.000014   0.000059   0.000000   0.000000   0.000000
    19  H   -0.000079   0.000082   0.001909   0.000036   0.000004  -0.000001
               7          8          9         10         11         12
     1  C    0.000409   0.000025   0.000129   0.000362  -0.000540  -0.000202
     2  C    0.000452  -0.000041  -0.000146  -0.000025   0.001444   0.000031
     3  C   -0.000042  -0.000071  -0.008736  -0.051765  -0.000592  -0.000030
     4  C   -0.000033  -0.000079  -0.050543  -0.001827   0.000058  -0.000026
     5  C    0.000031   0.001078  -0.009412  -0.000147  -0.000022  -0.001998
     6  C   -0.000057   0.000793   0.000155  -0.000005   0.000022   0.006486
     7  H   -0.019160   0.000003   0.000000   0.000001   0.000127   0.000244
     8  H    0.000003  -0.014220  -0.000215   0.000000  -0.000001   0.000119
     9  O    0.000000  -0.000215   0.444574   0.001780   0.000001   0.000003
    10  O    0.000001   0.000000   0.001780   0.127818   0.000011   0.000000
    11  H    0.000127  -0.000001   0.000001   0.000011   0.004925   0.000001
    12  C    0.000244   0.000119   0.000003   0.000000   0.000001   0.006361
    13  H   -0.000004  -0.000018  -0.000001   0.000000   0.000000  -0.002239
    14  H   -0.000004  -0.000018  -0.000001   0.000000   0.000000  -0.002239
    15  H   -0.000075  -0.000002   0.000000   0.000000   0.000000  -0.000186
    16  C    0.000000   0.000000   0.000015   0.002955   0.000008   0.000000
    17  H    0.000000   0.000000  -0.000005  -0.002277  -0.000050   0.000000
    18  H    0.000000   0.000000  -0.000001   0.000072   0.000009   0.000000
    19  H    0.000000   0.000000  -0.000005  -0.002277  -0.000050   0.000000
              13         14         15         16         17         18
     1  C   -0.000464  -0.000463  -0.000124   0.000031  -0.000079   0.000000
     2  C    0.000000   0.000000   0.000005   0.000369   0.000082  -0.000014
     3  C    0.000008   0.000008   0.000000  -0.002130   0.001909   0.000059
     4  C    0.000011   0.000011  -0.000003  -0.000123   0.000036   0.000000
     5  C    0.000843   0.000843   0.000047  -0.000012   0.000004   0.000000
     6  C    0.001293   0.001292   0.000334   0.000002  -0.000001   0.000000
     7  H   -0.000004  -0.000004  -0.000075   0.000000   0.000000   0.000000
     8  H   -0.000018  -0.000018  -0.000002   0.000000   0.000000   0.000000
     9  O   -0.000001  -0.000001   0.000000   0.000015  -0.000005  -0.000001
    10  O    0.000000   0.000000   0.000000   0.002955  -0.002277   0.000072
    11  H    0.000000   0.000000   0.000000   0.000008  -0.000050   0.000009
    12  C   -0.002239  -0.002239  -0.000186   0.000000   0.000000   0.000000
    13  H   -0.000765  -0.000308   0.000104   0.000000   0.000000   0.000000
    14  H   -0.000308  -0.000758   0.000102   0.000000   0.000000   0.000000
    15  H    0.000104   0.000102  -0.000665   0.000000   0.000000   0.000000
    16  C    0.000000   0.000000   0.000000  -0.005584  -0.001186   0.000167
    17  H    0.000000   0.000000   0.000000  -0.001186   0.009895   0.000002
    18  H    0.000000   0.000000   0.000000   0.000167   0.000002  -0.000423
    19  H    0.000000   0.000000   0.000000  -0.001186  -0.002809   0.000002
              19
     1  C   -0.000079
     2  C    0.000082
     3  C    0.001909
     4  C    0.000036
     5  C    0.000004
     6  C   -0.000001
     7  H    0.000000
     8  H    0.000000
     9  O   -0.000005
    10  O   -0.002277
    11  H   -0.000050
    12  C    0.000000
    13  H    0.000000
    14  H    0.000000
    15  H    0.000000
    16  C   -0.001186
    17  H   -0.002809
    18  H    0.000002
    19  H    0.009895
 Mulliken charges and spin densities:
               1          2
     1  C   -0.182698   0.380055
     2  C   -0.193273  -0.155138
     3  C    0.315848   0.273547
     4  C    0.388190  -0.071455
     5  C   -0.238974   0.263315
     6  C    0.188351  -0.124209
     7  H    0.135132  -0.018108
     8  H    0.140372  -0.012646
     9  O   -0.484126   0.377592
    10  O   -0.453752   0.074676
    11  H    0.139093   0.005350
    12  C   -0.530829   0.006323
    13  H    0.170301  -0.001540
    14  H    0.170295  -0.001537
    15  H    0.154813  -0.000463
    16  C   -0.223498  -0.006675
    17  H    0.160605   0.005520
    18  H    0.183545  -0.000128
    19  H    0.160605   0.005520
 Sum of Mulliken charges =   0.00000   1.00000
 Mulliken charges and spin densities with hydrogens summed into heavy atoms:
               1          2
     1  C   -0.047566   0.361947
     2  C   -0.054180  -0.149788
     3  C    0.315848   0.273547
     4  C    0.388190  -0.071455
     5  C   -0.098602   0.250669
     6  C    0.188351  -0.124209
     9  O   -0.484126   0.377592
    10  O   -0.453752   0.074676
    12  C   -0.035420   0.002783
    16  C    0.281257   0.004238
 Electronic spatial extent (au):  <R**2>=           1602.3421
 Charge=              0.0000 electrons
 Dipole moment (field-independent basis, Debye):
    X=             -0.4444    Y=             -4.5896    Z=              0.0003  Tot=              4.6110
 Quadrupole moment (field-independent basis, Debye-Ang):
   XX=            -46.7108   YY=            -62.3259   ZZ=            -59.0360
   XY=             -6.9239   XZ=              0.0000   YZ=              0.0002
 Traceless Quadrupole moment (field-independent basis, Debye-Ang):
   XX=              9.3134   YY=             -6.3017   ZZ=             -3.0117
   XY=             -6.9239   XZ=              0.0000   YZ=              0.0002
 Octapole moment (field-independent basis, Debye-Ang**2):
  XXX=             29.5541  YYY=            -20.3659  ZZZ=              0.0000  XYY=             -3.5091
  XXY=            -11.2695  XXZ=              0.0008  XZZ=              6.0262  YZZ=              4.5509
  YYZ=              0.0009  XYZ=              0.0009
 Hexadecapole moment (field-independent basis, Debye-Ang**3):
 XXXX=          -1324.1083 YYYY=           -572.0351 ZZZZ=            -70.0307 XXXY=            -32.6617
 XXXZ=              0.0095 YYYX=            -12.7795 YYYZ=              0.0158 ZZZX=              0.0075
 ZZZY=              0.0129 XXYY=           -321.8597 XXZZ=           -256.2092 YYZZ=           -102.6180
 XXYZ=              0.0029 YYXZ=              0.0066 ZZXY=             -1.4371
 N-N= 5.012226345287D+02 E-N=-2.075199775315D+03  KE= 4.565116503868D+02
                          Isotropic Fermi Contact Couplings
        Atom                 a.u.       MegaHertz       Gauss      10(-4) cm-1
     1  C(13)              0.03991      44.86254      16.00807      14.96453
     2  C(13)             -0.02345     -26.35834      -9.40531      -8.79219
     3  C(13)              0.02702      30.37168      10.83737      10.13090
     4  C(13)             -0.02236     -25.13730      -8.96962      -8.38490
     5  C(13)              0.02459      27.64300       9.86371       9.22071
     6  C(13)             -0.01941     -21.81901      -7.78557      -7.27804
     7  H(1)              -0.00569     -25.45588      -9.08329      -8.49117
     8  H(1)              -0.00399     -17.85121      -6.36975      -5.95452
     9  O(17)              0.04694     -28.45432     -10.15321      -9.49134
    10  O(17)              0.01917     -11.62343      -4.14753      -3.87716
    11  H(1)               0.00166       7.42233       2.64847       2.47582
    12  C(13)              0.00182       2.05137       0.73198       0.68426
    13  H(1)              -0.00139      -6.19904      -2.21197      -2.06778
    14  H(1)              -0.00139      -6.19288      -2.20977      -2.06572
    15  H(1)              -0.00019      -0.86494      -0.30863      -0.28851
    16  C(13)             -0.00210      -2.35961      -0.84197      -0.78708
    17  H(1)               0.00164       7.33154       2.61608       2.44554
    18  H(1)              -0.00010      -0.42598      -0.15200      -0.14209
    19  H(1)               0.00164       7.33150       2.61606       2.44553
 --------------------------------------------------------
       Center         ----  Spin Dipole Couplings  ----
                      3XX-RR        3YY-RR        3ZZ-RR
 --------------------------------------------------------
     1   Atom       -0.193330     -0.182951      0.376280
     2   Atom        0.061664      0.059728     -0.121392
     3   Atom       -0.147645     -0.150242      0.297888
     4   Atom        0.009959      0.038954     -0.048913
     5   Atom       -0.123754     -0.127045      0.250799
     6   Atom        0.040187      0.048959     -0.089146
     7   Atom       -0.017783      0.020427     -0.002644
     8   Atom        0.000909      0.003724     -0.004633
     9   Atom       -0.710032     -0.708238      1.418271
    10   Atom       -0.192515     -0.192808      0.385323
    11   Atom        0.003877      0.001450     -0.005327
    12   Atom        0.005213     -0.000726     -0.004486
    13   Atom        0.002892     -0.000993     -0.001900
    14   Atom        0.002893     -0.000993     -0.001900
    15   Atom        0.004634     -0.002223     -0.002410
    16   Atom        0.002976      0.002510     -0.005486
    17   Atom        0.000776      0.001600     -0.002376
    18   Atom        0.004476     -0.001844     -0.002632
    19   Atom        0.000776      0.001600     -0.002376
 --------------------------------------------------------
                        XY            XZ            YZ
 --------------------------------------------------------
     1   Atom        0.005312      0.000009      0.000027
     2   Atom        0.006574     -0.000002     -0.000010
     3   Atom       -0.001696      0.000003      0.000025
     4   Atom        0.017265     -0.000002     -0.000005
     5   Atom       -0.003003      0.000007      0.000027
     6   Atom       -0.000212     -0.000003     -0.000006
     7   Atom        0.019084     -0.000001     -0.000002
     8   Atom       -0.016601      0.000001      0.000000
     9   Atom       -0.000661     -0.000001      0.000109
    10   Atom       -0.010124      0.000006      0.000030
    11   Atom        0.004212      0.000000      0.000000
    12   Atom       -0.000405      0.000000      0.000001
    13   Atom        0.000340     -0.001047     -0.000173
    14   Atom        0.000340      0.001046      0.000173
    15   Atom        0.000983      0.000001      0.000000
    16   Atom       -0.006229      0.000000      0.000000
    17   Atom       -0.003741     -0.001474      0.001738
    18   Atom       -0.002853      0.000000      0.000000
    19   Atom       -0.003741      0.001474     -0.001738
 --------------------------------------------------------


 ---------------------------------------------------------------------------------
              Anisotropic Spin Dipole Couplings in Principal Axis System
 ---------------------------------------------------------------------------------

       Atom             a.u.   MegaHertz   Gauss  10(-4) cm-1        Axes

              Baa    -0.1956   -26.243    -9.364    -8.754  0.9216 -0.3880  0.0000
     1 C(13)  Bbb    -0.1807   -24.250    -8.653    -8.089  0.3880  0.9216 -0.0001
              Bcc     0.3763    50.493    18.017    16.843  0.0000  0.0000  1.0000
 
              Baa    -0.1214   -16.290    -5.813    -5.434  0.0000  0.0001  1.0000
     2 C(13)  Bbb     0.0541     7.253     2.588     2.419 -0.6536  0.7569  0.0000
              Bcc     0.0673     9.037     3.224     3.014  0.7569  0.6536  0.0000
 
              Baa    -0.1511   -20.274    -7.234    -6.763  0.4428  0.8966 -0.0001
     3 C(13)  Bbb    -0.1468   -19.700    -7.030    -6.571  0.8966 -0.4428  0.0000
              Bcc     0.2979    39.974    14.264    13.334  0.0000  0.0001  1.0000
 
              Baa    -0.0489    -6.564    -2.342    -2.189  0.0000  0.0001  1.0000
     4 C(13)  Bbb     0.0019     0.257     0.092     0.086  0.9064 -0.4225  0.0000
              Bcc     0.0470     6.307     2.251     2.104  0.4225  0.9064 -0.0001
 
              Baa    -0.1288   -17.287    -6.168    -5.766  0.5096  0.8604 -0.0001
     5 C(13)  Bbb    -0.1220   -16.368    -5.840    -5.460  0.8604 -0.5096  0.0000
              Bcc     0.2508    33.655    12.009    11.226  0.0000  0.0001  1.0000
 
              Baa    -0.0891   -11.963    -4.269    -3.990  0.0000  0.0000  1.0000
     6 C(13)  Bbb     0.0402     5.392     1.924     1.799  0.9997  0.0241  0.0000
              Bcc     0.0490     6.571     2.345     2.192 -0.0241  0.9997  0.0000
 
              Baa    -0.0257   -13.703    -4.889    -4.571  0.9240 -0.3824  0.0000
     7 H(1)   Bbb    -0.0026    -1.410    -0.503    -0.470  0.0000  0.0001  1.0000
              Bcc     0.0283    15.113     5.393     5.041  0.3824  0.9240 -0.0001
 
              Baa    -0.0143    -7.653    -2.731    -2.553  0.7364  0.6766 -0.0001
     8 H(1)   Bbb    -0.0046    -2.472    -0.882    -0.825  0.0000  0.0001  1.0000
              Bcc     0.0190    10.125     3.613     3.377 -0.6766  0.7364  0.0000
 
              Baa    -0.7102    51.393    18.338    17.143  0.9501  0.3121  0.0000
     9 O(17)  Bbb    -0.7080    51.232    18.281    17.089 -0.3121  0.9501  0.0000
              Bcc     1.4183  -102.625   -36.619   -34.232  0.0000  0.0001  1.0000
 
              Baa    -0.2028    14.673     5.236     4.895  0.7020  0.7122  0.0000
    10 O(17)  Bbb    -0.1825    13.208     4.713     4.406  0.7122 -0.7020  0.0000
              Bcc     0.3853   -27.882    -9.949    -9.300  0.0000  0.0001  1.0000
 
              Baa    -0.0053    -2.842    -1.014    -0.948  0.0000  0.0001  1.0000
    11 H(1)   Bbb    -0.0017    -0.918    -0.327    -0.306 -0.6013  0.7990  0.0000
              Bcc     0.0070     3.760     1.342     1.254  0.7990  0.6013  0.0000
 
              Baa    -0.0045    -0.602    -0.215    -0.201  0.0000 -0.0001  1.0000
    12 C(13)  Bbb    -0.0008    -0.101    -0.036    -0.034  0.0678  0.9977  0.0001
              Bcc     0.0052     0.703     0.251     0.235  0.9977 -0.0678  0.0000
 
              Baa    -0.0021    -1.135    -0.405    -0.379  0.1975  0.0900  0.9762
    13 H(1)   Bbb    -0.0010    -0.542    -0.193    -0.181 -0.1050  0.9920 -0.0702
              Bcc     0.0031     1.677     0.599     0.559  0.9747  0.0886 -0.2054
 
              Baa    -0.0021    -1.135    -0.405    -0.379 -0.1973 -0.0897  0.9762
    14 H(1)   Bbb    -0.0010    -0.543    -0.194    -0.181 -0.1050  0.9920  0.0699
              Bcc     0.0031     1.677     0.599     0.560  0.9747  0.0887  0.2052
 
              Baa    -0.0024    -1.286    -0.459    -0.429  0.0002 -0.0021  1.0000
    15 H(1)   Bbb    -0.0024    -1.260    -0.450    -0.420 -0.1391  0.9903  0.0021
              Bcc     0.0048     2.546     0.908     0.849  0.9903  0.1391  0.0001
 
              Baa    -0.0055    -0.736    -0.263    -0.246  0.0000  0.0001  1.0000
    16 C(13)  Bbb    -0.0035    -0.468    -0.167    -0.156  0.6938  0.7202  0.0000
              Bcc     0.0090     1.205     0.430     0.402  0.7202 -0.6938  0.0000
 
              Baa    -0.0030    -1.619    -0.578    -0.540  0.0857 -0.2884  0.9537
    17 H(1)   Bbb    -0.0026    -1.370    -0.489    -0.457  0.7635  0.6339  0.1231
              Bcc     0.0056     2.989     1.067     0.997 -0.6401  0.7176  0.2745
 
              Baa    -0.0029    -1.570    -0.560    -0.524  0.3590  0.9333 -0.0001
    18 H(1)   Bbb    -0.0026    -1.404    -0.501    -0.468  0.0000  0.0001  1.0000
              Bcc     0.0056     2.974     1.061     0.992  0.9333 -0.3590  0.0000
 
              Baa    -0.0030    -1.619    -0.578    -0.540 -0.0857  0.2885  0.9536
    19 H(1)   Bbb    -0.0026    -1.370    -0.489    -0.457  0.7635  0.6339 -0.1232
              Bcc     0.0056     2.989     1.067     0.997 -0.6401  0.7176 -0.2746
 

 ---------------------------------------------------------------------------------

 No NMR shielding tensors so no spin-rotation constants.
 Leave Link  601 at Wed Dec 03 17:08:25 2025, MaxMem=   104857600 cpu:               0.0 elap:               0.2
 (Enter D:\Gaussian\G16W\l9999.exe)
 1|1|UNPC-PC-20250526LCFF|SP|UB3LYP|6-31G(d)|C8H9O2(2)|ADMINISTRATOR|03
 -Dec-2025|0||#P B3LYP/6-31G* SCF=conver=7 out=wfn||Generated by Multiw
 fn (http://sobereva.com/multiwfn)||0,2|C,0,-1.064436,-1.386031,0.00007
 9|C,0,0.329283,-1.281622,0.00006|C,0,0.932599,-0.031513,-0.000012|C,0,
 0.10642,1.192404,-0.000075|C,0,-1.327212,0.994037,-0.000048|C,0,-1.911
 56,-0.251005,0.000029|H,0,-1.510859,-2.374785,0.000134|H,0,-1.921378,1
 .901794,-0.000096|O,0,0.624382,2.321746,-0.000136|O,0,2.252154,0.19670
 4,-0.000035|H,0,0.922065,-2.186796,0.000099|C,0,-3.413706,-0.416188,0.
 000094|H,0,-3.862088,0.051466,0.881265|H,0,-3.862249,0.052194,-0.88060
 3|H,0,-3.699587,-1.469847,-0.000308|C,0,3.143003,-0.915209,0.000009|H,
 0,3.005848,-1.530988,-0.894788|H,0,4.143749,-0.48898,-0.000026|H,0,3.0
 05873,-1.530898,0.894871||Version=EM64W-G16RevA.03|State=2-A|HF=-460.6
 703227|S2=0.779389|S2-1=0.|S2A=0.750599|RMSD=6.235e-008|Dipole=-0.1748
 22,-1.8056817,0.0001182|Quadrupole=6.9243075,-4.6851601,-2.2391474,-5.
 1477612,0.0000203,0.0001708|PG=C01 [X(C8H9O2)]||@

 Writing a WFN file to "N.wfn"


      TO SUSPECT YOUR OWN MORTALITY IS TO KNOW THE BEGINNING OF TERROR.
      TO LEARN IRREFUTABLY THAT YOU ARE MORTAL IS TO KNOW THE END
      OF TERROR.

                                                  -- JESSICA
                                                     CHILDREN OF DUNE
                                                     BY FRANK HERBERT
 Job cpu time:       0 days  0 hours  0 minutes 36.0 seconds.
 Elapsed time:       0 days  0 hours  0 minutes 35.3 seconds.
 File lengths (MBytes):  RWF=     32 Int=      0 D2E=      0 Chk=      3 Scr=      1
 Normal termination of Gaussian 16 at Wed Dec 03 17:08:26 2025.
