 Generated by Multiwfn (http://sobereva.com/multiwfn)
GAUSSIAN             73 MOL ORBITALS    316 PRIMITIVES       19 NUCLEI
  C    1    (CENTRE  1)  -2.01149285 -2.61921884  0.00014939  CHARGE =  6.0
  C    2    (CENTRE  2)   0.62225436 -2.42191455  0.00011349  CHARGE =  6.0
  C    3    (CENTRE  3)   1.76235648 -0.05955097 -0.00002257  CHARGE =  6.0
  C    4    (CENTRE  4)   0.20110455  2.25331703 -0.00014163  CHARGE =  6.0
  C    5    (CENTRE  5)  -2.50806731  1.87845786 -0.00009060  CHARGE =  6.0
  C    6    (CENTRE  6)  -3.61232510 -0.47433048  0.00005491  CHARGE =  6.0
  H    7    (CENTRE  7)  -2.85511014 -4.48769307  0.00025333  CHARGE =  1.0
  H    8    (CENTRE  8)  -3.63087824  3.59387003 -0.00018131  CHARGE =  1.0
  O    9    (CENTRE  9)   1.17991098  4.38746407 -0.00025690  CHARGE =  8.0
  O   10    (CENTRE 10)   4.25595406  0.37171654 -0.00006604  CHARGE =  8.0
  H   11    (CENTRE 11)   1.74244991 -4.13244556  0.00018719  CHARGE =  1.0
  C   12    (CENTRE 12)  -6.45096965 -0.78648098  0.00017774  CHARGE =  6.0
  H   13    (CENTRE 13)  -7.29828879  0.09725704  1.66534960  CHARGE =  1.0
  H   14    (CENTRE 14)  -7.29859304  0.09863277 -1.66409839  CHARGE =  1.0
  H   15    (CENTRE 15)  -6.99120654 -2.77760789 -0.00058193  CHARGE =  1.0
  C   16    (CENTRE 16)   5.93941459 -1.72949459  0.00001711  CHARGE =  6.0
  H   17    (CENTRE 17)   5.68022915 -2.89314824 -1.69090416  CHARGE =  1.0
  H   18    (CENTRE 18)   7.83055049 -0.92403860 -0.00004903  CHARGE =  1.0
  H   19    (CENTRE 19)   5.68027639 -2.89297816  1.69106121  CHARGE =  1.0
CENTRE ASSIGNMENTS    1  1  1  1  1  1  1  1  1  1  1  1  1  1  1  1  1  1  1  1
CENTRE ASSIGNMENTS    1  1  1  1  1  1  1  1  2  2  2  2  2  2  2  2  2  2  2  2
CENTRE ASSIGNMENTS    2  2  2  2  2  2  2  2  2  2  2  2  2  2  2  2  3  3  3  3
CENTRE ASSIGNMENTS    3  3  3  3  3  3  3  3  3  3  3  3  3  3  3  3  3  3  3  3
CENTRE ASSIGNMENTS    3  3  3  3  4  4  4  4  4  4  4  4  4  4  4  4  4  4  4  4
CENTRE ASSIGNMENTS    4  4  4  4  4  4  4  4  4  4  4  4  5  5  5  5  5  5  5  5
CENTRE ASSIGNMENTS    5  5  5  5  5  5  5  5  5  5  5  5  5  5  5  5  5  5  5  5
CENTRE ASSIGNMENTS    6  6  6  6  6  6  6  6  6  6  6  6  6  6  6  6  6  6  6  6
CENTRE ASSIGNMENTS    6  6  6  6  6  6  6  6  7  7  7  7  8  8  8  8  9  9  9  9
CENTRE ASSIGNMENTS    9  9  9  9  9  9  9  9  9  9  9  9  9  9  9  9  9  9  9  9
CENTRE ASSIGNMENTS    9  9  9  9 10 10 10 10 10 10 10 10 10 10 10 10 10 10 10 10
CENTRE ASSIGNMENTS   10 10 10 10 10 10 10 10 10 10 10 10 11 11 11 11 12 12 12 12
CENTRE ASSIGNMENTS   12 12 12 12 12 12 12 12 12 12 12 12 12 12 12 12 12 12 12 12
CENTRE ASSIGNMENTS   12 12 12 12 13 13 13 13 14 14 14 14 15 15 15 15 16 16 16 16
CENTRE ASSIGNMENTS   16 16 16 16 16 16 16 16 16 16 16 16 16 16 16 16 16 16 16 16
CENTRE ASSIGNMENTS   16 16 16 16 17 17 17 17 18 18 18 18 19 19 19 19
TYPE ASSIGNMENTS      1  1  1  1  1  1  1  1  1  2  2  2  3  3  3  4  4  4  1  2
TYPE ASSIGNMENTS      3  4  5  6  7  8  9 10  1  1  1  1  1  1  1  1  1  2  2  2
TYPE ASSIGNMENTS      3  3  3  4  4  4  1  2  3  4  5  6  7  8  9 10  1  1  1  1
TYPE ASSIGNMENTS      1  1  1  1  1  2  2  2  3  3  3  4  4  4  1  2  3  4  5  6
TYPE ASSIGNMENTS      7  8  9 10  1  1  1  1  1  1  1  1  1  2  2  2  3  3  3  4
TYPE ASSIGNMENTS      4  4  1  2  3  4  5  6  7  8  9 10  1  1  1  1  1  1  1  1
TYPE ASSIGNMENTS      1  2  2  2  3  3  3  4  4  4  1  2  3  4  5  6  7  8  9 10
TYPE ASSIGNMENTS      1  1  1  1  1  1  1  1  1  2  2  2  3  3  3  4  4  4  1  2
TYPE ASSIGNMENTS      3  4  5  6  7  8  9 10  1  1  1  1  1  1  1  1  1  1  1  1
TYPE ASSIGNMENTS      1  1  1  1  1  2  2  2  3  3  3  4  4  4  1  2  3  4  5  6
TYPE ASSIGNMENTS      7  8  9 10  1  1  1  1  1  1  1  1  1  2  2  2  3  3  3  4
TYPE ASSIGNMENTS      4  4  1  2  3  4  5  6  7  8  9 10  1  1  1  1  1  1  1  1
TYPE ASSIGNMENTS      1  1  1  1  1  2  2  2  3  3  3  4  4  4  1  2  3  4  5  6
TYPE ASSIGNMENTS      7  8  9 10  1  1  1  1  1  1  1  1  1  1  1  1  1  1  1  1
TYPE ASSIGNMENTS      1  1  1  1  1  2  2  2  3  3  3  4  4  4  1  2  3  4  5  6
TYPE ASSIGNMENTS      7  8  9 10  1  1  1  1  1  1  1  1  1  1  1  1
EXPONENTS  0.3047525D+04 0.4573695D+03 0.1039487D+03 0.2921016D+02 0.9286663D+01
EXPONENTS  0.3163927D+01 0.7868272D+01 0.1881289D+01 0.5442493D+00 0.7868272D+01
EXPONENTS  0.1881289D+01 0.5442493D+00 0.7868272D+01 0.1881289D+01 0.5442493D+00
EXPONENTS  0.7868272D+01 0.1881289D+01 0.5442493D+00 0.1687145D+00 0.1687145D+00
EXPONENTS  0.1687145D+00 0.1687145D+00 0.8000000D+00 0.8000000D+00 0.8000000D+00
EXPONENTS  0.8000000D+00 0.8000000D+00 0.8000000D+00 0.3047525D+04 0.4573695D+03
EXPONENTS  0.1039487D+03 0.2921016D+02 0.9286663D+01 0.3163927D+01 0.7868272D+01
EXPONENTS  0.1881289D+01 0.5442493D+00 0.7868272D+01 0.1881289D+01 0.5442493D+00
EXPONENTS  0.7868272D+01 0.1881289D+01 0.5442493D+00 0.7868272D+01 0.1881289D+01
EXPONENTS  0.5442493D+00 0.1687145D+00 0.1687145D+00 0.1687145D+00 0.1687145D+00
EXPONENTS  0.8000000D+00 0.8000000D+00 0.8000000D+00 0.8000000D+00 0.8000000D+00
EXPONENTS  0.8000000D+00 0.3047525D+04 0.4573695D+03 0.1039487D+03 0.2921016D+02
EXPONENTS  0.9286663D+01 0.3163927D+01 0.7868272D+01 0.1881289D+01 0.5442493D+00
EXPONENTS  0.7868272D+01 0.1881289D+01 0.5442493D+00 0.7868272D+01 0.1881289D+01
EXPONENTS  0.5442493D+00 0.7868272D+01 0.1881289D+01 0.5442493D+00 0.1687145D+00
EXPONENTS  0.1687145D+00 0.1687145D+00 0.1687145D+00 0.8000000D+00 0.8000000D+00
EXPONENTS  0.8000000D+00 0.8000000D+00 0.8000000D+00 0.8000000D+00 0.3047525D+04
EXPONENTS  0.4573695D+03 0.1039487D+03 0.2921016D+02 0.9286663D+01 0.3163927D+01
EXPONENTS  0.7868272D+01 0.1881289D+01 0.5442493D+00 0.7868272D+01 0.1881289D+01
EXPONENTS  0.5442493D+00 0.7868272D+01 0.1881289D+01 0.5442493D+00 0.7868272D+01
EXPONENTS  0.1881289D+01 0.5442493D+00 0.1687145D+00 0.1687145D+00 0.1687145D+00
EXPONENTS  0.1687145D+00 0.8000000D+00 0.8000000D+00 0.8000000D+00 0.8000000D+00
EXPONENTS  0.8000000D+00 0.8000000D+00 0.3047525D+04 0.4573695D+03 0.1039487D+03
EXPONENTS  0.2921016D+02 0.9286663D+01 0.3163927D+01 0.7868272D+01 0.1881289D+01
EXPONENTS  0.5442493D+00 0.7868272D+01 0.1881289D+01 0.5442493D+00 0.7868272D+01
EXPONENTS  0.1881289D+01 0.5442493D+00 0.7868272D+01 0.1881289D+01 0.5442493D+00
EXPONENTS  0.1687145D+00 0.1687145D+00 0.1687145D+00 0.1687145D+00 0.8000000D+00
EXPONENTS  0.8000000D+00 0.8000000D+00 0.8000000D+00 0.8000000D+00 0.8000000D+00
EXPONENTS  0.3047525D+04 0.4573695D+03 0.1039487D+03 0.2921016D+02 0.9286663D+01
EXPONENTS  0.3163927D+01 0.7868272D+01 0.1881289D+01 0.5442493D+00 0.7868272D+01
EXPONENTS  0.1881289D+01 0.5442493D+00 0.7868272D+01 0.1881289D+01 0.5442493D+00
EXPONENTS  0.7868272D+01 0.1881289D+01 0.5442493D+00 0.1687145D+00 0.1687145D+00
EXPONENTS  0.1687145D+00 0.1687145D+00 0.8000000D+00 0.8000000D+00 0.8000000D+00
EXPONENTS  0.8000000D+00 0.8000000D+00 0.8000000D+00 0.1873114D+02 0.2825394D+01
EXPONENTS  0.6401217D+00 0.1612778D+00 0.1873114D+02 0.2825394D+01 0.6401217D+00
EXPONENTS  0.1612778D+00 0.5484672D+04 0.8252349D+03 0.1880470D+03 0.5296450D+02
EXPONENTS  0.1689757D+02 0.5799635D+01 0.1553962D+02 0.3599934D+01 0.1013762D+01
EXPONENTS  0.1553962D+02 0.3599934D+01 0.1013762D+01 0.1553962D+02 0.3599934D+01
EXPONENTS  0.1013762D+01 0.1553962D+02 0.3599934D+01 0.1013762D+01 0.2700058D+00
EXPONENTS  0.2700058D+00 0.2700058D+00 0.2700058D+00 0.8000000D+00 0.8000000D+00
EXPONENTS  0.8000000D+00 0.8000000D+00 0.8000000D+00 0.8000000D+00 0.5484672D+04
EXPONENTS  0.8252349D+03 0.1880470D+03 0.5296450D+02 0.1689757D+02 0.5799635D+01
EXPONENTS  0.1553962D+02 0.3599934D+01 0.1013762D+01 0.1553962D+02 0.3599934D+01
EXPONENTS  0.1013762D+01 0.1553962D+02 0.3599934D+01 0.1013762D+01 0.1553962D+02
EXPONENTS  0.3599934D+01 0.1013762D+01 0.2700058D+00 0.2700058D+00 0.2700058D+00
EXPONENTS  0.2700058D+00 0.8000000D+00 0.8000000D+00 0.8000000D+00 0.8000000D+00
EXPONENTS  0.8000000D+00 0.8000000D+00 0.1873114D+02 0.2825394D+01 0.6401217D+00
EXPONENTS  0.1612778D+00 0.3047525D+04 0.4573695D+03 0.1039487D+03 0.2921016D+02
EXPONENTS  0.9286663D+01 0.3163927D+01 0.7868272D+01 0.1881289D+01 0.5442493D+00
EXPONENTS  0.7868272D+01 0.1881289D+01 0.5442493D+00 0.7868272D+01 0.1881289D+01
EXPONENTS  0.5442493D+00 0.7868272D+01 0.1881289D+01 0.5442493D+00 0.1687145D+00
EXPONENTS  0.1687145D+00 0.1687145D+00 0.1687145D+00 0.8000000D+00 0.8000000D+00
EXPONENTS  0.8000000D+00 0.8000000D+00 0.8000000D+00 0.8000000D+00 0.1873114D+02
EXPONENTS  0.2825394D+01 0.6401217D+00 0.1612778D+00 0.1873114D+02 0.2825394D+01
EXPONENTS  0.6401217D+00 0.1612778D+00 0.1873114D+02 0.2825394D+01 0.6401217D+00
EXPONENTS  0.1612778D+00 0.3047525D+04 0.4573695D+03 0.1039487D+03 0.2921016D+02
EXPONENTS  0.9286663D+01 0.3163927D+01 0.7868272D+01 0.1881289D+01 0.5442493D+00
EXPONENTS  0.7868272D+01 0.1881289D+01 0.5442493D+00 0.7868272D+01 0.1881289D+01
EXPONENTS  0.5442493D+00 0.7868272D+01 0.1881289D+01 0.5442493D+00 0.1687145D+00
EXPONENTS  0.1687145D+00 0.1687145D+00 0.1687145D+00 0.8000000D+00 0.8000000D+00
EXPONENTS  0.8000000D+00 0.8000000D+00 0.8000000D+00 0.8000000D+00 0.1873114D+02
EXPONENTS  0.2825394D+01 0.6401217D+00 0.1612778D+00 0.1873114D+02 0.2825394D+01
EXPONENTS  0.6401217D+00 0.1612778D+00 0.1873114D+02 0.2825394D+01 0.6401217D+00
EXPONENTS  0.1612778D+00
MO    1     MO 0.0        OCC NO =    1.0000000  ORB. ENERGY =  -19.199587
 -0.16799111D-05 -0.30991080D-05 -0.50029212D-05 -0.65123168D-05 -0.55569718D-05
 -0.19186888D-05  0.16362138D-04  0.75412947D-05 -0.21146577D-04  0.10152563D-03
  0.77843410D-04  0.38849317D-04  0.14845849D-04  0.11382855D-04  0.56808426D-05
 -0.13651781D-08 -0.10467320D-08 -0.52239262D-09  0.31375023D-03  0.89906942D-04
  0.86623842D-04 -0.54968030D-08  0.61675236D-04 -0.47255510D-05  0.77873683D-05
 -0.15016979D-04 -0.29327471D-09  0.14411190D-08  0.11250903D-04  0.20755719D-04
  0.33506166D-04  0.43615073D-04  0.37216821D-04  0.12850074D-04 -0.81925574D-04
 -0.37759422D-04  0.10588136D-03 -0.98792081D-04 -0.75747502D-04 -0.37803312D-04
 -0.34834715D-04 -0.26709050D-04 -0.13329688D-04  0.34233842D-08  0.26248339D-08
  0.13099761D-08 -0.54982093D-03  0.20860846D-03 -0.25998349D-03  0.11611516D-07
 -0.91607550D-04 -0.79297234D-04  0.49353037D-04 -0.39599149D-04  0.45160435D-08
  0.14811859D-07 -0.20362376D-04 -0.37564607D-04 -0.60640924D-04 -0.78936465D-04
 -0.67356628D-04 -0.23256625D-04 -0.84177866D-04 -0.38797502D-04  0.10879224D-03
  0.55272799D-03  0.42379676D-03  0.21150429D-03  0.17607051D-03  0.13499970D-03
  0.67374310D-04 -0.13647993D-07 -0.10464415D-07 -0.52224766D-08 -0.15309982D-03
 -0.67288553D-03 -0.26651929D-03  0.19697353D-07 -0.10139216D-03 -0.65699185D-05
 -0.10038989D-03  0.17929556D-03 -0.86332805D-08 -0.11021253D-07  0.10525855D-04
  0.19418147D-04  0.31346910D-04  0.40804363D-04  0.34818437D-04  0.12021969D-04
 -0.60853196D-04 -0.28047183D-04  0.78647227D-04  0.47915799D-04  0.36738795D-04
  0.18335234D-04  0.57916642D-04  0.44406808D-04  0.22162109D-04 -0.33221518D-08
 -0.25472153D-08 -0.12712390D-08  0.15680212D-05  0.14778933D-03  0.19064442D-03
 -0.11571457D-07 -0.14647599D-05 -0.29088203D-04  0.30844329D-04  0.39493792D-04
 -0.88048768D-09  0.66210212D-08  0.83242702D-05  0.15356653D-04  0.24790400D-04
  0.32269735D-04  0.27535823D-04  0.95074579D-05 -0.24288001D-04 -0.11194317D-04
  0.31390035D-04  0.70452444D-04  0.54018466D-04  0.26959000D-04 -0.36061468D-04
 -0.27649646D-04 -0.13799111D-04  0.33423382D-09  0.25626929D-09  0.12789634D-09
  0.13351437D-03  0.10757461D-05 -0.30704895D-04  0.17485113D-08  0.44741206D-05
  0.32618959D-04  0.52590648D-04  0.29678980D-04 -0.18606203D-08  0.20123552D-08
  0.49341812D-05  0.91026009D-05  0.14694420D-04  0.19127769D-04  0.16321760D-04
  0.56355115D-05 -0.19764132D-04 -0.91092704D-05  0.25543345D-04  0.35776545D-04
  0.27431185D-04  0.13690084D-04  0.22944856D-04  0.17592660D-04  0.87799703D-05
 -0.12324740D-08 -0.94498292D-09 -0.47161271D-09 -0.11949926D-03 -0.94525515D-04
 -0.13254741D-04  0.18975600D-08  0.17267001D-04 -0.30703040D-04  0.27142013D-04
  0.20316918D-04 -0.12663495D-08  0.64133732D-08  0.25366253D-05  0.43025966D-05
  0.48983541D-05  0.18916081D-04  0.40754336D-06  0.69127067D-06  0.78698723D-06
 -0.10365870D-04  0.26695609D-04  0.49134172D-04  0.79508365D-04  0.10451597D-03
  0.89642741D-04  0.30650376D-04 -0.16217102D-03 -0.72360395D-04  0.21368121D-03
  0.13660878D-03  0.10524970D-03  0.46210286D-04 -0.14727599D-03 -0.11346821D-03
 -0.49818654D-04  0.49895712D-08  0.38441956D-08  0.16878089D-08 -0.43984794D-03
  0.15707110D-04  0.10845270D-03 -0.48920774D-08  0.23598091D-03  0.19075008D-03
  0.25084178D-03 -0.12509281D-04  0.78267928D-09  0.52281262D-08  0.82556401D+00
  0.15194785D+01  0.24588030D+01  0.32321654D+01  0.27722095D+01  0.94786550D+00
 -0.15747767D-01 -0.70266228D-02  0.20749711D-01 -0.10720951D-02 -0.82599150D-03
 -0.36265476D-03 -0.29178059D-02 -0.22480121D-02 -0.98699842D-03  0.15094136D-06
  0.11629218D-06  0.51058530D-07  0.41623863D-02 -0.33902166D-03 -0.26049460D-04
  0.40305093D-08 -0.94276706D-02 -0.96027272D-02 -0.94028120D-02  0.17052678D-03
 -0.73469291D-08  0.18178413D-07 -0.17564484D-04 -0.29792688D-04 -0.33917923D-04
 -0.11721048D-03  0.23268009D-05  0.42924934D-05  0.69294153D-05  0.90200398D-05
  0.76968163D-05  0.26575257D-05 -0.91195209D-05 -0.42031788D-05  0.11786152D-04
 -0.15830114D-04 -0.12137527D-04 -0.60574767D-05  0.72102794D-05  0.55283849D-05
  0.27590515D-05 -0.21773269D-08 -0.16694362D-08 -0.83316565D-09 -0.60376715D-04
 -0.16294323D-04 -0.86970635D-05  0.33639513D-08 -0.34576152D-05  0.10214264D-04
  0.30507516D-05 -0.10801559D-04 -0.68056268D-10  0.11885330D-07  0.24878412D-05
  0.42198496D-05  0.48041496D-05  0.33983252D-05  0.24897103D-05  0.42230199D-05
  0.48077589D-05  0.34025892D-05 -0.45925445D-06 -0.77898247D-06 -0.88684401D-06
  0.22016150D-05  0.69685596D-05  0.12855632D-04  0.20752976D-04  0.27014208D-04
  0.23051273D-04  0.79590505D-05 -0.77286627D-04 -0.35621336D-04  0.99885943D-04
 -0.27828575D-03 -0.21337186D-03 -0.10648751D-03  0.46913914D-03  0.35970614D-03
  0.17951857D-03 -0.19421877D-07 -0.14891463D-07 -0.74318839D-08 -0.31994058D-03
  0.57729060D-04 -0.11115606D-03  0.47603228D-08  0.16706770D-03  0.35154570D-03
  0.22928920D-04 -0.44251657D-03  0.18559294D-07 -0.26190643D-07  0.14196510D-04
  0.24079968D-04  0.27414192D-04  0.14320975D-04  0.25559870D-04  0.43354378D-04
  0.49357427D-04  0.18481432D-04  0.14196684D-04  0.24080262D-04  0.27414527D-04
  0.14320618D-04
MO    2     MO 0.0        OCC NO =    1.0000000  ORB. ENERGY =  -19.123853
  0.12319623D-04  0.22727299D-04  0.36688908D-04  0.47758057D-04  0.40752036D-04
  0.14070699D-04 -0.47535582D-04 -0.21909106D-04  0.61435421D-04  0.14568981D-05
  0.11170570D-05  0.55748975D-06  0.43396757D-04  0.33273881D-04  0.16605998D-04
 -0.21366675D-08 -0.16382611D-08 -0.81760713D-09 -0.38187560D-03 -0.10683564D-03
 -0.17968387D-03  0.10255274D-07 -0.26672569D-04  0.20083443D-04  0.53811993D-04
  0.43239093D-04 -0.62532499D-09  0.32283295D-08 -0.39866024D-05 -0.73545030D-05
 -0.11872448D-04 -0.15454400D-04 -0.13187268D-04 -0.45532466D-05  0.26300572D-04
  0.12121910D-04 -0.33991100D-04  0.31723062D-04  0.24323231D-04  0.12138997D-04
  0.12569838D-03  0.96377547D-04  0.48099151D-04 -0.81253238D-08 -0.62299829D-08
 -0.31091981D-08  0.64220850D-03 -0.13715262D-03  0.26034886D-03 -0.12322047D-07
  0.16164079D-04  0.40585875D-04  0.79067356D-05  0.26456212D-04 -0.35144676D-08
 -0.36421813D-08  0.29446736D-04  0.54323478D-04  0.87694937D-04  0.11415275D-03
  0.97406749D-04  0.33632210D-04 -0.12236132D-03 -0.56396221D-04  0.15814089D-03
  0.29496240D-04  0.22615846D-04  0.11286892D-04 -0.49750680D-04 -0.38145666D-04
 -0.19037361D-04  0.19320662D-08  0.14813858D-08  0.73931533D-09 -0.67202298D-03
  0.67518808D-03  0.15880522D-03 -0.12286951D-07  0.10405148D-03 -0.39259425D-04
  0.79658394D-04  0.44120891D-04 -0.46555616D-08  0.13112991D-07 -0.49410349D-04
 -0.91152446D-04 -0.14714831D-03 -0.19154338D-03 -0.16344431D-03 -0.56433393D-04
 -0.61713964D-04 -0.28443909D-04  0.79759691D-04  0.84457208D-04  0.64756430D-04
  0.32317997D-04  0.16399575D-03  0.12574154D-03  0.62753841D-04 -0.84484822D-08
 -0.64777603D-08 -0.32328564D-08 -0.98192632D-04 -0.54190023D-03 -0.11452207D-02
  0.64759385D-07 -0.28006562D-03 -0.87198143D-03 -0.22184717D-03 -0.68583096D-03
  0.33530601D-07  0.66845283D-07  0.16220229D-04  0.29923155D-04  0.48305250D-04
  0.62879083D-04  0.53654835D-04  0.18525725D-04 -0.10094138D-03 -0.46523791D-04
  0.13045757D-03 -0.50929406D-04 -0.39049438D-04 -0.19488406D-04 -0.67478728D-04
 -0.51738409D-04 -0.25821092D-04  0.23073386D-08  0.17691209D-08  0.88291531D-09
 -0.78902607D-03 -0.21028749D-03  0.46428991D-03 -0.22291641D-07 -0.69527246D-04
 -0.80738542D-04  0.59365152D-04 -0.71651100D-04  0.88928987D-08  0.13817811D-07
 -0.55554137D-05 -0.10248654D-04 -0.16544505D-04 -0.21536029D-04 -0.18376733D-04
 -0.63450442D-05  0.38088730D-04  0.17555061D-04 -0.49226222D-04  0.75599317D-04
  0.57964761D-04  0.28928478D-04  0.98030837D-04  0.75163828D-04  0.37512018D-04
 -0.73583097D-08 -0.56418851D-08 -0.28156961D-08  0.61336182D-03  0.20188570D-03
  0.11095725D-03 -0.83440770D-08  0.15824215D-04  0.77413025D-04  0.23334093D-05
  0.35530585D-04 -0.44202511D-08 -0.91592732D-08 -0.10953236D-04 -0.18578761D-04
 -0.21151262D-04 -0.59911134D-04 -0.24318994D-04 -0.41249617D-04 -0.46961230D-04
 -0.17410228D-03  0.82552193D+00  0.15194010D+01  0.24586777D+01  0.32320006D+01
  0.27720681D+01  0.94781718D+00 -0.15661356D-01 -0.69880664D-02  0.20635854D-01
 -0.14011447D-02 -0.10795064D-02 -0.47396147D-03 -0.30470524D-02 -0.23475896D-02
 -0.10307183D-02  0.16708088D-06  0.12872681D-06  0.56518004D-07  0.47808504D-02
 -0.29425246D-03 -0.63122310D-03  0.32240120D-07 -0.95497304D-02 -0.91351257D-02
 -0.94903773D-02  0.48590354D-03 -0.24941729D-07 -0.37812558D-07  0.96574416D-04
  0.17774848D-03  0.28763059D-03  0.37809846D-03  0.32429286D-03  0.11088124D-03
 -0.21622079D-03 -0.96477297D-04  0.28489875D-03 -0.14586482D-03 -0.11238098D-03
 -0.49341303D-04  0.11476191D-03  0.88417863D-04  0.38820204D-04 -0.62115225D-09
 -0.47856433D-09 -0.21011552D-09 -0.65432791D-03  0.23070879D-03 -0.80976716D-06
 -0.36900546D-08  0.18875625D-03  0.30393688D-03  0.26264317D-03 -0.95184557D-04
  0.74645170D-08 -0.28924633D-08  0.78112651D-05  0.13249384D-04  0.15083955D-04
  0.85238523D-04  0.65646054D-05  0.12110415D-04  0.19549965D-04  0.25448246D-04
  0.21715034D-04  0.74976795D-05 -0.21799938D-04 -0.10047572D-04  0.28174439D-04
  0.76791852D-05  0.58879121D-05  0.29384808D-05  0.28200557D-05  0.21622399D-05
  0.10791092D-05  0.68648609D-09  0.52635399D-09  0.26268753D-09 -0.21808978D-05
 -0.14380841D-05 -0.18346052D-04 -0.11522065D-08 -0.12051119D-05  0.29844133D-04
  0.20102410D-04 -0.31339564D-04 -0.32724633D-09  0.15097335D-07  0.30002157D-05
  0.50889338D-05  0.57935712D-05  0.71800854D-05  0.30012011D-05  0.50906052D-05
  0.57954741D-05  0.71837042D-05  0.63690354D-06  0.10803089D-05  0.12298936D-05
 -0.44444915D-05  0.79132407D-05  0.14598384D-04  0.23566318D-04  0.30676344D-04
  0.26176180D-04  0.90380059D-05 -0.33860563D-04 -0.15606303D-04  0.43761701D-04
 -0.23941488D-04 -0.18356815D-04 -0.91613371D-05 -0.14072792D-04 -0.10790124D-04
 -0.53850281D-05  0.10916946D-08  0.83704220D-09  0.41774272D-09 -0.62890016D-04
  0.38762760D-04 -0.17066201D-04  0.69225550D-09  0.68292879D-06 -0.12711982D-04
  0.28689158D-04  0.66153447D-04 -0.32106269D-08  0.39609720D-08  0.59455105D-05
  0.10084711D-04  0.11481087D-04 -0.56403505D-05 -0.94124964D-06 -0.15965375D-05
 -0.18176016D-05 -0.94913870D-05  0.59456051D-05  0.10084872D-04  0.11481270D-04
 -0.56409704D-05
MO    3     MO 0.0        OCC NO =    1.0000000  ORB. ENERGY =  -10.262657
  0.25283977D-04  0.46644001D-04  0.75297880D-04  0.98015467D-04  0.83636776D-04
  0.28877769D-04 -0.74187700D-04 -0.34193043D-04  0.95880862D-04 -0.18174425D-03
 -0.13934996D-03 -0.69545399D-04 -0.58077147D-04 -0.44529873D-04 -0.22223527D-04
  0.51169656D-08  0.39233647D-08  0.19580339D-08 -0.13399646D-02 -0.33822022D-03
 -0.48113838D-03  0.28216031D-07  0.29009330D-04  0.40351584D-04  0.31101356D-04
  0.59350358D-04 -0.29181515D-08 -0.18865382D-08  0.22793756D-02  0.42050029D-02
  0.67881785D-02  0.88361915D-02  0.75399382D-02  0.26033595D-02  0.27425921D-03
  0.12640582D-03 -0.35445512D-03  0.34573960D-04  0.26509120D-04  0.13229909D-04
 -0.37314099D-03 -0.28610084D-03 -0.14278437D-03  0.17601393D-07  0.13495632D-07
  0.67352660D-08  0.25032813D-02 -0.53200059D-03  0.10285408D-02 -0.49072921D-07
 -0.34924871D-03 -0.37476321D-03 -0.37987709D-03 -0.27594737D-03  0.12654125D-07
  0.35101791D-09  0.53249177D+00  0.98234334D+00  0.15858067D+01  0.20642492D+01
  0.17614276D+01  0.60817861D+00 -0.19965041D-01 -0.92018692D-02  0.25803002D-01
  0.13729604D-02  0.10526989D-02  0.52537054D-03  0.19648408D-04  0.15065153D-04
  0.75185671D-05 -0.19591106D-07 -0.15021217D-07 -0.74966403D-08 -0.33774369D-02
  0.16646980D-02  0.39969668D-03 -0.32925132D-07 -0.94351234D-02 -0.10316129D-01
 -0.10483535D-01  0.48607658D-03 -0.45793399D-07 -0.20685893D-07  0.56331379D-02
  0.10392039D-01  0.16775974D-01  0.21837333D-01  0.18633836D-01  0.64338158D-02
  0.73554283D-04  0.33901102D-04 -0.95062228D-04 -0.15967782D-03 -0.12243083D-03
 -0.61101563D-04  0.22260150D-03  0.17067671D-03  0.85179642D-04 -0.11490618D-07
 -0.88102773D-08 -0.43969458D-08  0.15894988D-02 -0.29137425D-03 -0.10319173D-02
  0.60585494D-07 -0.63855088D-03 -0.46023415D-03 -0.45037551D-03  0.33042565D-03
 -0.18688691D-07 -0.24946894D-08  0.21366146D-04  0.39416367D-04  0.63630238D-04
  0.82827664D-04  0.70676996D-04  0.24403068D-04 -0.33452988D-04 -0.15418452D-04
  0.43234948D-04 -0.17562672D-03 -0.13465943D-03 -0.67204493D-04  0.62879657D-04
  0.48212132D-04  0.24061233D-04 -0.93400782D-09 -0.71613795D-09 -0.35740303D-09
 -0.11488833D-02 -0.23507352D-03  0.45010598D-03 -0.22803217D-07  0.68404668D-04
 -0.13798312D-04 -0.12162591D-04  0.30013376D-05  0.51403865D-09 -0.13585181D-08
 -0.64242818D-04 -0.11851545D-03 -0.19132069D-03 -0.24904269D-03 -0.21250858D-03
 -0.73374106D-04  0.13631002D-03  0.62825166D-04 -0.17616832D-03 -0.15271739D-03
 -0.11709401D-03 -0.58438117D-04 -0.38428312D-04 -0.29464392D-04 -0.14704797D-04
  0.22484914D-08  0.17240006D-08  0.86039713D-09  0.97965400D-03  0.63166838D-03
  0.12727197D-03 -0.14827783D-07 -0.34561180D-04  0.58680973D-04 -0.13778033D-03
 -0.16785532D-04 -0.13365865D-08 -0.21789232D-07 -0.18529738D-04 -0.31429944D-04
 -0.35781880D-04 -0.11368405D-03 -0.20187088D-04 -0.34241122D-04 -0.38982307D-04
 -0.92995879D-04 -0.84193590D-04 -0.15496115D-03 -0.25075639D-03 -0.32962630D-03
 -0.28271856D-03 -0.96666277D-04  0.29122578D-03  0.12994438D-03 -0.38372748D-03
  0.43041471D-04  0.33161133D-04  0.14559523D-04 -0.24044508D-04 -0.18524997D-04
 -0.81334716D-05  0.64221811D-08  0.49479443D-08  0.21724141D-08  0.88168547D-03
 -0.11760828D-03 -0.11172339D-03  0.33905334D-08 -0.28335688D-03 -0.25764573D-03
 -0.31701118D-03  0.23555526D-04  0.29947226D-09 -0.34770590D-08  0.10856047D-03
  0.19980922D-03  0.32332903D-03  0.42502506D-03  0.36454153D-03  0.12464294D-03
 -0.69895492D-03 -0.31187232D-03  0.92096315D-03 -0.11916134D-03 -0.91807386D-04
 -0.40308388D-04  0.49727915D-04  0.38312678D-04  0.16821329D-04  0.86458966D-09
  0.66611972D-09  0.29246244D-09 -0.17546384D-02  0.93707502D-03  0.12104298D-03
 -0.15061681D-07 -0.48879214D-03  0.73324816D-03  0.95211379D-03 -0.39916633D-03
  0.45027562D-07  0.25551427D-07  0.42873169D-04  0.72721009D-04  0.82790298D-04
  0.31421410D-03 -0.54090169D-05 -0.99785799D-05 -0.16108522D-04 -0.20968509D-04
 -0.17892467D-04 -0.61778389D-05  0.25785133D-04  0.11884344D-04 -0.33324942D-04
  0.87342220D-04  0.66968475D-04  0.33421962D-04  0.12306844D-06  0.94361076D-07
  0.47092790D-07  0.85291891D-08  0.65396412D-08  0.32637393D-08  0.30468038D-03
  0.88477699D-04  0.61971248D-05 -0.16336468D-07  0.17023019D-04 -0.52869889D-05
 -0.41479555D-05  0.35852916D-05 -0.33769225D-08 -0.11335898D-07 -0.66430360D-05
 -0.11267846D-04 -0.12828045D-04 -0.55909900D-05 -0.66461370D-05 -0.11273106D-04
 -0.12834033D-04 -0.56039027D-05 -0.37369208D-05 -0.63385249D-05 -0.72161866D-05
 -0.17608932D-04 -0.94369690D-04 -0.17409365D-03 -0.28104113D-03 -0.36583205D-03
 -0.31216515D-03 -0.10778312D-03  0.52631514D-04  0.24257816D-04 -0.68021449D-04
 -0.24034584D-04 -0.18428194D-04 -0.91969605D-05  0.26062398D-04  0.19982994D-04
  0.99729143D-05 -0.16399767D-09 -0.12574301D-09 -0.62754575D-10 -0.23211316D-04
 -0.80526009D-04 -0.75226628D-04  0.40814726D-08  0.17432418D-03 -0.97092178D-04
  0.60981941D-04 -0.18276864D-03  0.81018515D-08  0.18767020D-07 -0.17395036D-04
 -0.29505274D-04 -0.33590711D-04 -0.23798171D-04  0.20708631D-04  0.35125757D-04
  0.39989433D-04  0.38978577D-04 -0.17394513D-04 -0.29504386D-04 -0.33589700D-04
 -0.23797924D-04
MO    4     MO 0.0        OCC NO =    1.0000000  ORB. ENERGY =  -10.252099
 -0.26011548D-04 -0.47986227D-04 -0.77464649D-04 -0.10083596D-03 -0.86043504D-04
 -0.29708754D-04  0.67475959D-04  0.31099608D-04 -0.87206547D-04  0.13893860D-04
  0.10652931D-04  0.53165590D-05 -0.49620236D-04 -0.38045650D-04 -0.18987446D-04
  0.43832177D-08  0.33607733D-08  0.16772614D-08  0.20302254D-03  0.67155005D-04
  0.85353009D-04 -0.56535308D-08  0.56464805D-04 -0.22591681D-04 -0.80932178D-04
  0.12380813D-04 -0.34247838D-08 -0.58332358D-08  0.28381213D-05  0.52357796D-05
  0.84521716D-05  0.11002216D-04  0.93882109D-05  0.32415236D-05 -0.37447121D-04
 -0.17259344D-04  0.48397001D-04 -0.16084038D-03 -0.12332220D-03 -0.61546421D-04
 -0.39732421D-04 -0.30464300D-04 -0.15203821D-04  0.23228606D-08  0.17810222D-08
  0.88885490D-09 -0.34477061D-03 -0.56061716D-05 -0.29853449D-04  0.21136856D-08
 -0.11242103D-03  0.30712980D-04 -0.72761759D-05 -0.11541767D-03  0.68941251D-08
 -0.25234337D-08  0.90131268D-04  0.16627459D-03  0.26841874D-03  0.34940145D-03
  0.29814489D-03  0.10294227D-03  0.56949516D-04  0.26247980D-04 -0.73602075D-04
 -0.10533614D-03 -0.80765071D-04 -0.40307431D-04  0.20364909D-03  0.15614521D-03
  0.77927402D-04 -0.95834649D-08 -0.73479930D-08 -0.36671635D-08 -0.12276904D-03
  0.41034271D-03 -0.44071597D-03  0.20380201D-07  0.23846183D-03  0.37500185D-04
 -0.60630633D-04  0.95934457D-04 -0.12730763D-07 -0.82624854D-08 -0.20673796D-03
 -0.38139118D-03 -0.61568361D-03 -0.80143713D-03 -0.68386775D-03 -0.23612310D-03
  0.11627062D-03  0.53589024D-04 -0.15026922D-03  0.10381803D-03  0.79601082D-04
  0.39726519D-04 -0.30715462D-04 -0.23550668D-04 -0.11753434D-04  0.82954838D-09
  0.63604508D-09  0.31743107D-09  0.57230910D-03  0.39960167D-05 -0.41037981D-03
  0.23191391D-07 -0.75447527D-07 -0.41895393D-04 -0.91231588D-04 -0.57619873D-04
  0.25603309D-08 -0.68108311D-08  0.72357912D-05  0.13348622D-04  0.21548815D-04
  0.28050154D-04  0.23935247D-04  0.82642657D-05 -0.28594146D-04 -0.13179016D-04
  0.36955336D-04 -0.85081530D-04 -0.65235121D-04 -0.32556897D-04 -0.37453997D-04
 -0.28717350D-04 -0.14331970D-04  0.57770308D-09  0.44294608D-09  0.22106114D-09
 -0.25381764D-03 -0.37782794D-04  0.15716110D-03 -0.74926329D-08 -0.33614253D-04
  0.13346982D-04  0.17341009D-04  0.26194714D-04 -0.13507813D-09 -0.15313159D-08
 -0.95803110D-06 -0.17673803D-05 -0.28530998D-05 -0.37138882D-05 -0.31690676D-05
 -0.10942029D-05  0.27078508D-05  0.12480460D-05 -0.34996511D-05 -0.57565080D-05
 -0.44137252D-05 -0.22027582D-05  0.51929863D-04  0.39816525D-04  0.19871237D-04
 -0.29408322D-08 -0.22548436D-08 -0.11253250D-08  0.85281985D-04  0.82138783D-05
  0.82912945D-04 -0.54293730D-08 -0.15938101D-04  0.11331573D-04 -0.49322767D-05
  0.48538561D-04 -0.10911957D-08 -0.14875660D-08  0.27317695D-05  0.46335981D-05
  0.52751877D-05  0.38433464D-04 -0.10782109D-04 -0.18288498D-04 -0.20820808D-04
 -0.35208707D-04 -0.38651670D-04 -0.71139706D-04 -0.11511747D-03 -0.15132514D-03
 -0.12979069D-03 -0.44377642D-04  0.13358527D-03  0.59605488D-04 -0.17601580D-03
  0.10091046D-03  0.77746067D-04  0.34134711D-04 -0.19421118D-04 -0.14962925D-04
 -0.65695298D-05  0.26513565D-08  0.20427273D-08  0.89686730D-09  0.38449795D-03
 -0.79881542D-04 -0.57548557D-04  0.23129625D-08 -0.11671603D-03 -0.13289860D-03
 -0.14221869D-03  0.41366121D-04 -0.10806501D-08 -0.53098940D-09 -0.49432510D-04
 -0.90982207D-04 -0.14722639D-03 -0.19353320D-03 -0.16599230D-03 -0.56755588D-04
 -0.61737626D-04 -0.27547208D-04  0.81347276D-04 -0.15962896D-03 -0.12298551D-03
 -0.53997262D-04 -0.15045417D-03 -0.11591683D-03 -0.50893732D-04  0.10965353D-07
  0.84482130D-08  0.37092206D-08  0.13814582D-03  0.10405801D-03  0.23597520D-03
 -0.13316870D-07 -0.35916529D-03 -0.51622570D-03  0.17539540D-03  0.62768605D-03
 -0.17430082D-07  0.59769854D-07  0.66742404D-05  0.11320775D-04  0.12888302D-04
  0.36907940D-04 -0.33583737D-05 -0.61955437D-05 -0.10001528D-04 -0.13019018D-04
 -0.11109152D-04 -0.38357232D-05  0.57361330D-05  0.26437784D-05 -0.74134307D-05
 -0.10953125D-04 -0.83981615D-05 -0.41912712D-05  0.85693866D-05  0.65704621D-05
  0.32791211D-05 -0.33060084D-08 -0.25348376D-08 -0.12650616D-08  0.86976486D-05
  0.74479298D-05 -0.24204134D-04  0.38175765D-08  0.93866033D-06  0.18055284D-05
 -0.20740495D-04 -0.35705399D-04 -0.36271840D-08  0.27225255D-07  0.15769810D-05
  0.26748582D-05  0.30452315D-05  0.40593627D-05  0.15803550D-05  0.26805812D-05
  0.30517470D-05  0.40706096D-05 -0.44300954D-05 -0.75142803D-05 -0.85547425D-05
 -0.65076004D-05  0.53255311D+00  0.98245651D+00  0.15859894D+01  0.20644870D+01
  0.17616305D+01  0.60824867D+00 -0.19727738D-01 -0.90924963D-02  0.25496309D-01
 -0.98929105D-03 -0.75852563D-03 -0.37855745D-03  0.81078391D-03  0.62165767D-03
  0.31025075D-03 -0.26531578D-07 -0.20342731D-07 -0.10152448D-07 -0.26315238D-02
  0.11600786D-03  0.58954861D-04 -0.44170800D-08 -0.10014440D-01 -0.99537734D-02
 -0.10151001D-01 -0.21843388D-03  0.63785588D-08 -0.17963452D-07 -0.95260108D-05
 -0.16157917D-04 -0.18395218D-04  0.48480153D-03 -0.44268382D-04 -0.75087555D-04