 Entering Link 1 = D:\Gaussian\G16W\l1.exe PID=     45608.
  
 Copyright (c) 1988,1990,1992,1993,1995,1998,2003,2009,2016,
            Gaussian, Inc.  All Rights Reserved.
  
 This is part of the Gaussian(R) 16 program.  It is based on
 the Gaussian(R) 09 system (copyright 2009, Gaussian, Inc.),
 the Gaussian(R) 03 system (copyright 2003, Gaussian, Inc.),
 the Gaussian(R) 98 system (copyright 1998, Gaussian, Inc.),
 the Gaussian(R) 94 system (copyright 1995, Gaussian, Inc.),
 the Gaussian 92(TM) system (copyright 1992, Gaussian, Inc.),
 the Gaussian 90(TM) system (copyright 1990, Gaussian, Inc.),
 the Gaussian 88(TM) system (copyright 1988, Gaussian, Inc.),
 the Gaussian 86(TM) system (copyright 1986, Carnegie Mellon
 University), and the Gaussian 82(TM) system (copyright 1983,
 Carnegie Mellon University). Gaussian is a federally registered
 trademark of Gaussian, Inc.
  
 This software contains proprietary and confidential information,
 including trade secrets, belonging to Gaussian, Inc.
  
 This software is provided under written license and may be
 used, copied, transmitted, or stored only in accord with that
 written license.
  
 The following legend is applicable only to US Government
 contracts under FAR:
  
                    RESTRICTED RIGHTS LEGEND
  
 Use, reproduction and disclosure by the US Government is
 subject to restrictions as set forth in subparagraphs (a)
 and (c) of the Commercial Computer Software - Restricted
 Rights clause in FAR 52.227-19.
  
 Gaussian, Inc.
 340 Quinnipiac St., Bldg. 40, Wallingford CT 06492
  
  
 ---------------------------------------------------------------
 Warning -- This program may not be used in any manner that
 competes with the business of Gaussian, Inc. or will provide
 assistance to any competitor of Gaussian, Inc.  The licensee
 of this program is prohibited from giving any competitor of
 Gaussian, Inc. access to this program.  By using this program,
 the user acknowledges that Gaussian, Inc. is engaged in the
 business of creating and licensing software in the field of
 computational chemistry and represents and warrants to the
 licensee that it is not a competitor of Gaussian, Inc. and that
 it will not use this program in any manner prohibited above.
 ---------------------------------------------------------------
  

 Cite this work as:
 Gaussian 16, Revision A.03,
 M. J. Frisch, G. W. Trucks, H. B. Schlegel, G. E. Scuseria, 
 M. A. Robb, J. R. Cheeseman, G. Scalmani, V. Barone, 
 G. A. Petersson, H. Nakatsuji, X. Li, M. Caricato, A. V. Marenich, 
 J. Bloino, B. G. Janesko, R. Gomperts, B. Mennucci, H. P. Hratchian, 
 J. V. Ortiz, A. F. Izmaylov, J. L. Sonnenberg, D. Williams-Young, 
 F. Ding, F. Lipparini, F. Egidi, J. Goings, B. Peng, A. Petrone, 
 T. Henderson, D. Ranasinghe, V. G. Zakrzewski, J. Gao, N. Rega, 
 G. Zheng, W. Liang, M. Hada, M. Ehara, K. Toyota, R. Fukuda, 
 J. Hasegawa, M. Ishida, T. Nakajima, Y. Honda, O. Kitao, H. Nakai, 
 T. Vreven, K. Throssell, J. A. Montgomery, Jr., J. E. Peralta, 
 F. Ogliaro, M. J. Bearpark, J. J. Heyd, E. N. Brothers, K. N. Kudin, 
 V. N. Staroverov, T. A. Keith, R. Kobayashi, J. Normand, 
 K. Raghavachari, A. P. Rendell, J. C. Burant, S. S. Iyengar, 
 J. Tomasi, M. Cossi, J. M. Millam, M. Klene, C. Adamo, R. Cammi, 
 J. W. Ochterski, R. L. Martin, K. Morokuma, O. Farkas, 
 J. B. Foresman, and D. J. Fox, Gaussian, Inc., Wallingford CT, 2016.
 
 ******************************************
 Gaussian 16:  EM64W-G16RevA.03 17-Dec-2016
                02-Dec-2025 
 ******************************************
 %nprocshared=14
 Will use up to   14 processors via shared memory.
 %mem=80GB
 %chk=SR-12.chk
 ---------------------------------------------------------
 # ub3lyp/6-311g(d,p) geom=connectivity temperature=823.15
 ---------------------------------------------------------
 1/38=1,57=2,112=823150,172=1/1;
 2/12=2,17=6,18=5,40=1/2;
 3/5=4,6=6,7=101,11=2,25=1,30=1,74=-5,116=2/1,2,3;
 4//1;
 5/5=2,38=5/2;
 6/7=2,8=2,9=2,10=2,28=1/1;
 99/5=1,9=1/99;
 -------------------
 Title Card Required
 -------------------
 Symbolic Z-matrix:
 Charge =  0 Multiplicity = 2
 C                    -1.06444  -1.38603   0.00008 
 C                     0.32928  -1.28162   0.00006 
 C                     0.9326   -0.03151  -0.00001 
 C                     0.10642   1.1924   -0.00008 
 C                    -1.32721   0.99404  -0.00005 
 C                    -1.91156  -0.25101   0.00003 
 H                    -1.51086  -2.37479   0.00013 
 H                    -1.92138   1.90179  -0.0001 
 O                     0.62438   2.32175  -0.00014 
 O                     2.25215   0.1967   -0.00004 
 H                     0.92207  -2.1868    0.0001 
 C                    -3.41371  -0.41619   0.00009 
 H                    -3.86209   0.05147   0.88127 
 H                    -3.86225   0.05219  -0.8806 
 H                    -3.69959  -1.46985  -0.00031 
 C                     3.143    -0.91521   0.00001 
 H                     3.00585  -1.53099  -0.89479 
 H                     4.14375  -0.48898  -0.00003 
 H                     3.00587  -1.5309    0.89487 
 
                          Input orientation:                          
 ---------------------------------------------------------------------
 Center     Atomic      Atomic             Coordinates (Angstroms)
 Number     Number       Type             X           Y           Z
 ---------------------------------------------------------------------
      1          6           0       -1.064436   -1.386031    0.000079
      2          6           0        0.329283   -1.281622    0.000060
      3          6           0        0.932599   -0.031513   -0.000012
      4          6           0        0.106420    1.192404   -0.000075
      5          6           0       -1.327212    0.994037   -0.000048
      6          6           0       -1.911560   -0.251005    0.000029
      7          1           0       -1.510859   -2.374785    0.000134
      8          1           0       -1.921378    1.901794   -0.000096
      9          8           0        0.624382    2.321746   -0.000136
     10          8           0        2.252154    0.196704   -0.000035
     11          1           0        0.922065   -2.186796    0.000099
     12          6           0       -3.413706   -0.416188    0.000094
     13          1           0       -3.862088    0.051466    0.881265
     14          1           0       -3.862249    0.052194   -0.880603
     15          1           0       -3.699587   -1.469847   -0.000308
     16          6           0        3.143003   -0.915209    0.000009
     17          1           0        3.005848   -1.530988   -0.894788
     18          1           0        4.143749   -0.488980   -0.000026
     19          1           0        3.005873   -1.530898    0.894871
 ---------------------------------------------------------------------
                    Distance matrix (angstroms):
                    1          2          3          4          5
     1  C    0.000000
     2  C    1.397624   0.000000
     3  C    2.413062   1.388079   0.000000
     4  C    2.831825   2.484044   1.476667   0.000000
     5  C    2.394530   2.814711   2.481632   1.447291   0.000000
     6  C    1.416299   2.466485   2.852616   2.481063   1.375352
     7  H    1.084863   2.140357   3.385471   3.916686   3.373824
     8  H    3.397667   3.898668   3.447153   2.148301   1.084922
     9  O    4.074275   3.615431   2.373357   1.242456   2.360409
    10  O    3.674890   2.425465   1.339145   2.365501   3.667097
    11  H    2.141824   1.082003   2.155309   3.476244   3.895760
    12  C    2.541587   3.841737   4.363295   3.870253   2.518371
    13  H    3.266457   4.485670   4.875711   4.222269   2.844424
    14  H    3.266780   4.485931   4.875758   4.222054   2.844092
    15  H    2.636484   4.033264   4.850356   4.644703   3.420364
    16  C    4.233700   2.837478   2.380505   3.696332   4.860868
    17  H    4.170013   2.833185   2.710611   4.077261   5.094283
    18  H    5.284874   3.895951   3.243572   4.373451   5.668400
    19  H    4.170019   2.833189   2.710615   4.077270   5.094291
                    6          7          8          9         10
     6  C    0.000000
     7  H    2.161250   0.000000
     8  H    2.152821   4.296237   0.000000
     9  O    3.612485   5.159133   2.580165   0.000000
    10  O    4.187715   4.557721   4.508403   2.676835   0.000000
    11  H    3.431722   2.440176   4.980134   4.518359   2.729507
    12  C    1.511201   2.730738   2.756825   4.878774   5.698913
    13  H    2.161626   3.491613   2.822564   5.104846   6.179137
    14  H    2.161627   3.492128   2.821931   5.104503   6.179175
    15  H    2.163935   2.368426   3.811822   5.750903   6.180664
    16  C    5.098017   4.877376   5.795124   4.101381   1.424768
    17  H    5.159453   4.681188   6.071410   4.616854   2.086518
    18  H    6.059983   5.960776   6.519322   4.504012   2.012037
    19  H    5.159459   4.681193   6.071420   4.616861   2.086518
                   11         12         13         14         15
    11  H    0.000000
    12  C    4.683371   0.000000
    13  H    5.354847   1.093713   0.000000
    14  H    5.355219   1.093709   1.761868   0.000000
    15  H    4.676931   1.091753   1.765778   1.765782   0.000000
    16  C    2.559199   6.575671   7.126175   7.126353   6.865032
    17  H    2.360733   6.576798   7.268223   7.048221   6.765108
    18  H    3.641679   7.557806   8.072310   8.072440   7.904430
    19  H    2.360736   6.576792   7.047904   7.268397   6.765225
                   16         17         18         19
    16  C    0.000000
    17  H    1.094832   0.000000
    18  H    1.087733   1.783591   0.000000
    19  H    1.094831   1.789659   1.783591   0.000000
 Stoichiometry    C8H9O2(2)
 Framework group  C1[X(C8H9O2)]
 Deg. of freedom    51
 Full point group                 C1      NOp   1
 Largest Abelian subgroup         C1      NOp   1
 Largest concise Abelian subgroup C1      NOp   1
                         Standard orientation:                         
 ---------------------------------------------------------------------
 Center     Atomic      Atomic             Coordinates (Angstroms)
 Number     Number       Type             X           Y           Z
 ---------------------------------------------------------------------
      1          6           0       -1.064436   -1.386031    0.000079
      2          6           0        0.329283   -1.281622    0.000060
      3          6           0        0.932599   -0.031513   -0.000012
      4          6           0        0.106420    1.192404   -0.000075
      5          6           0       -1.327212    0.994037   -0.000048
      6          6           0       -1.911560   -0.251005    0.000029
      7          1           0       -1.510859   -2.374785    0.000134
      8          1           0       -1.921378    1.901794   -0.000096
      9          8           0        0.624382    2.321746   -0.000136
     10          8           0        2.252154    0.196704   -0.000035
     11          1           0        0.922065   -2.186796    0.000099
     12          6           0       -3.413706   -0.416188    0.000094
     13          1           0       -3.862088    0.051466    0.881265
     14          1           0       -3.862249    0.052194   -0.880603
     15          1           0       -3.699587   -1.469847   -0.000308
     16          6           0        3.143003   -0.915209    0.000009
     17          1           0        3.005848   -1.530988   -0.894788
     18          1           0        4.143749   -0.488980   -0.000026
     19          1           0        3.005873   -1.530898    0.894871
 ---------------------------------------------------------------------
 Rotational constants (GHZ):           2.5878352           0.9612915           0.7071570
 Standard basis: 6-311G(d,p) (5D, 7F)
 There are   244 symmetry adapted cartesian basis functions of A   symmetry.
 There are   234 symmetry adapted basis functions of A   symmetry.
   234 basis functions,   392 primitive gaussians,   244 cartesian basis functions
    37 alpha electrons       36 beta electrons
       nuclear repulsion energy       501.2226345287 Hartrees.
 NAtoms=   19 NActive=   19 NUniq=   19 SFac= 1.00D+00 NAtFMM=   60 NAOKFM=F Big=F
 Integral buffers will be    131072 words long.
 Raffenetti 2 integral format.
 Two-electron integral symmetry is turned on.
 One-electron integrals computed using PRISM.
 NBasis=   234 RedAO= T EigKep=  2.14D-04  NBF=   234
 NBsUse=   234 1.00D-06 EigRej= -1.00D+00 NBFU=   234
 ExpMin= 1.03D-01 ExpMax= 8.59D+03 ExpMxC= 1.30D+03 IAcc=3 IRadAn=         5 AccDes= 0.00D+00
 Harris functional with IExCor=  402 and IRadAn=       5 diagonalized for initial guess.
 HarFok:  IExCor=  402 AccDes= 0.00D+00 IRadAn=         5 IDoV= 1 UseB2=F ITyADJ=14
 ICtDFT=  3500011 ScaDFX=  1.000000  1.000000  1.000000  1.000000
 FoFCou: FMM=F IPFlag=           0 FMFlag=      100000 FMFlg1=           0
         NFxFlg=           0 DoJE=T BraDBF=F KetDBF=T FulRan=T
         wScrn=  0.000000 ICntrl=       500 IOpCl=  0 I1Cent=   200000004 NGrid=           0
         NMat0=    1 NMatS0=      1 NMatT0=    0 NMatD0=    1 NMtDS0=    0 NMtDT0=    0
 Petite list used in FoFCou.
 Initial guess <Sx>= 0.0000 <Sy>= 0.0000 <Sz>= 0.5000 <S**2>= 0.7500 S= 0.5000
 Requested convergence on RMS density matrix=1.00D-08 within 128 cycles.
 Requested convergence on MAX density matrix=1.00D-06.
 Requested convergence on             energy=1.00D-06.
 No special actions if energy rises.
 Integral accuracy reduced to 1.0D-05 until final iterations.
 Initial convergence to 1.0D-05 achieved.  Increase integral accuracy.
 SCF Done:  E(UB3LYP) =  -460.790393354     A.U. after   20 cycles
            NFock= 20  Conv=0.47D-08     -V/T= 2.0038
 <Sx>= 0.0000 <Sy>= 0.0000 <Sz>= 0.5000 <S**2>= 0.7783 S= 0.5140
 <L.S>= 0.000000000000E+00
 Annihilation of the first spin contaminant:
 S**2 before annihilation     0.7783,   after     0.7506

 **********************************************************************

            Population analysis using the SCF density.

 **********************************************************************

 Orbital symmetries:
 Alpha Orbitals:
       Occupied  (A) (A) (A) (A) (A) (A) (A) (A) (A) (A) (A) (A)
                 (A) (A) (A) (A) (A) (A) (A) (A) (A) (A) (A) (A)
                 (A) (A) (A) (A) (A) (A) (A) (A) (A) (A) (A) (A)
                 (A)
       Virtual   (A) (A) (A) (A) (A) (A) (A) (A) (A) (A) (A) (A)
                 (A) (A) (A) (A) (A) (A) (A) (A) (A) (A) (A) (A)
                 (A) (A) (A) (A) (A) (A) (A) (A) (A) (A) (A) (A)
                 (A) (A) (A) (A) (A) (A) (A) (A) (A) (A) (A) (A)
                 (A) (A) (A) (A) (A) (A) (A) (A) (A) (A) (A) (A)
                 (A) (A) (A) (A) (A) (A) (A) (A) (A) (A) (A) (A)
                 (A) (A) (A) (A) (A) (A) (A) (A) (A) (A) (A) (A)
                 (A) (A) (A) (A) (A) (A) (A) (A) (A) (A) (A) (A)
                 (A) (A) (A) (A) (A) (A) (A) (A) (A) (A) (A) (A)
                 (A) (A) (A) (A) (A) (A) (A) (A) (A) (A) (A) (A)
                 (A) (A) (A) (A) (A) (A) (A) (A) (A) (A) (A) (A)
                 (A) (A) (A) (A) (A) (A) (A) (A) (A) (A) (A) (A)
                 (A) (A) (A) (A) (A) (A) (A) (A) (A) (A) (A) (A)
                 (A) (A) (A) (A) (A) (A) (A) (A) (A) (A) (A) (A)
                 (A) (A) (A) (A) (A) (A) (A) (A) (A) (A) (A) (A)
                 (A) (A) (A) (A) (A) (A) (A) (A) (A) (A) (A) (A)
                 (A) (A) (A) (A) (A)
 Beta  Orbitals:
       Occupied  (A) (A) (A) (A) (A) (A) (A) (A) (A) (A) (A) (A)
                 (A) (A) (A) (A) (A) (A) (A) (A) (A) (A) (A) (A)
                 (A) (A) (A) (A) (A) (A) (A) (A) (A) (A) (A) (A)
       Virtual   (A) (A) (A) (A) (A) (A) (A) (A) (A) (A) (A) (A)
                 (A) (A) (A) (A) (A) (A) (A) (A) (A) (A) (A) (A)
                 (A) (A) (A) (A) (A) (A) (A) (A) (A) (A) (A) (A)
                 (A) (A) (A) (A) (A) (A) (A) (A) (A) (A) (A) (A)
                 (A) (A) (A) (A) (A) (A) (A) (A) (A) (A) (A) (A)
                 (A) (A) (A) (A) (A) (A) (A) (A) (A) (A) (A) (A)
                 (A) (A) (A) (A) (A) (A) (A) (A) (A) (A) (A) (A)
                 (A) (A) (A) (A) (A) (A) (A) (A) (A) (A) (A) (A)
                 (A) (A) (A) (A) (A) (A) (A) (A) (A) (A) (A) (A)
                 (A) (A) (A) (A) (A) (A) (A) (A) (A) (A) (A) (A)
                 (A) (A) (A) (A) (A) (A) (A) (A) (A) (A) (A) (A)
                 (A) (A) (A) (A) (A) (A) (A) (A) (A) (A) (A) (A)
                 (A) (A) (A) (A) (A) (A) (A) (A) (A) (A) (A) (A)
                 (A) (A) (A) (A) (A) (A) (A) (A) (A) (A) (A) (A)
                 (A) (A) (A) (A) (A) (A) (A) (A) (A) (A) (A) (A)
                 (A) (A) (A) (A) (A) (A) (A) (A) (A) (A) (A) (A)
                 (A) (A) (A) (A) (A) (A)
 The electronic state is 2-A.
 Alpha  occ. eigenvalues --  -19.17476 -19.09636 -10.25284 -10.23903 -10.23761
 Alpha  occ. eigenvalues --  -10.19957 -10.19410 -10.18645 -10.17872 -10.17657
 Alpha  occ. eigenvalues --   -1.09692  -1.02307  -0.86434  -0.78808  -0.75129
 Alpha  occ. eigenvalues --   -0.72793  -0.68245  -0.61559  -0.58578  -0.54883
 Alpha  occ. eigenvalues --   -0.51289  -0.49345  -0.47030  -0.46034  -0.44296
 Alpha  occ. eigenvalues --   -0.43561  -0.42559  -0.41360  -0.40334  -0.38893
 Alpha  occ. eigenvalues --   -0.37262  -0.36136  -0.34701  -0.33619  -0.25623
 Alpha  occ. eigenvalues --   -0.25278  -0.20904
 Alpha virt. eigenvalues --   -0.01447  -0.00173   0.03439   0.04589   0.06734
 Alpha virt. eigenvalues --    0.08859   0.09522   0.10053   0.10166   0.10793
 Alpha virt. eigenvalues --    0.11518   0.14147   0.15970   0.18539   0.22353
 Alpha virt. eigenvalues --    0.24382   0.25063   0.27291   0.29407   0.29916
 Alpha virt. eigenvalues --    0.30875   0.32856   0.35220   0.36337   0.37665
 Alpha virt. eigenvalues --    0.38412   0.38685   0.39090   0.41466   0.43415
 Alpha virt. eigenvalues --    0.44133   0.46168   0.47684   0.47958   0.49983
 Alpha virt. eigenvalues --    0.51260   0.52002   0.53625   0.53682   0.56091
 Alpha virt. eigenvalues --    0.56747   0.58282   0.58840   0.59453   0.60193
 Alpha virt. eigenvalues --    0.60847   0.62464   0.63199   0.63749   0.65383
 Alpha virt. eigenvalues --    0.67132   0.70375   0.74563   0.76843   0.78163
 Alpha virt. eigenvalues --    0.79902   0.82611   0.82902   0.84891   0.86528
 Alpha virt. eigenvalues --    0.91946   0.92554   0.93979   0.94666   0.95754
 Alpha virt. eigenvalues --    0.98244   1.00098   1.02863   1.03372   1.08557
 Alpha virt. eigenvalues --    1.10221   1.11395   1.16472   1.19597   1.21222
 Alpha virt. eigenvalues --    1.23620   1.31125   1.33301   1.34547   1.35388
 Alpha virt. eigenvalues --    1.40594   1.41680   1.44667   1.44785   1.45685
 Alpha virt. eigenvalues --    1.46608   1.48666   1.52279   1.52665   1.53476
 Alpha virt. eigenvalues --    1.54909   1.56019   1.57010   1.57831   1.59975
 Alpha virt. eigenvalues --    1.62386   1.64055   1.65568   1.65691   1.67074
 Alpha virt. eigenvalues --    1.68105   1.73312   1.76002   1.76536   1.80060
 Alpha virt. eigenvalues --    1.83431   1.83881   1.86194   1.89274   1.91032
 Alpha virt. eigenvalues --    1.93340   1.95496   1.96451   1.99820   2.05250
 Alpha virt. eigenvalues --    2.05275   2.07856   2.09610   2.11531   2.13640
 Alpha virt. eigenvalues --    2.16607   2.21184   2.23868   2.25820   2.31217
 Alpha virt. eigenvalues --    2.33698   2.34707   2.36508   2.39187   2.42381
 Alpha virt. eigenvalues --    2.42693   2.43531   2.49214   2.50750   2.52460
 Alpha virt. eigenvalues --    2.53649   2.54139   2.56036   2.58126   2.61226
 Alpha virt. eigenvalues --    2.62765   2.65568   2.66865   2.68279   2.68601
 Alpha virt. eigenvalues --    2.78909   2.81254   2.81687   2.84194   2.84977
 Alpha virt. eigenvalues --    2.89429   2.92033   2.93009   2.96432   3.00809
 Alpha virt. eigenvalues --    3.02172   3.02363   3.06370   3.13927   3.19107
 Alpha virt. eigenvalues --    3.21558   3.28124   3.32356   3.33818   3.38144
 Alpha virt. eigenvalues --    3.45955   3.52976   3.55237   3.60530   3.64738
 Alpha virt. eigenvalues --    3.73858   3.77916   3.78042   3.80680   3.96870
 Alpha virt. eigenvalues --    4.05196   4.07766   4.08426   4.14677   4.30961
 Alpha virt. eigenvalues --    4.76881   4.83071   4.91971   5.03552   5.27314
 Alpha virt. eigenvalues --    5.62345   5.78033  23.50090  23.79111  23.84525
 Alpha virt. eigenvalues --   23.88175  23.92132  23.96422  24.09006  24.14192
 Alpha virt. eigenvalues --   49.88998  49.98785
  Beta  occ. eigenvalues --  -19.17211 -19.08646 -10.24899 -10.23913 -10.23875
  Beta  occ. eigenvalues --  -10.19556 -10.19446 -10.18827 -10.17652 -10.17550
  Beta  occ. eigenvalues --   -1.09143  -1.00595  -0.85851  -0.78547  -0.74718
  Beta  occ. eigenvalues --   -0.72215  -0.67710  -0.61185  -0.58279  -0.54571
  Beta  occ. eigenvalues --   -0.51092  -0.48599  -0.46849  -0.45797  -0.44147
  Beta  occ. eigenvalues --   -0.43208  -0.41816  -0.40226  -0.39767  -0.38651
  Beta  occ. eigenvalues --   -0.37087  -0.34443  -0.33745  -0.31433  -0.24426
  Beta  occ. eigenvalues --   -0.24315
  Beta virt. eigenvalues --   -0.12538   0.00094   0.02114   0.03464   0.04650
  Beta virt. eigenvalues --    0.06771   0.08954   0.09605   0.10173   0.10247
  Beta virt. eigenvalues --    0.11188   0.11546   0.14245   0.17288   0.18635
  Beta virt. eigenvalues --    0.22658   0.24520   0.25303   0.27495   0.29535
  Beta virt. eigenvalues --    0.30048   0.31027   0.33150   0.35658   0.36576
  Beta virt. eigenvalues --    0.38053   0.38883   0.38990   0.39482   0.41626
  Beta virt. eigenvalues --    0.43784   0.44828   0.46285   0.47869   0.48945
  Beta virt. eigenvalues --    0.50149   0.51751   0.52098   0.53784   0.53793
  Beta virt. eigenvalues --    0.56181   0.56790   0.58497   0.59039   0.59542
  Beta virt. eigenvalues --    0.60485   0.60982   0.62607   0.63386   0.64160
  Beta virt. eigenvalues --    0.65526   0.67317   0.70518   0.74876   0.76914
  Beta virt. eigenvalues --    0.78339   0.80210   0.83114   0.83957   0.85108
  Beta virt. eigenvalues --    0.86891   0.92159   0.93632   0.94150   0.95930
  Beta virt. eigenvalues --    0.95981   0.98974   1.00447   1.03032   1.03577
  Beta virt. eigenvalues --    1.09174   1.10512   1.12102   1.16629   1.20363
  Beta virt. eigenvalues --    1.21523   1.24256   1.31210   1.33537   1.34664
  Beta virt. eigenvalues --    1.35688   1.40722   1.41723   1.44712   1.44781
  Beta virt. eigenvalues --    1.45925   1.46918   1.48759   1.52523   1.52876
  Beta virt. eigenvalues --    1.53824   1.55116   1.56113   1.57239   1.57999
  Beta virt. eigenvalues --    1.60818   1.62406   1.64427   1.65943   1.66097
  Beta virt. eigenvalues --    1.67502   1.68434   1.73379   1.76272   1.76624
  Beta virt. eigenvalues --    1.80457   1.84171   1.84355   1.86297   1.89976
  Beta virt. eigenvalues --    1.91194   1.93395   1.95465   1.96647   2.00339
  Beta virt. eigenvalues --    2.05429   2.05445   2.08034   2.09944   2.11695
  Beta virt. eigenvalues --    2.13973   2.16753   2.21478   2.24532   2.25985
  Beta virt. eigenvalues --    2.31315   2.34008   2.34744   2.36616   2.39264
  Beta virt. eigenvalues --    2.42470   2.42810   2.43672   2.49340   2.51506
  Beta virt. eigenvalues --    2.52504   2.53793   2.54171   2.56175   2.58305
  Beta virt. eigenvalues --    2.61392   2.62902   2.65604   2.68024   2.68765
  Beta virt. eigenvalues --    2.69354   2.79147   2.81700   2.83043   2.84250
  Beta virt. eigenvalues --    2.84913   2.89719   2.94683   2.94760   2.97157
  Beta virt. eigenvalues --    3.00914   3.02933   3.03113   3.06570   3.14367
  Beta virt. eigenvalues --    3.19205   3.22630   3.28355   3.34058   3.34652
  Beta virt. eigenvalues --    3.38566   3.46371   3.53097   3.55631   3.61052
  Beta virt. eigenvalues --    3.65341   3.73926   3.77889   3.78079   3.80705
  Beta virt. eigenvalues --    3.97270   4.05476   4.08056   4.08851   4.15026
  Beta virt. eigenvalues --    4.31040   4.77436   4.85445   4.94985   5.04317
  Beta virt. eigenvalues --    5.27644   5.62984   5.78387  23.50256  23.79297
  Beta virt. eigenvalues --   23.84513  23.88098  23.92173  23.96844  24.09092
  Beta virt. eigenvalues --   24.14317  49.89311  49.99733
          Condensed to atoms (all electrons):
               1          2          3          4          5          6
     1  C    4.870411   0.449185   0.003300  -0.027603  -0.061549   0.494951
     2  C    0.449185   5.164332   0.288056  -0.024123  -0.017884  -0.054449
     3  C    0.003300   0.288056   5.399275   0.145208  -0.118923  -0.039756
     4  C   -0.027603  -0.024123   0.145208   4.765900   0.419188  -0.024328
     5  C   -0.061549  -0.017884  -0.118923   0.419188   5.199111   0.410645
     6  C    0.494951  -0.054449  -0.039756  -0.024328   0.410645   5.154258
     7  H    0.409629  -0.034734   0.007819  -0.000700   0.007803  -0.043394
     8  H    0.009612  -0.003422   0.019084  -0.039977   0.398886  -0.051680
     9  O   -0.000764   0.007955  -0.115649   0.661486  -0.090792   0.008603
    10  O    0.004888  -0.077300   0.415113  -0.064197   0.002130  -0.000079
    11  H   -0.023466   0.413239  -0.046007   0.001111  -0.000459   0.007085
    12  C   -0.062366   0.009104  -0.002034   0.003494  -0.045378   0.343010
    13  H    0.001663  -0.000293  -0.000009   0.000095  -0.005333  -0.035509
    14  H    0.001671  -0.000293  -0.000010   0.000096  -0.005334  -0.035513
    15  H   -0.007325   0.000541   0.000095  -0.000238   0.006296  -0.035674
    16  C   -0.000079  -0.017324  -0.074460   0.006904  -0.000119  -0.000017
    17  H   -0.000330   0.005412  -0.007226  -0.001072  -0.000034  -0.000031
    18  H    0.000017   0.000848   0.004889  -0.000005   0.000032  -0.000001
    19  H   -0.000330   0.005411  -0.007226  -0.001072  -0.000034  -0.000031
               7          8          9         10         11         12
     1  C    0.409629   0.009612  -0.000764   0.004888  -0.023466  -0.062366
     2  C   -0.034734  -0.003422   0.007955  -0.077300   0.413239   0.009104
     3  C    0.007819   0.019084  -0.115649   0.415113  -0.046007  -0.002034
     4  C   -0.000700  -0.039977   0.661486  -0.064197   0.001111   0.003494
     5  C    0.007803   0.398886  -0.090792   0.002130  -0.000459  -0.045378
     6  C   -0.043394  -0.051680   0.008603  -0.000079   0.007085   0.343010
     7  H    0.570429  -0.000288  -0.000001  -0.000117  -0.007938  -0.008586
     8  H   -0.000288   0.563580   0.010311  -0.000111   0.000074  -0.008748
     9  O   -0.000001   0.010311   7.821736   0.002852  -0.000091  -0.000139
    10  O   -0.000117  -0.000111   0.002852   7.823448  -0.005590   0.000000
    11  H   -0.007938   0.000074  -0.000091  -0.005590   0.548068  -0.000364
    12  C   -0.008586  -0.008748  -0.000139   0.000000  -0.000364   4.810601
    13  H    0.000078   0.000900  -0.000003   0.000000   0.000017   0.403154
    14  H    0.000078   0.000901  -0.000003   0.000000   0.000017   0.403166
    15  H    0.003772   0.000192   0.000004   0.000000  -0.000023   0.407912
    16  C   -0.000024   0.000027  -0.000543   0.269751   0.003993   0.000000
    17  H    0.000022   0.000001  -0.000046  -0.030617   0.000323   0.000000
    18  H    0.000000  -0.000001   0.000119  -0.023300  -0.000054   0.000000
    19  H    0.000022   0.000001  -0.000046  -0.030617   0.000323   0.000000
              13         14         15         16         17         18
     1  C    0.001663   0.001671  -0.007325  -0.000079  -0.000330   0.000017
     2  C   -0.000293  -0.000293   0.000541  -0.017324   0.005412   0.000848
     3  C   -0.000009  -0.000010   0.000095  -0.074460  -0.007226   0.004889
     4  C    0.000095   0.000096  -0.000238   0.006904  -0.001072  -0.000005
     5  C   -0.005333  -0.005334   0.006296  -0.000119  -0.000034   0.000032
     6  C   -0.035509  -0.035513  -0.035674  -0.000017  -0.000031  -0.000001
     7  H    0.000078   0.000078   0.003772  -0.000024   0.000022   0.000000
     8  H    0.000900   0.000901   0.000192   0.000027   0.000001  -0.000001
     9  O   -0.000003  -0.000003   0.000004  -0.000543  -0.000046   0.000119
    10  O    0.000000   0.000000   0.000000   0.269751  -0.030617  -0.023300
    11  H    0.000017   0.000017  -0.000023   0.003993   0.000323  -0.000054
    12  C    0.403154   0.403166   0.407912   0.000000   0.000000   0.000000
    13  H    0.560963  -0.028120  -0.026953   0.000000   0.000000   0.000000
    14  H   -0.028120   0.560956  -0.026954   0.000000   0.000000   0.000000
    15  H   -0.026953  -0.026954   0.573513   0.000000   0.000000   0.000000
    16  C    0.000000   0.000000   0.000000   4.753594   0.396417   0.404580
    17  H    0.000000   0.000000   0.000000   0.396417   0.592440  -0.025455
    18  H    0.000000   0.000000   0.000000   0.404580  -0.025455   0.522883
    19  H    0.000000   0.000000   0.000000   0.396417  -0.047826  -0.025455
              19
     1  C   -0.000330
     2  C    0.005411
     3  C   -0.007226
     4  C   -0.001072
     5  C   -0.000034
     6  C   -0.000031
     7  H    0.000022
     8  H    0.000001
     9  O   -0.000046
    10  O   -0.030617
    11  H    0.000323
    12  C    0.000000
    13  H    0.000000
    14  H    0.000000
    15  H    0.000000
    16  C    0.396417
    17  H   -0.047826
    18  H   -0.025455
    19  H    0.592440
          Atomic-Atomic Spin Densities.
               1          2          3          4          5          6
     1  C    0.416326  -0.020633  -0.018979  -0.002638  -0.016912   0.020219
     2  C   -0.020633  -0.153691   0.023321   0.001023   0.002091  -0.001019
     3  C   -0.018979   0.023321   0.288940   0.032818   0.006338  -0.000912
     4  C   -0.002638   0.001023   0.032818  -0.082619   0.029836  -0.000484
     5  C   -0.016912   0.002091   0.006338   0.029836   0.270007  -0.025511
     6  C    0.020219  -0.001019  -0.000912  -0.000484  -0.025511  -0.121365
     7  H    0.003720   0.000102  -0.000429  -0.000009  -0.000259  -0.000055
     8  H   -0.000266   0.000017  -0.000534   0.000184   0.003512   0.000371
     9  O    0.000239  -0.000311  -0.010769  -0.040813  -0.010959   0.000135
    10  O    0.000520   0.000103  -0.054056  -0.001648  -0.000297   0.000000
    11  H   -0.000307   0.000052  -0.000037   0.000123  -0.000020   0.000051
    12  C    0.000982  -0.000061  -0.000026  -0.000183  -0.002302   0.009201
    13  H   -0.000723   0.000002   0.000027   0.000015   0.001081   0.001308
    14  H   -0.000721   0.000002   0.000027   0.000015   0.001079   0.001306
    15  H   -0.000139   0.000013  -0.000002  -0.000004   0.000038   0.000367
    16  C    0.000109   0.000431  -0.002986  -0.000132  -0.000033   0.000003
    17  H   -0.000174   0.000069   0.002335   0.000056   0.000017  -0.000001
    18  H    0.000000  -0.000023   0.000042   0.000000   0.000000   0.000000
    19  H   -0.000174   0.000070   0.002335   0.000056   0.000017  -0.000001
               7          8          9         10         11         12
     1  C    0.003720  -0.000266   0.000239   0.000520  -0.000307   0.000982
     2  C    0.000102   0.000017  -0.000311   0.000103   0.000052  -0.000061
     3  C   -0.000429  -0.000534  -0.010769  -0.054056  -0.000037  -0.000026
     4  C   -0.000009   0.000184  -0.040813  -0.001648   0.000123  -0.000183
     5  C   -0.000259   0.003512  -0.010959  -0.000297  -0.000020  -0.002302
     6  C   -0.000055   0.000371   0.000135   0.000000   0.000051   0.009201
     7  H   -0.025280   0.000011   0.000000   0.000004   0.000329   0.000599
     8  H    0.000011  -0.017310  -0.000353   0.000002  -0.000004   0.000241
     9  O    0.000000  -0.000353   0.430202   0.002142   0.000003   0.000008
    10  O    0.000004   0.000002   0.002142   0.130303  -0.000006   0.000000
    11  H    0.000329  -0.000004   0.000003  -0.000006   0.005999   0.000000
    12  C    0.000599   0.000241   0.000008   0.000000   0.000000   0.002556
    13  H   -0.000003  -0.000004  -0.000005   0.000000   0.000000  -0.002500
    14  H   -0.000003  -0.000004  -0.000005   0.000000   0.000000  -0.002499
    15  H   -0.000106  -0.000004   0.000000   0.000000   0.000002  -0.000165
    16  C   -0.000002  -0.000001   0.000033   0.003926  -0.000035   0.000000
    17  H   -0.000001   0.000000  -0.000019  -0.002283  -0.000066   0.000000
    18  H    0.000000   0.000000  -0.000005   0.000021   0.000018   0.000000
    19  H   -0.000001   0.000000  -0.000019  -0.002282  -0.000066   0.000000
              13         14         15         16         17         18
     1  C   -0.000723  -0.000721  -0.000139   0.000109  -0.000174   0.000000
     2  C    0.000002   0.000002   0.000013   0.000431   0.000069  -0.000023
     3  C    0.000027   0.000027  -0.000002  -0.002986   0.002335   0.000042
     4  C    0.000015   0.000015  -0.000004  -0.000132   0.000056   0.000000
     5  C    0.001081   0.001079   0.000038  -0.000033   0.000017   0.000000
     6  C    0.001308   0.001306   0.000367   0.000003  -0.000001   0.000000
     7  H   -0.000003  -0.000003  -0.000106  -0.000002  -0.000001   0.000000
     8  H   -0.000004  -0.000004  -0.000004  -0.000001   0.000000   0.000000
     9  O   -0.000005  -0.000005   0.000000   0.000033  -0.000019  -0.000005
    10  O    0.000000   0.000000   0.000000   0.003926  -0.002283   0.000021
    11  H    0.000000   0.000000   0.000002  -0.000035  -0.000066   0.000018
    12  C   -0.002500  -0.002499  -0.000165   0.000000   0.000000   0.000000
    13  H    0.000089  -0.000594   0.000110   0.000000   0.000000   0.000000
    14  H   -0.000594   0.000095   0.000108   0.000000   0.000000   0.000000
    15  H    0.000110   0.000108  -0.000662   0.000000   0.000000   0.000000
    16  C    0.000000   0.000000   0.000000  -0.005577  -0.001201   0.000143
    17  H    0.000000   0.000000   0.000000  -0.001201   0.009628   0.000007
    18  H    0.000000   0.000000   0.000000   0.000143   0.000007  -0.000394
    19  H    0.000000   0.000000   0.000000  -0.001201  -0.002945   0.000007
              19
     1  C   -0.000174
     2  C    0.000070
     3  C    0.002335
     4  C    0.000056
     5  C    0.000017
     6  C   -0.000001
     7  H   -0.000001
     8  H    0.000000
     9  O   -0.000019
    10  O   -0.002282
    11  H   -0.000066
    12  C    0.000000
    13  H    0.000000
    14  H    0.000000
    15  H    0.000000
    16  C   -0.001201
    17  H   -0.002945
    18  H    0.000007
    19  H    0.009628
 Mulliken charges and spin densities:
               1          2
     1  C   -0.061517   0.380449
     2  C   -0.114260  -0.148442
     3  C    0.128459   0.267454
     4  C    0.179834  -0.064406
     5  C   -0.098252   0.257724
     6  C   -0.098091  -0.116389
     7  H    0.096133  -0.021384
     8  H    0.100659  -0.014145
     9  O   -0.304988   0.369505
    10  O   -0.286254   0.076449
    11  H    0.109742   0.006036
    12  C   -0.252828   0.005851
    13  H    0.129351  -0.001199
    14  H    0.129341  -0.001196
    15  H    0.104840  -0.000443
    16  C   -0.139117  -0.006523
    17  H    0.118022   0.005422
    18  H    0.140903  -0.000184
    19  H    0.118022   0.005422
 Sum of Mulliken charges =   0.00000   1.00000
 Mulliken charges and spin densities with hydrogens summed into heavy atoms:
               1          2
     1  C    0.034617   0.359065
     2  C   -0.004518  -0.142406
     3  C    0.128459   0.267454
     4  C    0.179834  -0.064406
     5  C    0.002407   0.243579
     6  C   -0.098091  -0.116389
     9  O   -0.304988   0.369505
    10  O   -0.286254   0.076449
    12  C    0.110704   0.003013
    16  C    0.237829   0.004137
 Electronic spatial extent (au):  <R**2>=           1604.3437
 Charge=              0.0000 electrons
 Dipole moment (field-independent basis, Debye):
    X=             -0.4272    Y=             -4.6668    Z=              0.0003  Tot=              4.6863
 Quadrupole moment (field-independent basis, Debye-Ang):
   XX=            -47.2625   YY=            -63.2160   ZZ=            -60.2865
   XY=             -7.0374   XZ=              0.0000   YZ=              0.0002
 Traceless Quadrupole moment (field-independent basis, Debye-Ang):
   XX=              9.6592   YY=             -6.2943   ZZ=             -3.3648
   XY=             -7.0374   XZ=              0.0000   YZ=              0.0002
 Octapole moment (field-independent basis, Debye-Ang**2):
  XXX=             30.4223  YYY=            -21.3645  ZZZ=              0.0000  XYY=             -3.5009
  XXY=            -11.5834  XXZ=              0.0008  XZZ=              6.6362  YZZ=              4.7807
  YYZ=              0.0009  XYZ=              0.0010
 Hexadecapole moment (field-independent basis, Debye-Ang**3):
 XXXX=          -1341.9641 YYYY=           -582.7595 ZZZZ=            -76.1849 XXXY=            -32.7612
 XXXZ=              0.0100 YYYX=            -13.3404 YYYZ=              0.0160 ZZZX=              0.0073
 ZZZY=              0.0131 XXYY=           -326.9083 XXZZ=           -261.8379 YYZZ=           -106.0650
 XXYZ=              0.0028 YYXZ=              0.0071 ZZXY=             -1.8025
 N-N= 5.012226345287D+02 E-N=-2.077823073731D+03  KE= 4.590448832514D+02
                          Isotropic Fermi Contact Couplings
        Atom                 a.u.       MegaHertz       Gauss      10(-4) cm-1
     1  C(13)              0.02299      25.84128       9.22081       8.61972
     2  C(13)             -0.02107     -23.68797      -8.45246      -7.90146
     3  C(13)              0.01441      16.19628       5.77924       5.40250
     4  C(13)             -0.02699     -30.34292     -10.82711     -10.12131
     5  C(13)              0.01139      12.80074       4.56762       4.26987
     6  C(13)             -0.01841     -20.69513      -7.38454      -6.90315
     7  H(1)              -0.00513     -22.92399      -8.17985      -7.64662
     8  H(1)              -0.00346     -15.44615      -5.51157      -5.15228
     9  O(17)              0.02748     -16.65575      -5.94319      -5.55576
    10  O(17)              0.01317      -7.98479      -2.84917      -2.66344
    11  H(1)               0.00144       6.42583       2.29290       2.14343
    12  C(13)              0.00172       1.93043       0.68883       0.64392
    13  H(1)              -0.00129      -5.76745      -2.05797      -1.92382
    14  H(1)              -0.00129      -5.76193      -2.05600      -1.92197
    15  H(1)              -0.00019      -0.84720      -0.30230      -0.28260
    16  C(13)             -0.00238      -2.67057      -0.95293      -0.89081
    17  H(1)               0.00156       6.99006       2.49423       2.33163
    18  H(1)              -0.00009      -0.40361      -0.14402      -0.13463
    19  H(1)               0.00156       6.99003       2.49422       2.33162
 --------------------------------------------------------
       Center         ----  Spin Dipole Couplings  ----
                      3XX-RR        3YY-RR        3ZZ-RR
 --------------------------------------------------------
     1   Atom       -0.207986     -0.197548      0.405534
     2   Atom        0.064004      0.061821     -0.125825
     3   Atom       -0.156238     -0.159727      0.315966
     4   Atom        0.012650      0.041684     -0.054334
     5   Atom       -0.129189     -0.132881      0.262070
     6   Atom        0.041042      0.050309     -0.091351
     7   Atom       -0.019158      0.020629     -0.001471
     8   Atom        0.000401      0.003716     -0.004117
     9   Atom       -0.763636     -0.762563      1.526199
    10   Atom       -0.215774     -0.215902      0.431675
    11   Atom        0.004043      0.001598     -0.005641
    12   Atom        0.005186     -0.000565     -0.004621
    13   Atom        0.002956     -0.001045     -0.001911
    14   Atom        0.002956     -0.001045     -0.001911
    15   Atom        0.004747     -0.002295     -0.002453
    16   Atom        0.003076      0.002551     -0.005627
    17   Atom        0.000903      0.001505     -0.002408
    18   Atom        0.004483     -0.001851     -0.002632
    19   Atom        0.000903      0.001505     -0.002408
 --------------------------------------------------------
                        XY            XZ            YZ
 --------------------------------------------------------
     1   Atom        0.005462      0.000010      0.000030
     2   Atom        0.006778     -0.000002     -0.000010
     3   Atom       -0.002056      0.000003      0.000026
     4   Atom        0.017006     -0.000002     -0.000005
     5   Atom       -0.003438      0.000008      0.000028
     6   Atom       -0.000272     -0.000003     -0.000006
     7   Atom        0.019861     -0.000001     -0.000002
     8   Atom       -0.016797      0.000001      0.000000
     9   Atom       -0.001610     -0.000002      0.000118
    10   Atom       -0.010620      0.000007      0.000033
    11   Atom        0.004301      0.000000      0.000000
    12   Atom       -0.000578      0.000000      0.000001
    13   Atom        0.000217     -0.001100     -0.000166
    14   Atom        0.000218      0.001099      0.000165
    15   Atom        0.001018      0.000001      0.000000
    16   Atom       -0.006115      0.000000      0.000000
    17   Atom       -0.003730     -0.001483      0.001665
    18   Atom       -0.002836      0.000000      0.000000
    19   Atom       -0.003730      0.001484     -0.001665
 --------------------------------------------------------


 ---------------------------------------------------------------------------------
              Anisotropic Spin Dipole Couplings in Principal Axis System
 ---------------------------------------------------------------------------------

       Atom             a.u.   MegaHertz   Gauss  10(-4) cm-1        Axes

              Baa    -0.2103   -28.223   -10.071    -9.414  0.9195 -0.3932  0.0000
     1 C(13)  Bbb    -0.1952   -26.196    -9.347    -8.738  0.3932  0.9195 -0.0001
              Bcc     0.4055    54.419    19.418    18.152  0.0000  0.0000  1.0000
 
              Baa    -0.1258   -16.884    -6.025    -5.632  0.0000  0.0001  1.0000
     2 C(13)  Bbb     0.0560     7.521     2.684     2.509 -0.6485  0.7612  0.0000
              Bcc     0.0698     9.364     3.341     3.123  0.7612  0.6485  0.0000
 
              Baa    -0.1607   -21.562    -7.694    -7.192  0.4201  0.9075 -0.0001
     3 C(13)  Bbb    -0.1553   -20.838    -7.435    -6.951  0.9075 -0.4201  0.0000
              Bcc     0.3160    42.400    15.129    14.143  0.0000  0.0001  1.0000
 
              Baa    -0.0543    -7.291    -2.602    -2.432  0.0000  0.0001  1.0000
     4 C(13)  Bbb     0.0048     0.645     0.230     0.215  0.9081 -0.4188  0.0000
              Bcc     0.0495     6.646     2.371     2.217  0.4188  0.9081 -0.0001
 
              Baa    -0.1349   -18.107    -6.461    -6.040  0.5133  0.8582 -0.0001
     5 C(13)  Bbb    -0.1271   -17.060    -6.087    -5.691  0.8582 -0.5133  0.0000
              Bcc     0.2621    35.167    12.549    11.731  0.0000  0.0001  1.0000
 
              Baa    -0.0914   -12.258    -4.374    -4.089  0.0000  0.0000  1.0000
     6 C(13)  Bbb     0.0410     5.506     1.965     1.837  0.9996  0.0293  0.0000
              Bcc     0.0503     6.752     2.409     2.252 -0.0293  0.9996  0.0000
 
              Baa    -0.0274   -14.606    -5.212    -4.872  0.9240 -0.3823  0.0000
     7 H(1)   Bbb    -0.0015    -0.785    -0.280    -0.262  0.0000  0.0001  1.0000
              Bcc     0.0288    15.391     5.492     5.134  0.3823  0.9240 -0.0001
 
              Baa    -0.0148    -7.907    -2.822    -2.638  0.7410  0.6715 -0.0001
     8 H(1)   Bbb    -0.0041    -2.197    -0.784    -0.733  0.0000  0.0001  1.0000
              Bcc     0.0189    10.104     3.605     3.370 -0.6715  0.7410  0.0000
 
              Baa    -0.7648    55.340    19.747    18.459  0.8112  0.5848  0.0000
     9 O(17)  Bbb    -0.7614    55.095    19.659    18.378 -0.5848  0.8112  0.0000
              Bcc     1.5262  -110.435   -39.406   -36.837  0.0000  0.0001  1.0000
 
              Baa    -0.2265    16.386     5.847     5.466  0.7050  0.7092  0.0000
    10 O(17)  Bbb    -0.2052    14.849     5.299     4.953  0.7092 -0.7050  0.0000
              Bcc     0.4317   -31.236   -11.146   -10.419  0.0000  0.0001  1.0000
 
              Baa    -0.0056    -3.010    -1.074    -1.004  0.0000  0.0001  1.0000
    11 H(1)   Bbb    -0.0017    -0.881    -0.314    -0.294 -0.6027  0.7980  0.0000
              Bcc     0.0073     3.891     1.388     1.298  0.7980  0.6027  0.0000
 
              Baa    -0.0046    -0.620    -0.221    -0.207  0.0000 -0.0002  1.0000
    12 C(13)  Bbb    -0.0006    -0.084    -0.030    -0.028  0.0990  0.9951  0.0002
              Bcc     0.0052     0.704     0.251     0.235  0.9951 -0.0990  0.0000
 
              Baa    -0.0022    -1.153    -0.411    -0.384  0.2048  0.1046  0.9732
    13 H(1)   Bbb    -0.0010    -0.559    -0.199    -0.186 -0.0787  0.9928 -0.0902
              Bcc     0.0032     1.711     0.611     0.571  0.9756  0.0581 -0.2116
 
              Baa    -0.0022    -1.152    -0.411    -0.384 -0.2047 -0.1044  0.9733
    14 H(1)   Bbb    -0.0010    -0.559    -0.199    -0.186 -0.0787  0.9928  0.0899
              Bcc     0.0032     1.711     0.611     0.571  0.9757  0.0582  0.2114
 
              Baa    -0.0025    -1.309    -0.467    -0.437  0.0011 -0.0086  1.0000
    15 H(1)   Bbb    -0.0024    -1.301    -0.464    -0.434 -0.1402  0.9901  0.0086
              Bcc     0.0049     2.610     0.931     0.871  0.9901  0.1402  0.0001
 
              Baa    -0.0056    -0.755    -0.269    -0.252  0.0000  0.0001  1.0000
    16 C(13)  Bbb    -0.0033    -0.444    -0.158    -0.148  0.6918  0.7221  0.0000
              Bcc     0.0089     1.199     0.428     0.400  0.7221 -0.6918  0.0000
 
              Baa    -0.0030    -1.619    -0.578    -0.540  0.1270 -0.2479  0.9604
    17 H(1)   Bbb    -0.0025    -1.353    -0.483    -0.451  0.7474  0.6605  0.0717
              Bcc     0.0056     2.971     1.060     0.991 -0.6521  0.7088  0.2692
 
              Baa    -0.0029    -1.566    -0.559    -0.522  0.3571  0.9341 -0.0001
    18 H(1)   Bbb    -0.0026    -1.404    -0.501    -0.468  0.0000  0.0001  1.0000
              Bcc     0.0056     2.970     1.060     0.991  0.9341 -0.3571  0.0000
 
              Baa    -0.0030    -1.619    -0.578    -0.540 -0.1270  0.2480  0.9604
    19 H(1)   Bbb    -0.0025    -1.353    -0.483    -0.451  0.7474  0.6605 -0.0717
              Bcc     0.0056     2.971     1.060     0.991 -0.6521  0.7087 -0.2692
 

 ---------------------------------------------------------------------------------

 1|1|UNPC-PC-20250526LCFF|SP|UB3LYP|6-311G(d,p)|C8H9O2(2)|ADMINISTRATOR
 |02-Dec-2025|0||# ub3lyp/6-311g(d,p) geom=connectivity temperature=823
 .15||Title Card Required||0,2|C,0,-1.064436,-1.386031,0.000079|C,0,0.3
 29283,-1.281622,0.00006|C,0,0.932599,-0.031513,-0.000012|C,0,0.10642,1
 .192404,-0.000075|C,0,-1.327212,0.994037,-0.000048|C,0,-1.91156,-0.251
 005,0.000029|H,0,-1.510859,-2.374785,0.000134|H,0,-1.921378,1.901794,-
 0.000096|O,0,0.624382,2.321746,-0.000136|O,0,2.252154,0.196704,-0.0000
 35|H,0,0.922065,-2.186796,0.000099|C,0,-3.413706,-0.416188,0.000094|H,
 0,-3.862088,0.051466,0.881265|H,0,-3.862249,0.052194,-0.880603|H,0,-3.
 699587,-1.469847,-0.000308|C,0,3.143003,-0.915209,0.000009|H,0,3.00584
 8,-1.530988,-0.894788|H,0,4.143749,-0.48898,-0.000026|H,0,3.005873,-1.
 530898,0.894871||Version=EM64W-G16RevA.03|State=2-A|HF=-460.7903934|S2
 =0.778274|S2-1=0.|S2A=0.750554|RMSD=4.660e-009|Dipole=-0.1680661,-1.83
 60625,0.0001198|Quadrupole=7.1813579,-4.6796755,-2.5016824,-5.2321253,
 0.0000254,0.0001608|PG=C01 [X(C8H9O2)]||@


 IF YOU BELIEVE CERTAIN WORDS, YOU BELIEVE THEIR HIDDEN ARGUMENTS.
 WHEN YOU BELIEVE SOMETHING IS RIGHT OR WRONG, TRUE OR FALSE, 
 YOU BELIEVE THE ASSUMPTIONS IN THE WORDS WHICH EXPRESS THE ARGUMENTS.
 SUCH ASSUMPTIONS ARE OFTEN FULL OF HOLES, BUT REMAIN MOST PRECIOUS 
 TO THE CONVINCED.

                 -- THE OPEN-ENDED PROOF FROM THE PANOPLIA PROPHETICA
                    CHILDREN OF DUNE BY FRANK HERBERT
 Job cpu time:       0 days  0 hours  0 minutes 38.0 seconds.
 Elapsed time:       0 days  0 hours  0 minutes 37.5 seconds.
 File lengths (MBytes):  RWF=     57 Int=      0 D2E=      0 Chk=      5 Scr=      1
 Normal termination of Gaussian 16 at Tue Dec 02 11:33:59 2025.
