 Entering Gaussian System, Link 0=/public1/home/scg3027/software-scg3027/g16/g16
 Input=17.gjf
 Output=17.log
 Initial command:
 /public1/home/scg3027/software-scg3027/g16/l1.exe "/public1/home/scg3027/software-scg3027/test/tmp/Gau-209463.inp" -scrdir="/public1/home/scg3027/software-scg3027/test/tmp/"
 Entering Link 1 = /public1/home/scg3027/software-scg3027/g16/l1.exe PID=    209464.
  
 Copyright (c) 1988-2019, Gaussian, Inc.  All Rights Reserved.
  
 This is part of the Gaussian(R) 16 program.  It is based on
 the Gaussian(R) 09 system (copyright 2009, Gaussian, Inc.),
 the Gaussian(R) 03 system (copyright 2003, Gaussian, Inc.),
 the Gaussian(R) 98 system (copyright 1998, Gaussian, Inc.),
 the Gaussian(R) 94 system (copyright 1995, Gaussian, Inc.),
 the Gaussian 92(TM) system (copyright 1992, Gaussian, Inc.),
 the Gaussian 90(TM) system (copyright 1990, Gaussian, Inc.),
 the Gaussian 88(TM) system (copyright 1988, Gaussian, Inc.),
 the Gaussian 86(TM) system (copyright 1986, Carnegie Mellon
 University), and the Gaussian 82(TM) system (copyright 1983,
 Carnegie Mellon University). Gaussian is a federally registered
 trademark of Gaussian, Inc.
  
 This software contains proprietary and confidential information,
 including trade secrets, belonging to Gaussian, Inc.
  
 This software is provided under written license and may be
 used, copied, transmitted, or stored only in accord with that
 written license.
  
 The following legend is applicable only to US Government
 contracts under FAR:
  
                    RESTRICTED RIGHTS LEGEND
  
 Use, reproduction and disclosure by the US Government is
 subject to restrictions as set forth in subparagraphs (a)
 and (c) of the Commercial Computer Software - Restricted
 Rights clause in FAR 52.227-19.
  
 Gaussian, Inc.
 340 Quinnipiac St., Bldg. 40, Wallingford CT 06492
  
  
 ---------------------------------------------------------------
 Warning -- This program may not be used in any manner that
 competes with the business of Gaussian, Inc. or will provide
 assistance to any competitor of Gaussian, Inc.  The licensee
 of this program is prohibited from giving any competitor of
 Gaussian, Inc. access to this program.  By using this program,
 the user acknowledges that Gaussian, Inc. is engaged in the
 business of creating and licensing software in the field of
 computational chemistry and represents and warrants to the
 licensee that it is not a competitor of Gaussian, Inc. and that
 it will not use this program in any manner prohibited above.
 ---------------------------------------------------------------
  

 Cite this work as:
 Gaussian 16, Revision C.01,
 M. J. Frisch, G. W. Trucks, H. B. Schlegel, G. E. Scuseria, 
 M. A. Robb, J. R. Cheeseman, G. Scalmani, V. Barone, 
 G. A. Petersson, H. Nakatsuji, X. Li, M. Caricato, A. V. Marenich, 
 J. Bloino, B. G. Janesko, R. Gomperts, B. Mennucci, H. P. Hratchian, 
 J. V. Ortiz, A. F. Izmaylov, J. L. Sonnenberg, D. Williams-Young, 
 F. Ding, F. Lipparini, F. Egidi, J. Goings, B. Peng, A. Petrone, 
 T. Henderson, D. Ranasinghe, V. G. Zakrzewski, J. Gao, N. Rega, 
 G. Zheng, W. Liang, M. Hada, M. Ehara, K. Toyota, R. Fukuda, 
 J. Hasegawa, M. Ishida, T. Nakajima, Y. Honda, O. Kitao, H. Nakai, 
 T. Vreven, K. Throssell, J. A. Montgomery, Jr., J. E. Peralta, 
 F. Ogliaro, M. J. Bearpark, J. J. Heyd, E. N. Brothers, K. N. Kudin, 
 V. N. Staroverov, T. A. Keith, R. Kobayashi, J. Normand, 
 K. Raghavachari, A. P. Rendell, J. C. Burant, S. S. Iyengar, 
 J. Tomasi, M. Cossi, J. M. Millam, M. Klene, C. Adamo, R. Cammi, 
 J. W. Ochterski, R. L. Martin, K. Morokuma, O. Farkas, 
 J. B. Foresman, and D. J. Fox, Gaussian, Inc., Wallingford CT, 2019.
 
 ******************************************
 Gaussian 16:  ES64L-G16RevC.01  3-Jul-2019
                 8-Sep-2022 
 ******************************************
 %nprocshared=20
 Will use up to   20 processors via shared memory.
 %mem=80GB
 %chk=17.chk
 ------------------------------------------------------------------
 # opt freq rb3lyp/6-311g(d,p) geom=connectivity temperature=823.15
 ------------------------------------------------------------------
 1/18=20,19=15,26=3,38=1,57=2,112=823150/1,3;
 2/9=110,12=2,17=6,18=5,40=1/2;
 3/5=4,6=6,7=101,11=2,25=1,30=1,71=1,74=-5,116=1/1,2,3;
 4//1;
 5/5=2,38=5/2;
 6/7=2,8=2,9=2,10=2,28=1/1;
 7//1,2,3,16;
 1/18=20,19=15,26=3/3(2);
 2/9=110/2;
 99//99;
 2/9=110/2;
 3/5=4,6=6,7=101,11=2,25=1,30=1,71=1,74=-5,116=1/1,2,3;
 4/5=5,16=3,69=1/1;
 5/5=2,38=5/2;
 7//1,2,3,16;
 1/18=20,19=15,26=3/3(-5);
 2/9=110/2;
 6/7=2,8=2,9=2,10=2,19=2,28=1/1;
 99/9=1/99;
 -------------------
 Title Card Required
 -------------------
 Symbolic Z-matrix:
 Charge =  0 Multiplicity = 1
 C                    -0.68615  -0.85652   0.35813 
 C                     0.69356  -1.02583   0.25461 
 C                     1.51758   0.09537   0.05915 
 C                     0.9766    1.39672  -0.03528 
 C                    -0.36414   1.62389   0.05846 
 C                    -1.25099   0.5604    0.25317 
 H                     1.12254  -2.00364   0.32358 
 H                     1.63642   2.22578  -0.18429 
 H                    -0.74052   2.62263  -0.01744 
 O                    -2.65839   0.79346   0.35217 
 H                    -2.42105  -1.74617   0.60884 
 O                    -1.4726   -1.87733   0.53929 
 C                     3.0411   -0.09852  -0.05439 
 H                     3.24783  -1.05956  -0.47697 
 H                     3.45173   0.66348  -0.68339 
 H                     3.4823   -0.03421   0.91829 
 C                    -3.00688   1.94318  -0.42345 
 H                    -4.05997   2.11757  -0.34938 
 H                    -2.47722   2.79643  -0.05422 
 H                    -2.7442    1.77583  -1.44712 
 

 GradGradGradGradGradGradGradGradGradGradGradGradGradGradGradGradGradGrad
 Berny optimization.
 Initialization pass.
                           ----------------------------
                           !    Initial Parameters    !
                           ! (Angstroms and Degrees)  !
 --------------------------                            --------------------------
 ! Name  Definition              Value          Derivative Info.                !
 --------------------------------------------------------------------------------
 ! R1    R(1,2)                  1.3939         estimate D2E/DX2                !
 ! R2    R(1,6)                  1.529          estimate D2E/DX2                !
 ! R3    R(1,12)                 1.3013         estimate D2E/DX2                !
 ! R4    R(2,3)                  1.4051         estimate D2E/DX2                !
 ! R5    R(2,7)                  1.07           estimate D2E/DX2                !
 ! R6    R(3,4)                  1.4125         estimate D2E/DX2                !
 ! R7    R(3,13)                 1.54           estimate D2E/DX2                !
 ! R8    R(4,5)                  1.3631         estimate D2E/DX2                !
 ! R9    R(4,8)                  1.07           estimate D2E/DX2                !
 ! R10   R(5,6)                  1.3984         estimate D2E/DX2                !
 ! R11   R(5,9)                  1.07           estimate D2E/DX2                !
 ! R12   R(6,10)                 1.43           estimate D2E/DX2                !
 ! R13   R(10,17)                1.43           estimate D2E/DX2                !
 ! R14   R(11,12)                0.96           estimate D2E/DX2                !
 ! R15   R(13,14)                1.07           estimate D2E/DX2                !
 ! R16   R(13,15)                1.07           estimate D2E/DX2                !
 ! R17   R(13,16)                1.07           estimate D2E/DX2                !
 ! R18   R(17,18)                1.07           estimate D2E/DX2                !
 ! R19   R(17,19)                1.07           estimate D2E/DX2                !
 ! R20   R(17,20)                1.07           estimate D2E/DX2                !
 ! A1    A(2,1,6)              118.2376         estimate D2E/DX2                !
 ! A2    A(2,1,12)             120.8812         estimate D2E/DX2                !
 ! A3    A(6,1,12)             120.8812         estimate D2E/DX2                !
 ! A4    A(1,2,3)              119.5966         estimate D2E/DX2                !
 ! A5    A(1,2,7)              120.2017         estimate D2E/DX2                !
 ! A6    A(3,2,7)              120.2017         estimate D2E/DX2                !
 ! A7    A(2,3,4)              121.3226         estimate D2E/DX2                !
 ! A8    A(2,3,13)             119.3387         estimate D2E/DX2                !
 ! A9    A(4,3,13)             119.3387         estimate D2E/DX2                !
 ! A10   A(3,4,5)              121.7137         estimate D2E/DX2                !
 ! A11   A(3,4,8)              119.1431         estimate D2E/DX2                !
 ! A12   A(5,4,8)              119.1431         estimate D2E/DX2                !
 ! A13   A(4,5,6)              120.44           estimate D2E/DX2                !
 ! A14   A(4,5,9)              119.78           estimate D2E/DX2                !
 ! A15   A(6,5,9)              119.78           estimate D2E/DX2                !
 ! A16   A(1,6,5)              118.6895         estimate D2E/DX2                !
 ! A17   A(1,6,10)             120.6553         estimate D2E/DX2                !
 ! A18   A(5,6,10)             120.6553         estimate D2E/DX2                !
 ! A19   A(6,10,17)            109.4712         estimate D2E/DX2                !
 ! A20   A(1,12,11)            120.0            estimate D2E/DX2                !
 ! A21   A(3,13,14)            109.4712         estimate D2E/DX2                !
 ! A22   A(3,13,15)            109.4712         estimate D2E/DX2                !
 ! A23   A(3,13,16)            109.4712         estimate D2E/DX2                !
 ! A24   A(14,13,15)           109.4712         estimate D2E/DX2                !
 ! A25   A(14,13,16)           109.4712         estimate D2E/DX2                !
 ! A26   A(15,13,16)           109.4712         estimate D2E/DX2                !
 ! A27   A(10,17,18)           109.4712         estimate D2E/DX2                !
 ! A28   A(10,17,19)           109.4712         estimate D2E/DX2                !
 ! A29   A(10,17,20)           109.4712         estimate D2E/DX2                !
 ! A30   A(18,17,19)           109.4712         estimate D2E/DX2                !
 ! A31   A(18,17,20)           109.4712         estimate D2E/DX2                !
 ! A32   A(19,17,20)           109.4712         estimate D2E/DX2                !
 ! D1    D(6,1,2,3)              0.0001         estimate D2E/DX2                !
 ! D2    D(6,1,2,7)            180.0            estimate D2E/DX2                !
 ! D3    D(12,1,2,3)           179.9999         estimate D2E/DX2                !
 ! D4    D(12,1,2,7)            -0.0003         estimate D2E/DX2                !
 ! D5    D(2,1,6,5)              0.0            estimate D2E/DX2                !
 ! D6    D(2,1,6,10)           179.9999         estimate D2E/DX2                !
 ! D7    D(12,1,6,5)          -179.9998         estimate D2E/DX2                !
 ! D8    D(12,1,6,10)            0.0002         estimate D2E/DX2                !
 ! D9    D(2,1,12,11)         -179.9999         estimate D2E/DX2                !
 ! D10   D(6,1,12,11)           -0.0002         estimate D2E/DX2                !
 ! D11   D(1,2,3,4)             -0.0003         estimate D2E/DX2                !
 ! D12   D(1,2,3,13)           179.9997         estimate D2E/DX2                !
 ! D13   D(7,2,3,4)            179.9999         estimate D2E/DX2                !
 ! D14   D(7,2,3,13)            -0.0001         estimate D2E/DX2                !
 ! D15   D(2,3,4,5)              0.0003         estimate D2E/DX2                !
 ! D16   D(2,3,4,8)           -179.9998         estimate D2E/DX2                !
 ! D17   D(13,3,4,5)          -179.9997         estimate D2E/DX2                !
 ! D18   D(13,3,4,8)             0.0002         estimate D2E/DX2                !
 ! D19   D(2,3,13,14)           30.0            estimate D2E/DX2                !
 ! D20   D(2,3,13,15)          150.0            estimate D2E/DX2                !
 ! D21   D(2,3,13,16)          -90.0            estimate D2E/DX2                !
 ! D22   D(4,3,13,14)         -150.0            estimate D2E/DX2                !
 ! D23   D(4,3,13,15)          -30.0            estimate D2E/DX2                !
 ! D24   D(4,3,13,16)           90.0            estimate D2E/DX2                !
 ! D25   D(3,4,5,6)             -0.0001         estimate D2E/DX2                !
 ! D26   D(3,4,5,9)            180.0            estimate D2E/DX2                !
 ! D27   D(8,4,5,6)            179.9999         estimate D2E/DX2                !
 ! D28   D(8,4,5,9)              0.0            estimate D2E/DX2                !
 ! D29   D(4,5,6,1)              0.0            estimate D2E/DX2                !
 ! D30   D(4,5,6,10)          -179.9999         estimate D2E/DX2                !
 ! D31   D(9,5,6,1)            179.9999         estimate D2E/DX2                !
 ! D32   D(9,5,6,10)            -0.0001         estimate D2E/DX2                !
 ! D33   D(1,6,10,17)         -150.0            estimate D2E/DX2                !
 ! D34   D(5,6,10,17)           30.0            estimate D2E/DX2                !
 ! D35   D(6,10,17,18)        -180.0            estimate D2E/DX2                !
 ! D36   D(6,10,17,19)         -60.0            estimate D2E/DX2                !
 ! D37   D(6,10,17,20)          60.0            estimate D2E/DX2                !
 --------------------------------------------------------------------------------
 Trust Radius=3.00D-01 FncErr=1.00D-07 GrdErr=1.00D-06 EigMax=2.50D+02 EigMin=1.00D-04
 Number of steps in this run=     99 maximum allowed number of steps=    120.
 GradGradGradGradGradGradGradGradGradGradGradGradGradGradGradGradGradGrad

                          Input orientation:                          
 ---------------------------------------------------------------------
 Center     Atomic      Atomic             Coordinates (Angstroms)
 Number     Number       Type             X           Y           Z
 ---------------------------------------------------------------------
      1          6           0       -0.686146   -0.856517    0.358130
      2          6           0        0.693559   -1.025825    0.254612
      3          6           0        1.517582    0.095367    0.059151
      4          6           0        0.976600    1.396719   -0.035283
      5          6           0       -0.364142    1.623890    0.058462
      6          6           0       -1.250985    0.560400    0.253173
      7          1           0        1.122541   -2.003638    0.323577
      8          1           0        1.636419    2.225778   -0.184286
      9          1           0       -0.740518    2.622629   -0.017445
     10          8           0       -2.658389    0.793457    0.352170
     11          1           0       -2.421051   -1.746169    0.608837
     12          8           0       -1.472599   -1.877328    0.539291
     13          6           0        3.041103   -0.098523   -0.054394
     14          1           0        3.247828   -1.059560   -0.476970
     15          1           0        3.451726    0.663484   -0.683388
     16          1           0        3.482304   -0.034207    0.918286
     17          6           0       -3.006879    1.943181   -0.423452
     18          1           0       -4.059971    2.117567   -0.349377
     19          1           0       -2.477222    2.796428   -0.054218
     20          1           0       -2.744202    1.775833   -1.447119
 ---------------------------------------------------------------------
                    Distance matrix (angstroms):
                    1          2          3          4          5
     1  C    0.000000
     2  C    1.393904   0.000000
     3  C    2.419068   1.405095   0.000000
     4  C    2.827822   2.456191   1.412479   0.000000
     5  C    2.519108   2.859755   2.424308   1.363079   0.000000
     6  C    1.528958   2.509455   2.814048   2.396826   1.398361
     7  H    2.142062   1.070000   2.152163   3.422355   3.929310
     8  H    3.897315   3.413875   2.147564   1.070000   2.103197
     9  H    3.499781   3.929607   3.389976   2.109898   1.070000
    10  O    2.571418   3.815083   4.244046   3.705022   2.457529
    11  H    1.965764   3.216390   4.382493   4.672973   3.986363
    12  O    1.301300   2.344854   3.614311   4.128934   3.703836
    13  C    3.825848   2.542899   1.540000   2.549173   3.817739
    14  H    4.026757   2.657187   2.148263   3.374444   4.531437
    15  H    4.529586   3.367655   2.148263   2.661564   4.004194
    16  H    4.285551   3.033294   2.148263   3.038979   4.275948
    17  C    3.719540   4.792495   4.911015   4.039480   2.705225
    18  H    4.552848   5.730773   5.946872   5.097580   3.750893
    19  H    4.089253   4.975826   4.823592   3.726718   2.419224
    20  H    3.797866   4.750092   4.822408   3.997671   2.820381
                    6          7          8          9         10
     6  C    0.000000
     7  H    3.494692   0.000000
     8  H    3.361838   4.290683   0.000000
     9  H    2.141635   4.998963   2.415607   0.000000
    10  O    1.430000   4.703189   4.559024   2.675951   0.000000
    11  H    2.610711   3.564366   5.733103   4.722586   2.563573
    12  O    2.464445   2.607151   5.198560   4.592984   2.928173
    13  C    4.353251   2.730056   2.718894   4.659044   5.783176
    14  H    4.837013   2.459472   3.670933   5.447622   6.245361
    15  H    4.796172   3.681389   2.446468   4.675109   6.198611
    16  H    4.816634   3.130626   3.119373   5.076081   6.222027
    17  C    2.335180   5.760863   4.658033   2.400600   1.430000
    18  H    3.267757   6.655495   5.699808   3.374023   2.051796
    19  H    2.568651   6.011793   4.155069   1.745765   2.051796
    20  H    2.568651   5.689593   4.581161   2.603033   2.051796
                   11         12         13         14         15
    11  H    0.000000
    12  O    0.960000   0.000000
    13  C    5.743669   4.887751   0.000000
    14  H    5.812624   4.897342   1.070000   0.000000
    15  H    6.478101   5.674474   1.070000   1.747303   0.000000
    16  H    6.154362   5.300169   1.070000   1.747303   1.747303
    17  C    3.875580   4.228141   6.393969   6.938348   6.589292
    18  H    4.304960   4.841838   7.444683   7.969588   7.658427
    19  H    4.591077   4.817210   6.231584   6.915458   6.332276
    20  H    4.090951   4.348376   6.238801   6.699632   6.341146
                   16         17         18         19         20
    16  H    0.000000
    17  C    6.915187   0.000000
    18  H    7.944999   1.070000   0.000000
    19  H    6.668898   1.070000   1.747303   0.000000
    20  H    6.902229   1.070000   1.747303   1.747303   0.000000
 Stoichiometry    C8H10O2
 Framework group  C1[X(C8H10O2)]
 Deg. of freedom    54
 Full point group                 C1      NOp   1
 Largest Abelian subgroup         C1      NOp   1
 Largest concise Abelian subgroup C1      NOp   1
                         Standard orientation:                         
 ---------------------------------------------------------------------
 Center     Atomic      Atomic             Coordinates (Angstroms)
 Number     Number       Type             X           Y           Z
 ---------------------------------------------------------------------
      1          6           0       -0.036432    1.202258   -0.018291
      2          6           0        1.342529    1.015818    0.063402
      3          6           0        1.870658   -0.285512    0.019663
      4          6           0        1.031458   -1.414709   -0.105852
      5          6           0       -0.323703   -1.294521   -0.189980
      6          6           0       -0.926702   -0.033373   -0.153747
      7          1           0        1.994907    1.858549    0.158837
      8          1           0        1.470954   -2.389827   -0.135671
      9          1           0       -0.930122   -2.171018   -0.284371
     10          8           0       -2.347934    0.098057   -0.241647
     11          1           0       -1.503900    2.510080   -0.037548
     12          8           0       -0.552389    2.396295    0.019727
     13          6           0        3.395033   -0.484635    0.110390
     14          1           0        3.823553    0.303296    0.693859
     15          1           0        3.604808   -1.426084    0.573605
     16          1           0        3.815881   -0.469468   -0.873254
     17          6           0       -2.969496   -1.059567    0.322682
     18          1           0       -4.032935   -0.961225    0.256910
     19          1           0       -2.657818   -1.930039   -0.215867
     20          1           0       -2.682819   -1.153632    1.349263
 ---------------------------------------------------------------------
 Rotational constants (GHZ):           2.3136749           0.9819557           0.7025578
 Standard basis: 6-311G(d,p) (5D, 7F)
 There are   250 symmetry adapted cartesian basis functions of A   symmetry.
 There are   240 symmetry adapted basis functions of A   symmetry.
   240 basis functions,   400 primitive gaussians,   250 cartesian basis functions
    37 alpha electrons       37 beta electrons
       nuclear repulsion energy       512.6205290253 Hartrees.
 NAtoms=   20 NActive=   20 NUniq=   20 SFac= 1.00D+00 NAtFMM=   60 NAOKFM=F Big=F
 Integral buffers will be    131072 words long.
 Raffenetti 2 integral format.
 Two-electron integral symmetry is turned on.
 One-electron integrals computed using PRISM.
 NBasis=   240 RedAO= T EigKep=  2.12D-04  NBF=   240
 NBsUse=   240 1.00D-06 EigRej= -1.00D+00 NBFU=   240
 ExpMin= 1.03D-01 ExpMax= 8.59D+03 ExpMxC= 1.30D+03 IAcc=3 IRadAn=         5 AccDes= 0.00D+00
 Harris functional with IExCor=  402 and IRadAn=       5 diagonalized for initial guess.
 HarFok:  IExCor=  402 AccDes= 0.00D+00 IRadAn=         5 IDoV= 1 UseB2=F ITyADJ=14
 ICtDFT=  3500011 ScaDFX=  1.000000  1.000000  1.000000  1.000000
 FoFCou: FMM=F IPFlag=           0 FMFlag=      100000 FMFlg1=           0
         NFxFlg=           0 DoJE=T BraDBF=F KetDBF=T FulRan=T
         wScrn=  0.000000 ICntrl=       500 IOpCl=  0 I1Cent=   200000004 NGrid=           0
         NMat0=    1 NMatS0=      1 NMatT0=    0 NMatD0=    1 NMtDS0=    0 NMtDT0=    0
 Petite list used in FoFCou.
 Requested convergence on RMS density matrix=1.00D-08 within 128 cycles.
 Requested convergence on MAX density matrix=1.00D-06.
 Requested convergence on             energy=1.00D-06.
 No special actions if energy rises.
 Integral accuracy reduced to 1.0D-05 until final iterations.
 Initial convergence to 1.0D-05 achieved.  Increase integral accuracy.
 SCF Done:  E(RB3LYP) =  -461.401637159     A.U. after   14 cycles
            NFock= 14  Conv=0.86D-08     -V/T= 2.0037

 **********************************************************************

            Population analysis using the SCF Density.

 **********************************************************************

 Orbital symmetries:
       Occupied  (A) (A) (A) (A) (A) (A) (A) (A) (A) (A) (A) (A)
                 (A) (A) (A) (A) (A) (A) (A) (A) (A) (A) (A) (A)
                 (A) (A) (A) (A) (A) (A) (A) (A) (A) (A) (A) (A)
                 (A)
       Virtual   (A) (A) (A) (A) (A) (A) (A) (A) (A) (A) (A) (A)
                 (A) (A) (A) (A) (A) (A) (A) (A) (A) (A) (A) (A)
                 (A) (A) (A) (A) (A) (A) (A) (A) (A) (A) (A) (A)
                 (A) (A) (A) (A) (A) (A) (A) (A) (A) (A) (A) (A)
                 (A) (A) (A) (A) (A) (A) (A) (A) (A) (A) (A) (A)
                 (A) (A) (A) (A) (A) (A) (A) (A) (A) (A) (A) (A)
                 (A) (A) (A) (A) (A) (A) (A) (A) (A) (A) (A) (A)
                 (A) (A) (A) (A) (A) (A) (A) (A) (A) (A) (A) (A)
                 (A) (A) (A) (A) (A) (A) (A) (A) (A) (A) (A) (A)
                 (A) (A) (A) (A) (A) (A) (A) (A) (A) (A) (A) (A)
                 (A) (A) (A) (A) (A) (A) (A) (A) (A) (A) (A) (A)
                 (A) (A) (A) (A) (A) (A) (A) (A) (A) (A) (A) (A)
                 (A) (A) (A) (A) (A) (A) (A) (A) (A) (A) (A) (A)
                 (A) (A) (A) (A) (A) (A) (A) (A) (A) (A) (A) (A)
                 (A) (A) (A) (A) (A) (A) (A) (A) (A) (A) (A) (A)
                 (A) (A) (A) (A) (A) (A) (A) (A) (A) (A) (A) (A)
                 (A) (A) (A) (A) (A) (A) (A) (A) (A) (A) (A)
 The electronic state is 1-A.
 Alpha  occ. eigenvalues --  -19.15106 -19.14779 -10.24682 -10.23158 -10.21501
 Alpha  occ. eigenvalues --  -10.17709 -10.16580 -10.16285 -10.15640 -10.15558
 Alpha  occ. eigenvalues --   -1.08541  -1.04665  -0.84348  -0.76197  -0.74626
 Alpha  occ. eigenvalues --   -0.71476  -0.66660  -0.63015  -0.59583  -0.54238
 Alpha  occ. eigenvalues --   -0.51507  -0.49041  -0.47353  -0.45554  -0.44350
 Alpha  occ. eigenvalues --   -0.43006  -0.42530  -0.41231  -0.40101  -0.37093
 Alpha  occ. eigenvalues --   -0.36822  -0.34982  -0.34180  -0.32845  -0.30127
 Alpha  occ. eigenvalues --   -0.24159  -0.19929
 Alpha virt. eigenvalues --   -0.00034   0.00840   0.03776   0.04869   0.06018
 Alpha virt. eigenvalues --    0.08204   0.09525   0.10596   0.11043   0.11905
 Alpha virt. eigenvalues --    0.12276   0.14392   0.16887   0.17897   0.18462
 Alpha virt. eigenvalues --    0.22737   0.23890   0.26636   0.27536   0.29316
 Alpha virt. eigenvalues --    0.30261   0.32288   0.34212   0.34753   0.37345
 Alpha virt. eigenvalues --    0.37861   0.39872   0.40545   0.41766   0.42641
 Alpha virt. eigenvalues --    0.43784   0.45185   0.46979   0.47358   0.48592
 Alpha virt. eigenvalues --    0.49420   0.49641   0.51370   0.52466   0.54024
 Alpha virt. eigenvalues --    0.56899   0.57610   0.57976   0.58631   0.59985
 Alpha virt. eigenvalues --    0.61496   0.62639   0.63946   0.64398   0.64661
 Alpha virt. eigenvalues --    0.65299   0.68181   0.68593   0.73779   0.74884
 Alpha virt. eigenvalues --    0.77840   0.79780   0.80737   0.83517   0.83998
 Alpha virt. eigenvalues --    0.87174   0.88297   0.89730   0.91959   0.94563
 Alpha virt. eigenvalues --    0.95425   0.97370   1.00440   1.02142   1.04034
 Alpha virt. eigenvalues --    1.06987   1.09077   1.13300   1.14365   1.16015
 Alpha virt. eigenvalues --    1.20649   1.22045   1.26063   1.31531   1.34926
 Alpha virt. eigenvalues --    1.36297   1.36897   1.40737   1.42497   1.43911
 Alpha virt. eigenvalues --    1.45553   1.46926   1.47678   1.48563   1.50751
 Alpha virt. eigenvalues --    1.52939   1.53816   1.54869   1.56528   1.57667
 Alpha virt. eigenvalues --    1.58641   1.59017   1.60830   1.62162   1.63988
 Alpha virt. eigenvalues --    1.65157   1.67265   1.67853   1.69940   1.71840
 Alpha virt. eigenvalues --    1.74395   1.78817   1.79761   1.82684   1.87109
 Alpha virt. eigenvalues --    1.88153   1.89278   1.89606   1.91818   1.93852
 Alpha virt. eigenvalues --    1.96500   1.99202   2.01236   2.02455   2.03974
 Alpha virt. eigenvalues --    2.07265   2.09137   2.12142   2.14958   2.16708
 Alpha virt. eigenvalues --    2.21537   2.25252   2.28440   2.31085   2.33625
 Alpha virt. eigenvalues --    2.36708   2.38315   2.40053   2.41650   2.44426
 Alpha virt. eigenvalues --    2.48374   2.48822   2.51208   2.51805   2.53739
 Alpha virt. eigenvalues --    2.55307   2.57208   2.59371   2.60325   2.61605
 Alpha virt. eigenvalues --    2.66585   2.67190   2.67953   2.70547   2.72393
 Alpha virt. eigenvalues --    2.74045   2.80232   2.83879   2.84211   2.85659
 Alpha virt. eigenvalues --    2.87305   2.88683   2.90895   2.92766   3.03041
 Alpha virt. eigenvalues --    3.04570   3.06956   3.08834   3.12558   3.15198
 Alpha virt. eigenvalues --    3.18171   3.24473   3.26800   3.32082   3.35130
 Alpha virt. eigenvalues --    3.40309   3.52820   3.55891   3.60239   3.61675
 Alpha virt. eigenvalues --    3.81450   3.83158   3.84922   3.86350   3.91280
 Alpha virt. eigenvalues --    3.98358   4.03158   4.05819   4.11097   4.16105
 Alpha virt. eigenvalues --    4.29896   4.79378   4.81453   4.92551   5.25299
 Alpha virt. eigenvalues --    5.26350   5.63724   5.81376  23.48899  23.72678
 Alpha virt. eigenvalues --   23.88636  23.92063  23.95895  24.01138  24.10500
 Alpha virt. eigenvalues --   24.22272  49.89031  49.94000
          Condensed to atoms (all electrons):
               1          2          3          4          5          6
     1  C    4.723418   0.526571  -0.050680  -0.040886   0.004762   0.356453
     2  C    0.526571   4.899922   0.518121  -0.051254  -0.036986  -0.067564
     3  C   -0.050680   0.518121   5.040577   0.532903  -0.045224  -0.047305
     4  C   -0.040886  -0.051254   0.532903   4.877247   0.442193  -0.014387
     5  C    0.004762  -0.036986  -0.045224   0.442193   5.091725   0.323068
     6  C    0.356453  -0.067564  -0.047305  -0.014387   0.323068   5.279571
     7  H   -0.037912   0.400514  -0.042403   0.008637  -0.002773   0.012758
     8  H   -0.000320   0.006802  -0.047836   0.415318  -0.035165   0.008655
     9  H    0.003267  -0.000302   0.008770  -0.024701   0.417555  -0.057470
    10  O   -0.047799   0.003022  -0.000529   0.007444  -0.068181   0.328662
    11  H   -0.047460   0.005946  -0.000183  -0.000436   0.002765  -0.015305
    12  O    0.400538  -0.059867   0.003279  -0.000308   0.006806  -0.084656
    13  C    0.007045  -0.058476   0.356865  -0.056798   0.008041  -0.000603
    14  H    0.000810  -0.006212  -0.037461   0.005050  -0.000328  -0.000102
    15  H   -0.000421   0.005395  -0.036813  -0.006767   0.000670   0.000056
    16  H   -0.000376  -0.001861  -0.036757  -0.002969  -0.000358   0.000113
    17  C    0.003424  -0.000287   0.000001   0.000148  -0.023540  -0.073264
    18  H   -0.000354   0.000016   0.000001  -0.000010   0.002168   0.006367
    19  H   -0.000941  -0.000030   0.000036  -0.000082  -0.005966  -0.021109
    20  H    0.002665  -0.000280  -0.000055  -0.001043   0.002789  -0.000575
               7          8          9         10         11         12
     1  C   -0.037912  -0.000320   0.003267  -0.047799  -0.047460   0.400538
     2  C    0.400514   0.006802  -0.000302   0.003022   0.005946  -0.059867
     3  C   -0.042403  -0.047836   0.008770  -0.000529  -0.000183   0.003279
     4  C    0.008637   0.415318  -0.024701   0.007444  -0.000436  -0.000308
     5  C   -0.002773  -0.035165   0.417555  -0.068181   0.002765   0.006806
     6  C    0.012758   0.008655  -0.057470   0.328662  -0.015305  -0.084656
     7  H    0.572709  -0.000325   0.000069  -0.000091  -0.000968   0.004971
     8  H   -0.000325   0.590392  -0.009740  -0.000116  -0.000001   0.000008
     9  H    0.000069  -0.009740   0.582175  -0.007399   0.000024  -0.000034
    10  O   -0.000091  -0.000116  -0.007399   7.985414   0.013685  -0.000086
    11  H   -0.000968  -0.000001   0.000024   0.013685   0.436041   0.332490
    12  O    0.004971   0.000008  -0.000034  -0.000086   0.332490   7.740531
    13  C   -0.009584  -0.007729  -0.000361  -0.000001   0.000024  -0.000069
    14  H    0.002151   0.000053   0.000025  -0.000000   0.000001  -0.000020
    15  H    0.000203   0.002500  -0.000017  -0.000000  -0.000001   0.000003
    16  H    0.000467   0.000514   0.000012  -0.000000  -0.000000   0.000002
    17  C    0.000017   0.000038  -0.007435   0.275072  -0.000668  -0.000155
    18  H   -0.000001  -0.000001   0.000302  -0.018650  -0.000073   0.000005
    19  H   -0.000001   0.000105  -0.001136  -0.034784   0.000222  -0.000029
    20  H    0.000004  -0.000025   0.001785  -0.039055  -0.000075  -0.000031
              13         14         15         16         17         18
     1  C    0.007045   0.000810  -0.000421  -0.000376   0.003424  -0.000354
     2  C   -0.058476  -0.006212   0.005395  -0.001861  -0.000287   0.000016
     3  C    0.356865  -0.037461  -0.036813  -0.036757   0.000001   0.000001
     4  C   -0.056798   0.005050  -0.006767  -0.002969   0.000148  -0.000010
     5  C    0.008041  -0.000328   0.000670  -0.000358  -0.023540   0.002168
     6  C   -0.000603  -0.000102   0.000056   0.000113  -0.073264   0.006367
     7  H   -0.009584   0.002151   0.000203   0.000467   0.000017  -0.000001
     8  H   -0.007729   0.000053   0.002500   0.000514   0.000038  -0.000001
     9  H   -0.000361   0.000025  -0.000017   0.000012  -0.007435   0.000302
    10  O   -0.000001  -0.000000  -0.000000  -0.000000   0.275072  -0.018650
    11  H    0.000024   0.000001  -0.000001  -0.000000  -0.000668  -0.000073
    12  O   -0.000069  -0.000020   0.000003   0.000002  -0.000155   0.000005
    13  C    4.797890   0.409647   0.410652   0.402273   0.000001  -0.000000
    14  H    0.409647   0.572730  -0.027644  -0.028492  -0.000000   0.000000
    15  H    0.410652  -0.027644   0.568594  -0.027189   0.000001   0.000000
    16  H    0.402273  -0.028492  -0.027189   0.568373  -0.000000  -0.000000
    17  C    0.000001  -0.000000   0.000001  -0.000000   4.731148   0.399381
    18  H   -0.000000   0.000000   0.000000  -0.000000   0.399381   0.549166
    19  H    0.000002  -0.000001  -0.000001   0.000001   0.415024  -0.030655
    20  H    0.000001   0.000001   0.000001  -0.000001   0.402499  -0.026529
              19         20
     1  C   -0.000941   0.002665
     2  C   -0.000030  -0.000280
     3  C    0.000036  -0.000055
     4  C   -0.000082  -0.001043
     5  C   -0.005966   0.002789
     6  C   -0.021109  -0.000575
     7  H   -0.000001   0.000004
     8  H    0.000105  -0.000025
     9  H   -0.001136   0.001785
    10  O   -0.034784  -0.039055
    11  H    0.000222  -0.000075
    12  O   -0.000029  -0.000031
    13  C    0.000002   0.000001
    14  H   -0.000001   0.000001
    15  H   -0.000001   0.000001
    16  H    0.000001  -0.000001
    17  C    0.415024   0.402499
    18  H   -0.030655  -0.026529
    19  H    0.625790  -0.054138
    20  H   -0.054138   0.595258
 Mulliken charges:
               1
     1  C    0.198196
     2  C   -0.083189
     3  C   -0.115307
     4  C   -0.089299
     5  C   -0.084022
     6  C    0.066637
     7  H    0.091558
     8  H    0.076870
     9  H    0.094610
    10  O   -0.396607
    11  H    0.273971
    12  O   -0.343377
    13  C   -0.258819
    14  H    0.109792
    15  H    0.110779
    16  H    0.126248
    17  C   -0.121402
    18  H    0.118868
    19  H    0.107692
    20  H    0.116802
 Sum of Mulliken charges =  -0.00000
 Mulliken charges with hydrogens summed into heavy atoms:
               1
     1  C    0.198196
     2  C    0.008369
     3  C   -0.115307
     4  C   -0.012429
     5  C    0.010588
     6  C    0.066637
    10  O   -0.396607
    12  O   -0.069407
    13  C    0.088000
    17  C    0.221959
 Electronic spatial extent (au):  <R**2>=           1625.5455
 Charge=             -0.0000 electrons
 Dipole moment (field-independent basis, Debye):
    X=             -1.1926    Y=             -1.0324    Z=              0.5783  Tot=              1.6800
 Quadrupole moment (field-independent basis, Debye-Ang):
   XX=            -51.3004   YY=            -55.6111   ZZ=            -62.6117
   XY=              0.5077   XZ=             -1.5815   YZ=             -0.0731
 Traceless Quadrupole moment (field-independent basis, Debye-Ang):
   XX=              5.2073   YY=              0.8966   ZZ=             -6.1040
   XY=              0.5077   XZ=             -1.5815   YZ=             -0.0731
 Octapole moment (field-independent basis, Debye-Ang**2):
  XXX=            -25.7221  YYY=              4.1170  ZZZ=              0.4486  XYY=            -16.7417
  XXY=              1.8022  XXZ=              5.6122  XZZ=             -6.2410  YZZ=              4.2572
  YYZ=             -1.1411  XYZ=              1.2003
 Hexadecapole moment (field-independent basis, Debye-Ang**3):
 XXXX=          -1381.1449 YYYY=           -581.4712 ZZZZ=            -89.1522 XXXY=             16.8671
 XXXZ=            -13.6764 YYYX=            -31.6350 YYYZ=              0.2765 ZZZX=             -2.3355
 ZZZY=             -1.6834 XXYY=           -297.9759 XXZZ=           -260.4296 YYZZ=           -119.2512
 XXYZ=             -0.9035 YYXZ=              4.5377 ZZXY=             -1.4680
 N-N= 5.126205290253D+02 E-N=-2.102247371895D+03  KE= 4.596831259523D+02
 Calling FoFJK, ICntrl=      2127 FMM=F ISym2X=0 I1Cent= 0 IOpClX= 0 NMat=1 NMatS=1 NMatT=0.
 ***** Axes restored to original set *****
 -------------------------------------------------------------------
 Center     Atomic                   Forces (Hartrees/Bohr)
 Number     Number              X              Y              Z
 -------------------------------------------------------------------
      1        6          -0.015730373    0.096250133   -0.008500717
      2        6          -0.009510666    0.024504503   -0.000934860
      3        6           0.010807850    0.009464187   -0.003561088
      4        6           0.028747665   -0.028149871    0.001170355
      5        6          -0.025244911   -0.019817118    0.005712111
      6        6           0.010032425   -0.034937822    0.005849623
      7        1           0.000933223   -0.009878790    0.000559678
      8        1           0.007470847    0.007046038   -0.001738481
      9        1           0.001787013    0.005964553   -0.000269590
     10        8           0.031397714   -0.014688862   -0.005403458
     11        1           0.001226970    0.016894379   -0.002328256
     12        8          -0.016950202   -0.054726379    0.007776178
     13        6          -0.033908305    0.003605365    0.001132204
     14        1           0.006091590   -0.012832569   -0.005297662
     15        1           0.008307326    0.009440495   -0.007739392
     16        1           0.009644071    0.000307276    0.013578539
     17        6          -0.003609451   -0.010596624    0.008544204
     18        1          -0.013964610   -0.002071394    0.004757359
     19        1          -0.001347320    0.014571499    0.003336827
     20        1           0.003819146   -0.000348998   -0.016643574
 -------------------------------------------------------------------
 Cartesian Forces:  Max     0.096250133 RMS     0.019352724

 GradGradGradGradGradGradGradGradGradGradGradGradGradGradGradGradGradGrad
 Berny optimization.
 FormGI is forming the generalized inverse of G from B-inverse, IUseBI=4.
 Internal  Forces:  Max     0.069879660 RMS     0.014922446
 Search for a local minimum.
 Step number   1 out of a maximum of   99
 All quantities printed in internal units (Hartrees-Bohrs-Radians)
 Mixed Optimization -- RFO/linear search
 Second derivative matrix not updated -- first step.
 ITU=  0
     Eigenvalues ---    0.00237   0.01031   0.01250   0.01295   0.01295
     Eigenvalues ---    0.01446   0.01694   0.02010   0.02097   0.02223
     Eigenvalues ---    0.02277   0.02374   0.02997   0.07243   0.07243
     Eigenvalues ---    0.10344   0.10344   0.16000   0.16000   0.16000
     Eigenvalues ---    0.16000   0.16000   0.16000   0.16000   0.16000
     Eigenvalues ---    0.16000   0.16000   0.22348   0.23490   0.24562
     Eigenvalues ---    0.25000   0.25000   0.25000   0.25000   0.28519
     Eigenvalues ---    0.29164   0.37230   0.37230   0.37230   0.37230
     Eigenvalues ---    0.37230   0.37230   0.37230   0.37230   0.37230
     Eigenvalues ---    0.40989   0.40989   0.41814   0.42564   0.45258
     Eigenvalues ---    0.45885   0.51170   0.55473   0.66833
 RFO step:  Lambda=-5.80373774D-02 EMin= 2.36824212D-03
 Linear search not attempted -- first point.
 Maximum step size (   0.300) exceeded in Quadratic search.
    -- Step size scaled by   0.715
 Iteration  1 RMS(Cart)=  0.15518105 RMS(Int)=  0.00975123
 Iteration  2 RMS(Cart)=  0.02657257 RMS(Int)=  0.00030777
 Iteration  3 RMS(Cart)=  0.00046472 RMS(Int)=  0.00020767
 Iteration  4 RMS(Cart)=  0.00000020 RMS(Int)=  0.00020767
 Variable       Old X    -DE/DX   Delta X   Delta X   Delta X     New X
                                 (Linear)    (Quad)   (Total)
    R1        2.63410  -0.00365   0.00000  -0.00657  -0.00647   2.62762
    R2        2.88931  -0.06988   0.00000  -0.14263  -0.14266   2.74665
    R3        2.45910   0.03994   0.00000   0.03930   0.03930   2.49840
    R4        2.65525  -0.00634   0.00000  -0.00968  -0.00956   2.64569
    R5        2.02201   0.00944   0.00000   0.01567   0.01567   2.03768
    R6        2.66920  -0.02181   0.00000  -0.03063  -0.03060   2.63860
    R7        2.91018  -0.00995   0.00000  -0.02072  -0.02072   2.88946
    R8        2.57585   0.03149   0.00000   0.04015   0.04006   2.61590
    R9        2.02201   0.01031   0.00000   0.01712   0.01712   2.03913
   R10        2.64252  -0.00507   0.00000  -0.00621  -0.00634   2.63619
   R11        2.02201   0.00496   0.00000   0.00823   0.00823   2.03024
   R12        2.70231  -0.01855   0.00000  -0.02834  -0.02834   2.67397
   R13        2.70231   0.00493   0.00000   0.00753   0.00753   2.70984
   R14        1.81414   0.00093   0.00000   0.00108   0.00108   1.81522
   R15        2.02201   0.01480   0.00000   0.02457   0.02457   2.04658
   R16        2.02201   0.01446   0.00000   0.02402   0.02402   2.04602
   R17        2.02201   0.01634   0.00000   0.02713   0.02713   2.04914
   R18        2.02201   0.01374   0.00000   0.02281   0.02281   2.04482
   R19        2.02201   0.01210   0.00000   0.02010   0.02010   2.04211
   R20        2.02201   0.01691   0.00000   0.02809   0.02809   2.05010
    A1        2.06364   0.00904   0.00000   0.01633   0.01640   2.08003
    A2        2.10977  -0.00211   0.00000  -0.00258  -0.00261   2.10716
    A3        2.10977  -0.00693   0.00000  -0.01375  -0.01378   2.09599
    A4        2.08735   0.00971   0.00000   0.02013   0.02036   2.10771
    A5        2.09792  -0.00797   0.00000  -0.02029  -0.02040   2.07751
    A6        2.09792  -0.00174   0.00000   0.00016   0.00004   2.09796
    A7        2.11748  -0.01279   0.00000  -0.02973  -0.02957   2.08791
    A8        2.08285   0.00544   0.00000   0.01264   0.01255   2.09540
    A9        2.08285   0.00736   0.00000   0.01710   0.01701   2.09986
   A10        2.12431  -0.00654   0.00000  -0.01234  -0.01240   2.11191
   A11        2.07944   0.00179   0.00000   0.00134   0.00137   2.08081
   A12        2.07944   0.00474   0.00000   0.01100   0.01103   2.09047
   A13        2.10207   0.00021   0.00000   0.00495   0.00473   2.10681
   A14        2.09056  -0.00389   0.00000  -0.01487  -0.01476   2.07580
   A15        2.09056   0.00367   0.00000   0.00991   0.01002   2.10058
   A16        2.07152   0.00037   0.00000   0.00066   0.00047   2.07199
   A17        2.10583  -0.04377   0.00000  -0.10147  -0.10140   2.00443
   A18        2.10583   0.04341   0.00000   0.10080   0.10085   2.20668
   A19        1.91063   0.06240   0.00000   0.14479   0.14479   2.05542
   A20        2.09440  -0.03097   0.00000  -0.10150  -0.10150   1.99289
   A21        1.91063   0.00348   0.00000   0.01157   0.01150   1.92214
   A22        1.91063   0.00291   0.00000   0.00967   0.00961   1.92024
   A23        1.91063   0.00319   0.00000   0.01017   0.01012   1.92075
   A24        1.91063  -0.00286   0.00000  -0.00881  -0.00887   1.90176
   A25        1.91063  -0.00348   0.00000  -0.01166  -0.01171   1.89892
   A26        1.91063  -0.00324   0.00000  -0.01095  -0.01099   1.89964
   A27        1.91063  -0.01293   0.00000  -0.04583  -0.04574   1.86489
   A28        1.91063   0.01115   0.00000   0.03786   0.03757   1.94820
   A29        1.91063   0.00495   0.00000   0.01836   0.01798   1.92861
   A30        1.91063  -0.00373   0.00000  -0.01648  -0.01630   1.89433
   A31        1.91063   0.00112   0.00000   0.00106   0.00104   1.91167
   A32        1.91063  -0.00056   0.00000   0.00504   0.00436   1.91499
    D1        0.00000   0.00020   0.00000   0.00178   0.00165   0.00165
    D2        3.14159   0.00020   0.00000   0.00181   0.00183  -3.13977
    D3        3.14159   0.00013   0.00000   0.00097   0.00073  -3.14087
    D4       -0.00000   0.00013   0.00000   0.00100   0.00090   0.00089
    D5       -0.00000  -0.00039   0.00000  -0.00381  -0.00369  -0.00369
    D6        3.14159   0.00092   0.00000   0.00938   0.00864  -3.13295
    D7       -3.14159  -0.00032   0.00000  -0.00299  -0.00277   3.13883
    D8        0.00000   0.00099   0.00000   0.01019   0.00956   0.00957
    D9       -3.14159   0.00033   0.00000   0.00278   0.00283  -3.13877
   D10       -0.00000   0.00025   0.00000   0.00194   0.00189   0.00189
   D11       -0.00000   0.00002   0.00000   0.00050   0.00057   0.00056
   D12        3.14159  -0.00047   0.00000  -0.00450  -0.00437   3.13722
   D13        3.14159   0.00003   0.00000   0.00047   0.00039  -3.14120
   D14       -0.00000  -0.00046   0.00000  -0.00453  -0.00455  -0.00455
   D15        0.00000  -0.00007   0.00000  -0.00089  -0.00077  -0.00076
   D16       -3.14159  -0.00017   0.00000  -0.00196  -0.00196   3.13964
   D17       -3.14159   0.00042   0.00000   0.00411   0.00418  -3.13740
   D18        0.00000   0.00031   0.00000   0.00305   0.00299   0.00299
   D19        0.52360   0.00013   0.00000   0.00243   0.00246   0.52606
   D20        2.61799   0.00054   0.00000   0.00465   0.00469   2.62269
   D21       -1.57080   0.00031   0.00000   0.00339   0.00342  -1.56737
   D22       -2.61799  -0.00035   0.00000  -0.00247  -0.00251  -2.62050
   D23       -0.52360   0.00006   0.00000  -0.00025  -0.00028  -0.52388
   D24        1.57080  -0.00017   0.00000  -0.00151  -0.00155   1.56925
   D25       -0.00000  -0.00013   0.00000  -0.00126  -0.00137  -0.00137
   D26        3.14159  -0.00048   0.00000  -0.00444  -0.00467   3.13692
   D27        3.14159  -0.00002   0.00000  -0.00020  -0.00016   3.14143
   D28        0.00000  -0.00037   0.00000  -0.00338  -0.00347  -0.00347
   D29        0.00000   0.00035   0.00000   0.00352   0.00355   0.00355
   D30       -3.14159  -0.00096   0.00000  -0.00966  -0.01035   3.13124
   D31        3.14159   0.00070   0.00000   0.00670   0.00690  -3.13469
   D32       -0.00000  -0.00061   0.00000  -0.00648  -0.00700  -0.00700
   D33       -2.61799   0.00155   0.00000   0.01563   0.01563  -2.60236
   D34        0.52360   0.00289   0.00000   0.02908   0.02907   0.55267
   D35       -3.14159  -0.00311   0.00000  -0.03536  -0.03520   3.10639
   D36       -1.04720  -0.00877   0.00000  -0.06043  -0.06111  -1.10831
   D37        1.04720   0.00040   0.00000  -0.01984  -0.01932   1.02788
         Item               Value     Threshold  Converged?
 Maximum Force            0.069880     0.000450     NO 
 RMS     Force            0.014922     0.000300     NO 
 Maximum Displacement     0.719547     0.001800     NO 
 RMS     Displacement     0.176563     0.001200     NO 
 Predicted change in Energy=-2.947221D-02
 GradGradGradGradGradGradGradGradGradGradGradGradGradGradGradGradGradGrad

                          Input orientation:                          
 ---------------------------------------------------------------------
 Center     Atomic      Atomic             Coordinates (Angstroms)
 Number     Number       Type             X           Y           Z
 ---------------------------------------------------------------------
      1          6           0       -0.672063   -0.725265    0.316688
      2          6           0        0.695889   -0.961202    0.236233
      3          6           0        1.595888    0.096679    0.060167
      4          6           0        1.114524    1.403903   -0.035093
      5          6           0       -0.241462    1.671734    0.040985
      6          6           0       -1.163097    0.638851    0.213586
      7          1           0        1.057500   -1.974277    0.311302
      8          1           0        1.814151    2.214449   -0.168908
      9          1           0       -0.574979    2.690402   -0.031984
     10          8           0       -2.567667    0.774660    0.318360
     11          1           0       -2.442581   -1.455599    0.524197
     12          8           0       -1.521341   -1.724638    0.483773
     13          6           0        3.097409   -0.180613   -0.020448
     14          1           0        3.273076   -1.161037   -0.445659
     15          1           0        3.579014    0.563820   -0.641846
     16          1           0        3.535618   -0.145994    0.970818
     17          6           0       -3.190512    1.847988   -0.400216
     18          1           0       -4.255365    1.765347   -0.226614
     19          1           0       -2.857989    2.812144   -0.042991
     20          1           0       -2.988456    1.761614   -1.462593
 ---------------------------------------------------------------------
                    Distance matrix (angstroms):
                    1          2          3          4          5
     1  C    0.000000
     2  C    1.390479   0.000000
     3  C    2.425901   1.400038   0.000000
     4  C    2.801607   2.417145   1.396288   0.000000
     5  C    2.450925   2.801624   2.420128   1.384276   0.000000
     6  C    1.453464   2.452858   2.815935   2.415513   1.395009
     7  H    2.133412   1.078295   2.154481   3.396371   3.879918
     8  H    3.880590   3.391077   2.141276   1.079060   2.136385
     9  H    3.434790   3.875727   3.383572   2.123561   1.074357
    10  O    2.417249   3.697399   4.226288   3.752253   2.508567
    11  H    1.926443   3.190196   4.351336   4.598103   3.854689
    12  O    1.322095   2.358012   3.635072   4.123684   3.656431
    13  C    3.823510   2.538209   1.529037   2.538255   3.818772
    14  H    4.041682   2.673350   2.156541   3.377399   4.540197
    15  H    4.544467   3.377739   2.154955   2.673499   4.036058
    16  H    4.297444   3.044378   2.156555   3.045609   4.293606
    17  C    3.671262   4.837430   5.117486   4.343255   2.987076
    18  H    4.397543   5.671263   6.091294   5.385446   4.023903
    19  H    4.173836   5.190969   5.217415   4.214744   2.855487
    20  H    3.836156   4.886117   5.109503   4.358918   3.132859
                    6          7          8          9         10
     6  C    0.000000
     7  H    3.430603   0.000000
     8  H    3.390106   4.283520   0.000000
     9  H    2.148267   4.953995   2.439922   0.000000
    10  O    1.415005   4.549565   4.637968   2.786326   0.000000
    11  H    2.473919   3.544703   5.662986   4.581113   2.243228
    12  O    2.405705   2.596630   5.202682   4.544687   2.714526
    13  C    4.344906   2.736516   2.721234   4.661469   5.755035
    14  H    4.832580   2.478532   3.687677   5.460058   6.200397
    15  H    4.819233   3.702493   2.462313   4.706372   6.224800
    16  H    4.823620   3.149389   3.135939   5.093894   6.206722
    17  C    2.439093   5.758609   5.023390   2.772412   1.433987
    18  H    3.320375   6.519255   6.086382   3.799849   2.031449
    19  H    2.767977   6.194063   4.711899   2.286280   2.089546
    20  H    2.720682   5.785616   4.994369   2.955362   2.079167
                   11         12         13         14         15
    11  H    0.000000
    12  O    0.960572   0.000000
    13  C    5.710842   4.896029   0.000000
    14  H    5.804836   4.916088   1.083003   0.000000
    15  H    6.457346   5.702427   1.082709   1.762731   0.000000
    16  H    6.136237   5.319978   1.084359   1.762285   1.762500
    17  C    3.511072   4.041190   6.617960   7.129815   6.894487
    18  H    3.771525   4.489937   7.608716   8.080169   7.936849
    19  H    4.325263   4.758834   6.665124   7.316985   6.844603
    20  H    3.820442   4.253789   6.549030   6.984471   6.726069
                   16         17         18         19         20
    16  H    0.000000
    17  C    7.148183   0.000000
    18  H    8.110887   1.082072   0.000000
    19  H    7.117345   1.080638   1.755608   0.000000
    20  H    7.219696   1.084865   1.769948   1.770849   0.000000
 Stoichiometry    C8H10O2
 Framework group  C1[X(C8H10O2)]
 Deg. of freedom    54
 Full point group                 C1      NOp   1
 Largest Abelian subgroup         C1      NOp   1
 Largest concise Abelian subgroup C1      NOp   1
                         Standard orientation:                         
 ---------------------------------------------------------------------
 Center     Atomic      Atomic             Coordinates (Angstroms)
 Number     Number       Type             X           Y           Z
 ---------------------------------------------------------------------
      1          6           0       -0.097972    1.094161   -0.026961
      2          6           0        1.287391    1.010507    0.057919
      3          6           0        1.932934   -0.231479    0.028693
      4          6           0        1.177110   -1.399727   -0.087700
      5          6           0       -0.203580   -1.350069   -0.173997
      6          6           0       -0.875729   -0.128010   -0.145065
      7          1           0        1.861995    1.918571    0.147185
      8          1           0        1.681545   -2.353326   -0.111417
      9          1           0       -0.751960   -2.269240   -0.266992
     10          8           0       -2.274700    0.063979   -0.235945
     11          1           0       -1.664022    2.215502   -0.062469
     12          8           0       -0.706880    2.267381   -0.000121
     13          6           0        3.457655   -0.304377    0.117396
     14          1           0        3.837361    0.526822    0.698625
     15          1           0        3.757570   -1.230795    0.590745
     16          1           0        3.890280   -0.262645   -0.876047
     17          6           0       -3.125501   -0.955718    0.305050
     18          1           0       -4.144474   -0.615644    0.174959
     19          1           0       -3.006586   -1.893128   -0.219260
     20          1           0       -2.922922   -1.098729    1.361195
 ---------------------------------------------------------------------
 Rotational constants (GHZ):           2.5262714           0.9388342           0.6969058
 Standard basis: 6-311G(d,p) (5D, 7F)
 There are   250 symmetry adapted cartesian basis functions of A   symmetry.
 There are   240 symmetry adapted basis functions of A   symmetry.
   240 basis functions,   400 primitive gaussians,   250 cartesian basis functions
    37 alpha electrons       37 beta electrons
       nuclear repulsion energy       513.1974867565 Hartrees.
 NAtoms=   20 NActive=   20 NUniq=   20 SFac= 1.00D+00 NAtFMM=   60 NAOKFM=F Big=F
 Integral buffers will be    131072 words long.
 Raffenetti 2 integral format.
 Two-electron integral symmetry is turned on.
 One-electron integrals computed using PRISM.
 NBasis=   240 RedAO= T EigKep=  1.96D-04  NBF=   240
 NBsUse=   240 1.00D-06 EigRej= -1.00D+00 NBFU=   240
 Initial guess from the checkpoint file:  "17.chk"
 B after Tr=    -0.000000    0.000000   -0.000000
         Rot=    0.999874    0.006739    0.003240   -0.013997 Ang=   1.82 deg.
 ExpMin= 1.03D-01 ExpMax= 8.59D+03 ExpMxC= 1.30D+03 IAcc=3 IRadAn=         5 AccDes= 0.00D+00
 Harris functional with IExCor=  402 and IRadAn=       5 diagonalized for initial guess.
 HarFok:  IExCor=  402 AccDes= 0.00D+00 IRadAn=         5 IDoV= 1 UseB2=F ITyADJ=14
 ICtDFT=  3500011 ScaDFX=  1.000000  1.000000  1.000000  1.000000
 FoFCou: FMM=F IPFlag=           0 FMFlag=      100000 FMFlg1=           0
         NFxFlg=           0 DoJE=T BraDBF=F KetDBF=T FulRan=T
         wScrn=  0.000000 ICntrl=       500 IOpCl=  0 I1Cent=   200000004 NGrid=           0
         NMat0=    1 NMatS0=      1 NMatT0=    0 NMatD0=    1 NMtDS0=    0 NMtDT0=    0
 Petite list used in FoFCou.
 Requested convergence on RMS density matrix=1.00D-08 within 128 cycles.
 Requested convergence on MAX density matrix=1.00D-06.
 Requested convergence on             energy=1.00D-06.
 No special actions if energy rises.
 Integral accuracy reduced to 1.0D-05 until final iterations.
 Initial convergence to 1.0D-05 achieved.  Increase integral accuracy.
 SCF Done:  E(RB3LYP) =  -461.426507628     A.U. after   12 cycles
            NFock= 12  Conv=0.83D-08     -V/T= 2.0039
 Calling FoFJK, ICntrl=      2127 FMM=F ISym2X=0 I1Cent= 0 IOpClX= 0 NMat=1 NMatS=1 NMatT=0.
 ***** Axes restored to original set *****
 -------------------------------------------------------------------
 Center     Atomic                   Forces (Hartrees/Bohr)
 Number     Number              X              Y              Z
 -------------------------------------------------------------------
      1        6          -0.005005032    0.051764660   -0.004205795
      2        6          -0.002001606    0.007370971    0.000374392
      3        6           0.008319233    0.000469131   -0.001909672
      4        6           0.008837897   -0.010111272    0.000546299
      5        6          -0.017107590   -0.006132631    0.001888932
      6        6          -0.000525043   -0.018701638    0.000063470
      7        1          -0.000476660   -0.004463711    0.000075145
      8        1           0.001541362    0.003342848   -0.000769321
      9        1          -0.003558411    0.005854984   -0.000704572
     10        8           0.019789381   -0.003168329   -0.001545087
     11        1           0.000036981    0.011682436   -0.001451586
     12        8          -0.009467498   -0.035318000    0.004338228
     13        6          -0.019067566    0.002785226    0.000539423
     14        1           0.003129620   -0.005071692   -0.001801269
     15        1           0.004538556    0.003341179   -0.002695927
     16        1           0.004711224   -0.000385099    0.005145705
     17        6           0.006341426   -0.009026960    0.003696776
     18        1          -0.004536340   -0.002383065    0.001866952
     19        1           0.002887339    0.007813734    0.003094821
     20        1           0.001612728    0.000337227   -0.006546914
 -------------------------------------------------------------------
 Cartesian Forces:  Max     0.051764660 RMS     0.010397493

 GradGradGradGradGradGradGradGradGradGradGradGradGradGradGradGradGradGrad
 Berny optimization.
 Using GEDIIS/GDIIS optimizer.
 FormGI is forming the generalized inverse of G from B-inverse, IUseBI=4.
 Internal  Forces:  Max     0.032498761 RMS     0.006473292
 Search for a local minimum.
 Step number   2 out of a maximum of   99
 All quantities printed in internal units (Hartrees-Bohrs-Radians)
 Mixed Optimization -- RFO/linear search
 Update second derivatives using D2CorX and points    1    2
 DE= -2.49D-02 DEPred=-2.95D-02 R= 8.44D-01
 TightC=F SS=  1.41D+00  RLast= 3.11D-01 DXNew= 5.0454D-01 9.3379D-01
 Trust test= 8.44D-01 RLast= 3.11D-01 DXMaxT set to 5.05D-01
 ITU=  1  0
 Use linear search instead of GDIIS.
     Eigenvalues ---    0.00237   0.01050   0.01269   0.01293   0.01330
     Eigenvalues ---    0.01477   0.01692   0.02013   0.02096   0.02224
     Eigenvalues ---    0.02276   0.02373   0.02997   0.07114   0.07129
     Eigenvalues ---    0.10139   0.10546   0.14465   0.16000   0.16000
     Eigenvalues ---    0.16000   0.16000   0.16000   0.16000   0.16000
     Eigenvalues ---    0.16000   0.16180   0.22331   0.23364   0.23872
     Eigenvalues ---    0.24773   0.25000   0.25000   0.25804   0.28535
     Eigenvalues ---    0.34891   0.36303   0.37230   0.37230   0.37230
     Eigenvalues ---    0.37230   0.37230   0.37230   0.37230   0.37622
     Eigenvalues ---    0.40805   0.41296   0.42417   0.45093   0.45717
     Eigenvalues ---    0.48696   0.52472   0.55659   0.65274
 RFO step:  Lambda=-1.56326750D-02 EMin= 2.36824722D-03
 Quartic linear search produced a step of  0.50737.
 Iteration  1 RMS(Cart)=  0.09466085 RMS(Int)=  0.00533985
 Iteration  2 RMS(Cart)=  0.00594312 RMS(Int)=  0.00022713
 Iteration  3 RMS(Cart)=  0.00004383 RMS(Int)=  0.00022536
 Iteration  4 RMS(Cart)=  0.00000001 RMS(Int)=  0.00022536
 Variable       Old X    -DE/DX   Delta X   Delta X   Delta X     New X
                                 (Linear)    (Quad)   (Total)
    R1        2.62762  -0.00100  -0.00328  -0.00242  -0.00569   2.62193
    R2        2.74665  -0.03250  -0.07238  -0.11473  -0.18706   2.55959
    R3        2.49840   0.02429   0.01994   0.03965   0.05958   2.55798
    R4        2.64569  -0.00042  -0.00485   0.00212  -0.00276   2.64293
    R5        2.03768   0.00404   0.00795   0.01052   0.01847   2.05616
    R6        2.63860  -0.00297  -0.01552   0.00210  -0.01346   2.62514
    R7        2.88946  -0.00675  -0.01051  -0.02713  -0.03764   2.85182
    R8        2.61590   0.01090   0.02032   0.01820   0.03851   2.65441
    R9        2.03913   0.00361   0.00869   0.00839   0.01708   2.05621
   R10        2.63619  -0.00976  -0.00321  -0.02886  -0.03204   2.60414
   R11        2.03024   0.00670   0.00418   0.02315   0.02733   2.05757
   R12        2.67397  -0.02648  -0.01438  -0.08366  -0.09803   2.57594
   R13        2.70984  -0.00624   0.00382  -0.02430  -0.02048   2.68937
   R14        1.81522   0.00318   0.00055   0.00795   0.00849   1.82371
   R15        2.04658   0.00581   0.01247   0.01447   0.02694   2.07352
   R16        2.04602   0.00586   0.01219   0.01487   0.02705   2.07308
   R17        2.04914   0.00660   0.01377   0.01669   0.03046   2.07960
   R18        2.04482   0.00495   0.01157   0.01172   0.02330   2.06812
   R19        2.04211   0.00888   0.01020   0.02773   0.03793   2.08004
   R20        2.05010   0.00669   0.01425   0.01673   0.03098   2.08108
    A1        2.08003   0.00162   0.00832  -0.00158   0.00682   2.08685
    A2        2.10716  -0.00066  -0.00132  -0.00005  -0.00142   2.10574
    A3        2.09599  -0.00096  -0.00699   0.00164  -0.00540   2.09059
    A4        2.10771   0.00151   0.01033   0.00147   0.01179   2.11950
    A5        2.07751  -0.00271  -0.01035  -0.01462  -0.02498   2.05254
    A6        2.09796   0.00120   0.00002   0.01315   0.01316   2.11111
    A7        2.08791  -0.00483  -0.01500  -0.01410  -0.02921   2.05871
    A8        2.09540   0.00156   0.00637   0.00285   0.00919   2.10459
    A9        2.09986   0.00328   0.00863   0.01119   0.01980   2.11966
   A10        2.11191  -0.00278  -0.00629  -0.00668  -0.01301   2.09890
   A11        2.08081   0.00243   0.00069   0.01345   0.01416   2.09497
   A12        2.09047   0.00035   0.00560  -0.00678  -0.00116   2.08931
   A13        2.10681  -0.00374   0.00240  -0.02182  -0.01938   2.08743
   A14        2.07580   0.00342  -0.00749   0.02735   0.01984   2.09564
   A15        2.10058   0.00032   0.00508  -0.00552  -0.00046   2.10012
   A16        2.07199   0.00822   0.00024   0.04273   0.04297   2.11496
   A17        2.00443  -0.00713  -0.05145  -0.00816  -0.05973   1.94471
   A18        2.20668  -0.00110   0.05117  -0.03479   0.01620   2.22288
   A19        2.05542  -0.00626   0.07346  -0.07843  -0.00497   2.05045
   A20        1.99289  -0.02057  -0.05150  -0.14784  -0.19934   1.79355
   A21        1.92214   0.00229   0.00584   0.01692   0.02247   1.94461
   A22        1.92024   0.00211   0.00488   0.01593   0.02053   1.94077
   A23        1.92075   0.00225   0.00514   0.01543   0.02034   1.94109
   A24        1.90176  -0.00197  -0.00450  -0.01229  -0.01711   1.88465
   A25        1.89892  -0.00247  -0.00594  -0.01888  -0.02504   1.87388
   A26        1.89964  -0.00236  -0.00558  -0.01817  -0.02394   1.87569
   A27        1.86489  -0.00351  -0.02321  -0.01904  -0.04220   1.82269
   A28        1.94820  -0.00006   0.01906  -0.01034   0.00845   1.95665
   A29        1.92861   0.00145   0.00912   0.00865   0.01750   1.94611
   A30        1.89433   0.00122  -0.00827   0.01232   0.00408   1.89841
   A31        1.91167   0.00107   0.00053   0.00852   0.00911   1.92078
   A32        1.91499  -0.00022   0.00221  -0.00004   0.00166   1.91665
    D1        0.00165  -0.00013   0.00084  -0.00791  -0.00716  -0.00551
    D2       -3.13977   0.00003   0.00093   0.00020   0.00104  -3.13872
    D3       -3.14087  -0.00013   0.00037  -0.00902  -0.00886   3.13346
    D4        0.00089   0.00002   0.00046  -0.00091  -0.00065   0.00024
    D5       -0.00369   0.00017  -0.00187   0.00953   0.00773   0.00405
    D6       -3.13295   0.00045   0.00438   0.02741   0.03102  -3.10193
    D7        3.13883   0.00017  -0.00140   0.01063   0.00941  -3.13494
    D8        0.00957   0.00045   0.00485   0.02850   0.03270   0.04227
    D9       -3.13877   0.00019   0.00143   0.00685   0.00834  -3.13043
   D10        0.00189   0.00019   0.00096   0.00574   0.00664   0.00853
   D11        0.00056  -0.00005   0.00029   0.00011   0.00031   0.00087
   D12        3.13722  -0.00031  -0.00222  -0.01526  -0.01730   3.11991
   D13       -3.14120  -0.00020   0.00020  -0.00810  -0.00817   3.13381
   D14       -0.00455  -0.00047  -0.00231  -0.02347  -0.02579  -0.03033
   D15       -0.00076   0.00018  -0.00039   0.00622   0.00589   0.00513
   D16        3.13964   0.00014  -0.00099   0.00362   0.00253  -3.14102
   D17       -3.13740   0.00045   0.00212   0.02166   0.02369  -3.11371
   D18        0.00299   0.00041   0.00152   0.01906   0.02034   0.02333
   D19        0.52606   0.00005   0.00125   0.01213   0.01350   0.53956
   D20        2.62269   0.00040   0.00238   0.01775   0.02033   2.64302
   D21       -1.56737   0.00023   0.00174   0.01505   0.01693  -1.55044
   D22       -2.62050  -0.00024  -0.00127  -0.00342  -0.00488  -2.62539
   D23       -0.52388   0.00011  -0.00014   0.00220   0.00195  -0.52193
   D24        1.56925  -0.00006  -0.00079  -0.00050  -0.00145   1.56780
   D25       -0.00137  -0.00010  -0.00069  -0.00429  -0.00523  -0.00660
   D26        3.13692  -0.00000  -0.00237  -0.00240  -0.00511   3.13182
   D27        3.14143  -0.00006  -0.00008  -0.00169  -0.00190   3.13953
   D28       -0.00347   0.00004  -0.00176   0.00020  -0.00177  -0.00524
   D29        0.00355  -0.00006   0.00180  -0.00350  -0.00163   0.00192
   D30        3.13124  -0.00040  -0.00525  -0.02336  -0.02944   3.10180
   D31       -3.13469  -0.00017   0.00350  -0.00547  -0.00179  -3.13649
   D32       -0.00700  -0.00051  -0.00355  -0.02534  -0.02961  -0.03661
   D33       -2.60236  -0.00173   0.00793  -0.08817  -0.07987  -2.68223
   D34        0.55267  -0.00150   0.01475  -0.06934  -0.05497   0.49770
   D35        3.10639  -0.00045  -0.01786  -0.04312  -0.06100   3.04539
   D36       -1.10831  -0.00116  -0.03101  -0.04569  -0.07711  -1.18542
   D37        1.02788  -0.00045  -0.00980  -0.04681  -0.05616   0.97172
         Item               Value     Threshold  Converged?
 Maximum Force            0.032499     0.000450     NO 
 RMS     Force            0.006473     0.000300     NO 
 Maximum Displacement     0.484932     0.001800     NO 
 RMS     Displacement     0.096736     0.001200     NO 
 Predicted change in Energy=-8.344290D-03
 GradGradGradGradGradGradGradGradGradGradGradGradGradGradGradGradGradGrad

                          Input orientation:                          
 ---------------------------------------------------------------------
 Center     Atomic      Atomic             Coordinates (Angstroms)
 Number     Number       Type             X           Y           Z
 ---------------------------------------------------------------------
      1          6           0       -0.692393   -0.654624    0.287456
      2          6           0        0.668895   -0.916512    0.229355
      3          6           0        1.601575    0.108546    0.041250
      4          6           0        1.125117    1.407232   -0.085941
      5          6           0       -0.254064    1.664930   -0.018804
      6          6           0       -1.133514    0.620264    0.166315
      7          1           0        0.987662   -1.952196    0.327561
      8          1           0        1.820954    2.230546   -0.233999
      9          1           0       -0.623530    2.685099   -0.109757
     10          8           0       -2.488416    0.692853    0.297034
     11          1           0       -2.429468   -1.198984    0.452021
     12          8           0       -1.581802   -1.660223    0.460730
     13          6           0        3.079586   -0.194559    0.008914
     14          1           0        3.274379   -1.196770   -0.393089
     15          1           0        3.619699    0.530460   -0.612447
     16          1           0        3.516438   -0.154887    1.018188
     17          6           0       -3.152901    1.776179   -0.343454
     18          1           0       -4.217142    1.572943   -0.189184
     19          1           0       -2.906644    2.744485    0.118400
     20          1           0       -2.926875    1.808182   -1.420793
 ---------------------------------------------------------------------
                    Distance matrix (angstroms):
                    1          2          3          4          5
     1  C    0.000000
     2  C    1.387468   0.000000
     3  C    2.430089   1.398577   0.000000
     4  C    2.773809   2.389003   1.389163   0.000000
     5  C    2.380390   2.752685   2.422670   1.404655   0.000000
     6  C    1.354475   2.369459   2.785356   2.405071   1.378052
     7  H    2.123178   1.088071   2.169221   3.387570   3.839980
     8  H    3.861740   3.383180   2.150993   1.088097   2.161465
     9  H    3.363966   3.841479   3.407714   2.165936   1.088818
    10  O    2.245325   3.544468   4.139428   3.703327   2.457034
    11  H    1.827796   3.119171   4.257660   4.440365   3.627128
    12  O    1.353625   2.381655   3.665841   4.127413   3.612406
    13  C    3.810128   2.526112   1.509118   2.528770   3.817288
    14  H    4.061076   2.693422   2.165819   3.390352   4.558433
    15  H    4.561621   3.392580   2.162905   2.696086   4.079886
    16  H    4.300926   3.051364   2.165757   3.062308   4.313208
    17  C    3.515814   4.710077   5.053122   4.301613   2.919081
    18  H    4.196796   5.499630   6.004584   5.345826   3.967806
    19  H    4.060225   5.118563   5.222850   4.252658   2.867132
    20  H    3.738507   4.803802   5.053038   4.285001   3.021592
                    6          7          8          9         10
     6  C    0.000000
     7  H    3.338104   0.000000
     8  H    3.388531   4.301750   0.000000
     9  H    2.144725   4.928660   2.489489   0.000000
    10  O    1.363128   4.368104   4.606210   2.759044   0.000000
    11  H    2.251841   3.501370   5.504397   4.320082   1.899090
    12  O    2.342704   2.589426   5.215312   4.486153   2.526997
    13  C    4.294057   2.750813   2.743044   4.692502   5.645632
    14  H    4.800423   2.513778   3.726157   5.508436   6.103831
    15  H    4.817424   3.738290   2.503797   4.785411   6.177589
    16  H    4.790469   3.178363   3.183226   5.145591   6.107127
    17  C    2.382001   5.612068   4.995765   2.697864   1.423152
    18  H    3.246959   6.307425   6.073966   3.762613   1.999865
    19  H    2.767417   6.104767   4.768490   2.295254   2.101433
    20  H    2.673239   5.702700   4.912103   2.791631   2.094549
                   11         12         13         14         15
    11  H    0.000000
    12  O    0.965067   0.000000
    13  C    5.617374   4.907224   0.000000
    14  H    5.766115   4.952402   1.097259   0.000000
    15  H    6.380948   5.745121   1.097025   1.775017   0.000000
    16  H    6.063371   5.344983   1.100476   1.770822   1.771816
    17  C    3.163500   3.863150   6.546134   7.081724   6.891465
    18  H    3.360134   4.221465   7.510363   7.989729   7.917197
    19  H    3.986220   4.612358   6.669701   7.348479   6.930310
    20  H    3.577414   4.168835   6.490964   6.967170   6.718902
                   16         17         18         19         20
    16  H    0.000000
    17  C    7.075533   0.000000
    18  H    8.015697   1.094401   0.000000
    19  H    7.104362   1.100712   1.784524   0.000000
    20  H    7.163697   1.101259   1.799163   1.801717   0.000000
 Stoichiometry    C8H10O2
 Framework group  C1[X(C8H10O2)]
 Deg. of freedom    54
 Full point group                 C1      NOp   1
 Largest Abelian subgroup         C1      NOp   1
 Largest concise Abelian subgroup C1      NOp   1
                         Standard orientation:                         
 ---------------------------------------------------------------------
 Center     Atomic      Atomic             Coordinates (Angstroms)
 Number     Number       Type             X           Y           Z
 ---------------------------------------------------------------------
      1          6           0       -0.158674    1.024749   -0.019608
      2          6           0        1.226972    1.002285    0.047839
      3          6           0        1.938653   -0.201576    0.032157
      4          6           0        1.215494   -1.384496   -0.054540
      5          6           0       -0.186793   -1.352927   -0.129703
      6          6           0       -0.842461   -0.141028   -0.109063
      7          1           0        1.743643    1.957004    0.121730
      8          1           0        1.734893   -2.340518   -0.068746
      9          1           0       -0.750068   -2.281533   -0.206755
     10          8           0       -2.184055    0.075569   -0.215503
     11          1           0       -1.753620    1.917181   -0.043062
     12          8           0       -0.831877    2.198815    0.006207
     13          6           0        3.447063   -0.202499    0.078353
     14          1           0        3.831193    0.656872    0.642182
     15          1           0        3.828886   -1.115808    0.551154
     16          1           0        3.876524   -0.149961   -0.933502
     17          6           0       -3.053844   -0.952321    0.245223
     18          1           0       -4.056102   -0.521990    0.155741
     19          1           0       -2.998336   -1.854432   -0.383014
     20          1           0       -2.848010   -1.215007    1.294699
 ---------------------------------------------------------------------
 Rotational constants (GHZ):           2.6655023           0.9610851           0.7173638
 Standard basis: 6-311G(d,p) (5D, 7F)
 There are   250 symmetry adapted cartesian basis functions of A   symmetry.
 There are   240 symmetry adapted basis functions of A   symmetry.
   240 basis functions,   400 primitive gaussians,   250 cartesian basis functions
    37 alpha electrons       37 beta electrons
       nuclear repulsion energy       520.4563309943 Hartrees.
 NAtoms=   20 NActive=   20 NUniq=   20 SFac= 1.00D+00 NAtFMM=   60 NAOKFM=F Big=F
 Integral buffers will be    131072 words long.
 Raffenetti 2 integral format.
 Two-electron integral symmetry is turned on.
 One-electron integrals computed using PRISM.
 NBasis=   240 RedAO= T EigKep=  1.72D-04  NBF=   240
 NBsUse=   240 1.00D-06 EigRej= -1.00D+00 NBFU=   240
 Initial guess from the checkpoint file:  "17.chk"
 B after Tr=     0.000000    0.000000    0.000000
         Rot=    0.999938   -0.000139   -0.000074   -0.011117 Ang=  -1.27 deg.
 ExpMin= 1.03D-01 ExpMax= 8.59D+03 ExpMxC= 1.30D+03 IAcc=3 IRadAn=         5 AccDes= 0.00D+00
 Harris functional with IExCor=  402 and IRadAn=       5 diagonalized for initial guess.
 HarFok:  IExCor=  402 AccDes= 0.00D+00 IRadAn=         5 IDoV= 1 UseB2=F ITyADJ=14
 ICtDFT=  3500011 ScaDFX=  1.000000  1.000000  1.000000  1.000000
 FoFCou: FMM=F IPFlag=           0 FMFlag=      100000 FMFlg1=           0
         NFxFlg=           0 DoJE=T BraDBF=F KetDBF=T FulRan=T
         wScrn=  0.000000 ICntrl=       500 IOpCl=  0 I1Cent=   200000004 NGrid=           0
         NMat0=    1 NMatS0=      1 NMatT0=    0 NMatD0=    1 NMtDS0=    0 NMtDT0=    0
 Petite list used in FoFCou.
 Requested convergence on RMS density matrix=1.00D-08 within 128 cycles.
 Requested convergence on MAX density matrix=1.00D-06.
 Requested convergence on             energy=1.00D-06.
 No special actions if energy rises.
 Integral accuracy reduced to 1.0D-05 until final iterations.
 Initial convergence to 1.0D-05 achieved.  Increase integral accuracy.
 SCF Done:  E(RB3LYP) =  -461.428302508     A.U. after   13 cycles
            NFock= 13  Conv=0.41D-08     -V/T= 2.0034
 Calling FoFJK, ICntrl=      2127 FMM=F ISym2X=0 I1Cent= 0 IOpClX= 0 NMat=1 NMatS=1 NMatT=0.
 ***** Axes restored to original set *****
 -------------------------------------------------------------------
 Center     Atomic                   Forces (Hartrees/Bohr)
 Number     Number              X              Y              Z
 -------------------------------------------------------------------
      1        6           0.029258320   -0.038637425    0.002868025
      2        6           0.005354608   -0.007722687    0.000407071
      3        6          -0.000263561   -0.005209519    0.000914274
      4        6          -0.006515197    0.007510559   -0.000564926
      5        6           0.009475527    0.012630789   -0.002707581
      6        6          -0.009075391    0.026632586   -0.000294315
      7        1           0.000073138    0.002246695   -0.000414574
      8        1          -0.002346171   -0.001387893    0.000114791
      9        1           0.002006104   -0.003459311    0.000011421
     10        8          -0.015088689    0.014618892   -0.003649577
     11        1          -0.007748551   -0.004945933    0.001046130
     12        8          -0.000088132   -0.002551666    0.000461594
     13        6           0.003264498   -0.000590216   -0.000168089
     14        1          -0.000467512    0.002816697    0.001106809
     15        1          -0.001098882   -0.001909745    0.001778657
     16        1          -0.001142444   -0.000146171   -0.002829133
     17        6          -0.007615242    0.000929720    0.001686477
     18        1           0.002114470    0.003354414   -0.002581094
     19        1          -0.000160950   -0.003918501   -0.001404236
     20        1           0.000064057   -0.000261286    0.004218276
 -------------------------------------------------------------------
 Cartesian Forces:  Max     0.038637425 RMS     0.008518581

 GradGradGradGradGradGradGradGradGradGradGradGradGradGradGradGradGradGrad
 Berny optimization.
 Using GEDIIS/GDIIS optimizer.
 FormGI is forming the generalized inverse of G from B-inverse, IUseBI=4.
 Internal  Forces:  Max     0.054106647 RMS     0.007459511
 Search for a local minimum.
 Step number   3 out of a maximum of   99
 All quantities printed in internal units (Hartrees-Bohrs-Radians)
 Mixed Optimization -- RFO/linear search
 Update second derivatives using D2CorX and points    2    3
 DE= -1.79D-03 DEPred=-8.34D-03 R= 2.15D-01
 Trust test= 2.15D-01 RLast= 3.78D-01 DXMaxT set to 5.05D-01
 ITU=  0  1  0
 Use linear search instead of GDIIS.
     Eigenvalues ---    0.00237   0.01051   0.01259   0.01272   0.01332
     Eigenvalues ---    0.01485   0.01692   0.02016   0.02094   0.02221
     Eigenvalues ---    0.02274   0.02374   0.02997   0.06850   0.06900
     Eigenvalues ---    0.10004   0.10734   0.14994   0.15999   0.16000
     Eigenvalues ---    0.16000   0.16000   0.16000   0.16000   0.16000
     Eigenvalues ---    0.16157   0.16190   0.22346   0.23430   0.24556
     Eigenvalues ---    0.24919   0.24994   0.25252   0.28217   0.33914
     Eigenvalues ---    0.35946   0.37201   0.37230   0.37230   0.37230
     Eigenvalues ---    0.37230   0.37230   0.37230   0.37476   0.39402
     Eigenvalues ---    0.41161   0.41923   0.44114   0.45129   0.46994
     Eigenvalues ---    0.49078   0.52602   0.55829   0.65002
 RFO step:  Lambda=-3.29802754D-03 EMin= 2.36815617D-03
 Quartic linear search produced a step of -0.43489.
 Iteration  1 RMS(Cart)=  0.09869362 RMS(Int)=  0.00397702
 Iteration  2 RMS(Cart)=  0.00508970 RMS(Int)=  0.00010642
 Iteration  3 RMS(Cart)=  0.00002415 RMS(Int)=  0.00010492
 Iteration  4 RMS(Cart)=  0.00000000 RMS(Int)=  0.00010492
 Variable       Old X    -DE/DX   Delta X   Delta X   Delta X     New X
                                 (Linear)    (Quad)   (Total)
    R1        2.62193   0.00339   0.00247   0.00222   0.00469   2.62663
    R2        2.55959   0.05411   0.08135   0.02673   0.10806   2.66764
[...]
 640840,-0.00383750,0.00305635,-0.00048124,0.00048185,0.00041874,-0.000
 10186,0.17399921,0.00116829,-0.00026448,-0.00027478,0.00352169,-0.0036
 3875,0.00232975,-0.01998719,-0.01744443,0.00537471,-0.12902196,-0.2129
 2469,0.04838497,0.00553445,0.00663411,-0.00157962,0.00182035,0.0014047
 5,0.00109361,-0.00103466,-0.00089501,0.00037743,0.13893332,0.22482648,
 -0.00030549,-0.00026587,-0.00117821,-0.00070478,0.00235498,0.00566363,
 0.00475531,0.00459938,0.00093279,0.03537122,0.04840212,-0.04336618,-0.
 00090754,-0.00076804,0.00103867,-0.00017856,0.00105969,0.00579738,0.00
 025559,0.00033783,0.00043425,-0.03827802,-0.05333926,0.03751727,-0.002
 66425,-0.00258308,0.00087774,-0.00087260,-0.00079797,0.00018914,-0.005
 53219,0.00010130,0.00028623,-0.00517294,0.02961782,-0.00709522,-0.0887
 3996,0.08563754,-0.01947415,0.01178703,-0.01775836,0.00414211,0.000038
 97,0.00007161,-0.00002930,0.00104160,-0.00046454,-0.00001342,0.0935177
 2,-0.00381046,-0.00043539,0.00174788,-0.00070321,0.00028340,-0.0003307
 4,0.00075311,0.00234279,0.00084669,0.00007204,-0.00137677,0.00074801,0
 .08440692,-0.29182122,0.06185451,0.01141668,-0.01759040,0.00488173,0.0
 0003575,-0.00009523,-0.00007292,0.00018732,0.00057676,-0.00103943,-0.0
 9499079,0.30848991,0.00118009,0.00171593,0.00580119,0.00016666,-0.0003
 2784,-0.00106328,0.00012533,0.00086462,0.00565487,0.00016820,-0.000057
 76,0.00168163,-0.01916919,0.06181971,-0.04553205,-0.00303313,0.0056766
 4,0.00221380,-0.00002047,-0.00007397,-0.00036913,-0.00017363,-0.001021
 90,-0.00337402,0.02141589,-0.06771993,0.03856199,-0.05222292,0.0137695
 8,-0.00180734,0.00979054,0.00159470,-0.00055048,-0.00464670,-0.0077248
 5,0.00199010,-0.00288971,0.00179809,-0.00017142,-0.03631170,0.00069073
 ,0.00093135,-0.26598389,-0.01671555,0.01038510,-0.00091449,0.00028343,
 -0.00004091,-0.00175704,0.00019318,0.00002107,0.00071279,0.00050400,-0
 .00023331,0.46551788,0.04673402,-0.01019435,0.00265696,-0.00255329,-0.
 00679595,0.00274581,0.00002658,0.00307503,-0.00108113,0.00308179,-0.00
 663355,0.00328304,-0.03061138,0.01023348,-0.00070836,0.01873248,-0.104
 57919,0.01627833,0.00187469,-0.00018865,0.00003096,-0.00124137,0.00045
 210,0.00010813,0.00218528,0.00096916,-0.00110207,-0.10652733,0.3754433
 3,-0.00991163,0.00356494,0.00520470,0.00047355,0.00263192,0.00342189,0
 .00008395,-0.00087099,-0.00110557,-0.00048794,0.00331704,0.00625161,0.
 00862756,-0.00155928,0.00411214,0.00166585,0.01724017,-0.04060879,-0.0
 0043211,0.00007404,0.00013759,0.00037364,0.00006910,0.00072712,-0.0006
 4606,-0.00105583,-0.00299246,0.01527000,-0.07326685,0.08328391,-0.0387
 0684,0.00393559,0.00006390,0.00083586,-0.00408286,0.00102079,-0.001268
 55,0.00081453,-0.00011661,0.00089714,0.00029248,-0.00009712,-0.0022360
 2,0.00015660,0.00000036,0.00405506,0.00194799,-0.00054403,0.00012579,-
 0.00003400,-0.00001138,0.00000876,0.00001033,-0.00000467,0.00025957,0.
 00038752,-0.00009812,-0.00187684,0.00054025,-0.00012204,0.46072838,-0.
 03527940,0.01209014,-0.00251100,-0.00419690,-0.00560048,0.00179921,-0.
 00049232,0.00188172,0.00000454,0.00001493,-0.00071114,0.00016495,0.000
 68496,0.00038307,-0.00030986,-0.00934902,-0.00224422,0.00123617,-0.000
 05754,0.00000459,-0.00015226,0.00015795,-0.00002788,-0.00001235,-0.000
 04050,-0.00003283,0.00004726,0.00051856,0.00079603,-0.00056521,-0.1428
 8699,0.10877253,0.00964530,-0.00364453,-0.00163826,0.00104199,0.001791
 78,0.00078892,0.00020077,-0.00002962,0.00186006,-0.00002726,0.00016024
 ,-0.00007888,-0.00012787,-0.00029732,-0.00071594,0.00224386,0.00092382
 ,0.00143517,-0.00000545,-0.00015354,-0.00058648,-0.00004098,-0.0000087
 2,-0.00005829,0.00000654,0.00003475,0.00014559,-0.00012143,-0.00056757
 ,-0.00130655,0.02209667,-0.02066055,0.01215925,-0.18140519,-0.11679723
 ,0.03257734,-0.04305141,-0.04403496,0.01216658,-0.00007175,0.00880199,
 -0.00201026,-0.00176680,-0.00552996,0.00137504,-0.00173024,0.00370461,
 -0.00070406,-0.00578523,-0.00575680,0.00179662,0.00274678,0.00005756,-
 0.00019933,0.00011202,-0.00026815,0.00005267,0.00023482,0.00007751,-0.
 00003482,0.00877115,0.00819660,-0.00231400,-0.42235713,0.18801259,-0.0
 3417488,0.64378166,-0.06460979,-0.21915909,0.04568159,-0.00804738,0.01
 108406,-0.00097194,0.00436919,-0.00366452,0.00214478,-0.00644298,-0.00
 039532,-0.00002998,0.01029254,0.00045465,0.00107172,-0.03766818,-0.048
 94896,0.01507061,-0.00063485,0.00064929,-0.00112618,-0.00022165,0.0000
 6240,-0.00010108,-0.00123299,-0.00152357,0.00032477,0.00318778,0.00135
 636,-0.00097555,0.13890989,-0.11525135,0.02270984,-0.03683036,0.373687
 05,0.01980422,0.04715743,-0.05233522,0.00331748,0.00001649,0.00614228,
 -0.00091273,0.00202332,0.00504547,0.00159823,-0.00006139,-0.00125940,-
 0.00232663,0.00125686,0.00572002,0.00963356,0.01421011,0.00443267,-0.0
 0002878,-0.00114610,-0.00371945,0.00004143,-0.00009982,-0.00035061,0.0
 0028800,0.00028913,-0.00042160,-0.00107361,-0.00110925,-0.00194883,-0.
 02217019,0.02129924,-0.01098867,-0.00843043,-0.08350553,0.04927054,0.0
 0324024,-0.00401331,0.00103020,-0.02876948,0.00025721,0.00078297,-0.20
 520017,0.02283814,-0.00186409,-0.01492277,0.00637257,-0.00104270,0.000
 72454,-0.00008052,0.00020818,-0.00116648,0.00199976,-0.00048539,0.0010
 6663,0.00132869,-0.00041774,0.00124406,-0.00208187,0.00035413,0.000039
 73,-0.00017361,0.00005517,0.00073430,-0.00019809,0.00001627,-0.0001221
 1,-0.00017775,0.00004598,-0.00023658,0.00088068,-0.00020335,0.48342796
 ,-0.00272643,-0.00316670,0.00203753,-0.02414445,0.00828695,-0.00082784
 ,0.01655402,-0.09024090,0.00509565,0.03006253,-0.00251054,0.00085391,0
 .00098161,-0.00294078,0.00257712,-0.00019989,-0.00178708,0.00021817,-0
 .00025404,0.00085025,-0.00076145,0.00124394,0.00035772,-0.00124239,0.0
 0116680,-0.00014050,0.00012488,0.00097872,0.00016995,-0.00018264,-0.00
 024254,-0.00044601,0.00011035,-0.00201064,0.00011914,0.00008191,0.0232
 9372,0.56683367,0.00071340,0.00207139,0.00428203,0.00678390,-0.0014940
 4,0.00242746,-0.00031952,0.00492571,-0.06889547,-0.00687064,0.00149983
 ,0.00411708,-0.00005296,0.00260752,0.00700858,0.00005536,0.00015814,-0
 .00096291,-0.00002806,-0.00080383,-0.00207205,-0.00046400,-0.00115227,
 -0.00426117,-0.00027484,0.00016133,0.00046443,-0.00027211,-0.00015087,
 -0.00041915,0.00006206,0.00010894,-0.00005074,0.00050691,0.00000253,0.
 00021169,-0.00442453,-0.00945426,0.53343033,-0.00010053,0.00014820,-0.
 00091382,0.00124652,0.00083010,-0.00088586,-0.01085395,0.02443167,0.02
 070238,-0.00255832,-0.00133572,0.00091949,-0.00093398,-0.00002693,-0.0
 0136458,0.00074633,0.00055089,0.00014227,0.00000516,-0.00050951,0.0006
 7011,0.00005410,0.00029166,0.00047260,-0.00027768,0.00004339,-0.000141
 77,-0.00107400,0.00010081,0.00000107,0.00001337,0.00011505,0.00000778,
 0.00003210,-0.00014994,0.00000193,-0.05987763,0.04243446,0.04313505,0.
 06763460,0.00119052,-0.00083350,0.00059537,-0.00217304,0.00014827,0.00
 058661,0.00346598,-0.00369042,-0.00162547,0.00172849,-0.00004129,-0.00
 023645,-0.00037229,-0.00013004,0.00071696,-0.00033011,0.00100074,-0.00
 008660,0.00000036,-0.00001919,-0.00048296,-0.00000382,0.00013411,-0.00
 058181,0.00008054,-0.00005562,-0.00003071,0.00032421,-0.00011264,-0.00
 014359,-0.00002996,-0.00002425,-0.00000795,0.00013075,0.00025077,-0.00
 008444,0.04146862,-0.17323338,-0.12118797,-0.04905987,0.18665571,0.000
 22024,-0.00002715,0.00013493,0.00006280,-0.00027324,0.00100817,-0.0004
 3269,0.00271591,0.00257220,-0.00054743,0.00054643,-0.00028749,-0.00008
 376,0.00009353,-0.00038107,-0.00028982,0.00006299,-0.00005329,0.000260
 84,0.00018347,-0.00030441,-0.00004100,0.00002968,0.00018998,-0.0000070
 5,0.00001580,0.00002368,0.00032795,-0.00002656,0.00001358,-0.00000690,
 -0.00002650,-0.00000124,0.00006284,0.00010504,-0.00002641,0.04221090,-
 0.12143978,-0.15982130,-0.04523265,0.13390316,0.17192861,0.00022219,-0
 .00172573,0.00043682,-0.00606259,0.00284691,-0.00050255,-0.01663983,-0
 .02831436,0.00736557,0.00200385,-0.00226781,0.00050328,-0.00027327,0.0
 0015311,-0.00003632,0.00034647,0.00031037,-0.00008767,0.00009811,0.000
 05122,-0.00002377,0.00016244,0.00133094,-0.00032193,0.00000670,0.00000
 063,-0.00000146,-0.00027290,0.00023528,-0.00004959,-0.00008022,-0.0001
 1793,0.00002927,-0.00068665,0.00020206,-0.00003323,-0.11431759,-0.1083
 5891,0.02847489,0.00393661,0.00673490,-0.00302683,0.12673835,0.0004528
 1,0.00044186,0.00004140,0.00104060,0.00023895,0.00021036,0.00392276,0.
 00514408,-0.00180164,0.00167391,0.00057365,-0.00018784,-0.00010769,0.0
 0036558,-0.00014287,0.00019471,-0.00001240,-0.00001870,0.00023435,0.00
 023129,-0.00013858,-0.00012342,0.00043183,-0.00001267,-0.00007992,0.00
 001034,-0.00001083,-0.00025041,0.00014133,-0.00002061,0.00006610,-0.00
 000021,-0.00001579,-0.00009164,-0.00011784,0.00000660,-0.11273432,-0.2
 3119020,0.04841827,-0.01076025,-0.01819907,0.00588686,0.12051494,0.250
 01668,-0.00009872,0.00010074,0.00063822,-0.00005769,0.00016142,0.00117
 254,-0.00055724,-0.00092231,-0.00151017,-0.00046643,-0.00008069,0.0000
 2737,0.00002752,-0.00015018,-0.00019196,-0.00005912,-0.00002159,-0.000
 06013,-0.00006869,-0.00013372,-0.00027128,0.00003585,-0.00005199,0.000
 37932,0.00001831,-0.00001300,-0.00003975,0.00006978,-0.00003379,0.0000
 3642,-0.00001561,-0.00001066,-0.00005400,0.00003847,-0.00000158,-0.000
 10163,0.02955009,0.04829880,-0.05937125,-0.01215099,-0.01841334,0.0055
 6369,-0.03184287,-0.05362727,0.05923712,-0.00008062,0.00057270,0.00075
 174,0.00130553,0.00116667,0.00038004,-0.01220561,0.01215101,-0.0288925
 5,-0.00257811,-0.00160806,-0.00006624,-0.00085194,0.00061260,0.0012571
 6,0.00074870,0.00039589,-0.00041585,-0.00003718,-0.00077941,-0.0003702
 8,0.00002831,0.00003686,-0.00055158,-0.00027101,0.00010778,0.00012029,
 -0.00109276,0.00010425,0.00000643,0.00001205,0.00009940,-0.00006201,0.
 00002890,-0.00014267,0.00006835,-0.06575936,0.02134344,-0.06705453,0.0
 0183617,-0.00311745,0.00658281,0.00475922,-0.00399134,0.01558819,0.073
 98491,0.00093695,-0.00087740,-0.00013384,-0.00197357,0.00021482,-0.000
 07003,0.00361373,-0.00299068,0.00462568,0.00182281,-0.00022331,0.00011
 128,-0.00031879,-0.00052085,-0.00064550,-0.00017544,0.00078007,-0.0003
 3792,-0.00010403,0.00005407,0.00031214,0.00004489,0.00037236,0.0004912
 0,0.00008069,-0.00003477,0.00005463,0.00015652,-0.00001856,0.00015169,
 -0.00002301,-0.00000612,0.00001199,0.00008734,0.00018339,-0.00003034,0
 .02090457,-0.07118443,0.07437559,-0.00686360,0.00811228,-0.02181794,0.
 00851031,-0.00799841,0.02487477,-0.02669330,0.07411742,-0.00072741,0.0
 0052754,0.00015954,0.00094201,0.00062255,0.00088303,-0.00050492,-0.000
 52078,0.00322522,-0.00019627,-0.00049478,-0.00008739,0.00029114,-0.000
 05730,-0.00007168,0.00037325,-0.00052724,0.00016418,-0.00025299,-0.000
 32265,-0.00033473,0.00003260,-0.00012782,-0.00002210,-0.00001691,0.000
 00841,-0.00000409,-0.00038847,0.00004213,-0.00006110,0.00001871,0.0000
 2323,-0.00001823,-0.00011836,-0.00020597,0.00004427,-0.06578740,0.0745
 8999,-0.25599215,-0.00544797,0.00712744,-0.02053928,-0.00090833,0.0013
 9284,-0.00545888,0.07263036,-0.08200210,0.27811807,-0.00415654,-0.0045
 8072,0.00129985,-0.00099497,0.00156695,-0.00033353,0.00058070,0.001036
 25,-0.00025933,0.00100890,0.00081031,-0.00021794,0.00011464,-0.0000989
 5,0.00000370,-0.03335084,0.04126508,-0.00936643,-0.00034557,-0.0000648
 6,0.00001630,0.00039186,-0.00000145,-0.00001299,-0.00196552,0.00117380
 ,-0.00023841,-0.10286327,0.02456146,-0.00480144,-0.00014928,0.00374075
 ,-0.00094747,0.00198723,-0.00169032,0.00036627,-0.00015951,-0.00007051
 ,0.00001773,0.00015798,-0.00006528,-0.00006198,0.00005411,0.00004369,-
 0.00001179,0.00015946,-0.00002866,0.00007545,0.59187630,-0.00686220,0.
 00004784,0.00071792,0.00127658,-0.00008931,0.00020605,-0.00095019,-0.0
 0127215,0.00044122,-0.00132611,-0.00040407,0.00021735,-0.00589825,0.00
 473757,-0.00115929,0.01888143,-0.00427208,-0.00061922,-0.00032557,0.00
 026751,-0.00013901,-0.00067169,-0.00006463,0.00001059,-0.00103938,-0.0
 0091058,0.00022110,0.05742240,-0.19592327,0.03240329,0.00019178,-0.001
 35422,0.00006582,0.00186067,0.00154959,-0.00038400,0.00023104,0.000238
 61,-0.00009925,-0.00035119,0.00008285,0.00010266,-0.00016446,-0.000117
 23,0.00003710,-0.00037725,0.00005237,-0.00012508,0.05723484,0.47614823
 ,0.00186240,0.00065850,0.00199015,-0.00026300,0.00019863,0.00085120,0.
 00022919,0.00038764,0.00031694,0.00030782,0.00016036,0.00028850,0.0014
 2894,-0.00131896,-0.00035160,-0.00386673,-0.00123202,-0.00428480,0.000
 08047,-0.00014603,-0.00029948,0.00015186,-0.00000784,-0.00009881,0.000
 30550,0.00016176,-0.00017477,-0.01288243,0.03330717,-0.06560167,-0.000
 06964,-0.00003513,-0.00105048,-0.00051167,-0.00028817,0.00027350,-0.00
 005633,-0.00009162,-0.00011792,0.00012533,-0.00007533,-0.00003013,0.00
 003939,0.00003145,0.00000673,0.00004416,0.00003571,-0.00000118,-0.0148
 5145,0.01975837,0.55838600,-0.00114425,-0.00054885,0.00017555,0.000089
 46,0.00029155,-0.00007468,-0.00003311,-0.00008060,0.00002000,-0.000033
 84,0.00013195,-0.00002719,0.00024467,-0.00001551,0.00000698,0.00256334
 ,0.00206047,-0.00056390,-0.00008773,0.00002568,-0.00000504,-0.00004527
 ,-0.00001391,0.00000526,0.00009852,0.00014499,-0.00005075,-0.01830908,
 0.00609987,-0.00099800,-0.00022987,-0.00010289,0.00003591,0.00035571,0
 .00037030,-0.00010362,0.00002668,0.00002288,-0.00000717,-0.00003459,0.
 00001575,0.00001009,-0.00001281,-0.00001604,0.00000433,-0.00003560,0.0
 0000975,-0.00001438,-0.30841809,-0.04715419,0.01853746,0.33687163,0.00
 208474,0.00056386,-0.00011014,-0.00029355,-0.00052290,0.00013136,-0.00
 007510,0.00022349,-0.00005894,0.00037228,0.00036983,-0.00006135,-0.000
 64708,-0.00108062,0.00037288,0.00031379,-0.00492962,0.00133661,0.00015
 220,-0.00002500,-0.00000805,0.00006837,-0.00001791,0.00000793,-0.00024
 215,0.00077987,-0.00029864,0.04290674,-0.00380928,-0.00019641,0.000198
 64,-0.00014200,0.00006936,-0.00037192,-0.00002494,-0.00001093,-0.00001
 134,0.00002795,-0.00001446,0.00000814,-0.00000267,-0.00000270,0.000013
 22,0.00000456,-0.00000117,0.00000493,-0.00000090,0.00000387,-0.0599635
 2,-0.05643405,0.00303348,0.04368103,0.06698120,-0.00047186,-0.00003787
 ,0.00037078,0.00006932,0.00011548,-0.00005130,0.00001876,-0.00005892,-
 0.00001069,-0.00008631,-0.00005484,0.00017773,0.00016291,0.00035569,0.
 00027261,-0.00013026,0.00128631,0.00021873,-0.00003614,-0.00000467,-0.
 00003897,-0.00001497,0.00001020,0.00001990,0.00004426,-0.00030955,-0.0
 0038726,-0.01004653,0.00080138,0.00019575,-0.00003835,0.00007724,0.000
 14228,0.00007856,-0.00003092,-0.00010463,0.00000119,-0.00001538,-0.000
 02823,0.00000625,0.00000019,0.00000156,-0.00000287,-0.00000037,0.00000
 146,-0.00000746,0.00000063,0.00000083,0.02168388,0.00268659,-0.0519175
 3,-0.01856709,-0.00621463,0.04851097,-0.00038764,0.00110240,-0.0006325
 6,0.00065093,0.00023780,-0.00018973,-0.00005593,-0.00071870,0.00008263
 ,-0.00072396,0.00021342,-0.00058447,0.00034581,-0.00097258,0.00034367,
 0.00423496,0.00056133,0.00138467,0.00000941,0.00000154,0.00004745,0.00
 001988,0.00002424,0.00002915,-0.00108333,0.00048619,0.00113610,0.00285
 694,0.01765524,0.01057048,0.00004628,-0.00029734,0.00015544,-0.0004788
 4,-0.00026152,0.00010379,0.00001627,-0.00001197,0.00011166,0.00000237,
 0.00001589,-0.00000696,0.00000936,0.00000551,-0.00000243,0.00004676,-0
 .00000373,0.00000129,-0.07504128,-0.05285981,-0.05297735,-0.00661685,-
 0.02032382,-0.02185068,0.07317136,0.00093879,-0.00090149,0.00047433,-0
 .00056252,-0.00003631,0.00011383,0.00023269,0.00060579,-0.00019374,0.0
 0059912,-0.00012671,0.00005947,0.00020674,0.00019987,0.00028645,-0.006
 78850,0.00134360,-0.00020262,0.00004123,-0.00004437,-0.00005174,0.0000
 9048,0.00000929,-0.00000520,0.00017999,0.00040233,-0.00032889,0.004042
 84,-0.03889418,-0.01384032,-0.00009596,0.00089986,-0.00062664,0.000380
 26,-0.00009633,0.00015296,-0.00005463,-0.00001914,0.00001507,0.0000508
 6,-0.00002186,-0.00001734,0.00002686,0.00001861,-0.00000584,0.00006517
 ,-0.00001331,0.00002352,-0.04853547,-0.15650449,-0.11195916,-0.0025435
 5,-0.00163479,-0.00369221,0.05006069,0.18625175,0.00027084,0.00000147,
 -0.00034628,-0.00005557,0.00006827,-0.00004563,-0.00005236,0.00000348,
 -0.00007641,0.00014774,0.00038968,-0.00011616,-0.00028335,-0.00131215,
 0.00019145,-0.00015112,0.00003990,0.00065797,0.00001044,0.00001087,0.0
 0002598,0.00002399,-0.00001511,0.00000570,0.00015787,0.00057272,-0.000
 25088,0.00447365,0.00717205,0.01152261,-0.00002329,-0.00006837,0.00006
 232,-0.00009022,0.00018200,-0.00000170,0.00000268,0.00002223,0.0000200
 8,-0.00000617,0.00001584,-0.00000323,0.00001120,-0.00000150,-0.0000033
 7,0.00000964,0.00000151,0.00000251,-0.05107450,-0.11517210,-0.17064879
 ,0.00098983,0.00306568,0.00265227,0.05543215,0.12474008,0.17540057,-0.
 00039381,0.00127872,0.00005375,0.00066583,0.00028664,0.00002424,-0.000
 05149,-0.00068341,0.00026083,-0.00070997,0.00045045,0.00045967,0.00034
 963,-0.00096083,0.00010922,0.00423942,-0.00020194,-0.00166906,0.000005
 97,-0.00002041,-0.00004241,0.00001571,0.00000842,-0.00003798,-0.001157
 98,-0.00011957,-0.00117267,0.00183170,0.01100286,-0.01732599,0.0000446
 0,-0.00034561,-0.00000219,-0.00048055,-0.00027981,0.00005927,0.0000112
 7,-0.00006275,-0.00009260,0.00004537,-0.00000421,-0.00000142,0.0000084
 7,0.00000565,-0.00000098,0.00000217,0.00001660,-0.00000140,-0.06888631
 ,-0.01911845,0.06236606,-0.00524892,-0.00787562,0.02918739,0.00297750,
 0.00166491,-0.00979345,0.06673140,0.00068888,-0.00100423,-0.00018000,-
 0.00048562,-0.00011060,-0.00005418,0.00023085,0.00054295,-0.00014252,0
 .00046899,-0.00032030,0.00001205,0.00029068,0.00062810,-0.00052814,-0.
 00597877,0.00134231,0.00021118,0.00003503,-0.00001256,0.00007067,0.000
 06888,0.00001586,-0.00000375,0.00010812,0.00016232,0.00012300,0.002846
 61,-0.02548715,0.03322509,-0.00005638,0.00101275,0.00013426,0.00038181
 ,-0.00021478,-0.00006223,-0.00004956,-0.00002459,0.00001263,0.00005176
 ,-0.00002080,-0.00001432,0.00001843,0.00001659,-0.00000571,0.00004879,
 -0.00001805,0.00002219,-0.01633340,-0.06577850,0.05742118,-0.00237868,
 -0.00032608,0.00508564,0.00508523,0.00856187,-0.01971656,0.01495835,0.
 08103488,-0.00066399,0.00027227,-0.00023805,0.00027664,-0.00005189,0.0
 0001371,-0.00006313,-0.00028873,-0.00001810,-0.00037214,-0.00030784,0.
 00006371,0.00013961,0.00113802,-0.00024233,0.00309541,-0.00038765,0.00
 065626,-0.00002884,0.00001063,-0.00000228,-0.00006393,0.00000969,0.000
 00336,-0.00017467,-0.00078133,0.00006211,-0.00588094,0.01162047,-0.000
 86322,0.00005547,-0.00040890,-0.00004582,-0.00006700,-0.00005600,0.000
 11772,0.00002375,0.00000479,0.00003068,-0.00004045,0.00001107,0.000011
 44,-0.00002301,-0.00000911,-0.00000046,-0.00001867,-0.00000916,-0.0000
 0683,0.05871409,0.06082989,-0.26753586,0.00062641,-0.00104374,-0.00002
 627,0.00684568,0.00505801,-0.01904903,-0.06238030,-0.07561049,0.287069
 27\\0.00001151,-0.00001060,0.00001407,-0.00002999,-0.00001481,0.000008
 35,0.00000501,0.00002688,-0.00000629,0.00001750,-0.00001580,0.00000225
 ,-0.00002007,-0.00000352,-0.00000145,-0.00000294,0.00000232,-0.0000119
 8,0.00000460,0.00000428,0.00000112,-0.00000153,-0.00000063,-0.00000012
 ,0.00000511,-0.00000173,0.00000356,0.00000427,0.00000788,0.00000076,0.
 00001155,0.00000249,0.00001962,-0.00000027,0.00001422,-0.00003120,0.00
 000007,-0.00000424,0.00000078,-0.00000096,0.00000056,0.00000075,-0.000
 00162,-0.00000139,0.00000032,0.00000042,-0.00000005,-0.00000064,-0.000
 00035,-0.00001288,0.00000611,0.00000066,0.00000323,-0.00000614,-0.0000
 0005,0.00000093,-0.00000198,-0.00000291,0.00000286,0.00000212\\\@
 The archive entry for this job was punched.


 KEEP CLOSE TO NATURES HEART, YOURSELF;
 AND BREAK CLEAR AWAY, ONCE IN A WHILE, AND
 CLIMB A MOUNTAIN OR SPEND A WEEK IN THE
 WOODS.  WASH YOUR SPIRIT CLEAN...
                                         -- JOHN MUIR
 Job cpu time:       0 days  0 hours 26 minutes 33.8 seconds.
 Elapsed time:       0 days  0 hours  1 minutes 21.3 seconds.
 File lengths (MBytes):  RWF=    119 Int=      0 D2E=      0 Chk=      6 Scr=      1
 Normal termination of Gaussian 16 at Thu Sep  8 16:49:45 2022.
