 Generated by Multiwfn (http://sobereva.com/multiwfn)
GAUSSIAN             75 MOL ORBITALS    320 PRIMITIVES       20 NUCLEI
  C    1    (CENTRE  1)   0.18979825  2.03627457  0.00000347  CHARGE =  6.0
  C    2    (CENTRE  2)  -2.42353800  1.88224672  0.00016788  CHARGE =  6.0
  C    3    (CENTRE  3)  -3.65337928 -0.46579092  0.00004127  CHARGE =  6.0
  C    4    (CENTRE  4)  -2.18836720 -2.65036342 -0.00006078  CHARGE =  6.0
  C    5    (CENTRE  5)   0.45503084 -2.52563200 -0.00003810  CHARGE =  6.0
  C    6    (CENTRE  6)   1.64617622 -0.19203754 -0.00012125  CHARGE =  6.0
  H    7    (CENTRE  7)  -3.49049820  3.63215010  0.00038709  CHARGE =  1.0
  H    8    (CENTRE  8)  -3.09692102 -4.48695802 -0.00008723  CHARGE =  1.0
  H    9    (CENTRE  9)   1.54792564 -4.25440069  0.00011119  CHARGE =  1.0
  O   10    (CENTRE 10)   4.21142839  0.23361386 -0.00002109  CHARGE =  8.0
  H   11    (CENTRE 11)   3.15134489  4.02153017  0.00229193  CHARGE =  1.0
  O   12    (CENTRE 12)   1.35168120  4.33253939 -0.00037447  CHARGE =  8.0
  C   13    (CENTRE 13)  -6.50455838 -0.58729846  0.00001103  CHARGE =  6.0
  H   14    (CENTRE 14)  -7.29793912  0.34955214 -1.66480934  CHARGE =  1.0
  H   15    (CENTRE 15)  -7.16901250 -2.54059877  0.00026803  CHARGE =  1.0
  H   16    (CENTRE 16)  -7.29804117  0.35003024  1.66451204  CHARGE =  1.0
  C   17    (CENTRE 17)   5.85178630 -1.89043072  0.00006016  CHARGE =  6.0
  H   18    (CENTRE 18)   7.76576137 -1.13508070 -0.00061447  CHARGE =  1.0
  H   19    (CENTRE 19)   5.57277014 -3.05328503  1.68985893  CHARGE =  1.0
  H   20    (CENTRE 20)   5.57204071 -3.05397478 -1.68913578  CHARGE =  1.0
CENTRE ASSIGNMENTS    1  1  1  1  1  1  1  1  1  1  1  1  1  1  1  1  1  1  1  1
CENTRE ASSIGNMENTS    1  1  1  1  1  1  1  1  2  2  2  2  2  2  2  2  2  2  2  2
CENTRE ASSIGNMENTS    2  2  2  2  2  2  2  2  2  2  2  2  2  2  2  2  3  3  3  3
CENTRE ASSIGNMENTS    3  3  3  3  3  3  3  3  3  3  3  3  3  3  3  3  3  3  3  3
CENTRE ASSIGNMENTS    3  3  3  3  4  4  4  4  4  4  4  4  4  4  4  4  4  4  4  4
CENTRE ASSIGNMENTS    4  4  4  4  4  4  4  4  4  4  4  4  5  5  5  5  5  5  5  5
CENTRE ASSIGNMENTS    5  5  5  5  5  5  5  5  5  5  5  5  5  5  5  5  5  5  5  5
CENTRE ASSIGNMENTS    6  6  6  6  6  6  6  6  6  6  6  6  6  6  6  6  6  6  6  6
CENTRE ASSIGNMENTS    6  6  6  6  6  6  6  6  7  7  7  7  8  8  8  8  9  9  9  9
CENTRE ASSIGNMENTS   10 10 10 10 10 10 10 10 10 10 10 10 10 10 10 10 10 10 10 10
CENTRE ASSIGNMENTS   10 10 10 10 10 10 10 10 11 11 11 11 12 12 12 12 12 12 12 12
CENTRE ASSIGNMENTS   12 12 12 12 12 12 12 12 12 12 12 12 12 12 12 12 12 12 12 12
CENTRE ASSIGNMENTS   13 13 13 13 13 13 13 13 13 13 13 13 13 13 13 13 13 13 13 13
CENTRE ASSIGNMENTS   13 13 13 13 13 13 13 13 14 14 14 14 15 15 15 15 16 16 16 16
CENTRE ASSIGNMENTS   17 17 17 17 17 17 17 17 17 17 17 17 17 17 17 17 17 17 17 17
CENTRE ASSIGNMENTS   17 17 17 17 17 17 17 17 18 18 18 18 19 19 19 19 20 20 20 20
TYPE ASSIGNMENTS      1  1  1  1  1  1  1  1  1  2  2  2  3  3  3  4  4  4  1  2
TYPE ASSIGNMENTS      3  4  5  6  7  8  9 10  1  1  1  1  1  1  1  1  1  2  2  2
TYPE ASSIGNMENTS      3  3  3  4  4  4  1  2  3  4  5  6  7  8  9 10  1  1  1  1
TYPE ASSIGNMENTS      1  1  1  1  1  2  2  2  3  3  3  4  4  4  1  2  3  4  5  6
TYPE ASSIGNMENTS      7  8  9 10  1  1  1  1  1  1  1  1  1  2  2  2  3  3  3  4
TYPE ASSIGNMENTS      4  4  1  2  3  4  5  6  7  8  9 10  1  1  1  1  1  1  1  1
TYPE ASSIGNMENTS      1  2  2  2  3  3  3  4  4  4  1  2  3  4  5  6  7  8  9 10
TYPE ASSIGNMENTS      1  1  1  1  1  1  1  1  1  2  2  2  3  3  3  4  4  4  1  2
TYPE ASSIGNMENTS      3  4  5  6  7  8  9 10  1  1  1  1  1  1  1  1  1  1  1  1
TYPE ASSIGNMENTS      1  1  1  1  1  1  1  1  1  2  2  2  3  3  3  4  4  4  1  2
TYPE ASSIGNMENTS      3  4  5  6  7  8  9 10  1  1  1  1  1  1  1  1  1  1  1  1
TYPE ASSIGNMENTS      1  2  2  2  3  3  3  4  4  4  1  2  3  4  5  6  7  8  9 10
TYPE ASSIGNMENTS      1  1  1  1  1  1  1  1  1  2  2  2  3  3  3  4  4  4  1  2
TYPE ASSIGNMENTS      3  4  5  6  7  8  9 10  1  1  1  1  1  1  1  1  1  1  1  1
TYPE ASSIGNMENTS      1  1  1  1  1  1  1  1  1  2  2  2  3  3  3  4  4  4  1  2
TYPE ASSIGNMENTS      3  4  5  6  7  8  9 10  1  1  1  1  1  1  1  1  1  1  1  1
EXPONENTS  0.3047525D+04 0.4573695D+03 0.1039487D+03 0.2921016D+02 0.9286663D+01
EXPONENTS  0.3163927D+01 0.7868272D+01 0.1881289D+01 0.5442493D+00 0.7868272D+01
EXPONENTS  0.1881289D+01 0.5442493D+00 0.7868272D+01 0.1881289D+01 0.5442493D+00
EXPONENTS  0.7868272D+01 0.1881289D+01 0.5442493D+00 0.1687145D+00 0.1687145D+00
EXPONENTS  0.1687145D+00 0.1687145D+00 0.8000000D+00 0.8000000D+00 0.8000000D+00
EXPONENTS  0.8000000D+00 0.8000000D+00 0.8000000D+00 0.3047525D+04 0.4573695D+03
EXPONENTS  0.1039487D+03 0.2921016D+02 0.9286663D+01 0.3163927D+01 0.7868272D+01
EXPONENTS  0.1881289D+01 0.5442493D+00 0.7868272D+01 0.1881289D+01 0.5442493D+00
EXPONENTS  0.7868272D+01 0.1881289D+01 0.5442493D+00 0.7868272D+01 0.1881289D+01
EXPONENTS  0.5442493D+00 0.1687145D+00 0.1687145D+00 0.1687145D+00 0.1687145D+00
EXPONENTS  0.8000000D+00 0.8000000D+00 0.8000000D+00 0.8000000D+00 0.8000000D+00
EXPONENTS  0.8000000D+00 0.3047525D+04 0.4573695D+03 0.1039487D+03 0.2921016D+02
EXPONENTS  0.9286663D+01 0.3163927D+01 0.7868272D+01 0.1881289D+01 0.5442493D+00
EXPONENTS  0.7868272D+01 0.1881289D+01 0.5442493D+00 0.7868272D+01 0.1881289D+01
EXPONENTS  0.5442493D+00 0.7868272D+01 0.1881289D+01 0.5442493D+00 0.1687145D+00
EXPONENTS  0.1687145D+00 0.1687145D+00 0.1687145D+00 0.8000000D+00 0.8000000D+00
EXPONENTS  0.8000000D+00 0.8000000D+00 0.8000000D+00 0.8000000D+00 0.3047525D+04
EXPONENTS  0.4573695D+03 0.1039487D+03 0.2921016D+02 0.9286663D+01 0.3163927D+01
EXPONENTS  0.7868272D+01 0.1881289D+01 0.5442493D+00 0.7868272D+01 0.1881289D+01
EXPONENTS  0.5442493D+00 0.7868272D+01 0.1881289D+01 0.5442493D+00 0.7868272D+01
EXPONENTS  0.1881289D+01 0.5442493D+00 0.1687145D+00 0.1687145D+00 0.1687145D+00
EXPONENTS  0.1687145D+00 0.8000000D+00 0.8000000D+00 0.8000000D+00 0.8000000D+00
EXPONENTS  0.8000000D+00 0.8000000D+00 0.3047525D+04 0.4573695D+03 0.1039487D+03
EXPONENTS  0.2921016D+02 0.9286663D+01 0.3163927D+01 0.7868272D+01 0.1881289D+01
EXPONENTS  0.5442493D+00 0.7868272D+01 0.1881289D+01 0.5442493D+00 0.7868272D+01
EXPONENTS  0.1881289D+01 0.5442493D+00 0.7868272D+01 0.1881289D+01 0.5442493D+00
EXPONENTS  0.1687145D+00 0.1687145D+00 0.1687145D+00 0.1687145D+00 0.8000000D+00
EXPONENTS  0.8000000D+00 0.8000000D+00 0.8000000D+00 0.8000000D+00 0.8000000D+00
EXPONENTS  0.3047525D+04 0.4573695D+03 0.1039487D+03 0.2921016D+02 0.9286663D+01
EXPONENTS  0.3163927D+01 0.7868272D+01 0.1881289D+01 0.5442493D+00 0.7868272D+01
EXPONENTS  0.1881289D+01 0.5442493D+00 0.7868272D+01 0.1881289D+01 0.5442493D+00
EXPONENTS  0.7868272D+01 0.1881289D+01 0.5442493D+00 0.1687145D+00 0.1687145D+00
EXPONENTS  0.1687145D+00 0.1687145D+00 0.8000000D+00 0.8000000D+00 0.8000000D+00
EXPONENTS  0.8000000D+00 0.8000000D+00 0.8000000D+00 0.1873114D+02 0.2825394D+01
EXPONENTS  0.6401217D+00 0.1612778D+00 0.1873114D+02 0.2825394D+01 0.6401217D+00
EXPONENTS  0.1612778D+00 0.1873114D+02 0.2825394D+01 0.6401217D+00 0.1612778D+00
EXPONENTS  0.5484672D+04 0.8252349D+03 0.1880470D+03 0.5296450D+02 0.1689757D+02
EXPONENTS  0.5799635D+01 0.1553962D+02 0.3599934D+01 0.1013762D+01 0.1553962D+02
EXPONENTS  0.3599934D+01 0.1013762D+01 0.1553962D+02 0.3599934D+01 0.1013762D+01
EXPONENTS  0.1553962D+02 0.3599934D+01 0.1013762D+01 0.2700058D+00 0.2700058D+00
EXPONENTS  0.2700058D+00 0.2700058D+00 0.8000000D+00 0.8000000D+00 0.8000000D+00
EXPONENTS  0.8000000D+00 0.8000000D+00 0.8000000D+00 0.1873114D+02 0.2825394D+01
EXPONENTS  0.6401217D+00 0.1612778D+00 0.5484672D+04 0.8252349D+03 0.1880470D+03
EXPONENTS  0.5296450D+02 0.1689757D+02 0.5799635D+01 0.1553962D+02 0.3599934D+01
EXPONENTS  0.1013762D+01 0.1553962D+02 0.3599934D+01 0.1013762D+01 0.1553962D+02
EXPONENTS  0.3599934D+01 0.1013762D+01 0.1553962D+02 0.3599934D+01 0.1013762D+01
EXPONENTS  0.2700058D+00 0.2700058D+00 0.2700058D+00 0.2700058D+00 0.8000000D+00
EXPONENTS  0.8000000D+00 0.8000000D+00 0.8000000D+00 0.8000000D+00 0.8000000D+00
EXPONENTS  0.3047525D+04 0.4573695D+03 0.1039487D+03 0.2921016D+02 0.9286663D+01
EXPONENTS  0.3163927D+01 0.7868272D+01 0.1881289D+01 0.5442493D+00 0.7868272D+01
EXPONENTS  0.1881289D+01 0.5442493D+00 0.7868272D+01 0.1881289D+01 0.5442493D+00
EXPONENTS  0.7868272D+01 0.1881289D+01 0.5442493D+00 0.1687145D+00 0.1687145D+00
EXPONENTS  0.1687145D+00 0.1687145D+00 0.8000000D+00 0.8000000D+00 0.8000000D+00
EXPONENTS  0.8000000D+00 0.8000000D+00 0.8000000D+00 0.1873114D+02 0.2825394D+01
EXPONENTS  0.6401217D+00 0.1612778D+00 0.1873114D+02 0.2825394D+01 0.6401217D+00
EXPONENTS  0.1612778D+00 0.1873114D+02 0.2825394D+01 0.6401217D+00 0.1612778D+00
EXPONENTS  0.3047525D+04 0.4573695D+03 0.1039487D+03 0.2921016D+02 0.9286663D+01
EXPONENTS  0.3163927D+01 0.7868272D+01 0.1881289D+01 0.5442493D+00 0.7868272D+01
EXPONENTS  0.1881289D+01 0.5442493D+00 0.7868272D+01 0.1881289D+01 0.5442493D+00
EXPONENTS  0.7868272D+01 0.1881289D+01 0.5442493D+00 0.1687145D+00 0.1687145D+00
EXPONENTS  0.1687145D+00 0.1687145D+00 0.8000000D+00 0.8000000D+00 0.8000000D+00
EXPONENTS  0.8000000D+00 0.8000000D+00 0.8000000D+00 0.1873114D+02 0.2825394D+01
EXPONENTS  0.6401217D+00 0.1612778D+00 0.1873114D+02 0.2825394D+01 0.6401217D+00
EXPONENTS  0.1612778D+00 0.1873114D+02 0.2825394D+01 0.6401217D+00 0.1612778D+00
MO    1     MO 0.0        OCC NO =    1.0000000  ORB. ENERGY =  -19.004579
  0.12838469D-04  0.23684469D-04  0.38234077D-04  0.49769408D-04  0.42468326D-04
  0.14663292D-04 -0.67913960D-04 -0.31301482D-04  0.87772623D-04  0.55761250D-04
  0.42754190D-04  0.21337337D-04  0.68572798D-04  0.52577272D-04  0.26239744D-04
 -0.90826129D-07 -0.69639715D-07 -0.34755099D-07 -0.10813506D-03  0.19463129D-03
  0.31761212D-03 -0.11294878D-07 -0.40215271D-04  0.60097383D-04  0.31429009D-04
  0.10259034D-03 -0.53241534D-07 -0.15923850D-06  0.47631228D-05  0.87870315D-05
  0.14184993D-04  0.18464647D-04  0.15755916D-04  0.54401393D-05 -0.11473600D-04
 -0.52881718D-05  0.14828586D-04  0.71726947D-04  0.54995673D-04  0.27446695D-04
 -0.25384009D-04 -0.19462848D-04 -0.97133253D-05  0.10805720D-07  0.82851406D-08
  0.41348658D-08  0.23421799D-03  0.32671916D-04 -0.11160851D-03 -0.15133723D-07
  0.18918496D-04  0.23644705D-04  0.31824510D-04  0.77724593D-05 -0.40463560D-08
 -0.43210726D-08  0.58783241D-05  0.10844360D-04  0.17506160D-04  0.22787818D-04
  0.19444887D-04  0.67138521D-05 -0.25734202D-04 -0.11860870D-04  0.33259118D-04
  0.25789225D-04  0.19773542D-04  0.98683833D-05  0.12150490D-04  0.93162250D-05
  0.46494492D-05 -0.20012819D-07 -0.15344560D-07 -0.76580109D-08 -0.21892984D-03
 -0.12848097D-03 -0.14429492D-04  0.86700615D-08  0.12033919D-04 -0.31675101D-04
  0.25923529D-04  0.16280074D-04  0.34437335D-08 -0.33302586D-08 -0.42379210D-05
 -0.78181368D-05 -0.12620897D-04 -0.16428658D-04 -0.14018603D-04 -0.48402869D-05
  0.25565853D-04  0.11783278D-04 -0.33041543D-04  0.87301425D-04  0.66937196D-04
  0.33406352D-04  0.74996357D-05  0.57502449D-05  0.28697752D-05 -0.70798946D-08
 -0.54284141D-08 -0.27091591D-08  0.36838003D-03  0.10291957D-03  0.11652681D-03
  0.33878173D-08  0.53336599D-04 -0.24966602D-05 -0.43384442D-05 -0.16383773D-04
  0.39148407D-08  0.12918045D-07  0.11536581D-04  0.21282738D-04  0.34356939D-04
  0.44722526D-04  0.38161812D-04  0.13176357D-04 -0.79124770D-04 -0.36468534D-04
  0.10226158D-03 -0.86152963D-04 -0.66056628D-04 -0.32966887D-04 -0.52574473D-04
 -0.40310771D-04 -0.20117900D-04  0.14615304D-08  0.11206088D-08  0.55926233D-09
 -0.62248082D-03  0.20342346D-03 -0.28970096D-03  0.13684122D-07 -0.67326902D-04
 -0.87559207D-04  0.49862546D-04 -0.95320288D-05 -0.13584426D-07  0.10519677D-07
 -0.25590285D-04 -0.47209080D-04 -0.76210092D-04 -0.99202896D-04 -0.84650011D-04
 -0.29227615D-04 -0.28783567D-04 -0.13266320D-04  0.37200145D-04  0.55235397D-03
  0.42350999D-03  0.21136117D-03  0.17311557D-03  0.13273404D-03  0.66243588D-04
 -0.35977160D-07 -0.27585004D-07 -0.13766851D-07  0.23825739D-04 -0.72482216D-03
 -0.25834651D-03  0.13193354D-07  0.90970820D-04 -0.10652949D-04 -0.92264218D-04
  0.17356242D-03 -0.51878154D-07  0.94340952D-08  0.60156242D-05  0.10203637D-04
  0.11616480D-04  0.24464908D-04  0.41094460D-05  0.69703983D-05  0.79355521D-05
  0.30813043D-04 -0.16127591D-04 -0.27355446D-04 -0.31143209D-04 -0.12100621D-03
  0.82556752D+00  0.15194849D+01  0.24588135D+01  0.32321791D+01  0.27722213D+01
  0.94786953D+00 -0.15700758D-01 -0.70056474D-02  0.20687771D-01 -0.56432036D-03
 -0.43477841D-03 -0.19089114D-03 -0.27335288D-02 -0.21060365D-02 -0.92466348D-03
  0.17794823D-06  0.13709952D-06  0.60194072D-07  0.41573234D-02 -0.35065048D-03
  0.23213743D-04  0.23505758D-08 -0.94999723D-02 -0.96077609D-02 -0.94430621D-02
  0.16308282D-03  0.24616616D-10  0.89549313D-07 -0.61535196D-05 -0.10437534D-04
 -0.11882763D-04 -0.15686709D-03  0.26116419D-04  0.48068152D-04  0.77783344D-04
  0.10224838D-03  0.87697844D-04  0.29985382D-04 -0.10195881D-03 -0.45493821D-04
  0.13434386D-03 -0.16228824D-03 -0.12503434D-03 -0.54896811D-04 -0.19508809D-03
 -0.15030486D-03 -0.65991929D-04 -0.36351896D-06 -0.28007176D-06 -0.12296659D-06
 -0.30074378D-03  0.18066905D-03  0.15735602D-03  0.13887436D-06  0.15512195D-03
  0.50782454D-05  0.11451399D-03 -0.99939455D-04  0.31727304D-06 -0.97973420D-08
  0.13314125D-05  0.24561961D-05  0.39650621D-05  0.51613328D-05  0.44041746D-05
  0.15206557D-05 -0.57059826D-05 -0.26298822D-05  0.73744641D-05 -0.15287391D-04
 -0.11721402D-04 -0.58498009D-05  0.74103265D-05  0.56817684D-05  0.28356006D-05
  0.77196871D-08  0.59189665D-08  0.29539791D-08 -0.59570410D-04 -0.16640245D-04
 -0.59940680D-05 -0.75721406D-08 -0.24562917D-05  0.55894574D-05  0.79009688D-07
 -0.60887042D-05 -0.46192647D-08 -0.89616892D-08  0.20170474D-05  0.34212941D-05
  0.38950224D-05  0.23643672D-05 -0.48268638D-06 -0.81872747D-06 -0.93209228D-06
  0.16703496D-05  0.20193081D-05  0.34251287D-05  0.38993880D-05  0.23716165D-05
  0.68807311D-05  0.12693605D-04  0.20491415D-04  0.26673733D-04  0.22760745D-04
  0.78587383D-05 -0.75115209D-04 -0.34620531D-04  0.97079583D-04 -0.28397716D-03
 -0.21773568D-03 -0.10866536D-03  0.50794661D-03  0.38946124D-03  0.19436846D-03
 -0.12473750D-07 -0.95640803D-08 -0.47731463D-08 -0.30259277D-03  0.42720708D-04
 -0.11317257D-03  0.99402818D-10  0.17148923D-03  0.36396352D-03  0.23464580D-04
 -0.46008686D-03  0.68391956D-07 -0.43500684D-08  0.25269082D-04  0.42861146D-04
  0.48795900D-04  0.25192874D-04  0.12214536D-04  0.20718164D-04  0.23586898D-04
  0.10326761D-04  0.12205534D-04  0.20702896D-04  0.23569515D-04  0.10328351D-04
MO    2     MO 0.0        OCC NO =    1.0000000  ORB. ENERGY =  -18.984276
 -0.36118565D-04 -0.66631700D-04 -0.10756422D-03 -0.14001666D-03 -0.11947647D-03
 -0.41252353D-04 -0.19984744D-04 -0.92109502D-05  0.25828466D-04  0.21118656D-03
  0.16192446D-03  0.80811655D-04  0.52594392D-03  0.40326044D-03  0.20125522D-03
 -0.22462184D-06 -0.17222578D-06 -0.85952735D-07  0.22580945D-03 -0.28318455D-03
 -0.86518089D-03  0.14983150D-06 -0.78629158D-04 -0.20883184D-04 -0.13387388D-03
 -0.91692132D-04  0.42310849D-07  0.13984908D-08  0.76247198D-05  0.14066119D-04
  0.22707078D-04  0.29557868D-04  0.25221783D-04  0.87084755D-05 -0.67608120D-04
 -0.31160521D-04  0.87377353D-04 -0.98022647D-05 -0.75157549D-05 -0.37508884D-05
 -0.73785901D-05 -0.56574349D-05 -0.28234565D-05  0.18891977D-07  0.14485170D-07
  0.72291150D-08 -0.40169515D-03 -0.13891672D-03  0.31791119D-03 -0.22820117D-07
 -0.89165375D-04 -0.56651990D-04  0.33452311D-04  0.31624462D-04 -0.79684213D-07
  0.50440369D-07 -0.87158198D-06 -0.16078986D-05 -0.25956468D-05 -0.33787609D-05
 -0.28831028D-05 -0.99546612D-06  0.15429474D-04  0.71114305D-05 -0.19941193D-04
  0.62559183D-04  0.47966414D-04  0.23938602D-04  0.59189326D-04  0.45382621D-04
  0.22649109D-04  0.22133352D-07  0.16970451D-07  0.84694442D-08  0.37746986D-03
  0.10711623D-03  0.19003534D-04  0.11087487D-07  0.15634978D-04  0.45282518D-04
  0.15331556D-04 -0.10497324D-05  0.14468601D-07  0.36138234D-07  0.94637401D-05
  0.17458752D-04  0.28183840D-04  0.36686985D-04  0.31305071D-04  0.10808889D-04
 -0.39508970D-04 -0.18209648D-04  0.51061754D-04 -0.23818470D-04 -0.18262492D-04
 -0.91142636D-05  0.27286642D-04  0.20921666D-04  0.10441378D-04  0.21126507D-07
  0.16198465D-07  0.80841695D-08 -0.33997622D-03 -0.81053929D-04 -0.13300198D-03
 -0.11790494D-07 -0.29145923D-04  0.11621591D-04  0.39082975D-04  0.30205263D-04
  0.57756651D-08 -0.20371543D-07 -0.49566626D-05 -0.91440746D-05 -0.14761372D-04
 -0.19214920D-04 -0.16396126D-04 -0.56611883D-05  0.27174763D-04  0.12524823D-04
 -0.35120912D-04  0.53521369D-04  0.41036791D-04  0.20480235D-04  0.92487000D-04
  0.70913165D-04  0.35390639D-04  0.28400522D-07  0.21775719D-07  0.10867610D-07
  0.50282726D-03 -0.14750640D-03  0.22882761D-03 -0.63900002D-08  0.15459720D-05
  0.42241690D-04 -0.39946355D-05  0.15889252D-04  0.31566195D-07 -0.54123819D-08
  0.27008364D-04  0.49825157D-04  0.80433253D-04  0.10470020D-03  0.89340867D-04
  0.30847254D-04 -0.12386082D-03 -0.57087337D-04  0.16007885D-03  0.17347472D-04
  0.13300941D-04  0.66381019D-05 -0.51748147D-04 -0.39677197D-04 -0.19801702D-04
 -0.41409507D-07 -0.31750183D-07 -0.15845567D-07 -0.71281472D-03  0.60599315D-03
  0.21996522D-04 -0.61477713D-07  0.67703303D-04 -0.74282232D-04  0.82280112D-04
  0.70748679D-04  0.74459285D-07 -0.48529090D-07 -0.11045173D-04 -0.18734704D-04
 -0.21328798D-04 -0.14402520D-03 -0.53732532D-05 -0.91140545D-05 -0.10376029D-04
 -0.40877318D-04  0.11441296D-04  0.19406603D-04  0.22093732D-04  0.87009252D-04
  0.43368212D-04  0.79820661D-04  0.12916490D-03  0.16979087D-03  0.14562864D-03
  0.49792907D-04 -0.15929257D-03 -0.71076032D-04  0.20988848D-03 -0.15587886D-03
 -0.12009626D-03 -0.52728727D-04 -0.88831964D-04 -0.68440239D-04 -0.30048951D-04
 -0.33882446D-06 -0.26104598D-06 -0.11461325D-06 -0.47097127D-03  0.18697647D-03
  0.79666328D-04  0.12317884D-06  0.77540806D-04  0.18006016D-03  0.16352233D-03
 -0.45903353D-04 -0.66391265D-07  0.63344528D-07  0.84525150D-04  0.14337065D-03
  0.16322242D-03 -0.20450209D-03  0.82560744D+00  0.15195584D+01  0.24589324D+01
  0.32323354D+01  0.27723553D+01  0.94791537D+00 -0.15740153D-01 -0.70232255D-02
  0.20739679D-01  0.18100595D-02  0.13945533D-02  0.61228400D-03 -0.24924278D-02
 -0.19202812D-02 -0.84310689D-03  0.43375688D-05  0.33418629D-05  0.14672578D-05
  0.40465659D-02 -0.25038950D-03 -0.33000026D-03  0.52452369D-07 -0.92980722D-02
 -0.92740939D-02 -0.92823220D-02  0.17731433D-03 -0.12025581D-06  0.38516412D-07
  0.55171191D-05  0.10178007D-04  0.16430460D-04  0.21387577D-04  0.18250058D-04
  0.63013064D-05 -0.18986135D-04 -0.87506924D-05  0.24537855D-04  0.30388716D-06
  0.23300140D-06  0.11628403D-06  0.22547048D-05  0.17287647D-05  0.86277473D-06
 -0.66669940D-08 -0.51118281D-08 -0.25511605D-08 -0.26601471D-04 -0.10159767D-04
 -0.22878422D-05 -0.22561283D-09 -0.37450205D-05  0.20592325D-04  0.21084961D-04
  0.73128194D-06 -0.52209236D-08  0.90523443D-08  0.20309459D-05  0.34448686D-05
  0.39218611D-05  0.41229808D-05  0.25308672D-05  0.42928299D-05  0.48872351D-05
  0.69614217D-06  0.20264255D-05  0.34372012D-05  0.39131321D-05  0.41308843D-05
  0.10474978D-04  0.19324289D-04  0.31195394D-04  0.40607133D-04  0.34650140D-04
  0.11963861D-04 -0.32709230D-04 -0.15075654D-04  0.42273708D-04 -0.58577532D-04
 -0.44913536D-04 -0.22415002D-04  0.27638427D-04  0.21191393D-04  0.10575990D-04
 -0.44005956D-09 -0.33740976D-09 -0.16839112D-09 -0.51474601D-04  0.30202414D-04
 -0.13731535D-04 -0.27609405D-07  0.33938857D-04  0.16413564D-04  0.41544700D-04
  0.11102538D-05  0.33125920D-07 -0.42134987D-07 -0.63710678D-06 -0.10806537D-05
 -0.12302860D-05 -0.73212861D-05  0.48471086D-05  0.82216136D-05  0.93600165D-05
 -0.55042171D-05  0.48445433D-05  0.82172623D-05  0.93550627D-05 -0.55441822D-05
MO    3     MO 0.0        OCC NO =    1.0000000  ORB. ENERGY =  -10.100766
 -0.34449804D-04 -0.63553162D-04 -0.10259451D-03 -0.13354757D-03 -0.11395638D-03
 -0.39346400D-04  0.10679254D-03  0.49220584D-04 -0.13801965D-03  0.10329519D-03
  0.79200204D-04  0.39526452D-04 -0.24433244D-04 -0.18733862D-04 -0.93495099D-05
 -0.33786551D-08 -0.25905384D-08 -0.12928602D-08  0.74659764D-03 -0.21801587D-04
 -0.44161226D-03 -0.96841969D-08  0.13715838D-05 -0.21969773D-04 -0.90411180D-04
 -0.64609332D-04 -0.19765236D-07  0.55314839D-08  0.81335441D-05  0.15004801D-04
  0.24222401D-04  0.31530369D-04  0.26904921D-04  0.92896225D-05 -0.32845687D-04
 -0.15138547D-04  0.42450067D-04 -0.89741537D-04 -0.68808118D-04 -0.34340073D-04
 -0.31514693D-04 -0.24163467D-04 -0.12059264D-04  0.90008563D-08  0.69012857D-08
  0.34442252D-08 -0.32488080D-03 -0.49950742D-04  0.19344414D-03  0.11442701D-07
 -0.27090401D-04  0.89793303D-05  0.19503484D-04  0.30758085D-04  0.13415312D-08
 -0.87078431D-09 -0.30299179D-05 -0.55896068D-05 -0.90233585D-05 -0.11745732D-04
 -0.10022654D-04 -0.34605816D-05  0.11253947D-04  0.51869337D-05 -0.14544704D-04
 -0.64147411D-05 -0.49184166D-05 -0.24546346D-05  0.47191942D-04  0.36183788D-04
  0.18058246D-04 -0.18298187D-08 -0.14029889D-08 -0.70018979D-09  0.13606429D-03
  0.45044647D-04  0.91219430D-04  0.13195375D-07 -0.12314817D-04  0.13957433D-04
 -0.11911734D-04  0.48671276D-04  0.11290812D-07 -0.84295653D-08 -0.15307594D-04
 -0.28239521D-04 -0.45587344D-04 -0.59341176D-04 -0.50635933D-04 -0.17483371D-04
  0.52586559D-04  0.24237097D-04 -0.67963350D-04  0.41389746D-05  0.31735032D-05
  0.15838005D-05 -0.43615268D-04 -0.33441421D-04 -0.16689613D-04  0.23090007D-07
  0.17703952D-07  0.88355131D-08  0.10475103D-03  0.31494504D-04  0.52177229D-04
 -0.16837122D-07  0.47576987D-04 -0.20058097D-04 -0.68087608D-04  0.69602460D-05
 -0.21151219D-07 -0.10878453D-07  0.19812289D-05  0.36549804D-05  0.59002717D-05
  0.76804006D-05  0.65536998D-05  0.22628350D-05 -0.30106771D-04 -0.13876183D-04
  0.38910267D-04 -0.13196404D-03 -0.10118166D-03 -0.50496738D-04 -0.20444318D-04
 -0.15675407D-04 -0.78231265D-05 -0.54802215D-07 -0.42018863D-07 -0.20970357D-07
 -0.22757995D-03 -0.57747835D-04  0.58321233D-05  0.29203936D-07 -0.11231620D-03
  0.37974488D-04 -0.90839051D-05 -0.98046933D-04  0.34972691D-07  0.23757664D-08
 -0.92816203D-05 -0.17122777D-04 -0.27641471D-04 -0.35980983D-04 -0.30702638D-04
 -0.10600883D-04  0.40191266D-04  0.18524118D-04 -0.51943560D-04 -0.12451615D-03
 -0.95471088D-04 -0.47646764D-04  0.18285646D-03  0.14020274D-03  0.69970992D-04
 -0.14075952D-07 -0.10792548D-07 -0.53862376D-08 -0.27988406D-03  0.46231859D-03
 -0.44180534D-03 -0.12670601D-07  0.21894805D-03  0.15055131D-04 -0.40249757D-04
  0.97859792D-04  0.68693577D-07 -0.36491293D-07 -0.12025883D-04 -0.20398173D-04
 -0.23222599D-04 -0.48316284D-04  0.13829504D-05  0.23457457D-05  0.26705486D-05
  0.26084251D-04  0.94539588D-05  0.16035703D-04  0.18256082D-04  0.47834860D-04
 -0.56799992D-04 -0.10454231D-03 -0.16916919D-03 -0.22237763D-03 -0.19073200D-03
 -0.65214511D-04 -0.30610896D-04 -0.13658522D-04  0.40333798D-04 -0.19355584D-03
 -0.14912434D-03 -0.65473617D-04 -0.16050609D-03 -0.12366129D-03 -0.54293967D-04
 -0.88407044D-07 -0.68112861D-07 -0.29905215D-07  0.18193816D-03  0.12694220D-03
  0.21566504D-03  0.36800970D-07 -0.35181925D-03 -0.50481338D-03  0.12464160D-03
  0.54137149D-03 -0.38790511D-07  0.35996294D-07 -0.82051832D-06 -0.13917544D-05
 -0.15844632D-05 -0.38814706D-04 -0.44889297D-04 -0.82620269D-04 -0.13369519D-03
 -0.17574607D-03 -0.15073638D-03 -0.51539330D-04  0.14844798D-03  0.66237198D-04
 -0.19559933D-03  0.43798244D-04  0.33744186D-04  0.14815515D-04 -0.50353938D-05
 -0.38794995D-05 -0.17033092D-05 -0.15562835D-06 -0.11990325D-06 -0.52643985D-07
  0.40248178D-03 -0.45105803D-04 -0.57410178D-04  0.83746053D-07 -0.13604607D-03
 -0.17322444D-03 -0.17169019D-03  0.25515212D-04  0.28221023D-07 -0.43351071D-07
 -0.21893016D-05 -0.40388339D-05 -0.65199302D-05 -0.84870119D-05 -0.72419827D-05
 -0.25004826D-05  0.47089023D-05  0.21703288D-05 -0.60858284D-05 -0.54058772D-05
 -0.41448838D-05 -0.20685875D-05  0.68791449D-05  0.52744920D-05  0.26323412D-05
 -0.20132433D-08 -0.15436273D-08 -0.77037819D-09  0.18645483D-04  0.83305804D-05
 -0.24218424D-04 -0.25968407D-08 -0.35225048D-06  0.51002064D-05 -0.17492428D-04
 -0.35840524D-04 -0.50870767D-08 -0.11263842D-07  0.13126856D-05  0.22265633D-05
  0.25348636D-05  0.40833366D-05 -0.40650420D-05 -0.68950807D-05 -0.78498056D-05
 -0.72988332D-05  0.13143812D-05  0.22294393D-05  0.25381378D-05  0.40862329D-05
  0.53256366D+00  0.98247597D+00  0.15860208D+01  0.20645279D+01  0.17616654D+01
  0.60826072D+00 -0.19685565D-01 -0.90730591D-02  0.25441805D-01 -0.63424763D-03
 -0.48630085D-03 -0.24269821D-03  0.67180061D-03  0.51509410D-03  0.25706806D-03
 -0.15456115D-07 -0.11850769D-07 -0.59143641D-08 -0.26625962D-02  0.91319489D-04
  0.55343169D-04 -0.10255869D-07 -0.99872198D-02 -0.99367405D-02 -0.10104795D-01
 -0.17961920D-03 -0.80745771D-07 -0.87338333D-07 -0.48295284D-04 -0.81917943D-04
 -0.93260683D-04  0.41099794D-03 -0.10473064D-04 -0.17764299D-04 -0.20224027D-04
  0.48793800D-03 -0.10452734D-04 -0.17729815D-04 -0.20184768D-04  0.48791101D-03
MO    4     MO 0.0        OCC NO =    1.0000000  ORB. ENERGY =  -10.025600
  0.53246331D+00  0.98229084D+00  0.15857220D+01  0.20641389D+01  0.17613334D+01
  0.60814611D+00 -0.19798761D-01 -0.91252307D-02  0.25588099D-01  0.69137420D-03
  0.53010188D-03  0.26455799D-03  0.12241082D-02  0.93856849D-03  0.46841146D-03
 -0.34332837D-06 -0.26324242D-06 -0.13137642D-06 -0.39603410D-02  0.84162238D-03
  0.17694767D-02 -0.35055491D-07 -0.98634010D-02 -0.93999798D-02 -0.10371121D-01
  0.71586924D-03 -0.91476072D-07 -0.35817695D-06  0.16027401D-02  0.29567426D-02
  0.47730993D-02  0.62131571D-02  0.53016982D-02  0.18305490D-02  0.31354802D-03
  0.14451400D-03 -0.40523233D-03 -0.33732005D-03 -0.25863562D-03 -0.12907730D-03
  0.10916592D-03  0.83701502D-04  0.41772916D-04  0.47220888D-07  0.36205982D-07
  0.18069322D-07  0.26268350D-02  0.72119485D-03 -0.10102554D-02 -0.10599234D-06
 -0.35438783D-03 -0.28703417D-03 -0.36934030D-03 -0.25592415D-03  0.34070510D-07
  0.46937721D-07  0.46466265D-04  0.85721185D-04  0.13838057D-03  0.18013039D-03
  0.15370559D-03  0.53070845D-04 -0.10816790D-03 -0.49854485D-04  0.13979718D-03
 -0.86927439D-04 -0.66650446D-04 -0.33263244D-04 -0.74788749D-04 -0.57343269D-04
 -0.28618310D-04 -0.51478654D-09 -0.39470567D-09 -0.19698579D-09 -0.15094081D-02
 -0.59569579D-03 -0.25599139D-03 -0.11850804D-07  0.17555483D-04  0.24799206D-04
  0.62255229D-04 -0.25093073D-05 -0.32895931D-07  0.94415919D-08 -0.65175642D-04
 -0.12023633D-03 -0.19409872D-03 -0.25265886D-03 -0.21559427D-03 -0.74439519D-04
  0.12602189D-03  0.58083373D-04 -0.16287184D-03 -0.25676803D-04 -0.19687344D-04
 -0.98253646D-05 -0.61083416D-04 -0.46834889D-04 -0.23373892D-04  0.20916857D-08
  0.16037719D-08  0.80039459D-09  0.10381613D-02  0.32115527D-03  0.46029694D-03
  0.12842739D-07  0.12944518D-04 -0.24145161D-04 -0.12051456D-03 -0.33251807D-04
 -0.16973554D-07  0.30855926D-07  0.49099536D-04  0.90579057D-04  0.14622268D-03
  0.19033849D-03  0.16241618D-03  0.56078402D-04 -0.60801646D-04 -0.28023423D-04
  0.78580604D-04 -0.27947664D-04 -0.21428496D-04 -0.10694322D-04 -0.14306211D-03
 -0.10969095D-03 -0.54743472D-04 -0.10253908D-07 -0.78620465D-08 -0.39237122D-08
 -0.13796156D-02  0.38330852D-03 -0.56673346D-03  0.24124650D-07  0.53101655D-04
  0.70115980D-04  0.24435453D-04  0.71710468D-04 -0.46009522D-07  0.25951021D-07
  0.10798827D-01  0.19921727D-01  0.32159844D-01  0.41862561D-01  0.35721399D-01
  0.12333741D-01 -0.36701630D-04 -0.16915748D-04  0.47433522D-04  0.27389705D-03
  0.21000689D-03  0.10480815D-03 -0.29434039D-03 -0.22568154D-03 -0.11263091D-03
 -0.31431329D-09 -0.24099549D-09 -0.12027364D-09  0.24832604D-02 -0.13669566D-02
  0.17834520D-03  0.62764330D-07 -0.53309679D-03 -0.77128211D-03 -0.55878406D-03
 -0.88970737D-04 -0.54581161D-07 -0.10345485D-08  0.44447044D-04  0.75390600D-04
  0.85829533D-04  0.35182190D-03  0.26081759D-04  0.44239600D-04  0.50365221D-04
  0.16177512D-03 -0.19874099D-04 -0.33710233D-04 -0.38377909D-04 -0.19884403D-03
 -0.64084303D-04 -0.11794933D-03 -0.19086428D-03 -0.25089644D-03 -0.21519241D-03
 -0.73577941D-04  0.24839319D-03  0.11083256D-03 -0.32729003D-03  0.55128462D-04
  0.42473508D-04  0.18648158D-04 -0.13808660D-04 -0.10638828D-04 -0.46710184D-05
  0.83898630D-07  0.64639372D-07  0.28380166D-07  0.72263582D-03 -0.20850596D-03
 -0.43648574D-04 -0.53722044D-07 -0.13055780D-03 -0.23225006D-03 -0.24490806D-03
  0.13799468D-04  0.52363755D-07  0.50224589D-07  0.47283519D-04  0.80201797D-04
  0.91306911D-04 -0.35447204D-04  0.14260003D-03  0.26246018D-03  0.42471011D-03
  0.55829333D-03  0.47884495D-03  0.16372522D-03 -0.77077770D-03 -0.34391951D-03
  0.10155989D-02  0.55769477D-05  0.42967375D-05  0.18864992D-05  0.90865341D-04
  0.70006847D-04  0.30736777D-04  0.15680513D-06  0.12080990D-06  0.53042053D-07
 -0.18892327D-02  0.38503209D-03  0.76201843D-03 -0.25757918D-06  0.56774551D-03
 -0.18519423D-03  0.10836450D-02 -0.11169904D-02 -0.36369623D-07  0.61175539D-06
 -0.49461080D-04 -0.91246035D-04 -0.14729939D-03 -0.19174004D-03 -0.16361213D-03
 -0.56491335D-04  0.56076470D-04  0.25845594D-04 -0.72473743D-04 -0.36243133D-04
 -0.27788936D-04 -0.13868627D-04 -0.17999760D-04 -0.13801075D-04 -0.68877034D-05
 -0.32333227D-08 -0.24791068D-08 -0.12372480D-08 -0.42064907D-04 -0.40992008D-05
  0.71614935D-04  0.15728032D-08 -0.91950211D-06 -0.76135092D-04 -0.39555608D-04
  0.10601075D-03  0.36072147D-08  0.28180346D-07 -0.96473792D-05 -0.16363781D-04
 -0.18629586D-04 -0.18733702D-04  0.25624819D-05  0.43464543D-05  0.49482846D-05
  0.28443941D-04 -0.96511883D-05 -0.16370242D-04 -0.18636942D-04 -0.18736175D-04
 -0.10271450D-04 -0.18948819D-04 -0.30589269D-04 -0.39818139D-04 -0.33976890D-04
 -0.11731404D-04  0.64450388D-04  0.29705125D-04 -0.83296271D-04  0.69882997D-04