 Entering Link 1 = D:\Gaussian\G16W\l1.exe PID=     56888.
  
 Copyright (c) 1988,1990,1992,1993,1995,1998,2003,2009,2016,
            Gaussian, Inc.  All Rights Reserved.
  
 This is part of the Gaussian(R) 16 program.  It is based on
 the Gaussian(R) 09 system (copyright 2009, Gaussian, Inc.),
 the Gaussian(R) 03 system (copyright 2003, Gaussian, Inc.),
 the Gaussian(R) 98 system (copyright 1998, Gaussian, Inc.),
 the Gaussian(R) 94 system (copyright 1995, Gaussian, Inc.),
 the Gaussian 92(TM) system (copyright 1992, Gaussian, Inc.),
 the Gaussian 90(TM) system (copyright 1990, Gaussian, Inc.),
 the Gaussian 88(TM) system (copyright 1988, Gaussian, Inc.),
 the Gaussian 86(TM) system (copyright 1986, Carnegie Mellon
 University), and the Gaussian 82(TM) system (copyright 1983,
 Carnegie Mellon University). Gaussian is a federally registered
 trademark of Gaussian, Inc.
  
 This software contains proprietary and confidential information,
 including trade secrets, belonging to Gaussian, Inc.
  
 This software is provided under written license and may be
 used, copied, transmitted, or stored only in accord with that
 written license.
  
 The following legend is applicable only to US Government
 contracts under FAR:
  
                    RESTRICTED RIGHTS LEGEND
  
 Use, reproduction and disclosure by the US Government is
 subject to restrictions as set forth in subparagraphs (a)
 and (c) of the Commercial Computer Software - Restricted
 Rights clause in FAR 52.227-19.
  
 Gaussian, Inc.
 340 Quinnipiac St., Bldg. 40, Wallingford CT 06492
  
  
 ---------------------------------------------------------------
 Warning -- This program may not be used in any manner that
 competes with the business of Gaussian, Inc. or will provide
 assistance to any competitor of Gaussian, Inc.  The licensee
 of this program is prohibited from giving any competitor of
 Gaussian, Inc. access to this program.  By using this program,
 the user acknowledges that Gaussian, Inc. is engaged in the
 business of creating and licensing software in the field of
 computational chemistry and represents and warrants to the
 licensee that it is not a competitor of Gaussian, Inc. and that
 it will not use this program in any manner prohibited above.
 ---------------------------------------------------------------
  

 Cite this work as:
 Gaussian 16, Revision A.03,
 M. J. Frisch, G. W. Trucks, H. B. Schlegel, G. E. Scuseria, 
 M. A. Robb, J. R. Cheeseman, G. Scalmani, V. Barone, 
 G. A. Petersson, H. Nakatsuji, X. Li, M. Caricato, A. V. Marenich, 
 J. Bloino, B. G. Janesko, R. Gomperts, B. Mennucci, H. P. Hratchian, 
 J. V. Ortiz, A. F. Izmaylov, J. L. Sonnenberg, D. Williams-Young, 
 F. Ding, F. Lipparini, F. Egidi, J. Goings, B. Peng, A. Petrone, 
 T. Henderson, D. Ranasinghe, V. G. Zakrzewski, J. Gao, N. Rega, 
 G. Zheng, W. Liang, M. Hada, M. Ehara, K. Toyota, R. Fukuda, 
 J. Hasegawa, M. Ishida, T. Nakajima, Y. Honda, O. Kitao, H. Nakai, 
 T. Vreven, K. Throssell, J. A. Montgomery, Jr., J. E. Peralta, 
 F. Ogliaro, M. J. Bearpark, J. J. Heyd, E. N. Brothers, K. N. Kudin, 
 V. N. Staroverov, T. A. Keith, R. Kobayashi, J. Normand, 
 K. Raghavachari, A. P. Rendell, J. C. Burant, S. S. Iyengar, 
 J. Tomasi, M. Cossi, J. M. Millam, M. Klene, C. Adamo, R. Cammi, 
 J. W. Ochterski, R. L. Martin, K. Morokuma, O. Farkas, 
 J. B. Foresman, and D. J. Fox, Gaussian, Inc., Wallingford CT, 2016.
 
 ******************************************
 Gaussian 16:  EM64W-G16RevA.03 17-Dec-2016
                08-Dec-2025 
 ******************************************
 %nprocshared=14
 Will use up to   14 processors via shared memory.
 %nprocs=   4
 Will use up to    4 processors via shared memory.
 --------------------------------------
 #p b3lyp/6-31g(d) out=wfn scf=conver=7
 --------------------------------------
 1/38=1,172=1/1;
 2/12=2,17=6,18=5,40=1/2;
 3/5=1,6=6,7=1,11=2,25=1,30=1,74=-5/1,2,3;
 4//1;
 5/5=2,6=7,38=5/2;
 6/7=2,8=2,9=2,10=2,28=1/1;
 99/5=1,6=100,9=1/99;
 Leave Link    1 at Mon Dec 08 16:45:47 2025, MaxMem=           0 cpu:               0.0 elap:               0.2
 (Enter D:\Gaussian\G16W\l101.exe)
 ----------------------------------------------------
 Generated by Multiwfn (http://sobereva.com/multiwfn)
 ----------------------------------------------------
 Symbolic Z-matrix:
 Charge = -1 Multiplicity = 2
 C                     0.10044   1.07755   0. 
 C                    -1.28248   0.99604   0.00009 
 C                    -1.93329  -0.24649   0.00002 
 C                    -1.15803  -1.40251  -0.00003 
 C                     0.24079  -1.33651  -0.00002 
 C                     0.87112  -0.10162  -0.00006 
 H                    -1.84709   1.92205   0.0002 
 H                    -1.63882  -2.3744   -0.00005 
 H                     0.81913  -2.25133   0.00006 
 O                     2.22859   0.12362  -0.00001 
 H                     1.66762   2.1281    0.00121 
 O                     0.71528   2.29268  -0.0002 
 C                    -3.44206  -0.31078   0.00001 
 H                    -3.8619    0.18498  -0.88098 
 H                    -3.79368  -1.34443   0.00014 
 H                    -3.86196   0.18523   0.88082 
 C                     3.09663  -1.00037   0.00003 
 H                     4.10946  -0.60066  -0.00033 
 H                     2.94898  -1.61573   0.89423 
 H                     2.9486   -1.61609  -0.89385 
 
 ITRead=  0  0  0  0  0  0  0  0  0  0  0  0  0  0  0  0  0  0  0  0
 MicOpt= -1 -1 -1 -1 -1 -1 -1 -1 -1 -1 -1 -1 -1 -1 -1 -1 -1 -1 -1 -1
 NAtoms=     20 NQM=       20 NQMF=       0 NMMI=      0 NMMIF=      0
                NMic=       0 NMicF=      0.
                    Isotopes and Nuclear Properties:
 (Nuclear quadrupole moments (NQMom) in fm**2, nuclear magnetic moments (NMagM)
  in nuclear magnetons)

  Atom         1           2           3           4           5           6           7           8           9          10
 IAtWgt=          12          12          12          12          12          12           1           1           1          16
 AtmWgt=  12.0000000  12.0000000  12.0000000  12.0000000  12.0000000  12.0000000   1.0078250   1.0078250   1.0078250  15.9949146
 NucSpn=           0           0           0           0           0           0           1           1           1           0
 AtZEff=   0.0000000   0.0000000   0.0000000   0.0000000   0.0000000   0.0000000   0.0000000   0.0000000   0.0000000   0.0000000
 NQMom=    0.0000000   0.0000000   0.0000000   0.0000000   0.0000000   0.0000000   0.0000000   0.0000000   0.0000000   0.0000000
 NMagM=    0.0000000   0.0000000   0.0000000   0.0000000   0.0000000   0.0000000   2.7928460   2.7928460   2.7928460   0.0000000
 AtZNuc=   6.0000000   6.0000000   6.0000000   6.0000000   6.0000000   6.0000000   1.0000000   1.0000000   1.0000000   8.0000000

  Atom        11          12          13          14          15          16          17          18          19          20
 IAtWgt=           1          16          12           1           1           1          12           1           1           1
 AtmWgt=   1.0078250  15.9949146  12.0000000   1.0078250   1.0078250   1.0078250  12.0000000   1.0078250   1.0078250   1.0078250
 NucSpn=           1           0           0           1           1           1           0           1           1           1
 AtZEff=   0.0000000   0.0000000   0.0000000   0.0000000   0.0000000   0.0000000   0.0000000   0.0000000   0.0000000   0.0000000
 NQMom=    0.0000000   0.0000000   0.0000000   0.0000000   0.0000000   0.0000000   0.0000000   0.0000000   0.0000000   0.0000000
 NMagM=    2.7928460   0.0000000   0.0000000   2.7928460   2.7928460   2.7928460   0.0000000   2.7928460   2.7928460   2.7928460
 AtZNuc=   1.0000000   8.0000000   6.0000000   1.0000000   1.0000000   1.0000000   6.0000000   1.0000000   1.0000000   1.0000000
 Leave Link  101 at Mon Dec 08 16:45:48 2025, MaxMem=   104857600 cpu:               1.0 elap:               0.1
 (Enter D:\Gaussian\G16W\l202.exe)
                          Input orientation:                          
 ---------------------------------------------------------------------
 Center     Atomic      Atomic             Coordinates (Angstroms)
 Number     Number       Type             X           Y           Z
 ---------------------------------------------------------------------
      1          6           0        0.100437    1.077550    0.000002
      2          6           0       -1.282481    0.996042    0.000089
      3          6           0       -1.933285   -0.246486    0.000022
      4          6           0       -1.158034   -1.402512   -0.000032
      5          6           0        0.240792   -1.336507   -0.000020
      6          6           0        0.871119   -0.101622   -0.000064
      7          1           0       -1.847092    1.922051    0.000205
      8          1           0       -1.638820   -2.374396   -0.000046
      9          1           0        0.819127   -2.251332    0.000059
     10          8           0        2.228592    0.123623   -0.000011
     11          1           0        1.667620    2.128102    0.001213
     12          8           0        0.715279    2.292681   -0.000198
     13          6           0       -3.442064   -0.310785    0.000006
     14          1           0       -3.861903    0.184975   -0.880979
     15          1           0       -3.793678   -1.344427    0.000142
     16          1           0       -3.861957    0.185228    0.880822
     17          6           0        3.096632   -1.000373    0.000032
     18          1           0        4.109464   -0.600659   -0.000325
     19          1           0        2.948983   -1.615729    0.894235
     20          1           0        2.948597   -1.616094   -0.893852
 ---------------------------------------------------------------------
                    Distance matrix (angstroms):
                    1          2          3          4          5
     1  C    0.000000
     2  C    1.385318   0.000000
     3  C    2.426746   1.402648   0.000000
     4  C    2.781089   2.401780   1.391909   0.000000
     5  C    2.418134   2.785883   2.432027   1.400382   0.000000
     6  C    1.408686   2.417201   2.808143   2.410348   1.386453
     7  H    2.122746   1.084564   2.170249   3.395220   3.870072
     8  H    3.865352   3.389223   2.148188   1.084303   2.147127
     9  H    3.405579   3.868100   3.405169   2.151665   1.082301
    10  O    2.332171   3.617838   4.178301   3.714609   2.466440
    11  H    1.886723   3.159851   4.313373   4.522119   3.746913
    12  O    1.361827   2.381663   3.669095   4.142916   3.660074
    13  C    3.804837   2.524202   1.510148   2.531533   3.823027
    14  H    4.156075   2.843858   2.163767   3.256853   4.463530
    15  H    4.585859   3.432769   2.160217   2.636284   4.034478
    16  H    4.156038   2.843731   2.163784   3.256996   4.463643
    17  C    3.646224   4.812723   5.086100   4.273628   2.875554
    18  H    4.346111   5.623391   6.053119   5.328180   3.938032
    19  H    4.020898   5.052339   5.148882   4.208653   2.865651
    20  H    4.020785   5.052168   5.148554   4.208200   2.865190
                    6          7          8          9         10
     6  C    0.000000
     7  H    3.388794   0.000000
     8  H    3.386044   4.301492   0.000000
     9  H    2.150339   4.952358   2.461026   0.000000
    10  O    1.376034   4.454834   4.604017   2.761703   0.000000
    11  H    2.367717   3.520747   5.586147   4.460873   2.081496
    12  O    2.399369   2.589037   5.227178   4.545200   2.644793
    13  C    4.318252   2.743992   2.740471   4.682251   5.687271
    14  H    4.822826   2.802389   3.502645   5.350127   6.154185
    15  H    4.827514   3.802509   2.388357   4.701111   6.198621
    16  H    4.822888   2.802092   3.502848   5.350244   6.154222
    17  C    2.400138   5.742906   4.930765   2.598447   1.420162
    18  H    3.276571   6.468742   6.015722   3.681174   2.015506
    19  H    2.722097   6.026401   4.735319   2.395794   2.084223
    20  H    2.721837   6.026312   4.734797   2.395255   2.084220
                   11         12         13         14         15
    11  H    0.000000
    12  O    0.966458   0.000000
    13  C    5.661894   4.905256   0.000000
    14  H    5.927025   5.115544   1.094613   0.000000
    15  H    6.471803   5.793034   1.091810   1.766380   0.000000
    16  H    5.926609   5.115530   1.094612   1.761801   1.766382
    17  C    3.439394   4.063871   6.574958   7.113539   6.898894
    18  H    3.661795   4.460035   7.557090   8.058254   7.938063
    19  H    4.056556   4.589675   6.583920   7.265128   6.807091
    20  H    4.057222   4.589646   6.583568   7.044638   6.806710
                   16         17         18         19         20
    16  H    0.000000
    17  C    7.113607   0.000000
    18  H    8.058386   1.088853   0.000000
    19  H    7.045036   1.095474   1.782504   0.000000
    20  H    7.264838   1.095470   1.782445   1.788087   0.000000
 Stoichiometry    C8H10O2(1-,2)
 Framework group  C1[X(C8H10O2)]
 Deg. of freedom    54
 Full point group                 C1      NOp   1
 Largest Abelian subgroup         C1      NOp   1
 Largest concise Abelian subgroup C1      NOp   1
                         Standard orientation:                         
 ---------------------------------------------------------------------
 Center     Atomic      Atomic             Coordinates (Angstroms)
 Number     Number       Type             X           Y           Z
 ---------------------------------------------------------------------
      1          6           0        0.100437    1.077550    0.000002
      2          6           0       -1.282481    0.996042    0.000089
      3          6           0       -1.933285   -0.246486    0.000022
      4          6           0       -1.158034   -1.402512   -0.000032
      5          6           0        0.240792   -1.336507   -0.000020
      6          6           0        0.871119   -0.101622   -0.000064
      7          1           0       -1.847092    1.922051    0.000205
      8          1           0       -1.638820   -2.374396   -0.000046
      9          1           0        0.819127   -2.251332    0.000059
     10          8           0        2.228592    0.123623   -0.000011
     11          1           0        1.667620    2.128102    0.001213
     12          8           0        0.715279    2.292681   -0.000198
     13          6           0       -3.442064   -0.310785    0.000006
     14          1           0       -3.861903    0.184975   -0.880979
     15          1           0       -3.793678   -1.344427    0.000142
     16          1           0       -3.861957    0.185228    0.880822
     17          6           0        3.096632   -1.000373    0.000032
     18          1           0        4.109464   -0.600659   -0.000325
     19          1           0        2.948983   -1.615729    0.894235
     20          1           0        2.948597   -1.616094   -0.893852
 ---------------------------------------------------------------------
 Rotational constants (GHZ):           2.5438199           0.9581482           0.7021369
 Leave Link  202 at Mon Dec 08 16:45:48 2025, MaxMem=   104857600 cpu:               0.0 elap:               0.0
 (Enter D:\Gaussian\G16W\l301.exe)
 Standard basis: 6-31G(d) (6D, 7F)
 Ernie: Thresh=  0.10000D-02 Tol=  0.10000D-05 Strict=F.
 There are   170 symmetry adapted cartesian basis functions of A   symmetry.
 There are   170 symmetry adapted basis functions of A   symmetry.
   170 basis functions,   320 primitive gaussians,   170 cartesian basis functions
    38 alpha electrons       37 beta electrons
       nuclear repulsion energy       516.1951938693 Hartrees.
 IExCor=  402 DFT=T Ex+Corr=B3LYP ExCW=0 ScaHFX=  0.200000
 ScaDFX=  0.800000  0.720000  1.000000  0.810000 ScalE2=  1.000000  1.000000
 IRadAn=      5 IRanWt=     -1 IRanGd=            0 ICorTp=0 IEmpDi=  4
 NAtoms=   20 NActive=   20 NUniq=   20 SFac= 1.00D+00 NAtFMM=   60 NAOKFM=F Big=F
 Integral buffers will be    131072 words long.
 Raffenetti 2 integral format.
 Two-electron integral symmetry is turned on.
 Leave Link  301 at Mon Dec 08 16:45:48 2025, MaxMem=   104857600 cpu:               0.0 elap:               0.1
 (Enter D:\Gaussian\G16W\l302.exe)
 NPDir=0 NMtPBC=     1 NCelOv=     1 NCel=       1 NClECP=     1 NCelD=      1
         NCelK=      1 NCelE2=     1 NClLst=     1 CellRange=     0.0.
 One-electron integrals computed using PRISM.
 One-electron integral symmetry used in STVInt
 NBasis=   170 RedAO= T EigKep=  3.78D-04  NBF=   170
 NBsUse=   170 1.00D-06 EigRej= -1.00D+00 NBFU=   170
 Precomputing XC quadrature grid using
 IXCGrd= 4 IRadAn=           5 IRanWt=          -1 IRanGd=           0 AccXCQ= 0.00D+00.
 Generated NRdTot=       0 NPtTot=           0 NUsed=           0 NTot=          32
 NSgBfM=   170   170   170   170   170 MxSgAt=    20 MxSgA2=    20.
 Leave Link  302 at Mon Dec 08 16:45:48 2025, MaxMem=   104857600 cpu:               0.0 elap:               0.4
 (Enter D:\Gaussian\G16W\l303.exe)
 DipDrv:  MaxL=1.
 Leave Link  303 at Mon Dec 08 16:45:48 2025, MaxMem=   104857600 cpu:               0.0 elap:               0.1
 (Enter D:\Gaussian\G16W\l401.exe)
 ExpMin= 1.61D-01 ExpMax= 5.48D+03 ExpMxC= 8.25D+02 IAcc=3 IRadAn=         5 AccDes= 0.00D+00
 Harris functional with IExCor=  402 and IRadAn=       5 diagonalized for initial guess.
 HarFok:  IExCor=  402 AccDes= 0.00D+00 IRadAn=         5 IDoV= 1 UseB2=F ITyADJ=14
 ICtDFT=  3500011 ScaDFX=  1.000000  1.000000  1.000000  1.000000
 FoFCou: FMM=F IPFlag=           0 FMFlag=      100000 FMFlg1=           0
         NFxFlg=           0 DoJE=T BraDBF=F KetDBF=T FulRan=T
         wScrn=  0.000000 ICntrl=       500 IOpCl=  0 I1Cent=   200000004 NGrid=           0
         NMat0=    1 NMatS0=      1 NMatT0=    0 NMatD0=    1 NMtDS0=    0 NMtDT0=    0
 Petite list used in FoFCou.
 Harris En= -461.476714391738    
 JPrj=0 DoOrth=F DoCkMO=F.
 Initial guess <Sx>= 0.0000 <Sy>= 0.0000 <Sz>= 0.5000 <S**2>= 0.7500 S= 0.5000
 Leave Link  401 at Mon Dec 08 16:45:49 2025, MaxMem=   104857600 cpu:               1.0 elap:               1.2
 (Enter D:\Gaussian\G16W\l502.exe)
 Integral symmetry usage will be decided dynamically.
 UHF open shell SCF:
 Using DIIS extrapolation, IDIIS=  1040.
 NGot=   104857600 LenX=   104796738 LenY=   104767397
 Requested convergence on RMS density matrix=1.00D-07 within 128 cycles.
 Requested convergence on MAX density matrix=1.00D-05.
 Requested convergence on             energy=1.00D-05.
 No special actions if energy rises.
 Fock matrices will be formed incrementally for  20 cycles.
 Integral accuracy reduced to 1.0D-05 until final iterations.

 Cycle   1  Pass 0  IDiag  1:
 FoFJK:  IHMeth= 1 ICntrl=       0 DoSepK=F KAlg= 0 I1Cent=           0 FoldK=F
 IRaf= 920000000 NMat=       1 IRICut=       1 DoRegI=T DoRafI=F ISym2E= 0 IDoP0=0 IntGTp=1.
 FoFCou: FMM=F IPFlag=           0 FMFlag=      100000 FMFlg1=           0
         NFxFlg=           0 DoJE=F BraDBF=F KetDBF=F FulRan=T
         wScrn=  0.000000 ICntrl=         0 IOpCl=  1 I1Cent=           0 NGrid=           0
         NMat0=    1 NMatS0=      1 NMatT0=    0 NMatD0=    1 NMtDS0=    0 NMtDT0=    0
 Symmetry not used in FoFCou.
 E= -460.817917630739    
 DIIS: error= 4.82D-02 at cycle   1 NSaved=   1.
 NSaved= 1 IEnMin= 1 EnMin= -460.817917630739     IErMin= 1 ErrMin= 4.82D-02
 ErrMax= 4.82D-02  0.00D+00 EMaxC= 1.00D-01 BMatC= 1.46D+00 BMatP= 1.46D+00
 IDIUse=3 WtCom= 5.18D-01 WtEn= 4.82D-01
 Coeff-Com:  0.100D+01
 Coeff-En:   0.100D+01
 Coeff:      0.100D+01
 Gap=     0.054 Goal=   None    Shift=    0.000
 Gap=     0.275 Goal=   None    Shift=    0.000
 GapD=    0.054 DampG=0.500 DampE=0.500 DampFc=0.2500 IDamp=-1.
 Damping current iteration by 2.50D-01
 RMSDP=4.98D-02 MaxDP=6.33D+00              OVMax= 9.92D-01

 Cycle   2  Pass 0  IDiag  1:
 RMSU=  1.24D-02    CP:  9.91D-01
 E= -460.957747398714     Delta-E=       -0.139829767976 Rises=F Damp=T
 DIIS: error= 2.35D-02 at cycle   2 NSaved=   2.
 NSaved= 2 IEnMin= 2 EnMin= -460.957747398714     IErMin= 2 ErrMin= 2.35D-02
 ErrMax= 2.35D-02  0.00D+00 EMaxC= 1.00D-01 BMatC= 3.27D-01 BMatP= 1.46D+00
 IDIUse=3 WtCom= 7.65D-01 WtEn= 2.35D-01
 Coeff-Com: -0.720D+00 0.172D+01
 Coeff-En:   0.000D+00 0.100D+01
 Coeff:     -0.551D+00 0.155D+01
 Gap=     0.004 Goal=   None    Shift=    0.000
 Gap=     0.328 Goal=   None    Shift=    0.000
 RMSDP=1.29D-02 MaxDP=1.62D+00 DE=-1.40D-01 OVMax= 9.81D-01

 Cycle   3  Pass 0  IDiag  1:
 RMSU=  4.92D-03    CP:  9.73D-01  4.57D-02
 E= -461.182422739566     Delta-E=       -0.224675340851 Rises=F Damp=F
 DIIS: error= 1.24D-02 at cycle   3 NSaved=   3.
 NSaved= 3 IEnMin= 3 EnMin= -461.182422739566     IErMin= 3 ErrMin= 1.24D-02
 ErrMax= 1.24D-02  0.00D+00 EMaxC= 1.00D-01 BMatC= 1.27D-01 BMatP= 3.27D-01
 IDIUse=3 WtCom= 8.76D-01 WtEn= 1.24D-01
 Coeff-Com: -0.418D+00 0.977D+00 0.441D+00
 Coeff-En:   0.000D+00 0.000D+00 0.100D+01
 Coeff:     -0.367D+00 0.857D+00 0.510D+00
 Gap=     0.052 Goal=   None    Shift=    0.000
 Gap=     0.230 Goal=   None    Shift=    0.000
 RMSDP=1.69D-03 MaxDP=3.52D-02 DE=-2.25D-01 OVMax= 8.25D-02

 Cycle   4  Pass 0  IDiag  1:
 RMSU=  1.60D-03    CP:  9.77D-01  5.44D-02  8.91D-01
 E= -461.215542190772     Delta-E=       -0.033119451206 Rises=F Damp=F
 DIIS: error= 3.46D-03 at cycle   4 NSaved=   4.
 NSaved= 4 IEnMin= 4 EnMin= -461.215542190772     IErMin= 4 ErrMin= 3.46D-03
 ErrMax= 3.46D-03  0.00D+00 EMaxC= 1.00D-01 BMatC= 1.87D-02 BMatP= 1.27D-01
 IDIUse=3 WtCom= 9.65D-01 WtEn= 3.46D-02
 Coeff-Com: -0.189D+00 0.375D+00 0.241D+00 0.572D+00
 Coeff-En:   0.000D+00 0.000D+00 0.000D+00 0.100D+01
 Coeff:     -0.182D+00 0.362D+00 0.233D+00 0.587D+00
 Gap=     0.058 Goal=   None    Shift=    0.000
 Gap=     0.222 Goal=   None    Shift=    0.000
 RMSDP=7.20D-04 MaxDP=1.90D-02 DE=-3.31D-02 OVMax= 4.94D-02

 Cycle   5  Pass 0  IDiag  1:
 RMSU=  5.79D-04    CP:  9.76D-01  5.77D-02  9.46D-01  7.94D-01
 E= -461.218692637385     Delta-E=       -0.003150446613 Rises=F Damp=F
 DIIS: error= 2.82D-03 at cycle   5 NSaved=   5.
 NSaved= 5 IEnMin= 5 EnMin= -461.218692637385     IErMin= 5 ErrMin= 2.82D-03
 ErrMax= 2.82D-03  0.00D+00 EMaxC= 1.00D-01 BMatC= 6.41D-03 BMatP= 1.87D-02
 IDIUse=3 WtCom= 9.72D-01 WtEn= 2.82D-02
 Coeff-Com: -0.918D-01 0.149D+00 0.549D-01 0.361D+00 0.527D+00
 Coeff-En:   0.000D+00 0.000D+00 0.000D+00 0.239D+00 0.761D+00
 Coeff:     -0.892D-01 0.145D+00 0.534D-01 0.358D+00 0.533D+00
 Gap=     0.062 Goal=   None    Shift=    0.000
 Gap=     0.223 Goal=   None    Shift=    0.000
 RMSDP=4.25D-04 MaxDP=1.21D-02 DE=-3.15D-03 OVMax= 3.15D-02

 Cycle   6  Pass 0  IDiag  1:
 RMSU=  2.74D-04    CP:  9.76D-01  5.95D-02  9.41D-01  9.71D-01  7.29D-01
 E= -461.220419055178     Delta-E=       -0.001726417794 Rises=F Damp=F
 DIIS: error= 9.44D-04 at cycle   6 NSaved=   6.
 NSaved= 6 IEnMin= 6 EnMin= -461.220419055178     IErMin= 6 ErrMin= 9.44D-04
 ErrMax= 9.44D-04  0.00D+00 EMaxC= 1.00D-01 BMatC= 9.96D-04 BMatP= 6.41D-03
 IDIUse=3 WtCom= 9.91D-01 WtEn= 9.44D-03
 Coeff-Com: -0.266D-01 0.335D-01-0.355D-01 0.470D-01 0.319D+00 0.663D+00
 Coeff-En:   0.000D+00 0.000D+00 0.000D+00 0.000D+00 0.336D-01 0.966D+00
 Coeff:     -0.264D-01 0.332D-01-0.352D-01 0.466D-01 0.316D+00 0.666D+00
 Gap=     0.064 Goal=   None    Shift=    0.000
 Gap=     0.224 Goal=   None    Shift=    0.000
 RMSDP=2.01D-04 MaxDP=6.22D-03 DE=-1.73D-03 OVMax= 1.94D-02

 Cycle   7  Pass 0  IDiag  1:
 RMSU=  1.32D-04    CP:  9.76D-01  6.04D-02  9.51D-01  9.70D-01  9.73D-01
                    CP:  9.89D-01
 E= -461.220737519822     Delta-E=       -0.000318464644 Rises=F Damp=F
 DIIS: error= 3.25D-04 at cycle   7 NSaved=   7.
 NSaved= 7 IEnMin= 7 EnMin= -461.220737519822     IErMin= 7 ErrMin= 3.25D-04
 ErrMax= 3.25D-04  0.00D+00 EMaxC= 1.00D-01 BMatC= 1.36D-04 BMatP= 9.96D-04
 IDIUse=3 WtCom= 9.97D-01 WtEn= 3.25D-03
 Coeff-Com: -0.765D-02 0.637D-02-0.294D-01-0.130D-01 0.130D+00 0.384D+00
 Coeff-Com:  0.530D+00
 Coeff-En:   0.000D+00 0.000D+00 0.000D+00 0.000D+00 0.000D+00 0.000D+00
 Coeff-En:   0.100D+01
 Coeff:     -0.763D-02 0.635D-02-0.293D-01-0.130D-01 0.129D+00 0.383D+00
 Coeff:      0.532D+00
 Gap=     0.065 Goal=   None    Shift=    0.000
 Gap=     0.224 Goal=   None    Shift=    0.000
 RMSDP=9.98D-05 MaxDP=2.91D-03 DE=-3.18D-04 OVMax= 1.17D-02

 Cycle   8  Pass 0  IDiag  1:
 RMSU=  5.24D-05    CP:  9.76D-01  6.07D-02  9.53D-01  9.80D-01  1.02D+00
                    CP:  1.22D+00  1.36D+00
 E= -461.220803104561     Delta-E=       -0.000065584740 Rises=F Damp=F
 DIIS: error= 2.01D-04 at cycle   8 NSaved=   8.
 NSaved= 8 IEnMin= 8 EnMin= -461.220803104561     IErMin= 8 ErrMin= 2.01D-04
 ErrMax= 2.01D-04  0.00D+00 EMaxC= 1.00D-01 BMatC= 2.06D-05 BMatP= 1.36D-04
 IDIUse=3 WtCom= 9.98D-01 WtEn= 2.01D-03
 Coeff-Com:  0.331D-02-0.337D-02 0.235D-02-0.135D-01-0.547D-01-0.908D-01
 Coeff-Com:  0.139D+00 0.102D+01
 Coeff-En:   0.000D+00 0.000D+00 0.000D+00 0.000D+00 0.000D+00 0.000D+00
 Coeff-En:   0.000D+00 0.100D+01
 Coeff:      0.330D-02-0.336D-02 0.234D-02-0.135D-01-0.546D-01-0.906D-01
 Coeff:      0.139D+00 0.102D+01
 Gap=     0.066 Goal=   None    Shift=    0.000
 Gap=     0.224 Goal=   None    Shift=    0.000
 RMSDP=1.54D-04 MaxDP=4.83D-03 DE=-6.56D-05 OVMax= 1.95D-02

 Cycle   9  Pass 0  IDiag  1:
 RMSU=  2.95D-05    CP:  9.76D-01  6.10D-02  9.55D-01  9.86D-01  1.10D+00
                    CP:  1.49D+00  2.19D+00  1.87D+00
 E= -461.220859595552     Delta-E=       -0.000056490991 Rises=F Damp=F
 DIIS: error= 1.31D-04 at cycle   9 NSaved=   9.
 NSaved= 9 IEnMin= 9 EnMin= -461.220859595552     IErMin= 9 ErrMin= 1.31D-04
 ErrMax= 1.31D-04  0.00D+00 EMaxC= 1.00D-01 BMatC= 9.29D-06 BMatP= 2.06D-05
 IDIUse=3 WtCom= 9.99D-01 WtEn= 1.31D-03
 Coeff-Com:  0.319D-02-0.379D-02 0.602D-02 0.180D-02-0.300D-01-0.809D-01
 Coeff-Com: -0.876D-01 0.884D-01 0.110D+01
 Coeff-En:   0.000D+00 0.000D+00 0.000D+00 0.000D+00 0.000D+00 0.000D+00
 Coeff-En:   0.000D+00 0.000D+00 0.100D+01
 Coeff:      0.319D-02-0.379D-02 0.601D-02 0.180D-02-0.300D-01-0.808D-01
 Coeff:     -0.874D-01 0.883D-01 0.110D+01
 Gap=     0.066 Goal=   None    Shift=    0.000
 Gap=     0.224 Goal=   None    Shift=    0.000
 RMSDP=1.47D-04 MaxDP=4.82D-03 DE=-5.65D-05 OVMax= 1.87D-02

 Cycle  10  Pass 0  IDiag  1:
 RMSU=  1.80D-05    CP:  9.76D-01  6.12D-02  9.58D-01  9.87D-01  1.18D+00
                    CP:  1.75D+00  2.98D+00  2.85D+00  1.88D+00
 E= -461.220900075743     Delta-E=       -0.000040480190 Rises=F Damp=F
 DIIS: error= 1.21D-04 at cycle  10 NSaved=  10.
 NSaved=10 IEnMin=10 EnMin= -461.220900075743     IErMin=10 ErrMin= 1.21D-04
 ErrMax= 1.21D-04  0.00D+00 EMaxC= 1.00D-01 BMatC= 8.37D-06 BMatP= 9.29D-06
 IDIUse=3 WtCom= 9.99D-01 WtEn= 1.21D-03
 Coeff-Com: -0.735D-03 0.103D-02 0.271D-02 0.139D-01 0.261D-01 0.313D-01
 Coeff-Com: -0.145D+00-0.705D+00 0.800D+00 0.976D+00
 Coeff-En:   0.000D+00 0.000D+00 0.000D+00 0.000D+00 0.000D+00 0.000D+00
 Coeff-En:   0.000D+00 0.000D+00 0.000D+00 0.100D+01
 Coeff:     -0.734D-03 0.103D-02 0.271D-02 0.139D-01 0.260D-01 0.312D-01
 Coeff:     -0.145D+00-0.705D+00 0.800D+00 0.976D+00
 Gap=     0.066 Goal=   None    Shift=    0.000
 Gap=     0.225 Goal=   None    Shift=    0.000
 RMSDP=1.71D-04 MaxDP=5.81D-03 DE=-4.05D-05 OVMax= 2.19D-02

 Cycle  11  Pass 0  IDiag  1:
 RMSU=  1.31D-04    CP:  9.75D-01  6.14D-02  9.60D-01  9.87D-01  1.27D+00
                    CP:  2.03D+00  3.00D+00  3.00D+00  3.00D+00  1.69D+00
 E= -461.220936899996     Delta-E=       -0.000036824253 Rises=F Damp=F
 DIIS: error= 7.87D-05 at cycle  11 NSaved=  11.
 NSaved=11 IEnMin=11 EnMin= -461.220936899996     IErMin=11 ErrMin= 7.87D-05
 ErrMax= 7.87D-05  0.00D+00 EMaxC= 1.00D-01 BMatC= 3.01D-06 BMatP= 8.37D-06
 IDIUse=1 WtCom= 1.00D+00 WtEn= 0.00D+00
 Coeff-Com: -0.234D-02 0.258D-02-0.536D-02 0.369D-02 0.347D-01 0.944D-01
 Coeff-Com:  0.272D-01-0.334D+00-0.615D+00 0.219D+00 0.158D+01
 Coeff:     -0.234D-02 0.258D-02-0.536D-02 0.369D-02 0.347D-01 0.944D-01
 Coeff:      0.272D-01-0.334D+00-0.615D+00 0.219D+00 0.158D+01
 Gap=     0.066 Goal=   None    Shift=    0.000
 Gap=     0.225 Goal=   None    Shift=    0.000
 RMSDP=2.34D-04 MaxDP=7.93D-03 DE=-3.68D-05 OVMax= 3.00D-02

 Cycle  12  Pass 0  IDiag  1:
 RMSU=  5.01D-05    CP:  9.75D-01  6.18D-02  9.63D-01  9.88D-01  1.39D+00
                    CP:  2.42D+00  3.00D+00  3.00D+00  3.00D+00  3.00D+00
                    CP:  2.43D+00
 E= -461.220965209921     Delta-E=       -0.000028309926 Rises=F Damp=F
 DIIS: error= 4.88D-05 at cycle  12 NSaved=  12.
 NSaved=12 IEnMin=12 EnMin= -461.220965209921     IErMin=12 ErrMin= 4.88D-05
 ErrMax= 4.88D-05  0.00D+00 EMaxC= 1.00D-01 BMatC= 1.07D-06 BMatP= 3.01D-06
 IDIUse=1 WtCom= 1.00D+00 WtEn= 0.00D+00
 Coeff-Com: -0.134D-02 0.162D-02-0.396D-02-0.203D-02 0.103D-01 0.405D-01
 Coeff-Com:  0.625D-01 0.684D-01-0.568D+00-0.180D+00 0.751D+00 0.820D+00
 Coeff:     -0.134D-02 0.162D-02-0.396D-02-0.203D-02 0.103D-01 0.405D-01
 Coeff:      0.625D-01 0.684D-01-0.568D+00-0.180D+00 0.751D+00 0.820D+00
 Gap=     0.067 Goal=   None    Shift=    0.000
 Gap=     0.225 Goal=   None    Shift=    0.000
 RMSDP=8.32D-05 MaxDP=2.84D-03 DE=-2.83D-05 OVMax= 1.07D-02

 Cycle  13  Pass 0  IDiag  1:
 RMSU=  1.24D-05    CP:  9.75D-01  6.19D-02  9.64D-01  9.88D-01  1.43D+00
                    CP:  2.55D+00  3.00D+00  3.00D+00  3.00D+00  3.00D+00
                    CP:  2.94D+00  1.38D+00
 E= -461.220969453318     Delta-E=       -0.000004243397 Rises=F Damp=F
 DIIS: error= 1.92D-05 at cycle  13 NSaved=  13.
 NSaved=13 IEnMin=13 EnMin= -461.220969453318     IErMin=13 ErrMin= 1.92D-05
 ErrMax= 1.92D-05  0.00D+00 EMaxC= 1.00D-01 BMatC= 3.09D-07 BMatP= 1.07D-06
 IDIUse=1 WtCom= 1.00D+00 WtEn= 0.00D+00
 Coeff-Com: -0.106D-03 0.192D-03-0.101D-02-0.278D-02-0.514D-02-0.610D-02
 Coeff-Com:  0.317D-01 0.159D+00-0.158D+00-0.172D+00-0.119D+00 0.429D+00
 Coeff-Com:  0.844D+00
 Coeff:     -0.106D-03 0.192D-03-0.101D-02-0.278D-02-0.514D-02-0.610D-02
 Coeff:      0.317D-01 0.159D+00-0.158D+00-0.172D+00-0.119D+00 0.429D+00
 Coeff:      0.844D+00
 Gap=     0.066 Goal=   None    Shift=    0.000
 Gap=     0.225 Goal=   None    Shift=    0.000
 RMSDP=5.30D-05 MaxDP=1.83D-03 DE=-4.24D-06 OVMax= 6.78D-03

 Cycle  14  Pass 0  IDiag  1:
 RMSU=  3.39D-05    CP:  9.75D-01  6.20D-02  9.64D-01  9.88D-01  1.46D+00
                    CP:  2.64D+00  3.00D+00  3.00D+00  3.00D+00  3.00D+00
                    CP:  3.00D+00  1.64D+00  1.57D+00
 E= -461.220970499302     Delta-E=       -0.000001045984 Rises=F Damp=F
 DIIS: error= 5.84D-06 at cycle  14 NSaved=  14.
 NSaved=14 IEnMin=14 EnMin= -461.220970499302     IErMin=14 ErrMin= 5.84D-06
 ErrMax= 5.84D-06  0.00D+00 EMaxC= 1.00D-01 BMatC= 2.93D-08 BMatP= 3.09D-07
 IDIUse=1 WtCom= 1.00D+00 WtEn= 0.00D+00
 Coeff-Com:  0.770D-04-0.642D-04 0.163D-03-0.352D-03-0.234D-02-0.568D-02
 Coeff-Com:  0.257D-02 0.346D-01 0.325D-01-0.148D-01-0.134D+00-0.556D-02
 Coeff-Com:  0.257D+00 0.836D+00
 Coeff:      0.770D-04-0.642D-04 0.163D-03-0.352D-03-0.234D-02-0.568D-02
 Coeff:      0.257D-02 0.346D-01 0.325D-01-0.148D-01-0.134D+00-0.556D-02
 Coeff:      0.257D+00 0.836D+00
 Gap=     0.066 Goal=   None    Shift=    0.000
 Gap=     0.225 Goal=   None    Shift=    0.000
 RMSDP=2.95D-06 MaxDP=9.94D-05 DE=-1.05D-06 OVMax= 3.46D-04

 Initial convergence to 1.0D-05 achieved.  Increase integral accuracy.
 Cycle  15  Pass 1  IDiag  1:
 E= -461.220952290705     Delta-E=        0.000018208597 Rises=F Damp=F
 DIIS: error= 2.30D-05 at cycle   1 NSaved=   1.
 NSaved= 1 IEnMin= 1 EnMin= -461.220952290705     IErMin= 1 ErrMin= 2.30D-05
 ErrMax= 2.30D-05  0.00D+00 EMaxC= 1.00D-01 BMatC= 1.09D-07 BMatP= 1.09D-07
 IDIUse=1 WtCom= 1.00D+00 WtEn= 0.00D+00
 Coeff-Com:  0.100D+01
 Coeff:      0.100D+01
 Gap=     0.066 Goal=   None    Shift=    0.000
 Gap=     0.225 Goal=   None    Shift=    0.000
 RMSDP=2.95D-06 MaxDP=9.94D-05 DE= 1.82D-05 OVMax= 1.62D-04

 Cycle  16  Pass 1  IDiag  1:
 RMSU=  7.71D-06    CP:  1.00D+00
 E= -461.220952311529     Delta-E=       -0.000000020824 Rises=F Damp=F
 DIIS: error= 6.23D-06 at cycle   2 NSaved=   2.
 NSaved= 2 IEnMin= 2 EnMin= -461.220952311529     IErMin= 2 ErrMin= 6.23D-06
 ErrMax= 6.23D-06  0.00D+00 EMaxC= 1.00D-01 BMatC= 2.91D-08 BMatP= 1.09D-07
 IDIUse=1 WtCom= 1.00D+00 WtEn= 0.00D+00
 Coeff-Com:  0.268D+00 0.732D+00
 Coeff:      0.268D+00 0.732D+00
 Gap=     0.066 Goal=   None    Shift=    0.000
 Gap=     0.225 Goal=   None    Shift=    0.000
 RMSDP=1.86D-06 MaxDP=5.58D-05 DE=-2.08D-08 OVMax= 2.14D-04

 Cycle  17  Pass 1  IDiag  1:
 RMSU=  1.85D-06    CP:  1.00D+00  1.03D+00
 E= -461.220952316981     Delta-E=       -0.000000005452 Rises=F Damp=F
 DIIS: error= 6.52D-06 at cycle   3 NSaved=   3.
 NSaved= 3 IEnMin= 3 EnMin= -461.220952316981     IErMin= 2 ErrMin= 6.23D-06
 ErrMax= 6.52D-06  0.00D+00 EMaxC= 1.00D-01 BMatC= 3.28D-08 BMatP= 2.91D-08
 IDIUse=1 WtCom= 1.00D+00 WtEn= 0.00D+00
 Coeff-Com: -0.690D-02 0.517D+00 0.490D+00
 Coeff:     -0.690D-02 0.517D+00 0.490D+00
 Gap=     0.066 Goal=   None    Shift=    0.000
 Gap=     0.225 Goal=   None    Shift=    0.000
 RMSDP=7.75D-07 MaxDP=2.16D-05 DE=-5.45D-09 OVMax= 7.00D-05

 Cycle  18  Pass 1  IDiag  1:
 RMSU=  7.15D-07    CP:  1.00D+00  1.05D+00  1.12D+00
 E= -461.220952326523     Delta-E=       -0.000000009543 Rises=F Damp=F
 DIIS: error= 2.01D-06 at cycle   4 NSaved=   4.
 NSaved= 4 IEnMin= 4 EnMin= -461.220952326523     IErMin= 4 ErrMin= 2.01D-06
 ErrMax= 2.01D-06  0.00D+00 EMaxC= 1.00D-01 BMatC= 1.77D-09 BMatP= 2.91D-08
 IDIUse=1 WtCom= 1.00D+00 WtEn= 0.00D+00
 Coeff-Com: -0.983D-02 0.207D+00 0.954D-01 0.707D+00
 Coeff:     -0.983D-02 0.207D+00 0.954D-01 0.707D+00
 Gap=     0.066 Goal=   None    Shift=    0.000
 Gap=     0.225 Goal=   None    Shift=    0.000
 RMSDP=7.76D-07 MaxDP=2.73D-05 DE=-9.54D-09 OVMax= 9.91D-05

 Cycle  19  Pass 1  IDiag  1:
 RMSU=  1.31D-07    CP:  1.00D+00  1.07D+00  1.46D+00  1.58D+00
 E= -461.220952328979     Delta-E=       -0.000000002455 Rises=F Damp=F
 DIIS: error= 1.78D-06 at cycle   5 NSaved=   5.
 NSaved= 5 IEnMin= 5 EnMin= -461.220952328979     IErMin= 5 ErrMin= 1.78D-06
 ErrMax= 1.78D-06  0.00D+00 EMaxC= 1.00D-01 BMatC= 1.59D-09 BMatP= 1.77D-09
 IDIUse=1 WtCom= 1.00D+00 WtEn= 0.00D+00
 Coeff-Com:  0.667D-02-0.435D+00-0.734D+00 0.469D+00 0.169D+01
 Coeff:      0.667D-02-0.435D+00-0.734D+00 0.469D+00 0.169D+01
 Gap=     0.066 Goal=   None    Shift=    0.000
 Gap=     0.225 Goal=   None    Shift=    0.000
 RMSDP=2.60D-06 MaxDP=9.06D-05 DE=-2.46D-09 OVMax= 3.30D-04

 Cycle  20  Pass 1  IDiag  1:
 RMSU=  4.92D-07    CP:  1.00D+00  1.14D+00  2.58D+00  3.00D+00  2.37D+00
 E= -461.220952335234     Delta-E=       -0.000000006256 Rises=F Damp=F
 DIIS: error= 9.53D-07 at cycle   6 NSaved=   6.
 NSaved= 6 IEnMin= 6 EnMin= -461.220952335234     IErMin= 6 ErrMin= 9.53D-07
 ErrMax= 9.53D-07  0.00D+00 EMaxC= 1.00D-01 BMatC= 5.24D-10 BMatP= 1.59D-09
 IDIUse=1 WtCom= 1.00D+00 WtEn= 0.00D+00
 Coeff-Com:  0.804D-02-0.296D+00-0.473D+00-0.627D-01 0.791D+00 0.103D+01
 Coeff:      0.804D-02-0.296D+00-0.473D+00-0.627D-01 0.791D+00 0.103D+01
 Gap=     0.066 Goal=   None    Shift=    0.000
 Gap=     0.225 Goal=   None    Shift=    0.000
 RMSDP=1.95D-06 MaxDP=6.72D-05 DE=-6.26D-09 OVMax= 2.49D-04

 Cycle  21  Pass 1  IDiag  1:
 RMSU=  8.31D-07    CP:  1.00D+00  1.18D+00  3.00D+00  3.00D+00  3.00D+00
                    CP:  3.00D+00
 E= -461.220952337801     Delta-E=       -0.000000002567 Rises=F Damp=F
 DIIS: error= 5.87D-07 at cycle   7 NSaved=   7.
 NSaved= 7 IEnMin= 7 EnMin= -461.220952337801     IErMin= 7 ErrMin= 5.87D-07
 ErrMax= 5.87D-07  0.00D+00 EMaxC= 1.00D-01 BMatC= 1.90D-10 BMatP= 5.24D-10
 IDIUse=1 WtCom= 1.00D+00 WtEn= 0.00D+00
 Coeff-Com:  0.671D-03 0.759D-01 0.881D-01-0.215D+00-0.428D+00 0.551D+00
 Coeff-Com:  0.927D+00
 Coeff:      0.671D-03 0.759D-01 0.881D-01-0.215D+00-0.428D+00 0.551D+00
 Coeff:      0.927D+00
 Gap=     0.066 Goal=   None    Shift=    0.000
 Gap=     0.225 Goal=   None    Shift=    0.000
 RMSDP=1.07D-06 MaxDP=3.68D-05 DE=-2.57D-09 OVMax= 1.37D-04

 Cycle  22  Pass 1  IDiag  1:
 RMSU=  5.25D-07    CP:  1.00D+00  1.21D+00  3.00D+00  3.00D+00  3.00D+00
                    CP:  3.00D+00  2.10D+00
 E= -461.220952338514     Delta-E=       -0.000000000712 Rises=F Damp=F
 DIIS: error= 2.76D-07 at cycle   8 NSaved=   8.
 NSaved= 8 IEnMin= 8 EnMin= -461.220952338514     IErMin= 8 ErrMin= 2.76D-07
 ErrMax= 2.76D-07  0.00D+00 EMaxC= 1.00D-01 BMatC= 5.28D-11 BMatP= 1.90D-10
 IDIUse=1 WtCom= 1.00D+00 WtEn= 0.00D+00
 Coeff-Com: -0.255D-02 0.146D+00 0.193D+00-0.309D-01-0.457D+00-0.190D+00
 Coeff-Com:  0.329D+00 0.101D+01
 Coeff:     -0.255D-02 0.146D+00 0.193D+00-0.309D-01-0.457D+00-0.190D+00
 Coeff:      0.329D+00 0.101D+01
 Gap=     0.066 Goal=   None    Shift=    0.000
 Gap=     0.225 Goal=   None    Shift=    0.000
 RMSDP=4.83D-07 MaxDP=1.50D-05 DE=-7.12D-10 OVMax= 6.19D-05

 Cycle  23  Pass 1  IDiag  1:
 RMSU=  6.81D-08    CP:  1.00D+00  1.22D+00  3.00D+00  3.00D+00  3.00D+00
                    CP:  3.00D+00  2.58D+00  1.46D+00
 E= -461.220952338662     Delta-E=       -0.000000000148 Rises=F Damp=F
 DIIS: error= 2.41D-07 at cycle   9 NSaved=   9.
 NSaved= 9 IEnMin= 9 EnMin= -461.220952338662     IErMin= 9 ErrMin= 2.41D-07
 ErrMax= 2.41D-07  0.00D+00 EMaxC= 1.00D-01 BMatC= 4.19D-11 BMatP= 5.28D-11
 IDIUse=1 WtCom= 1.00D+00 WtEn= 0.00D+00
 Coeff-Com: -0.228D-02 0.990D-01 0.129D+00 0.577D-01-0.236D+00-0.349D+00
 Coeff-Com: -0.550D-01 0.811D+00 0.546D+00
 Coeff:     -0.228D-02 0.990D-01 0.129D+00 0.577D-01-0.236D+00-0.349D+00
 Coeff:     -0.550D-01 0.811D+00 0.546D+00
 Gap=     0.066 Goal=   None    Shift=    0.000
 Gap=     0.225 Goal=   None    Shift=    0.000
 RMSDP=1.76D-07 MaxDP=6.16D-06 DE=-1.48D-10 OVMax= 2.23D-05

 Cycle  24  Pass 1  IDiag  1:
 RMSU=  3.21D-08    CP:  1.00D+00  1.22D+00  3.00D+00  3.00D+00  3.00D+00
                    CP:  3.00D+00  2.76D+00  1.63D+00  1.01D+00
 E= -461.220952338699     Delta-E=       -0.000000000037 Rises=F Damp=F
 DIIS: error= 8.39D-08 at cycle  10 NSaved=  10.
 NSaved=10 IEnMin=10 EnMin= -461.220952338699     IErMin=10 ErrMin= 8.39D-08
 ErrMax= 8.39D-08  0.00D+00 EMaxC= 1.00D-01 BMatC= 4.23D-12 BMatP= 4.19D-11
 IDIUse=1 WtCom= 1.00D+00 WtEn= 0.00D+00
 Coeff-Com: -0.458D-03 0.762D-02 0.549D-02 0.388D-01 0.904D-02-0.127D+00
 Coeff-Com: -0.122D+00 0.124D+00 0.245D+00 0.819D+00
 Coeff:     -0.458D-03 0.762D-02 0.549D-02 0.388D-01 0.904D-02-0.127D+00
 Coeff:     -0.122D+00 0.124D+00 0.245D+00 0.819D+00
 Gap=     0.066 Goal=   None    Shift=    0.000
 Gap=     0.225 Goal=   None    Shift=    0.000
 RMSDP=1.29D-07 MaxDP=4.09D-06 DE=-3.66D-11 OVMax= 1.65D-05

 Cycle  25  Pass 1  IDiag  1:
 RMSU=  7.94D-09    CP:  1.00D+00  1.22D+00  3.00D+00  3.00D+00  3.00D+00
                    CP:  3.00D+00  2.89D+00  1.75D+00  1.22D+00  1.11D+00
 E= -461.220952338706     Delta-E=       -0.000000000007 Rises=F Damp=F
 DIIS: error= 4.33D-08 at cycle  11 NSaved=  11.
 NSaved=11 IEnMin=11 EnMin= -461.220952338706     IErMin=11 ErrMin= 4.33D-08
 ErrMax= 4.33D-08  0.00D+00 EMaxC= 1.00D-01 BMatC= 1.04D-12 BMatP= 4.23D-12
 IDIUse=1 WtCom= 1.00D+00 WtEn= 0.00D+00
 Coeff-Com:  0.168D-03-0.143D-01-0.227D-01 0.140D-01 0.517D-01-0.856D-02
 Coeff-Com: -0.605D-01-0.823D-01 0.369D-01 0.456D+00 0.630D+00
 Coeff:      0.168D-03-0.143D-01-0.227D-01 0.140D-01 0.517D-01-0.856D-02
 Coeff:     -0.605D-01-0.823D-01 0.369D-01 0.456D+00 0.630D+00
 Gap=     0.066 Goal=   None    Shift=    0.000
 Gap=     0.225 Goal=   None    Shift=    0.000
 RMSDP=2.49D-08 MaxDP=8.47D-07 DE=-7.28D-12 OVMax= 3.15D-06

 SCF Done:  E(UB3LYP) =  -461.220952339     A.U. after   25 cycles
            NFock= 25  Conv=0.25D-07     -V/T= 2.0080
 <Sx>= 0.0000 <Sy>= 0.0000 <Sz>= 0.5000 <S**2>= 0.7575 S= 0.5037
 <L.S>= 0.000000000000E+00
 KE= 4.575453177808D+02 PE=-2.121075836381D+03 EE= 6.861143723927D+02
 Annihilation of the first spin contaminant:
 S**2 before annihilation     0.7575,   after     0.7500
 Leave Link  502 at Mon Dec 08 16:46:42 2025, MaxMem=   104857600 cpu:              53.0 elap:              52.5
 (Enter D:\Gaussian\G16W\l601.exe)
 Copying SCF densities to generalized density rwf, IOpCl= 1 IROHF=0.

 **********************************************************************

            Population analysis using the SCF density.

 **********************************************************************

 Orbital symmetries:
 Alpha Orbitals:
       Occupied  (A) (A) (A) (A) (A) (A) (A) (A) (A) (A) (A) (A)
                 (A) (A) (A) (A) (A) (A) (A) (A) (A) (A) (A) (A)
                 (A) (A) (A) (A) (A) (A) (A) (A) (A) (A) (A) (A)
                 (A) (A)
       Virtual   (A) (A) (A) (A) (A) (A) (A) (A) (A) (A) (A) (A)
                 (A) (A) (A) (A) (A) (A) (A) (A) (A) (A) (A) (A)
                 (A) (A) (A) (A) (A) (A) (A) (A) (A) (A) (A) (A)
                 (A) (A) (A) (A) (A) (A) (A) (A) (A) (A) (A) (A)
                 (A) (A) (A) (A) (A) (A) (A) (A) (A) (A) (A) (A)
                 (A) (A) (A) (A) (A) (A) (A) (A) (A) (A) (A) (A)
                 (A) (A) (A) (A) (A) (A) (A) (A) (A) (A) (A) (A)
                 (A) (A) (A) (A) (A) (A) (A) (A) (A) (A) (A) (A)
                 (A) (A) (A) (A) (A) (A) (A) (A) (A) (A) (A) (A)
                 (A) (A) (A) (A) (A) (A) (A) (A) (A) (A) (A) (A)
                 (A) (A) (A) (A) (A) (A) (A) (A) (A) (A) (A) (A)
 Beta  Orbitals:
       Occupied  (A) (A) (A) (A) (A) (A) (A) (A) (A) (A) (A) (A)
                 (A) (A) (A) (A) (A) (A) (A) (A) (A) (A) (A) (A)
                 (A) (A) (A) (A) (A) (A) (A) (A) (A) (A) (A) (A)
                 (A)
       Virtual   (A) (A) (A) (A) (A) (A) (A) (A) (A) (A) (A) (A)
                 (A) (A) (A) (A) (A) (A) (A) (A) (A) (A) (A) (A)
                 (A) (A) (A) (A) (A) (A) (A) (A) (A) (A) (A) (A)
                 (A) (A) (A) (A) (A) (A) (A) (A) (A) (A) (A) (A)
                 (A) (A) (A) (A) (A) (A) (A) (A) (A) (A) (A) (A)
                 (A) (A) (A) (A) (A) (A) (A) (A) (A) (A) (A) (A)
                 (A) (A) (A) (A) (A) (A) (A) (A) (A) (A) (A) (A)
                 (A) (A) (A) (A) (A) (A) (A) (A) (A) (A) (A) (A)
                 (A) (A) (A) (A) (A) (A) (A) (A) (A) (A) (A) (A)
                 (A) (A) (A) (A) (A) (A) (A) (A) (A) (A) (A) (A)
                 (A) (A) (A) (A) (A) (A) (A) (A) (A) (A) (A) (A)
                 (A)
 The electronic state is 2-A.
 Alpha  occ. eigenvalues --  -19.00458 -18.98428 -10.10077 -10.02560 -10.01336
 Alpha  occ. eigenvalues --  -10.00963  -9.97269  -9.96873  -9.95155  -9.93877
 Alpha  occ. eigenvalues --   -0.89282  -0.86118  -0.63593  -0.58431  -0.55064
 Alpha  occ. eigenvalues --   -0.52636  -0.47784  -0.40626  -0.40290  -0.35860
 Alpha  occ. eigenvalues --   -0.32236  -0.31813  -0.29674  -0.26696  -0.25104
 Alpha  occ. eigenvalues --   -0.24391  -0.23461  -0.21521  -0.20694  -0.18872
 Alpha  occ. eigenvalues --   -0.17670  -0.16288  -0.14941  -0.13279  -0.11685
 Alpha  occ. eigenvalues --   -0.03436  -0.00895   0.15856
 Alpha virt. eigenvalues --    0.22498   0.23454   0.24386   0.26671   0.28077
 Alpha virt. eigenvalues --    0.29390   0.30242   0.30752   0.32509   0.32552
 Alpha virt. eigenvalues --    0.34278   0.36928   0.39047   0.41509   0.42756
 Alpha virt. eigenvalues --    0.47763   0.51654   0.53717   0.55765   0.58876
 Alpha virt. eigenvalues --    0.63457   0.68482   0.68914   0.70767   0.71205
 Alpha virt. eigenvalues --    0.73050   0.74749   0.74814   0.75870   0.79543
 Alpha virt. eigenvalues --    0.80277   0.82064   0.83280   0.84738   0.85478
 Alpha virt. eigenvalues --    0.87641   0.89730   0.89815   0.91506   0.92637
 Alpha virt. eigenvalues --    0.95043   0.97944   0.98367   1.00226   1.01553
 Alpha virt. eigenvalues --    1.04880   1.05651   1.06314   1.07045   1.09166
 Alpha virt. eigenvalues --    1.10054   1.12347   1.12961   1.15270   1.16169
 Alpha virt. eigenvalues --    1.19052   1.22169   1.23734   1.25026   1.29867
 Alpha virt. eigenvalues --    1.32454   1.36641   1.41133   1.42976   1.45113
 Alpha virt. eigenvalues --    1.45745   1.51086   1.53780   1.59451   1.60206
 Alpha virt. eigenvalues --    1.60407   1.65400   1.65475   1.67890   1.69150
 Alpha virt. eigenvalues --    1.71888   1.84852   1.91373   1.92560   1.97403
 Alpha virt. eigenvalues --    1.99618   2.02797   2.05717   2.06916   2.08042
 Alpha virt. eigenvalues --    2.09689   2.12074   2.12783   2.15597   2.20064
 Alpha virt. eigenvalues --    2.21649   2.21902   2.25725   2.29286   2.32631
 Alpha virt. eigenvalues --    2.33281   2.37316   2.39404   2.42448   2.48526
 Alpha virt. eigenvalues --    2.49408   2.51383   2.54597   2.55568   2.56596
 Alpha virt. eigenvalues --    2.59966   2.63711   2.64245   2.75978   2.79735
 Alpha virt. eigenvalues --    2.80391   2.87754   2.89427   2.89734   2.99115
 Alpha virt. eigenvalues --    3.02721   3.07008   3.11853   3.14663   3.24658
 Alpha virt. eigenvalues --    3.44662   3.66330   4.11841   4.30188   4.31617
 Alpha virt. eigenvalues --    4.37286   4.40334   4.44200   4.54179   4.60537
 Alpha virt. eigenvalues --    4.75793   5.14542
  Beta  occ. eigenvalues --  -19.00391 -18.98430 -10.10081 -10.02588 -10.01052
  Beta  occ. eigenvalues --  -10.00982  -9.97349  -9.96683  -9.94657  -9.93342
  Beta  occ. eigenvalues --   -0.89113  -0.86086  -0.62999  -0.58132  -0.54797
  Beta  occ. eigenvalues --   -0.51953  -0.47411  -0.40355  -0.39693  -0.35733
  Beta  occ. eigenvalues --   -0.31834  -0.31658  -0.29513  -0.26543  -0.24915
  Beta  occ. eigenvalues --   -0.24009  -0.23243  -0.20902  -0.20486  -0.18735
  Beta  occ. eigenvalues --   -0.17449  -0.15840  -0.14745  -0.13025  -0.10363
  Beta  occ. eigenvalues --   -0.00440   0.00472
  Beta virt. eigenvalues --    0.22925   0.23489   0.23634   0.24432   0.26776
  Beta virt. eigenvalues --    0.28125   0.29531   0.30388   0.30792   0.32612
  Beta virt. eigenvalues --    0.33595   0.34587   0.37092   0.41494   0.41880
  Beta virt. eigenvalues --    0.43041   0.48283   0.51849   0.53912   0.56354
  Beta virt. eigenvalues --    0.59348   0.63541   0.68663   0.69233   0.71149
  Beta virt. eigenvalues --    0.71629   0.73378   0.75130   0.75583   0.76134
  Beta virt. eigenvalues --    0.79826   0.81670   0.82357   0.83853   0.85901
  Beta virt. eigenvalues --    0.86409   0.88143   0.89966   0.90150   0.92499
  Beta virt. eigenvalues --    0.92780   0.95299   0.97975   0.99118   1.00853
  Beta virt. eigenvalues --    1.01764   1.05200   1.05909   1.06496   1.07201
  Beta virt. eigenvalues --    1.09416   1.10174   1.12466   1.13096   1.15462
  Beta virt. eigenvalues --    1.16417   1.19319   1.22437   1.24060   1.25328
  Beta virt. eigenvalues --    1.30056   1.32738   1.37107   1.41359   1.43241
  Beta virt. eigenvalues --    1.45377   1.46864   1.51259   1.54320   1.59939
  Beta virt. eigenvalues --    1.60649   1.60698   1.65868   1.66268   1.68066
  Beta virt. eigenvalues --    1.70134   1.73014   1.85019   1.91537   1.92790
  Beta virt. eigenvalues --    1.97852   2.00184   2.03053   2.06334   2.07533
  Beta virt. eigenvalues --    2.08272   2.09915   2.13052   2.13115   2.15724
  Beta virt. eigenvalues --    2.20375   2.22208   2.22468   2.26124   2.29927
  Beta virt. eigenvalues --    2.33072   2.33673   2.37848   2.39568   2.42949
  Beta virt. eigenvalues --    2.49332   2.50583   2.51827   2.55294   2.55627
  Beta virt. eigenvalues --    2.57032   2.60762   2.64419   2.64437   2.76893
  Beta virt. eigenvalues --    2.80439   2.80649   2.88006   2.90393   2.90815
  Beta virt. eigenvalues --    2.99629   3.02983   3.07256   3.12137   3.14879
  Beta virt. eigenvalues --    3.25334   3.44865   3.66600   4.11919   4.30650
  Beta virt. eigenvalues --    4.32053   4.37641   4.40855   4.44393   4.54418
  Beta virt. eigenvalues --    4.61272   4.76266   5.14973
          Condensed to atoms (all electrons):
               1          2          3          4          5          6
     1  C    4.677039   0.473346   0.026302  -0.049992  -0.039205   0.517954
     2  C    0.473346   5.349882   0.417914  -0.031603  -0.034732  -0.076870
     3  C    0.026302   0.417914   4.684199   0.606939  -0.038442  -0.033756
     4  C   -0.049992  -0.031603   0.606939   5.003125   0.428156   0.016356
     5  C   -0.039205  -0.034732  -0.038442   0.428156   5.404293   0.338808
     6  C    0.517954  -0.076870  -0.033756   0.016356   0.338808   4.966703
     7  H   -0.050073   0.324914  -0.066915   0.008218  -0.000087   0.010444
     8  H    0.000855   0.007654  -0.045302   0.323124  -0.057532   0.004346
     9  H    0.003617   0.001467   0.004390  -0.040960   0.324443  -0.054532
    10  O   -0.050760   0.003959   0.000211   0.003735  -0.061251   0.181793
    11  H   -0.047083   0.004655   0.000072  -0.000190   0.001793  -0.013710
    12  O    0.252904  -0.041147   0.002305   0.000232   0.005765  -0.069651
    13  C    0.008475  -0.095984   0.367737  -0.054284   0.008738   0.000607
    14  H   -0.000291   0.007626  -0.042917  -0.001201   0.000066  -0.000032
    15  H   -0.000166   0.003571  -0.024486  -0.003765  -0.000157   0.000021
    16  H   -0.000290   0.007622  -0.042923  -0.001199   0.000066  -0.000032
    17  C    0.003934  -0.000083  -0.000018   0.000115  -0.006320  -0.046897
    18  H    0.000077   0.000007   0.000000   0.000001   0.000235   0.003017
    19  H   -0.000056  -0.000020  -0.000002  -0.000161   0.004239   0.000843
    20  H   -0.000056  -0.000020  -0.000002  -0.000162   0.004243   0.000833
               7          8          9         10         11         12
     1  C   -0.050073   0.000855   0.003617  -0.050760  -0.047083   0.252904
     2  C    0.324914   0.007654   0.001467   0.003959   0.004655  -0.041147
     3  C   -0.066915  -0.045302   0.004390   0.000211   0.000072   0.002305
     4  C    0.008218   0.323124  -0.040960   0.003735  -0.000190   0.000232
     5  C   -0.000087  -0.057532   0.324443  -0.061251   0.001793   0.005765
     6  C    0.010444   0.004346  -0.054532   0.181793  -0.013710  -0.069651
     7  H    0.777355  -0.000262   0.000023  -0.000080  -0.000547  -0.002738
     8  H   -0.000262   0.764180  -0.008209  -0.000061   0.000000   0.000003
     9  H    0.000023  -0.008209   0.756783  -0.008633  -0.000019  -0.000073
    10  O   -0.000080  -0.000061  -0.008633   8.322920   0.032044  -0.012468
    11  H   -0.000547   0.000000  -0.000019   0.032044   0.394869   0.242193
    12  O   -0.002738   0.000003  -0.000073  -0.012468   0.242193   8.322042
    13  C   -0.014482  -0.017097  -0.000288   0.000000   0.000006  -0.000065
    14  H    0.002838   0.000161   0.000004   0.000000   0.000000   0.000000
    15  H    0.000084   0.010224  -0.000012   0.000000   0.000000   0.000000
    16  H    0.002846   0.000162   0.000004   0.000000   0.000000   0.000000
    17  C    0.000005  -0.000013   0.004756   0.279983  -0.001937   0.000309
    18  H    0.000000   0.000000   0.000080  -0.038462  -0.000134   0.000013
    19  H    0.000000   0.000005   0.001521  -0.041354   0.000132  -0.000024
    20  H    0.000000   0.000005   0.001525  -0.041334   0.000133  -0.000024
              13         14         15         16         17         18
     1  C    0.008475  -0.000291  -0.000166  -0.000290   0.003934   0.000077
     2  C   -0.095984   0.007626   0.003571   0.007622  -0.000083   0.000007
     3  C    0.367737  -0.042917  -0.024486  -0.042923  -0.000018   0.000000
     4  C   -0.054284  -0.001201  -0.003765  -0.001199   0.000115   0.000001
     5  C    0.008738   0.000066  -0.000157   0.000066  -0.006320   0.000235
     6  C    0.000607  -0.000032   0.000021  -0.000032  -0.046897   0.003017
     7  H   -0.014482   0.002838   0.000084   0.002846   0.000005   0.000000
     8  H   -0.017097   0.000161   0.010224   0.000162  -0.000013   0.000000
     9  H   -0.000288   0.000004  -0.000012   0.000004   0.004756   0.000080
    10  O    0.000000   0.000000   0.000000   0.000000   0.279983  -0.038462
    11  H    0.000006   0.000000   0.000000   0.000000  -0.001937  -0.000134
    12  O   -0.000065   0.000000   0.000000   0.000000   0.000309   0.000013
    13  C    5.338389   0.314421   0.345683   0.314413   0.000000   0.000000
    14  H    0.314421   0.749889  -0.035078  -0.083446   0.000000   0.000000
    15  H    0.345683  -0.035078   0.643185  -0.035076   0.000000   0.000000
    16  H    0.314413  -0.083446  -0.035076   0.749899   0.000000   0.000000
    17  C    0.000000   0.000000   0.000000   0.000000   4.852948   0.374604
    18  H    0.000000   0.000000   0.000000   0.000000   0.374604   0.631937
    19  H    0.000000   0.000000   0.000000   0.000000   0.353430  -0.039949
    20  H    0.000000   0.000000   0.000000   0.000000   0.353437  -0.039936
              19         20
     1  C   -0.000056  -0.000056
     2  C   -0.000020  -0.000020
     3  C   -0.000002  -0.000002
     4  C   -0.000161  -0.000162
     5  C    0.004239   0.004243
     6  C    0.000843   0.000833
     7  H    0.000000   0.000000
     8  H    0.000005   0.000005
     9  H    0.001521   0.001525
    10  O   -0.041354  -0.041334
    11  H    0.000132   0.000133
    12  O   -0.000024  -0.000024
    13  C    0.000000   0.000000
    14  H    0.000000   0.000000
    15  H    0.000000   0.000000
    16  H    0.000000   0.000000
    17  C    0.353430   0.353437
    18  H   -0.039949  -0.039936
    19  H    0.658781  -0.060233
    20  H   -0.060233   0.658709
          Atomic-Atomic Spin Densities.
               1          2          3          4          5          6
     1  C   -0.001784  -0.087783   0.006274   0.006220  -0.018320   0.067479
     2  C   -0.087783   0.660782  -0.133800  -0.014777   0.021948  -0.034500
     3  C    0.006274  -0.133800   0.203486   0.048059  -0.024410   0.011071
     4  C    0.006220  -0.014777   0.048059  -0.055825  -0.060799   0.007283
     5  C   -0.018320   0.021948  -0.024410  -0.060799   0.622490  -0.164545
     6  C    0.067479  -0.034500   0.011071   0.007283  -0.164545   0.316505
     7  H   -0.001134   0.005747   0.000167  -0.000250  -0.000046  -0.000238
     8  H   -0.000073   0.000244  -0.001178   0.002120  -0.001012   0.000201
     9  H   -0.000168  -0.000085  -0.000050  -0.000557   0.005781  -0.001375
    10  O   -0.004965   0.000491  -0.000057  -0.000124   0.007122  -0.031888
    11  H    0.000612   0.000159  -0.000014   0.000001   0.000005  -0.000290
    12  O   -0.000487   0.003788  -0.000060  -0.000040   0.000326  -0.004835
    13  C    0.000470  -0.017288   0.047914   0.002958  -0.001104   0.000191
    14  H   -0.000205   0.009471  -0.017293  -0.001370   0.000239  -0.000065
    15  H   -0.000005   0.000116  -0.000610   0.000341   0.000001   0.000001
    16  H   -0.000204   0.009464  -0.017298  -0.001369   0.000239  -0.000065
    17  C   -0.000132   0.000008  -0.000004  -0.000005   0.001703  -0.001944
    18  H   -0.000007   0.000000   0.000000   0.000000   0.000009   0.000033
    19  H    0.000061  -0.000008   0.000005   0.000024  -0.002065   0.001288
    20  H    0.000060  -0.000008   0.000005   0.000024  -0.002061   0.001279
               7          8          9         10         11         12
     1  C   -0.001134  -0.000073  -0.000168  -0.004965   0.000612  -0.000487
     2  C    0.005747   0.000244  -0.000085   0.000491   0.000159   0.003788
     3  C    0.000167  -0.001178  -0.000050  -0.000057  -0.000014  -0.000060
     4  C   -0.000250   0.002120  -0.000557  -0.000124   0.000001  -0.000040
     5  C   -0.000046  -0.001012   0.005781   0.007122   0.000005   0.000326
     6  C   -0.000238   0.000201  -0.001375  -0.031888  -0.000290  -0.004835
     7  H   -0.031377   0.000003  -0.000001   0.000001   0.000002   0.000347
     8  H    0.000003   0.000374   0.000307   0.000000   0.000000   0.000000
     9  H   -0.000001   0.000307  -0.028053   0.000257   0.000001   0.000002
    10  O    0.000001   0.000000   0.000257   0.039054  -0.000046   0.000523
    11  H    0.000002   0.000000   0.000001  -0.000046  -0.001227   0.000218
    12  O    0.000347   0.000000   0.000002   0.000523   0.000218  -0.000189
    13  C    0.000523   0.000433   0.000003   0.000000   0.000000  -0.000001
    14  H   -0.000001  -0.000005   0.000000   0.000000   0.000000   0.000001
    15  H   -0.000010  -0.000099   0.000000   0.000000   0.000000   0.000000
    16  H    0.000004  -0.000004   0.000000   0.000000   0.000000   0.000001
    17  C    0.000000   0.000000  -0.000035   0.001744   0.000022   0.000003
    18  H    0.000000   0.000000  -0.000018   0.000048  -0.000001   0.000000
    19  H    0.000000   0.000000   0.000057  -0.000762  -0.000001  -0.000001
    20  H    0.000000   0.000000   0.000059  -0.000753  -0.000001  -0.000001
              13         14         15         16         17         18
     1  C    0.000470  -0.000205  -0.000005  -0.000204  -0.000132  -0.000007
     2  C   -0.017288   0.009471   0.000116   0.009464   0.000008   0.000000
     3  C    0.047914  -0.017293  -0.000610  -0.017298  -0.000004   0.000000
     4  C    0.002958  -0.001370   0.000341  -0.001369  -0.000005   0.000000
     5  C   -0.001104   0.000239   0.000001   0.000239   0.001703   0.000009
     6  C    0.000191  -0.000065   0.000001  -0.000065  -0.001944   0.000033
     7  H    0.000523  -0.000001  -0.000010   0.000004   0.000000   0.000000
     8  H    0.000433  -0.000005  -0.000099  -0.000004   0.000000   0.000000
     9  H    0.000003   0.000000   0.000000   0.000000  -0.000035  -0.000018
    10  O    0.000000   0.000000   0.000000   0.000000   0.001744   0.000048
    11  H    0.000000   0.000000   0.000000   0.000000   0.000022  -0.000001
    12  O   -0.000001   0.000001   0.000000   0.000001   0.000003   0.000000
    13  C    0.026463  -0.034868   0.001446  -0.034875   0.000000   0.000000
    14  H   -0.034868   0.109013  -0.000172  -0.038253   0.000000   0.000000
    15  H    0.001446  -0.000172  -0.001409  -0.000174   0.000000   0.000000
    16  H   -0.034875  -0.038253  -0.000174   0.109026   0.000000   0.000000
    17  C    0.000000   0.000000   0.000000   0.000000  -0.003872   0.000178
    18  H    0.000000   0.000000   0.000000   0.000000   0.000178  -0.000496
    19  H    0.000000   0.000000   0.000000   0.000000   0.000189   0.000027
    20  H    0.000000   0.000000   0.000000   0.000000   0.000209   0.000030
              19         20
     1  C    0.000061   0.000060
     2  C   -0.000008  -0.000008
     3  C    0.000005   0.000005
     4  C    0.000024   0.000024
     5  C   -0.002065  -0.002061
     6  C    0.001288   0.001279
     7  H    0.000000   0.000000
     8  H    0.000000   0.000000
     9  H    0.000057   0.000059
    10  O   -0.000762  -0.000753
    11  H   -0.000001  -0.000001
    12  O   -0.000001  -0.000001
    13  C    0.000000   0.000000
    14  H    0.000000   0.000000
    15  H    0.000000   0.000000
    16  H    0.000000   0.000000
    17  C    0.000189   0.000209
    18  H    0.000027   0.000030
    19  H    0.002176  -0.000224
    20  H   -0.000224   0.002138
 Mulliken charges and spin densities:
               1          2
     1  C    0.273471  -0.034093
     2  C   -0.322158   0.423968
     3  C    0.184695   0.122208
     4  C   -0.206483  -0.068086
     5  C   -0.283118   0.385500
     6  C    0.253754   0.165586
     7  H    0.008456  -0.026263
     8  H    0.017758   0.001310
     9  H    0.014113  -0.023877
    10  O   -0.570241   0.010645
    11  H    0.387723  -0.000559
    12  O   -0.699574  -0.000405
    13  C   -0.516270  -0.007735
    14  H    0.087961   0.026491
    15  H    0.095972  -0.000575
    16  H    0.087954   0.026492
    17  C   -0.168253  -0.001933
    18  H    0.108510  -0.000196
    19  H    0.122847   0.000766
    20  H    0.122882   0.000757
 Sum of Mulliken charges =  -1.00000   1.00000
 Mulliken charges and spin densities with hydrogens summed into heavy atoms:
               1          2
     1  C    0.273471  -0.034093
     2  C   -0.313702   0.397705
     3  C    0.184695   0.122208
     4  C   -0.188724  -0.066776
     5  C   -0.269005   0.361624
     6  C    0.253754   0.165586
    10  O   -0.570241   0.010645
    12  O   -0.311851  -0.000964
    13  C   -0.244383   0.044673
    17  C    0.185987  -0.000607
 Electronic spatial extent (au):  <R**2>=           1655.5608
 Charge=             -1.0000 electrons
 Dipole moment (field-independent basis, Debye):
    X=              4.0008    Y=             -1.2107    Z=              0.0021  Tot=              4.1800
 Quadrupole moment (field-independent basis, Debye-Ang):
   XX=            -72.2691   YY=            -71.5570   ZZ=            -65.8051
   XY=             -0.7674   XZ=              0.0040   YZ=              0.0054
 Traceless Quadrupole moment (field-independent basis, Debye-Ang):
   XX=             -2.3921   YY=             -1.6799   ZZ=              4.0720
   XY=             -0.7674   XZ=              0.0040   YZ=              0.0054
 Octapole moment (field-independent basis, Debye-Ang**2):
  XXX=             66.4365  YYY=             -1.1835  ZZZ=              0.0000  XYY=             13.3351
  XXY=              5.7699  XXZ=              0.0050  XZZ=             10.1531  YZZ=              4.8662
  YYZ=              0.0119  XYZ=              0.0105
 Hexadecapole moment (field-independent basis, Debye-Ang**3):
 XXXX=          -1718.8075 YYYY=           -645.0757 ZZZZ=            -81.5211 XXXY=              3.8659
 XXXZ=              0.0022 YYYX=             14.3671 YYYZ=              0.0276 ZZZX=              0.0029
 ZZZY=              0.0006 XXYY=           -351.5246 XXZZ=           -287.2924 YYZZ=           -118.3255
 XXYZ=              0.0168 YYXZ=              0.0208 ZZXY=              1.8215
 N-N= 5.161951938693D+02 E-N=-2.121075838030D+03  KE= 4.575453177807D+02
                          Isotropic Fermi Contact Couplings
        Atom                 a.u.       MegaHertz       Gauss      10(-4) cm-1
     1  C(13)             -0.01451     -16.31733      -5.82243      -5.44288
     2  C(13)              0.04023      45.22387      16.13700      15.08506
     3  C(13)              0.00837       9.41076       3.35799       3.13909
     4  C(13)             -0.01541     -17.32495      -6.18197      -5.77898
     5  C(13)              0.03667      41.22145      14.70884      13.75000
     6  C(13)              0.01181      13.28077       4.73891       4.42999
     7  H(1)              -0.00687     -30.70813     -10.95743     -10.24313
     8  H(1)               0.00028       1.26154       0.45015       0.42080
     9  H(1)              -0.00627     -28.02994     -10.00178      -9.34978
    10  O(17)              0.00519      -3.14534      -1.12233      -1.04917
    11  H(1)              -0.00022      -0.98940      -0.35304      -0.33003
    12  O(17)             -0.00153       0.92700       0.33078       0.30921
    13  C(13)             -0.00736      -8.27509      -2.95276      -2.76027
    14  H(1)               0.00452      20.21455       7.21305       6.74285
    15  H(1)              -0.00017      -0.76614      -0.27338      -0.25556
    16  H(1)               0.00452      20.21034       7.21155       6.74144
    17  C(13)             -0.00110      -1.24036      -0.44259      -0.41374
    18  H(1)              -0.00010      -0.43158      -0.15400      -0.14396
    19  H(1)               0.00113       5.06474       1.80722       1.68941
    20  H(1)               0.00113       5.05529       1.80385       1.68626
 --------------------------------------------------------
       Center         ----  Spin Dipole Couplings  ----
                      3XX-RR        3YY-RR        3ZZ-RR
 --------------------------------------------------------
     1   Atom        0.002651     -0.009500      0.006848
     2   Atom       -0.216927     -0.212580      0.429507
     3   Atom       -0.084200     -0.080921      0.165120
     4   Atom        0.025800      0.014090     -0.039890
     5   Atom       -0.204789     -0.194935      0.399724
     6   Atom       -0.125641     -0.117061      0.242702
     7   Atom       -0.014388      0.014485     -0.000097
     8   Atom        0.001935      0.003362     -0.005297
     9   Atom       -0.012852      0.013554     -0.000702
    10   Atom       -0.056446     -0.060465      0.116911
    11   Atom        0.000184      0.004031     -0.004215
    12   Atom        0.000456      0.002961     -0.003418
    13   Atom        0.004067     -0.006041      0.001974
    14   Atom        0.006600     -0.002952     -0.003648
    15   Atom        0.004578     -0.002034     -0.002543
    16   Atom        0.006600     -0.002952     -0.003647
    17   Atom        0.005751     -0.001196     -0.004555
    18   Atom        0.003593     -0.001697     -0.001896
    19   Atom        0.004061     -0.001533     -0.002528
    20   Atom        0.004062     -0.001534     -0.002529
 --------------------------------------------------------
                        XY            XZ            YZ
 --------------------------------------------------------
     1   Atom       -0.004384      0.000019      0.000010
     2   Atom       -0.004766      0.000054     -0.000073
     3   Atom        0.004640      0.000004     -0.000015
     4   Atom       -0.004694     -0.000005      0.000002
     5   Atom       -0.003656     -0.000033      0.000039
     6   Atom        0.002428      0.000041     -0.000015
     7   Atom       -0.027818     -0.000003      0.000004
     8   Atom        0.000729      0.000000      0.000001
     9   Atom       -0.026913      0.000001     -0.000004
    10   Atom       -0.004629     -0.000016     -0.000003
    11   Atom        0.004739     -0.000001      0.000002
    12   Atom        0.003451      0.000048     -0.000034
    13   Atom        0.002307     -0.000006      0.000002
    14   Atom       -0.000591      0.002970      0.000119
    15   Atom        0.004547     -0.000001      0.000000
    16   Atom       -0.000591     -0.002969     -0.000119
    17   Atom       -0.002277      0.000000      0.000000
    18   Atom       -0.000775      0.000000      0.000000
    19   Atom       -0.002602      0.002096     -0.000908
    20   Atom       -0.002603     -0.002095      0.000908
 --------------------------------------------------------


 ---------------------------------------------------------------------------------
              Anisotropic Spin Dipole Couplings in Principal Axis System
 ---------------------------------------------------------------------------------

       Atom             a.u.   MegaHertz   Gauss  10(-4) cm-1        Axes

              Baa    -0.0109    -1.465    -0.523    -0.489  0.3075  0.9516 -0.0009
     1 C(13)  Bbb     0.0041     0.546     0.195     0.182  0.9515 -0.3075 -0.0055
              Bcc     0.0068     0.919     0.328     0.307  0.0055 -0.0008  1.0000
 
              Baa    -0.2200   -29.521   -10.534    -9.847  0.8411  0.5409  0.0000
     2 C(13)  Bbb    -0.2095   -28.115   -10.032    -9.378 -0.5409  0.8411  0.0001
              Bcc     0.4295    57.636    20.566    19.225  0.0001 -0.0001  1.0000
 
              Baa    -0.0875   -11.739    -4.189    -3.916  0.8164 -0.5774  0.0000
     3 C(13)  Bbb    -0.0776   -10.418    -3.718    -3.475  0.5774  0.8164  0.0000
              Bcc     0.1651    22.158     7.906     7.391  0.0000 -0.0001  1.0000
 
              Baa    -0.0399    -5.353    -1.910    -1.786  0.0001  0.0000  1.0000
     4 C(13)  Bbb     0.0124     1.669     0.596     0.557  0.3315  0.9435  0.0000
              Bcc     0.0274     3.683     1.314     1.229  0.9435 -0.3315 -0.0001
 
              Baa    -0.2060   -27.643    -9.864    -9.221  0.9495  0.3138  0.0000
     5 C(13)  Bbb    -0.1937   -25.996    -9.276    -8.671 -0.3138  0.9495 -0.0001
              Bcc     0.3997    53.639    19.140    17.892 -0.0001  0.0001  1.0000
 
              Baa    -0.1263   -16.946    -6.047    -5.652  0.9670 -0.2547 -0.0001
     6 C(13)  Bbb    -0.1164   -15.623    -5.575    -5.211  0.2547  0.9670  0.0000
              Bcc     0.2427    32.568    11.621    10.864  0.0001  0.0000  1.0000
 
              Baa    -0.0313   -16.696    -5.958    -5.569  0.8546  0.5193  0.0000
     7 H(1)   Bbb    -0.0001    -0.052    -0.018    -0.017  0.0001 -0.0001  1.0000
              Bcc     0.0314    16.748     5.976     5.587 -0.5193  0.8546  0.0001
 
              Baa    -0.0053    -2.826    -1.008    -0.943  0.0000 -0.0001  1.0000
     8 H(1)   Bbb     0.0016     0.869     0.310     0.290  0.9218 -0.3877  0.0000
              Bcc     0.0037     1.958     0.699     0.653  0.3877  0.9218  0.0001
 
              Baa    -0.0296   -15.807    -5.640    -5.273  0.8487  0.5289  0.0000
     9 H(1)   Bbb    -0.0007    -0.375    -0.134    -0.125 -0.0001  0.0001  1.0000
              Bcc     0.0303    16.182     5.774     5.398 -0.5289  0.8487 -0.0001
 
              Baa    -0.0635     4.595     1.640     1.533  0.5486  0.8361  0.0001
    10 O(17)  Bbb    -0.0534     3.865     1.379     1.289  0.8361 -0.5486  0.0001
              Bcc     0.1169    -8.460    -3.019    -2.822 -0.0001  0.0000  1.0000
 
              Baa    -0.0042    -2.249    -0.802    -0.750  0.0014 -0.0011  1.0000
    11 H(1)   Bbb    -0.0030    -1.605    -0.573    -0.535  0.8295 -0.5586 -0.0018
              Bcc     0.0072     3.853     1.375     1.285  0.5586  0.8295  0.0001
 
              Baa    -0.0034     0.247     0.088     0.083 -0.0327  0.0229  0.9992
    12 O(17)  Bbb    -0.0020     0.142     0.051     0.047  0.8182 -0.5735  0.0399
              Bcc     0.0054    -0.389    -0.139    -0.130  0.5740  0.8189  0.0000
 
              Baa    -0.0065    -0.878    -0.313    -0.293 -0.2125  0.9772 -0.0004
    13 C(13)  Bbb     0.0020     0.265     0.094     0.088  0.0021  0.0009  1.0000
              Bcc     0.0046     0.613     0.219     0.205  0.9772  0.2125 -0.0022
 
              Baa    -0.0045    -2.398    -0.856    -0.800 -0.2633 -0.1743  0.9488
    14 H(1)   Bbb    -0.0029    -1.565    -0.558    -0.522  0.0042  0.9833  0.1819
              Bcc     0.0074     3.963     1.414     1.322  0.9647 -0.0519  0.2582
 
              Baa    -0.0044    -2.321    -0.828    -0.774 -0.4538  0.8911  0.0000
    15 H(1)   Bbb    -0.0025    -1.357    -0.484    -0.453  0.0001  0.0000  1.0000
              Bcc     0.0069     3.678     1.312     1.227  0.8911  0.4538 -0.0001
 
              Baa    -0.0045    -2.397    -0.855    -0.800  0.2633  0.1743  0.9488
    16 H(1)   Bbb    -0.0029    -1.565    -0.558    -0.522  0.0043  0.9833 -0.1819
              Bcc     0.0074     3.962     1.414     1.322  0.9647 -0.0519 -0.2581
 
              Baa    -0.0046    -0.611    -0.218    -0.204  0.0000  0.0000  1.0000
    17 C(13)  Bbb    -0.0019    -0.252    -0.090    -0.084  0.2861  0.9582  0.0000
              Bcc     0.0064     0.863     0.308     0.288  0.9582 -0.2861  0.0000
 
              Baa    -0.0019    -1.011    -0.361    -0.337  0.0000 -0.0001  1.0000
    18 H(1)   Bbb    -0.0018    -0.965    -0.344    -0.322  0.1420  0.9899  0.0001
              Bcc     0.0037     1.976     0.705     0.659  0.9899 -0.1420  0.0000
 
              Baa    -0.0032    -1.691    -0.603    -0.564 -0.2016  0.2103  0.9566
    19 H(1)   Bbb    -0.0025    -1.359    -0.485    -0.453  0.3957  0.9109 -0.1169
              Bcc     0.0057     3.050     1.088     1.017  0.8960 -0.3550  0.2669
 
              Baa    -0.0032    -1.691    -0.603    -0.564  0.2011 -0.2110  0.9566
    20 H(1)   Bbb    -0.0025    -1.359    -0.485    -0.453  0.3959  0.9107  0.1177
              Bcc     0.0057     3.050     1.088     1.017  0.8960 -0.3551 -0.2667
 

 ---------------------------------------------------------------------------------

 No NMR shielding tensors so no spin-rotation constants.
 Leave Link  601 at Mon Dec 08 16:46:42 2025, MaxMem=   104857600 cpu:               0.0 elap:               0.3
 (Enter D:\Gaussian\G16W\l9999.exe)
 1|1|UNPC-PC-20250526LCFF|SP|UB3LYP|6-31G(d)|C8H10O2(1-,2)|ADMINISTRATO
 R|08-Dec-2025|0||#p b3lyp/6-31g(d) out=wfn scf=conver=7||Generated by 
 Multiwfn (http://sobereva.com/multiwfn)||-1,2|C,0,0.10043691,1.0775501
 ,0.00000184|C,0,-1.28248108,0.99604207,0.00008884|C,0,-1.93328506,-0.2
 4648594,0.00002184|C,0,-1.15803405,-1.40251192,-0.00003216|C,0,0.24079
 195,-1.3365069,-0.00002016|C,0,0.87111894,-0.10162189,-0.00006416|H,0,
 -1.8470921,1.92205106,0.00020484|H,0,-1.63882003,-2.37439593,-0.000046
 16|H,0,0.81912697,-2.25133189,0.00005884|O,0,2.22859193,0.12362313,-0.
 00001116|H,0,1.6676199,2.12810212,0.00121284|O,0,0.71527889,2.29268111
 ,-0.00019816|C,0,-3.44206406,-0.31078496,0.00000584|H,0,-3.86190307,0.
 18497503,-0.88097916|H,0,-3.79367804,-1.34442697,0.00014184|H,0,-3.861
 95707,0.18522803,0.88082184|C,0,3.09663195,-1.00037286,0.00003184|H,0,
 4.10946394,-0.60065884,-0.00032516|H,0,2.94898296,-1.61572886,0.894234
 84|H,0,2.94859696,-1.61609386,-0.89385216||Version=EM64W-G16RevA.03|St
 ate=2-A|HF=-461.2209523|S2=0.757454|S2-1=0.|S2A=0.750033|RMSD=2.493e-0
 08|Dipole=1.5740301,-0.47631,0.000825|Quadrupole=-1.7784489,-1.2489886
 ,3.0274375,-0.5705393,0.0029852,0.0040103|PG=C01 [X(C8H10O2)]||@

 Writing a WFN file to "N+1.wfn"


 IF YOU GET CONFUSED, LOGIC OUT YOUR DILEMMA

           --  PICKER X-RAY CORP.    DIGITAL PRINTER MANUAL CA. 1964
 Job cpu time:       0 days  0 hours  0 minutes 55.0 seconds.
 Elapsed time:       0 days  0 hours  0 minutes 55.0 seconds.
 File lengths (MBytes):  RWF=     33 Int=      0 D2E=      0 Chk=      3 Scr=      1
 Normal termination of Gaussian 16 at Mon Dec 08 16:46:42 2025.
