 Generated by Multiwfn (http://sobereva.com/multiwfn)
GAUSSIAN             73 MOL ORBITALS    320 PRIMITIVES       20 NUCLEI
  C    1    (CENTRE  1)   0.18979825  2.03627457  0.00000347  CHARGE =  6.0
  C    2    (CENTRE  2)  -2.42353800  1.88224672  0.00016788  CHARGE =  6.0
  C    3    (CENTRE  3)  -3.65337928 -0.46579092  0.00004127  CHARGE =  6.0
  C    4    (CENTRE  4)  -2.18836720 -2.65036342 -0.00006078  CHARGE =  6.0
  C    5    (CENTRE  5)   0.45503084 -2.52563200 -0.00003810  CHARGE =  6.0
  C    6    (CENTRE  6)   1.64617622 -0.19203754 -0.00012125  CHARGE =  6.0
  H    7    (CENTRE  7)  -3.49049820  3.63215010  0.00038709  CHARGE =  1.0
  H    8    (CENTRE  8)  -3.09692102 -4.48695802 -0.00008723  CHARGE =  1.0
  H    9    (CENTRE  9)   1.54792564 -4.25440069  0.00011119  CHARGE =  1.0
  O   10    (CENTRE 10)   4.21142839  0.23361386 -0.00002109  CHARGE =  8.0
  H   11    (CENTRE 11)   3.15134489  4.02153017  0.00229193  CHARGE =  1.0
  O   12    (CENTRE 12)   1.35168120  4.33253939 -0.00037447  CHARGE =  8.0
  C   13    (CENTRE 13)  -6.50455838 -0.58729846  0.00001103  CHARGE =  6.0
  H   14    (CENTRE 14)  -7.29793912  0.34955214 -1.66480934  CHARGE =  1.0
  H   15    (CENTRE 15)  -7.16901250 -2.54059877  0.00026803  CHARGE =  1.0
  H   16    (CENTRE 16)  -7.29804117  0.35003024  1.66451204  CHARGE =  1.0
  C   17    (CENTRE 17)   5.85178630 -1.89043072  0.00006016  CHARGE =  6.0
  H   18    (CENTRE 18)   7.76576137 -1.13508070 -0.00061447  CHARGE =  1.0
  H   19    (CENTRE 19)   5.57277014 -3.05328503  1.68985893  CHARGE =  1.0
  H   20    (CENTRE 20)   5.57204071 -3.05397478 -1.68913578  CHARGE =  1.0
CENTRE ASSIGNMENTS    1  1  1  1  1  1  1  1  1  1  1  1  1  1  1  1  1  1  1  1
CENTRE ASSIGNMENTS    1  1  1  1  1  1  1  1  2  2  2  2  2  2  2  2  2  2  2  2
CENTRE ASSIGNMENTS    2  2  2  2  2  2  2  2  2  2  2  2  2  2  2  2  3  3  3  3
CENTRE ASSIGNMENTS    3  3  3  3  3  3  3  3  3  3  3  3  3  3  3  3  3  3  3  3
CENTRE ASSIGNMENTS    3  3  3  3  4  4  4  4  4  4  4  4  4  4  4  4  4  4  4  4
CENTRE ASSIGNMENTS    4  4  4  4  4  4  4  4  4  4  4  4  5  5  5  5  5  5  5  5
CENTRE ASSIGNMENTS    5  5  5  5  5  5  5  5  5  5  5  5  5  5  5  5  5  5  5  5
CENTRE ASSIGNMENTS    6  6  6  6  6  6  6  6  6  6  6  6  6  6  6  6  6  6  6  6
CENTRE ASSIGNMENTS    6  6  6  6  6  6  6  6  7  7  7  7  8  8  8  8  9  9  9  9
CENTRE ASSIGNMENTS   10 10 10 10 10 10 10 10 10 10 10 10 10 10 10 10 10 10 10 10
CENTRE ASSIGNMENTS   10 10 10 10 10 10 10 10 11 11 11 11 12 12 12 12 12 12 12 12
CENTRE ASSIGNMENTS   12 12 12 12 12 12 12 12 12 12 12 12 12 12 12 12 12 12 12 12
CENTRE ASSIGNMENTS   13 13 13 13 13 13 13 13 13 13 13 13 13 13 13 13 13 13 13 13
CENTRE ASSIGNMENTS   13 13 13 13 13 13 13 13 14 14 14 14 15 15 15 15 16 16 16 16
CENTRE ASSIGNMENTS   17 17 17 17 17 17 17 17 17 17 17 17 17 17 17 17 17 17 17 17
CENTRE ASSIGNMENTS   17 17 17 17 17 17 17 17 18 18 18 18 19 19 19 19 20 20 20 20
TYPE ASSIGNMENTS      1  1  1  1  1  1  1  1  1  2  2  2  3  3  3  4  4  4  1  2
TYPE ASSIGNMENTS      3  4  5  6  7  8  9 10  1  1  1  1  1  1  1  1  1  2  2  2
TYPE ASSIGNMENTS      3  3  3  4  4  4  1  2  3  4  5  6  7  8  9 10  1  1  1  1
TYPE ASSIGNMENTS      1  1  1  1  1  2  2  2  3  3  3  4  4  4  1  2  3  4  5  6
TYPE ASSIGNMENTS      7  8  9 10  1  1  1  1  1  1  1  1  1  2  2  2  3  3  3  4
TYPE ASSIGNMENTS      4  4  1  2  3  4  5  6  7  8  9 10  1  1  1  1  1  1  1  1
TYPE ASSIGNMENTS      1  2  2  2  3  3  3  4  4  4  1  2  3  4  5  6  7  8  9 10
TYPE ASSIGNMENTS      1  1  1  1  1  1  1  1  1  2  2  2  3  3  3  4  4  4  1  2
TYPE ASSIGNMENTS      3  4  5  6  7  8  9 10  1  1  1  1  1  1  1  1  1  1  1  1
TYPE ASSIGNMENTS      1  1  1  1  1  1  1  1  1  2  2  2  3  3  3  4  4  4  1  2
TYPE ASSIGNMENTS      3  4  5  6  7  8  9 10  1  1  1  1  1  1  1  1  1  1  1  1
TYPE ASSIGNMENTS      1  2  2  2  3  3  3  4  4  4  1  2  3  4  5  6  7  8  9 10
TYPE ASSIGNMENTS      1  1  1  1  1  1  1  1  1  2  2  2  3  3  3  4  4  4  1  2
TYPE ASSIGNMENTS      3  4  5  6  7  8  9 10  1  1  1  1  1  1  1  1  1  1  1  1
TYPE ASSIGNMENTS      1  1  1  1  1  1  1  1  1  2  2  2  3  3  3  4  4  4  1  2
TYPE ASSIGNMENTS      3  4  5  6  7  8  9 10  1  1  1  1  1  1  1  1  1  1  1  1
EXPONENTS  0.3047525D+04 0.4573695D+03 0.1039487D+03 0.2921016D+02 0.9286663D+01
EXPONENTS  0.3163927D+01 0.7868272D+01 0.1881289D+01 0.5442493D+00 0.7868272D+01
EXPONENTS  0.1881289D+01 0.5442493D+00 0.7868272D+01 0.1881289D+01 0.5442493D+00
EXPONENTS  0.7868272D+01 0.1881289D+01 0.5442493D+00 0.1687145D+00 0.1687145D+00
EXPONENTS  0.1687145D+00 0.1687145D+00 0.8000000D+00 0.8000000D+00 0.8000000D+00
EXPONENTS  0.8000000D+00 0.8000000D+00 0.8000000D+00 0.3047525D+04 0.4573695D+03
EXPONENTS  0.1039487D+03 0.2921016D+02 0.9286663D+01 0.3163927D+01 0.7868272D+01
EXPONENTS  0.1881289D+01 0.5442493D+00 0.7868272D+01 0.1881289D+01 0.5442493D+00
EXPONENTS  0.7868272D+01 0.1881289D+01 0.5442493D+00 0.7868272D+01 0.1881289D+01
EXPONENTS  0.5442493D+00 0.1687145D+00 0.1687145D+00 0.1687145D+00 0.1687145D+00
EXPONENTS  0.8000000D+00 0.8000000D+00 0.8000000D+00 0.8000000D+00 0.8000000D+00
EXPONENTS  0.8000000D+00 0.3047525D+04 0.4573695D+03 0.1039487D+03 0.2921016D+02
EXPONENTS  0.9286663D+01 0.3163927D+01 0.7868272D+01 0.1881289D+01 0.5442493D+00
EXPONENTS  0.7868272D+01 0.1881289D+01 0.5442493D+00 0.7868272D+01 0.1881289D+01
EXPONENTS  0.5442493D+00 0.7868272D+01 0.1881289D+01 0.5442493D+00 0.1687145D+00
EXPONENTS  0.1687145D+00 0.1687145D+00 0.1687145D+00 0.8000000D+00 0.8000000D+00
EXPONENTS  0.8000000D+00 0.8000000D+00 0.8000000D+00 0.8000000D+00 0.3047525D+04
EXPONENTS  0.4573695D+03 0.1039487D+03 0.2921016D+02 0.9286663D+01 0.3163927D+01
EXPONENTS  0.7868272D+01 0.1881289D+01 0.5442493D+00 0.7868272D+01 0.1881289D+01
EXPONENTS  0.5442493D+00 0.7868272D+01 0.1881289D+01 0.5442493D+00 0.7868272D+01
EXPONENTS  0.1881289D+01 0.5442493D+00 0.1687145D+00 0.1687145D+00 0.1687145D+00
EXPONENTS  0.1687145D+00 0.8000000D+00 0.8000000D+00 0.8000000D+00 0.8000000D+00
EXPONENTS  0.8000000D+00 0.8000000D+00 0.3047525D+04 0.4573695D+03 0.1039487D+03
EXPONENTS  0.2921016D+02 0.9286663D+01 0.3163927D+01 0.7868272D+01 0.1881289D+01
EXPONENTS  0.5442493D+00 0.7868272D+01 0.1881289D+01 0.5442493D+00 0.7868272D+01
EXPONENTS  0.1881289D+01 0.5442493D+00 0.7868272D+01 0.1881289D+01 0.5442493D+00
EXPONENTS  0.1687145D+00 0.1687145D+00 0.1687145D+00 0.1687145D+00 0.8000000D+00
EXPONENTS  0.8000000D+00 0.8000000D+00 0.8000000D+00 0.8000000D+00 0.8000000D+00
EXPONENTS  0.3047525D+04 0.4573695D+03 0.1039487D+03 0.2921016D+02 0.9286663D+01
EXPONENTS  0.3163927D+01 0.7868272D+01 0.1881289D+01 0.5442493D+00 0.7868272D+01
EXPONENTS  0.1881289D+01 0.5442493D+00 0.7868272D+01 0.1881289D+01 0.5442493D+00
EXPONENTS  0.7868272D+01 0.1881289D+01 0.5442493D+00 0.1687145D+00 0.1687145D+00
EXPONENTS  0.1687145D+00 0.1687145D+00 0.8000000D+00 0.8000000D+00 0.8000000D+00
EXPONENTS  0.8000000D+00 0.8000000D+00 0.8000000D+00 0.1873114D+02 0.2825394D+01
EXPONENTS  0.6401217D+00 0.1612778D+00 0.1873114D+02 0.2825394D+01 0.6401217D+00
EXPONENTS  0.1612778D+00 0.1873114D+02 0.2825394D+01 0.6401217D+00 0.1612778D+00
EXPONENTS  0.5484672D+04 0.8252349D+03 0.1880470D+03 0.5296450D+02 0.1689757D+02
EXPONENTS  0.5799635D+01 0.1553962D+02 0.3599934D+01 0.1013762D+01 0.1553962D+02
EXPONENTS  0.3599934D+01 0.1013762D+01 0.1553962D+02 0.3599934D+01 0.1013762D+01
EXPONENTS  0.1553962D+02 0.3599934D+01 0.1013762D+01 0.2700058D+00 0.2700058D+00
EXPONENTS  0.2700058D+00 0.2700058D+00 0.8000000D+00 0.8000000D+00 0.8000000D+00
EXPONENTS  0.8000000D+00 0.8000000D+00 0.8000000D+00 0.1873114D+02 0.2825394D+01
EXPONENTS  0.6401217D+00 0.1612778D+00 0.5484672D+04 0.8252349D+03 0.1880470D+03
EXPONENTS  0.5296450D+02 0.1689757D+02 0.5799635D+01 0.1553962D+02 0.3599934D+01
EXPONENTS  0.1013762D+01 0.1553962D+02 0.3599934D+01 0.1013762D+01 0.1553962D+02
EXPONENTS  0.3599934D+01 0.1013762D+01 0.1553962D+02 0.3599934D+01 0.1013762D+01
EXPONENTS  0.2700058D+00 0.2700058D+00 0.2700058D+00 0.2700058D+00 0.8000000D+00
EXPONENTS  0.8000000D+00 0.8000000D+00 0.8000000D+00 0.8000000D+00 0.8000000D+00
EXPONENTS  0.3047525D+04 0.4573695D+03 0.1039487D+03 0.2921016D+02 0.9286663D+01
EXPONENTS  0.3163927D+01 0.7868272D+01 0.1881289D+01 0.5442493D+00 0.7868272D+01
EXPONENTS  0.1881289D+01 0.5442493D+00 0.7868272D+01 0.1881289D+01 0.5442493D+00
EXPONENTS  0.7868272D+01 0.1881289D+01 0.5442493D+00 0.1687145D+00 0.1687145D+00
EXPONENTS  0.1687145D+00 0.1687145D+00 0.8000000D+00 0.8000000D+00 0.8000000D+00
EXPONENTS  0.8000000D+00 0.8000000D+00 0.8000000D+00 0.1873114D+02 0.2825394D+01
EXPONENTS  0.6401217D+00 0.1612778D+00 0.1873114D+02 0.2825394D+01 0.6401217D+00
EXPONENTS  0.1612778D+00 0.1873114D+02 0.2825394D+01 0.6401217D+00 0.1612778D+00
EXPONENTS  0.3047525D+04 0.4573695D+03 0.1039487D+03 0.2921016D+02 0.9286663D+01
EXPONENTS  0.3163927D+01 0.7868272D+01 0.1881289D+01 0.5442493D+00 0.7868272D+01
EXPONENTS  0.1881289D+01 0.5442493D+00 0.7868272D+01 0.1881289D+01 0.5442493D+00
EXPONENTS  0.7868272D+01 0.1881289D+01 0.5442493D+00 0.1687145D+00 0.1687145D+00
EXPONENTS  0.1687145D+00 0.1687145D+00 0.8000000D+00 0.8000000D+00 0.8000000D+00
EXPONENTS  0.8000000D+00 0.8000000D+00 0.8000000D+00 0.1873114D+02 0.2825394D+01
EXPONENTS  0.6401217D+00 0.1612778D+00 0.1873114D+02 0.2825394D+01 0.6401217D+00
EXPONENTS  0.1612778D+00 0.1873114D+02 0.2825394D+01 0.6401217D+00 0.1612778D+00
MO    1     MO 0.0        OCC NO =    1.0000000  ORB. ENERGY =  -19.406500
  0.12925797D-04  0.23845572D-04  0.38494147D-04  0.50107942D-04  0.42757198D-04
  0.14763033D-04 -0.69093533D-04 -0.31845146D-04  0.89297114D-04  0.46692325D-04
  0.35800714D-04  0.17867065D-04  0.71971727D-04  0.55183356D-04  0.27540362D-04
 -0.90940205D-07 -0.69727181D-07 -0.34798750D-07 -0.12600774D-03  0.20773220D-03
  0.32253239D-03 -0.11677276D-07 -0.45066646D-04  0.61212178D-04  0.29778971D-04
  0.10627645D-03 -0.52560582D-07 -0.16052727D-06  0.40945576D-05  0.75536593D-05
  0.12193948D-04  0.15872897D-04  0.13544372D-04  0.46765462D-05 -0.85024597D-05
 -0.39187759D-05  0.10988657D-04  0.73826163D-04  0.56605219D-04  0.28249972D-04
 -0.25243668D-04 -0.19355243D-04 -0.96596229D-05  0.10648016D-07  0.81642232D-08
  0.40745196D-08  0.25725822D-03  0.41141396D-04 -0.11576850D-03 -0.16168616D-07
  0.21906749D-04  0.23338821D-04  0.28914783D-04  0.99040163D-05 -0.50380679D-08
 -0.38650883D-08  0.61542395D-05  0.11353370D-04  0.18327860D-04  0.23857428D-04
  0.20357586D-04  0.70289853D-05 -0.27058143D-04 -0.12471073D-04  0.34970191D-04
  0.26714079D-04  0.20482661D-04  0.10222284D-04  0.11802500D-04  0.90494083D-05
  0.45162890D-05 -0.20153605D-07 -0.15452506D-07 -0.77118835D-08 -0.22817022D-03
 -0.13506678D-03 -0.15243836D-04  0.88998721D-08  0.11685060D-04 -0.32729852D-04
  0.26797086D-04  0.15766267D-04  0.32846802D-08 -0.32597108D-08 -0.46230733D-05
 -0.85286674D-05 -0.13767914D-04 -0.17921733D-04 -0.15292647D-04 -0.52801835D-05
  0.27256449D-04  0.12562472D-04 -0.35226483D-04  0.87898140D-04  0.67394719D-04
  0.33634688D-04  0.77749102D-05  0.59613080D-05  0.29751105D-05 -0.69498779D-08
 -0.53287256D-08 -0.26594075D-08  0.38192306D-03  0.10748655D-03  0.12055865D-03
  0.34433624D-08  0.55247331D-04 -0.27858042D-05 -0.59933370D-05 -0.17618878D-04
  0.39921205D-08  0.13098303D-07  0.11493631D-04  0.21203506D-04  0.34229033D-04
  0.44556030D-04  0.38019741D-04  0.13127303D-04 -0.79953442D-04 -0.36850468D-04
  0.10333256D-03 -0.90188637D-04 -0.69150927D-04 -0.34511159D-04 -0.52825963D-04
 -0.40503598D-04 -0.20214134D-04  0.13308298D-08  0.10203959D-08  0.50924907D-09
 -0.63099308D-03  0.21078380D-03 -0.29272704D-03  0.13969002D-07 -0.71805133D-04
 -0.86363189D-04  0.48006151D-04 -0.13419545D-04 -0.13376576D-07  0.10439492D-07
 -0.25386572D-04 -0.46833268D-04 -0.75603416D-04 -0.98413184D-04 -0.83976148D-04
 -0.28994946D-04 -0.38250222D-04 -0.17629492D-04  0.49434936D-04  0.56609415D-03
  0.43404509D-03  0.21661892D-03  0.17577309D-03  0.13477166D-03  0.67260502D-04
 -0.34401308D-07 -0.26376741D-07 -0.13163842D-07  0.31069895D-04 -0.73143405D-03
 -0.25635488D-03  0.12955237D-07  0.71742203D-04 -0.85132324D-05 -0.94310440D-04
  0.16971793D-03 -0.54025057D-07  0.10309788D-07  0.60411014D-05  0.10246851D-04
  0.11665678D-04  0.26253562D-04  0.42125297D-05  0.71452477D-05  0.81346119D-05
  0.32390783D-04 -0.16791524D-04 -0.28481602D-04 -0.32425298D-04 -0.12359110D-03
  0.82554197D+00  0.15194379D+01  0.24587374D+01  0.32320791D+01  0.27721355D+01
  0.94784020D+00 -0.15741199D-01 -0.70236923D-02  0.20741057D-01 -0.10629224D-02
 -0.81892438D-03 -0.35955191D-03 -0.26579417D-02 -0.20478008D-02 -0.89909484D-03
  0.10658230D-06  0.82115913D-07  0.36053309D-07  0.42022050D-02 -0.32004754D-03
  0.93524688D-05  0.56994044D-08 -0.95830521D-02 -0.96868015D-02 -0.94773984D-02
  0.15913663D-03 -0.15454519D-08  0.86908477D-07 -0.58383257D-05 -0.99029054D-05
 -0.11274108D-04 -0.15773712D-03  0.27501220D-04  0.50616926D-04  0.81907741D-04
  0.10767002D-03  0.92347949D-04  0.31575332D-04 -0.10290128D-03 -0.45914352D-04
  0.13558570D-03 -0.16402636D-03 -0.12637346D-03 -0.55484758D-04 -0.19093474D-03
 -0.14710493D-03 -0.64586986D-04 -0.36633623D-06 -0.28224232D-06 -0.12391958D-06
 -0.30556882D-03  0.17995266D-03  0.15928071D-03  0.13901704D-06  0.15596719D-03
  0.27461563D-05  0.11263372D-03 -0.97756513D-04  0.31616342D-06 -0.90418094D-08
  0.11334665D-05  0.20910243D-05  0.33755616D-05  0.43939783D-05  0.37493896D-05
  0.12945741D-05 -0.51943843D-05 -0.23940870D-05  0.67132698D-05 -0.16857253D-04
 -0.12925073D-04 -0.64505171D-05  0.65492584D-05  0.50215560D-05  0.25061084D-05
  0.78945346D-08  0.60530284D-08  0.30208854D-08 -0.61309726D-04 -0.17005568D-04
 -0.52413896D-05 -0.78004226D-08 -0.29426703D-05  0.47207773D-05 -0.81635308D-06
 -0.56694062D-05 -0.46921907D-08 -0.86766860D-08  0.19310290D-05  0.32753907D-05
  0.37289165D-05  0.21962359D-05 -0.41649200D-06 -0.70644926D-06 -0.80426752D-06
  0.22376019D-05  0.19332376D-05  0.32791369D-05  0.37331815D-05  0.22038136D-05
  0.82399443D-05  0.15201088D-04  0.24539270D-04  0.31942838D-04  0.27256882D-04
  0.94111462D-05 -0.72677148D-04 -0.33496831D-04  0.93928611D-04 -0.28361763D-03
 -0.21746001D-03 -0.10852778D-03  0.50961701D-03  0.39074200D-03  0.19500764D-03
 -0.12541805D-07 -0.96162603D-08 -0.47991878D-08 -0.32482470D-03  0.43906845D-04
 -0.12106243D-03 -0.24944635D-09  0.18751566D-03  0.37924245D-03  0.29445668D-04
 -0.48374559D-03  0.74133031D-07 -0.23888197D-08  0.27521408D-04  0.46681517D-04
  0.53145257D-04  0.28654666D-04  0.13497691D-04  0.22894639D-04  0.26064738D-04
  0.11011339D-04  0.13488034D-04  0.22878259D-04  0.26046089D-04  0.11011182D-04
MO    2     MO 0.0        OCC NO =    1.0000000  ORB. ENERGY =  -19.388758
 -0.36742024D-04 -0.67781859D-04 -0.10942094D-03 -0.14243355D-03 -0.12153881D-03
 -0.41964429D-04 -0.27709600D-04 -0.12771329D-04  0.35812141D-04  0.21477104D-03
  0.16467281D-03  0.82183273D-04  0.53472355D-03  0.40999210D-03  0.20461479D-03
 -0.22369926D-06 -0.17151841D-06 -0.85599706D-07  0.24118410D-03 -0.28929662D-03
 -0.88236514D-03  0.14520655D-06 -0.83780106D-04 -0.41688760D-04 -0.13896245D-03
 -0.11728547D-03  0.49660604D-07 -0.17073837D-08  0.77752636D-05  0.14343843D-04
  0.23155410D-04  0.30141464D-04  0.25719766D-04  0.88804171D-05 -0.69141422D-04
 -0.31867218D-04  0.89359007D-04 -0.13227019D-04 -0.10141639D-04 -0.50613886D-05
 -0.11022365D-04 -0.84512501D-05 -0.42177661D-05  0.20872700D-07  0.16003862D-07
  0.79870490D-08 -0.41940467D-03 -0.14111785D-03  0.33028053D-03 -0.21046784D-07
 -0.90944338D-04 -0.58415981D-04  0.32526127D-04  0.26251693D-04 -0.74524245D-07
  0.49538347D-07 -0.12482646D-05 -0.23028045D-05 -0.37174405D-05 -0.48390030D-05
 -0.41291300D-05 -0.14256894D-05  0.17271262D-04  0.79603088D-05 -0.22321537D-04
  0.63424260D-04  0.48629700D-04  0.24269629D-04  0.60292729D-04  0.46228640D-04
  0.23071331D-04  0.21437187D-07  0.16436675D-07  0.82030528D-08  0.39565237D-03
  0.11500953D-03  0.22466304D-04  0.11342398D-07  0.15372175D-04  0.47818932D-04
  0.14097233D-04  0.64963695D-07  0.14614648D-07  0.36527279D-07  0.98337448D-05
  0.18141339D-04  0.29285746D-04  0.38121340D-04  0.32529008D-04  0.11231485D-04
 -0.41065102D-04 -0.18926868D-04  0.53072914D-04 -0.24517674D-04 -0.18798597D-04
 -0.93818175D-05  0.27984359D-04  0.21456631D-04  0.10708363D-04  0.20500322D-07
  0.15718347D-07  0.78445567D-08 -0.35296334D-03 -0.85085672D-04 -0.13966065D-03
 -0.11523822D-07 -0.29992965D-04  0.11773274D-04  0.40364797D-04  0.31093037D-04
  0.67313026D-08 -0.20877608D-07 -0.54834818D-05 -0.10115953D-04 -0.16330285D-04
 -0.21257179D-04 -0.18138789D-04 -0.62628880D-05  0.29530568D-04  0.13610612D-04
 -0.38165577D-04  0.55331312D-04  0.42424540D-04  0.21172819D-04  0.95348376D-04
  0.73107087D-04  0.36485560D-04  0.28666773D-07  0.21979863D-07  0.10969492D-07
  0.52607367D-03 -0.15109273D-03  0.23880951D-03 -0.79450837D-08  0.21453320D-05
  0.43836776D-04 -0.60115528D-05  0.18575679D-04  0.30745235D-07 -0.80294877D-08
  0.27484980D-04  0.50704422D-04  0.81852658D-04  0.10654784D-03  0.90917465D-04
  0.31391616D-04 -0.12628413D-03 -0.58204241D-04  0.16321077D-03  0.16675678D-04
  0.12785852D-04  0.63810364D-05 -0.59308462D-04 -0.45473967D-04 -0.22694697D-04
 -0.44884605D-07 -0.34414668D-07 -0.17175331D-07 -0.73633882D-03  0.62247447D-03
  0.27876704D-04 -0.59176670D-07  0.71224804D-04 -0.79144397D-04  0.82480326D-04
  0.69723406D-04  0.72851464D-07 -0.46933280D-07 -0.11948254D-04 -0.20266500D-04
 -0.23072694D-04 -0.14815615D-03 -0.58549869D-05 -0.99311659D-05 -0.11306281D-04
 -0.43119440D-04  0.11709814D-04  0.19862061D-04  0.22612255D-04  0.89945555D-04
  0.42381440D-04  0.78004474D-04  0.12622596D-03  0.16592756D-03  0.14231511D-03
  0.48659951D-04 -0.16194292D-03 -0.72258617D-04  0.21338066D-03 -0.15407018D-03
 -0.11870276D-03 -0.52116907D-04 -0.95885969D-04 -0.73874970D-04 -0.32435091D-04
 -0.34153411D-06 -0.26313362D-06 -0.11552983D-06 -0.48161555D-03  0.19016753D-03
  0.82391912D-04  0.12397069D-06  0.76537089D-04  0.18189984D-03  0.16323584D-03
 -0.45293854D-04 -0.66017684D-07  0.66456663D-07  0.88057130D-04  0.14936156D-03
  0.17004285D-03 -0.21087200D-03  0.82558214D+00  0.15195119D+01  0.24588570D+01
  0.32322364D+01  0.27722703D+01  0.94788631D+00 -0.15789067D-01 -0.70450508D-02
  0.20804129D-01  0.16903312D-02  0.13023091D-02  0.57178384D-03 -0.28885222D-02
 -0.22254506D-02 -0.97709270D-03  0.37470833D-05  0.28869257D-05  0.12675159D-05
  0.40856551D-02 -0.24696639D-03 -0.31949583D-03  0.80199827D-07 -0.93753899D-02
 -0.93501568D-02 -0.93076908D-02  0.17999004D-03 -0.22674832D-06  0.68831614D-07
  0.55100954D-05  0.10165050D-04  0.16409543D-04  0.21360349D-04  0.18226824D-04
  0.62932844D-05 -0.18944568D-04 -0.87315341D-05  0.24484133D-04  0.59719580D-06
  0.45789186D-06  0.22852013D-06  0.15237265D-05  0.11682969D-05  0.58306201D-06
 -0.60445778D-08 -0.46345989D-08 -0.23129897D-08 -0.24290762D-04 -0.93822601D-05
 -0.24314921D-05 -0.58422392D-09 -0.37658532D-05  0.20753818D-04  0.21015056D-04
 -0.24836814D-06 -0.52355787D-08  0.86375317D-08  0.19773373D-05  0.33539382D-05
  0.38183401D-05  0.41796175D-05  0.25162480D-05  0.42680329D-05  0.48590046D-05
  0.74678954D-06  0.19729265D-05  0.33464568D-05  0.38098228D-05  0.41878959D-05
  0.10634685D-04  0.19618917D-04  0.31671015D-04  0.41226251D-04  0.35178435D-04
  0.12146268D-04 -0.32855189D-04 -0.15142927D-04  0.42462347D-04 -0.60413805D-04
 -0.46321474D-04 -0.23117662D-04  0.29755136D-04  0.22814351D-04  0.11385960D-04
 -0.44430830D-09 -0.34066742D-09 -0.17001692D-09 -0.51320424D-04  0.30323683D-04
 -0.13968825D-04 -0.27809456D-07  0.35237885D-04  0.17563666D-04  0.42239087D-04
 -0.68479654D-06  0.33923261D-07 -0.42002479D-07 -0.67049465D-06 -0.11372858D-05
 -0.12947597D-05 -0.73517181D-05  0.48908836D-05  0.82958642D-05  0.94445482D-05
 -0.59019328D-05  0.48880936D-05  0.82911319D-05  0.94391606D-05 -0.59418947D-05
MO    3     MO 0.0        OCC NO =    1.0000000  ORB. ENERGY =  -10.471165
  0.44837602D-01  0.82716621D-01  0.13353027D+00  0.17381674D+00  0.14831814D+00
  0.51210689D-01 -0.13730956D-02 -0.63285853D-03  0.17746014D-02 -0.16004385D-03
 -0.12271148D-03 -0.61241627D-04  0.33970901D-03  0.26046732D-03  0.12999145D-03
  0.19251046D-07  0.14760481D-07  0.73665145D-08  0.17586027D-02 -0.30940430D-03
 -0.10231848D-02  0.17849119D-07 -0.14315932D-02 -0.12481712D-02 -0.12065290D-02
  0.31449291D-03  0.72643429D-07  0.13693099D-07  0.13670643D-03  0.25219667D-03
  0.40712362D-03  0.52995398D-03  0.45221069D-03  0.15613749D-03 -0.19873796D-04
 -0.91598144D-05  0.25685076D-04 -0.14920195D-03 -0.11439859D-03 -0.57092914D-04
  0.64312616D-04  0.49310834D-04  0.24609562D-04  0.15321100D-07  0.11747247D-07
  0.58626998D-08 -0.11234704D-02 -0.22247482D-03  0.47979905D-03  0.39159039D-07
  0.11512447D-03 -0.31275181D-04 -0.18855960D-04 -0.13961759D-04 -0.29951198D-07
 -0.13627965D-07 -0.63209735D-04 -0.11660962D-03 -0.18824408D-03 -0.24503786D-03
 -0.20909125D-03 -0.72194185D-04  0.13910224D-03  0.64112096D-04 -0.17977701D-03
 -0.13887325D-03 -0.10647920D-03 -0.53140584D-04 -0.41478482D-04 -0.31803069D-04
 -0.15871960D-04  0.24191027D-07  0.18548145D-07  0.92568242D-08  0.10332409D-02
  0.64116803D-03  0.59764025D-04 -0.70238932D-08 -0.27246509D-04  0.65190388D-04
 -0.13423365D-03 -0.18686255D-04 -0.18062873D-08  0.13853696D-07  0.31445149D-04
  0.58010159D-04  0.93646384D-04  0.12189977D-03  0.10401729D-03  0.35914671D-04
 -0.93425404D-04 -0.43059683D-04  0.12074385D-03 -0.17484930D-03 -0.13406335D-03
 -0.66907008D-04 -0.35230942D-04 -0.27012852D-04 -0.13481306D-04  0.14183151D-07
  0.10874741D-07  0.54272577D-08 -0.14333540D-02 -0.36637681D-03 -0.52953185D-03
 -0.19447179D-07  0.27598565D-04  0.35582922D-04  0.57274306D-04  0.63616826D-04
  0.12591160D-08 -0.55634927D-07  0.16871378D-02  0.31124399D-02  0.50244430D-02
  0.65403319D-02  0.55808771D-02  0.19269427D-02  0.30519057D-03  0.14066206D-03
 -0.39443109D-03  0.41770767D-04  0.32027175D-04  0.15983805D-04 -0.32286177D-03
 -0.24754993D-03 -0.12354476D-03  0.42995774D-07  0.32966433D-07  0.16452560D-07
  0.25649674D-02 -0.51642717D-03  0.10755547D-02 -0.39134177D-07 -0.33139492D-03
 -0.29423839D-03 -0.35645602D-03 -0.21585615D-03  0.39754204D-07  0.19304114D-07
  0.53060605D+00  0.97886456D+00  0.15801909D+01  0.20569390D+01  0.17551898D+01
  0.60602486D+00 -0.19895147D-01 -0.91696551D-02  0.25712670D-01  0.89426225D-03
  0.68566357D-03  0.34219418D-03  0.38190338D-03  0.29281929D-03  0.14613735D-03
  0.87117181D-07  0.66795929D-07  0.33335850D-07 -0.36408456D-02  0.17044525D-02
  0.32525704D-03 -0.80807782D-07 -0.96098681D-02 -0.10239605D-01 -0.10468475D-01
  0.28349923D-03  0.19344223D-06 -0.78710877D-07 -0.22236486D-04 -0.37717289D-04
 -0.42939800D-04 -0.10767533D-03 -0.21469113D-04 -0.36415679D-04 -0.41457963D-04
 -0.13820527D-03  0.43726284D-04  0.74168053D-04  0.84437707D-04  0.32813922D-03
  0.11574496D-03  0.21303252D-03  0.34472683D-03  0.45315307D-03  0.38866675D-03
  0.13289176D-03 -0.66013123D-03 -0.29454927D-03  0.86980794D-03 -0.22592773D-03
 -0.17406514D-03 -0.76423970D-04  0.40267352D-04  0.31023824D-04  0.13621130D-04
 -0.13933079D-06 -0.10734686D-06 -0.47131054D-07 -0.15896714D-02  0.83731689D-03
  0.10223329D-03  0.10135566D-06 -0.42183902D-03  0.70421011D-03  0.90523272D-03
 -0.35677051D-03 -0.17818127D-06 -0.59874184D-07  0.46812800D-06  0.79403369D-06
  0.90397930D-06  0.32741994D-04 -0.69725217D-04 -0.12833162D-03 -0.20766479D-03
 -0.27298117D-03 -0.23413437D-03 -0.80054516D-04  0.23574128D-03  0.10518730D-03
 -0.31061951D-03  0.12196520D-03  0.93967613D-04  0.41256844D-04  0.65814334D-04
  0.50706396D-04  0.22262839D-04  0.35493494D-08  0.27345824D-08  0.12006290D-08
  0.69789727D-03 -0.13342389D-03 -0.11063656D-03  0.34022017D-07 -0.24734324D-03
 -0.20929157D-03 -0.23637686D-03 -0.11864470D-04 -0.97701296D-07 -0.40983311D-07
 -0.36879709D-05 -0.68035862D-05 -0.10983098D-04 -0.14296730D-04 -0.12199425D-04
 -0.42121685D-05  0.22140583D-04  0.10204575D-04 -0.28614692D-04  0.81649805D-04
  0.62603892D-04  0.31243730D-04 -0.78282192D-05 -0.60021819D-05 -0.29955094D-05
 -0.12234484D-07 -0.93806264D-08 -0.46815900D-08  0.29007459D-03  0.84485088D-04
  0.74098961D-05  0.12517504D-07  0.13838186D-04 -0.33899465D-05  0.26957886D-06
  0.98705715D-05  0.47543753D-08  0.13366069D-07 -0.65524790D-05 -0.11114244D-04
 -0.12653175D-04 -0.59269224D-05 -0.26084590D-05 -0.44244401D-05 -0.50370687D-05
 -0.12439071D-04 -0.65564492D-05 -0.11120979D-04 -0.12660841D-04 -0.59374695D-05
 -0.14159185D-04 -0.26120931D-04 -0.42167283D-04 -0.54889273D-04 -0.46837116D-04
 -0.16171731D-04  0.36264314D-04  0.16714189D-04 -0.46868330D-04 -0.21419817D-04
 -0.16423357D-04 -0.81964064D-05  0.15008693D-04  0.11507714D-04  0.57431557D-05
  0.17090553D-08  0.13103952D-08  0.65397904D-09 -0.31553077D-04 -0.62763439D-04
 -0.61405326D-04 -0.18885645D-07  0.14480203D-03 -0.81959399D-04  0.55231908D-04
 -0.15136110D-03  0.93694817D-07  0.34006420D-07  0.17430119D-04  0.29564781D-04
  0.33658458D-04  0.29915176D-04 -0.14488594D-04 -0.24575398D-04 -0.27978222D-04
 -0.18874206D-04 -0.14494742D-04 -0.24585826D-04 -0.27990094D-04 -0.18937027D-04
MO    4     MO 0.0        OCC NO =    1.0000000  ORB. ENERGY =  -10.468202
  0.53065159D+00  0.97894857D+00  0.15803265D+01  0.20571156D+01  0.17553404D+01
  0.60607687D+00 -0.19958109D-01 -0.91986744D-02  0.25794043D-01  0.73128543D-03
  0.56070328D-03  0.27983023D-03  0.49897686D-03  0.38258380D-03  0.19093613D-03
 -0.30623062D-06 -0.23479822D-06 -0.11718077D-06 -0.42016694D-02  0.82965280D-03
  0.19222953D-02 -0.35280120D-07 -0.10023773D-01 -0.96303799D-02 -0.10371207D-01
  0.50780258D-03 -0.11506698D-06 -0.32386643D-06  0.15057370D-02  0.27777907D-02
  0.44842156D-02  0.58371163D-02  0.49808219D-02  0.17197581D-02  0.32590557D-03
  0.15020958D-03 -0.42120334D-03 -0.28645202D-03 -0.21963324D-03 -0.10961238D-03
  0.11781444D-03  0.90332641D-04  0.45082319D-04  0.37142775D-07  0.28478724D-07
  0.14212879D-07  0.27570015D-02  0.72689391D-03 -0.10972547D-02 -0.11048557D-06
 -0.33414189D-03 -0.27567258D-03 -0.36639935D-03 -0.22447439D-03  0.26611244D-07
  0.46971679D-07  0.44202570D-04  0.81545110D-04  0.13163909D-03  0.17135498D-03
  0.14621752D-03  0.50485395D-04 -0.12547633D-03 -0.57831925D-04  0.16216676D-03
 -0.79803531D-04 -0.61188286D-04 -0.30537243D-04 -0.76840697D-04 -0.58916572D-04
 -0.29403499D-04 -0.12241298D-08 -0.93858512D-09 -0.46841975D-09 -0.16465667D-02
 -0.66717906D-03 -0.28736907D-03 -0.13755855D-07  0.19964826D-04  0.78801400D-05
  0.76744639D-04 -0.10454682D-04 -0.33810450D-07  0.48625863D-08 -0.65370256D-04
 -0.12059536D-03 -0.19467830D-03 -0.25341330D-03 -0.21623803D-03 -0.74661795D-04
  0.13523015D-03  0.62327453D-04 -0.17477268D-03 -0.18671409D-04 -0.14316052D-04
 -0.71447134D-05 -0.60427408D-04 -0.46331904D-04 -0.23122867D-04  0.70982626D-09
  0.54424976D-09  0.27161877D-09  0.11701672D-02  0.36609702D-03  0.51080207D-03
  0.15356889D-07  0.67246542D-05 -0.29286713D-04 -0.12899586D-03 -0.42046363D-04
 -0.17216060D-07  0.36851005D-07 -0.13188436D-03 -0.24330089D-03 -0.39276307D-03
 -0.51126082D-03 -0.43625979D-03 -0.15063002D-03 -0.85286901D-04 -0.39308655D-04
  0.11022557D-03 -0.25816418D-04 -0.19794391D-04 -0.98787886D-05 -0.11880807D-03
 -0.91094493D-04 -0.45462536D-04 -0.14549338D-07 -0.11155509D-07 -0.55673810D-08
 -0.16322119D-02  0.43122134D-03 -0.66196044D-03  0.26695991D-07  0.90427851D-04
  0.10165659D-03  0.53707457D-04  0.95715802D-04 -0.51533520D-07  0.23604979D-07
 -0.45140600D-01 -0.83275594D-01 -0.13443263D+00 -0.17499134D+00 -0.14932043D+00
 -0.51556755D-01  0.20488857D-02  0.94432957D-03 -0.26479987D-02  0.18471835D-03
  0.14163032D-03  0.70683454D-04 -0.35712582D-03 -0.27382142D-03 -0.13665608D-03
 -0.17468852D-07 -0.13394008D-07 -0.66845486D-08  0.29099511D-02 -0.15323985D-02
  0.16392030D-03  0.73286643D-07  0.44662873D-03  0.24790277D-03  0.53432795D-03
 -0.30452209D-04 -0.71254409D-07 -0.68617474D-09  0.50436558D-04  0.85549948D-04
  0.97395592D-04  0.36891478D-03  0.29078977D-04  0.49323450D-04  0.56153004D-04
  0.17702921D-03 -0.23077259D-04 -0.39143399D-04 -0.44563376D-04 -0.22368576D-03
 -0.74830011D-04 -0.13772717D-03 -0.22286855D-03 -0.29296695D-03 -0.25127605D-03
 -0.85915549D-04  0.31364677D-03  0.13994858D-03 -0.41327002D-03  0.88458146D-04
  0.68152232D-04  0.29922501D-04 -0.17511688D-04 -0.13491812D-04 -0.59236320D-05
  0.98629131D-07  0.75988429D-07  0.33363013D-07  0.86784910D-03 -0.29225100D-03
 -0.54470224D-04 -0.63932711D-07 -0.78219746D-04 -0.29731016D-03 -0.33942410D-03
  0.53162195D-04  0.70267757D-07  0.57328402D-07  0.44071506D-04  0.74753616D-04
  0.85104350D-04 -0.34608265D-04  0.14570200D-03  0.26816947D-03  0.43394882D-03
  0.57043786D-03  0.48926124D-03  0.16728673D-03 -0.76302013D-03 -0.34045809D-03
  0.10053773D-02 -0.61892048D-04 -0.47684487D-04 -0.20936058D-04  0.11906455D-05
  0.91732819D-06  0.40275648D-06  0.18320931D-06  0.14115290D-06  0.61973725D-07
 -0.19156012D-02  0.38361606D-03  0.71320967D-03 -0.25285669D-06  0.59042583D-03
 -0.38957286D-04  0.10545441D-02 -0.95082004D-03 -0.44204882D-07  0.53959516D-06
 -0.19920291D-04 -0.36749047D-04 -0.59324357D-04 -0.77222686D-04 -0.65894257D-04
 -0.22751704D-04  0.52370352D-04  0.24137447D-04 -0.67683922D-04 -0.42534062D-04
 -0.32612421D-04 -0.16275884D-04 -0.13406190D-04 -0.10279016D-04 -0.51299494D-05
 -0.25024457D-08 -0.19187166D-08 -0.95757406D-09 -0.72621962D-04 -0.13052340D-04
  0.73440788D-04  0.14524577D-08 -0.14642993D-05 -0.76658478D-04 -0.38240722D-04
  0.11291932D-03  0.40114523D-08  0.27811686D-07 -0.89535842D-05 -0.15186973D-04
 -0.17289832D-04 -0.18469391D-04  0.29348702D-05  0.49780953D-05  0.56673856D-05
  0.30218771D-04 -0.89570893D-05 -0.15192919D-04 -0.17296601D-04 -0.18472621D-04
 -0.24755687D-04 -0.45669409D-04 -0.73724586D-04 -0.95967506D-04 -0.81889247D-04
 -0.28274389D-04  0.59674629D-04  0.27503982D-04 -0.77124036D-04  0.68290713D-04