 Entering Link 1 = D:\Gaussian\G16W\l1.exe PID=     41652.
  
 Copyright (c) 1988,1990,1992,1993,1995,1998,2003,2009,2016,
            Gaussian, Inc.  All Rights Reserved.
  
 This is part of the Gaussian(R) 16 program.  It is based on
 the Gaussian(R) 09 system (copyright 2009, Gaussian, Inc.),
 the Gaussian(R) 03 system (copyright 2003, Gaussian, Inc.),
 the Gaussian(R) 98 system (copyright 1998, Gaussian, Inc.),
 the Gaussian(R) 94 system (copyright 1995, Gaussian, Inc.),
 the Gaussian 92(TM) system (copyright 1992, Gaussian, Inc.),
 the Gaussian 90(TM) system (copyright 1990, Gaussian, Inc.),
 the Gaussian 88(TM) system (copyright 1988, Gaussian, Inc.),
 the Gaussian 86(TM) system (copyright 1986, Carnegie Mellon
 University), and the Gaussian 82(TM) system (copyright 1983,
 Carnegie Mellon University). Gaussian is a federally registered
 trademark of Gaussian, Inc.
  
 This software contains proprietary and confidential information,
 including trade secrets, belonging to Gaussian, Inc.
  
 This software is provided under written license and may be
 used, copied, transmitted, or stored only in accord with that
 written license.
  
 The following legend is applicable only to US Government
 contracts under FAR:
  
                    RESTRICTED RIGHTS LEGEND
  
 Use, reproduction and disclosure by the US Government is
 subject to restrictions as set forth in subparagraphs (a)
 and (c) of the Commercial Computer Software - Restricted
 Rights clause in FAR 52.227-19.
  
 Gaussian, Inc.
 340 Quinnipiac St., Bldg. 40, Wallingford CT 06492
  
  
 ---------------------------------------------------------------
 Warning -- This program may not be used in any manner that
 competes with the business of Gaussian, Inc. or will provide
 assistance to any competitor of Gaussian, Inc.  The licensee
 of this program is prohibited from giving any competitor of
 Gaussian, Inc. access to this program.  By using this program,
 the user acknowledges that Gaussian, Inc. is engaged in the
 business of creating and licensing software in the field of
 computational chemistry and represents and warrants to the
 licensee that it is not a competitor of Gaussian, Inc. and that
 it will not use this program in any manner prohibited above.
 ---------------------------------------------------------------
  

 Cite this work as:
 Gaussian 16, Revision A.03,
 M. J. Frisch, G. W. Trucks, H. B. Schlegel, G. E. Scuseria, 
 M. A. Robb, J. R. Cheeseman, G. Scalmani, V. Barone, 
 G. A. Petersson, H. Nakatsuji, X. Li, M. Caricato, A. V. Marenich, 
 J. Bloino, B. G. Janesko, R. Gomperts, B. Mennucci, H. P. Hratchian, 
 J. V. Ortiz, A. F. Izmaylov, J. L. Sonnenberg, D. Williams-Young, 
 F. Ding, F. Lipparini, F. Egidi, J. Goings, B. Peng, A. Petrone, 
 T. Henderson, D. Ranasinghe, V. G. Zakrzewski, J. Gao, N. Rega, 
 G. Zheng, W. Liang, M. Hada, M. Ehara, K. Toyota, R. Fukuda, 
 J. Hasegawa, M. Ishida, T. Nakajima, Y. Honda, O. Kitao, H. Nakai, 
 T. Vreven, K. Throssell, J. A. Montgomery, Jr., J. E. Peralta, 
 F. Ogliaro, M. J. Bearpark, J. J. Heyd, E. N. Brothers, K. N. Kudin, 
 V. N. Staroverov, T. A. Keith, R. Kobayashi, J. Normand, 
 K. Raghavachari, A. P. Rendell, J. C. Burant, S. S. Iyengar, 
 J. Tomasi, M. Cossi, J. M. Millam, M. Klene, C. Adamo, R. Cammi, 
 J. W. Ochterski, R. L. Martin, K. Morokuma, O. Farkas, 
 J. B. Foresman, and D. J. Fox, Gaussian, Inc., Wallingford CT, 2016.
 
 ******************************************
 Gaussian 16:  EM64W-G16RevA.03 17-Dec-2016
                08-Dec-2025 
 ******************************************
 %nprocshared=14
 Will use up to   14 processors via shared memory.
 %nprocs=   4
 Will use up to    4 processors via shared memory.
 --------------------------------------
 #p b3lyp/6-31g(d) out=wfn scf=conver=7
 --------------------------------------
 1/38=1,172=1/1;
 2/12=2,17=6,18=5,40=1/2;
 3/5=1,6=6,7=1,11=2,25=1,30=1,74=-5/1,2,3;
 4//1;
 5/5=2,6=7,38=5/2;
 6/7=2,8=2,9=2,10=2,28=1/1;
 99/5=1,6=100,9=1/99;
 Leave Link    1 at Mon Dec 08 16:47:06 2025, MaxMem=           0 cpu:               1.0 elap:               0.2
 (Enter D:\Gaussian\G16W\l101.exe)
 ----------------------------------------------------
 Generated by Multiwfn (http://sobereva.com/multiwfn)
 ----------------------------------------------------
 Symbolic Z-matrix:
 Charge =  1 Multiplicity = 2
 C                     0.10044   1.07755   0. 
 C                    -1.28248   0.99604   0.00009 
 C                    -1.93329  -0.24649   0.00002 
 C                    -1.15803  -1.40251  -0.00003 
 C                     0.24079  -1.33651  -0.00002 
 C                     0.87112  -0.10162  -0.00006 
 H                    -1.84709   1.92205   0.0002 
 H                    -1.63882  -2.3744   -0.00005 
 H                     0.81913  -2.25133   0.00006 
 O                     2.22859   0.12362  -0.00001 
 H                     1.66762   2.1281    0.00121 
 O                     0.71528   2.29268  -0.0002 
 C                    -3.44206  -0.31078   0.00001 
 H                    -3.8619    0.18498  -0.88098 
 H                    -3.79368  -1.34443   0.00014 
 H                    -3.86196   0.18523   0.88082 
 C                     3.09663  -1.00037   0.00003 
 H                     4.10946  -0.60066  -0.00033 
 H                     2.94898  -1.61573   0.89423 
 H                     2.9486   -1.61609  -0.89385 
 
 ITRead=  0  0  0  0  0  0  0  0  0  0  0  0  0  0  0  0  0  0  0  0
 MicOpt= -1 -1 -1 -1 -1 -1 -1 -1 -1 -1 -1 -1 -1 -1 -1 -1 -1 -1 -1 -1
 NAtoms=     20 NQM=       20 NQMF=       0 NMMI=      0 NMMIF=      0
                NMic=       0 NMicF=      0.
                    Isotopes and Nuclear Properties:
 (Nuclear quadrupole moments (NQMom) in fm**2, nuclear magnetic moments (NMagM)
  in nuclear magnetons)

  Atom         1           2           3           4           5           6           7           8           9          10
 IAtWgt=          12          12          12          12          12          12           1           1           1          16
 AtmWgt=  12.0000000  12.0000000  12.0000000  12.0000000  12.0000000  12.0000000   1.0078250   1.0078250   1.0078250  15.9949146
 NucSpn=           0           0           0           0           0           0           1           1           1           0
 AtZEff=   0.0000000   0.0000000   0.0000000   0.0000000   0.0000000   0.0000000   0.0000000   0.0000000   0.0000000   0.0000000
 NQMom=    0.0000000   0.0000000   0.0000000   0.0000000   0.0000000   0.0000000   0.0000000   0.0000000   0.0000000   0.0000000
 NMagM=    0.0000000   0.0000000   0.0000000   0.0000000   0.0000000   0.0000000   2.7928460   2.7928460   2.7928460   0.0000000
 AtZNuc=   6.0000000   6.0000000   6.0000000   6.0000000   6.0000000   6.0000000   1.0000000   1.0000000   1.0000000   8.0000000

  Atom        11          12          13          14          15          16          17          18          19          20
 IAtWgt=           1          16          12           1           1           1          12           1           1           1
 AtmWgt=   1.0078250  15.9949146  12.0000000   1.0078250   1.0078250   1.0078250  12.0000000   1.0078250   1.0078250   1.0078250
 NucSpn=           1           0           0           1           1           1           0           1           1           1
 AtZEff=   0.0000000   0.0000000   0.0000000   0.0000000   0.0000000   0.0000000   0.0000000   0.0000000   0.0000000   0.0000000
 NQMom=    0.0000000   0.0000000   0.0000000   0.0000000   0.0000000   0.0000000   0.0000000   0.0000000   0.0000000   0.0000000
 NMagM=    2.7928460   0.0000000   0.0000000   2.7928460   2.7928460   2.7928460   0.0000000   2.7928460   2.7928460   2.7928460
 AtZNuc=   1.0000000   8.0000000   6.0000000   1.0000000   1.0000000   1.0000000   6.0000000   1.0000000   1.0000000   1.0000000
 Leave Link  101 at Mon Dec 08 16:47:06 2025, MaxMem=   104857600 cpu:               0.0 elap:               0.1
 (Enter D:\Gaussian\G16W\l202.exe)
                          Input orientation:                          
 ---------------------------------------------------------------------
 Center     Atomic      Atomic             Coordinates (Angstroms)
 Number     Number       Type             X           Y           Z
 ---------------------------------------------------------------------
      1          6           0        0.100437    1.077550    0.000002
      2          6           0       -1.282481    0.996042    0.000089
      3          6           0       -1.933285   -0.246486    0.000022
      4          6           0       -1.158034   -1.402512   -0.000032
      5          6           0        0.240792   -1.336507   -0.000020
      6          6           0        0.871119   -0.101622   -0.000064
      7          1           0       -1.847092    1.922051    0.000205
      8          1           0       -1.638820   -2.374396   -0.000046
      9          1           0        0.819127   -2.251332    0.000059
     10          8           0        2.228592    0.123623   -0.000011
     11          1           0        1.667620    2.128102    0.001213
     12          8           0        0.715279    2.292681   -0.000198
     13          6           0       -3.442064   -0.310785    0.000006
     14          1           0       -3.861903    0.184975   -0.880979
     15          1           0       -3.793678   -1.344427    0.000142
     16          1           0       -3.861957    0.185228    0.880822
     17          6           0        3.096632   -1.000373    0.000032
     18          1           0        4.109464   -0.600659   -0.000325
     19          1           0        2.948983   -1.615729    0.894235
     20          1           0        2.948597   -1.616094   -0.893852
 ---------------------------------------------------------------------
                    Distance matrix (angstroms):
                    1          2          3          4          5
     1  C    0.000000
     2  C    1.385318   0.000000
     3  C    2.426746   1.402648   0.000000
     4  C    2.781089   2.401780   1.391909   0.000000
     5  C    2.418134   2.785883   2.432027   1.400382   0.000000
     6  C    1.408686   2.417201   2.808143   2.410348   1.386453
     7  H    2.122746   1.084564   2.170249   3.395220   3.870072
     8  H    3.865352   3.389223   2.148188   1.084303   2.147127
     9  H    3.405579   3.868100   3.405169   2.151665   1.082301
    10  O    2.332171   3.617838   4.178301   3.714609   2.466440
    11  H    1.886723   3.159851   4.313373   4.522119   3.746913
    12  O    1.361827   2.381663   3.669095   4.142916   3.660074
    13  C    3.804837   2.524202   1.510148   2.531533   3.823027
    14  H    4.156075   2.843858   2.163767   3.256853   4.463530
    15  H    4.585859   3.432769   2.160217   2.636284   4.034478
    16  H    4.156038   2.843731   2.163784   3.256996   4.463643
    17  C    3.646224   4.812723   5.086100   4.273628   2.875554
    18  H    4.346111   5.623391   6.053119   5.328180   3.938032
    19  H    4.020898   5.052339   5.148882   4.208653   2.865651
    20  H    4.020785   5.052168   5.148554   4.208200   2.865190
                    6          7          8          9         10
     6  C    0.000000
     7  H    3.388794   0.000000
     8  H    3.386044   4.301492   0.000000
     9  H    2.150339   4.952358   2.461026   0.000000
    10  O    1.376034   4.454834   4.604017   2.761703   0.000000
    11  H    2.367717   3.520747   5.586147   4.460873   2.081496
    12  O    2.399369   2.589037   5.227178   4.545200   2.644793
    13  C    4.318252   2.743992   2.740471   4.682251   5.687271
    14  H    4.822826   2.802389   3.502645   5.350127   6.154185
    15  H    4.827514   3.802509   2.388357   4.701111   6.198621
    16  H    4.822888   2.802092   3.502848   5.350244   6.154222
    17  C    2.400138   5.742906   4.930765   2.598447   1.420162
    18  H    3.276571   6.468742   6.015722   3.681174   2.015506
    19  H    2.722097   6.026401   4.735319   2.395794   2.084223
    20  H    2.721837   6.026312   4.734797   2.395255   2.084220
                   11         12         13         14         15
    11  H    0.000000
    12  O    0.966458   0.000000
    13  C    5.661894   4.905256   0.000000
    14  H    5.927025   5.115544   1.094613   0.000000
    15  H    6.471803   5.793034   1.091810   1.766380   0.000000
    16  H    5.926609   5.115530   1.094612   1.761801   1.766382
    17  C    3.439394   4.063871   6.574958   7.113539   6.898894
    18  H    3.661795   4.460035   7.557090   8.058254   7.938063
    19  H    4.056556   4.589675   6.583920   7.265128   6.807091
    20  H    4.057222   4.589646   6.583568   7.044638   6.806710
                   16         17         18         19         20
    16  H    0.000000
    17  C    7.113607   0.000000
    18  H    8.058386   1.088853   0.000000
    19  H    7.045036   1.095474   1.782504   0.000000
    20  H    7.264838   1.095470   1.782445   1.788087   0.000000
 Stoichiometry    C8H10O2(1+,2)
 Framework group  C1[X(C8H10O2)]
 Deg. of freedom    54
 Full point group                 C1      NOp   1
 Largest Abelian subgroup         C1      NOp   1
 Largest concise Abelian subgroup C1      NOp   1
                         Standard orientation:                         
 ---------------------------------------------------------------------
 Center     Atomic      Atomic             Coordinates (Angstroms)
 Number     Number       Type             X           Y           Z
 ---------------------------------------------------------------------
      1          6           0        0.100437    1.077550    0.000002
      2          6           0       -1.282481    0.996042    0.000089
      3          6           0       -1.933285   -0.246486    0.000022
      4          6           0       -1.158034   -1.402512   -0.000032
      5          6           0        0.240792   -1.336507   -0.000020
      6          6           0        0.871119   -0.101622   -0.000064
      7          1           0       -1.847092    1.922051    0.000205
      8          1           0       -1.638820   -2.374396   -0.000046
      9          1           0        0.819127   -2.251332    0.000059
     10          8           0        2.228592    0.123623   -0.000011
     11          1           0        1.667620    2.128102    0.001213
     12          8           0        0.715279    2.292681   -0.000198
     13          6           0       -3.442064   -0.310785    0.000006
     14          1           0       -3.861903    0.184975   -0.880979
     15          1           0       -3.793678   -1.344427    0.000142
     16          1           0       -3.861957    0.185228    0.880822
     17          6           0        3.096632   -1.000373    0.000032
     18          1           0        4.109464   -0.600659   -0.000325
     19          1           0        2.948983   -1.615729    0.894235
     20          1           0        2.948597   -1.616094   -0.893852
 ---------------------------------------------------------------------
 Rotational constants (GHZ):           2.5438199           0.9581482           0.7021369
 Leave Link  202 at Mon Dec 08 16:47:06 2025, MaxMem=   104857600 cpu:               0.0 elap:               0.0
 (Enter D:\Gaussian\G16W\l301.exe)
 Standard basis: 6-31G(d) (6D, 7F)
 Ernie: Thresh=  0.10000D-02 Tol=  0.10000D-05 Strict=F.
 There are   170 symmetry adapted cartesian basis functions of A   symmetry.
 There are   170 symmetry adapted basis functions of A   symmetry.
   170 basis functions,   320 primitive gaussians,   170 cartesian basis functions
    37 alpha electrons       36 beta electrons
       nuclear repulsion energy       516.1951938693 Hartrees.
 IExCor=  402 DFT=T Ex+Corr=B3LYP ExCW=0 ScaHFX=  0.200000
 ScaDFX=  0.800000  0.720000  1.000000  0.810000 ScalE2=  1.000000  1.000000
 IRadAn=      5 IRanWt=     -1 IRanGd=            0 ICorTp=0 IEmpDi=  4
 NAtoms=   20 NActive=   20 NUniq=   20 SFac= 1.00D+00 NAtFMM=   60 NAOKFM=F Big=F
 Integral buffers will be    131072 words long.
 Raffenetti 2 integral format.
 Two-electron integral symmetry is turned on.
 Leave Link  301 at Mon Dec 08 16:47:06 2025, MaxMem=   104857600 cpu:               0.0 elap:               0.1
 (Enter D:\Gaussian\G16W\l302.exe)
 NPDir=0 NMtPBC=     1 NCelOv=     1 NCel=       1 NClECP=     1 NCelD=      1
         NCelK=      1 NCelE2=     1 NClLst=     1 CellRange=     0.0.
 One-electron integrals computed using PRISM.
 One-electron integral symmetry used in STVInt
 NBasis=   170 RedAO= T EigKep=  3.78D-04  NBF=   170
 NBsUse=   170 1.00D-06 EigRej= -1.00D+00 NBFU=   170
 Precomputing XC quadrature grid using
 IXCGrd= 4 IRadAn=           5 IRanWt=          -1 IRanGd=           0 AccXCQ= 0.00D+00.
 Generated NRdTot=       0 NPtTot=           0 NUsed=           0 NTot=          32
 NSgBfM=   170   170   170   170   170 MxSgAt=    20 MxSgA2=    20.
 Leave Link  302 at Mon Dec 08 16:47:06 2025, MaxMem=   104857600 cpu:               0.0 elap:               0.3
 (Enter D:\Gaussian\G16W\l303.exe)
 DipDrv:  MaxL=1.
 Leave Link  303 at Mon Dec 08 16:47:06 2025, MaxMem=   104857600 cpu:               0.0 elap:               0.1
 (Enter D:\Gaussian\G16W\l401.exe)
 ExpMin= 1.61D-01 ExpMax= 5.48D+03 ExpMxC= 8.25D+02 IAcc=3 IRadAn=         5 AccDes= 0.00D+00
 Harris functional with IExCor=  402 and IRadAn=       5 diagonalized for initial guess.
 HarFok:  IExCor=  402 AccDes= 0.00D+00 IRadAn=         5 IDoV= 1 UseB2=F ITyADJ=14
 ICtDFT=  3500011 ScaDFX=  1.000000  1.000000  1.000000  1.000000
 FoFCou: FMM=F IPFlag=           0 FMFlag=      100000 FMFlg1=           0
         NFxFlg=           0 DoJE=T BraDBF=F KetDBF=T FulRan=T
         wScrn=  0.000000 ICntrl=       500 IOpCl=  0 I1Cent=   200000004 NGrid=           0
         NMat0=    1 NMatS0=      1 NMatT0=    0 NMatD0=    1 NMtDS0=    0 NMtDT0=    0
 Petite list used in FoFCou.
 Harris En= -461.053416898528    
 JPrj=0 DoOrth=F DoCkMO=F.
 Initial guess <Sx>= 0.0000 <Sy>= 0.0000 <Sz>= 0.5000 <S**2>= 0.7500 S= 0.5000
 Leave Link  401 at Mon Dec 08 16:47:08 2025, MaxMem=   104857600 cpu:               2.0 elap:               1.2
 (Enter D:\Gaussian\G16W\l502.exe)
 Integral symmetry usage will be decided dynamically.
 UHF open shell SCF:
 Using DIIS extrapolation, IDIIS=  1040.
 NGot=   104857600 LenX=   104796738 LenY=   104767397
 Requested convergence on RMS density matrix=1.00D-07 within 128 cycles.
 Requested convergence on MAX density matrix=1.00D-05.
 Requested convergence on             energy=1.00D-05.
 No special actions if energy rises.
 Fock matrices will be formed incrementally for  20 cycles.
 Integral accuracy reduced to 1.0D-05 until final iterations.

 Cycle   1  Pass 0  IDiag  1:
 FoFJK:  IHMeth= 1 ICntrl=       0 DoSepK=F KAlg= 0 I1Cent=           0 FoldK=F
 IRaf= 920000000 NMat=       1 IRICut=       1 DoRegI=T DoRafI=F ISym2E= 0 IDoP0=0 IntGTp=1.
 FoFCou: FMM=F IPFlag=           0 FMFlag=      100000 FMFlg1=           0
         NFxFlg=           0 DoJE=F BraDBF=F KetDBF=F FulRan=T
         wScrn=  0.000000 ICntrl=         0 IOpCl=  1 I1Cent=           0 NGrid=           0
         NMat0=    1 NMatS0=      1 NMatT0=    0 NMatD0=    1 NMtDS0=    0 NMtDT0=    0
 Symmetry not used in FoFCou.
 E= -460.837693179054    
 DIIS: error= 3.44D-02 at cycle   1 NSaved=   1.
 NSaved= 1 IEnMin= 1 EnMin= -460.837693179054     IErMin= 1 ErrMin= 3.44D-02
 ErrMax= 3.44D-02  0.00D+00 EMaxC= 1.00D-01 BMatC= 7.93D-01 BMatP= 7.93D-01
 IDIUse=3 WtCom= 6.56D-01 WtEn= 3.44D-01
 Coeff-Com:  0.100D+01
 Coeff-En:   0.100D+01
 Coeff:      0.100D+01
 Gap=     0.253 Goal=   None    Shift=    0.000
 Gap=     0.018 Goal=   None    Shift=    0.000
 GapD=    0.018 DampG=0.250 DampE=0.500 DampFc=0.2500 IDamp=-1.
 Damping current iteration by 2.50D-01
 RMSDP=5.71D-03 MaxDP=1.31D-01              OVMax= 4.16D-01

 Cycle   2  Pass 0  IDiag  1:
 RMSU=  1.40D-03    CP:  9.90D-01
 E= -460.905185648309     Delta-E=       -0.067492469255 Rises=F Damp=T
 DIIS: error= 1.78D-02 at cycle   2 NSaved=   2.
 NSaved= 2 IEnMin= 2 EnMin= -460.905185648309     IErMin= 2 ErrMin= 1.78D-02
 ErrMax= 1.78D-02  0.00D+00 EMaxC= 1.00D-01 BMatC= 2.03D-01 BMatP= 7.93D-01
 IDIUse=3 WtCom= 8.22D-01 WtEn= 1.78D-01
 Coeff-Com: -0.674D+00 0.167D+01
 Coeff-En:   0.000D+00 0.100D+01
 Coeff:     -0.554D+00 0.155D+01
 Gap=     0.258 Goal=   None    Shift=    0.000
 Gap=     0.054 Goal=   None    Shift=    0.000
 RMSDP=2.34D-03 MaxDP=4.83D-02 DE=-6.75D-02 OVMax= 3.33D-01

 Cycle   3  Pass 0  IDiag  1:
 RMSU=  2.15D-03    CP:  9.69D-01  1.51D+00
 E= -461.001609780052     Delta-E=       -0.096424131743 Rises=F Damp=F
 DIIS: error= 1.35D-02 at cycle   3 NSaved=   3.
 NSaved= 3 IEnMin= 3 EnMin= -461.001609780052     IErMin= 3 ErrMin= 1.35D-02
 ErrMax= 1.35D-02  0.00D+00 EMaxC= 1.00D-01 BMatC= 1.16D-01 BMatP= 2.03D-01
 IDIUse=3 WtCom= 8.65D-01 WtEn= 1.35D-01
 Coeff-Com: -0.431D+00 0.962D+00 0.470D+00
 Coeff-En:   0.000D+00 0.000D+00 0.100D+01
 Coeff:     -0.373D+00 0.832D+00 0.542D+00
 Gap=     0.242 Goal=   None    Shift=    0.000
 Gap=     0.069 Goal=   None    Shift=    0.000
 RMSDP=1.53D-03 MaxDP=5.03D-02 DE=-9.64D-02 OVMax= 1.72D-01

 Cycle   4  Pass 0  IDiag  1:
 RMSU=  9.09D-04    CP:  9.73D-01  1.86D+00  4.80D-01
 E= -461.023841488298     Delta-E=       -0.022231708246 Rises=F Damp=F
 DIIS: error= 7.84D-03 at cycle   4 NSaved=   4.
 NSaved= 4 IEnMin= 4 EnMin= -461.023841488298     IErMin= 4 ErrMin= 7.84D-03
 ErrMax= 7.84D-03  0.00D+00 EMaxC= 1.00D-01 BMatC= 3.60D-02 BMatP= 1.16D-01
 IDIUse=3 WtCom= 9.22D-01 WtEn= 7.84D-02
 Coeff-Com: -0.106D+00 0.234D+00 0.357D+00 0.515D+00
 Coeff-En:   0.000D+00 0.000D+00 0.271D+00 0.729D+00
 Coeff:     -0.977D-01 0.216D+00 0.350D+00 0.532D+00
 Gap=     0.230 Goal=   None    Shift=    0.000
 Gap=     0.072 Goal=   None    Shift=    0.000
 RMSDP=6.20D-04 MaxDP=2.19D-02 DE=-2.22D-02 OVMax= 7.65D-02

 Cycle   5  Pass 0  IDiag  1:
 RMSU=  2.86D-04    CP:  9.72D-01  1.72D+00  6.53D-01  6.16D-01
 E= -461.032550576268     Delta-E=       -0.008709087970 Rises=F Damp=F
 DIIS: error= 1.97D-03 at cycle   5 NSaved=   5.
 NSaved= 5 IEnMin= 5 EnMin= -461.032550576268     IErMin= 5 ErrMin= 1.97D-03
 ErrMax= 1.97D-03  0.00D+00 EMaxC= 1.00D-01 BMatC= 3.07D-03 BMatP= 3.60D-02
 IDIUse=3 WtCom= 9.80D-01 WtEn= 1.97D-02
 Coeff-Com: -0.122D-01 0.298D-01 0.157D+00 0.329D+00 0.497D+00
 Coeff-En:   0.000D+00 0.000D+00 0.000D+00 0.118D-01 0.988D+00
 Coeff:     -0.120D-01 0.292D-01 0.154D+00 0.322D+00 0.506D+00
 Gap=     0.230 Goal=   None    Shift=    0.000
 Gap=     0.075 Goal=   None    Shift=    0.000
 RMSDP=1.90D-04 MaxDP=6.38D-03 DE=-8.71D-03 OVMax= 1.48D-02

 Cycle   6  Pass 0  IDiag  1:
 RMSU=  1.18D-04    CP:  9.72D-01  1.73D+00  6.41D-01  6.77D-01  5.30D-01
 E= -461.033249552041     Delta-E=       -0.000698975773 Rises=F Damp=F
 DIIS: error= 7.36D-04 at cycle   6 NSaved=   6.
 NSaved= 6 IEnMin= 6 EnMin= -461.033249552041     IErMin= 6 ErrMin= 7.36D-04
 ErrMax= 7.36D-04  0.00D+00 EMaxC= 1.00D-01 BMatC= 2.48D-04 BMatP= 3.07D-03
 IDIUse=3 WtCom= 9.93D-01 WtEn= 7.36D-03
 Coeff-Com:  0.250D-02-0.588D-02 0.352D-01 0.903D-01 0.262D+00 0.615D+00
 Coeff-En:   0.000D+00 0.000D+00 0.000D+00 0.000D+00 0.000D+00 0.100D+01
 Coeff:      0.248D-02-0.584D-02 0.349D-01 0.897D-01 0.261D+00 0.618D+00
 Gap=     0.230 Goal=   None    Shift=    0.000
 Gap=     0.077 Goal=   None    Shift=    0.000
 RMSDP=5.93D-05 MaxDP=3.30D-03 DE=-6.99D-04 OVMax= 7.06D-03

 Cycle   7  Pass 0  IDiag  1:
 RMSU=  5.04D-05    CP:  9.72D-01  1.73D+00  6.44D-01  6.80D-01  6.20D-01
                    CP:  8.69D-01
 E= -461.033308437403     Delta-E=       -0.000058885362 Rises=F Damp=F
 DIIS: error= 2.89D-04 at cycle   7 NSaved=   7.
 NSaved= 7 IEnMin= 7 EnMin= -461.033308437403     IErMin= 7 ErrMin= 2.89D-04
 ErrMax= 2.89D-04  0.00D+00 EMaxC= 1.00D-01 BMatC= 5.45D-05 BMatP= 2.48D-04
 IDIUse=3 WtCom= 9.97D-01 WtEn= 2.89D-03
 Coeff-Com:  0.497D-02-0.109D-01-0.137D-01-0.221D-01 0.482D-01 0.355D+00
 Coeff-Com:  0.639D+00
 Coeff-En:   0.000D+00 0.000D+00 0.000D+00 0.000D+00 0.000D+00 0.000D+00
 Coeff-En:   0.100D+01
 Coeff:      0.495D-02-0.108D-01-0.137D-01-0.220D-01 0.480D-01 0.354D+00
 Coeff:      0.640D+00
 Gap=     0.230 Goal=   None    Shift=    0.000
 Gap=     0.077 Goal=   None    Shift=    0.000
 RMSDP=3.00D-05 MaxDP=1.45D-03 DE=-5.89D-05 OVMax= 2.10D-03

 Cycle   8  Pass 0  IDiag  1:
 RMSU=  2.11D-05    CP:  9.72D-01  1.73D+00  6.45D-01  6.86D-01  6.63D-01
                    CP:  9.99D-01  8.92D-01
 E= -461.033327110123     Delta-E=       -0.000018672720 Rises=F Damp=F
 DIIS: error= 9.38D-05 at cycle   8 NSaved=   8.
 NSaved= 8 IEnMin= 8 EnMin= -461.033327110123     IErMin= 8 ErrMin= 9.38D-05
 ErrMax= 9.38D-05  0.00D+00 EMaxC= 1.00D-01 BMatC= 4.98D-06 BMatP= 5.45D-05
 IDIUse=1 WtCom= 1.00D+00 WtEn= 0.00D+00
 Coeff-Com:  0.524D-03-0.663D-03-0.100D-01-0.278D-01-0.516D-01-0.488D-01
 Coeff-Com:  0.161D+00 0.978D+00
 Coeff:      0.524D-03-0.663D-03-0.100D-01-0.278D-01-0.516D-01-0.488D-01
 Coeff:      0.161D+00 0.978D+00
 Gap=     0.229 Goal=   None    Shift=    0.000
 Gap=     0.077 Goal=   None    Shift=    0.000
 RMSDP=2.13D-05 MaxDP=1.03D-03 DE=-1.87D-05 OVMax= 3.90D-03

 Cycle   9  Pass 0  IDiag  1:
 RMSU=  1.15D-05    CP:  9.72D-01  1.73D+00  6.47D-01  6.87D-01  6.86D-01
                    CP:  1.07D+00  1.16D+00  1.26D+00
 E= -461.033331073546     Delta-E=       -0.000003963422 Rises=F Damp=F
 DIIS: error= 7.61D-05 at cycle   9 NSaved=   9.
 NSaved= 9 IEnMin= 9 EnMin= -461.033331073546     IErMin= 9 ErrMin= 7.61D-05
 ErrMax= 7.61D-05  0.00D+00 EMaxC= 1.00D-01 BMatC= 4.70D-06 BMatP= 4.98D-06
 IDIUse=1 WtCom= 1.00D+00 WtEn= 0.00D+00
 Coeff-Com:  0.620D-04 0.394D-03-0.504D-02-0.162D-01-0.449D-01-0.852D-01
 Coeff-Com:  0.310D-02 0.697D+00 0.451D+00
 Coeff:      0.620D-04 0.394D-03-0.504D-02-0.162D-01-0.449D-01-0.852D-01
 Coeff:      0.310D-02 0.697D+00 0.451D+00
 Gap=     0.229 Goal=   None    Shift=    0.000
 Gap=     0.077 Goal=   None    Shift=    0.000
 RMSDP=7.66D-06 MaxDP=2.96D-04 DE=-3.96D-06 OVMax= 6.64D-04

 Initial convergence to 1.0D-05 achieved.  Increase integral accuracy.
 Cycle  10  Pass 1  IDiag  1:
 E= -461.033320960510     Delta-E=        0.000010113036 Rises=F Damp=F
 DIIS: error= 3.01D-05 at cycle   1 NSaved=   1.
 NSaved= 1 IEnMin= 1 EnMin= -461.033320960510     IErMin= 1 ErrMin= 3.01D-05
 ErrMax= 3.01D-05  0.00D+00 EMaxC= 1.00D-01 BMatC= 4.69D-07 BMatP= 4.69D-07
 IDIUse=1 WtCom= 1.00D+00 WtEn= 0.00D+00
 Coeff-Com:  0.100D+01
 Coeff:      0.100D+01
 Gap=     0.229 Goal=   None    Shift=    0.000
 Gap=     0.077 Goal=   None    Shift=    0.000
 RMSDP=7.66D-06 MaxDP=2.96D-04 DE= 1.01D-05 OVMax= 1.16D-03

 Cycle  11  Pass 1  IDiag  1:
 RMSU=  8.92D-06    CP:  1.00D+00
 E= -461.033321253703     Delta-E=       -0.000000293193 Rises=F Damp=F
 DIIS: error= 4.21D-05 at cycle   2 NSaved=   2.
 NSaved= 2 IEnMin= 2 EnMin= -461.033321253703     IErMin= 1 ErrMin= 3.01D-05
 ErrMax= 4.21D-05  0.00D+00 EMaxC= 1.00D-01 BMatC= 7.77D-07 BMatP= 4.69D-07
 IDIUse=1 WtCom= 1.00D+00 WtEn= 0.00D+00
 Coeff-Com:  0.587D+00 0.413D+00
 Coeff:      0.587D+00 0.413D+00
 Gap=     0.229 Goal=   None    Shift=    0.000
 Gap=     0.077 Goal=   None    Shift=    0.000
 RMSDP=2.97D-06 MaxDP=1.08D-04 DE=-2.93D-07 OVMax= 3.14D-04

 Cycle  12  Pass 1  IDiag  1:
 RMSU=  2.97D-06    CP:  1.00D+00  9.97D-01
 E= -461.033321494689     Delta-E=       -0.000000240986 Rises=F Damp=F
 DIIS: error= 1.65D-05 at cycle   3 NSaved=   3.
 NSaved= 3 IEnMin= 3 EnMin= -461.033321494689     IErMin= 3 ErrMin= 1.65D-05
 ErrMax= 1.65D-05  0.00D+00 EMaxC= 1.00D-01 BMatC= 9.03D-08 BMatP= 4.69D-07
 IDIUse=1 WtCom= 1.00D+00 WtEn= 0.00D+00
 Coeff-Com: -0.174D+00 0.117D+00 0.106D+01
 Coeff:     -0.174D+00 0.117D+00 0.106D+01
 Gap=     0.229 Goal=   None    Shift=    0.000
 Gap=     0.077 Goal=   None    Shift=    0.000
 RMSDP=4.12D-06 MaxDP=1.48D-04 DE=-2.41D-07 OVMax= 8.90D-04

 Cycle  13  Pass 1  IDiag  1:
 RMSU=  2.80D-06    CP:  1.00D+00  1.30D+00  1.48D+00
 E= -461.033321662288     Delta-E=       -0.000000167599 Rises=F Damp=F
 DIIS: error= 1.48D-05 at cycle   4 NSaved=   4.
 NSaved= 4 IEnMin= 4 EnMin= -461.033321662288     IErMin= 4 ErrMin= 1.48D-05
 ErrMax= 1.48D-05  0.00D+00 EMaxC= 1.00D-01 BMatC= 5.60D-08 BMatP= 9.03D-08
 IDIUse=1 WtCom= 1.00D+00 WtEn= 0.00D+00
 Coeff-Com: -0.295D+00-0.636D-01 0.642D+00 0.717D+00
 Coeff:     -0.295D+00-0.636D-01 0.642D+00 0.717D+00
 Gap=     0.229 Goal=   None    Shift=    0.000
 Gap=     0.077 Goal=   None    Shift=    0.000
 RMSDP=2.79D-06 MaxDP=9.84D-05 DE=-1.68D-07 OVMax= 5.63D-04

 Cycle  14  Pass 1  IDiag  1:
 RMSU=  1.05D-06    CP:  1.00D+00  1.48D+00  1.98D+00  1.50D+00
 E= -461.033321737642     Delta-E=       -0.000000075354 Rises=F Damp=F
 DIIS: error= 8.25D-06 at cycle   5 NSaved=   5.
 NSaved= 5 IEnMin= 5 EnMin= -461.033321737642     IErMin= 5 ErrMin= 8.25D-06
 ErrMax= 8.25D-06  0.00D+00 EMaxC= 1.00D-01 BMatC= 1.68D-08 BMatP= 5.60D-08
 IDIUse=1 WtCom= 1.00D+00 WtEn= 0.00D+00
 Coeff-Com: -0.107D+00-0.116D+00-0.144D+00 0.438D+00 0.929D+00
 Coeff:     -0.107D+00-0.116D+00-0.144D+00 0.438D+00 0.929D+00
 Gap=     0.229 Goal=   None    Shift=    0.000
 Gap=     0.077 Goal=   None    Shift=    0.000
 RMSDP=2.84D-06 MaxDP=1.02D-04 DE=-7.54D-08 OVMax= 6.31D-04

 Cycle  15  Pass 1  IDiag  1:
 RMSU=  5.13D-07    CP:  1.00D+00  1.67D+00  2.40D+00  2.15D+00  1.01D+00
 E= -461.033321771740     Delta-E=       -0.000000034098 Rises=F Damp=F
 DIIS: error= 6.48D-06 at cycle   6 NSaved=   6.
 NSaved= 6 IEnMin= 6 EnMin= -461.033321771740     IErMin= 6 ErrMin= 6.48D-06
 ErrMax= 6.48D-06  0.00D+00 EMaxC= 1.00D-01 BMatC= 1.45D-08 BMatP= 1.68D-08
 IDIUse=1 WtCom= 1.00D+00 WtEn= 0.00D+00
 Coeff-Com:  0.118D-02-0.698D-01-0.286D+00 0.119D+00 0.743D+00 0.494D+00
 Coeff:      0.118D-02-0.698D-01-0.286D+00 0.119D+00 0.743D+00 0.494D+00
 Gap=     0.229 Goal=   None    Shift=    0.000
 Gap=     0.077 Goal=   None    Shift=    0.000
 RMSDP=9.92D-07 MaxDP=3.54D-05 DE=-3.41D-08 OVMax= 1.99D-04

 Cycle  16  Pass 1  IDiag  1:
 RMSU=  2.00D-07    CP:  1.00D+00  1.72D+00  2.58D+00  2.34D+00  1.28D+00
                    CP:  6.46D-01
 E= -461.033321778470     Delta-E=       -0.000000006730 Rises=F Damp=F
 DIIS: error= 9.79D-07 at cycle   7 NSaved=   7.
 NSaved= 7 IEnMin= 7 EnMin= -461.033321778470     IErMin= 7 ErrMin= 9.79D-07
 ErrMax= 9.79D-07  0.00D+00 EMaxC= 1.00D-01 BMatC= 4.15D-10 BMatP= 1.45D-08
 IDIUse=1 WtCom= 1.00D+00 WtEn= 0.00D+00
 Coeff-Com:  0.114D-01-0.142D-01-0.949D-01-0.187D-01 0.195D+00 0.150D+00
 Coeff-Com:  0.771D+00
 Coeff:      0.114D-01-0.142D-01-0.949D-01-0.187D-01 0.195D+00 0.150D+00
 Coeff:      0.771D+00
 Gap=     0.229 Goal=   None    Shift=    0.000
 Gap=     0.077 Goal=   None    Shift=    0.000
 RMSDP=2.90D-07 MaxDP=1.07D-05 DE=-6.73D-09 OVMax= 5.98D-05

 Cycle  17  Pass 1  IDiag  1:
 RMSU=  9.82D-08    CP:  1.00D+00  1.74D+00  2.62D+00  2.40D+00  1.34D+00
                    CP:  7.13D-01  1.09D+00
 E= -461.033321778895     Delta-E=       -0.000000000424 Rises=F Damp=F
 DIIS: error= 5.90D-07 at cycle   8 NSaved=   8.
 NSaved= 8 IEnMin= 8 EnMin= -461.033321778895     IErMin= 8 ErrMin= 5.90D-07
 ErrMax= 5.90D-07  0.00D+00 EMaxC= 1.00D-01 BMatC= 2.09D-10 BMatP= 4.15D-10
 IDIUse=1 WtCom= 1.00D+00 WtEn= 0.00D+00
 Coeff-Com:  0.568D-02 0.984D-02 0.221D-01-0.387D-01-0.561D-01-0.576D-01
 Coeff-Com:  0.420D+00 0.695D+00
 Coeff:      0.568D-02 0.984D-02 0.221D-01-0.387D-01-0.561D-01-0.576D-01
 Coeff:      0.420D+00 0.695D+00
 Gap=     0.229 Goal=   None    Shift=    0.000
 Gap=     0.077 Goal=   None    Shift=    0.000
 RMSDP=8.06D-08 MaxDP=3.63D-06 DE=-4.24D-10 OVMax= 1.37D-05

 SCF Done:  E(UB3LYP) =  -461.033321779     A.U. after   17 cycles
            NFock= 17  Conv=0.81D-07     -V/T= 2.0093
 <Sx>= 0.0000 <Sy>= 0.0000 <Sz>= 0.5000 <S**2>= 0.7606 S= 0.5053
 <L.S>= 0.000000000000E+00
 KE= 4.567975691746D+02 PE=-2.091764710359D+03 EE= 6.577386255365D+02
 Annihilation of the first spin contaminant:
 S**2 before annihilation     0.7606,   after     0.7501
 Leave Link  502 at Mon Dec 08 16:47:45 2025, MaxMem=   104857600 cpu:              37.0 elap:              37.4
 (Enter D:\Gaussian\G16W\l601.exe)
 Copying SCF densities to generalized density rwf, IOpCl= 1 IROHF=0.

 **********************************************************************

            Population analysis using the SCF density.

 **********************************************************************

 Orbital symmetries:
 Alpha Orbitals:
       Occupied  (A) (A) (A) (A) (A) (A) (A) (A) (A) (A) (A) (A)
                 (A) (A) (A) (A) (A) (A) (A) (A) (A) (A) (A) (A)
                 (A) (A) (A) (A) (A) (A) (A) (A) (A) (A) (A) (A)
                 (A)
       Virtual   (A) (A) (A) (A) (A) (A) (A) (A) (A) (A) (A) (A)
                 (A) (A) (A) (A) (A) (A) (A) (A) (A) (A) (A) (A)
                 (A) (A) (A) (A) (A) (A) (A) (A) (A) (A) (A) (A)
                 (A) (A) (A) (A) (A) (A) (A) (A) (A) (A) (A) (A)
                 (A) (A) (A) (A) (A) (A) (A) (A) (A) (A) (A) (A)
                 (A) (A) (A) (A) (A) (A) (A) (A) (A) (A) (A) (A)
                 (A) (A) (A) (A) (A) (A) (A) (A) (A) (A) (A) (A)
                 (A) (A) (A) (A) (A) (A) (A) (A) (A) (A) (A) (A)
                 (A) (A) (A) (A) (A) (A) (A) (A) (A) (A) (A) (A)
                 (A) (A) (A) (A) (A) (A) (A) (A) (A) (A) (A) (A)
                 (A) (A) (A) (A) (A) (A) (A) (A) (A) (A) (A) (A)
                 (A)
 Beta  Orbitals:
       Occupied  (A) (A) (A) (A) (A) (A) (A) (A) (A) (A) (A) (A)
                 (A) (A) (A) (A) (A) (A) (A) (A) (A) (A) (A) (A)
                 (A) (A) (A) (A) (A) (A) (A) (A) (A) (A) (A) (A)
       Virtual   (A) (A) (A) (A) (A) (A) (A) (A) (A) (A) (A) (A)
                 (A) (A) (A) (A) (A) (A) (A) (A) (A) (A) (A) (A)
                 (A) (A) (A) (A) (A) (A) (A) (A) (A) (A) (A) (A)
                 (A) (A) (A) (A) (A) (A) (A) (A) (A) (A) (A) (A)
                 (A) (A) (A) (A) (A) (A) (A) (A) (A) (A) (A) (A)
                 (A) (A) (A) (A) (A) (A) (A) (A) (A) (A) (A) (A)
                 (A) (A) (A) (A) (A) (A) (A) (A) (A) (A) (A) (A)
                 (A) (A) (A) (A) (A) (A) (A) (A) (A) (A) (A) (A)
                 (A) (A) (A) (A) (A) (A) (A) (A) (A) (A) (A) (A)
                 (A) (A) (A) (A) (A) (A) (A) (A) (A) (A) (A) (A)
                 (A) (A) (A) (A) (A) (A) (A) (A) (A) (A) (A) (A)
                 (A) (A)
 The electronic state is 2-A.
 Alpha  occ. eigenvalues --  -19.40650 -19.38876 -10.47117 -10.46820 -10.40644
 Alpha  occ. eigenvalues --  -10.40359 -10.39834 -10.38602 -10.37314 -10.33715
 Alpha  occ. eigenvalues --   -1.28843  -1.25734  -1.06187  -0.97177  -0.94544
 Alpha  occ. eigenvalues --   -0.90251  -0.84745  -0.80832  -0.79400  -0.73722
 Alpha  occ. eigenvalues --   -0.71359  -0.67948  -0.66810  -0.64022  -0.62735
 Alpha  occ. eigenvalues --   -0.61649  -0.61326  -0.58873  -0.57786  -0.55776
 Alpha  occ. eigenvalues --   -0.54250  -0.53918  -0.53333  -0.52926  -0.50889
 Alpha  occ. eigenvalues --   -0.43174  -0.42334
 Alpha virt. eigenvalues --   -0.19407  -0.19192  -0.10545  -0.06057  -0.04178
 Alpha virt. eigenvalues --   -0.03721  -0.02118  -0.01155  -0.00811   0.00664
 Alpha virt. eigenvalues --    0.01257   0.01455   0.03328   0.04949   0.05158
 Alpha virt. eigenvalues --    0.07398   0.08578   0.13534   0.15929   0.17078
 Alpha virt. eigenvalues --    0.19609   0.28818   0.31956   0.32217   0.33600
 Alpha virt. eigenvalues --    0.35304   0.36670   0.36761   0.38192   0.39521
 Alpha virt. eigenvalues --    0.40439   0.42482   0.42878   0.43170   0.46388
 Alpha virt. eigenvalues --    0.46998   0.49997   0.53337   0.54053   0.55238
 Alpha virt. eigenvalues --    0.57620   0.58762   0.60923   0.64906   0.66868
 Alpha virt. eigenvalues --    0.69218   0.69667   0.71170   0.73236   0.73685
 Alpha virt. eigenvalues --    0.75745   0.75779   0.76824   0.77356   0.80610
 Alpha virt. eigenvalues --    0.81456   0.81862   0.84623   0.86532   0.88611
 Alpha virt. eigenvalues --    0.92504   0.95102   0.99142   1.02792   1.03642
 Alpha virt. eigenvalues --    1.05628   1.09055   1.13133   1.15177   1.19996
 Alpha virt. eigenvalues --    1.20518   1.21487   1.23921   1.27613   1.29374
 Alpha virt. eigenvalues --    1.31778   1.31964   1.47999   1.52536   1.54258
 Alpha virt. eigenvalues --    1.56164   1.59365   1.63131   1.66763   1.67206
 Alpha virt. eigenvalues --    1.68191   1.71794   1.73361   1.73755   1.76955
 Alpha virt. eigenvalues --    1.81124   1.83249   1.83990   1.88410   1.91788
 Alpha virt. eigenvalues --    1.93128   1.93727   2.00621   2.04463   2.05017
 Alpha virt. eigenvalues --    2.08092   2.11324   2.12244   2.15543   2.17314
 Alpha virt. eigenvalues --    2.18545   2.21362   2.24581   2.25949   2.36224
 Alpha virt. eigenvalues --    2.38019   2.40138   2.47111   2.47793   2.49678
 Alpha virt. eigenvalues --    2.58161   2.62588   2.66183   2.71524   2.73695
 Alpha virt. eigenvalues --    2.84271   3.02873   3.24292   3.73844   3.88964
 Alpha virt. eigenvalues --    3.91112   3.98560   4.01326   4.08869   4.16802
 Alpha virt. eigenvalues --    4.19016   4.35529   4.72949
  Beta  occ. eigenvalues --  -19.40161 -19.38452 -10.46759 -10.46530 -10.40659
  Beta  occ. eigenvalues --  -10.40133 -10.39476 -10.38724 -10.37400 -10.33720
  Beta  occ. eigenvalues --   -1.27906  -1.24811  -1.05402  -0.96316  -0.94116
  Beta  occ. eigenvalues --   -0.90050  -0.84268  -0.80413  -0.79074  -0.73291
  Beta  occ. eigenvalues --   -0.71088  -0.67674  -0.64995  -0.63754  -0.62604
  Beta  occ. eigenvalues --   -0.61403  -0.59574  -0.58514  -0.56718  -0.55584
  Beta  occ. eigenvalues --   -0.53798  -0.53073  -0.52670  -0.52441  -0.48788
  Beta  occ. eigenvalues --   -0.42436
  Beta virt. eigenvalues --   -0.34703  -0.17986  -0.16438  -0.10151  -0.05998
  Beta virt. eigenvalues --   -0.04052  -0.02131  -0.01944  -0.01024  -0.00713
  Beta virt. eigenvalues --    0.00789   0.01442   0.01670   0.03564   0.05289
  Beta virt. eigenvalues --    0.05368   0.07880   0.09117   0.13946   0.16226
  Beta virt. eigenvalues --    0.17316   0.19986   0.28955   0.32665   0.32916
  Beta virt. eigenvalues --    0.33912   0.35471   0.37042   0.37413   0.38370
  Beta virt. eigenvalues --    0.40088   0.40685   0.42589   0.43227   0.43518
  Beta virt. eigenvalues --    0.46559   0.47300   0.51091   0.53501   0.54745
  Beta virt. eigenvalues --    0.55406   0.57834   0.58931   0.61691   0.65004
  Beta virt. eigenvalues --    0.67007   0.69277   0.69915   0.71242   0.73568
  Beta virt. eigenvalues --    0.73844   0.76092   0.76924   0.77100   0.77667
  Beta virt. eigenvalues --    0.80788   0.81609   0.82012   0.84771   0.87930
  Beta virt. eigenvalues --    0.88863   0.92735   0.95462   0.99352   1.03797
  Beta virt. eigenvalues --    1.03935   1.05857   1.09258   1.14172   1.15438
  Beta virt. eigenvalues --    1.20636   1.21375   1.22022   1.24778   1.27874
  Beta virt. eigenvalues --    1.29960   1.31997   1.32542   1.48359   1.53439
  Beta virt. eigenvalues --    1.54612   1.56815   1.59698   1.63551   1.67405
  Beta virt. eigenvalues --    1.67934   1.68791   1.72119   1.73765   1.74370
  Beta virt. eigenvalues --    1.77281   1.81320   1.83893   1.84109   1.88822
  Beta virt. eigenvalues --    1.93018   1.93582   1.94017   2.01064   2.04628
  Beta virt. eigenvalues --    2.05778   2.08730   2.11337   2.13490   2.15770
  Beta virt. eigenvalues --    2.17645   2.18755   2.22023   2.25471   2.26586
  Beta virt. eigenvalues --    2.36610   2.39264   2.40568   2.48079   2.48579
  Beta virt. eigenvalues --    2.50126   2.58501   2.62880   2.66472   2.71837
  Beta virt. eigenvalues --    2.73949   2.84857   3.03099   3.24487   3.74471
  Beta virt. eigenvalues --    3.89396   3.91395   3.99211   4.01614   4.08965
  Beta virt. eigenvalues --    4.17196   4.19285   4.36018   4.73561
          Condensed to atoms (all electrons):
               1          2          3          4          5          6
     1  C    4.617249   0.507077   0.000785  -0.034744  -0.041460   0.367825
     2  C    0.507077   5.046766   0.523371  -0.038633  -0.042145  -0.067898
     3  C    0.000785   0.523371   4.638720   0.491244  -0.028029  -0.027900
     4  C   -0.034744  -0.038633   0.491244   4.946001   0.478787  -0.001750
     5  C   -0.041460  -0.042145  -0.028029   0.478787   5.084036   0.438832
     6  C    0.367825  -0.067898  -0.027900  -0.001750   0.438832   4.753640
     7  H   -0.032551   0.358359  -0.038956   0.005278  -0.000271   0.006420
     8  H    0.000324   0.005177  -0.033438   0.361031  -0.033689   0.002933
     9  H    0.002592   0.000596   0.003040  -0.024481   0.360433  -0.039635
    10  O   -0.049581   0.003820  -0.000049   0.003364  -0.060923   0.277212
    11  H   -0.026291   0.004960  -0.000087  -0.000095   0.001257  -0.013075
    12  O    0.327888  -0.051695   0.002410  -0.000080   0.004868  -0.057841
    13  C    0.004944  -0.058068   0.361130  -0.050246   0.007038   0.000281
    14  H   -0.000057  -0.003659  -0.022647   0.001261  -0.000198   0.000012
    15  H   -0.000160   0.003787  -0.032191  -0.002523   0.000311   0.000004
    16  H   -0.000057  -0.003658  -0.022649   0.001263  -0.000198   0.000012
    17  C    0.003916  -0.000131   0.000010   0.000097  -0.000578  -0.037294
    18  H   -0.000027   0.000005   0.000000   0.000000   0.000098   0.002966
    19  H   -0.000261  -0.000006   0.000001  -0.000008   0.003389  -0.006163
    20  H   -0.000260  -0.000006   0.000001  -0.000008   0.003391  -0.006168
               7          8          9         10         11         12
     1  C   -0.032551   0.000324   0.002592  -0.049581  -0.026291   0.327888
     2  C    0.358359   0.005177   0.000596   0.003820   0.004960  -0.051695
     3  C   -0.038956  -0.033438   0.003040  -0.000049  -0.000087   0.002410
     4  C    0.005278   0.361031  -0.024481   0.003364  -0.000095  -0.000080
     5  C   -0.000271  -0.033689   0.360433  -0.060923   0.001257   0.004868
     6  C    0.006420   0.002933  -0.039635   0.277212  -0.013075  -0.057841
     7  H    0.494021  -0.000109   0.000011  -0.000046  -0.000196  -0.001764
     8  H   -0.000109   0.488369  -0.003908  -0.000033   0.000000   0.000002
     9  H    0.000011  -0.003908   0.489858  -0.006322  -0.000004  -0.000035
    10  O   -0.000046  -0.000033  -0.006322   8.178271   0.025639  -0.012320
    11  H   -0.000196   0.000000  -0.000004   0.025639   0.302534   0.241748
    12  O   -0.001764   0.000002  -0.000035  -0.012320   0.241748   8.093995
    13  C   -0.006259  -0.006609  -0.000144   0.000000   0.000003  -0.000041
    14  H    0.001314   0.000098   0.000002   0.000000   0.000000   0.000001
    15  H    0.000067   0.005144  -0.000003   0.000000   0.000000   0.000000
    16  H    0.001316   0.000098   0.000002   0.000000   0.000000   0.000001
    17  C    0.000002  -0.000005   0.006732   0.206259  -0.000828   0.000179
    18  H    0.000000   0.000000  -0.000073  -0.027566  -0.000118   0.000004
    19  H    0.000000   0.000001   0.001161  -0.027999   0.000080  -0.000008
    20  H    0.000000   0.000001   0.001163  -0.027995   0.000080  -0.000008
              13         14         15         16         17         18
     1  C    0.004944  -0.000057  -0.000160  -0.000057   0.003916  -0.000027
     2  C   -0.058068  -0.003659   0.003787  -0.003658  -0.000131   0.000005
     3  C    0.361130  -0.022647  -0.032191  -0.022649   0.000010   0.000000
     4  C   -0.050246   0.001261  -0.002523   0.001263   0.000097   0.000000
     5  C    0.007038  -0.000198   0.000311  -0.000198  -0.000578   0.000098
     6  C    0.000281   0.000012   0.000004   0.000012  -0.037294   0.002966
     7  H   -0.006259   0.001314   0.000067   0.001316   0.000002   0.000000
     8  H   -0.006609   0.000098   0.005144   0.000098  -0.000005   0.000000
     9  H   -0.000144   0.000002  -0.000003   0.000002   0.006732  -0.000073
    10  O    0.000000   0.000000   0.000000   0.000000   0.206259  -0.027566
    11  H    0.000003   0.000000   0.000000   0.000000  -0.000828  -0.000118
    12  O   -0.000041   0.000001   0.000000   0.000001   0.000179   0.000004
    13  C    5.190579   0.365510   0.372129   0.365510   0.000000   0.000000
    14  H    0.365510   0.480371  -0.022902  -0.021261   0.000000   0.000000
    15  H    0.372129  -0.022902   0.500536  -0.022902   0.000000   0.000000
    16  H    0.365510  -0.021261  -0.022902   0.480380   0.000000   0.000000
    17  C    0.000000   0.000000   0.000000   0.000000   4.959161   0.385646
    18  H    0.000000   0.000000   0.000000   0.000000   0.385646   0.455465
    19  H    0.000000   0.000000   0.000000   0.000000   0.370913  -0.024026
    20  H    0.000000   0.000000   0.000000   0.000000   0.370906  -0.024028
              19         20
     1  C   -0.000261  -0.000260
     2  C   -0.000006  -0.000006
     3  C    0.000001   0.000001
     4  C   -0.000008  -0.000008
     5  C    0.003389   0.003391
     6  C   -0.006163  -0.006168
     7  H    0.000000   0.000000
     8  H    0.000001   0.000001
     9  H    0.001161   0.001163
    10  O   -0.027999  -0.027995
    11  H    0.000080   0.000080
    12  O   -0.000008  -0.000008
    13  C    0.000000   0.000000
    14  H    0.000000   0.000000
    15  H    0.000000   0.000000
    16  H    0.000000   0.000000
    17  C    0.370913   0.370906
    18  H   -0.024026  -0.024028
    19  H    0.510608  -0.036086
    20  H   -0.036086   0.510621
          Atomic-Atomic Spin Densities.
               1          2          3          4          5          6
     1  C    0.197410   0.017443  -0.004101  -0.005316  -0.000871   0.042183
     2  C    0.017443  -0.076535  -0.014268  -0.004641   0.002349  -0.001457
     3  C   -0.004101  -0.014268   0.156200   0.042131  -0.004954  -0.004544
     4  C   -0.005316  -0.004641   0.042131   0.266450  -0.020135  -0.007880
     5  C   -0.000871   0.002349  -0.004954  -0.020135  -0.104750   0.020650
     6  C    0.042183  -0.001457  -0.004544  -0.007880   0.020650   0.254495
     7  H   -0.000216   0.001165  -0.000123   0.000029  -0.000039   0.000075
     8  H   -0.000033  -0.000025  -0.000715   0.000057   0.000392   0.000000
     9  H    0.000109  -0.000046   0.000071  -0.000238   0.001173  -0.000447
    10  O   -0.006483  -0.000018   0.000043   0.000290  -0.000252  -0.058452
    11  H    0.000769  -0.000076  -0.000005   0.000001  -0.000025   0.000028
    12  O   -0.049605  -0.000464   0.000236   0.000057  -0.000056  -0.005913
    13  C   -0.000003   0.001654  -0.005708  -0.002837   0.000030  -0.000005
    14  H    0.000042   0.000359  -0.003288  -0.000466   0.000007   0.000010
    15  H   -0.000002  -0.000038  -0.000129   0.000122   0.000007   0.000000
    16  H    0.000042   0.000360  -0.003289  -0.000466   0.000007   0.000010
    17  C   -0.000034  -0.000003   0.000001   0.000000   0.000349   0.000366
    18  H   -0.000001   0.000000   0.000000   0.000000  -0.000007   0.000034
    19  H    0.000070   0.000001  -0.000003  -0.000055   0.000120   0.001732
    20  H    0.000070   0.000001  -0.000003  -0.000055   0.000118   0.001731
               7          8          9         10         11         12
     1  C   -0.000216  -0.000033   0.000109  -0.006483   0.000769  -0.049605
     2  C    0.001165  -0.000025  -0.000046  -0.000018  -0.000076  -0.000464
     3  C   -0.000123  -0.000715   0.000071   0.000043  -0.000005   0.000236
     4  C    0.000029   0.000057  -0.000238   0.000290   0.000001   0.000057
     5  C   -0.000039   0.000392   0.001173  -0.000252  -0.000025  -0.000056
     6  C    0.000075   0.000000  -0.000447  -0.058452   0.000028  -0.005913
     7  H    0.000536   0.000002  -0.000001   0.000000   0.000008  -0.000086
     8  H    0.000002  -0.011613   0.000097   0.000001   0.000000   0.000000
     9  H   -0.000001   0.000097   0.001931   0.000026   0.000000   0.000000
    10  O    0.000000   0.000001   0.000026   0.232075  -0.000437   0.002134
    11  H    0.000008   0.000000   0.000000  -0.000437  -0.003787  -0.001340
    12  O   -0.000086   0.000000   0.000000   0.002134  -0.001340   0.201799
    13  C    0.000104   0.000208   0.000001   0.000000   0.000000   0.000000
    14  H   -0.000023  -0.000004   0.000000   0.000000   0.000000  -0.000001
    15  H    0.000003  -0.000037   0.000000   0.000000   0.000000   0.000000
    16  H   -0.000023  -0.000004   0.000000   0.000000   0.000000  -0.000001
    17  C    0.000000   0.000000  -0.000081  -0.003731   0.000022  -0.000001
    18  H    0.000000   0.000000   0.000005   0.000104   0.000002   0.000000
    19  H    0.000000   0.000000  -0.000027  -0.002895  -0.000001  -0.000005
    20  H    0.000000   0.000000  -0.000027  -0.002892  -0.000001  -0.000005
              13         14         15         16         17         18
     1  C   -0.000003   0.000042  -0.000002   0.000042  -0.000034  -0.000001
     2  C    0.001654   0.000359  -0.000038   0.000360  -0.000003   0.000000
     3  C   -0.005708  -0.003288  -0.000129  -0.003289   0.000001   0.000000
     4  C   -0.002837  -0.000466   0.000122  -0.000466   0.000000   0.000000
     5  C    0.000030   0.000007   0.000007   0.000007   0.000349  -0.000007
     6  C   -0.000005   0.000010   0.000000   0.000010   0.000366   0.000034
     7  H    0.000104  -0.000023   0.000003  -0.000023   0.000000   0.000000
     8  H    0.000208  -0.000004  -0.000037  -0.000004   0.000000   0.000000
     9  H    0.000001   0.000000   0.000000   0.000000  -0.000081   0.000005
    10  O    0.000000   0.000000   0.000000   0.000000  -0.003731   0.000104
    11  H    0.000000   0.000000   0.000000   0.000000   0.000022   0.000002
    12  O    0.000000  -0.000001   0.000000  -0.000001  -0.000001   0.000000
    13  C   -0.011341   0.003819   0.000538   0.003820   0.000000   0.000000
    14  H    0.003819   0.015972  -0.000129  -0.003328   0.000000   0.000000
    15  H    0.000538  -0.000129  -0.000305  -0.000128   0.000000   0.000000
    16  H    0.003820  -0.003328  -0.000128   0.015965   0.000000   0.000000
    17  C    0.000000   0.000000   0.000000   0.000000  -0.011135   0.000242
    18  H    0.000000   0.000000   0.000000   0.000000   0.000242  -0.000373
    19  H    0.000000   0.000000   0.000000   0.000000   0.001635  -0.000065
    20  H    0.000000   0.000000   0.000000   0.000000   0.001632  -0.000064
              19         20
     1  C    0.000070   0.000070
     2  C    0.000001   0.000001
     3  C   -0.000003  -0.000003
     4  C   -0.000055  -0.000055
     5  C    0.000120   0.000118
     6  C    0.001732   0.001731
     7  H    0.000000   0.000000
     8  H    0.000000   0.000000
     9  H   -0.000027  -0.000027
    10  O   -0.002895  -0.002892
    11  H   -0.000001  -0.000001
    12  O   -0.000005  -0.000005
    13  C    0.000000   0.000000
    14  H    0.000000   0.000000
    15  H    0.000000   0.000000
    16  H    0.000000   0.000000
    17  C    0.001635   0.001632
    18  H   -0.000065  -0.000064
    19  H    0.013803  -0.003068
    20  H   -0.003068   0.013799
 Mulliken charges and spin densities:
               1          2
     1  C    0.352850   0.191472
     2  C   -0.188021  -0.074238
     3  C    0.185234   0.157551
     4  C   -0.135757   0.267049
     5  C   -0.174951  -0.105888
     6  C    0.407586   0.242614
     7  H    0.213364   0.001411
     8  H    0.214612  -0.011673
     9  H    0.209016   0.002546
    10  O   -0.481730   0.159511
    11  H    0.464391  -0.004842
    12  O   -0.547304   0.146750
    13  C   -0.545757  -0.009721
    14  H    0.222155   0.012970
    15  H    0.198702  -0.000097
    16  H    0.222143   0.012964
    17  C   -0.264986  -0.010737
    18  H    0.231653  -0.000122
    19  H    0.208404   0.011243
    20  H    0.208395   0.011237
 Sum of Mulliken charges =   1.00000   1.00000
 Mulliken charges and spin densities with hydrogens summed into heavy atoms:
               1          2
     1  C    0.352850   0.191472
     2  C    0.025344  -0.072826
     3  C    0.185234   0.157551
     4  C    0.078855   0.255376
     5  C    0.034066  -0.103342
     6  C    0.407586   0.242614
    10  O   -0.481730   0.159511
    12  O   -0.082913   0.141908
    13  C    0.097243   0.016116
    17  C    0.383465   0.011620
 Electronic spatial extent (au):  <R**2>=           1592.8221
 Charge=              1.0000 electrons
 Dipole moment (field-independent basis, Debye):
    X=              0.9444    Y=             -2.1994    Z=              0.0023  Tot=              2.3936
 Quadrupole moment (field-independent basis, Debye-Ang):
   XX=            -22.6956   YY=            -45.3769   ZZ=            -57.1730
   XY=             -1.3682   XZ=              0.0045   YZ=              0.0058
 Traceless Quadrupole moment (field-independent basis, Debye-Ang):
   XX=             19.0529   YY=             -3.6284   ZZ=            -15.4245
   XY=             -1.3682   XZ=              0.0045   YZ=              0.0058
 Octapole moment (field-independent basis, Debye-Ang**2):
  XXX=             21.9832  YYY=             -5.6371  ZZZ=              0.0007  XYY=             10.4240
  XXY=             -8.8735  XXZ=              0.0060  XZZ=              5.1184  YZZ=              3.1039
  YYZ=              0.0132  XYZ=              0.0093
 Hexadecapole moment (field-independent basis, Debye-Ang**3):
 XXXX=          -1048.2404 YYYY=           -486.3451 ZZZZ=            -65.6819 XXXY=            -23.3246
 XXXZ=              0.0068 YYYX=             19.9613 YYYZ=              0.0292 ZZZX=              0.0062
 ZZZY=              0.0005 XXYY=           -258.7482 XXZZ=           -240.2825 YYZZ=           -100.6240
 XXYZ=              0.0179 YYXZ=              0.0219 ZZXY=             -2.8481
 N-N= 5.161951938693D+02 E-N=-2.091764719449D+03  KE= 4.567975691746D+02
                          Isotropic Fermi Contact Couplings
        Atom                 a.u.       MegaHertz       Gauss      10(-4) cm-1
     1  C(13)              0.01303      14.64393       5.22532       4.88469
     2  C(13)             -0.01230     -13.82939      -4.93467      -4.61299
     3  C(13)              0.01311      14.73740       5.25867       4.91587
     4  C(13)              0.02390      26.86630       9.58656       8.96163
     5  C(13)             -0.01704     -19.15896      -6.83639      -6.39074
     6  C(13)              0.01877      21.10057       7.52921       7.03839
     7  H(1)               0.00045       2.01240       0.71807       0.67126
     8  H(1)              -0.00420     -18.75637      -6.69274      -6.25645
     9  H(1)               0.00080       3.58202       1.27815       1.19483
    10  O(17)              0.03653     -22.14387      -7.90148      -7.38640
    11  H(1)              -0.00240     -10.74862      -3.83537      -3.58535
    12  O(17)              0.02861     -17.34208      -6.18809      -5.78469
    13  C(13)             -0.00524      -5.88740      -2.10077      -1.96382
    14  H(1)               0.00683      30.51573      10.88877      10.17895
    15  H(1)              -0.00004      -0.19103      -0.06816      -0.06372
    16  H(1)               0.00682      30.50038      10.88330      10.17383
    17  C(13)             -0.00456      -5.12302      -1.82802      -1.70886
    18  H(1)              -0.00011      -0.50611      -0.18059      -0.16882
    19  H(1)               0.00489      21.84674       7.79546       7.28729
    20  H(1)               0.00488      21.83035       7.78961       7.28182
 --------------------------------------------------------
       Center         ----  Spin Dipole Couplings  ----
                      3XX-RR        3YY-RR        3ZZ-RR
 --------------------------------------------------------
     1   Atom       -0.129063     -0.115410      0.244474
     2   Atom        0.031054      0.025147     -0.056201
     3   Atom       -0.090249     -0.093133      0.183382
     4   Atom       -0.145226     -0.138297      0.283524
     5   Atom        0.039031      0.038756     -0.077787
     6   Atom       -0.144682     -0.152301      0.296984
     7   Atom        0.005840     -0.000662     -0.005178
     8   Atom       -0.014459      0.019150     -0.004690
     9   Atom        0.001497      0.004135     -0.005632
    10   Atom       -0.366471     -0.370561      0.737032
    11   Atom        0.026684     -0.012313     -0.014370
    12   Atom       -0.321121     -0.325253      0.646374
    13   Atom       -0.000798     -0.010040      0.010838
    14   Atom        0.003248     -0.001723     -0.001525
    15   Atom        0.005475     -0.002105     -0.003370
    16   Atom        0.003249     -0.001722     -0.001527
    17   Atom        0.000501      0.001931     -0.002432
    18   Atom        0.006258     -0.002618     -0.003641
    19   Atom        0.000164      0.002427     -0.002592
    20   Atom        0.000164      0.002431     -0.002595
 --------------------------------------------------------
                        XY            XZ            YZ
 --------------------------------------------------------
     1   Atom       -0.001243     -0.000019     -0.000003
     2   Atom        0.000979      0.000007      0.000012
     3   Atom       -0.004658      0.000026      0.000001
     4   Atom        0.000522     -0.000006     -0.000006
     5   Atom        0.004926      0.000005      0.000001
     6   Atom       -0.003769      0.000041     -0.000096
     7   Atom       -0.000811      0.000000      0.000000
     8   Atom        0.013829      0.000000      0.000000
     9   Atom        0.002525      0.000000      0.000000
    10   Atom       -0.009606     -0.000040     -0.000037
    11   Atom       -0.005406      0.000043      0.000005
    12   Atom        0.001533     -0.000880      0.000350
    13   Atom       -0.002442      0.000005      0.000000
    14   Atom       -0.002784      0.002974     -0.002235
    15   Atom        0.002334      0.000000      0.000000
    16   Atom       -0.002785     -0.002973      0.002235
    17   Atom       -0.008719      0.000000     -0.000003
    18   Atom       -0.003586     -0.000001      0.000001
    19   Atom       -0.004256      0.001607     -0.003404
    20   Atom       -0.004256     -0.001606      0.003403
 --------------------------------------------------------


 ---------------------------------------------------------------------------------
              Anisotropic Spin Dipole Couplings in Principal Axis System
 ---------------------------------------------------------------------------------

       Atom             a.u.   MegaHertz   Gauss  10(-4) cm-1        Axes

              Baa    -0.1292   -17.334    -6.185    -5.782  0.9959  0.0900  0.0001
     1 C(13)  Bbb    -0.1153   -15.472    -5.521    -5.161 -0.0900  0.9959  0.0000
              Bcc     0.2445    32.806    11.706    10.943 -0.0001  0.0000  1.0000
 
              Baa    -0.0562    -7.542    -2.691    -2.516 -0.0001 -0.0001  1.0000
     2 C(13)  Bbb     0.0250     3.353     1.197     1.119 -0.1594  0.9872  0.0001
              Bcc     0.0312     4.188     1.495     1.397  0.9872  0.1594  0.0001
 
              Baa    -0.0966   -12.958    -4.624    -4.322  0.5934  0.8049 -0.0001
     3 C(13)  Bbb    -0.0868   -11.650    -4.157    -3.886  0.8049 -0.5934 -0.0001
              Bcc     0.1834    24.608     8.781     8.208  0.0001  0.0000  1.0000
 
              Baa    -0.1453   -19.493    -6.956    -6.502  0.9972 -0.0747  0.0000
     4 C(13)  Bbb    -0.1383   -18.553    -6.620    -6.189  0.0747  0.9972  0.0000
              Bcc     0.2835    38.046    13.576    12.691  0.0000  0.0000  1.0000
 
              Baa    -0.0778   -10.438    -3.725    -3.482  0.0000  0.0000  1.0000
     5 C(13)  Bbb     0.0340     4.558     1.626     1.520 -0.6972  0.7169  0.0000
              Bcc     0.0438     5.880     2.098     1.961  0.7169  0.6972  0.0000
 
              Baa    -0.1539   -20.645    -7.367    -6.887  0.3802  0.9249  0.0002
     6 C(13)  Bbb    -0.1431   -19.207    -6.854    -6.407  0.9249 -0.3802 -0.0002
              Bcc     0.2970    39.852    14.220    13.293  0.0001 -0.0002  1.0000
 
              Baa    -0.0052    -2.763    -0.986    -0.922  0.0000  0.0000  1.0000
     7 H(1)   Bbb    -0.0008    -0.406    -0.145    -0.136  0.1219  0.9925  0.0000
              Bcc     0.0059     3.169     1.131     1.057  0.9925 -0.1219  0.0000
 
              Baa    -0.0194   -10.361    -3.697    -3.456  0.9413 -0.3375  0.0000
     8 H(1)   Bbb    -0.0047    -2.503    -0.893    -0.835  0.0000  0.0000  1.0000
              Bcc     0.0241    12.863     4.590     4.291  0.3375  0.9413  0.0000
 
              Baa    -0.0056    -3.005    -1.072    -1.002  0.0000  0.0000  1.0000
     9 H(1)   Bbb     0.0000    -0.017    -0.006    -0.006  0.8553 -0.5182  0.0000
              Bcc     0.0057     3.022     1.078     1.008  0.5182  0.8553  0.0000
 
              Baa    -0.3783    27.376     9.769     9.132  0.6292  0.7773  0.0000
    10 O(17)  Bbb    -0.3587    25.955     9.261     8.658  0.7773 -0.6292  0.0000
              Bcc     0.7370   -53.331   -19.030   -17.789  0.0000  0.0000  1.0000
 
              Baa    -0.0144    -7.667    -2.736    -2.558 -0.0021 -0.0082  1.0000
    11 H(1)   Bbb    -0.0130    -6.962    -2.484    -2.322  0.1348  0.9908  0.0084
              Bcc     0.0274    14.630     5.220     4.880  0.9909 -0.1348  0.0010
 
              Baa    -0.3258    23.572     8.411     7.863 -0.3139  0.9495 -0.0006
    12 O(17)  Bbb    -0.3206    23.199     8.278     7.739  0.9495  0.3139  0.0008
              Bcc     0.6464   -46.771   -16.689   -15.601 -0.0009  0.0004  1.0000
 
              Baa    -0.0106    -1.429    -0.510    -0.477  0.2407  0.9706 -0.0001
    13 C(13)  Bbb    -0.0002    -0.026    -0.009    -0.009  0.9706 -0.2407 -0.0005
              Bcc     0.0108     1.454     0.519     0.485  0.0005  0.0000  1.0000
 
              Baa    -0.0039    -2.061    -0.735    -0.687 -0.0129  0.7144  0.6996
    14 H(1)   Bbb    -0.0023    -1.254    -0.447    -0.418  0.5882  0.5712 -0.5725
              Bcc     0.0062     3.314     1.183     1.106  0.8086 -0.4042  0.4276
 
              Baa    -0.0034    -1.798    -0.642    -0.600  0.0000  0.0002  1.0000
    15 H(1)   Bbb    -0.0028    -1.476    -0.527    -0.492 -0.2725  0.9622 -0.0002
              Bcc     0.0061     3.274     1.168     1.092  0.9622  0.2725  0.0000
 
              Baa    -0.0039    -2.060    -0.735    -0.687 -0.0130  0.7140 -0.7000
    16 H(1)   Bbb    -0.0024    -1.254    -0.448    -0.418  0.5882  0.5716  0.5721
              Bcc     0.0062     3.315     1.183     1.106  0.8086 -0.4043 -0.4274
 
              Baa    -0.0075    -1.011    -0.361    -0.337  0.7354  0.6776  0.0004
    17 C(13)  Bbb    -0.0024    -0.326    -0.116    -0.109 -0.0004 -0.0001  1.0000
              Bcc     0.0100     1.337     0.477     0.446 -0.6776  0.7354 -0.0002
 
              Baa    -0.0039    -2.073    -0.740    -0.691  0.3333  0.9428 -0.0010
    18 H(1)   Bbb    -0.0036    -1.943    -0.693    -0.648  0.0004  0.0009  1.0000
              Bcc     0.0075     4.015     1.433     1.339  0.9428 -0.3333 -0.0001
 
              Baa    -0.0044    -2.357    -0.841    -0.786  0.2144  0.5385  0.8149
    19 H(1)   Bbb    -0.0027    -1.433    -0.511    -0.478  0.8092  0.3693 -0.4570
              Bcc     0.0071     3.791     1.353     1.264 -0.5470  0.7574 -0.3566
 
              Baa    -0.0044    -2.358    -0.841    -0.786 -0.2140 -0.5380  0.8153
    20 H(1)   Bbb    -0.0027    -1.433    -0.511    -0.478  0.8093  0.3697  0.4564
              Bcc     0.0071     3.791     1.353     1.264 -0.5469  0.7576  0.3563
 

 ---------------------------------------------------------------------------------

 No NMR shielding tensors so no spin-rotation constants.
 Leave Link  601 at Mon Dec 08 16:47:45 2025, MaxMem=   104857600 cpu:               0.0 elap:               0.2
 (Enter D:\Gaussian\G16W\l9999.exe)
 1|1|UNPC-PC-20250526LCFF|SP|UB3LYP|6-31G(d)|C8H10O2(1+,2)|ADMINISTRATO
 R|08-Dec-2025|0||#p b3lyp/6-31g(d) out=wfn scf=conver=7||Generated by 
 Multiwfn (http://sobereva.com/multiwfn)||1,2|C,0,0.10043691,1.0775501,
 0.00000184|C,0,-1.28248108,0.99604207,0.00008884|C,0,-1.93328506,-0.24
 648594,0.00002184|C,0,-1.15803405,-1.40251192,-0.00003216|C,0,0.240791
 95,-1.3365069,-0.00002016|C,0,0.87111894,-0.10162189,-0.00006416|H,0,-
 1.8470921,1.92205106,0.00020484|H,0,-1.63882003,-2.37439593,-0.0000461
 6|H,0,0.81912697,-2.25133189,0.00005884|O,0,2.22859193,0.12362313,-0.0
 0001116|H,0,1.6676199,2.12810212,0.00121284|O,0,0.71527889,2.29268111,
 -0.00019816|C,0,-3.44206406,-0.31078496,0.00000584|H,0,-3.86190307,0.1
 8497503,-0.88097916|H,0,-3.79367804,-1.34442697,0.00014184|H,0,-3.8619
 5707,0.18522803,0.88082184|C,0,3.09663195,-1.00037286,0.00003184|H,0,4
 .10946394,-0.60065884,-0.00032516|H,0,2.94898296,-1.61572886,0.8942348
 4|H,0,2.94859696,-1.61609386,-0.89385216||Version=EM64W-G16RevA.03|Sta
 te=2-A|HF=-461.0333218|S2=0.760605|S2-1=0.|S2A=0.750069|RMSD=8.058e-00
 8|Dipole=0.3715484,-0.8653139,0.0009171|Quadrupole=14.1653603,-2.69762
 57,-11.4677346,-1.0172442,0.0033224,0.004289|PG=C01 [X(C8H10O2)]||@

 Writing a WFN file to "N-1.wfn"


 IT TAKES GREATER CHARACTER TO CARRY OFF GOOD FORTUNE THAN BAD.
                     FRENCH PROVERB.
 Job cpu time:       0 days  0 hours  0 minutes 40.0 seconds.
 Elapsed time:       0 days  0 hours  0 minutes 39.8 seconds.
 File lengths (MBytes):  RWF=     33 Int=      0 D2E=      0 Chk=      3 Scr=      1
 Normal termination of Gaussian 16 at Mon Dec 08 16:47:45 2025.
