 Entering Link 1 = D:\Gaussian\G16W\l1.exe PID=     28468.
  
 Copyright (c) 1988,1990,1992,1993,1995,1998,2003,2009,2016,
            Gaussian, Inc.  All Rights Reserved.
  
 This is part of the Gaussian(R) 16 program.  It is based on
 the Gaussian(R) 09 system (copyright 2009, Gaussian, Inc.),
 the Gaussian(R) 03 system (copyright 2003, Gaussian, Inc.),
 the Gaussian(R) 98 system (copyright 1998, Gaussian, Inc.),
 the Gaussian(R) 94 system (copyright 1995, Gaussian, Inc.),
 the Gaussian 92(TM) system (copyright 1992, Gaussian, Inc.),
 the Gaussian 90(TM) system (copyright 1990, Gaussian, Inc.),
 the Gaussian 88(TM) system (copyright 1988, Gaussian, Inc.),
 the Gaussian 86(TM) system (copyright 1986, Carnegie Mellon
 University), and the Gaussian 82(TM) system (copyright 1983,
 Carnegie Mellon University). Gaussian is a federally registered
 trademark of Gaussian, Inc.
  
 This software contains proprietary and confidential information,
 including trade secrets, belonging to Gaussian, Inc.
  
 This software is provided under written license and may be
 used, copied, transmitted, or stored only in accord with that
 written license.
  
 The following legend is applicable only to US Government
 contracts under FAR:
  
                    RESTRICTED RIGHTS LEGEND
  
 Use, reproduction and disclosure by the US Government is
 subject to restrictions as set forth in subparagraphs (a)
 and (c) of the Commercial Computer Software - Restricted
 Rights clause in FAR 52.227-19.
  
 Gaussian, Inc.
 340 Quinnipiac St., Bldg. 40, Wallingford CT 06492
  
  
 ---------------------------------------------------------------
 Warning -- This program may not be used in any manner that
 competes with the business of Gaussian, Inc. or will provide
 assistance to any competitor of Gaussian, Inc.  The licensee
 of this program is prohibited from giving any competitor of
 Gaussian, Inc. access to this program.  By using this program,
 the user acknowledges that Gaussian, Inc. is engaged in the
 business of creating and licensing software in the field of
 computational chemistry and represents and warrants to the
 licensee that it is not a competitor of Gaussian, Inc. and that
 it will not use this program in any manner prohibited above.
 ---------------------------------------------------------------
  

 Cite this work as:
 Gaussian 16, Revision A.03,
 M. J. Frisch, G. W. Trucks, H. B. Schlegel, G. E. Scuseria, 
 M. A. Robb, J. R. Cheeseman, G. Scalmani, V. Barone, 
 G. A. Petersson, H. Nakatsuji, X. Li, M. Caricato, A. V. Marenich, 
 J. Bloino, B. G. Janesko, R. Gomperts, B. Mennucci, H. P. Hratchian, 
 J. V. Ortiz, A. F. Izmaylov, J. L. Sonnenberg, D. Williams-Young, 
 F. Ding, F. Lipparini, F. Egidi, J. Goings, B. Peng, A. Petrone, 
 T. Henderson, D. Ranasinghe, V. G. Zakrzewski, J. Gao, N. Rega, 
 G. Zheng, W. Liang, M. Hada, M. Ehara, K. Toyota, R. Fukuda, 
 J. Hasegawa, M. Ishida, T. Nakajima, Y. Honda, O. Kitao, H. Nakai, 
 T. Vreven, K. Throssell, J. A. Montgomery, Jr., J. E. Peralta, 
 F. Ogliaro, M. J. Bearpark, J. J. Heyd, E. N. Brothers, K. N. Kudin, 
 V. N. Staroverov, T. A. Keith, R. Kobayashi, J. Normand, 
 K. Raghavachari, A. P. Rendell, J. C. Burant, S. S. Iyengar, 
 J. Tomasi, M. Cossi, J. M. Millam, M. Klene, C. Adamo, R. Cammi, 
 J. W. Ochterski, R. L. Martin, K. Morokuma, O. Farkas, 
 J. B. Foresman, and D. J. Fox, Gaussian, Inc., Wallingford CT, 2016.
 
 ******************************************
 Gaussian 16:  EM64W-G16RevA.03 17-Dec-2016
                08-Dec-2025 
 ******************************************
 %nprocshared=14
 Will use up to   14 processors via shared memory.
 %nprocs=   4
 Will use up to    4 processors via shared memory.
 --------------------------------------
 #p b3lyp/6-31g(d) out=wfn scf=conver=7
 --------------------------------------
 1/38=1,172=1/1;
 2/12=2,17=6,18=5,40=1/2;
 3/5=1,6=6,7=1,11=2,25=1,30=1,74=-5/1,2,3;
 4//1;
 5/5=2,6=7,38=5/2;
 6/7=2,8=2,9=2,10=2,28=1/1;
 99/5=1,6=100,9=1/99;
 Leave Link    1 at Mon Dec 08 16:45:04 2025, MaxMem=           0 cpu:               0.0 elap:               0.2
 (Enter D:\Gaussian\G16W\l101.exe)
 ----------------------------------------------------
 Generated by Multiwfn (http://sobereva.com/multiwfn)
 ----------------------------------------------------
 Symbolic Z-matrix:
 Charge =  0 Multiplicity = 1
 C                     0.10044   1.07755   0. 
 C                    -1.28248   0.99604   0.00009 
 C                    -1.93329  -0.24649   0.00002 
 C                    -1.15803  -1.40251  -0.00003 
 C                     0.24079  -1.33651  -0.00002 
 C                     0.87112  -0.10162  -0.00006 
 H                    -1.84709   1.92205   0.0002 
 H                    -1.63882  -2.3744   -0.00005 
 H                     0.81913  -2.25133   0.00006 
 O                     2.22859   0.12362  -0.00001 
 H                     1.66762   2.1281    0.00121 
 O                     0.71528   2.29268  -0.0002 
 C                    -3.44206  -0.31078   0.00001 
 H                    -3.8619    0.18498  -0.88098 
 H                    -3.79368  -1.34443   0.00014 
 H                    -3.86196   0.18523   0.88082 
 C                     3.09663  -1.00037   0.00003 
 H                     4.10946  -0.60066  -0.00033 
 H                     2.94898  -1.61573   0.89423 
 H                     2.9486   -1.61609  -0.89385 
 
 ITRead=  0  0  0  0  0  0  0  0  0  0  0  0  0  0  0  0  0  0  0  0
 MicOpt= -1 -1 -1 -1 -1 -1 -1 -1 -1 -1 -1 -1 -1 -1 -1 -1 -1 -1 -1 -1
 NAtoms=     20 NQM=       20 NQMF=       0 NMMI=      0 NMMIF=      0
                NMic=       0 NMicF=      0.
                    Isotopes and Nuclear Properties:
 (Nuclear quadrupole moments (NQMom) in fm**2, nuclear magnetic moments (NMagM)
  in nuclear magnetons)

  Atom         1           2           3           4           5           6           7           8           9          10
 IAtWgt=          12          12          12          12          12          12           1           1           1          16
 AtmWgt=  12.0000000  12.0000000  12.0000000  12.0000000  12.0000000  12.0000000   1.0078250   1.0078250   1.0078250  15.9949146
 NucSpn=           0           0           0           0           0           0           1           1           1           0
 AtZEff=   0.0000000   0.0000000   0.0000000   0.0000000   0.0000000   0.0000000   0.0000000   0.0000000   0.0000000   0.0000000
 NQMom=    0.0000000   0.0000000   0.0000000   0.0000000   0.0000000   0.0000000   0.0000000   0.0000000   0.0000000   0.0000000
 NMagM=    0.0000000   0.0000000   0.0000000   0.0000000   0.0000000   0.0000000   2.7928460   2.7928460   2.7928460   0.0000000
 AtZNuc=   6.0000000   6.0000000   6.0000000   6.0000000   6.0000000   6.0000000   1.0000000   1.0000000   1.0000000   8.0000000

  Atom        11          12          13          14          15          16          17          18          19          20
 IAtWgt=           1          16          12           1           1           1          12           1           1           1
 AtmWgt=   1.0078250  15.9949146  12.0000000   1.0078250   1.0078250   1.0078250  12.0000000   1.0078250   1.0078250   1.0078250
 NucSpn=           1           0           0           1           1           1           0           1           1           1
 AtZEff=   0.0000000   0.0000000   0.0000000   0.0000000   0.0000000   0.0000000   0.0000000   0.0000000   0.0000000   0.0000000
 NQMom=    0.0000000   0.0000000   0.0000000   0.0000000   0.0000000   0.0000000   0.0000000   0.0000000   0.0000000   0.0000000
 NMagM=    2.7928460   0.0000000   0.0000000   2.7928460   2.7928460   2.7928460   0.0000000   2.7928460   2.7928460   2.7928460
 AtZNuc=   1.0000000   8.0000000   6.0000000   1.0000000   1.0000000   1.0000000   6.0000000   1.0000000   1.0000000   1.0000000
 Leave Link  101 at Mon Dec 08 16:45:04 2025, MaxMem=   104857600 cpu:               0.0 elap:               0.1
 (Enter D:\Gaussian\G16W\l202.exe)
                          Input orientation:                          
 ---------------------------------------------------------------------
 Center     Atomic      Atomic             Coordinates (Angstroms)
 Number     Number       Type             X           Y           Z
 ---------------------------------------------------------------------
      1          6           0        0.100437    1.077550    0.000002
      2          6           0       -1.282481    0.996042    0.000089
      3          6           0       -1.933285   -0.246486    0.000022
      4          6           0       -1.158034   -1.402512   -0.000032
      5          6           0        0.240792   -1.336507   -0.000020
      6          6           0        0.871119   -0.101622   -0.000064
      7          1           0       -1.847092    1.922051    0.000205
      8          1           0       -1.638820   -2.374396   -0.000046
      9          1           0        0.819127   -2.251332    0.000059
     10          8           0        2.228592    0.123623   -0.000011
     11          1           0        1.667620    2.128102    0.001213
     12          8           0        0.715279    2.292681   -0.000198
     13          6           0       -3.442064   -0.310785    0.000006
     14          1           0       -3.861903    0.184975   -0.880979
     15          1           0       -3.793678   -1.344427    0.000142
     16          1           0       -3.861957    0.185228    0.880822
     17          6           0        3.096632   -1.000373    0.000032
     18          1           0        4.109464   -0.600659   -0.000325
     19          1           0        2.948983   -1.615729    0.894235
     20          1           0        2.948597   -1.616094   -0.893852
 ---------------------------------------------------------------------
                    Distance matrix (angstroms):
                    1          2          3          4          5
     1  C    0.000000
     2  C    1.385318   0.000000
     3  C    2.426746   1.402648   0.000000
     4  C    2.781089   2.401780   1.391909   0.000000
     5  C    2.418134   2.785883   2.432027   1.400382   0.000000
     6  C    1.408686   2.417201   2.808143   2.410348   1.386453
     7  H    2.122746   1.084564   2.170249   3.395220   3.870072
     8  H    3.865352   3.389223   2.148188   1.084303   2.147127
     9  H    3.405579   3.868100   3.405169   2.151665   1.082301
    10  O    2.332171   3.617838   4.178301   3.714609   2.466440
    11  H    1.886723   3.159851   4.313373   4.522119   3.746913
    12  O    1.361827   2.381663   3.669095   4.142916   3.660074
    13  C    3.804837   2.524202   1.510148   2.531533   3.823027
    14  H    4.156075   2.843858   2.163767   3.256853   4.463530
    15  H    4.585859   3.432769   2.160217   2.636284   4.034478
    16  H    4.156038   2.843731   2.163784   3.256996   4.463643
    17  C    3.646224   4.812723   5.086100   4.273628   2.875554
    18  H    4.346111   5.623391   6.053119   5.328180   3.938032
    19  H    4.020898   5.052339   5.148882   4.208653   2.865651
    20  H    4.020785   5.052168   5.148554   4.208200   2.865190
                    6          7          8          9         10
     6  C    0.000000
     7  H    3.388794   0.000000
     8  H    3.386044   4.301492   0.000000
     9  H    2.150339   4.952358   2.461026   0.000000
    10  O    1.376034   4.454834   4.604017   2.761703   0.000000
    11  H    2.367717   3.520747   5.586147   4.460873   2.081496
    12  O    2.399369   2.589037   5.227178   4.545200   2.644793
    13  C    4.318252   2.743992   2.740471   4.682251   5.687271
    14  H    4.822826   2.802389   3.502645   5.350127   6.154185
    15  H    4.827514   3.802509   2.388357   4.701111   6.198621
    16  H    4.822888   2.802092   3.502848   5.350244   6.154222
    17  C    2.400138   5.742906   4.930765   2.598447   1.420162
    18  H    3.276571   6.468742   6.015722   3.681174   2.015506
    19  H    2.722097   6.026401   4.735319   2.395794   2.084223
    20  H    2.721837   6.026312   4.734797   2.395255   2.084220
                   11         12         13         14         15
    11  H    0.000000
    12  O    0.966458   0.000000
    13  C    5.661894   4.905256   0.000000
    14  H    5.927025   5.115544   1.094613   0.000000
    15  H    6.471803   5.793034   1.091810   1.766380   0.000000
    16  H    5.926609   5.115530   1.094612   1.761801   1.766382
    17  C    3.439394   4.063871   6.574958   7.113539   6.898894
    18  H    3.661795   4.460035   7.557090   8.058254   7.938063
    19  H    4.056556   4.589675   6.583920   7.265128   6.807091
    20  H    4.057222   4.589646   6.583568   7.044638   6.806710
                   16         17         18         19         20
    16  H    0.000000
    17  C    7.113607   0.000000
    18  H    8.058386   1.088853   0.000000
    19  H    7.045036   1.095474   1.782504   0.000000
    20  H    7.264838   1.095470   1.782445   1.788087   0.000000
 Stoichiometry    C8H10O2
 Framework group  C1[X(C8H10O2)]
 Deg. of freedom    54
 Full point group                 C1      NOp   1
 Largest Abelian subgroup         C1      NOp   1
 Largest concise Abelian subgroup C1      NOp   1
                         Standard orientation:                         
 ---------------------------------------------------------------------
 Center     Atomic      Atomic             Coordinates (Angstroms)
 Number     Number       Type             X           Y           Z
 ---------------------------------------------------------------------
      1          6           0        0.100437    1.077550    0.000002
      2          6           0       -1.282481    0.996042    0.000089
      3          6           0       -1.933285   -0.246486    0.000022
      4          6           0       -1.158034   -1.402512   -0.000032
      5          6           0        0.240792   -1.336507   -0.000020
      6          6           0        0.871119   -0.101622   -0.000064
      7          1           0       -1.847092    1.922051    0.000205
      8          1           0       -1.638820   -2.374396   -0.000046
      9          1           0        0.819127   -2.251332    0.000059
     10          8           0        2.228592    0.123623   -0.000011
     11          1           0        1.667620    2.128102    0.001213
     12          8           0        0.715279    2.292681   -0.000198
     13          6           0       -3.442064   -0.310785    0.000006
     14          1           0       -3.861903    0.184975   -0.880979
     15          1           0       -3.793678   -1.344427    0.000142
     16          1           0       -3.861957    0.185228    0.880822
     17          6           0        3.096632   -1.000373    0.000032
     18          1           0        4.109464   -0.600659   -0.000325
     19          1           0        2.948983   -1.615729    0.894235
     20          1           0        2.948597   -1.616094   -0.893852
 ---------------------------------------------------------------------
 Rotational constants (GHZ):           2.5438199           0.9581482           0.7021369
 Leave Link  202 at Mon Dec 08 16:45:04 2025, MaxMem=   104857600 cpu:               0.0 elap:               0.1
 (Enter D:\Gaussian\G16W\l301.exe)
 Standard basis: 6-31G(d) (6D, 7F)
 Ernie: Thresh=  0.10000D-02 Tol=  0.10000D-05 Strict=F.
 There are   170 symmetry adapted cartesian basis functions of A   symmetry.
 There are   170 symmetry adapted basis functions of A   symmetry.
   170 basis functions,   320 primitive gaussians,   170 cartesian basis functions
    37 alpha electrons       37 beta electrons
       nuclear repulsion energy       516.1951938693 Hartrees.
 IExCor=  402 DFT=T Ex+Corr=B3LYP ExCW=0 ScaHFX=  0.200000
 ScaDFX=  0.800000  0.720000  1.000000  0.810000 ScalE2=  1.000000  1.000000
 IRadAn=      5 IRanWt=     -1 IRanGd=            0 ICorTp=0 IEmpDi=  4
 NAtoms=   20 NActive=   20 NUniq=   20 SFac= 1.00D+00 NAtFMM=   60 NAOKFM=F Big=F
 Integral buffers will be    131072 words long.
 Raffenetti 2 integral format.
 Two-electron integral symmetry is turned on.
 Leave Link  301 at Mon Dec 08 16:45:04 2025, MaxMem=   104857600 cpu:               0.0 elap:               0.1
 (Enter D:\Gaussian\G16W\l302.exe)
 NPDir=0 NMtPBC=     1 NCelOv=     1 NCel=       1 NClECP=     1 NCelD=      1
         NCelK=      1 NCelE2=     1 NClLst=     1 CellRange=     0.0.
 One-electron integrals computed using PRISM.
 One-electron integral symmetry used in STVInt
 NBasis=   170 RedAO= T EigKep=  3.78D-04  NBF=   170
 NBsUse=   170 1.00D-06 EigRej= -1.00D+00 NBFU=   170
 Precomputing XC quadrature grid using
 IXCGrd= 4 IRadAn=           5 IRanWt=          -1 IRanGd=           0 AccXCQ= 0.00D+00.
 Generated NRdTot=       0 NPtTot=           0 NUsed=           0 NTot=          32
 NSgBfM=   170   170   170   170   170 MxSgAt=    20 MxSgA2=    20.
 Leave Link  302 at Mon Dec 08 16:45:05 2025, MaxMem=   104857600 cpu:               1.0 elap:               0.4
 (Enter D:\Gaussian\G16W\l303.exe)
 DipDrv:  MaxL=1.
 Leave Link  303 at Mon Dec 08 16:45:05 2025, MaxMem=   104857600 cpu:               0.0 elap:               0.1
 (Enter D:\Gaussian\G16W\l401.exe)
 ExpMin= 1.61D-01 ExpMax= 5.48D+03 ExpMxC= 8.25D+02 IAcc=3 IRadAn=         5 AccDes= 0.00D+00
 Harris functional with IExCor=  402 and IRadAn=       5 diagonalized for initial guess.
 HarFok:  IExCor=  402 AccDes= 0.00D+00 IRadAn=         5 IDoV= 1 UseB2=F ITyADJ=14
 ICtDFT=  3500011 ScaDFX=  1.000000  1.000000  1.000000  1.000000
 FoFCou: FMM=F IPFlag=           0 FMFlag=      100000 FMFlg1=           0
         NFxFlg=           0 DoJE=T BraDBF=F KetDBF=T FulRan=T
         wScrn=  0.000000 ICntrl=       500 IOpCl=  0 I1Cent=   200000004 NGrid=           0
         NMat0=    1 NMatS0=      1 NMatT0=    0 NMatD0=    1 NMtDS0=    0 NMtDT0=    0
 Petite list used in FoFCou.
 Harris En= -461.339874161494    
 JPrj=0 DoOrth=F DoCkMO=F.
 Leave Link  401 at Mon Dec 08 16:45:06 2025, MaxMem=   104857600 cpu:               1.0 elap:               1.1
 (Enter D:\Gaussian\G16W\l502.exe)
 Integral symmetry usage will be decided dynamically.
 Closed shell SCF:
 Using DIIS extrapolation, IDIIS=  1040.
 NGot=   104857600 LenX=   104796738 LenY=   104767397
 Requested convergence on RMS density matrix=1.00D-07 within 128 cycles.
 Requested convergence on MAX density matrix=1.00D-05.
 Requested convergence on             energy=1.00D-05.
 No special actions if energy rises.
 Fock matrices will be formed incrementally for  20 cycles.
 Integral accuracy reduced to 1.0D-05 until final iterations.

 Cycle   1  Pass 0  IDiag  1:
 FoFJK:  IHMeth= 1 ICntrl=       0 DoSepK=F KAlg= 0 I1Cent=           0 FoldK=F
 IRaf= 920000000 NMat=       1 IRICut=       1 DoRegI=T DoRafI=F ISym2E= 0 IDoP0=0 IntGTp=1.
 FoFCou: FMM=F IPFlag=           0 FMFlag=      100000 FMFlg1=           0
         NFxFlg=           0 DoJE=F BraDBF=F KetDBF=F FulRan=T
         wScrn=  0.000000 ICntrl=         0 IOpCl=  0 I1Cent=           0 NGrid=           0
         NMat0=    1 NMatS0=      1 NMatT0=    0 NMatD0=    1 NMtDS0=    0 NMtDT0=    0
 Symmetry not used in FoFCou.
 E= -461.054247405355    
 DIIS: error= 4.02D-02 at cycle   1 NSaved=   1.
 NSaved= 1 IEnMin= 1 EnMin= -461.054247405355     IErMin= 1 ErrMin= 4.02D-02
 ErrMax= 4.02D-02  0.00D+00 EMaxC= 1.00D-01 BMatC= 2.48D-01 BMatP= 2.48D-01
 IDIUse=3 WtCom= 5.98D-01 WtEn= 4.02D-01
 Coeff-Com:  0.100D+01
 Coeff-En:   0.100D+01
 Coeff:      0.100D+01
 Gap=     0.232 Goal=   None    Shift=    0.000
 GapD=    0.232 DampG=1.000 DampE=0.500 DampFc=0.5000 IDamp=-1.
 Damping current iteration by 5.00D-01
 RMSDP=6.66D-03 MaxDP=1.36D-01              OVMax= 2.03D-01

 Cycle   2  Pass 0  IDiag  1:
 RMSU=  3.28D-03    CP:  9.79D-01
 E= -461.165747140095     Delta-E=       -0.111499734740 Rises=F Damp=T
 DIIS: error= 6.60D-03 at cycle   2 NSaved=   2.
 NSaved= 2 IEnMin= 2 EnMin= -461.165747140095     IErMin= 2 ErrMin= 6.60D-03
 ErrMax= 6.60D-03  0.00D+00 EMaxC= 1.00D-01 BMatC= 1.62D-02 BMatP= 2.48D-01
 IDIUse=3 WtCom= 9.34D-01 WtEn= 6.60D-02
 Coeff-Com:  0.577D-01 0.942D+00
 Coeff-En:   0.106D+00 0.894D+00
 Coeff:      0.609D-01 0.939D+00
 Gap=     0.224 Goal=   None    Shift=    0.000
 RMSDP=2.08D-03 MaxDP=4.79D-02 DE=-1.11D-01 OVMax= 1.90D-01

 Cycle   3  Pass 0  IDiag  1:
 RMSU=  1.95D-03    CP:  9.70D-01  7.93D-01
 E= -461.286233288592     Delta-E=       -0.120486148497 Rises=F Damp=F
 DIIS: error= 1.08D-02 at cycle   3 NSaved=   3.
 NSaved= 3 IEnMin= 3 EnMin= -461.286233288592     IErMin= 2 ErrMin= 6.60D-03
 ErrMax= 1.08D-02  0.00D+00 EMaxC= 1.00D-01 BMatC= 1.85D-02 BMatP= 1.62D-02
 IDIUse=2 WtCom= 0.00D+00 WtEn= 1.00D+00
 Coeff-En:   0.000D+00 0.000D+00 0.100D+01
 Coeff:      0.000D+00 0.000D+00 0.100D+01
 Gap=     0.223 Goal=   None    Shift=    0.000
 RMSDP=2.66D-03 MaxDP=8.21D-02 DE=-1.20D-01 OVMax= 1.91D-01

 Cycle   4  Pass 0  IDiag  1:
 RMSU=  1.52D-03    CP:  9.73D-01  1.07D+00 -1.14D-02
 E= -461.223100917216     Delta-E=        0.063132371375 Rises=F Damp=F
 DIIS: error= 2.09D-02 at cycle   4 NSaved=   4.
 NSaved= 4 IEnMin= 3 EnMin= -461.286233288592     IErMin= 2 ErrMin= 6.60D-03
 ErrMax= 2.09D-02  0.00D+00 EMaxC= 1.00D-01 BMatC= 7.60D-02 BMatP= 1.62D-02
 IDIUse=2 WtCom= 0.00D+00 WtEn= 1.00D+00
 Coeff-En:   0.000D+00 0.000D+00 0.754D+00 0.246D+00
 Coeff:      0.000D+00 0.000D+00 0.754D+00 0.246D+00
 Gap=     0.217 Goal=   None    Shift=    0.000
 RMSDP=1.35D-03 MaxDP=4.21D-02 DE= 6.31D-02 OVMax= 9.69D-02

 Cycle   5  Pass 0  IDiag  1:
 RMSU=  1.57D-04    CP:  9.72D-01  9.11D-01  4.91D-01  5.11D-01
 E= -461.301392525919     Delta-E=       -0.078291608702 Rises=F Damp=F
 DIIS: error= 5.33D-03 at cycle   5 NSaved=   5.
 NSaved= 5 IEnMin= 5 EnMin= -461.301392525919     IErMin= 5 ErrMin= 5.33D-03
 ErrMax= 5.33D-03  0.00D+00 EMaxC= 1.00D-01 BMatC= 4.73D-03 BMatP= 1.62D-02
 IDIUse=3 WtCom= 9.47D-01 WtEn= 5.33D-02
 Coeff-Com: -0.296D-03 0.802D-02 0.256D+00-0.810D-01 0.818D+00
 Coeff-En:   0.000D+00 0.000D+00 0.250D+00 0.000D+00 0.750D+00
 Coeff:     -0.280D-03 0.760D-02 0.255D+00-0.767D-01 0.814D+00
 Gap=     0.212 Goal=   None    Shift=    0.000
 RMSDP=4.51D-04 MaxDP=1.39D-02 DE=-7.83D-02 OVMax= 3.19D-02

 Cycle   6  Pass 0  IDiag  1:
 RMSU=  6.31D-05    CP:  9.71D-01  8.71D-01  6.60D-01  3.33D-01  9.04D-01
 E= -461.306511621577     Delta-E=       -0.005119095658 Rises=F Damp=F
 DIIS: error= 3.67D-04 at cycle   6 NSaved=   6.
 NSaved= 6 IEnMin= 6 EnMin= -461.306511621577     IErMin= 6 ErrMin= 3.67D-04
 ErrMax= 3.67D-04  0.00D+00 EMaxC= 1.00D-01 BMatC= 2.64D-05 BMatP= 4.73D-03
 IDIUse=3 WtCom= 9.96D-01 WtEn= 3.67D-03
 Coeff-Com: -0.146D-02 0.423D-02 0.103D+00-0.694D-01 0.481D+00 0.484D+00
 Coeff-En:   0.000D+00 0.000D+00 0.000D+00 0.000D+00 0.000D+00 0.100D+01
 Coeff:     -0.146D-02 0.421D-02 0.102D+00-0.691D-01 0.479D+00 0.485D+00
 Gap=     0.212 Goal=   None    Shift=    0.000
 RMSDP=3.01D-05 MaxDP=9.23D-04 DE=-5.12D-03 OVMax= 8.66D-04

 Cycle   7  Pass 0  IDiag  1:
 RMSU=  1.08D-05    CP:  9.71D-01  8.70D-01  6.59D-01  3.38D-01  9.43D-01
                    CP:  5.88D-01
 E= -461.306533042203     Delta-E=       -0.000021420625 Rises=F Damp=F
 DIIS: error= 3.88D-05 at cycle   7 NSaved=   7.
 NSaved= 7 IEnMin= 7 EnMin= -461.306533042203     IErMin= 7 ErrMin= 3.88D-05
 ErrMax= 3.88D-05  0.00D+00 EMaxC= 1.00D-01 BMatC= 2.99D-07 BMatP= 2.64D-05
 IDIUse=1 WtCom= 1.00D+00 WtEn= 0.00D+00
 Coeff-Com: -0.360D-03 0.771D-03 0.335D-01-0.228D-01 0.156D+00 0.178D+00
 Coeff-Com:  0.655D+00
 Coeff:     -0.360D-03 0.771D-03 0.335D-01-0.228D-01 0.156D+00 0.178D+00
 Coeff:      0.655D+00
 Gap=     0.212 Goal=   None    Shift=    0.000
 RMSDP=4.08D-06 MaxDP=1.25D-04 DE=-2.14D-05 OVMax= 2.26D-04

 Initial convergence to 1.0D-05 achieved.  Increase integral accuracy.
 Cycle   8  Pass 1  IDiag  1:
 E= -461.306519450287     Delta-E=        0.000013591915 Rises=F Damp=F
 DIIS: error= 2.03D-05 at cycle   1 NSaved=   1.
 NSaved= 1 IEnMin= 1 EnMin= -461.306519450287     IErMin= 1 ErrMin= 2.03D-05
 ErrMax= 2.03D-05  0.00D+00 EMaxC= 1.00D-01 BMatC= 1.07D-07 BMatP= 1.07D-07
 IDIUse=1 WtCom= 1.00D+00 WtEn= 0.00D+00
 Coeff-Com:  0.100D+01
 Coeff:      0.100D+01
 Gap=     0.212 Goal=   None    Shift=    0.000
 RMSDP=4.08D-06 MaxDP=1.25D-04 DE= 1.36D-05 OVMax= 2.72D-04

 Cycle   9  Pass 1  IDiag  1:
 RMSU=  8.20D-06    CP:  1.00D+00
 E= -461.306519324365     Delta-E=        0.000000125922 Rises=F Damp=F
 DIIS: error= 3.18D-05 at cycle   2 NSaved=   2.
 NSaved= 2 IEnMin= 1 EnMin= -461.306519450287     IErMin= 1 ErrMin= 2.03D-05
 ErrMax= 3.18D-05  0.00D+00 EMaxC= 1.00D-01 BMatC= 2.30D-07 BMatP= 1.07D-07
 IDIUse=1 WtCom= 1.00D+00 WtEn= 0.00D+00
 Coeff-Com:  0.601D+00 0.399D+00
 Coeff:      0.601D+00 0.399D+00
 Gap=     0.212 Goal=   None    Shift=    0.000
 RMSDP=3.09D-06 MaxDP=1.13D-04 DE= 1.26D-07 OVMax= 2.28D-04

 Cycle  10  Pass 1  IDiag  1:
 RMSU=  2.57D-06    CP:  1.00D+00  7.90D-01
 E= -461.306519543696     Delta-E=       -0.000000219331 Rises=F Damp=F
 DIIS: error= 5.04D-06 at cycle   3 NSaved=   3.
 NSaved= 3 IEnMin= 3 EnMin= -461.306519543696     IErMin= 3 ErrMin= 5.04D-06
 ErrMax= 5.04D-06  0.00D+00 EMaxC= 1.00D-01 BMatC= 4.37D-09 BMatP= 1.07D-07
 IDIUse=1 WtCom= 1.00D+00 WtEn= 0.00D+00
 Coeff-Com:  0.146D+00 0.153D+00 0.700D+00
 Coeff:      0.146D+00 0.153D+00 0.700D+00
 Gap=     0.212 Goal=   None    Shift=    0.000
 RMSDP=6.87D-07 MaxDP=1.58D-05 DE=-2.19D-07 OVMax= 4.38D-05

 Cycle  11  Pass 1  IDiag  1:
 RMSU=  5.35D-07    CP:  1.00D+00  8.20D-01  8.62D-01
 E= -461.306519545821     Delta-E=       -0.000000002125 Rises=F Damp=F
 DIIS: error= 3.53D-06 at cycle   4 NSaved=   4.
 NSaved= 4 IEnMin= 4 EnMin= -461.306519545821     IErMin= 4 ErrMin= 3.53D-06
 ErrMax= 3.53D-06  0.00D+00 EMaxC= 1.00D-01 BMatC= 2.46D-09 BMatP= 4.37D-09
 IDIUse=1 WtCom= 1.00D+00 WtEn= 0.00D+00
 Coeff-Com: -0.361D-02 0.378D-01 0.472D+00 0.494D+00
 Coeff:     -0.361D-02 0.378D-01 0.472D+00 0.494D+00
 Gap=     0.212 Goal=   None    Shift=    0.000
 RMSDP=3.26D-07 MaxDP=7.65D-06 DE=-2.12D-09 OVMax= 2.27D-05

 Cycle  12  Pass 1  IDiag  1:
 RMSU=  1.01D-07    CP:  1.00D+00  8.17D-01  9.11D-01  4.73D-01
 E= -461.306519548305     Delta-E=       -0.000000002484 Rises=F Damp=F
 DIIS: error= 5.28D-07 at cycle   5 NSaved=   5.
 NSaved= 5 IEnMin= 5 EnMin= -461.306519548305     IErMin= 5 ErrMin= 5.28D-07
 ErrMax= 5.28D-07  0.00D+00 EMaxC= 1.00D-01 BMatC= 6.45D-11 BMatP= 2.46D-09
 IDIUse=1 WtCom= 1.00D+00 WtEn= 0.00D+00
 Coeff-Com: -0.541D-02 0.201D-01 0.271D+00 0.305D+00 0.409D+00
 Coeff:     -0.541D-02 0.201D-01 0.271D+00 0.305D+00 0.409D+00
 Gap=     0.212 Goal=   None    Shift=    0.000
 RMSDP=4.97D-08 MaxDP=1.26D-06 DE=-2.48D-09 OVMax= 2.08D-06

 SCF Done:  E(RB3LYP) =  -461.306519548     A.U. after   12 cycles
            NFock= 12  Conv=0.50D-07     -V/T= 2.0092
 KE= 4.571102241793D+02 PE=-2.106662680727D+03 EE= 6.720507431297D+02
 Leave Link  502 at Mon Dec 08 16:45:21 2025, MaxMem=   104857600 cpu:              15.0 elap:              14.4
 (Enter D:\Gaussian\G16W\l601.exe)
 Copying SCF densities to generalized density rwf, IOpCl= 0 IROHF=0.

 **********************************************************************

            Population analysis using the SCF density.

 **********************************************************************

 Orbital symmetries:
       Occupied  (A) (A) (A) (A) (A) (A) (A) (A) (A) (A) (A) (A)
                 (A) (A) (A) (A) (A) (A) (A) (A) (A) (A) (A) (A)
                 (A) (A) (A) (A) (A) (A) (A) (A) (A) (A) (A) (A)
                 (A)
       Virtual   (A) (A) (A) (A) (A) (A) (A) (A) (A) (A) (A) (A)
                 (A) (A) (A) (A) (A) (A) (A) (A) (A) (A) (A) (A)
                 (A) (A) (A) (A) (A) (A) (A) (A) (A) (A) (A) (A)
                 (A) (A) (A) (A) (A) (A) (A) (A) (A) (A) (A) (A)
                 (A) (A) (A) (A) (A) (A) (A) (A) (A) (A) (A) (A)
                 (A) (A) (A) (A) (A) (A) (A) (A) (A) (A) (A) (A)
                 (A) (A) (A) (A) (A) (A) (A) (A) (A) (A) (A) (A)
                 (A) (A) (A) (A) (A) (A) (A) (A) (A) (A) (A) (A)
                 (A) (A) (A) (A) (A) (A) (A) (A) (A) (A) (A) (A)
                 (A) (A) (A) (A) (A) (A) (A) (A) (A) (A) (A) (A)
                 (A) (A) (A) (A) (A) (A) (A) (A) (A) (A) (A) (A)
                 (A)
 The electronic state is 1-A.
 Alpha  occ. eigenvalues --  -19.18591 -19.16509 -10.24727 -10.23896 -10.23754
 Alpha  occ. eigenvalues --  -10.18576 -10.18454 -10.17568 -10.17521 -10.17323
 Alpha  occ. eigenvalues --   -1.07475  -1.04237  -0.84484  -0.76751  -0.73648
 Alpha  occ. eigenvalues --   -0.71978  -0.66193  -0.60300  -0.59313  -0.53926
 Alpha  occ. eigenvalues --   -0.51438  -0.47868  -0.47471  -0.44343  -0.44138
 Alpha  occ. eigenvalues --   -0.42753  -0.41501  -0.39609  -0.39298  -0.36856
 Alpha  occ. eigenvalues --   -0.36432  -0.34001  -0.33871  -0.33219  -0.30666
 Alpha  occ. eigenvalues --   -0.22845  -0.19924
 Alpha virt. eigenvalues --    0.01233   0.02609   0.08029   0.09605   0.11475
 Alpha virt. eigenvalues --    0.13525   0.14717   0.15456   0.15798   0.16237
 Alpha virt. eigenvalues --    0.16574   0.17259   0.20356   0.21295   0.23329
 Alpha virt. eigenvalues --    0.25175   0.28572   0.32634   0.34952   0.36508
 Alpha virt. eigenvalues --    0.39460   0.46643   0.51232   0.51895   0.52708
 Alpha virt. eigenvalues --    0.54109   0.54216   0.55817   0.56657   0.57078
 Alpha virt. eigenvalues --    0.60202   0.61150   0.62561   0.63669   0.66020
 Alpha virt. eigenvalues --    0.66098   0.69229   0.71398   0.72901   0.72935
 Alpha virt. eigenvalues --    0.75754   0.76681   0.80179   0.82820   0.83534
 Alpha virt. eigenvalues --    0.85315   0.86994   0.88754   0.88928   0.91020
 Alpha virt. eigenvalues --    0.92426   0.93666   0.95733   0.96367   0.97223
 Alpha virt. eigenvalues --    0.98034   1.00652   1.03266   1.06574   1.07098
 Alpha virt. eigenvalues --    1.11507   1.13975   1.17899   1.22629   1.24637
 Alpha virt. eigenvalues --    1.24780   1.27332   1.33664   1.34537   1.40346
 Alpha virt. eigenvalues --    1.40946   1.41387   1.45316   1.46561   1.50116
 Alpha virt. eigenvalues --    1.50209   1.51622   1.67223   1.73550   1.74116
 Alpha virt. eigenvalues --    1.77122   1.79804   1.83544   1.86573   1.87552
 Alpha virt. eigenvalues --    1.88601   1.90966   1.92824   1.94040   1.96546
 Alpha virt. eigenvalues --    2.00748   2.03146   2.03482   2.07797   2.11648
 Alpha virt. eigenvalues --    2.12768   2.13421   2.19141   2.22635   2.24793
 Alpha virt. eigenvalues --    2.28962   2.29964   2.33278   2.34067   2.36723
 Alpha virt. eigenvalues --    2.37551   2.40696   2.44932   2.46381   2.56493
 Alpha virt. eigenvalues --    2.59846   2.60885   2.68660   2.68682   2.69798
 Alpha virt. eigenvalues --    2.78814   2.83015   2.86897   2.92032   2.94340
 Alpha virt. eigenvalues --    3.05101   3.24086   3.45363   3.94229   4.09977
 Alpha virt. eigenvalues --    4.11410   4.19319   4.20351   4.26318   4.36128
 Alpha virt. eigenvalues --    4.39506   4.55896   4.94306
          Condensed to atoms (all electrons):
               1          2          3          4          5          6
     1  C    4.607675   0.537844  -0.003172  -0.044071  -0.029447   0.441240
     2  C    0.537844   5.064934   0.520111  -0.029924  -0.052529  -0.054440
     3  C   -0.003172   0.520111   4.603721   0.571633  -0.020569  -0.036218
     4  C   -0.044071  -0.029924   0.571633   4.966454   0.468898  -0.006131
     5  C   -0.029447  -0.052529  -0.020569   0.468898   5.117433   0.457198
     6  C    0.441240  -0.054440  -0.036218  -0.006131   0.457198   4.773890
     7  H   -0.038152   0.345971  -0.051169   0.006281  -0.000196   0.007948
     8  H    0.000516   0.006455  -0.038099   0.352518  -0.045314   0.003615
     9  H    0.002758   0.000954   0.003429  -0.032688   0.349554  -0.045018
    10  O   -0.053080   0.003712   0.000107   0.003758  -0.067509   0.243777
    11  H   -0.036420   0.005054  -0.000031  -0.000141   0.001603  -0.013496
    12  O    0.297765  -0.051800   0.002532   0.000108   0.005331  -0.064518
    13  C    0.006137  -0.069023   0.353632  -0.053128   0.008293   0.000327
    14  H   -0.000023  -0.002378  -0.027195   0.000329  -0.000190   0.000027
    15  H   -0.000156   0.003662  -0.029494  -0.002782   0.000122   0.000012
    16  H   -0.000022  -0.002375  -0.027198   0.000331  -0.000190   0.000027
    17  C    0.004278  -0.000136   0.000002   0.000164  -0.004709  -0.040138
    18  H    0.000038   0.000006   0.000000   0.000001   0.000104   0.003083
    19  H   -0.000205  -0.000006  -0.000003  -0.000128   0.005022  -0.003828
    20  H   -0.000205  -0.000006  -0.000003  -0.000128   0.005023  -0.003833
               7          8          9         10         11         12
     1  C   -0.038152   0.000516   0.002758  -0.053080  -0.036420   0.297765
     2  C    0.345971   0.006455   0.000954   0.003712   0.005054  -0.051800
     3  C   -0.051169  -0.038099   0.003429   0.000107  -0.000031   0.002532
     4  C    0.006281   0.352518  -0.032688   0.003758  -0.000141   0.000108
     5  C   -0.000196  -0.045314   0.349554  -0.067509   0.001603   0.005331
     6  C    0.007948   0.003615  -0.045018   0.243777  -0.013496  -0.064518
     7  H    0.607146  -0.000173   0.000018  -0.000059  -0.000355  -0.001178
     8  H   -0.000173   0.613481  -0.005434  -0.000046   0.000000   0.000002
     9  H    0.000018  -0.005434   0.596003  -0.007191  -0.000008  -0.000051
    10  O   -0.000059  -0.000046  -0.007191   8.267541   0.029056  -0.011866
    11  H   -0.000355   0.000000  -0.000008   0.029056   0.347515   0.245499
    12  O   -0.001178   0.000002  -0.000051  -0.011866   0.245499   8.232703
    13  C   -0.008963  -0.010991  -0.000204   0.000000   0.000005  -0.000052
    14  H    0.001944   0.000128   0.000003   0.000000   0.000000  -0.000001
    15  H    0.000052   0.007146  -0.000007   0.000000   0.000000   0.000000
    16  H    0.001946   0.000127   0.000003   0.000000   0.000000  -0.000001
    17  C    0.000003  -0.000008   0.006028   0.248682  -0.001310   0.000261
    18  H    0.000000   0.000000  -0.000071  -0.032939  -0.000135   0.000008
    19  H    0.000000   0.000003   0.001448  -0.035942   0.000106  -0.000018
    20  H    0.000000   0.000003   0.001450  -0.035932   0.000107  -0.000018
              13         14         15         16         17         18
     1  C    0.006137  -0.000023  -0.000156  -0.000022   0.004278   0.000038
     2  C   -0.069023  -0.002378   0.003662  -0.002375  -0.000136   0.000006
     3  C    0.353632  -0.027195  -0.029494  -0.027198   0.000002   0.000000
     4  C   -0.053128   0.000329  -0.002782   0.000331   0.000164   0.000001
     5  C    0.008293  -0.000190   0.000122  -0.000190  -0.004709   0.000104
     6  C    0.000327   0.000027   0.000012   0.000027  -0.040138   0.003083
     7  H   -0.008963   0.001944   0.000052   0.001946   0.000003   0.000000
     8  H   -0.010991   0.000128   0.007146   0.000127  -0.000008   0.000000
     9  H   -0.000204   0.000003  -0.000007   0.000003   0.006028  -0.000071
    10  O    0.000000   0.000000   0.000000   0.000000   0.248682  -0.032939
    11  H    0.000005   0.000000   0.000000   0.000000  -0.001310  -0.000135
    12  O   -0.000052  -0.000001   0.000000  -0.000001   0.000261   0.000008
    13  C    5.213119   0.363045   0.364457   0.363046   0.000000   0.000000
    14  H    0.363045   0.566661  -0.028175  -0.034327   0.000000   0.000000
    15  H    0.364457  -0.028175   0.561944  -0.028174   0.000000   0.000000
    16  H    0.363046  -0.034327  -0.028174   0.566664   0.000000   0.000000
    17  C    0.000000   0.000000   0.000000   0.000000   4.880885   0.385982
    18  H    0.000000   0.000000   0.000000   0.000000   0.385982   0.537536
    19  H    0.000000   0.000000   0.000000   0.000000   0.365688  -0.031604
    20  H    0.000000   0.000000   0.000000   0.000000   0.365677  -0.031599
              19         20
     1  C   -0.000205  -0.000205
     2  C   -0.000006  -0.000006
     3  C   -0.000003  -0.000003
     4  C   -0.000128  -0.000128
     5  C    0.005022   0.005023
     6  C   -0.003828  -0.003833
     7  H    0.000000   0.000000
     8  H    0.000003   0.000003
     9  H    0.001448   0.001450
    10  O   -0.035942  -0.035932
    11  H    0.000106   0.000107
    12  O   -0.000018  -0.000018
    13  C    0.000000   0.000000
    14  H    0.000000   0.000000
    15  H    0.000000   0.000000
    16  H    0.000000   0.000000
    17  C    0.365688   0.365677
    18  H   -0.031604  -0.031599
    19  H    0.591317  -0.048735
    20  H   -0.048735   0.591307
 Mulliken charges:
               1
     1  C    0.306701
     2  C   -0.226086
     3  C    0.177984
     4  C   -0.201356
     5  C   -0.197927
     6  C    0.336474
     7  H    0.128935
     8  H    0.116072
     9  H    0.129024
    10  O   -0.552070
    11  H    0.422952
    12  O   -0.654708
    13  C   -0.529698
    14  H    0.160151
    15  H    0.151393
    16  H    0.160142
    17  C   -0.211350
    18  H    0.169590
    19  H    0.156884
    20  H    0.156893
 Sum of Mulliken charges =   0.00000
 Mulliken charges with hydrogens summed into heavy atoms:
               1
     1  C    0.306701
     2  C   -0.097151
     3  C    0.177984
     4  C   -0.085284
     5  C   -0.068903
     6  C    0.336474
    10  O   -0.552070
    12  O   -0.231755
    13  C   -0.058013
    17  C    0.272018
 Electronic spatial extent (au):  <R**2>=           1623.8828
 Charge=              0.0000 electrons
 Dipole moment (field-independent basis, Debye):
    X=              1.6340    Y=             -1.9155    Z=              0.0023  Tot=              2.5177
 Quadrupole moment (field-independent basis, Debye-Ang):
   XX=            -47.3318   YY=            -58.4542   ZZ=            -61.2372
   XY=             -2.1994   XZ=              0.0043   YZ=              0.0057
 Traceless Quadrupole moment (field-independent basis, Debye-Ang):
   XX=              8.3426   YY=             -2.7798   ZZ=             -5.5628
   XY=             -2.1994   XZ=              0.0043   YZ=              0.0057
 Octapole moment (field-independent basis, Debye-Ang**2):
  XXX=             36.3193  YYY=             -5.9026  ZZZ=              0.0005  XYY=              9.9410
  XXY=              0.2652  XXZ=              0.0056  XZZ=              6.5689  YZZ=              4.0520
  YYZ=              0.0128  XYZ=              0.0099
 Hexadecapole moment (field-independent basis, Debye-Ang**3):
 XXXX=          -1372.0867 YYYY=           -567.0170 ZZZZ=            -72.8093 XXXY=            -10.1484
 XXXZ=              0.0041 YYYX=             12.6766 YYYZ=              0.0287 ZZZX=              0.0045
 ZZZY=              0.0008 XXYY=           -304.4945 XXZZ=           -261.9578 YYZZ=           -109.0078
 XXYZ=              0.0179 YYXZ=              0.0216 ZZXY=             -1.4486
 N-N= 5.161951938693D+02 E-N=-2.106662653410D+03  KE= 4.571102241793D+02
 No NMR shielding tensors so no spin-rotation constants.
 Leave Link  601 at Mon Dec 08 16:45:21 2025, MaxMem=   104857600 cpu:               0.0 elap:               0.1
 (Enter D:\Gaussian\G16W\l9999.exe)
 1|1|UNPC-PC-20250526LCFF|SP|RB3LYP|6-31G(d)|C8H10O2|ADMINISTRATOR|08-D
 ec-2025|0||#p b3lyp/6-31g(d) out=wfn scf=conver=7||Generated by Multiw
 fn (http://sobereva.com/multiwfn)||0,1|C,0,0.10043691,1.0775501,0.0000
 0184|C,0,-1.28248108,0.99604207,0.00008884|C,0,-1.93328506,-0.24648594
 ,0.00002184|C,0,-1.15803405,-1.40251192,-0.00003216|C,0,0.24079195,-1.
 3365069,-0.00002016|C,0,0.87111894,-0.10162189,-0.00006416|H,0,-1.8470
 921,1.92205106,0.00020484|H,0,-1.63882003,-2.37439593,-0.00004616|H,0,
 0.81912697,-2.25133189,0.00005884|O,0,2.22859193,0.12362313,-0.0000111
 6|H,0,1.6676199,2.12810212,0.00121284|O,0,0.71527889,2.29268111,-0.000
 19816|C,0,-3.44206406,-0.31078496,0.00000584|H,0,-3.86190307,0.1849750
 3,-0.88097916|H,0,-3.79367804,-1.34442697,0.00014184|H,0,-3.86195707,0
 .18522803,0.88082184|C,0,3.09663195,-1.00037286,0.00003184|H,0,4.10946
 394,-0.60065884,-0.00032516|H,0,2.94898296,-1.61572886,0.89423484|H,0,
 2.94859696,-1.61609386,-0.89385216||Version=EM64W-G16RevA.03|State=1-A
 |HF=-461.3065195|RMSD=4.972e-008|Dipole=0.6428788,-0.7535986,0.0009094
 |Quadrupole=6.202499,-2.0667122,-4.1357868,-1.6351972,0.0031789,0.0042
 668|PG=C01 [X(C8H10O2)]||@

 Writing a WFN file to "N.wfn"


 UNDER MOST GREENE GRASSE LY MOST GREATE SNAKES.
 -- PROVERBS AND REASONS OF THE YEAR 1585
           AS REPRINTED IN PAISLEY MAGAZINE 1828.
 Job cpu time:       0 days  0 hours  0 minutes 17.0 seconds.
 Elapsed time:       0 days  0 hours  0 minutes 16.7 seconds.
 File lengths (MBytes):  RWF=     19 Int=      0 D2E=      0 Chk=      3 Scr=      1
 Normal termination of Gaussian 16 at Mon Dec 08 16:45:21 2025.
