 Generated by Multiwfn (http://sobereva.com/multiwfn)
GAUSSIAN             37 MOL ORBITALS    320 PRIMITIVES       20 NUCLEI
  C    1    (CENTRE  1)   0.18979825  2.03627457  0.00000347  CHARGE =  6.0
  C    2    (CENTRE  2)  -2.42353800  1.88224672  0.00016788  CHARGE =  6.0
  C    3    (CENTRE  3)  -3.65337928 -0.46579092  0.00004127  CHARGE =  6.0
  C    4    (CENTRE  4)  -2.18836720 -2.65036342 -0.00006078  CHARGE =  6.0
  C    5    (CENTRE  5)   0.45503084 -2.52563200 -0.00003810  CHARGE =  6.0
  C    6    (CENTRE  6)   1.64617622 -0.19203754 -0.00012125  CHARGE =  6.0
  H    7    (CENTRE  7)  -3.49049820  3.63215010  0.00038709  CHARGE =  1.0
  H    8    (CENTRE  8)  -3.09692102 -4.48695802 -0.00008723  CHARGE =  1.0
  H    9    (CENTRE  9)   1.54792564 -4.25440069  0.00011119  CHARGE =  1.0
  O   10    (CENTRE 10)   4.21142839  0.23361386 -0.00002109  CHARGE =  8.0
  H   11    (CENTRE 11)   3.15134489  4.02153017  0.00229193  CHARGE =  1.0
  O   12    (CENTRE 12)   1.35168120  4.33253939 -0.00037447  CHARGE =  8.0
  C   13    (CENTRE 13)  -6.50455838 -0.58729846  0.00001103  CHARGE =  6.0
  H   14    (CENTRE 14)  -7.29793912  0.34955214 -1.66480934  CHARGE =  1.0
  H   15    (CENTRE 15)  -7.16901250 -2.54059877  0.00026803  CHARGE =  1.0
  H   16    (CENTRE 16)  -7.29804117  0.35003024  1.66451204  CHARGE =  1.0
  C   17    (CENTRE 17)   5.85178630 -1.89043072  0.00006016  CHARGE =  6.0
  H   18    (CENTRE 18)   7.76576137 -1.13508070 -0.00061447  CHARGE =  1.0
  H   19    (CENTRE 19)   5.57277014 -3.05328503  1.68985893  CHARGE =  1.0
  H   20    (CENTRE 20)   5.57204071 -3.05397478 -1.68913578  CHARGE =  1.0
CENTRE ASSIGNMENTS    1  1  1  1  1  1  1  1  1  1  1  1  1  1  1  1  1  1  1  1
CENTRE ASSIGNMENTS    1  1  1  1  1  1  1  1  2  2  2  2  2  2  2  2  2  2  2  2
CENTRE ASSIGNMENTS    2  2  2  2  2  2  2  2  2  2  2  2  2  2  2  2  3  3  3  3
CENTRE ASSIGNMENTS    3  3  3  3  3  3  3  3  3  3  3  3  3  3  3  3  3  3  3  3
CENTRE ASSIGNMENTS    3  3  3  3  4  4  4  4  4  4  4  4  4  4  4  4  4  4  4  4
CENTRE ASSIGNMENTS    4  4  4  4  4  4  4  4  4  4  4  4  5  5  5  5  5  5  5  5
CENTRE ASSIGNMENTS    5  5  5  5  5  5  5  5  5  5  5  5  5  5  5  5  5  5  5  5
CENTRE ASSIGNMENTS    6  6  6  6  6  6  6  6  6  6  6  6  6  6  6  6  6  6  6  6
CENTRE ASSIGNMENTS    6  6  6  6  6  6  6  6  7  7  7  7  8  8  8  8  9  9  9  9
CENTRE ASSIGNMENTS   10 10 10 10 10 10 10 10 10 10 10 10 10 10 10 10 10 10 10 10
CENTRE ASSIGNMENTS   10 10 10 10 10 10 10 10 11 11 11 11 12 12 12 12 12 12 12 12
CENTRE ASSIGNMENTS   12 12 12 12 12 12 12 12 12 12 12 12 12 12 12 12 12 12 12 12
CENTRE ASSIGNMENTS   13 13 13 13 13 13 13 13 13 13 13 13 13 13 13 13 13 13 13 13
CENTRE ASSIGNMENTS   13 13 13 13 13 13 13 13 14 14 14 14 15 15 15 15 16 16 16 16
CENTRE ASSIGNMENTS   17 17 17 17 17 17 17 17 17 17 17 17 17 17 17 17 17 17 17 17
CENTRE ASSIGNMENTS   17 17 17 17 17 17 17 17 18 18 18 18 19 19 19 19 20 20 20 20
TYPE ASSIGNMENTS      1  1  1  1  1  1  1  1  1  2  2  2  3  3  3  4  4  4  1  2
TYPE ASSIGNMENTS      3  4  5  6  7  8  9 10  1  1  1  1  1  1  1  1  1  2  2  2
TYPE ASSIGNMENTS      3  3  3  4  4  4  1  2  3  4  5  6  7  8  9 10  1  1  1  1
TYPE ASSIGNMENTS      1  1  1  1  1  2  2  2  3  3  3  4  4  4  1  2  3  4  5  6
TYPE ASSIGNMENTS      7  8  9 10  1  1  1  1  1  1  1  1  1  2  2  2  3  3  3  4
TYPE ASSIGNMENTS      4  4  1  2  3  4  5  6  7  8  9 10  1  1  1  1  1  1  1  1
TYPE ASSIGNMENTS      1  2  2  2  3  3  3  4  4  4  1  2  3  4  5  6  7  8  9 10
TYPE ASSIGNMENTS      1  1  1  1  1  1  1  1  1  2  2  2  3  3  3  4  4  4  1  2
TYPE ASSIGNMENTS      3  4  5  6  7  8  9 10  1  1  1  1  1  1  1  1  1  1  1  1
TYPE ASSIGNMENTS      1  1  1  1  1  1  1  1  1  2  2  2  3  3  3  4  4  4  1  2
TYPE ASSIGNMENTS      3  4  5  6  7  8  9 10  1  1  1  1  1  1  1  1  1  1  1  1
TYPE ASSIGNMENTS      1  2  2  2  3  3  3  4  4  4  1  2  3  4  5  6  7  8  9 10
TYPE ASSIGNMENTS      1  1  1  1  1  1  1  1  1  2  2  2  3  3  3  4  4  4  1  2
TYPE ASSIGNMENTS      3  4  5  6  7  8  9 10  1  1  1  1  1  1  1  1  1  1  1  1
TYPE ASSIGNMENTS      1  1  1  1  1  1  1  1  1  2  2  2  3  3  3  4  4  4  1  2
TYPE ASSIGNMENTS      3  4  5  6  7  8  9 10  1  1  1  1  1  1  1  1  1  1  1  1
EXPONENTS  0.3047525D+04 0.4573695D+03 0.1039487D+03 0.2921016D+02 0.9286663D+01
EXPONENTS  0.3163927D+01 0.7868272D+01 0.1881289D+01 0.5442493D+00 0.7868272D+01
EXPONENTS  0.1881289D+01 0.5442493D+00 0.7868272D+01 0.1881289D+01 0.5442493D+00
EXPONENTS  0.7868272D+01 0.1881289D+01 0.5442493D+00 0.1687145D+00 0.1687145D+00
EXPONENTS  0.1687145D+00 0.1687145D+00 0.8000000D+00 0.8000000D+00 0.8000000D+00
EXPONENTS  0.8000000D+00 0.8000000D+00 0.8000000D+00 0.3047525D+04 0.4573695D+03
EXPONENTS  0.1039487D+03 0.2921016D+02 0.9286663D+01 0.3163927D+01 0.7868272D+01
EXPONENTS  0.1881289D+01 0.5442493D+00 0.7868272D+01 0.1881289D+01 0.5442493D+00
EXPONENTS  0.7868272D+01 0.1881289D+01 0.5442493D+00 0.7868272D+01 0.1881289D+01
EXPONENTS  0.5442493D+00 0.1687145D+00 0.1687145D+00 0.1687145D+00 0.1687145D+00
EXPONENTS  0.8000000D+00 0.8000000D+00 0.8000000D+00 0.8000000D+00 0.8000000D+00
EXPONENTS  0.8000000D+00 0.3047525D+04 0.4573695D+03 0.1039487D+03 0.2921016D+02
EXPONENTS  0.9286663D+01 0.3163927D+01 0.7868272D+01 0.1881289D+01 0.5442493D+00
EXPONENTS  0.7868272D+01 0.1881289D+01 0.5442493D+00 0.7868272D+01 0.1881289D+01
EXPONENTS  0.5442493D+00 0.7868272D+01 0.1881289D+01 0.5442493D+00 0.1687145D+00
EXPONENTS  0.1687145D+00 0.1687145D+00 0.1687145D+00 0.8000000D+00 0.8000000D+00
EXPONENTS  0.8000000D+00 0.8000000D+00 0.8000000D+00 0.8000000D+00 0.3047525D+04
EXPONENTS  0.4573695D+03 0.1039487D+03 0.2921016D+02 0.9286663D+01 0.3163927D+01
EXPONENTS  0.7868272D+01 0.1881289D+01 0.5442493D+00 0.7868272D+01 0.1881289D+01
EXPONENTS  0.5442493D+00 0.7868272D+01 0.1881289D+01 0.5442493D+00 0.7868272D+01
EXPONENTS  0.1881289D+01 0.5442493D+00 0.1687145D+00 0.1687145D+00 0.1687145D+00
EXPONENTS  0.1687145D+00 0.8000000D+00 0.8000000D+00 0.8000000D+00 0.8000000D+00
EXPONENTS  0.8000000D+00 0.8000000D+00 0.3047525D+04 0.4573695D+03 0.1039487D+03
EXPONENTS  0.2921016D+02 0.9286663D+01 0.3163927D+01 0.7868272D+01 0.1881289D+01
EXPONENTS  0.5442493D+00 0.7868272D+01 0.1881289D+01 0.5442493D+00 0.7868272D+01
EXPONENTS  0.1881289D+01 0.5442493D+00 0.7868272D+01 0.1881289D+01 0.5442493D+00
EXPONENTS  0.1687145D+00 0.1687145D+00 0.1687145D+00 0.1687145D+00 0.8000000D+00
EXPONENTS  0.8000000D+00 0.8000000D+00 0.8000000D+00 0.8000000D+00 0.8000000D+00
EXPONENTS  0.3047525D+04 0.4573695D+03 0.1039487D+03 0.2921016D+02 0.9286663D+01
EXPONENTS  0.3163927D+01 0.7868272D+01 0.1881289D+01 0.5442493D+00 0.7868272D+01
EXPONENTS  0.1881289D+01 0.5442493D+00 0.7868272D+01 0.1881289D+01 0.5442493D+00
EXPONENTS  0.7868272D+01 0.1881289D+01 0.5442493D+00 0.1687145D+00 0.1687145D+00
EXPONENTS  0.1687145D+00 0.1687145D+00 0.8000000D+00 0.8000000D+00 0.8000000D+00
EXPONENTS  0.8000000D+00 0.8000000D+00 0.8000000D+00 0.1873114D+02 0.2825394D+01
EXPONENTS  0.6401217D+00 0.1612778D+00 0.1873114D+02 0.2825394D+01 0.6401217D+00
EXPONENTS  0.1612778D+00 0.1873114D+02 0.2825394D+01 0.6401217D+00 0.1612778D+00
EXPONENTS  0.5484672D+04 0.8252349D+03 0.1880470D+03 0.5296450D+02 0.1689757D+02
EXPONENTS  0.5799635D+01 0.1553962D+02 0.3599934D+01 0.1013762D+01 0.1553962D+02
EXPONENTS  0.3599934D+01 0.1013762D+01 0.1553962D+02 0.3599934D+01 0.1013762D+01
EXPONENTS  0.1553962D+02 0.3599934D+01 0.1013762D+01 0.2700058D+00 0.2700058D+00
EXPONENTS  0.2700058D+00 0.2700058D+00 0.8000000D+00 0.8000000D+00 0.8000000D+00
EXPONENTS  0.8000000D+00 0.8000000D+00 0.8000000D+00 0.1873114D+02 0.2825394D+01
EXPONENTS  0.6401217D+00 0.1612778D+00 0.5484672D+04 0.8252349D+03 0.1880470D+03
EXPONENTS  0.5296450D+02 0.1689757D+02 0.5799635D+01 0.1553962D+02 0.3599934D+01
EXPONENTS  0.1013762D+01 0.1553962D+02 0.3599934D+01 0.1013762D+01 0.1553962D+02
EXPONENTS  0.3599934D+01 0.1013762D+01 0.1553962D+02 0.3599934D+01 0.1013762D+01
EXPONENTS  0.2700058D+00 0.2700058D+00 0.2700058D+00 0.2700058D+00 0.8000000D+00
EXPONENTS  0.8000000D+00 0.8000000D+00 0.8000000D+00 0.8000000D+00 0.8000000D+00
EXPONENTS  0.3047525D+04 0.4573695D+03 0.1039487D+03 0.2921016D+02 0.9286663D+01
EXPONENTS  0.3163927D+01 0.7868272D+01 0.1881289D+01 0.5442493D+00 0.7868272D+01
EXPONENTS  0.1881289D+01 0.5442493D+00 0.7868272D+01 0.1881289D+01 0.5442493D+00
EXPONENTS  0.7868272D+01 0.1881289D+01 0.5442493D+00 0.1687145D+00 0.1687145D+00
EXPONENTS  0.1687145D+00 0.1687145D+00 0.8000000D+00 0.8000000D+00 0.8000000D+00
EXPONENTS  0.8000000D+00 0.8000000D+00 0.8000000D+00 0.1873114D+02 0.2825394D+01
EXPONENTS  0.6401217D+00 0.1612778D+00 0.1873114D+02 0.2825394D+01 0.6401217D+00
EXPONENTS  0.1612778D+00 0.1873114D+02 0.2825394D+01 0.6401217D+00 0.1612778D+00
EXPONENTS  0.3047525D+04 0.4573695D+03 0.1039487D+03 0.2921016D+02 0.9286663D+01
EXPONENTS  0.3163927D+01 0.7868272D+01 0.1881289D+01 0.5442493D+00 0.7868272D+01
EXPONENTS  0.1881289D+01 0.5442493D+00 0.7868272D+01 0.1881289D+01 0.5442493D+00
EXPONENTS  0.7868272D+01 0.1881289D+01 0.5442493D+00 0.1687145D+00 0.1687145D+00
EXPONENTS  0.1687145D+00 0.1687145D+00 0.8000000D+00 0.8000000D+00 0.8000000D+00
EXPONENTS  0.8000000D+00 0.8000000D+00 0.8000000D+00 0.1873114D+02 0.2825394D+01
EXPONENTS  0.6401217D+00 0.1612778D+00 0.1873114D+02 0.2825394D+01 0.6401217D+00
EXPONENTS  0.1612778D+00 0.1873114D+02 0.2825394D+01 0.6401217D+00 0.1612778D+00
MO    1     MO 0.0        OCC NO =    2.0000000  ORB. ENERGY =  -19.185913
  0.12546091D-04  0.23145089D-04  0.37363349D-04  0.48635979D-04  0.41501169D-04
  0.14329356D-04 -0.66948049D-04 -0.30856295D-04  0.86524271D-04  0.52333696D-04
  0.40126159D-04  0.20025766D-04  0.69499229D-04  0.53287601D-04  0.26594247D-04
 -0.90600953D-07 -0.69467064D-07 -0.34668933D-07 -0.10941763D-03  0.19210925D-03
  0.31294607D-03 -0.11355552D-07 -0.42962436D-04  0.60654017D-04  0.29649823D-04
  0.10525666D-03 -0.52556276D-07 -0.15789033D-06  0.45713856D-05  0.84333138D-05
  0.13613983D-04  0.17721361D-04  0.15121670D-04  0.52211491D-05 -0.10845182D-04
 -0.49985343D-05  0.14016412D-04  0.70830102D-04  0.54308029D-04  0.27103513D-04
 -0.24704229D-04 -0.18941636D-04 -0.94532038D-05  0.11037358D-07  0.84627462D-08
  0.42235035D-08  0.23281181D-03  0.33256490D-04 -0.11034160D-03 -0.15141583D-07
  0.19634247D-04  0.23056477D-04  0.30567913D-04  0.91507926D-05 -0.42861753D-08
 -0.41387875D-08  0.58148902D-05  0.10727337D-04  0.17317248D-04  0.22541912D-04
  0.19235054D-04  0.66414019D-05 -0.25518773D-04 -0.11761579D-04  0.32980695D-04
  0.25356874D-04  0.19442043D-04  0.97029419D-05  0.11951384D-04  0.91635629D-05
  0.45732601D-05 -0.19568045D-07 -0.15003535D-07 -0.74878157D-08 -0.21664636D-03
 -0.12722328D-03 -0.14242774D-04  0.85481350D-08  0.11739018D-04 -0.31653112D-04
  0.25638558D-04  0.16041456D-04  0.33766699D-08 -0.31314581D-08 -0.42581584D-05
 -0.78554707D-05 -0.12681165D-04 -0.16507110D-04 -0.14085546D-04 -0.48634007D-05
  0.25482368D-04  0.11744800D-04 -0.32933646D-04  0.85955950D-04  0.65905570D-04
  0.32891499D-04  0.70040709D-05  0.53702773D-05  0.26801447D-05 -0.69510085D-08
 -0.53295924D-08 -0.26598401D-08  0.36417490D-03  0.10197610D-03  0.11530958D-03
  0.35285848D-08  0.53299713D-04 -0.27757350D-05 -0.47950895D-05 -0.17280288D-04
  0.43105663D-08  0.12693253D-07  0.11277630D-04  0.20805026D-04  0.33585762D-04
  0.43718683D-04  0.37305232D-04  0.12880600D-04 -0.78045724D-04 -0.35971203D-04
  0.10086701D-03 -0.86003440D-04 -0.65941983D-04 -0.32909671D-04 -0.50787179D-04
 -0.38940387D-04 -0.19433982D-04  0.17785638D-08  0.13636899D-08  0.68057685D-09
 -0.61198925D-03  0.20103784D-03 -0.28476602D-03  0.12846197D-07 -0.68977495D-04
 -0.83945621D-04  0.47592829D-04 -0.13028369D-04 -0.13463340D-07  0.87755070D-08
 -0.25321778D-04 -0.46713736D-04 -0.75410453D-04 -0.98162004D-04 -0.83761816D-04
 -0.28920942D-04 -0.34982109D-04 -0.16123222D-04  0.45211197D-04  0.54866050D-03
  0.42067807D-03  0.20994784D-03  0.17143892D-03  0.13144849D-03  0.65602009D-04
 -0.35828921D-07 -0.27471344D-07 -0.13710126D-07  0.27256800D-04 -0.71167689D-03
 -0.25195419D-03  0.14088426D-07  0.71298176D-04 -0.11161710D-04 -0.92270286D-04
  0.16552451D-03 -0.51475829D-07  0.97617648D-08  0.59582708D-05  0.10106355D-04
  0.11505728D-04  0.24371379D-04  0.40901487D-05  0.69376664D-05  0.78982880D-05
  0.30691108D-04 -0.15980010D-04 -0.27105121D-04 -0.30858222D-04 -0.11941455D-03
  0.82557623D+00  0.15195010D+01  0.24588394D+01  0.32322132D+01  0.27722505D+01
  0.94787953D+00 -0.15696707D-01 -0.70038403D-02  0.20682434D-01 -0.87306426D-03
 -0.67264895D-03 -0.29532912D-03 -0.27446832D-02 -0.21146304D-02 -0.92843665D-03
  0.21997905D-06  0.16948200D-06  0.74411727D-07  0.41310161D-02 -0.32659987D-03
  0.20698127D-04  0.69464562D-09 -0.94691221D-02 -0.95797065D-02 -0.94286163D-02
  0.15863761D-03  0.28749625D-08  0.91552500D-07 -0.61685173D-05 -0.10462973D-04
 -0.11911725D-04 -0.15680569D-03  0.25046194D-04  0.46098367D-04  0.74595859D-04
  0.98058344D-04  0.84104072D-04  0.28756611D-04 -0.98680428D-04 -0.44031015D-04
  0.13002418D-03 -0.16220806D-03 -0.12497256D-03 -0.54869686D-04 -0.19098388D-03
 -0.14714278D-03 -0.64603606D-04 -0.36621495D-06 -0.28214888D-06 -0.12387855D-06
 -0.29194053D-03  0.17925660D-03  0.15509201D-03  0.13995012D-06  0.15068230D-03
  0.63216676D-06  0.10963518D-03 -0.98567726D-04  0.31729869D-06 -0.10769205D-07
  0.12539696D-05  0.23133290D-05  0.37344303D-05  0.48611187D-05  0.41480014D-05
  0.14322052D-05 -0.54574963D-05 -0.25153551D-05  0.70533182D-05 -0.15322492D-04
 -0.11748315D-04 -0.58632326D-05  0.71471173D-05  0.54799562D-05  0.27348822D-05
  0.76520733D-08  0.58671244D-08  0.29281063D-08 -0.58614462D-04 -0.16350035D-04
 -0.57939619D-05 -0.74968550D-08 -0.25280252D-05  0.52834597D-05 -0.17366895D-06
 -0.59560891D-05 -0.45407747D-08 -0.87408548D-08  0.19610903D-05  0.33263804D-05
  0.37869665D-05  0.22833072D-05 -0.47417370D-06 -0.80428834D-06 -0.91565385D-06
  0.17046102D-05  0.19632915D-05  0.33301140D-05  0.37912171D-05  0.22905412D-05
  0.72398705D-05  0.13356147D-04  0.21560963D-04  0.28065967D-04  0.23948741D-04
  0.82689247D-05 -0.73832986D-04 -0.34029556D-04  0.95422427D-04 -0.28170034D-03
 -0.21598995D-03 -0.10779412D-03  0.50426846D-03  0.38664107D-03  0.19296099D-03
 -0.12538802D-07 -0.96139580D-08 -0.47980388D-08 -0.30841112D-03  0.42309790D-04
 -0.11647439D-03  0.71771047D-09  0.17532756D-03  0.36300385D-03  0.26606983D-04
 -0.46548246D-03  0.69637221D-07 -0.22120307D-08  0.26237371D-04  0.44503547D-04
  0.50665715D-04  0.26357492D-04  0.12412364D-04  0.21053718D-04  0.23968914D-04
  0.99342843D-05  0.12403398D-04  0.21038510D-04  0.23951600D-04  0.99353821D-05
MO    2     MO 0.0        OCC NO =    2.0000000  ORB. ENERGY =  -19.165086
 -0.36140328D-04 -0.66671849D-04 -0.10762904D-03 -0.14010103D-03 -0.11954846D-03
 -0.41277210D-04 -0.25595348D-04 -0.11796873D-04  0.33079662D-04  0.20927420D-03
  0.16045818D-03  0.80079878D-04  0.52236676D-03  0.40051770D-03  0.19988640D-03
 -0.22341333D-06 -0.17129917D-06 -0.85490293D-07  0.22963027D-03 -0.28073636D-03
 -0.85997312D-03  0.14905137D-06 -0.83269871D-04 -0.37523080D-04 -0.13526229D-03
 -0.10944123D-03  0.45658014D-07  0.55882932D-08  0.75255951D-05  0.13883254D-04
  0.22411876D-04  0.29173603D-04  0.24893888D-04  0.85952615D-05 -0.67265011D-04
 -0.31002382D-04  0.86933916D-04 -0.10587167D-04 -0.81175685D-05 -0.40512356D-05
 -0.87852693D-05 -0.67359872D-05 -0.33617297D-05  0.18915789D-07  0.14503427D-07
  0.72382267D-08 -0.40143584D-03 -0.13799460D-03  0.31731847D-03 -0.22955806D-07
 -0.88735122D-04 -0.56554555D-04  0.31975471D-04  0.26550435D-04 -0.79432875D-07
  0.50018824D-07 -0.95428942D-06 -0.17604777D-05 -0.28419568D-05 -0.36993833D-05
 -0.31566905D-05 -0.10899294D-05  0.15684262D-04  0.72288620D-05 -0.20270484D-04
  0.61969007D-04  0.47513904D-04  0.23712768D-04  0.58989609D-04  0.45229491D-04
  0.22572686D-04  0.21877733D-07  0.16774458D-07  0.83716300D-08  0.37785952D-03
  0.10816817D-03  0.19484850D-04  0.11284354D-07  0.14951521D-04  0.46014241D-04
  0.14840451D-04 -0.95242058D-06  0.14413276D-07  0.36264324D-07  0.94747194D-05
  0.17479007D-04  0.28216537D-04  0.36729548D-04  0.31341390D-04  0.10821429D-04
 -0.39584035D-04 -0.18244245D-04  0.51158769D-04 -0.23828871D-04 -0.18270467D-04
 -0.91182433D-05  0.27187254D-04  0.20845462D-04  0.10403346D-04  0.21017371D-07
  0.16114787D-07  0.80424082D-08 -0.34012510D-03 -0.81273941D-04 -0.13350995D-03
 -0.11746701D-07 -0.29268859D-04  0.11499514D-04  0.39107115D-04  0.30350039D-04
  0.59535488D-08 -0.20438478D-07 -0.50633665D-05 -0.93409226D-05 -0.15079145D-04
 -0.19628567D-04 -0.16749092D-04 -0.57830588D-05  0.27538108D-04  0.12692289D-04
 -0.35590503D-04  0.53766328D-04  0.41224610D-04  0.20573970D-04  0.92315517D-04
  0.70781684D-04  0.35325021D-04  0.28208705D-07  0.21628646D-07  0.10794210D-07
  0.50359397D-03 -0.14701764D-03  0.22915745D-03 -0.66019502D-08  0.19829483D-05
  0.42212976D-04 -0.46942316D-05  0.17457378D-04  0.31262916D-07 -0.59281053D-08
  0.26804996D-04  0.49449983D-04  0.79827605D-04  0.10391182D-03  0.88668147D-04
  0.30614980D-04 -0.12317510D-03 -0.56771289D-04  0.15919262D-03  0.16894762D-04
  0.12953832D-04  0.64648702D-05 -0.54168640D-04 -0.41533077D-04 -0.20727916D-04
 -0.41708074D-07 -0.31979106D-07 -0.15959815D-07 -0.71224189D-03  0.60373091D-03
  0.22843100D-04 -0.60925254D-07  0.69469311D-04 -0.76929197D-04  0.80959577D-04
  0.68657585D-04  0.72733665D-07 -0.47947401D-07 -0.11136335D-04 -0.18889332D-04
 -0.21504837D-04 -0.14354089D-03 -0.54559242D-05 -0.92542800D-05 -0.10535671D-04
 -0.41076955D-04  0.11444024D-04  0.19411231D-04  0.22099000D-04  0.86914677D-04
  0.42670155D-04  0.78535863D-04  0.12708585D-03  0.16705791D-03  0.14328460D-03
  0.48991437D-04 -0.15765006D-03 -0.70343150D-04  0.20772427D-03 -0.15295396D-03
 -0.11784278D-03 -0.51739328D-04 -0.91706128D-04 -0.70654628D-04 -0.31021187D-04
 -0.34028052D-06 -0.26216780D-06 -0.11510578D-06 -0.46721362D-03  0.18555128D-03
  0.80463027D-04  0.12343182D-06  0.74573798D-04  0.17710097D-03  0.16028422D-03
 -0.45142792D-04 -0.66378705D-07  0.64402077D-07  0.85257866D-04  0.14461348D-03
  0.16463733D-03 -0.20698925D-03  0.82561049D+00  0.15195640D+01  0.24589414D+01
  0.32323473D+01  0.27723655D+01  0.94791886D+00 -0.15745715D-01 -0.70257072D-02
  0.20747008D-01  0.16979483D-02  0.13081776D-02  0.57436042D-03 -0.27240120D-02
 -0.20987044D-02 -0.92144428D-03  0.43180494D-05  0.33268242D-05  0.14606550D-05
  0.40313081D-02 -0.24325487D-03 -0.31840176D-03  0.54455130D-07 -0.92864874D-02
 -0.92611012D-02 -0.92729577D-02  0.17871795D-03 -0.12244991D-06  0.40552390D-07
  0.54443278D-05  0.10043722D-04  0.16213681D-04  0.21105395D-04  0.18009272D-04
  0.62181688D-05 -0.18704236D-04 -0.86207655D-05  0.24173526D-04  0.48741075D-06
  0.37371565D-06  0.18651030D-06  0.20042167D-05  0.15367062D-05  0.76692412D-06
 -0.64634362D-08 -0.49557529D-08 -0.24732680D-08 -0.25486667D-04 -0.97580058D-05
 -0.22414318D-05 -0.37484217D-09 -0.35435729D-05  0.20329298D-04  0.20832846D-04
  0.50656956D-06 -0.52895410D-08  0.89478346D-08  0.19810890D-05  0.33603019D-05
  0.38255849D-05  0.40789921D-05  0.24995071D-05  0.42396371D-05  0.48266770D-05
  0.72018080D-06  0.19765938D-05  0.33526772D-05  0.38169045D-05  0.40870486D-05
  0.10429611D-04  0.19240595D-04  0.31060286D-04  0.40431264D-04  0.34500071D-04
  0.11912045D-04 -0.32352842D-04 -0.14911395D-04  0.41813108D-04 -0.58749016D-04
 -0.45045019D-04 -0.22480621D-04  0.28377952D-04  0.21758414D-04  0.10858973D-04
 -0.46029198D-09 -0.35292269D-09 -0.17613316D-09 -0.50782609D-04  0.29766048D-04
 -0.13647918D-04 -0.27678730D-07  0.34338067D-04  0.16873141D-04  0.41396297D-04
 -0.14027948D-06  0.33690528D-07 -0.42080085D-07 -0.63102186D-06 -0.10703325D-05
 -0.12185357D-05 -0.71732228D-05  0.47946236D-05  0.81325891D-05  0.92586652D-05
 -0.55712894D-05  0.47919543D-05  0.81280614D-05  0.92535106D-05 -0.56112195D-05
MO    3     MO 0.0        OCC NO =    2.0000000  ORB. ENERGY =  -10.247265
 -0.86758844D-04 -0.16005313D-03 -0.25837537D-03 -0.33632796D-03 -0.28698926D-03
 -0.99090495D-04  0.11229445D-03  0.51756409D-04 -0.14513037D-03  0.11093964D-03
  0.85061478D-04  0.42451639D-04 -0.25303599D-04 -0.19401195D-04 -0.96825560D-05
 -0.47563415D-08 -0.36468610D-08 -0.18200392D-08  0.78446016D-03 -0.25953139D-04
 -0.45732445D-03 -0.10689251D-07  0.27169122D-05 -0.21272752D-04 -0.91865396D-04
 -0.63552060D-04 -0.22018958D-07  0.44677556D-08  0.93164906D-05  0.17187106D-04
  0.27745318D-04  0.36116160D-04  0.30817985D-04  0.10640710D-04 -0.35309370D-04
 -0.16274056D-04  0.45634153D-04 -0.93740466D-04 -0.71874243D-04 -0.35870285D-04
 -0.32743070D-04 -0.25105309D-04 -0.12529309D-04  0.97567861D-08  0.74808847D-08
  0.37334858D-08 -0.34464145D-03 -0.54543730D-04  0.20067502D-03  0.12379684D-07
 -0.29031106D-04  0.97617479D-05  0.21393224D-04  0.31592605D-04  0.20363466D-08
 -0.12399088D-08 -0.35995910D-05 -0.66405426D-05 -0.10719895D-04 -0.13954118D-04
 -0.11907074D-04 -0.41112265D-05  0.11614624D-04  0.53531696D-05 -0.15010846D-04
 -0.70440927D-05 -0.54009635D-05 -0.26954593D-05  0.49141723D-04  0.37678756D-04
  0.18804340D-04 -0.19782542D-08 -0.15167999D-08 -0.75698943D-09  0.14015610D-03
  0.47301893D-04  0.96062528D-04  0.13466293D-07 -0.12469768D-04  0.14064845D-04
 -0.12117255D-04  0.51367141D-04  0.11664445D-07 -0.87466426D-08 -0.17907068D-04
 -0.33035044D-04 -0.53328804D-04 -0.69418258D-04 -0.59234725D-04 -0.20452327D-04
  0.54556752D-04  0.25145157D-04 -0.70509646D-04  0.59078598D-05  0.45297722D-05
  0.22606738D-05 -0.45959572D-04 -0.35238884D-04 -0.17586673D-04  0.23299336D-07
  0.17864453D-07  0.89156142D-08  0.10702340D-03  0.30260106D-04  0.55256432D-04
 -0.16903529D-07  0.50031178D-04 -0.20588953D-04 -0.70161503D-04  0.59444750D-05
 -0.21265882D-07 -0.10858167D-07 -0.16903827D-06 -0.31184260D-06 -0.50341064D-06
 -0.65529108D-06 -0.55916106D-06 -0.19306488D-06 -0.32533834D-04 -0.14994814D-04
  0.42047025D-04 -0.13819386D-03 -0.10595829D-03 -0.52880611D-04 -0.24387670D-04
 -0.18698919D-04 -0.93320710D-05 -0.54753049D-07 -0.41981165D-07 -0.20951544D-07
 -0.24696251D-03 -0.65629231D-04  0.32729003D-05  0.29238414D-07 -0.11854425D-03
  0.39410393D-04 -0.84258525D-05 -0.10500351D-03  0.35585889D-07  0.23837368D-08
 -0.96421038D-04 -0.17787799D-03 -0.28715022D-03 -0.37378427D-03 -0.31895080D-03
 -0.11012605D-03  0.47347409D-04  0.21822377D-04 -0.61192224D-04 -0.13284599D-03
 -0.10185788D-03 -0.50834221D-04  0.18980908D-03  0.14553356D-03  0.72631446D-04
 -0.17778483D-07 -0.13631413D-07 -0.68030304D-08 -0.28111013D-03  0.47982725D-03
 -0.46873906D-03 -0.11956068D-07  0.22397605D-03  0.18912477D-04 -0.42460822D-04
  0.95375156D-04  0.69402743D-07 -0.39166537D-07 -0.12310219D-04 -0.20880461D-04
 -0.23771667D-04 -0.50166018D-04  0.16243347D-05  0.27551790D-05  0.31366739D-05
  0.26789843D-04  0.96267153D-05  0.16328731D-04  0.18589683D-04  0.53315966D-04
 -0.50736212D-04 -0.93381715D-04 -0.15110924D-03 -0.19863733D-03 -0.17037008D-03
 -0.58252425D-04 -0.65586300D-04 -0.29264479D-04  0.86418400D-04 -0.18922998D-03
 -0.14579150D-03 -0.64010319D-04 -0.18719401D-03 -0.14422289D-03 -0.63321617D-04
 -0.88442259D-07 -0.68139993D-07 -0.29917127D-07  0.12408149D-03  0.10441393D-03
  0.25922973D-03  0.37593223D-07 -0.34396701D-03 -0.53575488D-03  0.16949164D-03
  0.63032024D-03 -0.41339849D-07  0.38316626D-07 -0.13148878D-05 -0.22302985D-05
 -0.25391160D-05 -0.42150469D-04 -0.46312031D-04 -0.85238859D-04 -0.13793256D-03
 -0.18131622D-03 -0.15551386D-03 -0.53172831D-04  0.15324542D-03  0.68377810D-04
 -0.20192059D-03  0.44286834D-04  0.34120618D-04  0.14980789D-04 -0.89125609D-05
 -0.68666477D-05 -0.30148282D-05 -0.16621506D-06 -0.12805974D-06 -0.56225125D-07
  0.41654827D-03 -0.44026850D-04 -0.58302568D-04  0.89484514D-07 -0.13965894D-03
 -0.17977888D-03 -0.17629596D-03  0.24275985D-04  0.35719176D-07 -0.45954272D-07
 -0.23411706D-05 -0.43190025D-05 -0.69722093D-05 -0.90757448D-05 -0.77443495D-05
 -0.26739378D-05  0.46240739D-05  0.21312314D-05 -0.59761954D-05 -0.49991457D-05
 -0.38330279D-05 -0.19129495D-05  0.74357255D-05  0.57012427D-05  0.28453197D-05
 -0.20753523D-08 -0.15912485D-08 -0.79414451D-09  0.19412707D-04  0.85504960D-05
 -0.25693614D-04 -0.26195314D-08 -0.15794842D-06  0.56410509D-05 -0.17753868D-04
 -0.37760714D-04 -0.51897349D-08 -0.11869959D-07  0.14111881D-05  0.23936420D-05
  0.27250769D-05  0.43444888D-05 -0.42421574D-05 -0.71955019D-05 -0.81918246D-05
 -0.79774165D-05  0.14129893D-05  0.23966972D-05  0.27285551D-05  0.43474122D-05
  0.53255660D+00  0.98246293D+00  0.15859998D+01  0.20645005D+01  0.17616420D+01
  0.60825265D+00 -0.19712612D-01 -0.90855251D-02  0.25476761D-01 -0.93960910D-03
 -0.72043266D-03 -0.35954639D-03  0.86147310D-03  0.66052293D-03  0.32964723D-03
 -0.34278209D-07 -0.26282357D-07 -0.13116738D-07 -0.26225697D-02  0.10784608D-03
  0.59607955D-04 -0.11883033D-07 -0.99939641D-02 -0.99274765D-02 -0.10140346D-01
 -0.24587551D-03 -0.79966773D-07 -0.93439900D-07 -0.45342666D-04 -0.76909744D-04
 -0.87559025D-04  0.39173229D-03 -0.96123437D-05 -0.16304354D-04 -0.18561931D-04
  0.48306947D-03 -0.95940332D-05 -0.16273296D-04 -0.18526573D-04  0.48304439D-03
MO    4     MO 0.0        OCC NO =    2.0000000  ORB. ENERGY =  -10.238965
  0.93583046D-01  0.17264245D+00  0.27869844D+00  0.36278256D+00  0.30956301D+00
  0.10688467D+00 -0.31783421D-02 -0.14648949D-02  0.41077183D-02 -0.10743135D-03
 -0.82371542D-04 -0.41109173D-04  0.43615171D-03  0.33441346D-03  0.16689576D-03
 -0.18654110D-07 -0.14302788D-07 -0.71380937D-08  0.13210011D-02 -0.25204883D-03
 -0.83306428D-03  0.21859537D-07 -0.23079417D-02 -0.20667216D-02 -0.21460190D-02
  0.35015875D-03  0.50740195D-07  0.41397469D-08  0.40955847D-03  0.75555541D-03
  0.12197007D-02  0.15876879D-02  0.13547770D-02  0.46777193D-03  0.25842223D-05
  0.11910657D-05 -0.33398726D-05 -0.17771415D-03 -0.13625994D-03 -0.68003258D-04
  0.70983299D-04  0.54425492D-04  0.27162135D-04  0.18876895D-07  0.14473605D-07
  0.72233435D-08 -0.87636628D-03 -0.15977915D-03  0.37794865D-03  0.27283881D-07
  0.75193539D-04 -0.61521130D-04 -0.50815244D-04 -0.41213511D-04 -0.29550604D-07
 -0.11540425D-07 -0.64422061D-04 -0.11884612D-03 -0.19185449D-03 -0.24973754D-03
 -0.21310150D-03 -0.73578826D-04  0.12732508D-03  0.58684011D-04 -0.16455609D-03
 -0.14339739D-03 -0.10994802D-03 -0.54871768D-04 -0.44719973D-04 -0.34288439D-04
 -0.17112334D-04  0.21062686D-07  0.16149532D-07  0.80597483D-08  0.87760084D-03
  0.57640742D-03  0.33568085D-04 -0.62919467D-08 -0.23360268D-04  0.65954257D-04
 -0.12562892D-03 -0.16609197D-04 -0.39218331D-08  0.14239522D-07  0.30874255D-04
  0.56956972D-04  0.91946213D-04  0.11968665D-03  0.10212884D-03  0.35262633D-04
 -0.79585917D-04 -0.36681076D-04  0.10285757D-03 -0.16961337D-03 -0.13004877D-03
 -0.64903453D-04 -0.39365624D-04 -0.30183064D-04 -0.15063464D-04  0.13917977D-07
  0.10671422D-07  0.53257873D-08 -0.13110489D-02 -0.32854783D-03 -0.47821051D-03
 -0.19314688D-07  0.34882610D-04  0.35088999D-04  0.46382994D-04  0.57503241D-04
 -0.13593634D-08 -0.50584841D-07  0.26709724D-02  0.49274226D-02  0.79543878D-02
  0.10354249D-01  0.88352998D-02  0.30506167D-02  0.25665983D-03  0.11829428D-03
 -0.33170951D-03  0.19745530D-04  0.15139620D-04  0.75557316D-05 -0.36414991D-03
 -0.27920705D-03 -0.13934389D-03  0.36669470D-07  0.28115824D-07  0.14031767D-07
  0.24116360D-02 -0.46217835D-03  0.10037806D-02 -0.31390747D-07 -0.35873110D-03
 -0.33851227D-03 -0.36640262D-03 -0.24610012D-03  0.35071427D-07  0.17661571D-07
  0.52421277D+00  0.96707020D+00  0.15611512D+01  0.20321549D+01  0.17340415D+01
  0.59872286D+00 -0.19432673D-01 -0.89565011D-02  0.25114964D-01  0.12154420D-02
  0.93192387D-03  0.46509532D-03  0.17727138D-03  0.13592045D-03  0.67833829D-04
  0.36029225D-06  0.27624925D-06  0.13786774D-06 -0.32951450D-02  0.15453821D-02
  0.38386324D-03 -0.91284041D-07 -0.92113907D-02 -0.99188724D-02 -0.10346467D-01
  0.33780615D-03  0.15326243D-06  0.21040380D-08 -0.17676761D-04 -0.29983133D-04
 -0.34134737D-04 -0.74722099D-04 -0.18688512D-04 -0.31699253D-04 -0.36088479D-04
 -0.12055720D-03  0.40247813D-04  0.68267909D-04  0.77720602D-04  0.29785069D-03
  0.11305178D-03  0.20807563D-03  0.33670565D-03  0.44260900D-03  0.37962317D-03
  0.12979961D-03 -0.65433463D-03 -0.29196284D-03  0.86217017D-03 -0.17719655D-03
 -0.13652039D-03 -0.59939803D-04  0.57205174D-04  0.44073503D-04  0.19350642D-04
 -0.13879843D-06 -0.10693670D-06 -0.46950973D-07 -0.15540835D-02  0.85697011D-03
  0.95468145D-04  0.10239692D-06 -0.50991062D-03  0.70355165D-03  0.91065051D-03
 -0.39169827D-03 -0.17042587D-06 -0.56369232D-07  0.46566014D-05  0.78984774D-05
  0.89921373D-05  0.28297313D-04 -0.56584637D-04 -0.10414594D-03 -0.16852779D-03
 -0.22153449D-03 -0.19000885D-03 -0.64967252D-04  0.16537276D-03  0.73789005D-04
 -0.21789992D-03  0.11562917D-03  0.89086038D-04  0.39113569D-04  0.72392936D-04
  0.55774854D-04  0.24488165D-04  0.14106649D-07  0.10868413D-07  0.47718185D-08
  0.52743864D-03 -0.93198134D-04 -0.44910499D-04  0.10374348D-07 -0.20091593D-03
 -0.22124778D-03 -0.13421040D-03 -0.11667218D-03 -0.87438871D-07  0.15374887D-07
 -0.57987341D-05 -0.10697532D-04 -0.17269134D-04 -0.22479281D-04 -0.19181611D-04
 -0.66229494D-05  0.26285509D-04  0.12114967D-04 -0.33971633D-04  0.77305172D-04
  0.59272702D-04  0.29581233D-04 -0.84208193D-05 -0.64565502D-05 -0.32222710D-05
 -0.11773078D-07 -0.90268497D-08 -0.45050307D-08  0.28063862D-03  0.82407887D-04
  0.13392220D-04  0.11660635D-07  0.13485985D-04 -0.96584317D-05 -0.28530315D-05
  0.19440668D-04  0.40899795D-08  0.14808204D-07 -0.72064273D-05 -0.12223465D-04
 -0.13915983D-04 -0.74028215D-05 -0.23551599D-05 -0.39947969D-05 -0.45479351D-05
 -0.98791557D-05 -0.72104624D-05 -0.12230309D-04 -0.13923775D-04 -0.74127874D-05
  0.10111487D-03  0.18653719D-03  0.30112886D-03  0.39198031D-03  0.33447750D-03
  0.11548704D-03  0.43935854D-04  0.20249995D-04 -0.56783099D-04 -0.98822832D-05