 Entering Link 1 = D:\Gaussian\G16W\l1.exe PID=     60092.
  
 Copyright (c) 1988,1990,1992,1993,1995,1998,2003,2009,2016,
            Gaussian, Inc.  All Rights Reserved.
  
 This is part of the Gaussian(R) 16 program.  It is based on
 the Gaussian(R) 09 system (copyright 2009, Gaussian, Inc.),
 the Gaussian(R) 03 system (copyright 2003, Gaussian, Inc.),
 the Gaussian(R) 98 system (copyright 1998, Gaussian, Inc.),
 the Gaussian(R) 94 system (copyright 1995, Gaussian, Inc.),
 the Gaussian 92(TM) system (copyright 1992, Gaussian, Inc.),
 the Gaussian 90(TM) system (copyright 1990, Gaussian, Inc.),
 the Gaussian 88(TM) system (copyright 1988, Gaussian, Inc.),
 the Gaussian 86(TM) system (copyright 1986, Carnegie Mellon
 University), and the Gaussian 82(TM) system (copyright 1983,
 Carnegie Mellon University). Gaussian is a federally registered
 trademark of Gaussian, Inc.
  
 This software contains proprietary and confidential information,
 including trade secrets, belonging to Gaussian, Inc.
  
 This software is provided under written license and may be
 used, copied, transmitted, or stored only in accord with that
 written license.
  
 The following legend is applicable only to US Government
 contracts under FAR:
  
                    RESTRICTED RIGHTS LEGEND
  
 Use, reproduction and disclosure by the US Government is
 subject to restrictions as set forth in subparagraphs (a)
 and (c) of the Commercial Computer Software - Restricted
 Rights clause in FAR 52.227-19.
  
 Gaussian, Inc.
 340 Quinnipiac St., Bldg. 40, Wallingford CT 06492
  
  
 ---------------------------------------------------------------
 Warning -- This program may not be used in any manner that
 competes with the business of Gaussian, Inc. or will provide
 assistance to any competitor of Gaussian, Inc.  The licensee
 of this program is prohibited from giving any competitor of
 Gaussian, Inc. access to this program.  By using this program,
 the user acknowledges that Gaussian, Inc. is engaged in the
 business of creating and licensing software in the field of
 computational chemistry and represents and warrants to the
 licensee that it is not a competitor of Gaussian, Inc. and that
 it will not use this program in any manner prohibited above.
 ---------------------------------------------------------------
  

 Cite this work as:
 Gaussian 16, Revision A.03,
 M. J. Frisch, G. W. Trucks, H. B. Schlegel, G. E. Scuseria, 
 M. A. Robb, J. R. Cheeseman, G. Scalmani, V. Barone, 
 G. A. Petersson, H. Nakatsuji, X. Li, M. Caricato, A. V. Marenich, 
 J. Bloino, B. G. Janesko, R. Gomperts, B. Mennucci, H. P. Hratchian, 
 J. V. Ortiz, A. F. Izmaylov, J. L. Sonnenberg, D. Williams-Young, 
 F. Ding, F. Lipparini, F. Egidi, J. Goings, B. Peng, A. Petrone, 
 T. Henderson, D. Ranasinghe, V. G. Zakrzewski, J. Gao, N. Rega, 
 G. Zheng, W. Liang, M. Hada, M. Ehara, K. Toyota, R. Fukuda, 
 J. Hasegawa, M. Ishida, T. Nakajima, Y. Honda, O. Kitao, H. Nakai, 
 T. Vreven, K. Throssell, J. A. Montgomery, Jr., J. E. Peralta, 
 F. Ogliaro, M. J. Bearpark, J. J. Heyd, E. N. Brothers, K. N. Kudin, 
 V. N. Staroverov, T. A. Keith, R. Kobayashi, J. Normand, 
 K. Raghavachari, A. P. Rendell, J. C. Burant, S. S. Iyengar, 
 J. Tomasi, M. Cossi, J. M. Millam, M. Klene, C. Adamo, R. Cammi, 
 J. W. Ochterski, R. L. Martin, K. Morokuma, O. Farkas, 
 J. B. Foresman, and D. J. Fox, Gaussian, Inc., Wallingford CT, 2016.
 
 ******************************************
 Gaussian 16:  EM64W-G16RevA.03 17-Dec-2016
                08-Dec-2025 
 ******************************************
 %nprocshared=14
 Will use up to   14 processors via shared memory.
 %mem=80GB
 %chk=17.chk
 ---------------------------------------------------------
 # rb3lyp/6-311g(d,p) geom=connectivity temperature=823.15
 ---------------------------------------------------------
 1/38=1,57=2,112=823150,172=1/1;
 2/12=2,17=6,18=5,40=1/2;
 3/5=4,6=6,7=101,11=2,25=1,30=1,74=-5,116=1/1,2,3;
 4//1;
 5/5=2,38=5/2;
 6/7=2,8=2,9=2,10=2,28=1/1;
 99/5=1,9=1/99;
 -------------------
 Title Card Required
 -------------------
 Symbolic Z-matrix:
 Charge =  0 Multiplicity = 1
 C                    -0.10044   1.07755  0. 
 C                     1.28248   0.99604  -0.00009 
 C                     1.93329  -0.24649  -0.00002 
 C                     1.15803  -1.40251   0.00003 
 C                    -0.24079  -1.33651   0.00002 
 C                    -0.87112  -0.10162   0.00006 
 H                     1.84709   1.92205  -0.00021 
 H                     1.63882  -2.3744    0.00005 
 H                    -0.81913  -2.25133  -0.00006 
 O                    -2.22859   0.12362   0.00001 
 H                    -1.66762   2.1281   -0.00121 
 O                    -0.71528   2.29268   0.0002 
 C                     3.44206  -0.31079  -0.00001 
 H                     3.8619    0.18498   0.88098 
 H                     3.79368  -1.34443  -0.00014 
 H                     3.86196   0.18523  -0.88082 
 C                    -3.09663  -1.00037  -0.00003 
 H                    -4.10946  -0.60066   0.00033 
 H                    -2.94898  -1.61573  -0.89424 
 H                    -2.9486   -1.61609   0.89385 
 
                          Input orientation:                          
 ---------------------------------------------------------------------
 Center     Atomic      Atomic             Coordinates (Angstroms)
 Number     Number       Type             X           Y           Z
 ---------------------------------------------------------------------
      1          6           0       -0.100437    1.077550   -0.000002
      2          6           0        1.282481    0.996042   -0.000089
      3          6           0        1.933285   -0.246486   -0.000022
      4          6           0        1.158034   -1.402512    0.000032
      5          6           0       -0.240792   -1.336507    0.000020
      6          6           0       -0.871119   -0.101622    0.000064
      7          1           0        1.847092    1.922051   -0.000205
      8          1           0        1.638820   -2.374396    0.000046
      9          1           0       -0.819127   -2.251332   -0.000059
     10          8           0       -2.228592    0.123623    0.000011
     11          1           0       -1.667620    2.128102   -0.001213
     12          8           0       -0.715279    2.292681    0.000198
     13          6           0        3.442064   -0.310785   -0.000006
     14          1           0        3.861903    0.184975    0.880979
     15          1           0        3.793678   -1.344427   -0.000142
     16          1           0        3.861957    0.185228   -0.880822
     17          6           0       -3.096632   -1.000373   -0.000032
     18          1           0       -4.109464   -0.600659    0.000325
     19          1           0       -2.948983   -1.615729   -0.894235
     20          1           0       -2.948597   -1.616094    0.893852
 ---------------------------------------------------------------------
                    Distance matrix (angstroms):
                    1          2          3          4          5
     1  C    0.000000
     2  C    1.385318   0.000000
     3  C    2.426746   1.402648   0.000000
     4  C    2.781089   2.401780   1.391909   0.000000
     5  C    2.418134   2.785883   2.432027   1.400382   0.000000
     6  C    1.408686   2.417201   2.808143   2.410348   1.386453
     7  H    2.122746   1.084564   2.170249   3.395220   3.870072
     8  H    3.865352   3.389223   2.148188   1.084303   2.147127
     9  H    3.405579   3.868100   3.405169   2.151665   1.082301
    10  O    2.332171   3.617838   4.178301   3.714609   2.466440
    11  H    1.886723   3.159851   4.313373   4.522119   3.746913
    12  O    1.361827   2.381663   3.669095   4.142916   3.660074
    13  C    3.804837   2.524202   1.510148   2.531533   3.823027
    14  H    4.156075   2.843858   2.163767   3.256853   4.463530
    15  H    4.585859   3.432769   2.160217   2.636284   4.034478
    16  H    4.156038   2.843731   2.163784   3.256996   4.463643
    17  C    3.646224   4.812723   5.086100   4.273628   2.875554
    18  H    4.346111   5.623391   6.053119   5.328180   3.938032
    19  H    4.020898   5.052339   5.148882   4.208653   2.865651
    20  H    4.020785   5.052168   5.148554   4.208200   2.865190
                    6          7          8          9         10
     6  C    0.000000
     7  H    3.388794   0.000000
     8  H    3.386044   4.301492   0.000000
     9  H    2.150339   4.952358   2.461026   0.000000
    10  O    1.376034   4.454834   4.604017   2.761703   0.000000
    11  H    2.367717   3.520747   5.586147   4.460873   2.081496
    12  O    2.399369   2.589037   5.227178   4.545200   2.644793
    13  C    4.318252   2.743992   2.740471   4.682251   5.687271
    14  H    4.822826   2.802389   3.502645   5.350127   6.154185
    15  H    4.827514   3.802509   2.388357   4.701111   6.198621
    16  H    4.822888   2.802092   3.502848   5.350244   6.154222
    17  C    2.400138   5.742906   4.930765   2.598447   1.420162
    18  H    3.276571   6.468742   6.015722   3.681174   2.015506
    19  H    2.722097   6.026401   4.735319   2.395794   2.084223
    20  H    2.721837   6.026312   4.734797   2.395255   2.084220
                   11         12         13         14         15
    11  H    0.000000
    12  O    0.966458   0.000000
    13  C    5.661894   4.905256   0.000000
    14  H    5.927025   5.115544   1.094613   0.000000
    15  H    6.471803   5.793034   1.091810   1.766380   0.000000
    16  H    5.926609   5.115530   1.094612   1.761801   1.766382
    17  C    3.439394   4.063871   6.574958   7.113539   6.898894
    18  H    3.661795   4.460035   7.557090   8.058254   7.938063
    19  H    4.056556   4.589675   6.583920   7.265128   6.807091
    20  H    4.057222   4.589646   6.583568   7.044638   6.806710
                   16         17         18         19         20
    16  H    0.000000
    17  C    7.113607   0.000000
    18  H    8.058386   1.088853   0.000000
    19  H    7.045036   1.095474   1.782504   0.000000
    20  H    7.264838   1.095470   1.782445   1.788087   0.000000
 Stoichiometry    C8H10O2
 Framework group  C1[X(C8H10O2)]
 Deg. of freedom    54
 Full point group                 C1      NOp   1
 Largest Abelian subgroup         C1      NOp   1
 Largest concise Abelian subgroup C1      NOp   1
                         Standard orientation:                         
 ---------------------------------------------------------------------
 Center     Atomic      Atomic             Coordinates (Angstroms)
 Number     Number       Type             X           Y           Z
 ---------------------------------------------------------------------
      1          6           0        0.100437    1.077550    0.000002
      2          6           0       -1.282481    0.996042    0.000089
      3          6           0       -1.933285   -0.246486    0.000022
      4          6           0       -1.158034   -1.402512   -0.000032
      5          6           0        0.240792   -1.336507   -0.000020
      6          6           0        0.871119   -0.101622   -0.000064
      7          1           0       -1.847092    1.922051    0.000205
      8          1           0       -1.638820   -2.374396   -0.000046
      9          1           0        0.819127   -2.251332    0.000059
     10          8           0        2.228592    0.123623   -0.000011
     11          1           0        1.667620    2.128102    0.001213
     12          8           0        0.715279    2.292681   -0.000198
     13          6           0       -3.442064   -0.310785    0.000006
     14          1           0       -3.861903    0.184975   -0.880979
     15          1           0       -3.793678   -1.344427    0.000142
     16          1           0       -3.861957    0.185228    0.880822
     17          6           0        3.096632   -1.000373    0.000032
     18          1           0        4.109464   -0.600659   -0.000325
     19          1           0        2.948983   -1.615729    0.894235
     20          1           0        2.948597   -1.616094   -0.893852
 ---------------------------------------------------------------------
 Rotational constants (GHZ):           2.5438199           0.9581482           0.7021369
 Standard basis: 6-311G(d,p) (5D, 7F)
 There are   250 symmetry adapted cartesian basis functions of A   symmetry.
 There are   240 symmetry adapted basis functions of A   symmetry.
   240 basis functions,   400 primitive gaussians,   250 cartesian basis functions
    37 alpha electrons       37 beta electrons
       nuclear repulsion energy       516.1951937819 Hartrees.
 NAtoms=   20 NActive=   20 NUniq=   20 SFac= 1.00D+00 NAtFMM=   60 NAOKFM=F Big=F
 Integral buffers will be    131072 words long.
 Raffenetti 2 integral format.
 Two-electron integral symmetry is turned on.
 One-electron integrals computed using PRISM.
 NBasis=   240 RedAO= T EigKep=  1.87D-04  NBF=   240
 NBsUse=   240 1.00D-06 EigRej= -1.00D+00 NBFU=   240
 ExpMin= 1.03D-01 ExpMax= 8.59D+03 ExpMxC= 1.30D+03 IAcc=3 IRadAn=         5 AccDes= 0.00D+00
 Harris functional with IExCor=  402 and IRadAn=       5 diagonalized for initial guess.
 HarFok:  IExCor=  402 AccDes= 0.00D+00 IRadAn=         5 IDoV= 1 UseB2=F ITyADJ=14
 ICtDFT=  3500011 ScaDFX=  1.000000  1.000000  1.000000  1.000000
 FoFCou: FMM=F IPFlag=           0 FMFlag=      100000 FMFlg1=           0
         NFxFlg=           0 DoJE=T BraDBF=F KetDBF=T FulRan=T
         wScrn=  0.000000 ICntrl=       500 IOpCl=  0 I1Cent=   200000004 NGrid=           0
         NMat0=    1 NMatS0=      1 NMatT0=    0 NMatD0=    1 NMtDS0=    0 NMtDT0=    0
 Petite list used in FoFCou.
 Requested convergence on RMS density matrix=1.00D-08 within 128 cycles.
 Requested convergence on MAX density matrix=1.00D-06.
 Requested convergence on             energy=1.00D-06.
 No special actions if energy rises.
 Integral accuracy reduced to 1.0D-05 until final iterations.
 Initial convergence to 1.0D-05 achieved.  Increase integral accuracy.
 SCF Done:  E(RB3LYP) =  -461.434158227     A.U. after   13 cycles
            NFock= 13  Conv=0.82D-08     -V/T= 2.0038

 **********************************************************************

            Population analysis using the SCF density.

 **********************************************************************

 Orbital symmetries:
       Occupied  (A) (A) (A) (A) (A) (A) (A) (A) (A) (A) (A) (A)
                 (A) (A) (A) (A) (A) (A) (A) (A) (A) (A) (A) (A)
                 (A) (A) (A) (A) (A) (A) (A) (A) (A) (A) (A) (A)
                 (A)
       Virtual   (A) (A) (A) (A) (A) (A) (A) (A) (A) (A) (A) (A)
                 (A) (A) (A) (A) (A) (A) (A) (A) (A) (A) (A) (A)
                 (A) (A) (A) (A) (A) (A) (A) (A) (A) (A) (A) (A)
                 (A) (A) (A) (A) (A) (A) (A) (A) (A) (A) (A) (A)
                 (A) (A) (A) (A) (A) (A) (A) (A) (A) (A) (A) (A)
                 (A) (A) (A) (A) (A) (A) (A) (A) (A) (A) (A) (A)
                 (A) (A) (A) (A) (A) (A) (A) (A) (A) (A) (A) (A)
                 (A) (A) (A) (A) (A) (A) (A) (A) (A) (A) (A) (A)
                 (A) (A) (A) (A) (A) (A) (A) (A) (A) (A) (A) (A)
                 (A) (A) (A) (A) (A) (A) (A) (A) (A) (A) (A) (A)
                 (A) (A) (A) (A) (A) (A) (A) (A) (A) (A) (A) (A)
                 (A) (A) (A) (A) (A) (A) (A) (A) (A) (A) (A) (A)
                 (A) (A) (A) (A) (A) (A) (A) (A) (A) (A) (A) (A)
                 (A) (A) (A) (A) (A) (A) (A) (A) (A) (A) (A) (A)
                 (A) (A) (A) (A) (A) (A) (A) (A) (A) (A) (A) (A)
                 (A) (A) (A) (A) (A) (A) (A) (A) (A) (A) (A) (A)
                 (A) (A) (A) (A) (A) (A) (A) (A) (A) (A) (A)
 The electronic state is 1-A.
 Alpha  occ. eigenvalues --  -19.16018 -19.13796 -10.23396 -10.22859 -10.22714
 Alpha  occ. eigenvalues --  -10.17458 -10.17219 -10.16271 -10.16249 -10.16119
 Alpha  occ. eigenvalues --   -1.08183  -1.04902  -0.85265  -0.77409  -0.74333
 Alpha  occ. eigenvalues --   -0.72537  -0.66761  -0.60990  -0.59990  -0.54648
 Alpha  occ. eigenvalues --   -0.52164  -0.48639  -0.48055  -0.45052  -0.44725
 Alpha  occ. eigenvalues --   -0.43400  -0.42127  -0.40307  -0.39921  -0.37603
 Alpha  occ. eigenvalues --   -0.37101  -0.34783  -0.34678  -0.33986  -0.31516
 Alpha  occ. eigenvalues --   -0.23745  -0.20811
 Alpha virt. eigenvalues --   -0.00057   0.01414   0.04139   0.04851   0.05952
 Alpha virt. eigenvalues --    0.08102   0.09686   0.10114   0.10772   0.11933
 Alpha virt. eigenvalues --    0.12347   0.12534   0.15262   0.18050   0.19381
 Alpha virt. eigenvalues --    0.22023   0.25159   0.26148   0.29124   0.29995
 Alpha virt. eigenvalues --    0.31252   0.31408   0.33107   0.35728   0.36610
 Alpha virt. eigenvalues --    0.39219   0.39539   0.40162   0.40519   0.42709
 Alpha virt. eigenvalues --    0.43066   0.45717   0.45785   0.47565   0.49165
 Alpha virt. eigenvalues --    0.49631   0.50323   0.52096   0.52404   0.52753
 Alpha virt. eigenvalues --    0.54988   0.56541   0.57755   0.58080   0.60134
 Alpha virt. eigenvalues --    0.60624   0.61512   0.62176   0.63740   0.65169
 Alpha virt. eigenvalues --    0.65285   0.67269   0.69148   0.74254   0.77342
 Alpha virt. eigenvalues --    0.79251   0.80330   0.80760   0.82839   0.85112
 Alpha virt. eigenvalues --    0.86642   0.89479   0.91381   0.92918   0.93733
 Alpha virt. eigenvalues --    0.96192   0.98681   1.00005   1.01895   1.03147
 Alpha virt. eigenvalues --    1.04771   1.05642   1.10167   1.13111   1.18065
 Alpha virt. eigenvalues --    1.20955   1.22129   1.25022   1.31255   1.35197
 Alpha virt. eigenvalues --    1.35489   1.36309   1.40785   1.42280   1.42298
 Alpha virt. eigenvalues --    1.45335   1.46055   1.47496   1.48379   1.50360
 Alpha virt. eigenvalues --    1.51970   1.55031   1.55571   1.55848   1.56379
 Alpha virt. eigenvalues --    1.58134   1.58659   1.59391   1.63532   1.65149
 Alpha virt. eigenvalues --    1.67469   1.67625   1.69553   1.69788   1.71971
 Alpha virt. eigenvalues --    1.76903   1.77856   1.79240   1.86267   1.86867
 Alpha virt. eigenvalues --    1.87350   1.89797   1.91882   1.93866   1.95321
 Alpha virt. eigenvalues --    1.96633   1.98374   2.01560   2.04218   2.06224
 Alpha virt. eigenvalues --    2.06731   2.10245   2.11704   2.13000   2.14023
 Alpha virt. eigenvalues --    2.23593   2.24810   2.28938   2.29489   2.32452
 Alpha virt. eigenvalues --    2.36098   2.36333   2.39127   2.39629   2.43333
 Alpha virt. eigenvalues --    2.43994   2.45234   2.49278   2.51858   2.52997
 Alpha virt. eigenvalues --    2.53773   2.55193   2.57512   2.59450   2.60671
 Alpha virt. eigenvalues --    2.63793   2.65679   2.66885   2.69461   2.71920
 Alpha virt. eigenvalues --    2.72662   2.82370   2.85500   2.85764   2.86815
 Alpha virt. eigenvalues --    2.87355   2.92262   2.94817   3.00690   3.02390
 Alpha virt. eigenvalues --    3.04406   3.06358   3.10079   3.14919   3.16879
 Alpha virt. eigenvalues --    3.19687   3.23826   3.31112   3.35041   3.39173
 Alpha virt. eigenvalues --    3.42713   3.51727   3.58619   3.61974   3.63425
 Alpha virt. eigenvalues --    3.74540   3.78913   3.79012   3.82115   3.85959
 Alpha virt. eigenvalues --    3.99742   4.08170   4.08467   4.13037   4.18454
 Alpha virt. eigenvalues --    4.32656   4.80033   4.85220   4.90892   5.31533
 Alpha virt. eigenvalues --    5.35085   5.68139   5.77682  23.46401  23.85250
 Alpha virt. eigenvalues --   23.87845  23.89926  23.93782  24.05951  24.10214
 Alpha virt. eigenvalues --   24.17514  49.88827  49.94086
          Condensed to atoms (all electrons):
               1          2          3          4          5          6
     1  C    4.838610   0.548852  -0.042188  -0.046658   0.011663   0.287210
     2  C    0.548852   4.867429   0.513364  -0.051603  -0.053123  -0.046835
     3  C   -0.042188   0.513364   5.017677   0.547335  -0.039941  -0.060077
     4  C   -0.046658  -0.051603   0.547335   4.848380   0.453173  -0.005180
     5  C    0.011663  -0.053123  -0.039941   0.453173   5.102413   0.325064
     6  C    0.287210  -0.046835  -0.060077  -0.005180   0.325064   5.223713
     7  H   -0.044563   0.406061  -0.051079   0.009078  -0.002742   0.017396
     8  H   -0.000360   0.008179  -0.043525   0.411421  -0.038288   0.008050
     9  H    0.002186   0.000354   0.007232  -0.024321   0.411251  -0.049244
    10  O   -0.068113   0.002806  -0.000203   0.005643  -0.076471   0.347424
    11  H   -0.046814   0.005214  -0.000181  -0.000578   0.003812  -0.022007
    12  O    0.395113  -0.059490   0.003946  -0.000469   0.007156  -0.094081
    13  C    0.006664  -0.061680   0.364117  -0.058560   0.008770  -0.000880
    14  H    0.000212  -0.004608  -0.037499   0.000830  -0.000317   0.000028
    15  H   -0.000407   0.007087  -0.035022  -0.007606   0.000478   0.000047
    16  H    0.000212  -0.004605  -0.037506   0.000833  -0.000316   0.000028
    17  C    0.006696  -0.000268   0.000060  -0.000340  -0.012041  -0.072018
    18  H   -0.000211   0.000028  -0.000001   0.000032   0.000825   0.004680
    19  H   -0.000295  -0.000071  -0.000014  -0.000498   0.004437  -0.004712
    20  H   -0.000291  -0.000072  -0.000014  -0.000498   0.004430  -0.004715
               7          8          9         10         11         12
     1  C   -0.044563  -0.000360   0.002186  -0.068113  -0.046814   0.395113
     2  C    0.406061   0.008179   0.000354   0.002806   0.005214  -0.059490
     3  C   -0.051079  -0.043525   0.007232  -0.000203  -0.000181   0.003946
     4  C    0.009078   0.411421  -0.024321   0.005643  -0.000578  -0.000469
     5  C   -0.002742  -0.038288   0.411251  -0.076471   0.003812   0.007156
     6  C    0.017396   0.008050  -0.049244   0.347424  -0.022007  -0.094081
     7  H    0.578282  -0.000329   0.000060  -0.000135  -0.000882   0.004530
     8  H   -0.000329   0.590611  -0.008017  -0.000100   0.000001   0.000007
     9  H    0.000060  -0.008017   0.560692  -0.006096   0.000029  -0.000060
    10  O   -0.000135  -0.000100  -0.006096   7.993008   0.026745  -0.005666
    11  H   -0.000882   0.000001   0.000029   0.026745   0.449776   0.332936
    12  O    0.004530   0.000007  -0.000060  -0.005666   0.332936   7.778808
    13  C   -0.007619  -0.010005  -0.000365   0.000000   0.000028  -0.000069
    14  H    0.001004   0.000101   0.000019   0.000000   0.000000  -0.000006
    15  H    0.000117   0.004083  -0.000028   0.000000  -0.000001   0.000002
    16  H    0.001005   0.000101   0.000019   0.000000   0.000000  -0.000007
    17  C    0.000026  -0.000036   0.004768   0.277872  -0.001943  -0.000219
    18  H   -0.000001   0.000000  -0.000026  -0.022885  -0.000485   0.000023
    19  H    0.000000   0.000013   0.000224  -0.034019   0.000326  -0.000048
    20  H    0.000000   0.000014   0.000223  -0.034011   0.000328  -0.000048
              13         14         15         16         17         18
     1  C    0.006664   0.000212  -0.000407   0.000212   0.006696  -0.000211
     2  C   -0.061680  -0.004608   0.007087  -0.004605  -0.000268   0.000028
     3  C    0.364117  -0.037499  -0.035022  -0.037506   0.000060  -0.000001
     4  C   -0.058560   0.000830  -0.007606   0.000833  -0.000340   0.000032
     5  C    0.008770  -0.000317   0.000478  -0.000316  -0.012041   0.000825
     6  C   -0.000880   0.000028   0.000047   0.000028  -0.072018   0.004680
     7  H   -0.007619   0.001004   0.000117   0.001005   0.000026  -0.000001
     8  H   -0.010005   0.000101   0.004083   0.000101  -0.000036   0.000000
     9  H   -0.000365   0.000019  -0.000028   0.000019   0.004768  -0.000026
    10  O    0.000000   0.000000   0.000000   0.000000   0.277872  -0.022885
    11  H    0.000028   0.000000  -0.000001   0.000000  -0.001943  -0.000485
    12  O   -0.000069  -0.000006   0.000002  -0.000007  -0.000219   0.000023
    13  C    4.806814   0.401629   0.406535   0.401638   0.000000   0.000000
    14  H    0.401629   0.579222  -0.027565  -0.033020   0.000000   0.000000
    15  H    0.406535  -0.027565   0.577310  -0.027565   0.000000   0.000000
    16  H    0.401638  -0.033020  -0.027565   0.579224   0.000000   0.000000
    17  C    0.000000   0.000000   0.000000   0.000000   4.715797   0.402208
    18  H    0.000000   0.000000   0.000000   0.000000   0.402208   0.542592
    19  H    0.000000   0.000000   0.000000   0.000001   0.400248  -0.027132
    20  H    0.000000   0.000001   0.000000   0.000000   0.400241  -0.027132
              19         20
     1  C   -0.000295  -0.000291
     2  C   -0.000071  -0.000072
     3  C   -0.000014  -0.000014
     4  C   -0.000498  -0.000498
     5  C    0.004437   0.004430
     6  C   -0.004712  -0.004715
     7  H    0.000000   0.000000
     8  H    0.000013   0.000014
     9  H    0.000224   0.000223
    10  O   -0.034019  -0.034011
    11  H    0.000326   0.000328
    12  O   -0.000048  -0.000048
    13  C    0.000000   0.000000
    14  H    0.000000   0.000001
    15  H    0.000000   0.000000
    16  H    0.000001   0.000000
    17  C    0.400248   0.400241
    18  H   -0.027132  -0.027132
    19  H    0.597778  -0.050823
    20  H   -0.050823   0.597783
 Mulliken charges:
               1
     1  C    0.152480
     2  C   -0.077018
     3  C   -0.106480
     4  C   -0.080414
     5  C   -0.110232
     6  C    0.146112
     7  H    0.089790
     8  H    0.078078
     9  H    0.101100
    10  O   -0.405799
    11  H    0.253695
    12  O   -0.362357
    13  C   -0.257016
    14  H    0.119967
    15  H    0.102536
    16  H    0.119957
    17  C   -0.121053
    18  H    0.127484
    19  H    0.114585
    20  H    0.114584
 Sum of Mulliken charges =   0.00000
 Mulliken charges with hydrogens summed into heavy atoms:
               1
     1  C    0.152480
     2  C    0.012772
     3  C   -0.106480
     4  C   -0.002337
     5  C   -0.009131
     6  C    0.146112
    10  O   -0.405799
    12  O   -0.108662
    13  C    0.085445
    17  C    0.235601
 Electronic spatial extent (au):  <R**2>=           1625.9239
 Charge=              0.0000 electrons
 Dipole moment (field-independent basis, Debye):
    X=              1.6417    Y=             -1.9203    Z=              0.0022  Tot=              2.5264
 Quadrupole moment (field-independent basis, Debye-Ang):
   XX=            -48.0392   YY=            -59.1762   ZZ=            -62.5530
   XY=             -2.3663   XZ=              0.0042   YZ=              0.0056
 Traceless Quadrupole moment (field-independent basis, Debye-Ang):
   XX=              8.5503   YY=             -2.5867   ZZ=             -5.9635
   XY=             -2.3663   XZ=              0.0042   YZ=              0.0056
 Octapole moment (field-independent basis, Debye-Ang**2):
  XXX=             37.1698  YYY=             -6.0439  ZZZ=              0.0003  XYY=             10.0242
  XXY=              0.0698  XXZ=              0.0055  XZZ=              7.2159  YZZ=              4.4561
  YYZ=              0.0126  XYZ=              0.0096
 Hexadecapole moment (field-independent basis, Debye-Ang**3):
 XXXX=          -1393.2028 YYYY=           -575.4655 ZZZZ=            -79.3885 XXXY=            -10.5411
 XXXZ=              0.0031 YYYX=             11.8200 YYYZ=              0.0278 ZZZX=              0.0048
 ZZZY=              0.0001 XXYY=           -309.7557 XXZZ=           -268.1610 YYZZ=           -112.4221
 XXYZ=              0.0176 YYXZ=              0.0211 ZZXY=             -1.8704
 N-N= 5.161951937819D+02 E-N=-2.109315616150D+03  KE= 4.596645239517D+02
 1|1|UNPC-PC-20250526LCFF|SP|RB3LYP|6-311G(d,p)|C8H10O2|ADMINISTRATOR|0
 8-Dec-2025|0||# rb3lyp/6-311g(d,p) geom=connectivity temperature=823.1
 5||Title Card Required||0,1|C,0,-0.100437,1.07755,-0.000002|C,0,1.2824
 81,0.996042,-0.000089|C,0,1.933285,-0.246486,-0.000022|C,0,1.158034,-1
 .402512,0.000032|C,0,-0.240792,-1.336507,0.00002|C,0,-0.871119,-0.1016
 22,0.000064|H,0,1.847092,1.922051,-0.000205|H,0,1.63882,-2.374396,0.00
 0046|H,0,-0.819127,-2.251332,-0.000059|O,0,-2.228592,0.123623,0.000011
 |H,0,-1.66762,2.128102,-0.001213|O,0,-0.715279,2.292681,0.000198|C,0,3
 .442064,-0.310785,-0.000006|H,0,3.861903,0.184975,0.880979|H,0,3.79367
 8,-1.344427,-0.000142|H,0,3.861957,0.185228,-0.880822|C,0,-3.096632,-1
 .000373,-0.000032|H,0,-4.109464,-0.600659,0.000325|H,0,-2.948983,-1.61
 5729,-0.894235|H,0,-2.948597,-1.616094,0.893852||Version=EM64W-G16RevA
 .03|State=1-A|HF=-461.4341582|RMSD=8.223e-009|Dipole=-0.6459028,-0.755
 4951,-0.0008781|Quadrupole=6.3569014,-1.9231727,-4.4337287,1.7592758,0
 .0031039,-0.0041444|PG=C01 [X(C8H10O2)]||@


 ONE OF THE BENEFITS OF A COLLEGE EDUCATION
 IS TO SHOW THE BOY ITS LITTLE AVAIL 
                                    EMERSON IN 'CULTURE'
 Job cpu time:       0 days  0 hours  0 minutes 20.0 seconds.
 Elapsed time:       0 days  0 hours  0 minutes 18.3 seconds.
 File lengths (MBytes):  RWF=     37 Int=      0 D2E=      0 Chk=      4 Scr=      1
 Normal termination of Gaussian 16 at Mon Dec 08 16:43:41 2025.
