 Generated by Multiwfn (http://sobereva.com/multiwfn)
GAUSSIAN             67 MOL ORBITALS    284 PRIMITIVES       17 NUCLEI
  C    1    (CENTRE  1)   2.13755407  2.44814972 -0.00014757  CHARGE =  6.0
  C    2    (CENTRE  2)  -0.44898027  2.98454636 -0.00009088  CHARGE =  6.0
  C    3    (CENTRE  3)  -2.19015296  1.03014609 -0.00000962  CHARGE =  6.0
  C    4    (CENTRE  4)  -1.35688556 -1.48857530  0.00002628  CHARGE =  6.0
  C    5    (CENTRE  5)   1.21516969 -1.99826822  0.00002628  CHARGE =  6.0
  C    6    (CENTRE  6)   2.99928641 -0.04135839 -0.00003419  CHARGE =  6.0
  H    7    (CENTRE  7)   3.48146479  3.99444470 -0.00025906  CHARGE =  1.0
  H    8    (CENTRE  8)  -1.10142161  4.93096043 -0.00009844  CHARGE =  1.0
  H    9    (CENTRE  9)   1.80455277 -3.96124575 -0.00000584  CHARGE =  1.0
  O   10    (CENTRE 10)  -3.05845715 -3.42141001  0.00001684  CHARGE =  8.0
  O   11    (CENTRE 11)  -4.77893416  1.33607551  0.00014156  CHARGE =  8.0
  H   12    (CENTRE 12)  -4.72857827 -2.68562828 -0.00038946  CHARGE =  1.0
  H   13    (CENTRE 13)  -5.19186404  3.10575675 -0.00206564  CHARGE =  1.0
  C   14    (CENTRE 14)   5.78890206 -0.64630861  0.00028329  CHARGE =  6.0
  H   15    (CENTRE 15)   6.31982071 -1.75064939  1.66701417  CHARGE =  1.0
  H   16    (CENTRE 16)   6.31906860 -1.75607480 -1.66304987  CHARGE =  1.0
  H   17    (CENTRE 17)   6.92672679  1.07512239 -0.00273461  CHARGE =  1.0
CENTRE ASSIGNMENTS    1  1  1  1  1  1  1  1  1  1  1  1  1  1  1  1  1  1  1  1
CENTRE ASSIGNMENTS    1  1  1  1  1  1  1  1  2  2  2  2  2  2  2  2  2  2  2  2
CENTRE ASSIGNMENTS    2  2  2  2  2  2  2  2  2  2  2  2  2  2  2  2  3  3  3  3
CENTRE ASSIGNMENTS    3  3  3  3  3  3  3  3  3  3  3  3  3  3  3  3  3  3  3  3
CENTRE ASSIGNMENTS    3  3  3  3  4  4  4  4  4  4  4  4  4  4  4  4  4  4  4  4
CENTRE ASSIGNMENTS    4  4  4  4  4  4  4  4  4  4  4  4  5  5  5  5  5  5  5  5
CENTRE ASSIGNMENTS    5  5  5  5  5  5  5  5  5  5  5  5  5  5  5  5  5  5  5  5
CENTRE ASSIGNMENTS    6  6  6  6  6  6  6  6  6  6  6  6  6  6  6  6  6  6  6  6
CENTRE ASSIGNMENTS    6  6  6  6  6  6  6  6  7  7  7  7  8  8  8  8  9  9  9  9
CENTRE ASSIGNMENTS   10 10 10 10 10 10 10 10 10 10 10 10 10 10 10 10 10 10 10 10
CENTRE ASSIGNMENTS   10 10 10 10 10 10 10 10 11 11 11 11 11 11 11 11 11 11 11 11
CENTRE ASSIGNMENTS   11 11 11 11 11 11 11 11 11 11 11 11 11 11 11 11 12 12 12 12
CENTRE ASSIGNMENTS   13 13 13 13 14 14 14 14 14 14 14 14 14 14 14 14 14 14 14 14
CENTRE ASSIGNMENTS   14 14 14 14 14 14 14 14 14 14 14 14 15 15 15 15 16 16 16 16
CENTRE ASSIGNMENTS   17 17 17 17
TYPE ASSIGNMENTS      1  1  1  1  1  1  1  1  1  2  2  2  3  3  3  4  4  4  1  2
TYPE ASSIGNMENTS      3  4  5  6  7  8  9 10  1  1  1  1  1  1  1  1  1  2  2  2
TYPE ASSIGNMENTS      3  3  3  4  4  4  1  2  3  4  5  6  7  8  9 10  1  1  1  1
TYPE ASSIGNMENTS      1  1  1  1  1  2  2  2  3  3  3  4  4  4  1  2  3  4  5  6
TYPE ASSIGNMENTS      7  8  9 10  1  1  1  1  1  1  1  1  1  2  2  2  3  3  3  4
TYPE ASSIGNMENTS      4  4  1  2  3  4  5  6  7  8  9 10  1  1  1  1  1  1  1  1
TYPE ASSIGNMENTS      1  2  2  2  3  3  3  4  4  4  1  2  3  4  5  6  7  8  9 10
TYPE ASSIGNMENTS      1  1  1  1  1  1  1  1  1  2  2  2  3  3  3  4  4  4  1  2
TYPE ASSIGNMENTS      3  4  5  6  7  8  9 10  1  1  1  1  1  1  1  1  1  1  1  1
TYPE ASSIGNMENTS      1  1  1  1  1  1  1  1  1  2  2  2  3  3  3  4  4  4  1  2
TYPE ASSIGNMENTS      3  4  5  6  7  8  9 10  1  1  1  1  1  1  1  1  1  2  2  2
TYPE ASSIGNMENTS      3  3  3  4  4  4  1  2  3  4  5  6  7  8  9 10  1  1  1  1
TYPE ASSIGNMENTS      1  1  1  1  1  1  1  1  1  1  1  1  1  2  2  2  3  3  3  4
TYPE ASSIGNMENTS      4  4  1  2  3  4  5  6  7  8  9 10  1  1  1  1  1  1  1  1
TYPE ASSIGNMENTS      1  1  1  1
EXPONENTS  0.3047525D+04 0.4573695D+03 0.1039487D+03 0.2921016D+02 0.9286663D+01
EXPONENTS  0.3163927D+01 0.7868272D+01 0.1881289D+01 0.5442493D+00 0.7868272D+01
EXPONENTS  0.1881289D+01 0.5442493D+00 0.7868272D+01 0.1881289D+01 0.5442493D+00
EXPONENTS  0.7868272D+01 0.1881289D+01 0.5442493D+00 0.1687145D+00 0.1687145D+00
EXPONENTS  0.1687145D+00 0.1687145D+00 0.8000000D+00 0.8000000D+00 0.8000000D+00
EXPONENTS  0.8000000D+00 0.8000000D+00 0.8000000D+00 0.3047525D+04 0.4573695D+03
EXPONENTS  0.1039487D+03 0.2921016D+02 0.9286663D+01 0.3163927D+01 0.7868272D+01
EXPONENTS  0.1881289D+01 0.5442493D+00 0.7868272D+01 0.1881289D+01 0.5442493D+00
EXPONENTS  0.7868272D+01 0.1881289D+01 0.5442493D+00 0.7868272D+01 0.1881289D+01
EXPONENTS  0.5442493D+00 0.1687145D+00 0.1687145D+00 0.1687145D+00 0.1687145D+00
EXPONENTS  0.8000000D+00 0.8000000D+00 0.8000000D+00 0.8000000D+00 0.8000000D+00
EXPONENTS  0.8000000D+00 0.3047525D+04 0.4573695D+03 0.1039487D+03 0.2921016D+02
EXPONENTS  0.9286663D+01 0.3163927D+01 0.7868272D+01 0.1881289D+01 0.5442493D+00
EXPONENTS  0.7868272D+01 0.1881289D+01 0.5442493D+00 0.7868272D+01 0.1881289D+01
EXPONENTS  0.5442493D+00 0.7868272D+01 0.1881289D+01 0.5442493D+00 0.1687145D+00
EXPONENTS  0.1687145D+00 0.1687145D+00 0.1687145D+00 0.8000000D+00 0.8000000D+00
EXPONENTS  0.8000000D+00 0.8000000D+00 0.8000000D+00 0.8000000D+00 0.3047525D+04
EXPONENTS  0.4573695D+03 0.1039487D+03 0.2921016D+02 0.9286663D+01 0.3163927D+01
EXPONENTS  0.7868272D+01 0.1881289D+01 0.5442493D+00 0.7868272D+01 0.1881289D+01
EXPONENTS  0.5442493D+00 0.7868272D+01 0.1881289D+01 0.5442493D+00 0.7868272D+01
EXPONENTS  0.1881289D+01 0.5442493D+00 0.1687145D+00 0.1687145D+00 0.1687145D+00
EXPONENTS  0.1687145D+00 0.8000000D+00 0.8000000D+00 0.8000000D+00 0.8000000D+00
EXPONENTS  0.8000000D+00 0.8000000D+00 0.3047525D+04 0.4573695D+03 0.1039487D+03
EXPONENTS  0.2921016D+02 0.9286663D+01 0.3163927D+01 0.7868272D+01 0.1881289D+01
EXPONENTS  0.5442493D+00 0.7868272D+01 0.1881289D+01 0.5442493D+00 0.7868272D+01
EXPONENTS  0.1881289D+01 0.5442493D+00 0.7868272D+01 0.1881289D+01 0.5442493D+00
EXPONENTS  0.1687145D+00 0.1687145D+00 0.1687145D+00 0.1687145D+00 0.8000000D+00
EXPONENTS  0.8000000D+00 0.8000000D+00 0.8000000D+00 0.8000000D+00 0.8000000D+00
EXPONENTS  0.3047525D+04 0.4573695D+03 0.1039487D+03 0.2921016D+02 0.9286663D+01
EXPONENTS  0.3163927D+01 0.7868272D+01 0.1881289D+01 0.5442493D+00 0.7868272D+01
EXPONENTS  0.1881289D+01 0.5442493D+00 0.7868272D+01 0.1881289D+01 0.5442493D+00
EXPONENTS  0.7868272D+01 0.1881289D+01 0.5442493D+00 0.1687145D+00 0.1687145D+00
EXPONENTS  0.1687145D+00 0.1687145D+00 0.8000000D+00 0.8000000D+00 0.8000000D+00
EXPONENTS  0.8000000D+00 0.8000000D+00 0.8000000D+00 0.1873114D+02 0.2825394D+01
EXPONENTS  0.6401217D+00 0.1612778D+00 0.1873114D+02 0.2825394D+01 0.6401217D+00
EXPONENTS  0.1612778D+00 0.1873114D+02 0.2825394D+01 0.6401217D+00 0.1612778D+00
EXPONENTS  0.5484672D+04 0.8252349D+03 0.1880470D+03 0.5296450D+02 0.1689757D+02
EXPONENTS  0.5799635D+01 0.1553962D+02 0.3599934D+01 0.1013762D+01 0.1553962D+02
EXPONENTS  0.3599934D+01 0.1013762D+01 0.1553962D+02 0.3599934D+01 0.1013762D+01
EXPONENTS  0.1553962D+02 0.3599934D+01 0.1013762D+01 0.2700058D+00 0.2700058D+00
EXPONENTS  0.2700058D+00 0.2700058D+00 0.8000000D+00 0.8000000D+00 0.8000000D+00
EXPONENTS  0.8000000D+00 0.8000000D+00 0.8000000D+00 0.5484672D+04 0.8252349D+03
EXPONENTS  0.1880470D+03 0.5296450D+02 0.1689757D+02 0.5799635D+01 0.1553962D+02
EXPONENTS  0.3599934D+01 0.1013762D+01 0.1553962D+02 0.3599934D+01 0.1013762D+01
EXPONENTS  0.1553962D+02 0.3599934D+01 0.1013762D+01 0.1553962D+02 0.3599934D+01
EXPONENTS  0.1013762D+01 0.2700058D+00 0.2700058D+00 0.2700058D+00 0.2700058D+00
EXPONENTS  0.8000000D+00 0.8000000D+00 0.8000000D+00 0.8000000D+00 0.8000000D+00
EXPONENTS  0.8000000D+00 0.1873114D+02 0.2825394D+01 0.6401217D+00 0.1612778D+00
EXPONENTS  0.1873114D+02 0.2825394D+01 0.6401217D+00 0.1612778D+00 0.3047525D+04
EXPONENTS  0.4573695D+03 0.1039487D+03 0.2921016D+02 0.9286663D+01 0.3163927D+01
EXPONENTS  0.7868272D+01 0.1881289D+01 0.5442493D+00 0.7868272D+01 0.1881289D+01
EXPONENTS  0.5442493D+00 0.7868272D+01 0.1881289D+01 0.5442493D+00 0.7868272D+01
EXPONENTS  0.1881289D+01 0.5442493D+00 0.1687145D+00 0.1687145D+00 0.1687145D+00
EXPONENTS  0.1687145D+00 0.8000000D+00 0.8000000D+00 0.8000000D+00 0.8000000D+00
EXPONENTS  0.8000000D+00 0.8000000D+00 0.1873114D+02 0.2825394D+01 0.6401217D+00
EXPONENTS  0.1612778D+00 0.1873114D+02 0.2825394D+01 0.6401217D+00 0.1612778D+00
EXPONENTS  0.1873114D+02 0.2825394D+01 0.6401217D+00 0.1612778D+00
MO    1     MO 0.0        OCC NO =    1.0000000  ORB. ENERGY =  -18.997875
 -0.47075018D-05 -0.86844216D-05 -0.14019349D-04 -0.18249027D-04 -0.15571928D-04
 -0.53766125D-05  0.27086810D-04  0.12484286D-04 -0.35007241D-04 -0.90088411D-04
 -0.69074080D-04 -0.34472807D-04  0.11056153D-04  0.84771567D-05  0.42306953D-05
 -0.17264859D-07 -0.13237599D-07 -0.66064894D-08  0.37852468D-03 -0.14085938D-03
 -0.63213743D-04  0.87407659D-08  0.49568792D-04  0.27367076D-05 -0.70824829D-05
 -0.51023334D-04 -0.52257789D-08 -0.11381016D-07  0.12912703D-04  0.23821416D-04
  0.38455151D-04  0.50057181D-04  0.42713883D-04  0.14748077D-04 -0.81305993D-04
 -0.37473858D-04  0.10508061D-03  0.10044501D-03  0.77014865D-04  0.38435815D-04
  0.45236772D-04  0.34684688D-04  0.17310090D-04  0.37055790D-07  0.28412029D-07
  0.14179594D-07 -0.62649718D-03 -0.15098613D-03  0.28655365D-03  0.10887875D-07
 -0.76818237D-04 -0.54973525D-04  0.54280901D-04  0.75790824D-05 -0.99859062D-08
 -0.71773514D-07 -0.25186487D-04 -0.46464150D-04 -0.75007546D-04 -0.97637538D-04
 -0.83314288D-04 -0.28766421D-04 -0.44208278D-04 -0.20375555D-04  0.57135182D-04
 -0.55796609D-03 -0.42781301D-03 -0.21350868D-03 -0.81655773D-05 -0.62608468D-05
 -0.31246013D-05  0.16852847D-06  0.12921694D-06  0.64488310D-07  0.60468012D-06
  0.73739037D-03  0.39330833D-04 -0.10866053D-06  0.53986953D-04 -0.53628930D-04
 -0.82963858D-04  0.40176764D-04 -0.18835345D-07 -0.40213596D-07  0.12781832D-04
  0.23579984D-04  0.38065405D-04  0.49549847D-04  0.42280974D-04  0.14598604D-04
 -0.63413108D-04 -0.29227044D-04  0.81955681D-04 -0.71552441D-04 -0.54861874D-04
 -0.27379920D-04 -0.47318468D-04 -0.36280800D-04 -0.18106662D-04 -0.11325103D-07
 -0.86833703D-08 -0.43336104D-08 -0.11332893D-03 -0.25716839D-03 -0.25871529D-03
  0.45734975D-07  0.57338773D-05  0.28293026D-04  0.33453145D-04  0.12411201D-03
 -0.54581279D-08  0.40798340D-07  0.47157886D-05  0.86997092D-05  0.14044028D-04
  0.18281152D-04  0.15599340D-04  0.53860772D-05 -0.11801747D-04 -0.54394146D-05
  0.15252686D-04 -0.58544211D-04 -0.44887987D-04 -0.22402252D-04  0.43495428D-04
  0.33349535D-04  0.16643755D-04 -0.15276346D-07 -0.11712933D-07 -0.58455745D-08
  0.23378548D-03  0.43019106D-05  0.11629833D-03 -0.11076333D-07  0.15492760D-04
  0.22364621D-04  0.32302642D-04  0.13163271D-04  0.26403760D-07  0.41165350D-09
  0.59756366D-05  0.11023883D-04  0.17795965D-04  0.23165059D-04  0.19766787D-04
  0.68249964D-05 -0.25669309D-04 -0.11830961D-04  0.33175249D-04 -0.34508754D-04
 -0.26459124D-04 -0.13204957D-04 -0.50143354D-05 -0.38446743D-05 -0.19187619D-05
 -0.11740490D-07 -0.90018631D-08 -0.44925606D-08 -0.20379436D-03  0.13272482D-03
 -0.61170923D-05  0.63178143D-08  0.13541872D-04 -0.31649037D-04  0.27138286D-04
 -0.11557486D-04 -0.64545179D-09 -0.26122973D-08  0.28020166D-05  0.47527505D-05
  0.54108384D-05  0.23773832D-04 -0.19832426D-04 -0.33639548D-04 -0.38297436D-04
 -0.76654449D-04  0.57796190D-05  0.98033278D-05  0.11160742D-04  0.23349208D-04
  0.20613334D-04  0.37939538D-04  0.61393335D-04  0.80703257D-04  0.69218715D-04
  0.23667054D-04 -0.10136618D-03 -0.45229392D-04  0.13356300D-03  0.19768379D-03
  0.15230470D-03  0.66869967D-04  0.14004875D-03  0.10790001D-03  0.47373917D-04
  0.13239621D-06  0.10200414D-06  0.44785314D-07 -0.30334144D-03 -0.20391971D-03
 -0.10397547D-03 -0.55651351D-07  0.11571587D-03  0.50044113D-04  0.11601048D-03
 -0.15396163D-03  0.12639121D-07 -0.49104407D-07  0.82561226D+00  0.15195673D+01
  0.24589467D+01  0.32323543D+01  0.27723715D+01  0.94792090D+00 -0.15793887D-01
 -0.70472018D-02  0.20810481D-01  0.13987752D-02  0.10776809D-02  0.47315997D-03
  0.26710529D-02  0.20579023D-02  0.90352994D-03 -0.42922069D-05 -0.33069140D-05
 -0.14519134D-05  0.38902598D-02  0.36162567D-03 -0.16687130D-03  0.67557712D-07
 -0.92425968D-02 -0.93473327D-02 -0.92672464D-02 -0.64360978D-04  0.59599686D-09
  0.32064133D-06 -0.18581696D-05 -0.31518074D-05 -0.35882213D-05 -0.14473536D-03
  0.97951346D-04  0.16614402D-03  0.18914910D-03 -0.17917942D-03  0.15522540D-05
  0.28636055D-05  0.46227472D-05  0.60174433D-05  0.51346953D-05  0.17728869D-05
 -0.67371921D-05 -0.31051657D-05  0.87072087D-05  0.15827040D-04  0.12135170D-04
  0.60563006D-05 -0.13337144D-04 -0.10226076D-04 -0.51035287D-05 -0.14862825D-08
 -0.11395871D-08 -0.56873384D-09 -0.65621608D-04  0.18241337D-04 -0.70513641D-07
  0.73577598D-08 -0.36146376D-05  0.69615802D-05 -0.10358094D-06  0.15772283D-05
 -0.74160092D-08 -0.33430088D-07  0.23580173D-05  0.39996437D-05  0.45534530D-05
  0.23853635D-05  0.23638804D-05  0.40095886D-05  0.45647749D-05  0.23926858D-05
 -0.66627119D-06 -0.11301220D-05 -0.12866040D-05  0.41291311D-05
MO    2     MO 0.0        OCC NO =    1.0000000  ORB. ENERGY =  -18.981188
  0.10112347D-04  0.18655306D-04  0.30115448D-04  0.39201365D-04  0.33450596D-04
  0.11549687D-04 -0.42235101D-04 -0.19466120D-04  0.54585031D-04  0.16767297D-04
  0.12856100D-04  0.64160950D-05 -0.31658925D-04 -0.24274056D-04 -0.12114455D-04
 -0.17121374D-08 -0.13127583D-08 -0.65515841D-09 -0.35086941D-03  0.11977072D-03
  0.99632517D-04 -0.75196184D-08 -0.23010902D-04  0.28051689D-05  0.42899890D-04
  0.49455351D-04  0.17035666D-08  0.55983758D-08 -0.46127352D-05 -0.85095958D-05
 -0.13737126D-04 -0.17881657D-04 -0.15258450D-04 -0.52683761D-05  0.26373730D-04
  0.12155628D-04 -0.34085650D-04 -0.84501824D-04 -0.64790639D-04 -0.32335070D-04
 -0.78716623D-04 -0.60354914D-04 -0.30121332D-04  0.84295043D-08  0.64632092D-08
  0.32255944D-08  0.49356031D-03  0.10338054D-03 -0.23774274D-03  0.17245046D-08
  0.16726356D-04  0.29889024D-04 -0.17164033D-05  0.24011268D-04 -0.25713920D-08
 -0.62836420D-08  0.26078323D-04  0.48109414D-04  0.77663511D-04  0.10109482D-03
  0.86264390D-04  0.29785021D-04 -0.11816065D-03 -0.54460134D-04  0.15271190D-03
 -0.10918501D-04 -0.83716141D-05 -0.41780222D-05  0.70773614D-04  0.54264718D-04
  0.27081898D-04  0.21654914D-07  0.16603614D-07  0.82863672D-08 -0.67760056D-03
 -0.56062847D-03  0.13510493D-03  0.67684278D-08  0.67432766D-04 -0.69173144D-04
  0.82399785D-04 -0.23290200D-04 -0.19595109D-07  0.26447841D-08 -0.34662986D-04
 -0.63946440D-04 -0.10322938D-03 -0.13437398D-03 -0.11466156D-03 -0.39589882D-04
 -0.24533102D-04 -0.11307284D-04  0.31706806D-04 -0.33624775D-03 -0.25781345D-03
 -0.12866698D-03 -0.45956869D-03 -0.35236812D-03 -0.17585639D-03  0.20876742D-07
  0.16006962D-07  0.79885957D-08  0.20641837D-03  0.48289953D-03  0.74805944D-03
 -0.17742701D-07 -0.91137051D-04 -0.19782306D-05 -0.12754085D-03 -0.40326317D-04
  0.32925839D-08 -0.19162835D-07  0.74341232D-05  0.13714506D-04  0.22139465D-04
  0.28819005D-04  0.24591309D-04  0.84907880D-05 -0.66563934D-04 -0.30679256D-04
  0.86027837D-04  0.64846297D-05  0.49720028D-05  0.24813778D-05  0.31697574D-05
  0.24303689D-05  0.12129244D-05 -0.40867307D-08 -0.31334459D-08 -0.15638091D-08
 -0.38962205D-03  0.54194190D-04 -0.33281124D-03  0.68359337D-08 -0.79290499D-04
 -0.65918067D-04  0.33504921D-04  0.42967609D-04 -0.75062410D-08  0.90795933D-08
 -0.72686730D-06 -0.13409282D-05 -0.21646739D-05 -0.28177623D-05 -0.24044017D-05
 -0.83018211D-06  0.14797461D-04  0.68201362D-05 -0.19124374D-04 -0.71988017D-04
 -0.55195845D-04 -0.27546595D-04 -0.39671994D-04 -0.30417969D-04 -0.15180698D-04
  0.33337181D-08  0.25560836D-08  0.12756649D-08  0.36258613D-03 -0.10785973D-03
  0.80590622D-05  0.13430998D-08  0.17847279D-04  0.42647819D-04  0.15729833D-04
  0.12052135D-04  0.78578509D-08 -0.53880504D-08 -0.46861179D-05 -0.79485429D-05
 -0.90491351D-05 -0.39573733D-04  0.13083310D-04  0.22191771D-04  0.25264547D-04
  0.71731451D-04 -0.10134982D-04 -0.17190848D-04 -0.19571172D-04 -0.14135648D-03
  0.82560920D+00  0.15195617D+01  0.24589376D+01  0.32323423D+01  0.27723612D+01
  0.94791739D+00 -0.15748953D-01 -0.70271520D-02  0.20751274D-01 -0.11590293D-02
 -0.89296963D-03 -0.39206176D-03  0.28584080D-02  0.22022492D-02  0.96690604D-03
 -0.75116319D-06 -0.57873074D-06 -0.25409397D-06  0.40248784D-02  0.32136586D-03
  0.25340473D-03  0.16810754D-07 -0.92500352D-02 -0.93116474D-02 -0.92728579D-02
  0.16206865D-03 -0.19875716D-07  0.32698951D-07  0.52536650D-04  0.96695482D-04
  0.15647154D-03  0.20568622D-03  0.17641588D-03  0.60319585D-04 -0.16837808D-03
 -0.75129971D-04  0.22185981D-03  0.16966317D-03  0.13071632D-03  0.57391507D-04
  0.46267191D-04  0.35646377D-04  0.15650679D-04  0.60840546D-07  0.46874361D-07
  0.20580369D-07 -0.49524223D-03 -0.18647225D-03 -0.45736277D-04  0.62847924D-08
  0.95532617D-04  0.18028877D-03  0.17745513D-03  0.14861489D-04  0.44256842D-08
  0.12043315D-06  0.84780979D-04  0.14380459D-03  0.16371644D-03 -0.20338248D-03
  0.20535231D-04  0.34831638D-04  0.39654589D-04 -0.27028194D-04  0.55702859D-05
  0.10276090D-04  0.16588795D-04  0.21593682D-04  0.18425928D-04  0.63620303D-05
 -0.18959105D-04 -0.87382343D-05  0.24502921D-04 -0.30247483D-05 -0.23191851D-05
 -0.11574359D-05 -0.12860837D-05 -0.98608741D-06 -0.49212673D-06  0.31321293D-08
  0.24015181D-08  0.11985258D-08 -0.24517072D-04  0.10200396D-04 -0.50424910D-06
 -0.49964903D-08 -0.12934605D-05  0.18355837D-04  0.22392571D-04  0.12762026D-04
 -0.21390993D-08  0.27551841D-08  0.18718141D-05  0.31749511D-05  0.36145696D-05
  0.40113267D-05  0.18699930D-05  0.31718621D-05  0.36110528D-05  0.40094856D-05
  0.27190824D-05  0.46120784D-05  0.52506882D-05 -0.20184387D-06
MO    3     MO 0.0        OCC NO =    1.0000000  ORB. ENERGY =  -10.019916
 -0.68488165D-04 -0.12634729D-03 -0.20396370D-03 -0.26550014D-03 -0.22655175D-03
 -0.78222875D-04  0.13472949D-03  0.62096700D-04 -0.17412563D-03  0.36953849D-04
  0.28333867D-04  0.14140586D-04  0.51561909D-04  0.39534401D-04  0.19730437D-04
 -0.15312188D-07 -0.11740415D-07 -0.58592899D-08  0.10615853D-02 -0.44437252D-03
 -0.33752633D-03  0.35786270D-07  0.17652186D-04 -0.17749128D-04 -0.13194310D-03
 -0.58399977D-04 -0.78978343D-08 -0.25861378D-07  0.92170346D-04  0.17003629D-03
  0.27449130D-03  0.35730611D-03  0.30488995D-03  0.10527117D-03 -0.57493447D-04
 -0.26498677D-04  0.74305056D-04  0.10090549D-03  0.77367933D-04  0.38612021D-04
  0.14612683D-03  0.11204079D-03  0.55916206D-04 -0.16963651D-07 -0.13006652D-07
 -0.64912308D-08 -0.13626786D-02 -0.27047462D-03  0.58003822D-03 -0.46913103D-08
  0.33728193D-04  0.69194574D-04  0.15074162D-04  0.10091209D-03 -0.11568365D-07
 -0.47022226D-08  0.22353284D-01  0.41237443D-01  0.66570020D-01  0.86654386D-01
  0.73942344D-01  0.25530515D-01 -0.48248850D-03 -0.22237851D-03  0.62357255D-03
 -0.17135657D-03 -0.13138535D-03 -0.65570498D-04  0.29992033D-03  0.22995988D-03
  0.11476610D-03 -0.51114070D-07 -0.39191027D-07 -0.19559069D-07  0.22540840D-02
  0.11938094D-02 -0.46421462D-03 -0.41821888D-08 -0.79415710D-03 -0.99063509D-03
 -0.78221278D-03 -0.15557186D-03  0.26218887D-07  0.30566993D-08  0.53208394D+00
  0.98159098D+00  0.15845922D+01  0.20626682D+01  0.17600785D+01  0.60771282D+00
 -0.19793468D-01 -0.91227912D-02  0.25581259D-01 -0.95577011D-03 -0.73282390D-03
 -0.36573048D-03 -0.10096319D-02 -0.77412171D-03 -0.38634099D-03  0.16615107D-06
  0.12739410D-06  0.63578584D-07 -0.38198173D-02 -0.12571492D-02 -0.13942482D-02
  0.45745149D-08 -0.97257695D-02 -0.96221772D-02 -0.10402348D-01  0.82428461D-03
  0.50660396D-07 -0.94324799D-07  0.16228506D-02  0.29938426D-02  0.48329902D-02
  0.62911172D-02  0.53682217D-02  0.18535179D-02  0.30573096D-03  0.14091112D-03
 -0.39512950D-03  0.30882956D-03  0.23679092D-03  0.11817526D-03 -0.18142805D-03
 -0.13910752D-03 -0.69424401D-04 -0.60472781D-08 -0.46366693D-08 -0.23140229D-08
  0.25831938D-02 -0.45415932D-03  0.11077238D-02 -0.82867227D-08 -0.40912379D-03
 -0.22907304D-03 -0.36816541D-03 -0.18155353D-03  0.17296499D-07 -0.58143790D-08
  0.47552703D-04  0.87725452D-04  0.14161608D-03  0.18434206D-03  0.15729941D-03
  0.54311707D-04 -0.10448130D-03 -0.48155337D-04  0.13503259D-03  0.91076915D-04
  0.69832002D-04  0.34851063D-04  0.44381397D-04  0.34028840D-04  0.16982776D-04
  0.33930662D-08  0.26015879D-08  0.12983747D-08 -0.14418276D-02  0.62933327D-03
  0.91215989D-04 -0.23235644D-07  0.16559593D-04  0.27175820D-04  0.59471486D-04
  0.71353443D-05 -0.30251748D-07  0.29668503D-07  0.23846218D-04  0.40447699D-04
  0.46048276D-04  0.15671826D-03 -0.23928040D-04 -0.40586484D-04 -0.46206278D-04
 -0.14986902D-03  0.39907161D-04  0.67690099D-04  0.77062785D-04  0.33688137D-03
  0.13635707D-03  0.25096980D-03  0.40611650D-03  0.53385151D-03  0.45788134D-03
  0.15655741D-03 -0.74785617D-03 -0.33369197D-03  0.98539684D-03 -0.50014626D-04
 -0.38533573D-04 -0.16918314D-04 -0.78441720D-04 -0.60435116D-04 -0.26534271D-04
  0.86862090D-08  0.66922558D-08  0.29382607D-08 -0.18245169D-02 -0.53521220D-03
 -0.63771416D-03 -0.89027933D-08  0.23418626D-03  0.11005774D-03  0.10542916D-02
 -0.13304648D-02 -0.83758953D-07 -0.17823527D-07 -0.71537619D-04 -0.13166741D-03
 -0.21306272D-03 -0.28007691D-03 -0.24022034D-03 -0.82135413D-04  0.26880966D-03
  0.11994235D-03 -0.35419136D-03 -0.11707003D-03 -0.90196148D-04 -0.39600967D-04
  0.28344856D-04  0.21838183D-04  0.95881388D-05 -0.10926838D-06 -0.84185398D-07
 -0.36961924D-07  0.77414854D-03  0.21893818D-03  0.99144408D-05  0.19675193D-07
 -0.19052738D-03 -0.22793563D-03 -0.26580362D-03 -0.12120860D-04 -0.33603137D-07
 -0.11865472D-07  0.47316456D-04  0.80257665D-04  0.91370514D-04 -0.29893964D-04
 -0.13791371D-04 -0.23392776D-04 -0.26631849D-04  0.68911127D-04 -0.68135743D-04
 -0.12569714D-03 -0.20291416D-03 -0.26413394D-03 -0.22538597D-03 -0.77820360D-04
  0.57061972D-04  0.26299811D-04 -0.73747415D-04  0.47092159D-04  0.36107281D-04
  0.18020064D-04  0.70279647D-05  0.53885976D-05  0.26892878D-05 -0.47174087D-07
 -0.36170098D-07 -0.18051414D-07 -0.45845047D-04 -0.14235604D-04 -0.68957922D-04
  0.67349416D-07  0.17162949D-04 -0.94754954D-04 -0.43758310D-04  0.53237744D-04
  0.36521491D-07  0.19352643D-06 -0.92634318D-05 -0.15712534D-04 -0.17888164D-04
 -0.18226690D-04 -0.92772492D-05 -0.15735970D-04 -0.17914846D-04 -0.18209782D-04
  0.19247283D-05  0.32647036D-05  0.37167496D-05  0.31155080D-04
MO    4     MO 0.0        OCC NO =    1.0000000  ORB. ENERGY =  -10.013741
  0.53540250D-04  0.98771307D-04  0.15944752D-03  0.20755329D-03  0.17710560D-03
  0.61150307D-04 -0.96122261D-04 -0.44302662D-04  0.12422929D-03  0.15285843D-03
  0.11720215D-03  0.58492085D-04 -0.10511914D-04 -0.80598686D-05 -0.40224393D-05
 -0.26457259D-08 -0.20285748D-08 -0.10124010D-08 -0.14938805D-02  0.51648363D-03
  0.47603115D-03 -0.32561910D-07  0.67964239D-04  0.15059644D-04  0.58219412D-04
  0.40042287D-04 -0.42545765D-08  0.22143051D-07  0.21705463D-02  0.40042341D-02
  0.64640754D-02  0.84143055D-02  0.71799421D-02  0.24790615D-02  0.27937307D-03
  0.12876279D-03 -0.36106431D-03  0.10404782D-03  0.79777268D-04  0.39814448D-04
  0.32780786D-03  0.25134227D-03  0.12543741D-03  0.30658242D-07  0.23506795D-07
  0.11731538D-07  0.26308320D-02  0.22961599D-03 -0.12473449D-02  0.10898290D-07
 -0.46238283D-03 -0.23116610D-03 -0.37246423D-03 -0.17048033D-03 -0.10029668D-07
 -0.36968004D-07  0.53205363D+00  0.98153507D+00  0.15845019D+01  0.20625507D+01
  0.17599783D+01  0.60767820D+00 -0.19976262D-01 -0.92070408D-02  0.25817503D-01
 -0.13580958D-02 -0.10413017D-02 -0.51968252D-03  0.23933273D-03  0.18350516D-03
  0.91581934D-04 -0.17261389D-07 -0.13234938D-07 -0.66051616D-08 -0.41719235D-02
 -0.18800710D-02  0.31250734D-03  0.46758179D-07 -0.94692263D-02 -0.10269128D-01
 -0.10446559D-01 -0.22336761D-04 -0.27775437D-06 -0.69176963D-07 -0.22668127D-01
 -0.41818268D-01 -0.67507651D-01 -0.87874903D-01 -0.74983814D-01 -0.25890109D-01
  0.12102804D-02  0.55781711D-03 -0.15641774D-02  0.14945748D-03  0.11459451D-03
  0.57190693D-04 -0.24542033D-03 -0.18817274D-03 -0.93911385D-04 -0.23628250D-07
 -0.18116643D-07 -0.90414746D-08  0.24639807D-02  0.69120880D-03  0.12615643D-02
 -0.22887007D-07 -0.89736540D-04  0.38972301D-04  0.91843315D-04  0.16921422D-03
  0.28955992D-08 -0.14182717D-07 -0.71528746D-04 -0.13195657D-03 -0.21301882D-03
 -0.27728721D-03 -0.23660968D-03 -0.81695635D-04 -0.75248893D-04 -0.34682146D-04
  0.97252358D-04  0.10778944D-03  0.82646104D-04  0.41246198D-04 -0.48644504D-04
 -0.37297520D-04 -0.18614077D-04  0.15747466D-07  0.12074158D-07  0.60258511D-08
 -0.15032365D-02  0.12047857D-03 -0.74722765D-03  0.11536520D-07  0.14990605D-03
  0.10785817D-04  0.43935308D-04 -0.57418257D-04  0.42757666D-08  0.16122668D-07
 -0.69460496D-04 -0.12814105D-03 -0.20685939D-03 -0.26926946D-03 -0.22976812D-03
 -0.79333410D-04  0.15755358D-03  0.72616300D-04 -0.20362368D-03  0.10650780D-03
  0.81663428D-04  0.40755774D-04 -0.17019837D-04 -0.13049731D-04 -0.65127304D-05
  0.10945727D-08  0.83924890D-09  0.41884402D-09  0.13032034D-02 -0.72900266D-03
  0.66879937D-04 -0.87647631D-08 -0.18908939D-04  0.61403973D-04 -0.14080359D-03
  0.46508705D-04 -0.36141268D-08 -0.19669583D-07 -0.26673764D-04 -0.45243752D-04
 -0.51508413D-04 -0.16103285D-03  0.38053469D-04  0.64545886D-04  0.73483210D-04
  0.38044840D-03 -0.35071688D-04 -0.59488221D-04 -0.67725237D-04 -0.17642935D-03
 -0.89753811D-04 -0.16519493D-03 -0.26731657D-03 -0.35139512D-03 -0.30138955D-03
 -0.10305021D-03  0.33924716D-03  0.15137142D-03 -0.44700184D-03 -0.18441647D-03
 -0.14208295D-03 -0.62382067D-04  0.46595401D-05  0.35899245D-05  0.15761702D-05
 -0.39226192D-07 -0.30221666D-07 -0.13268939D-07  0.97541653D-03  0.26428396D-03
  0.13673853D-03  0.19623580D-07 -0.28782122D-03 -0.25216251D-03 -0.36714142D-03
  0.16661256D-03  0.42452071D-08  0.13804073D-07  0.12430080D-03  0.22877983D-03
  0.37020894D-03  0.48665002D-03  0.41739689D-03  0.14271509D-03 -0.69653784D-03
 -0.31079383D-03  0.91777833D-03 -0.16450824D-04 -0.12674473D-04 -0.55647762D-05
 -0.77707623D-04 -0.59869535D-04 -0.26285950D-04  0.29570075D-07  0.22782148D-07
  0.10002590D-07 -0.16480723D-02 -0.80049796D-03  0.11446264D-03  0.40791981D-07
 -0.54306986D-03  0.76878553D-03  0.97402618D-03  0.39329261D-03  0.17032802D-06
  0.88840816D-07 -0.19739138D-05 -0.33481314D-05 -0.38117292D-05  0.49180154D-04
  0.31223097D-04  0.52960282D-04  0.60293410D-04 -0.68036033D-04  0.11300597D-04
  0.20847395D-04  0.33654160D-04  0.43807717D-04  0.37381204D-04  0.12906831D-04
  0.14348241D-04  0.66130913D-05 -0.18543798D-04 -0.71324448D-04 -0.54687063D-04
 -0.27292677D-04  0.25629198D-04  0.19650843D-04  0.98071480D-05  0.10332433D-07
  0.79222541D-08  0.39537600D-08  0.28635378D-03 -0.79741505D-04  0.27892392D-04
 -0.42653485D-07  0.54981543D-05  0.13018666D-04 -0.92769523D-06 -0.13320056D-04
  0.22321633D-07 -0.28263403D-08 -0.46774903D-05 -0.79339089D-05 -0.90324748D-05
 -0.20711517D-05 -0.46849819D-05 -0.79466161D-05 -0.90469416D-05 -0.20905232D-05
 -0.39310170D-05 -0.66677488D-05 -0.75909963D-05 -0.13967374D-04
MO    5     MO 0.0        OCC NO =    1.0000000  ORB. ENERGY =  -10.009408
 -0.17804371D-04 -0.32845588D-04 -0.53022963D-04 -0.69020143D-04 -0.58895013D-04
 -0.20335033D-04  0.20939064D-04  0.96507952D-05 -0.27061837D-04 -0.12558961D-03
 -0.96294144D-04 -0.48057527D-04  0.83412562D-05  0.63955462D-05  0.31918258D-05
 -0.14093532D-06 -0.10806026D-06 -0.53929644D-07 -0.16953656D-03  0.36955224D-04
  0.53523406D-04  0.77145764D-07 -0.61794611D-04  0.65814801D-04 -0.64894738D-04
  0.93580439D-04  0.77064834D-07 -0.66619034D-07 -0.18635443D-04 -0.34378754D-04
 -0.55497968D-04 -0.72241865D-04 -0.61644114D-04 -0.21284231D-04  0.61522002D-04
  0.28355434D-04 -0.79511598D-04 -0.14723890D-04 -0.11289345D-04 -0.56341744D-05
  0.14603298D-04  0.11196883D-04  0.55880293D-05  0.71291911D-07  0.54662116D-07
  0.27280227D-07  0.29969786D-03  0.20965061D-04 -0.14409073D-03 -0.52766562D-07
  0.31848243D-04 -0.98060629D-07 -0.67832960D-04 -0.27626932D-04 -0.38050581D-07
  0.46599268D-07 -0.12724444D-04 -0.23474114D-04 -0.37894499D-04 -0.49327378D-04
 -0.42091141D-04 -0.14533059D-04  0.22308269D-05  0.10281861D-05 -0.28831411D-05
 -0.16463284D-05 -0.12623002D-05 -0.62997628D-06  0.10731393D-04  0.82281518D-05
  0.41064244D-05 -0.31696063D-07 -0.24302530D-07 -0.12128666D-07 -0.10944590D-03
 -0.13195031D-03 -0.10536520D-03  0.50320496D-07 -0.38059880D-04  0.27826157D-04
 -0.21691550D-04  0.12599992D-05  0.17665039D-07 -0.11925298D-07  0.31411449D-04
  0.57947990D-04  0.93546023D-04  0.12176913D-03  0.10390582D-03  0.35876181D-04
  0.72018712D-04  0.33193359D-04 -0.93077642D-04 -0.34695008D-04 -0.26601932D-04
 -0.13276228D-04  0.32724051D-04  0.25090726D-04  0.12522031D-04  0.84642155D-07
  0.64898236D-07  0.32388768D-07  0.33809753D-03  0.31625000D-03 -0.26109397D-04
 -0.68665350D-07  0.23447330D-04 -0.64815499D-04 -0.86536658D-04 -0.23794288D-04
 -0.25924668D-07 -0.23627034D-08 -0.31619333D-05 -0.58331496D-05 -0.94165121D-05
 -0.12257501D-04 -0.10459348D-04 -0.36113614D-05  0.12978180D-04  0.59816311D-05
 -0.16773118D-04 -0.11635921D-03 -0.89216860D-04 -0.44525466D-04  0.38367344D-04
  0.29417646D-04  0.14681467D-04 -0.13157168D-06 -0.10088082D-06 -0.50346599D-07
 -0.24354895D-03  0.27573515D-03  0.15224094D-04  0.81859767D-07 -0.37328327D-04
  0.13129169D-03 -0.37757801D-04  0.10531375D-03  0.87534895D-07  0.11389544D-07
  0.15651400D-02  0.28873777D-02  0.46611229D-02  0.60673971D-02  0.51773209D-02
  0.17876045D-02  0.38488451D-04  0.17739292D-04 -0.49742826D-04 -0.30884193D-03
 -0.23680040D-03 -0.11818000D-03  0.10671627D-04  0.81823266D-05  0.40835544D-05
  0.95714221D-07  0.73387594D-07  0.36625553D-07  0.84397131D-03  0.47313410D-03
  0.47459234D-04 -0.35621363D-07 -0.40519626D-03 -0.19633038D-03 -0.18541033D-03
  0.19517614D-04  0.63870532D-07  0.15834451D-08 -0.64619174D-05 -0.10960635D-04
 -0.12478295D-04 -0.40495449D-04  0.20081419D-05  0.34061888D-05  0.38778256D-05