 Entering Link 1 = D:\Gaussian\G16W\l1.exe PID=     21268.
  
 Copyright (c) 1988,1990,1992,1993,1995,1998,2003,2009,2016,
            Gaussian, Inc.  All Rights Reserved.
  
 This is part of the Gaussian(R) 16 program.  It is based on
 the Gaussian(R) 09 system (copyright 2009, Gaussian, Inc.),
 the Gaussian(R) 03 system (copyright 2003, Gaussian, Inc.),
 the Gaussian(R) 98 system (copyright 1998, Gaussian, Inc.),
 the Gaussian(R) 94 system (copyright 1995, Gaussian, Inc.),
 the Gaussian 92(TM) system (copyright 1992, Gaussian, Inc.),
 the Gaussian 90(TM) system (copyright 1990, Gaussian, Inc.),
 the Gaussian 88(TM) system (copyright 1988, Gaussian, Inc.),
 the Gaussian 86(TM) system (copyright 1986, Carnegie Mellon
 University), and the Gaussian 82(TM) system (copyright 1983,
 Carnegie Mellon University). Gaussian is a federally registered
 trademark of Gaussian, Inc.
  
 This software contains proprietary and confidential information,
 including trade secrets, belonging to Gaussian, Inc.
  
 This software is provided under written license and may be
 used, copied, transmitted, or stored only in accord with that
 written license.
  
 The following legend is applicable only to US Government
 contracts under FAR:
  
                    RESTRICTED RIGHTS LEGEND
  
 Use, reproduction and disclosure by the US Government is
 subject to restrictions as set forth in subparagraphs (a)
 and (c) of the Commercial Computer Software - Restricted
 Rights clause in FAR 52.227-19.
  
 Gaussian, Inc.
 340 Quinnipiac St., Bldg. 40, Wallingford CT 06492
  
  
 ---------------------------------------------------------------
 Warning -- This program may not be used in any manner that
 competes with the business of Gaussian, Inc. or will provide
 assistance to any competitor of Gaussian, Inc.  The licensee
 of this program is prohibited from giving any competitor of
 Gaussian, Inc. access to this program.  By using this program,
 the user acknowledges that Gaussian, Inc. is engaged in the
 business of creating and licensing software in the field of
 computational chemistry and represents and warrants to the
 licensee that it is not a competitor of Gaussian, Inc. and that
 it will not use this program in any manner prohibited above.
 ---------------------------------------------------------------
  

 Cite this work as:
 Gaussian 16, Revision A.03,
 M. J. Frisch, G. W. Trucks, H. B. Schlegel, G. E. Scuseria, 
 M. A. Robb, J. R. Cheeseman, G. Scalmani, V. Barone, 
 G. A. Petersson, H. Nakatsuji, X. Li, M. Caricato, A. V. Marenich, 
 J. Bloino, B. G. Janesko, R. Gomperts, B. Mennucci, H. P. Hratchian, 
 J. V. Ortiz, A. F. Izmaylov, J. L. Sonnenberg, D. Williams-Young, 
 F. Ding, F. Lipparini, F. Egidi, J. Goings, B. Peng, A. Petrone, 
 T. Henderson, D. Ranasinghe, V. G. Zakrzewski, J. Gao, N. Rega, 
 G. Zheng, W. Liang, M. Hada, M. Ehara, K. Toyota, R. Fukuda, 
 J. Hasegawa, M. Ishida, T. Nakajima, Y. Honda, O. Kitao, H. Nakai, 
 T. Vreven, K. Throssell, J. A. Montgomery, Jr., J. E. Peralta, 
 F. Ogliaro, M. J. Bearpark, J. J. Heyd, E. N. Brothers, K. N. Kudin, 
 V. N. Staroverov, T. A. Keith, R. Kobayashi, J. Normand, 
 K. Raghavachari, A. P. Rendell, J. C. Burant, S. S. Iyengar, 
 J. Tomasi, M. Cossi, J. M. Millam, M. Klene, C. Adamo, R. Cammi, 
 J. W. Ochterski, R. L. Martin, K. Morokuma, O. Farkas, 
 J. B. Foresman, and D. J. Fox, Gaussian, Inc., Wallingford CT, 2016.
 
 ******************************************
 Gaussian 16:  EM64W-G16RevA.03 17-Dec-2016
                03-Dec-2025 
 ******************************************
 %nprocs=   4
 Will use up to    4 processors via shared memory.
 ------------------------------------
 #P B3LYP/6-31G* SCF=conver=7 out=wfn
 ------------------------------------
 1/38=1,172=1/1;
 2/12=2,17=6,18=5,40=1/2;
 3/5=1,6=6,7=1,11=2,25=1,30=1,74=-5/1,2,3;
 4//1;
 5/5=2,6=7,38=5/2;
 6/7=2,8=2,9=2,10=2,28=1/1;
 99/5=1,6=100,9=1/99;
 Leave Link    1 at Wed Dec 03 16:45:16 2025, MaxMem=           0 cpu:               0.0 elap:               0.1
 (Enter D:\Gaussian\G16W\l101.exe)
 ----------------------------------------------------
 Generated by Multiwfn (http://sobereva.com/multiwfn)
 ----------------------------------------------------
 Symbolic Z-matrix:
 Charge = -1 Multiplicity = 2
 C                     1.13115   1.29551  -0.00008 
 C                    -0.23759   1.57935  -0.00005 
 C                    -1.15898   0.54513  -0.00001 
 C                    -0.71803  -0.78772   0.00001 
 C                     0.64304  -1.05744   0.00001 
 C                     1.58715  -0.02189  -0.00002 
 H                     1.84231   2.11377  -0.00014 
 H                    -0.58285   2.60935  -0.00005 
 H                     0.95493  -2.0962   0. 
 O                    -1.61847  -1.81053   0.00001 
 O                    -2.5289    0.70702   0.00008 
 H                    -2.50226  -1.42117  -0.00021 
 H                    -2.74742   1.6435   -0.00109 
 C                     3.06336  -0.34201   0.00015 
 H                     3.34431  -0.9264    0.88215 
 H                     3.34391  -0.92928  -0.88005 
 H                     3.66547   0.56893  -0.00145 
 
 ITRead=  0  0  0  0  0  0  0  0  0  0  0  0  0  0  0  0  0
 MicOpt= -1 -1 -1 -1 -1 -1 -1 -1 -1 -1 -1 -1 -1 -1 -1 -1 -1
 NAtoms=     17 NQM=       17 NQMF=       0 NMMI=      0 NMMIF=      0
                NMic=       0 NMicF=      0.
                    Isotopes and Nuclear Properties:
 (Nuclear quadrupole moments (NQMom) in fm**2, nuclear magnetic moments (NMagM)
  in nuclear magnetons)

  Atom         1           2           3           4           5           6           7           8           9          10
 IAtWgt=          12          12          12          12          12          12           1           1           1          16
 AtmWgt=  12.0000000  12.0000000  12.0000000  12.0000000  12.0000000  12.0000000   1.0078250   1.0078250   1.0078250  15.9949146
 NucSpn=           0           0           0           0           0           0           1           1           1           0
 AtZEff=   0.0000000   0.0000000   0.0000000   0.0000000   0.0000000   0.0000000   0.0000000   0.0000000   0.0000000   0.0000000
 NQMom=    0.0000000   0.0000000   0.0000000   0.0000000   0.0000000   0.0000000   0.0000000   0.0000000   0.0000000   0.0000000
 NMagM=    0.0000000   0.0000000   0.0000000   0.0000000   0.0000000   0.0000000   2.7928460   2.7928460   2.7928460   0.0000000
 AtZNuc=   6.0000000   6.0000000   6.0000000   6.0000000   6.0000000   6.0000000   1.0000000   1.0000000   1.0000000   8.0000000

  Atom        11          12          13          14          15          16          17
 IAtWgt=          16           1           1          12           1           1           1
 AtmWgt=  15.9949146   1.0078250   1.0078250  12.0000000   1.0078250   1.0078250   1.0078250
 NucSpn=           0           1           1           0           1           1           1
 AtZEff=   0.0000000   0.0000000   0.0000000   0.0000000   0.0000000   0.0000000   0.0000000
 NQMom=    0.0000000   0.0000000   0.0000000   0.0000000   0.0000000   0.0000000   0.0000000
 NMagM=    0.0000000   2.7928460   2.7928460   0.0000000   2.7928460   2.7928460   2.7928460
 AtZNuc=   8.0000000   1.0000000   1.0000000   6.0000000   1.0000000   1.0000000   1.0000000
 Leave Link  101 at Wed Dec 03 16:45:16 2025, MaxMem=   104857600 cpu:               0.0 elap:               0.1
 (Enter D:\Gaussian\G16W\l202.exe)
                          Input orientation:                          
 ---------------------------------------------------------------------
 Center     Atomic      Atomic             Coordinates (Angstroms)
 Number     Number       Type             X           Y           Z
 ---------------------------------------------------------------------
      1          6           0        1.131145    1.295505   -0.000078
      2          6           0       -0.237590    1.579354   -0.000048
      3          6           0       -1.158979    0.545130   -0.000005
      4          6           0       -0.718033   -0.787720    0.000014
      5          6           0        0.643040   -1.057438    0.000014
      6          6           0        1.587154   -0.021886   -0.000018
      7          1           0        1.842312    2.113769   -0.000137
      8          1           0       -0.582847    2.609352   -0.000052
      9          1           0        0.954928   -2.096201   -0.000003
     10          8           0       -1.618466   -1.810532    0.000009
     11          8           0       -2.528903    0.707021    0.000075
     12          1           0       -2.502256   -1.421173   -0.000206
     13          1           0       -2.747416    1.643496   -0.001093
     14          6           0        3.063355   -0.342012    0.000150
     15          1           0        3.344305   -0.926404    0.882146
     16          1           0        3.343907   -0.929275   -0.880048
     17          1           0        3.665466    0.568930   -0.001447
 ---------------------------------------------------------------------
                    Distance matrix (angstroms):
                    1          2          3          4          5
     1  C    0.000000
     2  C    1.397858   0.000000
     3  C    2.409923   1.385127   0.000000
     4  C    2.785549   2.415339   1.403895   0.000000
     5  C    2.403037   2.779961   2.411534   1.387540   0.000000
     6  C    1.394082   2.427686   2.804060   2.429072   1.401328
     7  H    1.084119   2.147462   3.386499   3.869626   3.390399
     8  H    2.159621   1.086323   2.143115   3.399761   3.866283
     9  H    3.396281   3.864169   3.383080   2.123893   1.084575
    10  O    4.148232   3.660348   2.400057   1.362690   2.383602
    11  O    3.707056   2.451750   1.379457   2.348084   3.629675
    12  H    4.536733   3.759239   2.381332   1.893334   3.166258
    13  H    3.894141   2.510646   1.931202   3.166892   4.334771
    14  C    2.532765   3.819409   4.314525   3.807565   2.523838
    15  H    3.257802   4.459491   4.819042   4.159324   2.844672
    16  H    3.258882   4.460352   4.819163   4.158594   2.843522
    17  H    2.636417   4.031725   4.824504   4.588634   3.432220
                    6          7          8          9         10
     6  C    0.000000
     7  H    2.150844   0.000000
     8  H    3.410618   2.475277   0.000000
     9  H    2.168523   4.302476   4.950453   0.000000
    10  O    3.670866   5.232315   4.539590   2.589201   0.000000
    11  O    4.180099   4.592000   2.721396   4.471592   2.677119
    12  H    4.322184   5.600990   4.464220   3.522468   0.965756
    13  H    4.643490   4.613758   2.370282   5.262384   3.633846
    14  C    1.510513   2.742591   4.690985   2.742744   4.906730
    15  H    2.164243   3.503863   5.357459   2.802808   5.117513
    16  H    2.164252   3.505588   5.358700   2.800610   5.116274
    17  H    2.160659   2.389648   4.712906   3.801308   5.794979
                   11         12         13         14         15
    11  O    0.000000
    12  H    2.128361   0.000000
    13  H    0.961631   3.074459   0.000000
    14  C    5.689800   5.669269   6.140627   0.000000
    15  H    6.159602   5.933432   6.670349   1.094698   0.000000
    16  H    6.159706   5.932428   6.670527   1.094685   1.762196
    17  H    6.195908   6.480841   6.502288   1.091950   1.766325
                   16         17
    16  H    0.000000
    17  H    1.766340   0.000000
 Stoichiometry    C7H8O2(1-,2)
 Framework group  C1[X(C7H8O2)]
 Deg. of freedom    45
 Full point group                 C1      NOp   1
 Largest Abelian subgroup         C1      NOp   1
 Largest concise Abelian subgroup C1      NOp   1
                         Standard orientation:                         
 ---------------------------------------------------------------------
 Center     Atomic      Atomic             Coordinates (Angstroms)
 Number     Number       Type             X           Y           Z
 ---------------------------------------------------------------------
      1          6           0        1.131145    1.295505   -0.000078
      2          6           0       -0.237590    1.579354   -0.000048
      3          6           0       -1.158979    0.545130   -0.000005
      4          6           0       -0.718033   -0.787720    0.000014
      5          6           0        0.643040   -1.057438    0.000014
      6          6           0        1.587154   -0.021886   -0.000018
      7          1           0        1.842312    2.113769   -0.000137
      8          1           0       -0.582847    2.609352   -0.000052
      9          1           0        0.954928   -2.096201   -0.000003
     10          8           0       -1.618466   -1.810532    0.000009
     11          8           0       -2.528903    0.707021    0.000075
     12          1           0       -2.502256   -1.421173   -0.000206
     13          1           0       -2.747416    1.643496   -0.001093
     14          6           0        3.063355   -0.342012    0.000150
     15          1           0        3.344305   -0.926404    0.882146
     16          1           0        3.343907   -0.929275   -0.880048
     17          1           0        3.665466    0.568930   -0.001447
 ---------------------------------------------------------------------
 Rotational constants (GHZ):           3.1506510           1.3084430           0.9298267
 Leave Link  202 at Wed Dec 03 16:45:17 2025, MaxMem=   104857600 cpu:               1.0 elap:               0.0
 (Enter D:\Gaussian\G16W\l301.exe)
 Standard basis: 6-31G(d) (6D, 7F)
 Ernie: Thresh=  0.10000D-02 Tol=  0.10000D-05 Strict=F.
 There are   151 symmetry adapted cartesian basis functions of A   symmetry.
 There are   151 symmetry adapted basis functions of A   symmetry.
   151 basis functions,   284 primitive gaussians,   151 cartesian basis functions
    34 alpha electrons       33 beta electrons
       nuclear repulsion energy       428.8992630119 Hartrees.
 IExCor=  402 DFT=T Ex+Corr=B3LYP ExCW=0 ScaHFX=  0.200000
 ScaDFX=  0.800000  0.720000  1.000000  0.810000 ScalE2=  1.000000  1.000000
 IRadAn=      5 IRanWt=     -1 IRanGd=            0 ICorTp=0 IEmpDi=  4
 NAtoms=   17 NActive=   17 NUniq=   17 SFac= 1.00D+00 NAtFMM=   60 NAOKFM=F Big=F
 Integral buffers will be    131072 words long.
 Raffenetti 2 integral format.
 Two-electron integral symmetry is turned on.
 Leave Link  301 at Wed Dec 03 16:45:17 2025, MaxMem=   104857600 cpu:               0.0 elap:               0.1
 (Enter D:\Gaussian\G16W\l302.exe)
 NPDir=0 NMtPBC=     1 NCelOv=     1 NCel=       1 NClECP=     1 NCelD=      1
         NCelK=      1 NCelE2=     1 NClLst=     1 CellRange=     0.0.
 One-electron integrals computed using PRISM.
 One-electron integral symmetry used in STVInt
 NBasis=   151 RedAO= T EigKep=  3.83D-04  NBF=   151
 NBsUse=   151 1.00D-06 EigRej= -1.00D+00 NBFU=   151
 Precomputing XC quadrature grid using
 IXCGrd= 4 IRadAn=           5 IRanWt=          -1 IRanGd=           0 AccXCQ= 0.00D+00.
 Generated NRdTot=       0 NPtTot=           0 NUsed=           0 NTot=          32
 NSgBfM=   151   151   151   151   151 MxSgAt=    17 MxSgA2=    17.
 Leave Link  302 at Wed Dec 03 16:45:17 2025, MaxMem=   104857600 cpu:               0.0 elap:               0.2
 (Enter D:\Gaussian\G16W\l303.exe)
 DipDrv:  MaxL=1.
 Leave Link  303 at Wed Dec 03 16:45:17 2025, MaxMem=   104857600 cpu:               0.0 elap:               0.1
 (Enter D:\Gaussian\G16W\l401.exe)
 ExpMin= 1.61D-01 ExpMax= 5.48D+03 ExpMxC= 8.25D+02 IAcc=3 IRadAn=         5 AccDes= 0.00D+00
 Harris functional with IExCor=  402 and IRadAn=       5 diagonalized for initial guess.
 HarFok:  IExCor=  402 AccDes= 0.00D+00 IRadAn=         5 IDoV= 1 UseB2=F ITyADJ=14
 ICtDFT=  3500011 ScaDFX=  1.000000  1.000000  1.000000  1.000000
 FoFCou: FMM=F IPFlag=           0 FMFlag=      100000 FMFlg1=           0
         NFxFlg=           0 DoJE=T BraDBF=F KetDBF=T FulRan=T
         wScrn=  0.000000 ICntrl=       500 IOpCl=  0 I1Cent=   200000004 NGrid=           0
         NMat0=    1 NMatS0=      1 NMatT0=    0 NMatD0=    1 NMtDS0=    0 NMtDT0=    0
 Petite list used in FoFCou.
 Harris En= -422.177460095189    
 JPrj=0 DoOrth=F DoCkMO=F.
 Initial guess <Sx>= 0.0000 <Sy>= 0.0000 <Sz>= 0.5000 <S**2>= 0.7500 S= 0.5000
 Leave Link  401 at Wed Dec 03 16:45:18 2025, MaxMem=   104857600 cpu:               1.0 elap:               1.0
 (Enter D:\Gaussian\G16W\l502.exe)
 Integral symmetry usage will be decided dynamically.
 UHF open shell SCF:
 Using DIIS extrapolation, IDIIS=  1040.
 NGot=   104857600 LenX=   104809284 LenY=   104786042
 Requested convergence on RMS density matrix=1.00D-07 within 128 cycles.
 Requested convergence on MAX density matrix=1.00D-05.
 Requested convergence on             energy=1.00D-05.
 No special actions if energy rises.
 Fock matrices will be formed incrementally for  20 cycles.
 Integral accuracy reduced to 1.0D-05 until final iterations.

 Cycle   1  Pass 0  IDiag  1:
 FoFJK:  IHMeth= 1 ICntrl=       0 DoSepK=F KAlg= 0 I1Cent=           0 FoldK=F
 IRaf= 940000000 NMat=       1 IRICut=       1 DoRegI=T DoRafI=F ISym2E= 0 IDoP0=0 IntGTp=1.
 FoFCou: FMM=F IPFlag=           0 FMFlag=      100000 FMFlg1=           0
         NFxFlg=           0 DoJE=F BraDBF=F KetDBF=F FulRan=T
         wScrn=  0.000000 ICntrl=         0 IOpCl=  1 I1Cent=           0 NGrid=           0
         NMat0=    1 NMatS0=      1 NMatT0=    0 NMatD0=    1 NMtDS0=    0 NMtDT0=    0
 Symmetry not used in FoFCou.
 E= -421.524585992764    
 DIIS: error= 4.69D-02 at cycle   1 NSaved=   1.
 NSaved= 1 IEnMin= 1 EnMin= -421.524585992764     IErMin= 1 ErrMin= 4.69D-02
 ErrMax= 4.69D-02  0.00D+00 EMaxC= 1.00D-01 BMatC= 1.45D+00 BMatP= 1.45D+00
 IDIUse=3 WtCom= 5.31D-01 WtEn= 4.69D-01
 Coeff-Com:  0.100D+01
 Coeff-En:   0.100D+01
 Coeff:      0.100D+01
 Gap=     0.058 Goal=   None    Shift=    0.000
 Gap=     0.263 Goal=   None    Shift=    0.000
 GapD=    0.058 DampG=0.500 DampE=0.500 DampFc=0.2500 IDamp=-1.
 Damping current iteration by 2.50D-01
 RMSDP=2.44D-02 MaxDP=2.28D+00              OVMax= 9.84D-01

 Cycle   2  Pass 0  IDiag  1:
 RMSU=  6.08D-03    CP:  9.87D-01
 E= -421.667438507398     Delta-E=       -0.142852514634 Rises=F Damp=T
 DIIS: error= 2.33D-02 at cycle   2 NSaved=   2.
 NSaved= 2 IEnMin= 2 EnMin= -421.667438507398     IErMin= 2 ErrMin= 2.33D-02
 ErrMax= 2.33D-02  0.00D+00 EMaxC= 1.00D-01 BMatC= 3.21D-01 BMatP= 1.45D+00
 IDIUse=3 WtCom= 7.67D-01 WtEn= 2.33D-01
 Coeff-Com: -0.720D+00 0.172D+01
 Coeff-En:   0.000D+00 0.100D+01
 Coeff:     -0.552D+00 0.155D+01
 Gap=     0.055 Goal=   None    Shift=    0.000
 Gap=     0.305 Goal=   None    Shift=    0.000
 RMSDP=6.92D-03 MaxDP=5.32D-01 DE=-1.43D-01 OVMax= 9.76D-01

 Cycle   3  Pass 0  IDiag  1:
 RMSU=  5.36D-03    CP:  9.74D-01  2.85D-01
 E= -421.862637536678     Delta-E=       -0.195199029280 Rises=F Damp=F
 DIIS: error= 1.66D-02 at cycle   3 NSaved=   3.
 NSaved= 3 IEnMin= 3 EnMin= -421.862637536678     IErMin= 3 ErrMin= 1.66D-02
 ErrMax= 1.66D-02  0.00D+00 EMaxC= 1.00D-01 BMatC= 1.99D-01 BMatP= 3.21D-01
 IDIUse=3 WtCom= 8.34D-01 WtEn= 1.66D-01
 Coeff-Com: -0.464D+00 0.110D+01 0.367D+00
 Coeff-En:   0.000D+00 0.000D+00 0.100D+01
 Coeff:     -0.387D+00 0.915D+00 0.472D+00
 Gap=     0.056 Goal=   None    Shift=    0.000
 Gap=     0.237 Goal=   None    Shift=    0.000
 RMSDP=2.27D-03 MaxDP=5.75D-02 DE=-1.95D-01 OVMax= 1.14D-01

 Cycle   4  Pass 0  IDiag  1:
 RMSU=  2.04D-03    CP:  9.78D-01  3.13D-01  8.17D-01
 E= -421.908102625968     Delta-E=       -0.045465089290 Rises=F Damp=F
 DIIS: error= 6.00D-03 at cycle   4 NSaved=   4.
 NSaved= 4 IEnMin= 4 EnMin= -421.908102625968     IErMin= 4 ErrMin= 6.00D-03
 ErrMax= 6.00D-03  0.00D+00 EMaxC= 1.00D-01 BMatC= 2.77D-02 BMatP= 1.99D-01
 IDIUse=3 WtCom= 9.40D-01 WtEn= 6.00D-02
 Coeff-Com: -0.193D+00 0.386D+00 0.246D+00 0.561D+00
 Coeff-En:   0.000D+00 0.000D+00 0.240D-01 0.976D+00
 Coeff:     -0.181D+00 0.363D+00 0.232D+00 0.586D+00
 Gap=     0.046 Goal=   None    Shift=    0.000
 Gap=     0.225 Goal=   None    Shift=    0.000
 RMSDP=7.77D-04 MaxDP=1.85D-02 DE=-4.55D-02 OVMax= 4.37D-02

 Cycle   5  Pass 0  IDiag  1:
 RMSU=  6.10D-04    CP:  9.77D-01  3.22D-01  8.69D-01  8.10D-01
 E= -421.912829665279     Delta-E=       -0.004727039311 Rises=F Damp=F
 DIIS: error= 3.04D-03 at cycle   5 NSaved=   5.
 NSaved= 5 IEnMin= 5 EnMin= -421.912829665279     IErMin= 5 ErrMin= 3.04D-03
 ErrMax= 3.04D-03  0.00D+00 EMaxC= 1.00D-01 BMatC= 5.22D-03 BMatP= 2.77D-02
 IDIUse=3 WtCom= 9.70D-01 WtEn= 3.04D-02
 Coeff-Com: -0.879D-01 0.141D+00 0.568D-01 0.308D+00 0.581D+00
 Coeff-En:   0.000D+00 0.000D+00 0.000D+00 0.146D+00 0.854D+00
 Coeff:     -0.853D-01 0.137D+00 0.551D-01 0.304D+00 0.590D+00
 Gap=     0.051 Goal=   None    Shift=    0.000
 Gap=     0.211 Goal=   None    Shift=    0.000
 RMSDP=4.69D-04 MaxDP=1.22D-02 DE=-4.73D-03 OVMax= 3.01D-02

 Cycle   6  Pass 0  IDiag  1:
 RMSU=  2.95D-04    CP:  9.77D-01  3.31D-01  8.54D-01  9.57D-01  7.00D-01
 E= -421.914020713514     Delta-E=       -0.001191048235 Rises=F Damp=F
 DIIS: error= 1.22D-03 at cycle   6 NSaved=   6.
 NSaved= 6 IEnMin= 6 EnMin= -421.914020713514     IErMin= 6 ErrMin= 1.22D-03
 ErrMax= 1.22D-03  0.00D+00 EMaxC= 1.00D-01 BMatC= 1.57D-03 BMatP= 5.22D-03
 IDIUse=3 WtCom= 9.88D-01 WtEn= 1.22D-02
 Coeff-Com: -0.307D-01 0.375D-01-0.275D-01 0.485D-01 0.420D+00 0.552D+00
 Coeff-En:   0.000D+00 0.000D+00 0.000D+00 0.000D+00 0.185D+00 0.815D+00
 Coeff:     -0.303D-01 0.371D-01-0.272D-01 0.479D-01 0.417D+00 0.555D+00
 Gap=     0.055 Goal=   None    Shift=    0.000
 Gap=     0.210 Goal=   None    Shift=    0.000
 RMSDP=2.22D-04 MaxDP=5.99D-03 DE=-1.19D-03 OVMax= 1.63D-02

 Cycle   7  Pass 0  IDiag  1:
 RMSU=  1.33D-04    CP:  9.77D-01  3.34D-01  8.65D-01  9.41D-01  9.30D-01
                    CP:  7.16D-01
 E= -421.914473865470     Delta-E=       -0.000453151956 Rises=F Damp=F
 DIIS: error= 2.85D-04 at cycle   7 NSaved=   7.
 NSaved= 7 IEnMin= 7 EnMin= -421.914473865470     IErMin= 7 ErrMin= 2.85D-04
 ErrMax= 2.85D-04  0.00D+00 EMaxC= 1.00D-01 BMatC= 5.42D-05 BMatP= 1.57D-03
 IDIUse=3 WtCom= 9.97D-01 WtEn= 2.85D-03
 Coeff-Com: -0.498D-02 0.504D-02-0.164D-01-0.208D-01 0.598D-01 0.168D+00
 Coeff-Com:  0.809D+00
 Coeff-En:   0.000D+00 0.000D+00 0.000D+00 0.000D+00 0.000D+00 0.000D+00
 Coeff-En:   0.100D+01
 Coeff:     -0.496D-02 0.503D-02-0.164D-01-0.207D-01 0.596D-01 0.168D+00
 Coeff:      0.810D+00
 Gap=     0.056 Goal=   None    Shift=    0.000
 Gap=     0.210 Goal=   None    Shift=    0.000
 RMSDP=9.49D-05 MaxDP=2.70D-03 DE=-4.53D-04 OVMax= 1.02D-02

 Cycle   8  Pass 0  IDiag  1:
 RMSU=  4.92D-05    CP:  9.77D-01  3.35D-01  8.65D-01  9.54D-01  9.68D-01
                    CP:  8.58D-01  1.45D+00
 E= -421.914513762516     Delta-E=       -0.000039897046 Rises=F Damp=F
 DIIS: error= 1.37D-04 at cycle   8 NSaved=   8.
 NSaved= 8 IEnMin= 8 EnMin= -421.914513762516     IErMin= 8 ErrMin= 1.37D-04
 ErrMax= 1.37D-04  0.00D+00 EMaxC= 1.00D-01 BMatC= 1.34D-05 BMatP= 5.42D-05
 IDIUse=3 WtCom= 9.99D-01 WtEn= 1.37D-03
 Coeff-Com:  0.361D-02-0.471D-02-0.157D-02-0.179D-01-0.575D-01-0.356D-01
 Coeff-Com:  0.330D+00 0.783D+00
 Coeff-En:   0.000D+00 0.000D+00 0.000D+00 0.000D+00 0.000D+00 0.000D+00
 Coeff-En:   0.000D+00 0.100D+01
 Coeff:      0.360D-02-0.470D-02-0.157D-02-0.179D-01-0.574D-01-0.356D-01
 Coeff:      0.330D+00 0.784D+00
 Gap=     0.056 Goal=   None    Shift=    0.000
 Gap=     0.209 Goal=   None    Shift=    0.000
 RMSDP=8.91D-05 MaxDP=2.54D-03 DE=-3.99D-05 OVMax= 1.03D-02

 Cycle   9  Pass 0  IDiag  1:
 RMSU=  2.86D-05    CP:  9.77D-01  3.36D-01  8.65D-01  9.59D-01  1.01D+00
                    CP:  9.57D-01  1.96D+00  1.62D+00
 E= -421.914534694201     Delta-E=       -0.000020931685 Rises=F Damp=F
 DIIS: error= 1.26D-04 at cycle   9 NSaved=   9.
 NSaved= 9 IEnMin= 9 EnMin= -421.914534694201     IErMin= 9 ErrMin= 1.26D-04
 ErrMax= 1.26D-04  0.00D+00 EMaxC= 1.00D-01 BMatC= 6.76D-06 BMatP= 1.34D-05
 IDIUse=3 WtCom= 9.99D-01 WtEn= 1.26D-03
 Coeff-Com:  0.241D-02-0.256D-02 0.452D-02 0.726D-03-0.265D-01-0.457D-01
 Coeff-Com: -0.143D+00 0.331D+00 0.880D+00
 Coeff-En:   0.000D+00 0.000D+00 0.000D+00 0.000D+00 0.000D+00 0.000D+00
 Coeff-En:   0.000D+00 0.000D+00 0.100D+01
 Coeff:      0.241D-02-0.256D-02 0.452D-02 0.725D-03-0.264D-01-0.456D-01
 Coeff:     -0.143D+00 0.330D+00 0.880D+00
 Gap=     0.056 Goal=   None    Shift=    0.000
 Gap=     0.210 Goal=   None    Shift=    0.000
 RMSDP=8.09D-05 MaxDP=2.46D-03 DE=-2.09D-05 OVMax= 9.36D-03

 Cycle  10  Pass 0  IDiag  1:
 RMSU=  1.26D-05    CP:  9.77D-01  3.36D-01  8.66D-01  9.60D-01  1.04D+00
                    CP:  1.02D+00  2.44D+00  2.37D+00  1.62D+00
 E= -421.914549383717     Delta-E=       -0.000014689516 Rises=F Damp=F
 DIIS: error= 8.56D-05 at cycle  10 NSaved=  10.
 NSaved=10 IEnMin=10 EnMin= -421.914549383717     IErMin=10 ErrMin= 8.56D-05
 ErrMax= 8.56D-05  0.00D+00 EMaxC= 1.00D-01 BMatC= 2.64D-06 BMatP= 6.76D-06
 IDIUse=1 WtCom= 1.00D+00 WtEn= 0.00D+00
 Coeff-Com: -0.163D-03 0.349D-03 0.224D-02 0.615D-02 0.150D-01 0.925D-02
 Coeff-Com: -0.175D+00-0.842D-01 0.521D-01 0.117D+01
 Coeff:     -0.163D-03 0.349D-03 0.224D-02 0.615D-02 0.150D-01 0.925D-02
 Coeff:     -0.175D+00-0.842D-01 0.521D-01 0.117D+01
 Gap=     0.056 Goal=   None    Shift=    0.000
 Gap=     0.210 Goal=   None    Shift=    0.000
 RMSDP=9.23D-05 MaxDP=2.93D-03 DE=-1.47D-05 OVMax= 1.08D-02

 Cycle  11  Pass 0  IDiag  1:
 RMSU=  1.76D-05    CP:  9.77D-01  3.36D-01  8.67D-01  9.61D-01  1.07D+00
                    CP:  1.09D+00  2.96D+00  3.00D+00  2.50D+00  1.80D+00
 E= -421.914560936813     Delta-E=       -0.000011553096 Rises=F Damp=F
 DIIS: error= 7.90D-05 at cycle  11 NSaved=  11.
 NSaved=11 IEnMin=11 EnMin= -421.914560936813     IErMin=11 ErrMin= 7.90D-05
 ErrMax= 7.90D-05  0.00D+00 EMaxC= 1.00D-01 BMatC= 3.53D-06 BMatP= 2.64D-06
 IDIUse=1 WtCom= 1.00D+00 WtEn= 0.00D+00
 Coeff-Com: -0.172D-02 0.185D-02-0.209D-02 0.323D-02 0.328D-01 0.510D-01
 Coeff-Com: -0.363D-01-0.281D+00-0.903D+00 0.120D+01 0.938D+00
 Coeff:     -0.172D-02 0.185D-02-0.209D-02 0.323D-02 0.328D-01 0.510D-01
 Coeff:     -0.363D-01-0.281D+00-0.903D+00 0.120D+01 0.938D+00
 Gap=     0.057 Goal=   None    Shift=    0.000
 Gap=     0.210 Goal=   None    Shift=    0.000
 RMSDP=1.15D-04 MaxDP=3.57D-03 DE=-1.16D-05 OVMax= 1.34D-02

 Cycle  12  Pass 0  IDiag  1:
 RMSU=  8.95D-05    CP:  9.77D-01  3.37D-01  8.68D-01  9.63D-01  1.11D+00
                    CP:  1.18D+00  3.00D+00  3.00D+00  3.00D+00  3.00D+00
                    CP:  3.00D+00
 E= -421.914570849764     Delta-E=       -0.000009912951 Rises=F Damp=F
 DIIS: error= 3.16D-05 at cycle  12 NSaved=  12.
 NSaved=12 IEnMin=12 EnMin= -421.914570849764     IErMin=12 ErrMin= 3.16D-05
 ErrMax= 3.16D-05  0.00D+00 EMaxC= 1.00D-01 BMatC= 4.27D-07 BMatP= 2.64D-06
 IDIUse=1 WtCom= 1.00D+00 WtEn= 0.00D+00
 Coeff-Com: -0.692D-03 0.851D-03-0.207D-02-0.241D-02 0.154D-02 0.118D-01
 Coeff-Com:  0.761D-01 0.129D-01-0.252D+00-0.131D+00-0.135D+00 0.142D+01
 Coeff:     -0.692D-03 0.851D-03-0.207D-02-0.241D-02 0.154D-02 0.118D-01
 Coeff:      0.761D-01 0.129D-01-0.252D+00-0.131D+00-0.135D+00 0.142D+01
 Gap=     0.057 Goal=   None    Shift=    0.000
 Gap=     0.210 Goal=   None    Shift=    0.000
 RMSDP=7.93D-05 MaxDP=2.51D-03 DE=-9.91D-06 OVMax= 9.26D-03

 Cycle  13  Pass 0  IDiag  1:
 RMSU=  3.05D-05    CP:  9.77D-01  3.37D-01  8.69D-01  9.64D-01  1.13D+00
                    CP:  1.24D+00  3.00D+00  3.00D+00  3.00D+00  3.00D+00
                    CP:  3.00D+00  1.77D+00
 E= -421.914573645824     Delta-E=       -0.000002796060 Rises=F Damp=F
 DIIS: error= 2.43D-05 at cycle  13 NSaved=  13.
 NSaved=13 IEnMin=13 EnMin= -421.914573645824     IErMin=13 ErrMin= 2.43D-05
 ErrMax= 2.43D-05  0.00D+00 EMaxC= 1.00D-01 BMatC= 1.64D-07 BMatP= 4.27D-07
 IDIUse=1 WtCom= 1.00D+00 WtEn= 0.00D+00
 Coeff-Com: -0.175D-03 0.280D-03-0.788D-03-0.168D-02-0.444D-02-0.218D-02
 Coeff-Com:  0.418D-01 0.505D-01 0.220D-01-0.265D+00-0.293D+00 0.771D+00
 Coeff-Com:  0.682D+00
 Coeff:     -0.175D-03 0.280D-03-0.788D-03-0.168D-02-0.444D-02-0.218D-02
 Coeff:      0.418D-01 0.505D-01 0.220D-01-0.265D+00-0.293D+00 0.771D+00
 Coeff:      0.682D+00
 Gap=     0.057 Goal=   None    Shift=    0.000
 Gap=     0.210 Goal=   None    Shift=    0.000
 RMSDP=2.62D-05 MaxDP=8.33D-04 DE=-2.80D-06 OVMax= 3.04D-03

 Cycle  14  Pass 0  IDiag  1:
 RMSU=  1.83D-06    CP:  9.76D-01  3.37D-01  8.69D-01  9.65D-01  1.14D+00
                    CP:  1.26D+00  3.00D+00  3.00D+00  3.00D+00  3.00D+00
                    CP:  3.00D+00  2.03D+00  1.31D+00
 E= -421.914573948926     Delta-E=       -0.000000303102 Rises=F Damp=F
 DIIS: error= 4.77D-06 at cycle  14 NSaved=  14.
 NSaved=14 IEnMin=14 EnMin= -421.914573948926     IErMin=14 ErrMin= 4.77D-06
 ErrMax= 4.77D-06  0.00D+00 EMaxC= 1.00D-01 BMatC= 1.76D-08 BMatP= 1.64D-07
 IDIUse=1 WtCom= 1.00D+00 WtEn= 0.00D+00
 Coeff-Com:  0.826D-04-0.834D-04 0.847D-04-0.266D-03-0.231D-02-0.323D-02
 Coeff-Com:  0.453D-03 0.216D-01 0.743D-01-0.721D-01-0.116D+00 0.244D-01
 Coeff-Com:  0.295D+00 0.778D+00
 Coeff:      0.826D-04-0.834D-04 0.847D-04-0.266D-03-0.231D-02-0.323D-02
 Coeff:      0.453D-03 0.216D-01 0.743D-01-0.721D-01-0.116D+00 0.244D-01
 Coeff:      0.295D+00 0.778D+00
 Gap=     0.057 Goal=   None    Shift=    0.000
 Gap=     0.210 Goal=   None    Shift=    0.000
 RMSDP=3.19D-06 MaxDP=1.02D-04 DE=-3.03D-07 OVMax= 3.56D-04

 Initial convergence to 1.0D-05 achieved.  Increase integral accuracy.
 Cycle  15  Pass 1  IDiag  1:
 E= -421.914566458879     Delta-E=        0.000007490046 Rises=F Damp=F
 DIIS: error= 5.88D-06 at cycle   1 NSaved=   1.
 NSaved= 1 IEnMin= 1 EnMin= -421.914566458879     IErMin= 1 ErrMin= 5.88D-06
 ErrMax= 5.88D-06  0.00D+00 EMaxC= 1.00D-01 BMatC= 3.87D-08 BMatP= 3.87D-08
 IDIUse=1 WtCom= 1.00D+00 WtEn= 0.00D+00
 Coeff-Com:  0.100D+01
 Coeff:      0.100D+01
 Gap=     0.057 Goal=   None    Shift=    0.000
 Gap=     0.210 Goal=   None    Shift=    0.000
 RMSDP=3.19D-06 MaxDP=1.02D-04 DE= 7.49D-06 OVMax= 4.20D-05

 Cycle  16  Pass 1  IDiag  1:
 RMSU=  4.45D-06    CP:  1.00D+00
 E= -421.914566466790     Delta-E=       -0.000000007911 Rises=F Damp=F
 DIIS: error= 2.15D-06 at cycle   2 NSaved=   2.
 NSaved= 2 IEnMin= 2 EnMin= -421.914566466790     IErMin= 2 ErrMin= 2.15D-06
 ErrMax= 2.15D-06  0.00D+00 EMaxC= 1.00D-01 BMatC= 4.66D-09 BMatP= 3.87D-08
 IDIUse=1 WtCom= 1.00D+00 WtEn= 0.00D+00
 Coeff-Com:  0.141D+00 0.859D+00
 Coeff:      0.141D+00 0.859D+00
 Gap=     0.057 Goal=   None    Shift=    0.000
 Gap=     0.210 Goal=   None    Shift=    0.000
 RMSDP=9.03D-07 MaxDP=2.60D-05 DE=-7.91D-09 OVMax= 8.57D-05

 Cycle  17  Pass 1  IDiag  1:
 RMSU=  8.98D-07    CP:  1.00D+00  1.02D+00
 E= -421.914566466989     Delta-E=       -0.000000000199 Rises=F Damp=F
 DIIS: error= 3.38D-06 at cycle   3 NSaved=   3.
 NSaved= 3 IEnMin= 3 EnMin= -421.914566466989     IErMin= 2 ErrMin= 2.15D-06
 ErrMax= 3.38D-06  0.00D+00 EMaxC= 1.00D-01 BMatC= 8.17D-09 BMatP= 4.66D-09
 IDIUse=1 WtCom= 1.00D+00 WtEn= 0.00D+00
 Coeff-Com: -0.113D-01 0.577D+00 0.434D+00
 Coeff:     -0.113D-01 0.577D+00 0.434D+00
 Gap=     0.057 Goal=   None    Shift=    0.000
 Gap=     0.210 Goal=   None    Shift=    0.000
 RMSDP=3.19D-07 MaxDP=8.85D-06 DE=-1.99D-10 OVMax= 1.47D-05

 Cycle  18  Pass 1  IDiag  1:
 RMSU=  2.75D-07    CP:  1.00D+00  1.03D+00  8.26D-01
 E= -421.914566469014     Delta-E=       -0.000000002025 Rises=F Damp=F
 DIIS: error= 6.68D-07 at cycle   4 NSaved=   4.
 NSaved= 4 IEnMin= 4 EnMin= -421.914566469014     IErMin= 4 ErrMin= 6.68D-07
 ErrMax= 6.68D-07  0.00D+00 EMaxC= 1.00D-01 BMatC= 2.24D-10 BMatP= 4.66D-09
 IDIUse=1 WtCom= 1.00D+00 WtEn= 0.00D+00
 Coeff-Com: -0.938D-02 0.154D+00 0.671D-01 0.789D+00
 Coeff:     -0.938D-02 0.154D+00 0.671D-01 0.789D+00
 Gap=     0.057 Goal=   None    Shift=    0.000
 Gap=     0.210 Goal=   None    Shift=    0.000
 RMSDP=2.96D-07 MaxDP=1.12D-05 DE=-2.02D-09 OVMax= 3.28D-05

 Cycle  19  Pass 1  IDiag  1:
 RMSU=  1.20D-07    CP:  1.00D+00  1.04D+00  1.07D+00  1.55D+00
 E= -421.914566469318     Delta-E=       -0.000000000304 Rises=F Damp=F
 DIIS: error= 9.63D-07 at cycle   5 NSaved=   5.
 NSaved= 5 IEnMin= 5 EnMin= -421.914566469318     IErMin= 4 ErrMin= 6.68D-07
 ErrMax= 9.63D-07  0.00D+00 EMaxC= 1.00D-01 BMatC= 2.50D-10 BMatP= 2.24D-10
 IDIUse=1 WtCom= 1.00D+00 WtEn= 0.00D+00
 Coeff-Com:  0.202D-02-0.315D+00-0.365D+00 0.661D+00 0.102D+01
 Coeff:      0.202D-02-0.315D+00-0.365D+00 0.661D+00 0.102D+01
 Gap=     0.057 Goal=   None    Shift=    0.000
 Gap=     0.210 Goal=   None    Shift=    0.000
 RMSDP=5.01D-07 MaxDP=1.60D-05 DE=-3.04D-10 OVMax= 5.60D-05

 Cycle  20  Pass 1  IDiag  1:
 RMSU=  8.67D-08    CP:  1.00D+00  1.04D+00  1.49D+00  2.68D+00  1.48D+00
 E= -421.914566469721     Delta-E=       -0.000000000403 Rises=F Damp=F
 DIIS: error= 4.41D-07 at cycle   6 NSaved=   6.
 NSaved= 6 IEnMin= 6 EnMin= -421.914566469721     IErMin= 6 ErrMin= 4.41D-07
 ErrMax= 4.41D-07  0.00D+00 EMaxC= 1.00D-01 BMatC= 9.66D-11 BMatP= 2.24D-10
 IDIUse=1 WtCom= 1.00D+00 WtEn= 0.00D+00
 Coeff-Com:  0.439D-02-0.261D+00-0.307D+00 0.311D+00 0.666D+00 0.587D+00
 Coeff:      0.439D-02-0.261D+00-0.307D+00 0.311D+00 0.666D+00 0.587D+00
 Gap=     0.057 Goal=   None    Shift=    0.000
 Gap=     0.210 Goal=   None    Shift=    0.000
 RMSDP=2.59D-07 MaxDP=9.26D-06 DE=-4.03D-10 OVMax= 2.92D-05

 Cycle  21  Pass 1  IDiag  1:
 RMSU=  7.30D-08    CP:  1.00D+00  1.05D+00  1.72D+00  3.00D+00  1.97D+00
                    CP:  1.20D+00
 E= -421.914566469851     Delta-E=       -0.000000000130 Rises=F Damp=F
 DIIS: error= 2.92D-07 at cycle   7 NSaved=   7.
 NSaved= 7 IEnMin= 7 EnMin= -421.914566469851     IErMin= 7 ErrMin= 2.92D-07
 ErrMax= 2.92D-07  0.00D+00 EMaxC= 1.00D-01 BMatC= 3.85D-11 BMatP= 9.66D-11
 IDIUse=1 WtCom= 1.00D+00 WtEn= 0.00D+00
 Coeff-Com:  0.704D-03 0.190D-01-0.263D-01-0.382D-01-0.177D+00 0.249D+00
 Coeff-Com:  0.973D+00
 Coeff:      0.704D-03 0.190D-01-0.263D-01-0.382D-01-0.177D+00 0.249D+00
 Coeff:      0.973D+00
 Gap=     0.057 Goal=   None    Shift=    0.000
 Gap=     0.210 Goal=   None    Shift=    0.000
 RMSDP=2.41D-07 MaxDP=7.37D-06 DE=-1.30D-10 OVMax= 2.80D-05

 Cycle  22  Pass 1  IDiag  1:
 RMSU=  8.13D-08    CP:  1.00D+00  1.05D+00  1.91D+00  3.00D+00  2.35D+00
                    CP:  1.99D+00  2.56D+00
 E= -421.914566469922     Delta-E=       -0.000000000071 Rises=F Damp=F
 DIIS: error= 2.43D-07 at cycle   8 NSaved=   8.
 NSaved= 8 IEnMin= 8 EnMin= -421.914566469922     IErMin= 8 ErrMin= 2.43D-07
 ErrMax= 2.43D-07  0.00D+00 EMaxC= 1.00D-01 BMatC= 2.37D-11 BMatP= 3.85D-11
 IDIUse=1 WtCom= 1.00D+00 WtEn= 0.00D+00
 Coeff-Com: -0.248D-02 0.193D+00 0.161D+00-0.164D+00-0.598D+00-0.287D+00
 Coeff-Com:  0.688D+00 0.101D+01
 Coeff:     -0.248D-02 0.193D+00 0.161D+00-0.164D+00-0.598D+00-0.287D+00
 Coeff:      0.688D+00 0.101D+01
 Gap=     0.057 Goal=   None    Shift=    0.000
 Gap=     0.210 Goal=   None    Shift=    0.000
 RMSDP=2.65D-07 MaxDP=8.36D-06 DE=-7.14D-11 OVMax= 3.08D-05

 Cycle  23  Pass 1  IDiag  1:
 RMSU=  1.06D-07    CP:  1.00D+00  1.06D+00  2.13D+00  3.00D+00  2.86D+00
                    CP:  2.83D+00  3.00D+00  1.79D+00
 E= -421.914566469991     Delta-E=       -0.000000000069 Rises=F Damp=F
 DIIS: error= 1.24D-07 at cycle   9 NSaved=   9.
 NSaved= 9 IEnMin= 9 EnMin= -421.914566469991     IErMin= 9 ErrMin= 1.24D-07
 ErrMax= 1.24D-07  0.00D+00 EMaxC= 1.00D-01 BMatC= 7.59D-12 BMatP= 2.37D-11
 IDIUse=1 WtCom= 1.00D+00 WtEn= 0.00D+00
 Coeff-Com: -0.234D-02 0.137D+00 0.126D+00-0.650D-01-0.356D+00-0.402D+00
 Coeff-Com: -0.715D-02 0.594D+00 0.975D+00
 Coeff:     -0.234D-02 0.137D+00 0.126D+00-0.650D-01-0.356D+00-0.402D+00
 Coeff:     -0.715D-02 0.594D+00 0.975D+00
 Gap=     0.057 Goal=   None    Shift=    0.000
 Gap=     0.210 Goal=   None    Shift=    0.000
 RMSDP=2.24D-07 MaxDP=6.96D-06 DE=-6.92D-11 OVMax= 2.62D-05

 Cycle  24  Pass 1  IDiag  1:
 RMSU=  6.49D-08    CP:  1.00D+00  1.06D+00  2.31D+00  3.00D+00  3.00D+00
                    CP:  3.00D+00  3.00D+00  2.45D+00  2.06D+00
 E= -421.914566470028     Delta-E=       -0.000000000036 Rises=F Damp=F
 DIIS: error= 5.94D-08 at cycle  10 NSaved=  10.
 NSaved=10 IEnMin=10 EnMin= -421.914566470028     IErMin=10 ErrMin= 5.94D-08
 ErrMax= 5.94D-08  0.00D+00 EMaxC= 1.00D-01 BMatC= 1.30D-12 BMatP= 7.59D-12
 IDIUse=1 WtCom= 1.00D+00 WtEn= 0.00D+00
 Coeff-Com:  0.995D-04-0.199D-01-0.188D-01 0.446D-01 0.708D-01-0.344D-01
 Coeff-Com: -0.184D+00-0.208D+00 0.288D+00 0.106D+01
 Coeff:      0.995D-04-0.199D-01-0.188D-01 0.446D-01 0.708D-01-0.344D-01
 Coeff:     -0.184D+00-0.208D+00 0.288D+00 0.106D+01
 Gap=     0.057 Goal=   None    Shift=    0.000
 Gap=     0.210 Goal=   None    Shift=    0.000
 RMSDP=1.10D-07 MaxDP=3.39D-06 DE=-3.64D-11 OVMax= 1.28D-05

 Cycle  25  Pass 1  IDiag  1:
 RMSU=  8.23D-09    CP:  1.00D+00  1.06D+00  2.40D+00  3.00D+00  3.00D+00
                    CP:  3.00D+00  3.00D+00  2.79D+00  2.59D+00  1.62D+00
 E= -421.914566470019     Delta-E=        0.000000000008 Rises=F Damp=F
 DIIS: error= 1.48D-08 at cycle  11 NSaved=  11.
 NSaved=11 IEnMin=10 EnMin= -421.914566470028     IErMin=11 ErrMin= 1.48D-08
 ErrMax= 1.48D-08  0.00D+00 EMaxC= 1.00D-01 BMatC= 2.15D-13 BMatP= 1.30D-12
 IDIUse=1 WtCom= 1.00D+00 WtEn= 0.00D+00
 Coeff-Com:  0.299D-03-0.250D-01-0.240D-01 0.324D-01 0.725D-01 0.276D-01
 Coeff-Com: -0.852D-01-0.167D+00 0.266D-01 0.532D+00 0.610D+00
 Coeff:      0.299D-03-0.250D-01-0.240D-01 0.324D-01 0.725D-01 0.276D-01
 Coeff:     -0.852D-01-0.167D+00 0.266D-01 0.532D+00 0.610D+00
 Gap=     0.057 Goal=   None    Shift=    0.000
 Gap=     0.210 Goal=   None    Shift=    0.000
 RMSDP=1.06D-08 MaxDP=3.35D-07 DE= 8.41D-12 OVMax= 1.22D-06

 SCF Done:  E(UB3LYP) =  -421.914566470     A.U. after   25 cycles
            NFock= 25  Conv=0.11D-07     -V/T= 2.0078
 <Sx>= 0.0000 <Sy>= 0.0000 <Sz>= 0.5000 <S**2>= 0.7566 S= 0.5033
 <L.S>= 0.000000000000E+00
 KE= 4.186449481965D+02 PE=-1.855112706775D+03 EE= 5.856539290961D+02
 Annihilation of the first spin contaminant:
 S**2 before annihilation     0.7566,   after     0.7500
 Leave Link  502 at Wed Dec 03 16:45:59 2025, MaxMem=   104857600 cpu:              41.0 elap:              41.0
 (Enter D:\Gaussian\G16W\l601.exe)
 Copying SCF densities to generalized density rwf, IOpCl= 1 IROHF=0.

 **********************************************************************

            Population analysis using the SCF density.

 **********************************************************************

 Orbital symmetries:
 Alpha Orbitals:
       Occupied  (A) (A) (A) (A) (A) (A) (A) (A) (A) (A) (A) (A)
                 (A) (A) (A) (A) (A) (A) (A) (A) (A) (A) (A) (A)
                 (A) (A) (A) (A) (A) (A) (A) (A) (A) (A)
       Virtual   (A) (A) (A) (A) (A) (A) (A) (A) (A) (A) (A) (A)
                 (A) (A) (A) (A) (A) (A) (A) (A) (A) (A) (A) (A)
                 (A) (A) (A) (A) (A) (A) (A) (A) (A) (A) (A) (A)
                 (A) (A) (A) (A) (A) (A) (A) (A) (A) (A) (A) (A)
                 (A) (A) (A) (A) (A) (A) (A) (A) (A) (A) (A) (A)
                 (A) (A) (A) (A) (A) (A) (A) (A) (A) (A) (A) (A)
                 (A) (A) (A) (A) (A) (A) (A) (A) (A) (A) (A) (A)
                 (A) (A) (A) (A) (A) (A) (A) (A) (A) (A) (A) (A)
                 (A) (A) (A) (A) (A) (A) (A) (A) (A) (A) (A) (A)
                 (A) (A) (A) (A) (A) (A) (A) (A) (A)
 Beta  Orbitals:
       Occupied  (A) (A) (A) (A) (A) (A) (A) (A) (A) (A) (A) (A)
                 (A) (A) (A) (A) (A) (A) (A) (A) (A) (A) (A) (A)
                 (A) (A) (A) (A) (A) (A) (A) (A) (A)
       Virtual   (A) (A) (A) (A) (A) (A) (A) (A) (A) (A) (A) (A)
                 (A) (A) (A) (A) (A) (A) (A) (A) (A) (A) (A) (A)
                 (A) (A) (A) (A) (A) (A) (A) (A) (A) (A) (A) (A)
                 (A) (A) (A) (A) (A) (A) (A) (A) (A) (A) (A) (A)
                 (A) (A) (A) (A) (A) (A) (A) (A) (A) (A) (A) (A)
                 (A) (A) (A) (A) (A) (A) (A) (A) (A) (A) (A) (A)
                 (A) (A) (A) (A) (A) (A) (A) (A) (A) (A) (A) (A)
                 (A) (A) (A) (A) (A) (A) (A) (A) (A) (A) (A) (A)
                 (A) (A) (A) (A) (A) (A) (A) (A) (A) (A) (A) (A)
                 (A) (A) (A) (A) (A) (A) (A) (A) (A) (A)
 The electronic state is 2-A.
 Alpha  occ. eigenvalues --  -18.99787 -18.98119 -10.01992 -10.01374 -10.00941
 Alpha  occ. eigenvalues --   -9.97007  -9.96912  -9.94946  -9.93595  -0.88221
 Alpha  occ. eigenvalues --   -0.85525  -0.63194  -0.56404  -0.52487  -0.48918
 Alpha  occ. eigenvalues --   -0.42375  -0.40036  -0.34403  -0.32233  -0.27593
 Alpha  occ. eigenvalues --   -0.25477  -0.24382  -0.23590  -0.22576  -0.20853
 Alpha  occ. eigenvalues --   -0.20127  -0.17506  -0.17499  -0.15015  -0.13258
 Alpha  occ. eigenvalues --   -0.11589  -0.03135  -0.00647   0.15997
 Alpha virt. eigenvalues --    0.21660   0.23072   0.26599   0.27459   0.29256
 Alpha virt. eigenvalues --    0.32140   0.32635   0.34277   0.36270   0.39276
 Alpha virt. eigenvalues --    0.41534   0.42780   0.47764   0.52034   0.53967
 Alpha virt. eigenvalues --    0.56095   0.58781   0.67280   0.70527   0.71218
 Alpha virt. eigenvalues --    0.74111   0.74158   0.75669   0.78122   0.80299
 Alpha virt. eigenvalues --    0.80305   0.82307   0.83808   0.84594   0.85381
 Alpha virt. eigenvalues --    0.87420   0.89590   0.91238   0.91814   0.94809
 Alpha virt. eigenvalues --    0.95379   0.98557   1.01979   1.04643   1.04763
 Alpha virt. eigenvalues --    1.06379   1.07226   1.09603   1.10124   1.12016
 Alpha virt. eigenvalues --    1.13497   1.16194   1.18582   1.21011   1.22493
 Alpha virt. eigenvalues --    1.24456   1.30146   1.32554   1.36815   1.41688
 Alpha virt. eigenvalues --    1.43024   1.45835   1.48525   1.53991   1.57686
 Alpha virt. eigenvalues --    1.59836   1.60195   1.62364   1.65876   1.66973
 Alpha virt. eigenvalues --    1.71689   1.85349   1.89043   1.93014   1.94231
 Alpha virt. eigenvalues --    1.98509   1.99848   2.04484   2.07435   2.07465
 Alpha virt. eigenvalues --    2.09170   2.12236   2.12851   2.15069   2.15925
 Alpha virt. eigenvalues --    2.21173   2.26208   2.31121   2.32836   2.36622
 Alpha virt. eigenvalues --    2.43800   2.49481   2.50605   2.51538   2.54091
 Alpha virt. eigenvalues --    2.55585   2.58136   2.60045   2.63753   2.64535
 Alpha virt. eigenvalues --    2.75811   2.79228   2.80080   2.88074   2.88846
 Alpha virt. eigenvalues --    2.98475   3.01097   3.04677   3.10639   3.11025
 Alpha virt. eigenvalues --    3.23666   3.40913   3.65825   4.04245   4.28955
 Alpha virt. eigenvalues --    4.31412   4.37537   4.41376   4.46839   4.60091
 Alpha virt. eigenvalues --    4.73822   5.12381
  Beta  occ. eigenvalues --  -18.99739 -18.98111 -10.01972 -10.01138 -10.00953
  Beta  occ. eigenvalues --   -9.97042  -9.96798  -9.94439  -9.93043  -0.88076
  Beta  occ. eigenvalues --   -0.85466  -0.62610  -0.55989  -0.51759  -0.48459
  Beta  occ. eigenvalues --   -0.41897  -0.39741  -0.34069  -0.31884  -0.27355
  Beta  occ. eigenvalues --   -0.25301  -0.24029  -0.23384  -0.21798  -0.20577
  Beta  occ. eigenvalues --   -0.20020  -0.17281  -0.17167  -0.14814  -0.13005
  Beta  occ. eigenvalues --   -0.10230  -0.00109   0.00754
  Beta virt. eigenvalues --    0.21710   0.23561   0.23809   0.26700   0.27545
  Beta virt. eigenvalues --    0.29417   0.32264   0.33653   0.34579   0.36414
  Beta virt. eigenvalues --    0.41734   0.41906   0.43047   0.48284   0.52222
  Beta virt. eigenvalues --    0.54270   0.56589   0.59243   0.67603   0.71069
  Beta virt. eigenvalues --    0.71697   0.74422   0.75112   0.75959   0.78398
  Beta virt. eigenvalues --    0.80536   0.81839   0.82570   0.84469   0.85915
  Beta virt. eigenvalues --    0.85939   0.88276   0.89877   0.91497   0.92809
  Beta virt. eigenvalues --    0.95018   0.95526   0.99655   1.02148   1.04799
  Beta virt. eigenvalues --    1.05016   1.06736   1.07489   1.09898   1.10391
  Beta virt. eigenvalues --    1.12143   1.13629   1.16381   1.18790   1.21447
  Beta virt. eigenvalues --    1.22665   1.24703   1.30357   1.32851   1.37245
  Beta virt. eigenvalues --    1.41921   1.43407   1.46998   1.48757   1.54590
  Beta virt. eigenvalues --    1.57802   1.60288   1.60558   1.63213   1.66229
  Beta virt. eigenvalues --    1.68325   1.72887   1.85600   1.89157   1.93277
  Beta virt. eigenvalues --    1.94516   1.98788   2.00793   2.04867   2.07724
  Beta virt. eigenvalues --    2.08065   2.09427   2.12690   2.13929   2.15312
  Beta virt. eigenvalues --    2.16234   2.21804   2.27297   2.31479   2.33155
  Beta virt. eigenvalues --    2.37196   2.44408   2.50609   2.51359   2.52057
  Beta virt. eigenvalues --    2.54746   2.55833   2.59337   2.60794   2.63909
  Beta virt. eigenvalues --    2.64868   2.76140   2.79906   2.80931   2.88635
  Beta virt. eigenvalues --    2.90258   2.99042   3.01366   3.04972   3.10860
  Beta virt. eigenvalues --    3.11279   3.24386   3.41121   3.66102   4.04348
  Beta virt. eigenvalues --    4.29430   4.31860   4.37972   4.41713   4.47301
  Beta virt. eigenvalues --    4.60882   4.74230   5.12835
          Condensed to atoms (all electrons):
               1          2          3          4          5          6
     1  C    5.020290   0.410846   0.016654  -0.047753  -0.037827   0.611606
     2  C    0.410846   5.415694   0.361464  -0.044040  -0.030944  -0.039400
     3  C    0.016654   0.361464   4.962073   0.519417  -0.082449  -0.036916
     4  C   -0.047753  -0.044040   0.519417   4.667437   0.462795   0.026122
     5  C   -0.037827  -0.030944  -0.082449   0.462795   5.357292   0.433581
     6  C    0.611606  -0.039400  -0.036916   0.026122   0.433581   4.667053
     7  H    0.321340  -0.056379   0.004480   0.000810   0.007735  -0.045786
     8  H   -0.039779   0.310137  -0.055382   0.004760   0.001416   0.004683
     9  H    0.008086   0.000060   0.011038  -0.049673   0.322847  -0.067744
    10  O    0.000250   0.005826  -0.070830   0.248378  -0.039445   0.002234
    11  O    0.003979  -0.061432   0.192630  -0.045296   0.003835   0.000327
    12  H   -0.000176   0.001440  -0.013525  -0.044632   0.004687   0.000059
    13  H    0.000273  -0.004535  -0.033086   0.005787  -0.000110  -0.000054
    14  C   -0.052634   0.008525   0.000702   0.008393  -0.095411   0.361076
    15  H   -0.001525   0.000074  -0.000029  -0.000309   0.007250  -0.040630
    16  H   -0.001487   0.000073  -0.000029  -0.000310   0.007214  -0.040561
    17  H   -0.003748  -0.000165   0.000025  -0.000168   0.003626  -0.024462
               7          8          9         10         11         12
     1  C    0.321340  -0.039779   0.008086   0.000250   0.003979  -0.000176
     2  C   -0.056379   0.310137   0.000060   0.005826  -0.061432   0.001440
     3  C    0.004480  -0.055382   0.011038  -0.070830   0.192630  -0.013525
     4  C    0.000810   0.004760  -0.049673   0.248378  -0.045296  -0.044632
     5  C    0.007735   0.001416   0.322847  -0.039445   0.003835   0.004687
     6  C   -0.045786   0.004683  -0.067744   0.002234   0.000327   0.000059
     7  H    0.768256  -0.008899  -0.000261   0.000003  -0.000066   0.000000
     8  H   -0.008899   0.790823   0.000023  -0.000080  -0.007278  -0.000021
     9  H   -0.000261   0.000023   0.781355  -0.002632  -0.000085  -0.000530
    10  O    0.000003  -0.000080  -0.002632   8.322510  -0.009650   0.244282
    11  O   -0.000066  -0.007278  -0.000085  -0.009650   8.381608   0.025807
    12  H    0.000000  -0.000021  -0.000530   0.244282   0.025807   0.395054
    13  H   -0.000020   0.010123   0.000011   0.000148   0.236344  -0.001509
    14  C   -0.016998  -0.000294  -0.014496  -0.000065   0.000000   0.000006
    15  H    0.000157   0.000004   0.002820   0.000000   0.000000   0.000000
    16  H    0.000157   0.000004   0.002841   0.000000   0.000000   0.000000
    17  H    0.010212  -0.000013   0.000094   0.000000   0.000000   0.000000
              13         14         15         16         17
     1  C    0.000273  -0.052634  -0.001525  -0.001487  -0.003748
     2  C   -0.004535   0.008525   0.000074   0.000073  -0.000165
     3  C   -0.033086   0.000702  -0.000029  -0.000029   0.000025
     4  C    0.005787   0.008393  -0.000309  -0.000310  -0.000168
     5  C   -0.000110  -0.095411   0.007250   0.007214   0.003626
     6  C   -0.000054   0.361076  -0.040630  -0.040561  -0.024462
     7  H   -0.000020  -0.016998   0.000157   0.000157   0.010212
     8  H    0.010123  -0.000294   0.000004   0.000004  -0.000013
     9  H    0.000011  -0.014496   0.002820   0.002841   0.000094
    10  O    0.000148  -0.000065   0.000000   0.000000   0.000000
    11  O    0.236344   0.000000   0.000000   0.000000   0.000000
    12  H   -0.001509   0.000006   0.000000   0.000000   0.000000
    13  H    0.413109  -0.000001   0.000000   0.000000   0.000000
    14  C   -0.000001   5.340598   0.315829   0.315769   0.345466
    15  H    0.000000   0.315829   0.742828  -0.080778  -0.035141
    16  H    0.000000   0.315769  -0.080778   0.742808  -0.035148
    17  H    0.000000   0.345466  -0.035141  -0.035148   0.643183
          Atomic-Atomic Spin Densities.
               1          2          3          4          5          6
     1  C   -0.005662  -0.085578   0.009821   0.007393  -0.018734   0.054317
     2  C   -0.085578   0.650604  -0.158522  -0.022176   0.022854  -0.021963
     3  C    0.009821  -0.158522   0.263606   0.074790  -0.033515   0.009936
     4  C    0.007393  -0.022176   0.074790   0.046361  -0.104554   0.006607
     5  C   -0.018734   0.022854  -0.033515  -0.104554   0.679958  -0.119855
     6  C    0.054317  -0.021963   0.009936   0.006607  -0.119855   0.131976
     7  H    0.002340  -0.000991   0.000165  -0.000072   0.000240  -0.001180
     8  H   -0.000425   0.006683  -0.001473  -0.000220  -0.000079  -0.000084
     9  H   -0.000221  -0.000056  -0.000264  -0.001208   0.005939   0.000248
    10  O   -0.000049   0.000377  -0.005151  -0.005713   0.004791  -0.000076
    11  O   -0.000136   0.007234  -0.027145  -0.005426   0.000493  -0.000055
    12  H    0.000000   0.000010  -0.000128   0.000415   0.000148  -0.000012
    13  H    0.000011   0.000009   0.000055   0.000001  -0.000012   0.000004
    14  C    0.004422  -0.001094   0.000176   0.000596  -0.017518   0.041737
    15  H   -0.001729   0.000240  -0.000060  -0.000231   0.009189  -0.014175
    16  H   -0.001707   0.000240  -0.000059  -0.000232   0.009154  -0.014120
    17  H    0.000290   0.000001   0.000001  -0.000006   0.000116  -0.000440
               7          8          9         10         11         12
     1  C    0.002340  -0.000425  -0.000221  -0.000049  -0.000136   0.000000
     2  C   -0.000991   0.006683  -0.000056   0.000377   0.007234   0.000010
     3  C    0.000165  -0.001473  -0.000264  -0.005151  -0.027145  -0.000128
     4  C   -0.000072  -0.000220  -0.001208  -0.005713  -0.005426   0.000415
     5  C    0.000240  -0.000079   0.005939   0.004791   0.000493   0.000148
     6  C   -0.001180  -0.000084   0.000248  -0.000076  -0.000055  -0.000012
     7  H   -0.001566   0.000325   0.000003   0.000000   0.000001   0.000000
     8  H    0.000325  -0.029810  -0.000001   0.000002   0.000336   0.000000
     9  H    0.000003  -0.000001  -0.032267   0.000353   0.000001   0.000001
    10  O    0.000000   0.000002   0.000353   0.006391   0.000546   0.000205
    11  O    0.000001   0.000336   0.000001   0.000546   0.032058  -0.000039
    12  H    0.000000   0.000000   0.000001   0.000205  -0.000039  -0.001239
    13  H    0.000000  -0.000252   0.000000  -0.000003   0.000061   0.000020
    14  C    0.000411   0.000003   0.000483  -0.000001   0.000000   0.000000
    15  H   -0.000005   0.000000   0.000001   0.000001   0.000000   0.000000
    16  H   -0.000004   0.000000   0.000003   0.000001   0.000000   0.000000
    17  H   -0.000105   0.000000  -0.000011   0.000000   0.000000   0.000000
              13         14         15         16         17
     1  C    0.000011   0.004422  -0.001729  -0.001707   0.000290
     2  C    0.000009  -0.001094   0.000240   0.000240   0.000001
     3  C    0.000055   0.000176  -0.000060  -0.000059   0.000001
     4  C    0.000001   0.000596  -0.000231  -0.000232  -0.000006
     5  C   -0.000012  -0.017518   0.009189   0.009154   0.000116
     6  C    0.000004   0.041737  -0.014175  -0.014120  -0.000440
     7  H    0.000000   0.000411  -0.000005  -0.000004  -0.000105
     8  H   -0.000252   0.000003   0.000000   0.000000   0.000000
     9  H    0.000000   0.000483   0.000001   0.000003  -0.000011
    10  O   -0.000003  -0.000001   0.000001   0.000001   0.000000
    11  O    0.000061   0.000000   0.000000   0.000000   0.000000
    12  H    0.000020   0.000000   0.000000   0.000000   0.000000
    13  H   -0.000901   0.000000   0.000000   0.000000   0.000000
    14  C    0.000000   0.032737  -0.033244  -0.033312   0.001214
    15  H    0.000000  -0.033244   0.098091  -0.034827  -0.000095
    16  H    0.000000  -0.033312  -0.034827   0.098157  -0.000135
    17  H    0.000000   0.001214  -0.000095  -0.000135  -0.001569
 Mulliken charges and spin densities:
               1          2
     1  C   -0.208394  -0.035646
     2  C   -0.277242   0.397873
     3  C    0.223762   0.132233
     4  C    0.288282  -0.003674
     5  C   -0.326093   0.438616
     6  C    0.188814   0.072864
     7  H    0.015260  -0.000438
     8  H   -0.010228  -0.024994
     9  H    0.006246  -0.026998
    10  O   -0.700928   0.001675
    11  O   -0.720723   0.007930
    12  H    0.389057  -0.000618
    13  H    0.373518  -0.001008
    14  C   -0.516465  -0.003391
    15  H    0.089450   0.023157
    16  H    0.089445   0.023158
    17  H    0.096239  -0.000739
 Sum of Mulliken charges =  -1.00000   1.00000
 Mulliken charges and spin densities with hydrogens summed into heavy atoms:
               1          2
     1  C   -0.193134  -0.036084
     2  C   -0.287469   0.372879
     3  C    0.223762   0.132233
     4  C    0.288282  -0.003674
     5  C   -0.319847   0.411618
     6  C    0.188814   0.072864
    10  O   -0.311872   0.001057
    11  O   -0.347206   0.006922
    14  C   -0.241331   0.042185
 Electronic spatial extent (au):  <R**2>=           1250.6783
 Charge=             -1.0000 electrons
 Dipole moment (field-independent basis, Debye):
    X=             -2.0566    Y=              1.4770    Z=             -0.0023  Tot=              2.5320
 Quadrupole moment (field-independent basis, Debye-Ang):
   XX=            -63.5114   YY=            -62.5990   ZZ=            -59.3545
   XY=             -3.2567   XZ=              0.0059   YZ=             -0.0028
 Traceless Quadrupole moment (field-independent basis, Debye-Ang):
   XX=             -1.6898   YY=             -0.7774   ZZ=              2.4672
   XY=             -3.2567   XZ=              0.0059   YZ=             -0.0028
 Octapole moment (field-independent basis, Debye-Ang**2):
  XXX=            -56.1661  YYY=              7.9622  ZZZ=             -0.0001  XYY=            -14.1168
  XXY=              8.1375  XXZ=             -0.0233  XZZ=             -9.3752  YZZ=             -3.3436
  YYZ=             -0.0070  XYZ=              0.0085
 Hexadecapole moment (field-independent basis, Debye-Ang**3):
 XXXX=          -1172.0236 YYYY=           -525.7808 ZZZZ=            -67.3123 XXXY=             10.2112
 XXXZ=              0.0193 YYYX=            -28.1965 YYYZ=              0.0010 ZZZX=             -0.0105
 ZZZY=              0.0083 XXYY=           -245.2370 XXZZ=           -202.7087 YYZZ=           -101.1303
 XXYZ=             -0.0212 YYXZ=              0.0090 ZZXY=              1.5092
 N-N= 4.288992630119D+02 E-N=-1.855112708809D+03  KE= 4.186449481965D+02
                          Isotropic Fermi Contact Couplings
        Atom                 a.u.       MegaHertz       Gauss      10(-4) cm-1
     1  C(13)             -0.01150     -12.92833      -4.61315      -4.31243
     2  C(13)              0.03779      42.48509      15.15974      14.17150
     3  C(13)              0.00738       8.29678       2.96050       2.76751
     4  C(13)             -0.01081     -12.14997      -4.33541      -4.05279
     5  C(13)              0.04196      47.16946      16.83124      15.73404
     6  C(13)              0.00232       2.60340       0.92896       0.86840
     7  H(1)              -0.00018      -0.79131      -0.28236      -0.26395
     8  H(1)              -0.00637     -28.46028     -10.15534      -9.49333
     9  H(1)              -0.00705     -31.51517     -11.24540     -10.51233
    10  O(17)             -0.00077       0.46852       0.16718       0.15628
    11  O(17)              0.00318      -1.92850      -0.68814      -0.64328
    12  H(1)              -0.00026      -1.17895      -0.42068      -0.39326
    13  H(1)              -0.00041      -1.85381      -0.66148      -0.61836
    14  C(13)             -0.00560      -6.29641      -2.24672      -2.10026
    15  H(1)               0.00344      15.38415       5.48945       5.13160
    16  H(1)               0.00344      15.35419       5.47876       5.12161
    17  H(1)              -0.00022      -0.99442      -0.35484      -0.33170
 --------------------------------------------------------
       Center         ----  Spin Dipole Couplings  ----
                      3XX-RR        3YY-RR        3ZZ-RR
 --------------------------------------------------------
     1   Atom        0.008859      0.002152     -0.011010
     2   Atom       -0.209995     -0.197453      0.407448
     3   Atom       -0.106839     -0.099778      0.206617
     4   Atom       -0.018536     -0.024762      0.043298
     5   Atom       -0.225663     -0.217416      0.443079
     6   Atom       -0.056265     -0.055858      0.112123
     7   Atom        0.001817      0.002999     -0.004816
     8   Atom       -0.024527      0.024768     -0.000241
     9   Atom       -0.026853      0.026862     -0.000009
    10   Atom       -0.006289     -0.008535      0.014824
    11   Atom       -0.044389     -0.044444      0.088833
    12   Atom        0.003829      0.000634     -0.004463
    13   Atom        0.003771      0.001428     -0.005199
    14   Atom        0.003957     -0.006115      0.002158
    15   Atom        0.005348     -0.001877     -0.003471
    16   Atom        0.005350     -0.001877     -0.003472
    17   Atom        0.005992     -0.003553     -0.002439
 --------------------------------------------------------
                        XY            XZ            YZ
 --------------------------------------------------------
     1   Atom       -0.005718     -0.000036      0.000009
     2   Atom       -0.001259     -0.000031      0.000188
     3   Atom        0.004184     -0.000131      0.000012
     4   Atom       -0.006593      0.000011     -0.000090
     5   Atom       -0.004080      0.000023     -0.000079
     6   Atom        0.005267     -0.000027     -0.000031
     7   Atom        0.002858      0.000000      0.000001
     8   Atom       -0.017865      0.000018     -0.000024
     9   Atom       -0.017824     -0.000001      0.000009
    10   Atom        0.003122     -0.000112      0.000082
    11   Atom       -0.003559     -0.000139      0.000586
    12   Atom        0.004722      0.000006      0.000000
    13   Atom       -0.005120      0.000012     -0.000030
    14   Atom       -0.000332     -0.000004      0.000027
    15   Atom       -0.002467      0.002715     -0.000647
    16   Atom       -0.002472     -0.002707      0.000647
    17   Atom        0.001953     -0.000006     -0.000002
 --------------------------------------------------------


 ---------------------------------------------------------------------------------
              Anisotropic Spin Dipole Couplings in Principal Axis System
 ---------------------------------------------------------------------------------

       Atom             a.u.   MegaHertz   Gauss  10(-4) cm-1        Axes

              Baa    -0.0110    -1.477    -0.527    -0.493  0.0019  0.0002  1.0000
     1 C(13)  Bbb    -0.0011    -0.151    -0.054    -0.050  0.4970  0.8677 -0.0011
              Bcc     0.0121     1.628     0.581     0.543  0.8677 -0.4970 -0.0016
 
              Baa    -0.2101   -28.196   -10.061    -9.405  0.9951  0.0989  0.0000
     2 C(13)  Bbb    -0.1973   -26.480    -9.449    -8.833 -0.0989  0.9951 -0.0003
              Bcc     0.4074    54.676    19.510    18.238 -0.0001  0.0003  1.0000
 
              Baa    -0.1088   -14.598    -5.209    -4.869  0.9069 -0.4214  0.0004
     3 C(13)  Bbb    -0.0978   -13.128    -4.685    -4.379  0.4214  0.9069  0.0001
              Bcc     0.2066    27.726     9.893     9.248 -0.0004  0.0000  1.0000
 
              Baa    -0.0289    -3.883    -1.386    -1.295  0.5352  0.8447  0.0010
     4 C(13)  Bbb    -0.0144    -1.927    -0.688    -0.643  0.8447 -0.5352 -0.0010
              Bcc     0.0433     5.810     2.073     1.938  0.0003 -0.0014  1.0000
 
              Baa    -0.2273   -30.507   -10.886   -10.176  0.9249  0.3803  0.0000
     5 C(13)  Bbb    -0.2157   -28.950   -10.330    -9.657 -0.3803  0.9249  0.0001
              Bcc     0.4431    59.457    21.216    19.833  0.0000 -0.0001  1.0000
 
              Baa    -0.0613    -8.230    -2.937    -2.745  0.7206 -0.6933  0.0000
     6 C(13)  Bbb    -0.0508    -6.816    -2.432    -2.273  0.6933  0.7206  0.0003
              Bcc     0.1121    15.046     5.369     5.019 -0.0002 -0.0002  1.0000
 
              Baa    -0.0048    -2.570    -0.917    -0.857  0.0000 -0.0002  1.0000
     7 H(1)   Bbb    -0.0005    -0.272    -0.097    -0.091  0.7754 -0.6315 -0.0001
              Bcc     0.0053     2.842     1.014     0.948  0.6315  0.7754  0.0001
 
              Baa    -0.0303   -16.178    -5.773    -5.396  0.9512  0.3085 -0.0003
     8 H(1)   Bbb    -0.0002    -0.129    -0.046    -0.043  0.0000  0.0010  1.0000
              Bcc     0.0306    16.306     5.819     5.439 -0.3085  0.9512 -0.0009
 
              Baa    -0.0322   -17.196    -6.136    -5.736  0.9574  0.2888 -0.0001
     9 H(1)   Bbb     0.0000    -0.005    -0.002    -0.002  0.0001 -0.0002  1.0000
              Bcc     0.0322    17.201     6.138     5.738 -0.2888  0.9574  0.0003
 
              Baa    -0.0107     0.776     0.277     0.259 -0.5751  0.8181 -0.0052
    10 O(17)  Bbb    -0.0041     0.296     0.106     0.099  0.8181  0.5751  0.0024
              Bcc     0.0148    -1.073    -0.383    -0.358 -0.0049  0.0029  1.0000
 
              Baa    -0.0480     3.472     1.239     1.158  0.7042  0.7099 -0.0023
    11 O(17)  Bbb    -0.0409     2.957     1.055     0.986  0.7100 -0.7042  0.0039
              Bcc     0.0888    -6.428    -2.294    -2.144 -0.0012  0.0044  1.0000
 
              Baa    -0.0045    -2.381    -0.850    -0.794 -0.0015  0.0014  1.0000
    12 H(1)   Bbb    -0.0028    -1.469    -0.524    -0.490 -0.5829  0.8125 -0.0020
              Bcc     0.0072     3.851     1.374     1.284  0.8125  0.5829  0.0004
 
              Baa    -0.0052    -2.774    -0.990    -0.925  0.0022  0.0063  1.0000
    13 H(1)   Bbb    -0.0027    -1.415    -0.505    -0.472  0.6233  0.7820 -0.0063
              Bcc     0.0079     4.190     1.495     1.397  0.7820 -0.6233  0.0022
 
              Baa    -0.0061    -0.822    -0.293    -0.274  0.0329  0.9995 -0.0033
    14 C(13)  Bbb     0.0022     0.290     0.103     0.097  0.0030  0.0032  1.0000
              Bcc     0.0040     0.532     0.190     0.178  0.9995 -0.0330 -0.0029
 
              Baa    -0.0042    -2.263    -0.807    -0.755 -0.2791 -0.0285  0.9598
    15 H(1)   Bbb    -0.0026    -1.398    -0.499    -0.466  0.2615  0.9595  0.1045
              Bcc     0.0069     3.660     1.306     1.221  0.9240 -0.2801  0.2603
 
              Baa    -0.0042    -2.261    -0.807    -0.754  0.2784  0.0285  0.9600
    16 H(1)   Bbb    -0.0026    -1.400    -0.499    -0.467  0.2620  0.9594 -0.1045
              Bcc     0.0069     3.661     1.306     1.221  0.9240 -0.2806 -0.2596
 
              Baa    -0.0039    -2.101    -0.750    -0.701 -0.1930  0.9812  0.0003
    17 H(1)   Bbb    -0.0024    -1.302    -0.464    -0.434  0.0007 -0.0001  1.0000
              Bcc     0.0064     3.402     1.214     1.135  0.9812  0.1930 -0.0007
 

 ---------------------------------------------------------------------------------

 No NMR shielding tensors so no spin-rotation constants.
 Leave Link  601 at Wed Dec 03 16:45:59 2025, MaxMem=   104857600 cpu:               0.0 elap:               0.2
 (Enter D:\Gaussian\G16W\l9999.exe)
 1|1|UNPC-PC-20250526LCFF|SP|UB3LYP|6-31G(d)|C7H8O2(1-,2)|ADMINISTRATOR
 |03-Dec-2025|0||#P B3LYP/6-31G* SCF=conver=7 out=wfn||Generated by Mul
 tiwfn (http://sobereva.com/multiwfn)||-1,2|C,0,1.131145,1.295505,-0.00
 0078|C,0,-0.23759,1.579354,-0.000048|C,0,-1.158979,0.54513,-0.000005|C
 ,0,-0.718033,-0.78772,0.000014|C,0,0.64304,-1.057438,0.000014|C,0,1.58
 7154,-0.021886,-0.000018|H,0,1.842312,2.113769,-0.000137|H,0,-0.582847
 ,2.609352,-0.000052|H,0,0.954928,-2.096201,-0.000003|O,0,-1.618466,-1.
 810532,0.000009|O,0,-2.528903,0.707021,0.000075|H,0,-2.502256,-1.42117
 3,-0.000206|H,0,-2.747416,1.643496,-0.001093|C,0,3.063355,-0.342012,0.
 00015|H,0,3.344305,-0.926404,0.882146|H,0,3.343907,-0.929275,-0.880048
 |H,0,3.665466,0.56893,-0.001447||Version=EM64W-G16RevA.03|State=2-A|HF
 =-421.9145665|S2=0.756595|S2-1=0.|S2A=0.750022|RMSD=1.062e-008|Dipole=
 -0.8091131,0.5810935,-0.0008902|Quadrupole=-1.2563366,-0.5779453,1.834
 2819,-2.4212656,0.00438,-0.0020802|PG=C01 [X(C7H8O2)]||@

 Writing a WFN file to "N+1.wfn"


 AN OPTIMIST IS A GUY
 THAT HAS NEVER HAD
 MUCH EXPERIENCE
   (CERTAIN MAXIMS OF ARCHY  -- DON MARQUIS)
 Job cpu time:       0 days  0 hours  0 minutes 43.0 seconds.
 Elapsed time:       0 days  0 hours  0 minutes 42.9 seconds.
 File lengths (MBytes):  RWF=     27 Int=      0 D2E=      0 Chk=      3 Scr=      1
 Normal termination of Gaussian 16 at Wed Dec 03 16:45:59 2025.
