 Entering Link 1 = D:\Gaussian\G16W\l1.exe PID=     42988.
  
 Copyright (c) 1988,1990,1992,1993,1995,1998,2003,2009,2016,
            Gaussian, Inc.  All Rights Reserved.
  
 This is part of the Gaussian(R) 16 program.  It is based on
 the Gaussian(R) 09 system (copyright 2009, Gaussian, Inc.),
 the Gaussian(R) 03 system (copyright 2003, Gaussian, Inc.),
 the Gaussian(R) 98 system (copyright 1998, Gaussian, Inc.),
 the Gaussian(R) 94 system (copyright 1995, Gaussian, Inc.),
 the Gaussian 92(TM) system (copyright 1992, Gaussian, Inc.),
 the Gaussian 90(TM) system (copyright 1990, Gaussian, Inc.),
 the Gaussian 88(TM) system (copyright 1988, Gaussian, Inc.),
 the Gaussian 86(TM) system (copyright 1986, Carnegie Mellon
 University), and the Gaussian 82(TM) system (copyright 1983,
 Carnegie Mellon University). Gaussian is a federally registered
 trademark of Gaussian, Inc.
  
 This software contains proprietary and confidential information,
 including trade secrets, belonging to Gaussian, Inc.
  
 This software is provided under written license and may be
 used, copied, transmitted, or stored only in accord with that
 written license.
  
 The following legend is applicable only to US Government
 contracts under FAR:
  
                    RESTRICTED RIGHTS LEGEND
  
 Use, reproduction and disclosure by the US Government is
 subject to restrictions as set forth in subparagraphs (a)
 and (c) of the Commercial Computer Software - Restricted
 Rights clause in FAR 52.227-19.
  
 Gaussian, Inc.
 340 Quinnipiac St., Bldg. 40, Wallingford CT 06492
  
  
 ---------------------------------------------------------------
 Warning -- This program may not be used in any manner that
 competes with the business of Gaussian, Inc. or will provide
 assistance to any competitor of Gaussian, Inc.  The licensee
 of this program is prohibited from giving any competitor of
 Gaussian, Inc. access to this program.  By using this program,
 the user acknowledges that Gaussian, Inc. is engaged in the
 business of creating and licensing software in the field of
 computational chemistry and represents and warrants to the
 licensee that it is not a competitor of Gaussian, Inc. and that
 it will not use this program in any manner prohibited above.
 ---------------------------------------------------------------
  

 Cite this work as:
 Gaussian 16, Revision A.03,
 M. J. Frisch, G. W. Trucks, H. B. Schlegel, G. E. Scuseria, 
 M. A. Robb, J. R. Cheeseman, G. Scalmani, V. Barone, 
 G. A. Petersson, H. Nakatsuji, X. Li, M. Caricato, A. V. Marenich, 
 J. Bloino, B. G. Janesko, R. Gomperts, B. Mennucci, H. P. Hratchian, 
 J. V. Ortiz, A. F. Izmaylov, J. L. Sonnenberg, D. Williams-Young, 
 F. Ding, F. Lipparini, F. Egidi, J. Goings, B. Peng, A. Petrone, 
 T. Henderson, D. Ranasinghe, V. G. Zakrzewski, J. Gao, N. Rega, 
 G. Zheng, W. Liang, M. Hada, M. Ehara, K. Toyota, R. Fukuda, 
 J. Hasegawa, M. Ishida, T. Nakajima, Y. Honda, O. Kitao, H. Nakai, 
 T. Vreven, K. Throssell, J. A. Montgomery, Jr., J. E. Peralta, 
 F. Ogliaro, M. J. Bearpark, J. J. Heyd, E. N. Brothers, K. N. Kudin, 
 V. N. Staroverov, T. A. Keith, R. Kobayashi, J. Normand, 
 K. Raghavachari, A. P. Rendell, J. C. Burant, S. S. Iyengar, 
 J. Tomasi, M. Cossi, J. M. Millam, M. Klene, C. Adamo, R. Cammi, 
 J. W. Ochterski, R. L. Martin, K. Morokuma, O. Farkas, 
 J. B. Foresman, and D. J. Fox, Gaussian, Inc., Wallingford CT, 2016.
 
 ******************************************
 Gaussian 16:  EM64W-G16RevA.03 17-Dec-2016
                03-Dec-2025 
 ******************************************
 %nprocs=   4
 Will use up to    4 processors via shared memory.
 ------------------------------------
 #P B3LYP/6-31G* SCF=conver=7 out=wfn
 ------------------------------------
 1/38=1,172=1/1;
 2/12=2,17=6,18=5,40=1/2;
 3/5=1,6=6,7=1,11=2,25=1,30=1,74=-5/1,2,3;
 4//1;
 5/5=2,6=7,38=5/2;
 6/7=2,8=2,9=2,10=2,28=1/1;
 99/5=1,6=100,9=1/99;
 Leave Link    1 at Wed Dec 03 16:46:31 2025, MaxMem=           0 cpu:               0.0 elap:               0.1
 (Enter D:\Gaussian\G16W\l101.exe)
 ----------------------------------------------------
 Generated by Multiwfn (http://sobereva.com/multiwfn)
 ----------------------------------------------------
 Symbolic Z-matrix:
 Charge =  1 Multiplicity = 2
 C                     1.13115   1.29551  -0.00008 
 C                    -0.23759   1.57935  -0.00005 
 C                    -1.15898   0.54513  -0.00001 
 C                    -0.71803  -0.78772   0.00001 
 C                     0.64304  -1.05744   0.00001 
 C                     1.58715  -0.02189  -0.00002 
 H                     1.84231   2.11377  -0.00014 
 H                    -0.58285   2.60935  -0.00005 
 H                     0.95493  -2.0962   0. 
 O                    -1.61847  -1.81053   0.00001 
 O                    -2.5289    0.70702   0.00008 
 H                    -2.50226  -1.42117  -0.00021 
 H                    -2.74742   1.6435   -0.00109 
 C                     3.06336  -0.34201   0.00015 
 H                     3.34431  -0.9264    0.88215 
 H                     3.34391  -0.92928  -0.88005 
 H                     3.66547   0.56893  -0.00145 
 
 ITRead=  0  0  0  0  0  0  0  0  0  0  0  0  0  0  0  0  0
 MicOpt= -1 -1 -1 -1 -1 -1 -1 -1 -1 -1 -1 -1 -1 -1 -1 -1 -1
 NAtoms=     17 NQM=       17 NQMF=       0 NMMI=      0 NMMIF=      0
                NMic=       0 NMicF=      0.
                    Isotopes and Nuclear Properties:
 (Nuclear quadrupole moments (NQMom) in fm**2, nuclear magnetic moments (NMagM)
  in nuclear magnetons)

  Atom         1           2           3           4           5           6           7           8           9          10
 IAtWgt=          12          12          12          12          12          12           1           1           1          16
 AtmWgt=  12.0000000  12.0000000  12.0000000  12.0000000  12.0000000  12.0000000   1.0078250   1.0078250   1.0078250  15.9949146
 NucSpn=           0           0           0           0           0           0           1           1           1           0
 AtZEff=   0.0000000   0.0000000   0.0000000   0.0000000   0.0000000   0.0000000   0.0000000   0.0000000   0.0000000   0.0000000
 NQMom=    0.0000000   0.0000000   0.0000000   0.0000000   0.0000000   0.0000000   0.0000000   0.0000000   0.0000000   0.0000000
 NMagM=    0.0000000   0.0000000   0.0000000   0.0000000   0.0000000   0.0000000   2.7928460   2.7928460   2.7928460   0.0000000
 AtZNuc=   6.0000000   6.0000000   6.0000000   6.0000000   6.0000000   6.0000000   1.0000000   1.0000000   1.0000000   8.0000000

  Atom        11          12          13          14          15          16          17
 IAtWgt=          16           1           1          12           1           1           1
 AtmWgt=  15.9949146   1.0078250   1.0078250  12.0000000   1.0078250   1.0078250   1.0078250
 NucSpn=           0           1           1           0           1           1           1
 AtZEff=   0.0000000   0.0000000   0.0000000   0.0000000   0.0000000   0.0000000   0.0000000
 NQMom=    0.0000000   0.0000000   0.0000000   0.0000000   0.0000000   0.0000000   0.0000000
 NMagM=    0.0000000   2.7928460   2.7928460   0.0000000   2.7928460   2.7928460   2.7928460
 AtZNuc=   8.0000000   1.0000000   1.0000000   6.0000000   1.0000000   1.0000000   1.0000000
 Leave Link  101 at Wed Dec 03 16:46:31 2025, MaxMem=   104857600 cpu:               0.0 elap:               0.1
 (Enter D:\Gaussian\G16W\l202.exe)
                          Input orientation:                          
 ---------------------------------------------------------------------
 Center     Atomic      Atomic             Coordinates (Angstroms)
 Number     Number       Type             X           Y           Z
 ---------------------------------------------------------------------
      1          6           0        1.131145    1.295505   -0.000078
      2          6           0       -0.237590    1.579354   -0.000048
      3          6           0       -1.158979    0.545130   -0.000005
      4          6           0       -0.718033   -0.787720    0.000014
      5          6           0        0.643040   -1.057438    0.000014
      6          6           0        1.587154   -0.021886   -0.000018
      7          1           0        1.842312    2.113769   -0.000137
      8          1           0       -0.582847    2.609352   -0.000052
      9          1           0        0.954928   -2.096201   -0.000003
     10          8           0       -1.618466   -1.810532    0.000009
     11          8           0       -2.528903    0.707021    0.000075
     12          1           0       -2.502256   -1.421173   -0.000206
     13          1           0       -2.747416    1.643496   -0.001093
     14          6           0        3.063355   -0.342012    0.000150
     15          1           0        3.344305   -0.926404    0.882146
     16          1           0        3.343907   -0.929275   -0.880048
     17          1           0        3.665466    0.568930   -0.001447
 ---------------------------------------------------------------------
                    Distance matrix (angstroms):
                    1          2          3          4          5
     1  C    0.000000
     2  C    1.397858   0.000000
     3  C    2.409923   1.385127   0.000000
     4  C    2.785549   2.415339   1.403895   0.000000
     5  C    2.403037   2.779961   2.411534   1.387540   0.000000
     6  C    1.394082   2.427686   2.804060   2.429072   1.401328
     7  H    1.084119   2.147462   3.386499   3.869626   3.390399
     8  H    2.159621   1.086323   2.143115   3.399761   3.866283
     9  H    3.396281   3.864169   3.383080   2.123893   1.084575
    10  O    4.148232   3.660348   2.400057   1.362690   2.383602
    11  O    3.707056   2.451750   1.379457   2.348084   3.629675
    12  H    4.536733   3.759239   2.381332   1.893334   3.166258
    13  H    3.894141   2.510646   1.931202   3.166892   4.334771
    14  C    2.532765   3.819409   4.314525   3.807565   2.523838
    15  H    3.257802   4.459491   4.819042   4.159324   2.844672
    16  H    3.258882   4.460352   4.819163   4.158594   2.843522
    17  H    2.636417   4.031725   4.824504   4.588634   3.432220
                    6          7          8          9         10
     6  C    0.000000
     7  H    2.150844   0.000000
     8  H    3.410618   2.475277   0.000000
     9  H    2.168523   4.302476   4.950453   0.000000
    10  O    3.670866   5.232315   4.539590   2.589201   0.000000
    11  O    4.180099   4.592000   2.721396   4.471592   2.677119
    12  H    4.322184   5.600990   4.464220   3.522468   0.965756
    13  H    4.643490   4.613758   2.370282   5.262384   3.633846
    14  C    1.510513   2.742591   4.690985   2.742744   4.906730
    15  H    2.164243   3.503863   5.357459   2.802808   5.117513
    16  H    2.164252   3.505588   5.358700   2.800610   5.116274
    17  H    2.160659   2.389648   4.712906   3.801308   5.794979
                   11         12         13         14         15
    11  O    0.000000
    12  H    2.128361   0.000000
    13  H    0.961631   3.074459   0.000000
    14  C    5.689800   5.669269   6.140627   0.000000
    15  H    6.159602   5.933432   6.670349   1.094698   0.000000
    16  H    6.159706   5.932428   6.670527   1.094685   1.762196
    17  H    6.195908   6.480841   6.502288   1.091950   1.766325
                   16         17
    16  H    0.000000
    17  H    1.766340   0.000000
 Stoichiometry    C7H8O2(1+,2)
 Framework group  C1[X(C7H8O2)]
 Deg. of freedom    45
 Full point group                 C1      NOp   1
 Largest Abelian subgroup         C1      NOp   1
 Largest concise Abelian subgroup C1      NOp   1
                         Standard orientation:                         
 ---------------------------------------------------------------------
 Center     Atomic      Atomic             Coordinates (Angstroms)
 Number     Number       Type             X           Y           Z
 ---------------------------------------------------------------------
      1          6           0        1.131145    1.295505   -0.000078
      2          6           0       -0.237590    1.579354   -0.000048
      3          6           0       -1.158979    0.545130   -0.000005
      4          6           0       -0.718033   -0.787720    0.000014
      5          6           0        0.643040   -1.057438    0.000014
      6          6           0        1.587154   -0.021886   -0.000018
      7          1           0        1.842312    2.113769   -0.000137
      8          1           0       -0.582847    2.609352   -0.000052
      9          1           0        0.954928   -2.096201   -0.000003
     10          8           0       -1.618466   -1.810532    0.000009
     11          8           0       -2.528903    0.707021    0.000075
     12          1           0       -2.502256   -1.421173   -0.000206
     13          1           0       -2.747416    1.643496   -0.001093
     14          6           0        3.063355   -0.342012    0.000150
     15          1           0        3.344305   -0.926404    0.882146
     16          1           0        3.343907   -0.929275   -0.880048
     17          1           0        3.665466    0.568930   -0.001447
 ---------------------------------------------------------------------
 Rotational constants (GHZ):           3.1506510           1.3084430           0.9298267
 Leave Link  202 at Wed Dec 03 16:46:31 2025, MaxMem=   104857600 cpu:               0.0 elap:               0.0
 (Enter D:\Gaussian\G16W\l301.exe)
 Standard basis: 6-31G(d) (6D, 7F)
 Ernie: Thresh=  0.10000D-02 Tol=  0.10000D-05 Strict=F.
 There are   151 symmetry adapted cartesian basis functions of A   symmetry.
 There are   151 symmetry adapted basis functions of A   symmetry.
   151 basis functions,   284 primitive gaussians,   151 cartesian basis functions
    33 alpha electrons       32 beta electrons
       nuclear repulsion energy       428.8992630119 Hartrees.
 IExCor=  402 DFT=T Ex+Corr=B3LYP ExCW=0 ScaHFX=  0.200000
 ScaDFX=  0.800000  0.720000  1.000000  0.810000 ScalE2=  1.000000  1.000000
 IRadAn=      5 IRanWt=     -1 IRanGd=            0 ICorTp=0 IEmpDi=  4
 NAtoms=   17 NActive=   17 NUniq=   17 SFac= 1.00D+00 NAtFMM=   60 NAOKFM=F Big=F
 Integral buffers will be    131072 words long.
 Raffenetti 2 integral format.
 Two-electron integral symmetry is turned on.
 Leave Link  301 at Wed Dec 03 16:46:31 2025, MaxMem=   104857600 cpu:               0.0 elap:               0.1
 (Enter D:\Gaussian\G16W\l302.exe)
 NPDir=0 NMtPBC=     1 NCelOv=     1 NCel=       1 NClECP=     1 NCelD=      1
         NCelK=      1 NCelE2=     1 NClLst=     1 CellRange=     0.0.
 One-electron integrals computed using PRISM.
 One-electron integral symmetry used in STVInt
 NBasis=   151 RedAO= T EigKep=  3.83D-04  NBF=   151
 NBsUse=   151 1.00D-06 EigRej= -1.00D+00 NBFU=   151
 Precomputing XC quadrature grid using
 IXCGrd= 4 IRadAn=           5 IRanWt=          -1 IRanGd=           0 AccXCQ= 0.00D+00.
 Generated NRdTot=       0 NPtTot=           0 NUsed=           0 NTot=          32
 NSgBfM=   151   151   151   151   151 MxSgAt=    17 MxSgA2=    17.
 Leave Link  302 at Wed Dec 03 16:46:32 2025, MaxMem=   104857600 cpu:               1.0 elap:               0.4
 (Enter D:\Gaussian\G16W\l303.exe)
 DipDrv:  MaxL=1.
 Leave Link  303 at Wed Dec 03 16:46:32 2025, MaxMem=   104857600 cpu:               0.0 elap:               0.1
 (Enter D:\Gaussian\G16W\l401.exe)
 ExpMin= 1.61D-01 ExpMax= 5.48D+03 ExpMxC= 8.25D+02 IAcc=3 IRadAn=         5 AccDes= 0.00D+00
 Harris functional with IExCor=  402 and IRadAn=       5 diagonalized for initial guess.
 HarFok:  IExCor=  402 AccDes= 0.00D+00 IRadAn=         5 IDoV= 1 UseB2=F ITyADJ=14
 ICtDFT=  3500011 ScaDFX=  1.000000  1.000000  1.000000  1.000000
 FoFCou: FMM=F IPFlag=           0 FMFlag=      100000 FMFlg1=           0
         NFxFlg=           0 DoJE=T BraDBF=F KetDBF=T FulRan=T
         wScrn=  0.000000 ICntrl=       500 IOpCl=  0 I1Cent=   200000004 NGrid=           0
         NMat0=    1 NMatS0=      1 NMatT0=    0 NMatD0=    1 NMtDS0=    0 NMtDT0=    0
 Petite list used in FoFCou.
 Harris En= -421.749785627299    
 JPrj=0 DoOrth=F DoCkMO=F.
 Initial guess <Sx>= 0.0000 <Sy>= 0.0000 <Sz>= 0.5000 <S**2>= 0.7500 S= 0.5000
 Leave Link  401 at Wed Dec 03 16:46:33 2025, MaxMem=   104857600 cpu:               1.0 elap:               0.9
 (Enter D:\Gaussian\G16W\l502.exe)
 Integral symmetry usage will be decided dynamically.
 UHF open shell SCF:
 Using DIIS extrapolation, IDIIS=  1040.
 NGot=   104857600 LenX=   104809284 LenY=   104786042
 Requested convergence on RMS density matrix=1.00D-07 within 128 cycles.
 Requested convergence on MAX density matrix=1.00D-05.
 Requested convergence on             energy=1.00D-05.
 No special actions if energy rises.
 Fock matrices will be formed incrementally for  20 cycles.
 Integral accuracy reduced to 1.0D-05 until final iterations.

 Cycle   1  Pass 0  IDiag  1:
 FoFJK:  IHMeth= 1 ICntrl=       0 DoSepK=F KAlg= 0 I1Cent=           0 FoldK=F
 IRaf= 940000000 NMat=       1 IRICut=       1 DoRegI=T DoRafI=F ISym2E= 0 IDoP0=0 IntGTp=1.
 FoFCou: FMM=F IPFlag=           0 FMFlag=      100000 FMFlg1=           0
         NFxFlg=           0 DoJE=F BraDBF=F KetDBF=F FulRan=T
         wScrn=  0.000000 ICntrl=         0 IOpCl=  1 I1Cent=           0 NGrid=           0
         NMat0=    1 NMatS0=      1 NMatT0=    0 NMatD0=    1 NMtDS0=    0 NMtDT0=    0
 Symmetry not used in FoFCou.
 E= -421.544096773565    
 DIIS: error= 3.18D-02 at cycle   1 NSaved=   1.
 NSaved= 1 IEnMin= 1 EnMin= -421.544096773565     IErMin= 1 ErrMin= 3.18D-02
 ErrMax= 3.18D-02  0.00D+00 EMaxC= 1.00D-01 BMatC= 7.25D-01 BMatP= 7.25D-01
 IDIUse=3 WtCom= 6.82D-01 WtEn= 3.18D-01
 Coeff-Com:  0.100D+01
 Coeff-En:   0.100D+01
 Coeff:      0.100D+01
 Gap=     0.247 Goal=   None    Shift=    0.000
 Gap=     0.024 Goal=   None    Shift=    0.000
 GapD=    0.024 DampG=0.250 DampE=0.500 DampFc=0.2500 IDamp=-1.
 Damping current iteration by 2.50D-01
 RMSDP=6.05D-03 MaxDP=1.31D-01              OVMax= 3.60D-01

 Cycle   2  Pass 0  IDiag  1:
 RMSU=  1.49D-03    CP:  9.90D-01
 E= -421.605289664202     Delta-E=       -0.061192890637 Rises=F Damp=T
 DIIS: error= 1.65D-02 at cycle   2 NSaved=   2.
 NSaved= 2 IEnMin= 2 EnMin= -421.605289664202     IErMin= 2 ErrMin= 1.65D-02
 ErrMax= 1.65D-02  0.00D+00 EMaxC= 1.00D-01 BMatC= 1.85D-01 BMatP= 7.25D-01
 IDIUse=3 WtCom= 8.35D-01 WtEn= 1.65D-01
 Coeff-Com: -0.728D+00 0.173D+01
 Coeff-En:   0.000D+00 0.100D+01
 Coeff:     -0.608D+00 0.161D+01
 Gap=     0.259 Goal=   None    Shift=    0.000
 Gap=     0.055 Goal=   None    Shift=    0.000
 RMSDP=2.45D-03 MaxDP=4.31D-02 DE=-6.12D-02 OVMax= 3.39D-01

 Cycle   3  Pass 0  IDiag  1:
 RMSU=  2.22D-03    CP:  9.69D-01  1.59D+00
 E= -421.693808492651     Delta-E=       -0.088518828449 Rises=F Damp=F
 DIIS: error= 1.38D-02 at cycle   3 NSaved=   3.
 NSaved= 3 IEnMin= 3 EnMin= -421.693808492651     IErMin= 3 ErrMin= 1.38D-02
 ErrMax= 1.38D-02  0.00D+00 EMaxC= 1.00D-01 BMatC= 9.00D-02 BMatP= 1.85D-01
 IDIUse=3 WtCom= 8.62D-01 WtEn= 1.38D-01
 Coeff-Com: -0.442D+00 0.977D+00 0.465D+00
 Coeff-En:   0.000D+00 0.000D+00 0.100D+01
 Coeff:     -0.381D+00 0.842D+00 0.539D+00
 Gap=     0.241 Goal=   None    Shift=    0.000
 Gap=     0.068 Goal=   None    Shift=    0.000
 RMSDP=1.53D-03 MaxDP=3.69D-02 DE=-8.85D-02 OVMax= 1.49D-01

 Cycle   4  Pass 0  IDiag  1:
 RMSU=  9.51D-04    CP:  9.73D-01  1.90D+00  5.01D-01
 E= -421.711206956227     Delta-E=       -0.017398463576 Rises=F Damp=F
 DIIS: error= 7.41D-03 at cycle   4 NSaved=   4.
 NSaved= 4 IEnMin= 4 EnMin= -421.711206956227     IErMin= 4 ErrMin= 7.41D-03
 ErrMax= 7.41D-03  0.00D+00 EMaxC= 1.00D-01 BMatC= 2.91D-02 BMatP= 9.00D-02
 IDIUse=3 WtCom= 9.26D-01 WtEn= 7.41D-02
 Coeff-Com: -0.109D+00 0.234D+00 0.358D+00 0.518D+00
 Coeff-En:   0.000D+00 0.000D+00 0.281D+00 0.719D+00
 Coeff:     -0.101D+00 0.216D+00 0.352D+00 0.533D+00
 Gap=     0.233 Goal=   None    Shift=    0.000
 Gap=     0.071 Goal=   None    Shift=    0.000
 RMSDP=6.67D-04 MaxDP=2.02D-02 DE=-1.74D-02 OVMax= 7.22D-02

 Cycle   5  Pass 0  IDiag  1:
 RMSU=  3.08D-04    CP:  9.73D-01  1.76D+00  6.82D-01  6.02D-01
 E= -421.718494619625     Delta-E=       -0.007287663398 Rises=F Damp=F
 DIIS: error= 2.42D-03 at cycle   5 NSaved=   5.
 NSaved= 5 IEnMin= 5 EnMin= -421.718494619625     IErMin= 5 ErrMin= 2.42D-03
 ErrMax= 2.42D-03  0.00D+00 EMaxC= 1.00D-01 BMatC= 3.04D-03 BMatP= 2.91D-02
 IDIUse=3 WtCom= 9.76D-01 WtEn= 2.42D-02
 Coeff-Com: -0.115D-01 0.260D-01 0.165D+00 0.346D+00 0.474D+00
 Coeff-En:   0.000D+00 0.000D+00 0.000D+00 0.440D-01 0.956D+00
 Coeff:     -0.112D-01 0.253D-01 0.161D+00 0.339D+00 0.486D+00
 Gap=     0.233 Goal=   None    Shift=    0.000
 Gap=     0.074 Goal=   None    Shift=    0.000
 RMSDP=2.13D-04 MaxDP=7.29D-03 DE=-7.29D-03 OVMax= 1.49D-02

 Cycle   6  Pass 0  IDiag  1:
 RMSU=  1.25D-04    CP:  9.72D-01  1.77D+00  6.64D-01  6.73D-01  5.13D-01
 E= -421.719215982108     Delta-E=       -0.000721362483 Rises=F Damp=F
 DIIS: error= 5.90D-04 at cycle   6 NSaved=   6.
 NSaved= 6 IEnMin= 6 EnMin= -421.719215982108     IErMin= 6 ErrMin= 5.90D-04
 ErrMax= 5.90D-04  0.00D+00 EMaxC= 1.00D-01 BMatC= 1.88D-04 BMatP= 3.04D-03
 IDIUse=3 WtCom= 9.94D-01 WtEn= 5.90D-03
 Coeff-Com:  0.171D-02-0.501D-02 0.383D-01 0.975D-01 0.241D+00 0.626D+00
 Coeff-En:   0.000D+00 0.000D+00 0.000D+00 0.000D+00 0.000D+00 0.100D+01
 Coeff:      0.170D-02-0.498D-02 0.381D-01 0.969D-01 0.240D+00 0.628D+00
 Gap=     0.233 Goal=   None    Shift=    0.000
 Gap=     0.075 Goal=   None    Shift=    0.000
 RMSDP=6.24D-05 MaxDP=3.16D-03 DE=-7.21D-04 OVMax= 7.80D-03

 Cycle   7  Pass 0  IDiag  1:
 RMSU=  5.34D-05    CP:  9.72D-01  1.77D+00  6.69D-01  6.72D-01  6.02D-01
                    CP:  8.95D-01
 E= -421.719264212440     Delta-E=       -0.000048230331 Rises=F Damp=F
 DIIS: error= 3.01D-04 at cycle   7 NSaved=   7.
 NSaved= 7 IEnMin= 7 EnMin= -421.719264212440     IErMin= 7 ErrMin= 3.01D-04
 ErrMax= 3.01D-04  0.00D+00 EMaxC= 1.00D-01 BMatC= 4.84D-05 BMatP= 1.88D-04
 IDIUse=3 WtCom= 9.97D-01 WtEn= 3.01D-03
 Coeff-Com:  0.422D-02-0.978D-02-0.171D-01-0.274D-01 0.304D-01 0.371D+00
 Coeff-Com:  0.648D+00
 Coeff-En:   0.000D+00 0.000D+00 0.000D+00 0.000D+00 0.000D+00 0.000D+00
 Coeff-En:   0.100D+01
 Coeff:      0.421D-02-0.975D-02-0.171D-01-0.273D-01 0.303D-01 0.370D+00
 Coeff:      0.649D+00
 Gap=     0.233 Goal=   None    Shift=    0.000
 Gap=     0.076 Goal=   None    Shift=    0.000
 RMSDP=3.30D-05 MaxDP=1.32D-03 DE=-4.82D-05 OVMax= 2.30D-03

 Cycle   8  Pass 0  IDiag  1:
 RMSU=  2.34D-05    CP:  9.72D-01  1.77D+00  6.70D-01  6.79D-01  6.45D-01
                    CP:  1.03D+00  9.28D-01
 E= -421.719281757351     Delta-E=       -0.000017544911 Rises=F Damp=F
 DIIS: error= 9.67D-05 at cycle   8 NSaved=   8.
 NSaved= 8 IEnMin= 8 EnMin= -421.719281757351     IErMin= 8 ErrMin= 9.67D-05
 ErrMax= 9.67D-05  0.00D+00 EMaxC= 1.00D-01 BMatC= 4.48D-06 BMatP= 4.84D-05
 IDIUse=1 WtCom= 1.00D+00 WtEn= 0.00D+00
 Coeff-Com:  0.843D-03-0.156D-02-0.133D-01-0.306D-01-0.467D-01-0.614D-02
 Coeff-Com:  0.190D+00 0.908D+00
 Coeff:      0.843D-03-0.156D-02-0.133D-01-0.306D-01-0.467D-01-0.614D-02
 Coeff:      0.190D+00 0.908D+00
 Gap=     0.233 Goal=   None    Shift=    0.000
 Gap=     0.076 Goal=   None    Shift=    0.000
 RMSDP=2.40D-05 MaxDP=8.20D-04 DE=-1.75D-05 OVMax= 4.31D-03

 Cycle   9  Pass 0  IDiag  1:
 RMSU=  1.33D-05    CP:  9.72D-01  1.77D+00  6.71D-01  6.80D-01  6.69D-01
                    CP:  1.11D+00  1.20D+00  1.26D+00
 E= -421.719285606604     Delta-E=       -0.000003849253 Rises=F Damp=F
 DIIS: error= 8.99D-05 at cycle   9 NSaved=   9.
 NSaved= 9 IEnMin= 9 EnMin= -421.719285606604     IErMin= 9 ErrMin= 8.99D-05
 ErrMax= 8.99D-05  0.00D+00 EMaxC= 1.00D-01 BMatC= 5.38D-06 BMatP= 4.48D-06
 IDIUse=1 WtCom= 1.00D+00 WtEn= 0.00D+00
 Coeff-Com: -0.221D-03 0.839D-03-0.560D-02-0.158D-01-0.429D-01-0.820D-01
 Coeff-Com: -0.218D-01 0.685D+00 0.483D+00
 Coeff:     -0.221D-03 0.839D-03-0.560D-02-0.158D-01-0.429D-01-0.820D-01
 Coeff:     -0.218D-01 0.685D+00 0.483D+00
 Gap=     0.233 Goal=   None    Shift=    0.000
 Gap=     0.076 Goal=   None    Shift=    0.000
 RMSDP=1.02D-05 MaxDP=3.93D-04 DE=-3.85D-06 OVMax= 1.28D-03

 Cycle  10  Pass 0  IDiag  1:
 RMSU=  5.98D-06    CP:  9.72D-01  1.77D+00  6.71D-01  6.81D-01  6.73D-01
                    CP:  1.15D+00  1.28D+00  1.48D+00  9.43D-01
 E= -421.719287375840     Delta-E=       -0.000001769236 Rises=F Damp=F
 DIIS: error= 3.81D-05 at cycle  10 NSaved=  10.
 NSaved=10 IEnMin=10 EnMin= -421.719287375840     IErMin=10 ErrMin= 3.81D-05
 ErrMax= 3.81D-05  0.00D+00 EMaxC= 1.00D-01 BMatC= 4.32D-07 BMatP= 4.48D-06
 IDIUse=1 WtCom= 1.00D+00 WtEn= 0.00D+00
 Coeff-Com:  0.797D-04 0.636D-04 0.112D-02 0.208D-02-0.398D-02-0.105D-01
 Coeff-Com: -0.581D-01 0.593D-01 0.109D-01 0.999D+00
 Coeff:      0.797D-04 0.636D-04 0.112D-02 0.208D-02-0.398D-02-0.105D-01
 Coeff:     -0.581D-01 0.593D-01 0.109D-01 0.999D+00
 Gap=     0.233 Goal=   None    Shift=    0.000
 Gap=     0.076 Goal=   None    Shift=    0.000
 RMSDP=8.47D-06 MaxDP=2.29D-04 DE=-1.77D-06 OVMax= 1.64D-03

 Initial convergence to 1.0D-05 achieved.  Increase integral accuracy.
 Cycle  11  Pass 1  IDiag  1:
 E= -421.719279000603     Delta-E=        0.000008375237 Rises=F Damp=F
 DIIS: error= 2.51D-05 at cycle   1 NSaved=   1.
 NSaved= 1 IEnMin= 1 EnMin= -421.719279000603     IErMin= 1 ErrMin= 2.51D-05
 ErrMax= 2.51D-05  0.00D+00 EMaxC= 1.00D-01 BMatC= 3.35D-07 BMatP= 3.35D-07
 IDIUse=1 WtCom= 1.00D+00 WtEn= 0.00D+00
 Coeff-Com:  0.100D+01
 Coeff:      0.100D+01
 Gap=     0.233 Goal=   None    Shift=    0.000
 Gap=     0.076 Goal=   None    Shift=    0.000
 RMSDP=8.47D-06 MaxDP=2.29D-04 DE= 8.38D-06 OVMax= 7.33D-04

 Cycle  12  Pass 1  IDiag  1:
 RMSU=  6.65D-06    CP:  1.00D+00
 E= -421.719279173324     Delta-E=       -0.000000172721 Rises=F Damp=F
 DIIS: error= 3.49D-05 at cycle   2 NSaved=   2.
 NSaved= 2 IEnMin= 2 EnMin= -421.719279173324     IErMin= 1 ErrMin= 2.51D-05
 ErrMax= 3.49D-05  0.00D+00 EMaxC= 1.00D-01 BMatC= 5.21D-07 BMatP= 3.35D-07
 IDIUse=1 WtCom= 1.00D+00 WtEn= 0.00D+00
 Coeff-Com:  0.567D+00 0.433D+00
 Coeff:      0.567D+00 0.433D+00
 Gap=     0.233 Goal=   None    Shift=    0.000
 Gap=     0.076 Goal=   None    Shift=    0.000
 RMSDP=3.24D-06 MaxDP=1.29D-04 DE=-1.73D-07 OVMax= 5.38D-04

 Cycle  13  Pass 1  IDiag  1:
 RMSU=  3.24D-06    CP:  1.00D+00  1.01D+00
 E= -421.719279332684     Delta-E=       -0.000000159360 Rises=F Damp=F
 DIIS: error= 1.57D-05 at cycle   3 NSaved=   3.
 NSaved= 3 IEnMin= 3 EnMin= -421.719279332684     IErMin= 3 ErrMin= 1.57D-05
 ErrMax= 1.57D-05  0.00D+00 EMaxC= 1.00D-01 BMatC= 1.04D-07 BMatP= 3.35D-07
 IDIUse=1 WtCom= 1.00D+00 WtEn= 0.00D+00
 Coeff-Com: -0.242D-01 0.256D+00 0.768D+00
 Coeff:     -0.242D-01 0.256D+00 0.768D+00
 Gap=     0.233 Goal=   None    Shift=    0.000
 Gap=     0.076 Goal=   None    Shift=    0.000
 RMSDP=2.87D-06 MaxDP=7.19D-05 DE=-1.59D-07 OVMax= 5.18D-04

 Cycle  14  Pass 1  IDiag  1:
 RMSU=  1.53D-06    CP:  1.00D+00  1.32D+00  1.39D+00
 E= -421.719279427491     Delta-E=       -0.000000094807 Rises=F Damp=F
 DIIS: error= 8.74D-06 at cycle   4 NSaved=   4.
 NSaved= 4 IEnMin= 4 EnMin= -421.719279427491     IErMin= 4 ErrMin= 8.74D-06
 ErrMax= 8.74D-06  0.00D+00 EMaxC= 1.00D-01 BMatC= 3.11D-08 BMatP= 1.04D-07
 IDIUse=1 WtCom= 1.00D+00 WtEn= 0.00D+00
 Coeff-Com: -0.355D+00 0.105D-01 0.312D+00 0.103D+01
 Coeff:     -0.355D+00 0.105D-01 0.312D+00 0.103D+01
 Gap=     0.233 Goal=   None    Shift=    0.000
 Gap=     0.076 Goal=   None    Shift=    0.000
 RMSDP=3.98D-06 MaxDP=1.23D-04 DE=-9.48D-08 OVMax= 8.16D-04

 Cycle  15  Pass 1  IDiag  1:
 RMSU=  1.15D-06    CP:  1.00D+00  1.73D+00  2.08D+00  1.91D+00
 E= -421.719279503651     Delta-E=       -0.000000076160 Rises=F Damp=F
 DIIS: error= 7.35D-06 at cycle   5 NSaved=   5.
 NSaved= 5 IEnMin= 5 EnMin= -421.719279503651     IErMin= 5 ErrMin= 7.35D-06
 ErrMax= 7.35D-06  0.00D+00 EMaxC= 1.00D-01 BMatC= 1.80D-08 BMatP= 3.11D-08
 IDIUse=1 WtCom= 1.00D+00 WtEn= 0.00D+00
 Coeff-Com: -0.154D+00-0.467D-01-0.310D+00 0.617D+00 0.894D+00
 Coeff:     -0.154D+00-0.467D-01-0.310D+00 0.617D+00 0.894D+00
 Gap=     0.233 Goal=   None    Shift=    0.000
 Gap=     0.076 Goal=   None    Shift=    0.000
 RMSDP=2.61D-06 MaxDP=7.01D-05 DE=-7.62D-08 OVMax= 4.98D-04

 Cycle  16  Pass 1  IDiag  1:
 RMSU=  4.36D-07    CP:  1.00D+00  2.00D+00  2.50D+00  2.75D+00  1.20D+00
 E= -421.719279526108     Delta-E=       -0.000000022457 Rises=F Damp=F
 DIIS: error= 4.44D-06 at cycle   6 NSaved=   6.
 NSaved= 6 IEnMin= 6 EnMin= -421.719279526108     IErMin= 6 ErrMin= 4.44D-06
 ErrMax= 4.44D-06  0.00D+00 EMaxC= 1.00D-01 BMatC= 7.26D-09 BMatP= 1.80D-08
 IDIUse=1 WtCom= 1.00D+00 WtEn= 0.00D+00
 Coeff-Com:  0.550D-02-0.323D-01-0.404D+00 0.177D+00 0.714D+00 0.539D+00
 Coeff:      0.550D-02-0.323D-01-0.404D+00 0.177D+00 0.714D+00 0.539D+00
 Gap=     0.233 Goal=   None    Shift=    0.000
 Gap=     0.076 Goal=   None    Shift=    0.000
 RMSDP=1.12D-06 MaxDP=3.68D-05 DE=-2.25D-08 OVMax= 2.25D-04

 Cycle  17  Pass 1  IDiag  1:
 RMSU=  1.47D-07    CP:  1.00D+00  2.11D+00  2.69D+00  3.00D+00  1.40D+00
                    CP:  5.27D-01
 E= -421.719279529853     Delta-E=       -0.000000003745 Rises=F Damp=F
 DIIS: error= 7.18D-07 at cycle   7 NSaved=   7.
 NSaved= 7 IEnMin= 7 EnMin= -421.719279529853     IErMin= 7 ErrMin= 7.18D-07
 ErrMax= 7.18D-07  0.00D+00 EMaxC= 1.00D-01 BMatC= 3.27D-10 BMatP= 7.26D-09
 IDIUse=1 WtCom= 1.00D+00 WtEn= 0.00D+00
 Coeff-Com:  0.873D-02-0.143D-01-0.216D+00 0.812D-01 0.358D+00 0.321D+00
 Coeff-Com:  0.461D+00
 Coeff:      0.873D-02-0.143D-01-0.216D+00 0.812D-01 0.358D+00 0.321D+00
 Coeff:      0.461D+00
 Gap=     0.233 Goal=   None    Shift=    0.000
 Gap=     0.076 Goal=   None    Shift=    0.000
 RMSDP=7.93D-08 MaxDP=2.25D-06 DE=-3.75D-09 OVMax= 7.59D-06

 SCF Done:  E(UB3LYP) =  -421.719279530     A.U. after   17 cycles
            NFock= 17  Conv=0.79D-07     -V/T= 2.0092
 <Sx>= 0.0000 <Sy>= 0.0000 <Sz>= 0.5000 <S**2>= 0.7615 S= 0.5057
 <L.S>= 0.000000000000E+00
 KE= 4.178668883465D+02 PE=-1.827398205860D+03 EE= 5.589127749716D+02
 Annihilation of the first spin contaminant:
 S**2 before annihilation     0.7615,   after     0.7501
 Leave Link  502 at Wed Dec 03 16:47:02 2025, MaxMem=   104857600 cpu:              29.0 elap:              29.5
 (Enter D:\Gaussian\G16W\l601.exe)
 Copying SCF densities to generalized density rwf, IOpCl= 1 IROHF=0.

 **********************************************************************

            Population analysis using the SCF density.

 **********************************************************************

 Orbital symmetries:
 Alpha Orbitals:
       Occupied  (A) (A) (A) (A) (A) (A) (A) (A) (A) (A) (A) (A)
                 (A) (A) (A) (A) (A) (A) (A) (A) (A) (A) (A) (A)
                 (A) (A) (A) (A) (A) (A) (A) (A) (A)
       Virtual   (A) (A) (A) (A) (A) (A) (A) (A) (A) (A) (A) (A)
                 (A) (A) (A) (A) (A) (A) (A) (A) (A) (A) (A) (A)
                 (A) (A) (A) (A) (A) (A) (A) (A) (A) (A) (A) (A)
                 (A) (A) (A) (A) (A) (A) (A) (A) (A) (A) (A) (A)
                 (A) (A) (A) (A) (A) (A) (A) (A) (A) (A) (A) (A)
                 (A) (A) (A) (A) (A) (A) (A) (A) (A) (A) (A) (A)
                 (A) (A) (A) (A) (A) (A) (A) (A) (A) (A) (A) (A)
                 (A) (A) (A) (A) (A) (A) (A) (A) (A) (A) (A) (A)
                 (A) (A) (A) (A) (A) (A) (A) (A) (A) (A) (A) (A)
                 (A) (A) (A) (A) (A) (A) (A) (A) (A) (A)
 Beta  Orbitals:
       Occupied  (A) (A) (A) (A) (A) (A) (A) (A) (A) (A) (A) (A)
                 (A) (A) (A) (A) (A) (A) (A) (A) (A) (A) (A) (A)
                 (A) (A) (A) (A) (A) (A) (A) (A)
       Virtual   (A) (A) (A) (A) (A) (A) (A) (A) (A) (A) (A) (A)
                 (A) (A) (A) (A) (A) (A) (A) (A) (A) (A) (A) (A)
                 (A) (A) (A) (A) (A) (A) (A) (A) (A) (A) (A) (A)
                 (A) (A) (A) (A) (A) (A) (A) (A) (A) (A) (A) (A)
                 (A) (A) (A) (A) (A) (A) (A) (A) (A) (A) (A) (A)
                 (A) (A) (A) (A) (A) (A) (A) (A) (A) (A) (A) (A)
                 (A) (A) (A) (A) (A) (A) (A) (A) (A) (A) (A) (A)
                 (A) (A) (A) (A) (A) (A) (A) (A) (A) (A) (A) (A)
                 (A) (A) (A) (A) (A) (A) (A) (A) (A) (A) (A) (A)
                 (A) (A) (A) (A) (A) (A) (A) (A) (A) (A) (A)
 The electronic state is 2-A.
 Alpha  occ. eigenvalues --  -19.41315 -19.39953 -10.48552 -10.47820 -10.41249
 Alpha  occ. eigenvalues --  -10.40827 -10.39589 -10.38162 -10.34348  -1.29565
 Alpha  occ. eigenvalues --   -1.26615  -1.07105  -0.97492  -0.95471  -0.87912
 Alpha  occ. eigenvalues --   -0.83472  -0.80984  -0.76108  -0.73253  -0.68504
 Alpha  occ. eigenvalues --   -0.65941  -0.65367  -0.63276  -0.61058  -0.59484
 Alpha  occ. eigenvalues --   -0.59103  -0.58395  -0.55914  -0.54570  -0.53912
 Alpha  occ. eigenvalues --   -0.52505  -0.44033  -0.43551
 Alpha virt. eigenvalues --   -0.20267  -0.20138  -0.12578  -0.08587  -0.05386
 Alpha virt. eigenvalues --   -0.04577  -0.02334  -0.01324  -0.00075   0.01622
 Alpha virt. eigenvalues --    0.03596   0.04373   0.06245   0.07255   0.12435
 Alpha virt. eigenvalues --    0.14719   0.16361   0.18452   0.29163   0.31155
 Alpha virt. eigenvalues --    0.31391   0.32838   0.36529   0.37013   0.37799
 Alpha virt. eigenvalues --    0.39487   0.40727   0.41941   0.42417   0.44524
 Alpha virt. eigenvalues --    0.45990   0.47847   0.52812   0.53383   0.53447
 Alpha virt. eigenvalues --    0.57705   0.58496   0.59703   0.64142   0.67585
 Alpha virt. eigenvalues --    0.68691   0.70624   0.71084   0.73042   0.74774
 Alpha virt. eigenvalues --    0.75770   0.76556   0.80263   0.80317   0.81859
 Alpha virt. eigenvalues --    0.84057   0.86226   0.91134   0.93908   0.98503
 Alpha virt. eigenvalues --    1.01418   1.03367   1.03759   1.10619   1.11027
 Alpha virt. eigenvalues --    1.19035   1.19164   1.19794   1.20807   1.23355
 Alpha virt. eigenvalues --    1.27363   1.28470   1.45896   1.49015   1.52769
 Alpha virt. eigenvalues --    1.52919   1.57115   1.57624   1.63184   1.66199
 Alpha virt. eigenvalues --    1.66783   1.70420   1.71119   1.72761   1.74425
 Alpha virt. eigenvalues --    1.75350   1.80306   1.84281   1.88584   1.91094
 Alpha virt. eigenvalues --    1.98473   2.02118   2.06633   2.09506   2.10194
 Alpha virt. eigenvalues --    2.14807   2.15512   2.16122   2.20497   2.24083
 Alpha virt. eigenvalues --    2.25083   2.34135   2.35708   2.38269   2.45061
 Alpha virt. eigenvalues --    2.45205   2.56408   2.58731   2.63028   2.68263
 Alpha virt. eigenvalues --    2.68582   2.81963   2.97475   3.22501   3.65104
 Alpha virt. eigenvalues --    3.86901   3.88551   3.95560   3.99759   4.09063
 Alpha virt. eigenvalues --    4.17241   4.32169   4.69278
  Beta  occ. eigenvalues --  -19.40912 -19.39499 -10.48136 -10.47533 -10.41019
  Beta  occ. eigenvalues --  -10.40451 -10.39726 -10.38253 -10.34351  -1.28679
  Beta  occ. eigenvalues --   -1.25694  -1.06287  -0.96525  -0.94992  -0.87540
  Beta  occ. eigenvalues --   -0.83011  -0.80637  -0.75757  -0.72839  -0.68218
  Beta  occ. eigenvalues --   -0.65650  -0.63133  -0.62807  -0.60753  -0.59025
  Beta  occ. eigenvalues --   -0.57808  -0.56126  -0.55668  -0.54433  -0.53701
  Beta  occ. eigenvalues --   -0.50368  -0.43311
  Beta virt. eigenvalues --   -0.35700  -0.18942  -0.17106  -0.12297  -0.08390
  Beta virt. eigenvalues --   -0.05210  -0.02858  -0.02262  -0.01218   0.00062
  Beta virt. eigenvalues --    0.01978   0.03866   0.04711   0.06898   0.07825
  Beta virt. eigenvalues --    0.12836   0.15009   0.16614   0.18804   0.29348
  Beta virt. eigenvalues --    0.31819   0.32184   0.33202   0.37223   0.37514
  Beta virt. eigenvalues --    0.38075   0.39766   0.40945   0.42442   0.42658
  Beta virt. eigenvalues --    0.44691   0.46363   0.49062   0.52992   0.53600
  Beta virt. eigenvalues --    0.54133   0.57910   0.58673   0.60473   0.64272
  Beta virt. eigenvalues --    0.67747   0.68772   0.70705   0.72330   0.73600
  Beta virt. eigenvalues --    0.75123   0.75924   0.76819   0.80465   0.81736
  Beta virt. eigenvalues --    0.82060   0.84281   0.86554   0.91361   0.94289
  Beta virt. eigenvalues --    0.98738   1.02600   1.03489   1.04017   1.10936
  Beta virt. eigenvalues --    1.12198   1.19425   1.19852   1.20713   1.21274
  Beta virt. eigenvalues --    1.24267   1.27613   1.29130   1.46375   1.49875
  Beta virt. eigenvalues --    1.53122   1.53835   1.57684   1.58112   1.64017
  Beta virt. eigenvalues --    1.66692   1.67528   1.70861   1.71553   1.73183
  Beta virt. eigenvalues --    1.74652   1.75711   1.80538   1.84949   1.89711
  Beta virt. eigenvalues --    1.91584   1.98985   2.02592   2.07406   2.09540
  Beta virt. eigenvalues --    2.11620   2.15758   2.15937   2.16316   2.21181
  Beta virt. eigenvalues --    2.24806   2.25616   2.34815   2.37079   2.38564
  Beta virt. eigenvalues --    2.46062   2.46120   2.56709   2.59004   2.63382
  Beta virt. eigenvalues --    2.68562   2.68825   2.82628   2.97696   3.22703
  Beta virt. eigenvalues --    3.65749   3.87324   3.88984   3.96232   4.00283
  Beta virt. eigenvalues --    4.09156   4.17529   4.32701   4.69909
          Condensed to atoms (all electrons):
               1          2          3          4          5          6
     1  C    4.942135   0.479328  -0.004854  -0.032678  -0.040025   0.488156
     2  C    0.479328   5.069841   0.458608  -0.044798  -0.039758  -0.030884
     3  C   -0.004854   0.458608   4.745684   0.355212  -0.073656  -0.027489
     4  C   -0.032678  -0.044798   0.355212   4.603013   0.511134   0.000172
     5  C   -0.040025  -0.039758  -0.073656   0.511134   5.045311   0.524305
     6  C    0.488156  -0.030884  -0.027489   0.000172   0.524305   4.643505
     7  H    0.360064  -0.032177   0.002941   0.000288   0.005135  -0.032992
     8  H   -0.020602   0.355190  -0.037803   0.003354   0.000577   0.002952
     9  H    0.005180  -0.000206   0.006582  -0.032379   0.358394  -0.038547
    10  O   -0.000080   0.004785  -0.057393   0.328368  -0.051364   0.002345
    11  O    0.003513  -0.059381   0.295802  -0.051891   0.003571   0.000008
    12  H   -0.000084   0.000950  -0.012182  -0.023773   0.004886  -0.000098
    13  H    0.000260  -0.002984  -0.018794   0.005701  -0.000147  -0.000006
    14  C   -0.050067   0.007016   0.000341   0.004841  -0.057102   0.361072
    15  H    0.001315  -0.000199   0.000011  -0.000060  -0.003738  -0.022482
    16  H    0.001328  -0.000199   0.000011  -0.000058  -0.003738  -0.022505
    17  H   -0.002563   0.000320   0.000003  -0.000159   0.003779  -0.032140
               7          8          9         10         11         12
     1  C    0.360064  -0.020602   0.005180  -0.000080   0.003513  -0.000084
     2  C   -0.032177   0.355190  -0.000206   0.004785  -0.059381   0.000950
     3  C    0.002941  -0.037803   0.006582  -0.057393   0.295802  -0.012182
     4  C    0.000288   0.003354  -0.032379   0.328368  -0.051891  -0.023773
     5  C    0.005135   0.000577   0.358394  -0.051364   0.003571   0.004886
     6  C   -0.032992   0.002952  -0.038547   0.002345   0.000008  -0.000098
     7  H    0.481446  -0.003946  -0.000105   0.000002  -0.000035   0.000000
     8  H   -0.003946   0.490965   0.000010  -0.000038  -0.004068  -0.000008
     9  H   -0.000105   0.000010   0.488744  -0.001755  -0.000046  -0.000172
    10  O    0.000002  -0.000038  -0.001755   8.080669  -0.009284   0.243447
    11  O   -0.000035  -0.004068  -0.000046  -0.009284   8.148083   0.019360
    12  H    0.000000  -0.000008  -0.000172   0.243447   0.019360   0.297698
    13  H   -0.000008   0.004698   0.000004   0.000116   0.248035  -0.000582
    14  C   -0.006397  -0.000140  -0.006132  -0.000041   0.000000   0.000003
    15  H    0.000097   0.000002   0.001285   0.000001   0.000000   0.000000
    16  H    0.000097   0.000002   0.001294   0.000001   0.000000   0.000000
    17  H    0.004997  -0.000002   0.000069   0.000000   0.000000   0.000000
              13         14         15         16         17
     1  C    0.000260  -0.050067   0.001315   0.001328  -0.002563
     2  C   -0.002984   0.007016  -0.000199  -0.000199   0.000320
     3  C   -0.018794   0.000341   0.000011   0.000011   0.000003
     4  C    0.005701   0.004841  -0.000060  -0.000058  -0.000159
     5  C   -0.000147  -0.057102  -0.003738  -0.003738   0.003779
     6  C   -0.000006   0.361072  -0.022482  -0.022505  -0.032140
     7  H   -0.000008  -0.006397   0.000097   0.000097   0.004997
     8  H    0.004698  -0.000140   0.000002   0.000002  -0.000002
     9  H    0.000004  -0.006132   0.001285   0.001294   0.000069
    10  O    0.000116  -0.000041   0.000001   0.000001   0.000000
    11  O    0.248035   0.000000   0.000000   0.000000   0.000000
    12  H   -0.000582   0.000003   0.000000   0.000000   0.000000
    13  H    0.295343   0.000000   0.000000   0.000000   0.000000
    14  C    0.000000   5.190117   0.365280   0.365311   0.372331
    15  H    0.000000   0.365280   0.476538  -0.020754  -0.022671
    16  H    0.000000   0.365311  -0.020754   0.476585  -0.022680
    17  H    0.000000   0.372331  -0.022671  -0.022680   0.497645
          Atomic-Atomic Spin Densities.
               1          2          3          4          5          6
     1  C    0.276517  -0.017012  -0.008289  -0.005391  -0.004391   0.041859
     2  C   -0.017012  -0.116169   0.017174  -0.001415   0.002338  -0.004681
     3  C   -0.008289   0.017174   0.290486   0.045205  -0.001965  -0.004825
     4  C   -0.005391  -0.001415   0.045205   0.196386   0.015957  -0.003975
     5  C   -0.004391   0.002338  -0.001965   0.015957  -0.080658  -0.012694
     6  C    0.041859  -0.004681  -0.004825  -0.003975  -0.012694   0.158324
     7  H   -0.000039   0.000399   0.000006  -0.000035  -0.000026  -0.000687
     8  H   -0.000291   0.001269  -0.000559   0.000120  -0.000048   0.000072
     9  H    0.000036  -0.000042   0.000071  -0.000187   0.001183  -0.000120
    10  O    0.000057  -0.000040  -0.006461  -0.051093  -0.000170   0.000238
    11  O    0.000272   0.000140  -0.056441  -0.005979  -0.000004   0.000040
    12  H    0.000001  -0.000017   0.000000   0.000781  -0.000078  -0.000004
    13  H   -0.000001   0.000234   0.000266  -0.000041  -0.000006   0.000001
    14  C   -0.002961   0.000029  -0.000003   0.000002   0.001635  -0.006340
    15  H   -0.000465   0.000005   0.000010   0.000041   0.000329  -0.003328
    16  H   -0.000462   0.000005   0.000010   0.000041   0.000328  -0.003318
    17  H    0.000117   0.000007   0.000000  -0.000002  -0.000039  -0.000120
               7          8          9         10         11         12
     1  C   -0.000039  -0.000291   0.000036   0.000057   0.000272   0.000001
     2  C    0.000399   0.001269  -0.000042  -0.000040   0.000140  -0.000017
     3  C    0.000006  -0.000559   0.000071  -0.006461  -0.056441   0.000000
     4  C   -0.000035   0.000120  -0.000187  -0.051093  -0.005979   0.000781
     5  C   -0.000026  -0.000048   0.001183  -0.000170  -0.000004  -0.000078
     6  C   -0.000687   0.000072  -0.000120   0.000238   0.000040  -0.000004
     7  H   -0.011969   0.000100   0.000002   0.000000   0.000001   0.000000
     8  H    0.000100   0.002390  -0.000001   0.000000   0.000003   0.000000
     9  H    0.000002  -0.000001   0.000598  -0.000091   0.000000   0.000008
    10  O    0.000000   0.000000  -0.000091   0.214664   0.001865  -0.001543
    11  O    0.000001   0.000003   0.000000   0.001865   0.194610  -0.000256
    12  H    0.000000   0.000000   0.000008  -0.001543  -0.000256  -0.003902
    13  H    0.000000  -0.000061   0.000000  -0.000004  -0.001366   0.000014
    14  C    0.000206   0.000001   0.000096   0.000000   0.000000   0.000000
    15  H   -0.000004   0.000000  -0.000023  -0.000001   0.000000   0.000000
    16  H   -0.000004   0.000000  -0.000023  -0.000001   0.000000   0.000000
    17  H   -0.000037   0.000000   0.000003   0.000000   0.000000   0.000000
              13         14         15         16         17
     1  C   -0.000001  -0.002961  -0.000465  -0.000462   0.000117
     2  C    0.000234   0.000029   0.000005   0.000005   0.000007
     3  C    0.000266  -0.000003   0.000010   0.000010   0.000000
     4  C   -0.000041   0.000002   0.000041   0.000041  -0.000002
     5  C   -0.000006   0.001635   0.000329   0.000328  -0.000039
     6  C    0.000001  -0.006340  -0.003328  -0.003318  -0.000120
     7  H    0.000000   0.000206  -0.000004  -0.000004  -0.000037
     8  H   -0.000061   0.000001   0.000000   0.000000   0.000000
     9  H    0.000000   0.000096  -0.000023  -0.000023   0.000003
    10  O   -0.000004   0.000000  -0.000001  -0.000001   0.000000
    11  O   -0.001366   0.000000   0.000000   0.000000   0.000000
    12  H    0.000014   0.000000   0.000000   0.000000   0.000000
    13  H   -0.003585   0.000000   0.000000   0.000000   0.000000
    14  C    0.000000  -0.010732   0.004145   0.004130   0.000533
    15  H    0.000000   0.004145   0.016405  -0.003355  -0.000137
    16  H    0.000000   0.004130  -0.003355   0.016352  -0.000130
    17  H    0.000000   0.000533  -0.000137  -0.000130  -0.000332
 Mulliken charges and spin densities:
               1          2
     1  C   -0.130326   0.279557
     2  C   -0.165453  -0.117775
     3  C    0.366976   0.274687
     4  C    0.373713   0.190416
     5  C   -0.187565  -0.078309
     6  C    0.184628   0.160444
     7  H    0.220594  -0.012086
     8  H    0.208857   0.002997
     9  H    0.217783   0.001510
    10  O   -0.539778   0.157419
    11  O   -0.593667   0.132885
    12  H    0.470555  -0.004997
    13  H    0.468366  -0.004548
    14  C   -0.546434  -0.009259
    15  H    0.225375   0.013622
    16  H    0.225306   0.013575
    17  H    0.201071  -0.000137
 Sum of Mulliken charges =   1.00000   1.00000
 Mulliken charges and spin densities with hydrogens summed into heavy atoms:
               1          2
     1  C    0.090268   0.267471
     2  C    0.043404  -0.114778
     3  C    0.366976   0.274687
     4  C    0.373713   0.190416
     5  C    0.030219  -0.076799
     6  C    0.184628   0.160444
    10  O   -0.069223   0.152422
    11  O   -0.125301   0.128336
    14  C    0.105317   0.017802
 Electronic spatial extent (au):  <R**2>=           1195.4784
 Charge=              1.0000 electrons
 Dipole moment (field-independent basis, Debye):
    X=             -0.6279    Y=              2.7386    Z=             -0.0021  Tot=              2.8097
 Quadrupole moment (field-independent basis, Debye-Ang):
   XX=            -23.1675   YY=            -36.7982   ZZ=            -51.2536
   XY=             -4.6270   XZ=              0.0092   YZ=             -0.0040
 Traceless Quadrupole moment (field-independent basis, Debye-Ang):
   XX=             13.9056   YY=              0.2749   ZZ=            -14.1805
   XY=             -4.6270   XZ=              0.0092   YZ=             -0.0040
 Octapole moment (field-independent basis, Debye-Ang**2):
  XXX=            -19.5444  YYY=             19.4971  ZZZ=              0.0038  XYY=            -13.5997
  XXY=              6.6005  XXZ=             -0.0161  XZZ=             -4.6439  YZZ=             -3.0519
  YYZ=             -0.0117  XYZ=              0.0086
 Hexadecapole moment (field-independent basis, Debye-Ang**3):
 XXXX=           -762.0929 YYYY=           -375.4473 ZZZZ=            -53.3407 XXXY=            -21.6905
 XXXZ=              0.0680 YYYX=            -28.1454 YYYZ=             -0.0008 ZZZX=              0.0068
 ZZZY=              0.0036 XXYY=           -162.6813 XXZZ=           -169.7823 YYZZ=            -84.3662
 XXYZ=             -0.0340 YYXZ=              0.0069 ZZXY=             -2.6159
 N-N= 4.288992630119D+02 E-N=-1.827398155080D+03  KE= 4.178668883465D+02
                          Isotropic Fermi Contact Couplings
        Atom                 a.u.       MegaHertz       Gauss      10(-4) cm-1
     1  C(13)              0.02523      28.36071      10.11980       9.46011
     2  C(13)             -0.01870     -21.02733      -7.50307      -7.01396
     3  C(13)              0.02275      25.58083       9.12788       8.53285
     4  C(13)              0.01214      13.64876       4.87022       4.55273
     5  C(13)             -0.01273     -14.30705      -5.10511      -4.77232
     6  C(13)              0.01327      14.91535       5.32217       4.97522
     7  H(1)              -0.00439     -19.63111      -7.00487      -6.54823
     8  H(1)               0.00094       4.18880       1.49467       1.39723
     9  H(1)               0.00048       2.16424       0.77226       0.72191
    10  O(17)              0.03054     -18.51300      -6.60590      -6.17527
    11  O(17)              0.02796     -16.94648      -6.04693      -5.65274
    12  H(1)              -0.00259     -11.55873      -4.12444      -3.85558
    13  H(1)              -0.00238     -10.65652      -3.80251      -3.55463
    14  C(13)             -0.00535      -6.01346      -2.14575      -2.00588
    15  H(1)               0.00723      32.32798      11.53543      10.78345
    16  H(1)               0.00720      32.20304      11.49084      10.74178
    17  H(1)              -0.00005      -0.24342      -0.08686      -0.08120
 --------------------------------------------------------
       Center         ----  Spin Dipole Couplings  ----
                      3XX-RR        3YY-RR        3ZZ-RR
 --------------------------------------------------------
     1   Atom       -0.151182     -0.145423      0.296604
     2   Atom        0.046375      0.041142     -0.087517
     3   Atom       -0.170444     -0.170196      0.340639
     4   Atom       -0.130203     -0.114840      0.245043
     5   Atom        0.033147      0.027245     -0.060392
     6   Atom       -0.094424     -0.092364      0.186787
     7   Atom       -0.005644      0.010494     -0.004850
     8   Atom        0.002820      0.002952     -0.005772
     9   Atom        0.005250      0.000058     -0.005308
    10   Atom       -0.342380     -0.347975      0.690356
    11   Atom       -0.313201     -0.305408      0.618610
    12   Atom        0.023998     -0.009262     -0.014736
    13   Atom       -0.015197      0.026951     -0.011754
    14   Atom       -0.003251     -0.009032      0.012283
    15   Atom        0.001495      0.000011     -0.001506
    16   Atom        0.001490      0.000037     -0.001527
    17   Atom        0.006214     -0.002750     -0.003464
 --------------------------------------------------------
                        XY            XZ            YZ
 --------------------------------------------------------
     1   Atom        0.002415     -0.000009      0.000008
     2   Atom        0.004785     -0.000012     -0.000010
     3   Atom       -0.005336     -0.000007      0.000042
     4   Atom        0.002725      0.000019     -0.000058
     5   Atom       -0.000547     -0.000002     -0.000001
     6   Atom       -0.004956     -0.000016      0.000024
     7   Atom        0.021188      0.000000      0.000000
     8   Atom        0.003100     -0.000001     -0.000001
     9   Atom       -0.002093      0.000000      0.000000
    10   Atom        0.000714     -0.000203      0.000103
    11   Atom       -0.008429     -0.000076      0.000696
    12   Atom       -0.014765      0.000009     -0.000003
    13   Atom       -0.016045      0.000014     -0.000032
    14   Atom       -0.004485     -0.000004     -0.000007
    15   Atom       -0.003772      0.002425     -0.003134
    16   Atom       -0.003774     -0.002411      0.003130
    17   Atom        0.000219     -0.000004      0.000002
 --------------------------------------------------------


 ---------------------------------------------------------------------------------
              Anisotropic Spin Dipole Couplings in Principal Axis System
 ---------------------------------------------------------------------------------

       Atom             a.u.   MegaHertz   Gauss  10(-4) cm-1        Axes

              Baa    -0.1521   -20.405    -7.281    -6.806  0.9397 -0.3419  0.0000
     1 C(13)  Bbb    -0.1445   -19.396    -6.921    -6.470  0.3419  0.9397  0.0000
              Bcc     0.2966    39.801    14.202    13.276  0.0000  0.0000  1.0000
 
              Baa    -0.0875   -11.744    -4.191    -3.917  0.0001  0.0001  1.0000
     2 C(13)  Bbb     0.0383     5.140     1.834     1.715 -0.5100  0.8602  0.0000
              Bcc     0.0492     6.604     2.356     2.203  0.8602  0.5100 -0.0001
 
              Baa    -0.1757   -23.572    -8.411    -7.863  0.7153  0.6989  0.0000
     3 C(13)  Bbb    -0.1650   -22.139    -7.900    -7.385 -0.6989  0.7153 -0.0001
              Bcc     0.3406    45.711    16.311    15.247  0.0000  0.0001  1.0000
 
              Baa    -0.1307   -17.535    -6.257    -5.849  0.9855 -0.1697 -0.0001
     4 C(13)  Bbb    -0.1144   -15.347    -5.476    -5.119  0.1697  0.9855  0.0002
              Bcc     0.2450    32.882    11.733    10.968  0.0000 -0.0002  1.0000
 
              Baa    -0.0604    -8.104    -2.892    -2.703  0.0000  0.0000  1.0000
     5 C(13)  Bbb     0.0272     3.649     1.302     1.217  0.0915  0.9958  0.0000
              Bcc     0.0332     4.455     1.590     1.486  0.9958 -0.0915  0.0000
 
              Baa    -0.0985   -13.212    -4.714    -4.407  0.7757  0.6311  0.0000
     6 C(13)  Bbb    -0.0883   -11.853    -4.230    -3.954 -0.6311  0.7757 -0.0001
              Bcc     0.1868    25.065     8.944     8.361 -0.0001  0.0001  1.0000
 
              Baa    -0.0202   -10.803    -3.855    -3.603  0.8234 -0.5675  0.0000
     7 H(1)   Bbb    -0.0048    -2.588    -0.923    -0.863  0.0000  0.0000  1.0000
              Bcc     0.0251    13.391     4.778     4.467  0.5675  0.8234  0.0000
 
              Baa    -0.0058    -3.080    -1.099    -1.027  0.0000  0.0001  1.0000
     8 H(1)   Bbb    -0.0002    -0.115    -0.041    -0.038  0.7146 -0.6995  0.0000
              Bcc     0.0060     3.194     1.140     1.066  0.6995  0.7146 -0.0001
 
              Baa    -0.0053    -2.832    -1.011    -0.945  0.0000  0.0001  1.0000
     9 H(1)   Bbb    -0.0007    -0.363    -0.130    -0.121  0.3328  0.9430 -0.0001
              Bcc     0.0060     3.196     1.140     1.066  0.9430 -0.3328  0.0000
 
              Baa    -0.3481    25.186     8.987     8.401 -0.1247  0.9922 -0.0001
    10 O(17)  Bbb    -0.3423    24.768     8.838     8.262  0.9922  0.1247  0.0002
              Bcc     0.6904   -49.954   -17.825   -16.663 -0.0002  0.0001  1.0000
 
              Baa    -0.3186    23.053     8.226     7.690  0.8425  0.5387 -0.0003
    11 O(17)  Bbb    -0.3000    21.709     7.746     7.241 -0.5387  0.8425 -0.0007
              Bcc     0.6186   -44.762   -15.972   -14.931 -0.0001  0.0008  1.0000
 
              Baa    -0.0149    -7.934    -2.831    -2.647  0.3551  0.9348 -0.0035
    12 H(1)   Bbb    -0.0147    -7.863    -2.806    -2.623  0.0010  0.0033  1.0000
              Bcc     0.0296    15.797     5.637     5.269  0.9348 -0.3551  0.0002
 
              Baa    -0.0206   -10.997    -3.924    -3.668  0.9475  0.3197 -0.0003
    13 H(1)   Bbb    -0.0118    -6.271    -2.238    -2.092  0.0001  0.0008  1.0000
              Bcc     0.0324    17.268     6.162     5.760 -0.3197  0.9475 -0.0008
 
              Baa    -0.0115    -1.540    -0.550    -0.514  0.4787  0.8780  0.0003
    14 C(13)  Bbb    -0.0008    -0.108    -0.039    -0.036  0.8780 -0.4787  0.0000
              Bcc     0.0123     1.648     0.588     0.550 -0.0002 -0.0003  1.0000
 
              Baa    -0.0040    -2.158    -0.770    -0.720  0.1683  0.6959  0.6981
    15 H(1)   Bbb    -0.0024    -1.301    -0.464    -0.434  0.7251  0.3924 -0.5660
              Bcc     0.0065     3.460     1.235     1.154  0.6678 -0.6014  0.4386
 
              Baa    -0.0040    -2.157    -0.770    -0.719 -0.1663 -0.6924  0.7021
    16 H(1)   Bbb    -0.0024    -1.300    -0.464    -0.434  0.7259  0.3959  0.5624
              Bcc     0.0065     3.457     1.233     1.153  0.6674 -0.6032 -0.4368
 
              Baa    -0.0035    -1.848    -0.659    -0.616  0.0004 -0.0026  1.0000
    17 H(1)   Bbb    -0.0028    -1.470    -0.525    -0.490 -0.0244  0.9997  0.0026
              Bcc     0.0062     3.318     1.184     1.107  0.9997  0.0244 -0.0004
 

 ---------------------------------------------------------------------------------

 No NMR shielding tensors so no spin-rotation constants.
 Leave Link  601 at Wed Dec 03 16:47:02 2025, MaxMem=   104857600 cpu:               0.0 elap:               0.2
 (Enter D:\Gaussian\G16W\l9999.exe)
 1|1|UNPC-PC-20250526LCFF|SP|UB3LYP|6-31G(d)|C7H8O2(1+,2)|ADMINISTRATOR
 |03-Dec-2025|0||#P B3LYP/6-31G* SCF=conver=7 out=wfn||Generated by Mul
 tiwfn (http://sobereva.com/multiwfn)||1,2|C,0,1.131145,1.295505,-0.000
 078|C,0,-0.23759,1.579354,-0.000048|C,0,-1.158979,0.54513,-0.000005|C,
 0,-0.718033,-0.78772,0.000014|C,0,0.64304,-1.057438,0.000014|C,0,1.587
 154,-0.021886,-0.000018|H,0,1.842312,2.113769,-0.000137|H,0,-0.582847,
 2.609352,-0.000052|H,0,0.954928,-2.096201,-0.000003|O,0,-1.618466,-1.8
 10532,0.000009|O,0,-2.528903,0.707021,0.000075|H,0,-2.502256,-1.421173
 ,-0.000206|H,0,-2.747416,1.643496,-0.001093|C,0,3.063355,-0.342012,0.0
 0015|H,0,3.344305,-0.926404,0.882146|H,0,3.343907,-0.929275,-0.880048|
 H,0,3.665466,0.56893,-0.001447||Version=EM64W-G16RevA.03|State=2-A|HF=
 -421.7192795|S2=0.761488|S2-1=0.|S2A=0.750079|RMSD=7.929e-008|Dipole=-
 0.2470169,1.0774626,-0.0008188|Quadrupole=10.3384843,0.2043954,-10.542
 8797,-3.4400733,0.006833,-0.0030104|PG=C01 [X(C7H8O2)]||@

 Writing a WFN file to "N-1.wfn"


 KNIGHT- SIRE, I'VE JUST RETURNED FROM THE FRONT
 KING-   HOW GOES THE BATTLE                    
 KNIGHT- THE SITUATION IS QUITE FLUID           
 KING-   WHAT DOES *THAT* MEAN                  
 KNIGHT- WE'RE UP THE CREEK                     
                THE WIZARD OF ID                
 Job cpu time:       0 days  0 hours  0 minutes 32.0 seconds.
 Elapsed time:       0 days  0 hours  0 minutes 31.5 seconds.
 File lengths (MBytes):  RWF=     27 Int=      0 D2E=      0 Chk=      3 Scr=      1
 Normal termination of Gaussian 16 at Wed Dec 03 16:47:03 2025.
