 Generated by Multiwfn (http://sobereva.com/multiwfn)
GAUSSIAN             65 MOL ORBITALS    284 PRIMITIVES       17 NUCLEI
  C    1    (CENTRE  1)   2.13755407  2.44814972 -0.00014757  CHARGE =  6.0
  C    2    (CENTRE  2)  -0.44898027  2.98454636 -0.00009088  CHARGE =  6.0
  C    3    (CENTRE  3)  -2.19015296  1.03014609 -0.00000962  CHARGE =  6.0
  C    4    (CENTRE  4)  -1.35688556 -1.48857530  0.00002628  CHARGE =  6.0
  C    5    (CENTRE  5)   1.21516969 -1.99826822  0.00002628  CHARGE =  6.0
  C    6    (CENTRE  6)   2.99928641 -0.04135839 -0.00003419  CHARGE =  6.0
  H    7    (CENTRE  7)   3.48146479  3.99444470 -0.00025906  CHARGE =  1.0
  H    8    (CENTRE  8)  -1.10142161  4.93096043 -0.00009844  CHARGE =  1.0
  H    9    (CENTRE  9)   1.80455277 -3.96124575 -0.00000584  CHARGE =  1.0
  O   10    (CENTRE 10)  -3.05845715 -3.42141001  0.00001684  CHARGE =  8.0
  O   11    (CENTRE 11)  -4.77893416  1.33607551  0.00014156  CHARGE =  8.0
  H   12    (CENTRE 12)  -4.72857827 -2.68562828 -0.00038946  CHARGE =  1.0
  H   13    (CENTRE 13)  -5.19186404  3.10575675 -0.00206564  CHARGE =  1.0
  C   14    (CENTRE 14)   5.78890206 -0.64630861  0.00028329  CHARGE =  6.0
  H   15    (CENTRE 15)   6.31982071 -1.75064939  1.66701417  CHARGE =  1.0
  H   16    (CENTRE 16)   6.31906860 -1.75607480 -1.66304987  CHARGE =  1.0
  H   17    (CENTRE 17)   6.92672679  1.07512239 -0.00273461  CHARGE =  1.0
CENTRE ASSIGNMENTS    1  1  1  1  1  1  1  1  1  1  1  1  1  1  1  1  1  1  1  1
CENTRE ASSIGNMENTS    1  1  1  1  1  1  1  1  2  2  2  2  2  2  2  2  2  2  2  2
CENTRE ASSIGNMENTS    2  2  2  2  2  2  2  2  2  2  2  2  2  2  2  2  3  3  3  3
CENTRE ASSIGNMENTS    3  3  3  3  3  3  3  3  3  3  3  3  3  3  3  3  3  3  3  3
CENTRE ASSIGNMENTS    3  3  3  3  4  4  4  4  4  4  4  4  4  4  4  4  4  4  4  4
CENTRE ASSIGNMENTS    4  4  4  4  4  4  4  4  4  4  4  4  5  5  5  5  5  5  5  5
CENTRE ASSIGNMENTS    5  5  5  5  5  5  5  5  5  5  5  5  5  5  5  5  5  5  5  5
CENTRE ASSIGNMENTS    6  6  6  6  6  6  6  6  6  6  6  6  6  6  6  6  6  6  6  6
CENTRE ASSIGNMENTS    6  6  6  6  6  6  6  6  7  7  7  7  8  8  8  8  9  9  9  9
CENTRE ASSIGNMENTS   10 10 10 10 10 10 10 10 10 10 10 10 10 10 10 10 10 10 10 10
CENTRE ASSIGNMENTS   10 10 10 10 10 10 10 10 11 11 11 11 11 11 11 11 11 11 11 11
CENTRE ASSIGNMENTS   11 11 11 11 11 11 11 11 11 11 11 11 11 11 11 11 12 12 12 12
CENTRE ASSIGNMENTS   13 13 13 13 14 14 14 14 14 14 14 14 14 14 14 14 14 14 14 14
CENTRE ASSIGNMENTS   14 14 14 14 14 14 14 14 14 14 14 14 15 15 15 15 16 16 16 16
CENTRE ASSIGNMENTS   17 17 17 17
TYPE ASSIGNMENTS      1  1  1  1  1  1  1  1  1  2  2  2  3  3  3  4  4  4  1  2
TYPE ASSIGNMENTS      3  4  5  6  7  8  9 10  1  1  1  1  1  1  1  1  1  2  2  2
TYPE ASSIGNMENTS      3  3  3  4  4  4  1  2  3  4  5  6  7  8  9 10  1  1  1  1
TYPE ASSIGNMENTS      1  1  1  1  1  2  2  2  3  3  3  4  4  4  1  2  3  4  5  6
TYPE ASSIGNMENTS      7  8  9 10  1  1  1  1  1  1  1  1  1  2  2  2  3  3  3  4
TYPE ASSIGNMENTS      4  4  1  2  3  4  5  6  7  8  9 10  1  1  1  1  1  1  1  1
TYPE ASSIGNMENTS      1  2  2  2  3  3  3  4  4  4  1  2  3  4  5  6  7  8  9 10
TYPE ASSIGNMENTS      1  1  1  1  1  1  1  1  1  2  2  2  3  3  3  4  4  4  1  2
TYPE ASSIGNMENTS      3  4  5  6  7  8  9 10  1  1  1  1  1  1  1  1  1  1  1  1
TYPE ASSIGNMENTS      1  1  1  1  1  1  1  1  1  2  2  2  3  3  3  4  4  4  1  2
TYPE ASSIGNMENTS      3  4  5  6  7  8  9 10  1  1  1  1  1  1  1  1  1  2  2  2
TYPE ASSIGNMENTS      3  3  3  4  4  4  1  2  3  4  5  6  7  8  9 10  1  1  1  1
TYPE ASSIGNMENTS      1  1  1  1  1  1  1  1  1  1  1  1  1  2  2  2  3  3  3  4
TYPE ASSIGNMENTS      4  4  1  2  3  4  5  6  7  8  9 10  1  1  1  1  1  1  1  1
TYPE ASSIGNMENTS      1  1  1  1
EXPONENTS  0.3047525D+04 0.4573695D+03 0.1039487D+03 0.2921016D+02 0.9286663D+01
EXPONENTS  0.3163927D+01 0.7868272D+01 0.1881289D+01 0.5442493D+00 0.7868272D+01
EXPONENTS  0.1881289D+01 0.5442493D+00 0.7868272D+01 0.1881289D+01 0.5442493D+00
EXPONENTS  0.7868272D+01 0.1881289D+01 0.5442493D+00 0.1687145D+00 0.1687145D+00
EXPONENTS  0.1687145D+00 0.1687145D+00 0.8000000D+00 0.8000000D+00 0.8000000D+00
EXPONENTS  0.8000000D+00 0.8000000D+00 0.8000000D+00 0.3047525D+04 0.4573695D+03
EXPONENTS  0.1039487D+03 0.2921016D+02 0.9286663D+01 0.3163927D+01 0.7868272D+01
EXPONENTS  0.1881289D+01 0.5442493D+00 0.7868272D+01 0.1881289D+01 0.5442493D+00
EXPONENTS  0.7868272D+01 0.1881289D+01 0.5442493D+00 0.7868272D+01 0.1881289D+01
EXPONENTS  0.5442493D+00 0.1687145D+00 0.1687145D+00 0.1687145D+00 0.1687145D+00
EXPONENTS  0.8000000D+00 0.8000000D+00 0.8000000D+00 0.8000000D+00 0.8000000D+00
EXPONENTS  0.8000000D+00 0.3047525D+04 0.4573695D+03 0.1039487D+03 0.2921016D+02
EXPONENTS  0.9286663D+01 0.3163927D+01 0.7868272D+01 0.1881289D+01 0.5442493D+00
EXPONENTS  0.7868272D+01 0.1881289D+01 0.5442493D+00 0.7868272D+01 0.1881289D+01
EXPONENTS  0.5442493D+00 0.7868272D+01 0.1881289D+01 0.5442493D+00 0.1687145D+00
EXPONENTS  0.1687145D+00 0.1687145D+00 0.1687145D+00 0.8000000D+00 0.8000000D+00
EXPONENTS  0.8000000D+00 0.8000000D+00 0.8000000D+00 0.8000000D+00 0.3047525D+04
EXPONENTS  0.4573695D+03 0.1039487D+03 0.2921016D+02 0.9286663D+01 0.3163927D+01
EXPONENTS  0.7868272D+01 0.1881289D+01 0.5442493D+00 0.7868272D+01 0.1881289D+01
EXPONENTS  0.5442493D+00 0.7868272D+01 0.1881289D+01 0.5442493D+00 0.7868272D+01
EXPONENTS  0.1881289D+01 0.5442493D+00 0.1687145D+00 0.1687145D+00 0.1687145D+00
EXPONENTS  0.1687145D+00 0.8000000D+00 0.8000000D+00 0.8000000D+00 0.8000000D+00
EXPONENTS  0.8000000D+00 0.8000000D+00 0.3047525D+04 0.4573695D+03 0.1039487D+03
EXPONENTS  0.2921016D+02 0.9286663D+01 0.3163927D+01 0.7868272D+01 0.1881289D+01
EXPONENTS  0.5442493D+00 0.7868272D+01 0.1881289D+01 0.5442493D+00 0.7868272D+01
EXPONENTS  0.1881289D+01 0.5442493D+00 0.7868272D+01 0.1881289D+01 0.5442493D+00
EXPONENTS  0.1687145D+00 0.1687145D+00 0.1687145D+00 0.1687145D+00 0.8000000D+00
EXPONENTS  0.8000000D+00 0.8000000D+00 0.8000000D+00 0.8000000D+00 0.8000000D+00
EXPONENTS  0.3047525D+04 0.4573695D+03 0.1039487D+03 0.2921016D+02 0.9286663D+01
EXPONENTS  0.3163927D+01 0.7868272D+01 0.1881289D+01 0.5442493D+00 0.7868272D+01
EXPONENTS  0.1881289D+01 0.5442493D+00 0.7868272D+01 0.1881289D+01 0.5442493D+00
EXPONENTS  0.7868272D+01 0.1881289D+01 0.5442493D+00 0.1687145D+00 0.1687145D+00
EXPONENTS  0.1687145D+00 0.1687145D+00 0.8000000D+00 0.8000000D+00 0.8000000D+00
EXPONENTS  0.8000000D+00 0.8000000D+00 0.8000000D+00 0.1873114D+02 0.2825394D+01
EXPONENTS  0.6401217D+00 0.1612778D+00 0.1873114D+02 0.2825394D+01 0.6401217D+00
EXPONENTS  0.1612778D+00 0.1873114D+02 0.2825394D+01 0.6401217D+00 0.1612778D+00
EXPONENTS  0.5484672D+04 0.8252349D+03 0.1880470D+03 0.5296450D+02 0.1689757D+02
EXPONENTS  0.5799635D+01 0.1553962D+02 0.3599934D+01 0.1013762D+01 0.1553962D+02
EXPONENTS  0.3599934D+01 0.1013762D+01 0.1553962D+02 0.3599934D+01 0.1013762D+01
EXPONENTS  0.1553962D+02 0.3599934D+01 0.1013762D+01 0.2700058D+00 0.2700058D+00
EXPONENTS  0.2700058D+00 0.2700058D+00 0.8000000D+00 0.8000000D+00 0.8000000D+00
EXPONENTS  0.8000000D+00 0.8000000D+00 0.8000000D+00 0.5484672D+04 0.8252349D+03
EXPONENTS  0.1880470D+03 0.5296450D+02 0.1689757D+02 0.5799635D+01 0.1553962D+02
EXPONENTS  0.3599934D+01 0.1013762D+01 0.1553962D+02 0.3599934D+01 0.1013762D+01
EXPONENTS  0.1553962D+02 0.3599934D+01 0.1013762D+01 0.1553962D+02 0.3599934D+01
EXPONENTS  0.1013762D+01 0.2700058D+00 0.2700058D+00 0.2700058D+00 0.2700058D+00
EXPONENTS  0.8000000D+00 0.8000000D+00 0.8000000D+00 0.8000000D+00 0.8000000D+00
EXPONENTS  0.8000000D+00 0.1873114D+02 0.2825394D+01 0.6401217D+00 0.1612778D+00
EXPONENTS  0.1873114D+02 0.2825394D+01 0.6401217D+00 0.1612778D+00 0.3047525D+04
EXPONENTS  0.4573695D+03 0.1039487D+03 0.2921016D+02 0.9286663D+01 0.3163927D+01
EXPONENTS  0.7868272D+01 0.1881289D+01 0.5442493D+00 0.7868272D+01 0.1881289D+01
EXPONENTS  0.5442493D+00 0.7868272D+01 0.1881289D+01 0.5442493D+00 0.7868272D+01
EXPONENTS  0.1881289D+01 0.5442493D+00 0.1687145D+00 0.1687145D+00 0.1687145D+00
EXPONENTS  0.1687145D+00 0.8000000D+00 0.8000000D+00 0.8000000D+00 0.8000000D+00
EXPONENTS  0.8000000D+00 0.8000000D+00 0.1873114D+02 0.2825394D+01 0.6401217D+00
EXPONENTS  0.1612778D+00 0.1873114D+02 0.2825394D+01 0.6401217D+00 0.1612778D+00
EXPONENTS  0.1873114D+02 0.2825394D+01 0.6401217D+00 0.1612778D+00
MO    1     MO 0.0        OCC NO =    1.0000000  ORB. ENERGY =  -19.413146
 -0.51779260D-05 -0.95522624D-05 -0.15420313D-04 -0.20072666D-04 -0.17128042D-04
 -0.59139014D-05  0.29067679D-04  0.13397267D-04 -0.37567334D-04 -0.91339866D-04
 -0.70033616D-04 -0.34951683D-04  0.11517157D-04  0.88306257D-05  0.44071011D-05
 -0.17532498D-07 -0.13442807D-07 -0.67089030D-08  0.39202252D-03 -0.14584650D-03
 -0.66064740D-04  0.10749898D-07  0.51424357D-04  0.26000065D-05 -0.91776299D-05
 -0.54088976D-04 -0.77857624D-08 -0.11418459D-07  0.13111925D-04  0.24188941D-04
  0.39048451D-04  0.50829481D-04  0.43372888D-04  0.14975616D-04 -0.82956879D-04
 -0.38234750D-04  0.10721423D-03  0.10609313D-03  0.81345479D-04  0.40597095D-04
  0.46258568D-04  0.35468136D-04  0.17701085D-04  0.38303517D-07  0.29368708D-07
  0.14657043D-07 -0.64334529D-03 -0.15437973D-03  0.29097386D-03  0.62256111D-08
 -0.83147723D-04 -0.51272894D-04  0.53354413D-04  0.71829989D-05 -0.41276198D-08
 -0.64231959D-07 -0.25140718D-04 -0.46379716D-04 -0.74871242D-04 -0.97460111D-04
 -0.83162889D-04 -0.28714147D-04 -0.54452847D-04 -0.25097267D-04  0.70375357D-04
 -0.56640239D-03 -0.43428143D-03 -0.21673687D-03 -0.99731136D-05 -0.76467509D-05
 -0.38162646D-05  0.15615946D-06  0.11973317D-06  0.59755242D-07  0.34183726D-05
  0.74339078D-03  0.46698014D-04 -0.98518596D-07  0.27636844D-04 -0.54020641D-04
 -0.85249269D-04  0.48570392D-04 -0.18381034D-07 -0.35271833D-07  0.12572100D-04
  0.23193070D-04  0.37440807D-04  0.48736806D-04  0.41587205D-04  0.14359062D-04
 -0.62948570D-04 -0.29012938D-04  0.81355307D-04 -0.66367994D-04 -0.50886768D-04
 -0.25396064D-04 -0.51795631D-04 -0.39713605D-04 -0.19819872D-04 -0.14789797D-07
 -0.11339878D-07 -0.56593940D-08 -0.11695503D-03 -0.27029497D-03 -0.25517958D-03
  0.41616101D-07  0.34708219D-05  0.29524409D-04  0.30966777D-04  0.12968096D-03
 -0.24333854D-08  0.33300552D-07  0.43179034D-05  0.79656886D-05  0.12859091D-04
  0.16738716D-04  0.14283177D-04  0.49316377D-05 -0.99773283D-05 -0.45985415D-05
  0.12894790D-04 -0.59464449D-04 -0.45593568D-04 -0.22754386D-04  0.44414629D-04
  0.34054321D-04  0.16995493D-04 -0.12806567D-07 -0.98192632D-08 -0.49005005D-08
  0.25050184D-03 -0.21513720D-05  0.11905442D-03 -0.95824351D-08  0.17984846D-04
  0.21925933D-04  0.30517527D-04  0.14242401D-04  0.24012549D-07  0.66545025D-09
  0.62069181D-05  0.11450552D-04  0.18484741D-04  0.24061641D-04  0.20531842D-04
  0.70891515D-05 -0.26734630D-04 -0.12321967D-04  0.34552080D-04 -0.35695108D-04
 -0.27368745D-04 -0.13658922D-04 -0.49714839D-05 -0.38118185D-05 -0.19023646D-05
 -0.10334267D-07 -0.79236606D-08 -0.39544620D-08 -0.21005684D-03  0.13778428D-03
 -0.81493835D-05  0.45919188D-08  0.13418020D-04 -0.32616781D-04  0.27952789D-04
 -0.11670132D-04 -0.73354237D-09 -0.27486496D-08  0.29156166D-05  0.49454376D-05
  0.56302059D-05  0.25091717D-04 -0.20507415D-04 -0.34784458D-04 -0.39600876D-04
 -0.76589039D-04  0.56358721D-05  0.95595058D-05  0.10883160D-04  0.24177336D-04
  0.21742578D-04  0.40017951D-04  0.64756599D-04  0.85124361D-04  0.73010670D-04
  0.24963588D-04 -0.10185194D-03 -0.45446137D-04  0.13420305D-03  0.19793755D-03
  0.15250021D-03  0.66955806D-04  0.13802228D-03  0.10633872D-03  0.46688427D-04
  0.12904747D-06  0.99424115D-07  0.43652542D-07 -0.30647571D-03 -0.20407729D-03
 -0.10662931D-03 -0.53264808D-07  0.11677899D-03  0.46555645D-04  0.11430664D-03
 -0.15513643D-03  0.14069829D-07 -0.47102616D-07  0.82559238D+00  0.15195307D+01
  0.24588875D+01  0.32322764D+01  0.27723047D+01  0.94789807D+00 -0.15841175D-01
 -0.70683015D-02  0.20872789D-01  0.18582545D-02  0.14316849D-02  0.62858680D-03
  0.26115929D-02  0.20120915D-02  0.88341657D-03 -0.32404128D-05 -0.24965634D-05
 -0.10961258D-05  0.39098493D-02  0.34358731D-03 -0.16388820D-03  0.20575503D-07
 -0.93004164D-02 -0.94050590D-02 -0.92839783D-02 -0.66301006D-04 -0.52888102D-08
  0.32177968D-06 -0.15586282D-05 -0.26437285D-05 -0.30097914D-05 -0.14643660D-03
  0.10148461D-03  0.17213711D-03  0.19597202D-03 -0.18631526D-03  0.13906899D-05
  0.25655513D-05  0.41415953D-05  0.53911264D-05  0.46002580D-05  0.15883585D-05
 -0.63424625D-05 -0.29232351D-05  0.81970565D-05  0.17459854D-04  0.13387109D-04
  0.66811055D-05 -0.13056746D-04 -0.10011085D-04 -0.49962329D-05 -0.34026264D-08
 -0.26089181D-08 -0.13020330D-08 -0.67274147D-04  0.18473840D-04 -0.44469641D-06
  0.94687873D-08 -0.41522268D-05  0.64520936D-05 -0.10163302D-05  0.13315278D-05
 -0.79559028D-08 -0.33503694D-07  0.23164188D-05  0.39290847D-05  0.44731241D-05
  0.23170016D-05  0.23222920D-05  0.39390468D-05  0.44844656D-05  0.23266873D-05
 -0.65856221D-06 -0.11170461D-05 -0.12717176D-05  0.45576848D-05
MO    2     MO 0.0        OCC NO =    1.0000000  ORB. ENERGY =  -19.399534
  0.10497854D-04  0.19366491D-04  0.31263522D-04  0.40695816D-04  0.34725813D-04
  0.11989989D-04 -0.43854662D-04 -0.20212574D-04  0.56678167D-04  0.17328326D-04
  0.13286262D-04  0.66307757D-05 -0.32558748D-04 -0.24963983D-04 -0.12458777D-04
 -0.13146817D-08 -0.10080145D-08 -0.50306989D-09 -0.36430553D-03  0.12555235D-03
  0.10520585D-03 -0.80635115D-08 -0.23615322D-04  0.26636616D-05  0.44251533D-04
  0.50809642D-04  0.19395691D-08  0.57054321D-08 -0.51658148D-05 -0.95299195D-05
 -0.15384245D-04 -0.20025716D-04 -0.17087980D-04 -0.59000687D-05  0.28844937D-04
  0.13294605D-04 -0.37279460D-04 -0.87153301D-04 -0.66823623D-04 -0.33349671D-04
 -0.81282736D-04 -0.62322447D-04 -0.31103269D-04  0.84309235D-08  0.64642974D-08
  0.32261374D-08  0.51783465D-03  0.10436745D-03 -0.24845657D-03  0.22641442D-08
  0.18196018D-04  0.30748224D-04 -0.38659962D-05  0.26949578D-04 -0.32787440D-08
 -0.71672314D-08  0.26564696D-04  0.49006677D-04  0.79111972D-04  0.10298028D-03
  0.87873261D-04  0.30340525D-04 -0.12061287D-03 -0.55590360D-04  0.15588117D-03
 -0.82387187D-05 -0.63169269D-05 -0.31525893D-05  0.78464693D-04  0.60161750D-04
  0.30024930D-04  0.23537542D-07  0.18047094D-07  0.90067648D-08 -0.70197054D-03
 -0.57851046D-03  0.13345969D-03  0.58794826D-08  0.70248294D-04 -0.73268036D-04
  0.82607823D-04 -0.28937801D-04 -0.21139201D-07  0.38226800D-08 -0.35298479D-04
 -0.65118802D-04 -0.10512194D-03 -0.13683753D-03 -0.11676371D-03 -0.40315703D-04
 -0.32582112D-04 -0.15017066D-04  0.42109420D-04 -0.34194291D-03 -0.26218014D-03
 -0.13084626D-03 -0.46752636D-03 -0.35846956D-03 -0.17890143D-03  0.18675894D-07
  0.14319491D-07  0.71464296D-08  0.22196290D-03  0.49333691D-03  0.76371679D-03
 -0.15326531D-07 -0.10416182D-03 -0.16229592D-04 -0.13263350D-03 -0.71424631D-04
  0.11590435D-08 -0.21135453D-07  0.75767173D-05  0.13977564D-04  0.22564122D-04
  0.29371783D-04  0.25062995D-04  0.86536500D-05 -0.68106616D-04 -0.31390277D-04
  0.88021613D-04  0.10784900D-04  0.82691771D-05  0.41268989D-05  0.59136339D-05
  0.45341994D-05  0.22628833D-05 -0.28193164D-08 -0.21616730D-08 -0.10788263D-08
 -0.40761153D-03  0.53030399D-04 -0.34566559D-03  0.64041656D-08 -0.82417439D-04
 -0.66392903D-04  0.32452197D-04  0.38068764D-04 -0.59105659D-08  0.77118576D-08
 -0.11161480D-05 -0.20590751D-05 -0.33239856D-05 -0.43268416D-05 -0.36921018D-05
 -0.12747940D-05  0.16700458D-04  0.76972258D-05 -0.21583825D-04 -0.73123780D-04
 -0.56066677D-04 -0.27981201D-04 -0.40539895D-04 -0.31083421D-04 -0.15512805D-04
  0.35367595D-08  0.27117628D-08  0.13533597D-08  0.38131554D-03 -0.11663094D-03
  0.66721910D-05  0.12256747D-08  0.18035939D-04  0.44810030D-04  0.14446531D-04
  0.14470433D-04  0.71940200D-08 -0.60534078D-08 -0.51847955D-05 -0.87943945D-05
 -0.10012107D-04 -0.41876369D-04  0.13362654D-04  0.22665590D-04  0.25803973D-04
  0.74510101D-04 -0.11062577D-04 -0.18764225D-04 -0.21362407D-04 -0.14559798D-03
  0.82558286D+00  0.15195132D+01  0.24588591D+01  0.32322392D+01  0.27722728D+01
  0.94788714D+00 -0.15799758D-01 -0.70498215D-02  0.20818217D-01 -0.93401144D-03
 -0.71960546D-03 -0.31594556D-03  0.32283177D-02  0.24872447D-02  0.10920344D-02
 -0.49364421D-06 -0.38032625D-06 -0.16698371D-06  0.40655862D-02  0.31528190D-03
  0.24372917D-03  0.59435720D-08 -0.93299675D-02 -0.93915057D-02 -0.92998642D-02
  0.16566080D-03 -0.29813220D-07  0.29895609D-07  0.51722990D-04  0.95197912D-04
  0.15404819D-03  0.20250066D-03  0.17368364D-03  0.59385386D-04 -0.17105235D-03
 -0.76323227D-04  0.22538351D-03  0.16997372D-03  0.13095559D-03  0.57496557D-04
  0.52693016D-04  0.40597128D-04  0.17824326D-04  0.58191924D-07  0.44833740D-07
  0.19684427D-07 -0.50608523D-03 -0.19042925D-03 -0.47037022D-04  0.74285558D-08
  0.95011520D-04  0.18180267D-03  0.17723270D-03  0.16814890D-04  0.52098021D-08
  0.12523844D-06  0.88491849D-04  0.15009893D-03  0.17088232D-03 -0.20993137D-03
  0.21279000D-04  0.36093211D-04  0.41090846D-04 -0.27566243D-04  0.55590389D-05
  0.10255341D-04  0.16555301D-04  0.21550082D-04  0.18388724D-04  0.63491846D-05
 -0.18904004D-04 -0.87128381D-05  0.24431707D-04 -0.31159295D-05 -0.23890971D-05
 -0.11923269D-05 -0.46082573D-06 -0.35333194D-06 -0.17633740D-06  0.17161552D-08
  0.13158390D-08  0.65669587D-09 -0.22108902D-04  0.94492884D-05 -0.17609611D-06
 -0.44390044D-08 -0.15543132D-05  0.18733812D-04  0.22311217D-04  0.11984144D-04
 -0.16247320D-08  0.21993955D-08  0.18129366D-05  0.30750835D-05  0.35008739D-05
  0.40632868D-05  0.18109384D-05  0.30716943D-05  0.34970154D-05  0.40629384D-05
  0.27056230D-05  0.45892486D-05  0.52246973D-05 -0.14112199D-06
MO    3     MO 0.0        OCC NO =    1.0000000  ORB. ENERGY =  -10.485524
  0.29377657D-04  0.54196041D-04  0.87489214D-04  0.11388496D-03  0.97178244D-04
  0.33553312D-04 -0.88300343D-04 -0.40697547D-04  0.11412017D-03  0.16499095D-03
  0.12650459D-03  0.63134659D-04 -0.76711522D-05 -0.58817530D-05 -0.29354070D-05
 -0.38423357D-08 -0.29460593D-08 -0.14702901D-08 -0.14354580D-02  0.49237747D-03
  0.44290487D-03 -0.30835781D-07  0.61727719D-04  0.12945713D-04  0.49829731D-04
  0.44260181D-04 -0.23286501D-08  0.16977394D-07  0.16176428D-02  0.29842351D-02
  0.48174808D-02  0.62709286D-02  0.53509948D-02  0.18475699D-02  0.30143884D-03
  0.13893289D-03 -0.38958232D-03  0.76465916D-04  0.58629214D-04  0.29260087D-04
  0.31810543D-03  0.24390307D-03  0.12172472D-03  0.11164407D-07  0.85601590D-08
  0.42721193D-08  0.25047893D-02  0.24351359D-03 -0.12031905D-02  0.13214038D-07
 -0.41601267D-03 -0.20199312D-03 -0.35112938D-03 -0.12302096D-03  0.40393949D-08
 -0.10425370D-07  0.53218214D+00  0.98177213D+00  0.15848846D+01  0.20630489D+01
  0.17604033D+01  0.60782497D+00 -0.19999183D-01 -0.92176052D-02  0.25847127D-01
 -0.89785323D-03 -0.68841691D-03 -0.34356829D-03 -0.21591498D-03 -0.16554991D-03
 -0.82621008D-04  0.14679927D-06  0.11255637D-06  0.56173519D-07 -0.39948555D-02
 -0.17783435D-02  0.33847196D-03  0.28769089D-07 -0.97034686D-02 -0.10342396D-01
 -0.10479316D-01 -0.69572882D-04 -0.13796166D-06 -0.35443433D-07  0.18626002D-01
  0.34361337D-01  0.55469851D-01  0.72205265D-01  0.61612883D-01  0.21273448D-01
 -0.35138700D-03 -0.16195395D-03  0.45413577D-03  0.95400552D-04  0.73147092D-04
  0.36505525D-04 -0.34218138D-03 -0.26236298D-03 -0.13093752D-03 -0.17133640D-07
 -0.13136989D-07 -0.65562781D-08  0.21868959D-02  0.56777849D-03  0.11312411D-02
 -0.16209210D-07 -0.85702500D-03 -0.82162740D-03 -0.72137595D-03  0.28600254D-03
  0.70541410D-08 -0.17961191D-07  0.63081880D-04  0.11637375D-03  0.18786332D-03
  0.24454222D-03  0.20866832D-03  0.72048157D-04 -0.41486299D-04 -0.19120997D-04
  0.53617273D-04  0.13051410D-03  0.10006993D-03  0.49941910D-04 -0.74776385D-04
 -0.57333789D-04 -0.28613579D-04  0.11847704D-07  0.90840678D-08  0.45335865D-08
 -0.12648691D-02  0.83951011D-04 -0.63120450D-03  0.81418229D-08  0.12108647D-03
 -0.46443520D-05  0.59406965D-05 -0.67469916D-04  0.76030907D-08  0.13224527D-07
 -0.63253334D-04 -0.11669005D-03 -0.18837392D-03 -0.24520688D-03 -0.20923547D-03
 -0.72243980D-04  0.14695967D-03  0.67733580D-04 -0.18993203D-03  0.12394271D-03
  0.95031409D-04  0.47427333D-04 -0.54028501D-05 -0.41425628D-05 -0.20674292D-05
  0.24404865D-09  0.18712103D-09  0.93386506D-10  0.11594925D-02 -0.67227780D-03
  0.78555811D-04 -0.82445766D-08 -0.22420689D-04  0.63381217D-04 -0.13753492D-03
  0.40444081D-04 -0.53416129D-08 -0.16828611D-07 -0.23978851D-04 -0.40672670D-04
 -0.46304397D-04 -0.14823006D-03  0.40308795D-04  0.68371346D-04  0.77838361D-04
  0.37272795D-03 -0.29687409D-04 -0.50355465D-04 -0.57327917D-04 -0.13936713D-03
 -0.76952248D-04 -0.14163322D-03 -0.22918928D-03 -0.30127572D-03 -0.25840244D-03
 -0.88352181D-04  0.27455952D-03  0.12250792D-03 -0.36176754D-03 -0.17998112D-03
 -0.13866575D-03 -0.60881733D-04 -0.88091449D-05 -0.67869713D-05 -0.29798459D-05
 -0.30991071D-07 -0.23876949D-07 -0.10483267D-07  0.79946177D-03  0.21380461D-03
  0.85144185D-04  0.15680025D-07 -0.25143802D-03 -0.23149390D-03 -0.28601195D-03
  0.67859137D-04 -0.42660632D-08  0.10800214D-07  0.11421588D-03  0.21021818D-03
  0.34017270D-03  0.44716654D-03  0.38353214D-03  0.13113615D-03 -0.64388806D-03
 -0.28730160D-03  0.84840547D-03  0.53919734D-04  0.41542248D-04  0.18239284D-04
 -0.64791441D-04 -0.49918313D-04 -0.21916828D-04  0.44718787D-07  0.34453415D-07
  0.15126905D-07 -0.15383443D-02 -0.73257119D-03  0.91183726D-04  0.46229362D-07
 -0.42227913D-03  0.70339977D-03  0.90771555D-03  0.34447609D-03  0.15225479D-06
  0.11530837D-06  0.53890999D-06  0.91409335D-06  0.10406630D-05  0.45084679D-04
  0.31953846D-04  0.54199770D-04  0.61704522D-04 -0.62687589D-04 -0.32490037D-05
 -0.59937774D-05 -0.96758152D-05 -0.12595036D-04 -0.10747367D-04 -0.37108077D-05
  0.19795513D-04  0.91237341D-05 -0.25583903D-04 -0.69975768D-04 -0.53652980D-04
 -0.26776598D-04  0.27401891D-04  0.21010032D-04  0.10485479D-04  0.10866411D-07
  0.83316744D-08  0.41580894D-08  0.28486246D-03 -0.81455552D-04  0.20680989D-04
 -0.40995983D-07  0.89662660D-05  0.34485309D-05 -0.30672062D-05 -0.76785763D-05
  0.26976933D-07  0.22685028D-07 -0.56853858D-05 -0.96434903D-05 -0.10978773D-04
 -0.40380662D-05 -0.56951731D-05 -0.96600915D-05 -0.10997673D-04 -0.40631247D-05
 -0.34592369D-05 -0.58675206D-05 -0.66799648D-05 -0.11945217D-04
MO    4     MO 0.0        OCC NO =    1.0000000  ORB. ENERGY =  -10.478204
 -0.66732946D-04 -0.12310925D-03 -0.19873651D-03 -0.25869588D-03 -0.22074567D-03
 -0.76218174D-04  0.13969759D-03  0.64386491D-04 -0.18054644D-03  0.37635925D-04
  0.28856840D-04  0.14401586D-04  0.51209919D-04  0.39264518D-04  0.19595746D-04
 -0.13345630D-07 -0.10232583D-07 -0.51067761D-08  0.11456132D-02 -0.48479593D-03
 -0.36400653D-03  0.36858002D-07  0.77563144D-05 -0.19473278D-04 -0.13729843D-03
 -0.61479780D-04 -0.64860514D-08 -0.26212012D-07 -0.46421915D-04 -0.85639369D-04
 -0.13824849D-03 -0.17995846D-03 -0.15355888D-03 -0.53020192D-04 -0.71195503D-04
 -0.32813942D-04  0.92013720D-04  0.87287108D-04  0.66926218D-04  0.33400873D-04
  0.13113171D-03  0.10054348D-03  0.50178241D-04 -0.22462923D-07 -0.17223145D-07
 -0.85955562D-08 -0.15304337D-02 -0.28383736D-03  0.65083265D-03 -0.43282785D-08
  0.71974283D-04  0.85968110D-04  0.33602345D-04  0.11170969D-03 -0.14686532D-07
 -0.19077156D-08 -0.18940369D-01 -0.34941282D-01 -0.56406062D-01 -0.73423934D-01
 -0.62652776D-01 -0.21632498D-01  0.10522539D-02  0.48498285D-03 -0.13599425D-02
 -0.94751336D-04 -0.72649315D-04 -0.36257100D-04  0.33998855D-03  0.26068165D-03
  0.13009842D-03 -0.35886588D-07 -0.27515559D-07 -0.13732192D-07  0.26060554D-02
  0.13074294D-02 -0.50566753D-03 -0.11613896D-07 -0.62312896D-04 -0.28482489D-03
  0.20600108D-04 -0.78672657D-04  0.50004577D-07 -0.71982958D-08  0.53221211D+00
  0.98182742D+00  0.15849739D+01  0.20631651D+01  0.17605025D+01  0.60785920D+00
 -0.19983078D-01 -0.92101823D-02  0.25826312D-01 -0.84789607D-03 -0.65011293D-03
 -0.32445191D-03 -0.26435619D-03 -0.20269156D-03 -0.10115729D-03 -0.53916232D-07
 -0.41339547D-07 -0.20631331D-07 -0.40318441D-02 -0.12604305D-02 -0.15419789D-02
  0.23641325D-07 -0.99521438D-02 -0.98020565D-02 -0.10434500D-01  0.62351623D-03
  0.46424258D-07 -0.55925179D-07  0.14596329D-02  0.26927377D-02  0.43469135D-02
  0.56583898D-02  0.48283143D-02  0.16671009D-02  0.32266324D-03  0.14871519D-03
 -0.41701293D-03  0.25699639D-03  0.19704853D-03  0.98341028D-04 -0.18257594D-03
 -0.13998765D-03 -0.69863648D-04  0.59912180D-08  0.45936859D-08  0.22925712D-08
  0.26839258D-02 -0.42885564D-03  0.11894832D-02 -0.14709029D-07 -0.37143373D-03
 -0.22451962D-03 -0.36346706D-03 -0.16302987D-03 -0.69355776D-09 -0.13242407D-07
  0.40877424D-04  0.75410866D-04  0.12173652D-03  0.15846478D-03  0.13521828D-03
  0.46687623D-04 -0.11859407D-03 -0.54659900D-04  0.15327206D-03  0.90165853D-04
  0.69133457D-04  0.34502440D-04  0.49820879D-04  0.38199490D-04  0.19064223D-04
  0.45754866D-08  0.35081929D-08  0.17508341D-08 -0.15604063D-02  0.69193924D-03
  0.11040631D-03 -0.21372127D-07  0.15036429D-04  0.14713796D-04  0.70855209D-04
 -0.10500818D-04 -0.28234435D-07  0.28867657D-07  0.26477851D-04  0.44911447D-04
  0.51130096D-04  0.16844408D-03 -0.25105321D-04 -0.42583376D-04 -0.48479668D-04
 -0.16883533D-03  0.46474145D-04  0.78828946D-04  0.89743969D-04  0.35411142D-03
  0.13826169D-03  0.25447532D-03  0.41178911D-03  0.54130831D-03  0.46427699D-03
  0.15874419D-03 -0.73630838D-03 -0.32853937D-03  0.97018115D-03  0.38084614D-04
  0.29342142D-04  0.12882781D-04 -0.15563432D-04 -0.11990785D-04 -0.52646006D-05
  0.31931632D-07  0.24601601D-07  0.10801428D-07 -0.18402628D-02 -0.52386599D-03
 -0.58793094D-03 -0.14427147D-07  0.29828914D-03  0.20508839D-03  0.10229395D-02
 -0.11290677D-02 -0.67244242D-07 -0.26519850D-08 -0.78798038D-04 -0.14503045D-03
 -0.23468665D-03 -0.30850217D-03 -0.26460052D-03 -0.90471412D-04  0.31410484D-03
  0.14015297D-03 -0.41387359D-03 -0.12703393D-03 -0.97872796D-04 -0.42971429D-04
  0.36825601D-04  0.28372140D-04  0.12456898D-04 -0.11177321D-06 -0.86115231D-07
 -0.37809225D-07  0.86670922D-03  0.27083800D-03  0.23283794D-05  0.17852056D-07
 -0.14440703D-03 -0.27490348D-03 -0.33675784D-03 -0.38636654D-04 -0.43678930D-07
 -0.12424530D-07  0.43942905D-04  0.74535484D-04  0.84856014D-04 -0.29313566D-04
 -0.15336284D-04 -0.26013241D-04 -0.29615155D-04  0.72121556D-04 -0.20228640D-04
 -0.37317892D-04 -0.60242648D-04 -0.78418028D-04 -0.66914245D-04 -0.23103881D-04
  0.52999720D-04  0.24427523D-04 -0.68497323D-04  0.48969045D-04  0.37546358D-04
  0.18738264D-04  0.15881213D-05  0.12176707D-05  0.60770301D-06 -0.43564832D-07
 -0.33402750D-07 -0.16670313D-07 -0.68775546D-04 -0.81658166D-05 -0.73307443D-04
  0.66315875D-07  0.19060802D-04 -0.98046429D-04 -0.41868999D-04  0.60613096D-04
  0.34762360D-07  0.20062060D-06 -0.87744739D-05 -0.14883169D-04 -0.16943961D-04
 -0.18246434D-04 -0.87875404D-05 -0.14905332D-04 -0.16969193D-04 -0.18238357D-04
  0.23800065D-05  0.40369414D-05  0.45959151D-05  0.32399126D-04
MO    5     MO 0.0        OCC NO =    1.0000000  ORB. ENERGY =  -10.412487
  0.35453614D-01  0.65404995D-01  0.10558394D+00  0.13743892D+00  0.11727688D+00
  0.40492888D-01 -0.10930805D-02 -0.50379982D-03  0.14127073D-02 -0.11513122D-03
 -0.88275319D-04 -0.44055571D-04  0.44680066D-03  0.34257841D-03  0.17097064D-03
  0.88062028D-08  0.67520378D-08  0.33697401D-08  0.14698997D-02 -0.11962046D-03
 -0.60927549D-03  0.13652615D-07 -0.10091032D-02 -0.12294340D-02 -0.94110233D-03
  0.21281492D-03 -0.15538723D-07  0.31689367D-07  0.57373967D-03  0.10584377D-02
  0.17086466D-02  0.22241502D-02  0.18978714D-02  0.65528937D-03 -0.56463324D-04
 -0.26023895D-04  0.72973717D-04 -0.65145706D-04 -0.49949595D-04 -0.24928349D-04
  0.19448240D-04  0.14911677D-04  0.74419720D-05 -0.13950365D-07 -0.10696255D-07
 -0.53381811D-08 -0.72566965D-03 -0.40055111D-04  0.36642573D-03  0.33825209D-08
  0.40848511D-04  0.18520563D-04  0.25695610D-04 -0.58890263D-04  0.82028686D-08
 -0.13595366D-07  0.28894535D-05  0.53304775D-05  0.86050435D-05  0.11201210D-04
  0.95580127D-05  0.33001521D-05  0.87269454D-04  0.40222412D-04 -0.11278784D-03
 -0.36022072D-04 -0.27619440D-04 -0.13784036D-04 -0.27088781D-05 -0.20769959D-05
 -0.10365665D-05 -0.18264149D-08 -0.14003791D-08 -0.69888732D-09  0.60619824D-03
  0.39145981D-03  0.48280281D-04 -0.14581683D-07 -0.46476830D-04 -0.22079528D-04
 -0.89760475D-04  0.33095026D-04  0.39610680D-08 -0.98976328D-08 -0.47781406D-05
 -0.88147365D-05 -0.14229718D-04 -0.18522865D-04 -0.15805594D-04 -0.54572917D-05
 -0.37978062D-04 -0.17504054D-04  0.49083194D-04 -0.66038279D-05 -0.50633964D-05
 -0.25269897D-05 -0.10796692D-04 -0.82782190D-05 -0.41314115D-05  0.11168286D-08
  0.85631332D-09  0.42736036D-09 -0.70176704D-03 -0.33509901D-03 -0.16473109D-03
  0.87373610D-08  0.92314835D-04  0.29613132D-04  0.38078173D-04 -0.25835003D-04
  0.28705092D-08 -0.28823151D-08  0.44357001D-02  0.81830006D-02  0.13209900D-01
  0.17195365D-01  0.14672836D-01  0.50661777D-02  0.72980302D-04  0.33636555D-04
 -0.94320410D-04 -0.27148506D-03 -0.20815752D-03 -0.10388519D-03 -0.36675294D-03
 -0.28120289D-03 -0.14033995D-03  0.13571331D-07  0.10405635D-07  0.51931414D-08
  0.15688633D-02 -0.18070561D-04  0.56226936D-03 -0.22287424D-07 -0.47109727D-03
 -0.45595977D-03 -0.31072970D-03 -0.26576100D-03  0.12646440D-07 -0.61980245D-08
  0.53128516D+00  0.98011739D+00  0.15822134D+01  0.20595717D+01  0.17574362D+01
  0.60680050D+00 -0.19896112D-01 -0.91700999D-02  0.25713917D-01 -0.46039671D-03
 -0.35300300D-03 -0.17617324D-03  0.30643292D-03  0.23495332D-03  0.11725818D-03
 -0.65678201D-08 -0.50357878D-08 -0.25132111D-08 -0.36639272D-02  0.52804400D-03
 -0.22602436D-03  0.53692160D-07 -0.10348408D-01 -0.10136298D-01 -0.10424908D-01
  0.34640231D-04  0.16608717D-06 -0.51735429D-07 -0.46947103D-05 -0.79631172D-05
 -0.90657275D-05  0.12585717D-03 -0.16183697D-04 -0.27450614D-04 -0.31251554D-04