 Entering Link 1 = D:\Gaussian\G16W\l1.exe PID=     25140.
  
 Copyright (c) 1988,1990,1992,1993,1995,1998,2003,2009,2016,
            Gaussian, Inc.  All Rights Reserved.
  
 This is part of the Gaussian(R) 16 program.  It is based on
 the Gaussian(R) 09 system (copyright 2009, Gaussian, Inc.),
 the Gaussian(R) 03 system (copyright 2003, Gaussian, Inc.),
 the Gaussian(R) 98 system (copyright 1998, Gaussian, Inc.),
 the Gaussian(R) 94 system (copyright 1995, Gaussian, Inc.),
 the Gaussian 92(TM) system (copyright 1992, Gaussian, Inc.),
 the Gaussian 90(TM) system (copyright 1990, Gaussian, Inc.),
 the Gaussian 88(TM) system (copyright 1988, Gaussian, Inc.),
 the Gaussian 86(TM) system (copyright 1986, Carnegie Mellon
 University), and the Gaussian 82(TM) system (copyright 1983,
 Carnegie Mellon University). Gaussian is a federally registered
 trademark of Gaussian, Inc.
  
 This software contains proprietary and confidential information,
 including trade secrets, belonging to Gaussian, Inc.
  
 This software is provided under written license and may be
 used, copied, transmitted, or stored only in accord with that
 written license.
  
 The following legend is applicable only to US Government
 contracts under FAR:
  
                    RESTRICTED RIGHTS LEGEND
  
 Use, reproduction and disclosure by the US Government is
 subject to restrictions as set forth in subparagraphs (a)
 and (c) of the Commercial Computer Software - Restricted
 Rights clause in FAR 52.227-19.
  
 Gaussian, Inc.
 340 Quinnipiac St., Bldg. 40, Wallingford CT 06492
  
  
 ---------------------------------------------------------------
 Warning -- This program may not be used in any manner that
 competes with the business of Gaussian, Inc. or will provide
 assistance to any competitor of Gaussian, Inc.  The licensee
 of this program is prohibited from giving any competitor of
 Gaussian, Inc. access to this program.  By using this program,
 the user acknowledges that Gaussian, Inc. is engaged in the
 business of creating and licensing software in the field of
 computational chemistry and represents and warrants to the
 licensee that it is not a competitor of Gaussian, Inc. and that
 it will not use this program in any manner prohibited above.
 ---------------------------------------------------------------
  

 Cite this work as:
 Gaussian 16, Revision A.03,
 M. J. Frisch, G. W. Trucks, H. B. Schlegel, G. E. Scuseria, 
 M. A. Robb, J. R. Cheeseman, G. Scalmani, V. Barone, 
 G. A. Petersson, H. Nakatsuji, X. Li, M. Caricato, A. V. Marenich, 
 J. Bloino, B. G. Janesko, R. Gomperts, B. Mennucci, H. P. Hratchian, 
 J. V. Ortiz, A. F. Izmaylov, J. L. Sonnenberg, D. Williams-Young, 
 F. Ding, F. Lipparini, F. Egidi, J. Goings, B. Peng, A. Petrone, 
 T. Henderson, D. Ranasinghe, V. G. Zakrzewski, J. Gao, N. Rega, 
 G. Zheng, W. Liang, M. Hada, M. Ehara, K. Toyota, R. Fukuda, 
 J. Hasegawa, M. Ishida, T. Nakajima, Y. Honda, O. Kitao, H. Nakai, 
 T. Vreven, K. Throssell, J. A. Montgomery, Jr., J. E. Peralta, 
 F. Ogliaro, M. J. Bearpark, J. J. Heyd, E. N. Brothers, K. N. Kudin, 
 V. N. Staroverov, T. A. Keith, R. Kobayashi, J. Normand, 
 K. Raghavachari, A. P. Rendell, J. C. Burant, S. S. Iyengar, 
 J. Tomasi, M. Cossi, J. M. Millam, M. Klene, C. Adamo, R. Cammi, 
 J. W. Ochterski, R. L. Martin, K. Morokuma, O. Farkas, 
 J. B. Foresman, and D. J. Fox, Gaussian, Inc., Wallingford CT, 2016.
 
 ******************************************
 Gaussian 16:  EM64W-G16RevA.03 17-Dec-2016
                03-Dec-2025 
 ******************************************
 %nprocs=   4
 Will use up to    4 processors via shared memory.
 ------------------------------------
 #P B3LYP/6-31G* SCF=conver=7 out=wfn
 ------------------------------------
 1/38=1,172=1/1;
 2/12=2,17=6,18=5,40=1/2;
 3/5=1,6=6,7=1,11=2,25=1,30=1,74=-5/1,2,3;
 4//1;
 5/5=2,6=7,38=5/2;
 6/7=2,8=2,9=2,10=2,28=1/1;
 99/5=1,6=100,9=1/99;
 Leave Link    1 at Wed Dec 03 16:44:49 2025, MaxMem=           0 cpu:               0.0 elap:               0.1
 (Enter D:\Gaussian\G16W\l101.exe)
 ----------------------------------------------------
 Generated by Multiwfn (http://sobereva.com/multiwfn)
 ----------------------------------------------------
 Symbolic Z-matrix:
 Charge =  0 Multiplicity = 1
 C                     1.13115   1.29551  -0.00008 
 C                    -0.23759   1.57935  -0.00005 
 C                    -1.15898   0.54513  -0.00001 
 C                    -0.71803  -0.78772   0.00001 
 C                     0.64304  -1.05744   0.00001 
 C                     1.58715  -0.02189  -0.00002 
 H                     1.84231   2.11377  -0.00014 
 H                    -0.58285   2.60935  -0.00005 
 H                     0.95493  -2.0962   0. 
 O                    -1.61847  -1.81053   0.00001 
 O                    -2.5289    0.70702   0.00008 
 H                    -2.50226  -1.42117  -0.00021 
 H                    -2.74742   1.6435   -0.00109 
 C                     3.06336  -0.34201   0.00015 
 H                     3.34431  -0.9264    0.88215 
 H                     3.34391  -0.92928  -0.88005 
 H                     3.66547   0.56893  -0.00145 
 
 ITRead=  0  0  0  0  0  0  0  0  0  0  0  0  0  0  0  0  0
 MicOpt= -1 -1 -1 -1 -1 -1 -1 -1 -1 -1 -1 -1 -1 -1 -1 -1 -1
 NAtoms=     17 NQM=       17 NQMF=       0 NMMI=      0 NMMIF=      0
                NMic=       0 NMicF=      0.
                    Isotopes and Nuclear Properties:
 (Nuclear quadrupole moments (NQMom) in fm**2, nuclear magnetic moments (NMagM)
  in nuclear magnetons)

  Atom         1           2           3           4           5           6           7           8           9          10
 IAtWgt=          12          12          12          12          12          12           1           1           1          16
 AtmWgt=  12.0000000  12.0000000  12.0000000  12.0000000  12.0000000  12.0000000   1.0078250   1.0078250   1.0078250  15.9949146
 NucSpn=           0           0           0           0           0           0           1           1           1           0
 AtZEff=   0.0000000   0.0000000   0.0000000   0.0000000   0.0000000   0.0000000   0.0000000   0.0000000   0.0000000   0.0000000
 NQMom=    0.0000000   0.0000000   0.0000000   0.0000000   0.0000000   0.0000000   0.0000000   0.0000000   0.0000000   0.0000000
 NMagM=    0.0000000   0.0000000   0.0000000   0.0000000   0.0000000   0.0000000   2.7928460   2.7928460   2.7928460   0.0000000
 AtZNuc=   6.0000000   6.0000000   6.0000000   6.0000000   6.0000000   6.0000000   1.0000000   1.0000000   1.0000000   8.0000000

  Atom        11          12          13          14          15          16          17
 IAtWgt=          16           1           1          12           1           1           1
 AtmWgt=  15.9949146   1.0078250   1.0078250  12.0000000   1.0078250   1.0078250   1.0078250
 NucSpn=           0           1           1           0           1           1           1
 AtZEff=   0.0000000   0.0000000   0.0000000   0.0000000   0.0000000   0.0000000   0.0000000
 NQMom=    0.0000000   0.0000000   0.0000000   0.0000000   0.0000000   0.0000000   0.0000000
 NMagM=    0.0000000   2.7928460   2.7928460   0.0000000   2.7928460   2.7928460   2.7928460
 AtZNuc=   8.0000000   1.0000000   1.0000000   6.0000000   1.0000000   1.0000000   1.0000000
 Leave Link  101 at Wed Dec 03 16:44:49 2025, MaxMem=   104857600 cpu:               0.0 elap:               0.1
 (Enter D:\Gaussian\G16W\l202.exe)
                          Input orientation:                          
 ---------------------------------------------------------------------
 Center     Atomic      Atomic             Coordinates (Angstroms)
 Number     Number       Type             X           Y           Z
 ---------------------------------------------------------------------
      1          6           0        1.131145    1.295505   -0.000078
      2          6           0       -0.237590    1.579354   -0.000048
      3          6           0       -1.158979    0.545130   -0.000005
      4          6           0       -0.718033   -0.787720    0.000014
      5          6           0        0.643040   -1.057438    0.000014
      6          6           0        1.587154   -0.021886   -0.000018
      7          1           0        1.842312    2.113769   -0.000137
      8          1           0       -0.582847    2.609352   -0.000052
      9          1           0        0.954928   -2.096201   -0.000003
     10          8           0       -1.618466   -1.810532    0.000009
     11          8           0       -2.528903    0.707021    0.000075
     12          1           0       -2.502256   -1.421173   -0.000206
     13          1           0       -2.747416    1.643496   -0.001093
     14          6           0        3.063355   -0.342012    0.000150
     15          1           0        3.344305   -0.926404    0.882146
     16          1           0        3.343907   -0.929275   -0.880048
     17          1           0        3.665466    0.568930   -0.001447
 ---------------------------------------------------------------------
                    Distance matrix (angstroms):
                    1          2          3          4          5
     1  C    0.000000
     2  C    1.397858   0.000000
     3  C    2.409923   1.385127   0.000000
     4  C    2.785549   2.415339   1.403895   0.000000
     5  C    2.403037   2.779961   2.411534   1.387540   0.000000
     6  C    1.394082   2.427686   2.804060   2.429072   1.401328
     7  H    1.084119   2.147462   3.386499   3.869626   3.390399
     8  H    2.159621   1.086323   2.143115   3.399761   3.866283
     9  H    3.396281   3.864169   3.383080   2.123893   1.084575
    10  O    4.148232   3.660348   2.400057   1.362690   2.383602
    11  O    3.707056   2.451750   1.379457   2.348084   3.629675
    12  H    4.536733   3.759239   2.381332   1.893334   3.166258
    13  H    3.894141   2.510646   1.931202   3.166892   4.334771
    14  C    2.532765   3.819409   4.314525   3.807565   2.523838
    15  H    3.257802   4.459491   4.819042   4.159324   2.844672
    16  H    3.258882   4.460352   4.819163   4.158594   2.843522
    17  H    2.636417   4.031725   4.824504   4.588634   3.432220
                    6          7          8          9         10
     6  C    0.000000
     7  H    2.150844   0.000000
     8  H    3.410618   2.475277   0.000000
     9  H    2.168523   4.302476   4.950453   0.000000
    10  O    3.670866   5.232315   4.539590   2.589201   0.000000
    11  O    4.180099   4.592000   2.721396   4.471592   2.677119
    12  H    4.322184   5.600990   4.464220   3.522468   0.965756
    13  H    4.643490   4.613758   2.370282   5.262384   3.633846
    14  C    1.510513   2.742591   4.690985   2.742744   4.906730
    15  H    2.164243   3.503863   5.357459   2.802808   5.117513
    16  H    2.164252   3.505588   5.358700   2.800610   5.116274
    17  H    2.160659   2.389648   4.712906   3.801308   5.794979
                   11         12         13         14         15
    11  O    0.000000
    12  H    2.128361   0.000000
    13  H    0.961631   3.074459   0.000000
    14  C    5.689800   5.669269   6.140627   0.000000
    15  H    6.159602   5.933432   6.670349   1.094698   0.000000
    16  H    6.159706   5.932428   6.670527   1.094685   1.762196
    17  H    6.195908   6.480841   6.502288   1.091950   1.766325
                   16         17
    16  H    0.000000
    17  H    1.766340   0.000000
 Stoichiometry    C7H8O2
 Framework group  C1[X(C7H8O2)]
 Deg. of freedom    45
 Full point group                 C1      NOp   1
 Largest Abelian subgroup         C1      NOp   1
 Largest concise Abelian subgroup C1      NOp   1
                         Standard orientation:                         
 ---------------------------------------------------------------------
 Center     Atomic      Atomic             Coordinates (Angstroms)
 Number     Number       Type             X           Y           Z
 ---------------------------------------------------------------------
      1          6           0        1.131145    1.295505   -0.000078
      2          6           0       -0.237590    1.579354   -0.000048
      3          6           0       -1.158979    0.545130   -0.000005
      4          6           0       -0.718033   -0.787720    0.000014
      5          6           0        0.643040   -1.057438    0.000014
      6          6           0        1.587154   -0.021886   -0.000018
      7          1           0        1.842312    2.113769   -0.000137
      8          1           0       -0.582847    2.609352   -0.000052
      9          1           0        0.954928   -2.096201   -0.000003
     10          8           0       -1.618466   -1.810532    0.000009
     11          8           0       -2.528903    0.707021    0.000075
     12          1           0       -2.502256   -1.421173   -0.000206
     13          1           0       -2.747416    1.643496   -0.001093
     14          6           0        3.063355   -0.342012    0.000150
     15          1           0        3.344305   -0.926404    0.882146
     16          1           0        3.343907   -0.929275   -0.880048
     17          1           0        3.665466    0.568930   -0.001447
 ---------------------------------------------------------------------
 Rotational constants (GHZ):           3.1506510           1.3084430           0.9298267
 Leave Link  202 at Wed Dec 03 16:44:49 2025, MaxMem=   104857600 cpu:               0.0 elap:               0.0
 (Enter D:\Gaussian\G16W\l301.exe)
 Standard basis: 6-31G(d) (6D, 7F)
 Ernie: Thresh=  0.10000D-02 Tol=  0.10000D-05 Strict=F.
 There are   151 symmetry adapted cartesian basis functions of A   symmetry.
 There are   151 symmetry adapted basis functions of A   symmetry.
   151 basis functions,   284 primitive gaussians,   151 cartesian basis functions
    33 alpha electrons       33 beta electrons
       nuclear repulsion energy       428.8992630119 Hartrees.
 IExCor=  402 DFT=T Ex+Corr=B3LYP ExCW=0 ScaHFX=  0.200000
 ScaDFX=  0.800000  0.720000  1.000000  0.810000 ScalE2=  1.000000  1.000000
 IRadAn=      5 IRanWt=     -1 IRanGd=            0 ICorTp=0 IEmpDi=  4
 NAtoms=   17 NActive=   17 NUniq=   17 SFac= 1.00D+00 NAtFMM=   60 NAOKFM=F Big=F
 Integral buffers will be    131072 words long.
 Raffenetti 2 integral format.
 Two-electron integral symmetry is turned on.
 Leave Link  301 at Wed Dec 03 16:44:49 2025, MaxMem=   104857600 cpu:               0.0 elap:               0.1
 (Enter D:\Gaussian\G16W\l302.exe)
 NPDir=0 NMtPBC=     1 NCelOv=     1 NCel=       1 NClECP=     1 NCelD=      1
         NCelK=      1 NCelE2=     1 NClLst=     1 CellRange=     0.0.
 One-electron integrals computed using PRISM.
 One-electron integral symmetry used in STVInt
 NBasis=   151 RedAO= T EigKep=  3.83D-04  NBF=   151
 NBsUse=   151 1.00D-06 EigRej= -1.00D+00 NBFU=   151
 Precomputing XC quadrature grid using
 IXCGrd= 4 IRadAn=           5 IRanWt=          -1 IRanGd=           0 AccXCQ= 0.00D+00.
 Generated NRdTot=       0 NPtTot=           0 NUsed=           0 NTot=          32
 NSgBfM=   151   151   151   151   151 MxSgAt=    17 MxSgA2=    17.
 Leave Link  302 at Wed Dec 03 16:44:49 2025, MaxMem=   104857600 cpu:               0.0 elap:               0.3
 (Enter D:\Gaussian\G16W\l303.exe)
 DipDrv:  MaxL=1.
 Leave Link  303 at Wed Dec 03 16:44:50 2025, MaxMem=   104857600 cpu:               0.0 elap:               0.1
 (Enter D:\Gaussian\G16W\l401.exe)
 ExpMin= 1.61D-01 ExpMax= 5.48D+03 ExpMxC= 8.25D+02 IAcc=3 IRadAn=         5 AccDes= 0.00D+00
 Harris functional with IExCor=  402 and IRadAn=       5 diagonalized for initial guess.
 HarFok:  IExCor=  402 AccDes= 0.00D+00 IRadAn=         5 IDoV= 1 UseB2=F ITyADJ=14
 ICtDFT=  3500011 ScaDFX=  1.000000  1.000000  1.000000  1.000000
 FoFCou: FMM=F IPFlag=           0 FMFlag=      100000 FMFlg1=           0
         NFxFlg=           0 DoJE=T BraDBF=F KetDBF=T FulRan=T
         wScrn=  0.000000 ICntrl=       500 IOpCl=  0 I1Cent=   200000004 NGrid=           0
         NMat0=    1 NMatS0=      1 NMatT0=    0 NMatD0=    1 NMtDS0=    0 NMtDT0=    0
 Petite list used in FoFCou.
 Harris En= -422.039588658345    
 JPrj=0 DoOrth=F DoCkMO=F.
 Leave Link  401 at Wed Dec 03 16:44:51 2025, MaxMem=   104857600 cpu:               1.0 elap:               0.9
 (Enter D:\Gaussian\G16W\l502.exe)
 Keep R1 ints in memory in canonical form, NReq=69757708.
 FoFCou: FMM=F IPFlag=           0 FMFlag=           0 FMFlg1=           0
         NFxFlg=           0 DoJE=F BraDBF=F KetDBF=F FulRan=T
         wScrn=  0.000000 ICntrl=       600 IOpCl=  0 I1Cent=           0 NGrid=           0
         NMat0=    1 NMatS0=  11476 NMatT0=    0 NMatD0=    1 NMtDS0=    0 NMtDT0=    0
 Symmetry not used in FoFCou.
 Two-electron integral symmetry not used.
 Closed shell SCF:
 Using DIIS extrapolation, IDIIS=  1040.
 NGot=   104857600 LenX=    38954258 LenY=    38931016
 Requested convergence on RMS density matrix=1.00D-07 within 128 cycles.
 Requested convergence on MAX density matrix=1.00D-05.
 Requested convergence on             energy=1.00D-05.
 No special actions if energy rises.
 Integral accuracy reduced to 1.0D-05 until final iterations.

 Cycle   1  Pass 0  IDiag  1:
 E= -421.758199273206    
 DIIS: error= 3.75D-02 at cycle   1 NSaved=   1.
 NSaved= 1 IEnMin= 1 EnMin= -421.758199273206     IErMin= 1 ErrMin= 3.75D-02
 ErrMax= 3.75D-02  0.00D+00 EMaxC= 1.00D-01 BMatC= 2.45D-01 BMatP= 2.45D-01
 IDIUse=3 WtCom= 6.25D-01 WtEn= 3.75D-01
 Coeff-Com:  0.100D+01
 Coeff-En:   0.100D+01
 Coeff:      0.100D+01
 Gap=     0.224 Goal=   None    Shift=    0.000
 GapD=    0.224 DampG=1.000 DampE=0.500 DampFc=0.5000 IDamp=-1.
 Damping current iteration by 5.00D-01
 RMSDP=7.39D-03 MaxDP=1.35D-01              OVMax= 1.97D-01

 Cycle   2  Pass 0  IDiag  1:
 E= -421.864728827478     Delta-E=       -0.106529554271 Rises=F Damp=T
 DIIS: error= 5.75D-03 at cycle   2 NSaved=   2.
 NSaved= 2 IEnMin= 2 EnMin= -421.864728827478     IErMin= 2 ErrMin= 5.75D-03
 ErrMax= 5.75D-03  0.00D+00 EMaxC= 1.00D-01 BMatC= 1.37D-02 BMatP= 2.45D-01
 IDIUse=3 WtCom= 9.42D-01 WtEn= 5.75D-02
 Coeff-Com:  0.621D-01 0.938D+00
 Coeff-En:   0.113D+00 0.887D+00
 Coeff:      0.650D-01 0.935D+00
 Gap=     0.263 Goal=   None    Shift=    0.000
 RMSDP=2.16D-03 MaxDP=4.44D-02 DE=-1.07D-01 OVMax= 1.70D-01

 Cycle   3  Pass 0  IDiag  1:
 E= -421.983525391103     Delta-E=       -0.118796563625 Rises=F Damp=F
 DIIS: error= 8.35D-03 at cycle   3 NSaved=   3.
 NSaved= 3 IEnMin= 3 EnMin= -421.983525391103     IErMin= 2 ErrMin= 5.75D-03
 ErrMax= 8.35D-03  0.00D+00 EMaxC= 1.00D-01 BMatC= 1.41D-02 BMatP= 1.37D-02
 IDIUse=3 WtCom= 9.16D-01 WtEn= 8.35D-02
 Coeff-Com: -0.426D-02 0.505D+00 0.499D+00
 Coeff-En:   0.000D+00 0.000D+00 0.100D+01
 Coeff:     -0.390D-02 0.463D+00 0.541D+00
 Gap=     0.214 Goal=   None    Shift=    0.000
 RMSDP=1.28D-03 MaxDP=3.52D-02 DE=-1.19D-01 OVMax= 8.48D-02

 Cycle   4  Pass 0  IDiag  1:
 E= -421.995044361005     Delta-E=       -0.011518969903 Rises=F Damp=F
 DIIS: error= 4.21D-03 at cycle   4 NSaved=   4.
 NSaved= 4 IEnMin= 4 EnMin= -421.995044361005     IErMin= 4 ErrMin= 4.21D-03
 ErrMax= 4.21D-03  0.00D+00 EMaxC= 1.00D-01 BMatC= 3.67D-03 BMatP= 1.37D-02
 IDIUse=3 WtCom= 9.58D-01 WtEn= 4.21D-02
 Coeff-Com: -0.917D-02 0.732D-01 0.345D+00 0.591D+00
 Coeff-En:   0.000D+00 0.000D+00 0.250D+00 0.750D+00
 Coeff:     -0.879D-02 0.701D-01 0.341D+00 0.598D+00
 Gap=     0.211 Goal=   None    Shift=    0.000
 RMSDP=4.83D-04 MaxDP=1.11D-02 DE=-1.15D-02 OVMax= 3.07D-02

 Cycle   5  Pass 0  IDiag  1:
 E= -421.999004676892     Delta-E=       -0.003960315887 Rises=F Damp=F
 DIIS: error= 7.69D-04 at cycle   5 NSaved=   5.
 NSaved= 5 IEnMin= 5 EnMin= -421.999004676892     IErMin= 5 ErrMin= 7.69D-04
 ErrMax= 7.69D-04  0.00D+00 EMaxC= 1.00D-01 BMatC= 1.17D-04 BMatP= 3.67D-03
 IDIUse=3 WtCom= 9.92D-01 WtEn= 7.69D-03
 Coeff-Com: -0.334D-02 0.172D-01 0.158D+00 0.314D+00 0.513D+00
 Coeff-En:   0.000D+00 0.000D+00 0.000D+00 0.000D+00 0.100D+01
 Coeff:     -0.331D-02 0.171D-01 0.157D+00 0.312D+00 0.517D+00
 Gap=     0.212 Goal=   None    Shift=    0.000
 RMSDP=8.98D-05 MaxDP=1.90D-03 DE=-3.96D-03 OVMax= 3.95D-03

 Cycle   6  Pass 0  IDiag  1:
 E= -421.999096478973     Delta-E=       -0.000091802081 Rises=F Damp=F
 DIIS: error= 3.19D-04 at cycle   6 NSaved=   6.
 NSaved= 6 IEnMin= 6 EnMin= -421.999096478973     IErMin= 6 ErrMin= 3.19D-04
 ErrMax= 3.19D-04  0.00D+00 EMaxC= 1.00D-01 BMatC= 1.29D-05 BMatP= 1.17D-04
 IDIUse=3 WtCom= 9.97D-01 WtEn= 3.19D-03
 Coeff-Com: -0.423D-03-0.120D-02 0.323D-01 0.749D-01 0.284D+00 0.611D+00
 Coeff-En:   0.000D+00 0.000D+00 0.000D+00 0.000D+00 0.771D-01 0.923D+00
 Coeff:     -0.422D-03-0.119D-02 0.321D-01 0.746D-01 0.283D+00 0.612D+00
 Gap=     0.211 Goal=   None    Shift=    0.000
 RMSDP=2.68D-05 MaxDP=5.31D-04 DE=-9.18D-05 OVMax= 7.38D-04

 Cycle   7  Pass 0  IDiag  1:
 E= -421.999107336254     Delta-E=       -0.000010857281 Rises=F Damp=F
 DIIS: error= 3.42D-05 at cycle   7 NSaved=   7.
 NSaved= 7 IEnMin= 7 EnMin= -421.999107336254     IErMin= 7 ErrMin= 3.42D-05
 ErrMax= 3.42D-05  0.00D+00 EMaxC= 1.00D-01 BMatC= 2.44D-07 BMatP= 1.29D-05
 IDIUse=1 WtCom= 1.00D+00 WtEn= 0.00D+00
 Coeff-Com: -0.766D-04-0.817D-03 0.111D-01 0.262D-01 0.115D+00 0.261D+00
 Coeff-Com:  0.588D+00
 Coeff:     -0.766D-04-0.817D-03 0.111D-01 0.262D-01 0.115D+00 0.261D+00
 Coeff:      0.588D+00
 Gap=     0.212 Goal=   None    Shift=    0.000
 RMSDP=5.00D-06 MaxDP=1.32D-04 DE=-1.09D-05 OVMax= 2.58D-04

 Initial convergence to 1.0D-05 achieved.  Increase integral accuracy.
 Cycle   8  Pass 1  IDiag  1:
 E= -421.999100756515     Delta-E=        0.000006579739 Rises=F Damp=F
 DIIS: error= 1.64D-05 at cycle   1 NSaved=   1.
 NSaved= 1 IEnMin= 1 EnMin= -421.999100756515     IErMin= 1 ErrMin= 1.64D-05
 ErrMax= 1.64D-05  0.00D+00 EMaxC= 1.00D-01 BMatC= 6.47D-08 BMatP= 6.47D-08
 IDIUse=1 WtCom= 1.00D+00 WtEn= 0.00D+00
 Coeff-Com:  0.100D+01
 Coeff:      0.100D+01
 Gap=     0.211 Goal=   None    Shift=    0.000
 RMSDP=5.00D-06 MaxDP=1.32D-04 DE= 6.58D-06 OVMax= 2.94D-04

 Cycle   9  Pass 1  IDiag  1:
 E= -421.999100623599     Delta-E=        0.000000132916 Rises=F Damp=F
 DIIS: error= 2.63D-05 at cycle   2 NSaved=   2.
 NSaved= 2 IEnMin= 1 EnMin= -421.999100756515     IErMin= 1 ErrMin= 1.64D-05
 ErrMax= 2.63D-05  0.00D+00 EMaxC= 1.00D-01 BMatC= 1.89D-07 BMatP= 6.47D-08
 IDIUse=1 WtCom= 1.00D+00 WtEn= 0.00D+00
 Coeff-Com:  0.632D+00 0.368D+00
 Coeff:      0.632D+00 0.368D+00
 Gap=     0.212 Goal=   None    Shift=    0.000
 RMSDP=3.24D-06 MaxDP=8.48D-05 DE= 1.33D-07 OVMax= 2.14D-04

 Cycle  10  Pass 1  IDiag  1:
 E= -421.999100822098     Delta-E=       -0.000000198499 Rises=F Damp=F
 DIIS: error= 3.41D-06 at cycle   3 NSaved=   3.
 NSaved= 3 IEnMin= 3 EnMin= -421.999100822098     IErMin= 3 ErrMin= 3.41D-06
 ErrMax= 3.41D-06  0.00D+00 EMaxC= 1.00D-01 BMatC= 1.73D-09 BMatP= 6.47D-08
 IDIUse=1 WtCom= 1.00D+00 WtEn= 0.00D+00
 Coeff-Com:  0.312D+00 0.196D+00 0.491D+00
 Coeff:      0.312D+00 0.196D+00 0.491D+00
 Gap=     0.212 Goal=   None    Shift=    0.000
 RMSDP=3.62D-07 MaxDP=9.79D-06 DE=-1.98D-07 OVMax= 2.15D-05

 Cycle  11  Pass 1  IDiag  1:
 E= -421.999100823806     Delta-E=       -0.000000001709 Rises=F Damp=F
 DIIS: error= 8.07D-07 at cycle   4 NSaved=   4.
 NSaved= 4 IEnMin= 4 EnMin= -421.999100823806     IErMin= 4 ErrMin= 8.07D-07
 ErrMax= 8.07D-07  0.00D+00 EMaxC= 1.00D-01 BMatC= 1.46D-10 BMatP= 1.73D-09
 IDIUse=1 WtCom= 1.00D+00 WtEn= 0.00D+00
 Coeff-Com:  0.136D-01 0.183D-01 0.233D+00 0.735D+00
 Coeff:      0.136D-01 0.183D-01 0.233D+00 0.735D+00
 Gap=     0.212 Goal=   None    Shift=    0.000
 RMSDP=1.03D-07 MaxDP=2.28D-06 DE=-1.71D-09 OVMax= 6.04D-06

 Cycle  12  Pass 1  IDiag  1:
 E= -421.999100823937     Delta-E=       -0.000000000131 Rises=F Damp=F
 DIIS: error= 2.15D-07 at cycle   5 NSaved=   5.
 NSaved= 5 IEnMin= 5 EnMin= -421.999100823937     IErMin= 5 ErrMin= 2.15D-07
 ErrMax= 2.15D-07  0.00D+00 EMaxC= 1.00D-01 BMatC= 9.72D-12 BMatP= 1.46D-10
 IDIUse=1 WtCom= 1.00D+00 WtEn= 0.00D+00
 Coeff-Com: -0.106D-01-0.132D-02 0.832D-01 0.344D+00 0.584D+00
 Coeff:     -0.106D-01-0.132D-02 0.832D-01 0.344D+00 0.584D+00
 Gap=     0.212 Goal=   None    Shift=    0.000
 RMSDP=3.37D-08 MaxDP=7.55D-07 DE=-1.31D-10 OVMax= 1.81D-06

 SCF Done:  E(RB3LYP) =  -421.999100824     A.U. after   12 cycles
            NFock= 12  Conv=0.34D-07     -V/T= 2.0091
 KE= 4.182004969720D+02 PE=-1.841511219719D+03 EE= 5.724123589112D+02
 Leave Link  502 at Wed Dec 03 16:45:01 2025, MaxMem=   104857600 cpu:              10.0 elap:              10.4
 (Enter D:\Gaussian\G16W\l601.exe)
 Copying SCF densities to generalized density rwf, IOpCl= 0 IROHF=0.

 **********************************************************************

            Population analysis using the SCF density.

 **********************************************************************

 Orbital symmetries:
       Occupied  (A) (A) (A) (A) (A) (A) (A) (A) (A) (A) (A) (A)
                 (A) (A) (A) (A) (A) (A) (A) (A) (A) (A) (A) (A)
                 (A) (A) (A) (A) (A) (A) (A) (A) (A)
       Virtual   (A) (A) (A) (A) (A) (A) (A) (A) (A) (A) (A) (A)
                 (A) (A) (A) (A) (A) (A) (A) (A) (A) (A) (A) (A)
                 (A) (A) (A) (A) (A) (A) (A) (A) (A) (A) (A) (A)
                 (A) (A) (A) (A) (A) (A) (A) (A) (A) (A) (A) (A)
                 (A) (A) (A) (A) (A) (A) (A) (A) (A) (A) (A) (A)
                 (A) (A) (A) (A) (A) (A) (A) (A) (A) (A) (A) (A)
                 (A) (A) (A) (A) (A) (A) (A) (A) (A) (A) (A) (A)
                 (A) (A) (A) (A) (A) (A) (A) (A) (A) (A) (A) (A)
                 (A) (A) (A) (A) (A) (A) (A) (A) (A) (A) (A) (A)
                 (A) (A) (A) (A) (A) (A) (A) (A) (A) (A)
 The electronic state is 1-A.
 Alpha  occ. eigenvalues --  -19.18738 -19.16749 -10.24281 -10.23964 -10.18815
 Alpha  occ. eigenvalues --  -10.18784 -10.17836 -10.17722 -10.17585  -1.07304
 Alpha  occ. eigenvalues --   -1.04310  -0.84649  -0.76133  -0.73720  -0.68166
 Alpha  occ. eigenvalues --   -0.62394  -0.59947  -0.54678  -0.52048  -0.47425
 Alpha  occ. eigenvalues --   -0.45286  -0.43266  -0.42636  -0.40744  -0.40632
 Alpha  occ. eigenvalues --   -0.38703  -0.36707  -0.36141  -0.35107  -0.33706
 Alpha  occ. eigenvalues --   -0.31283  -0.23050  -0.20255
 Alpha virt. eigenvalues --    0.00895   0.02595   0.05476   0.09610   0.11862
 Alpha virt. eigenvalues --    0.13289   0.15794   0.15945   0.16621   0.19245
 Alpha virt. eigenvalues --    0.21120   0.22669   0.24900   0.27968   0.32421
 Alpha virt. eigenvalues --    0.34430   0.36374   0.38871   0.48366   0.51224
 Alpha virt. eigenvalues --    0.51987   0.54190   0.55602   0.56041   0.58131
 Alpha virt. eigenvalues --    0.60212   0.60541   0.62317   0.63654   0.65159
 Alpha virt. eigenvalues --    0.65542   0.68160   0.71141   0.72784   0.72873
 Alpha virt. eigenvalues --    0.76179   0.77701   0.79593   0.83077   0.86470
 Alpha virt. eigenvalues --    0.87214   0.88627   0.88849   0.92236   0.92335
 Alpha virt. eigenvalues --    0.94617   0.96357   0.97008   1.00950   1.01344
 Alpha virt. eigenvalues --    1.03526   1.05903   1.10975   1.13478   1.17839
 Alpha virt. eigenvalues --    1.23182   1.23450   1.24219   1.29929   1.33671
 Alpha virt. eigenvalues --    1.39161   1.40175   1.40934   1.41569   1.45644
 Alpha virt. eigenvalues --    1.46557   1.50275   1.66253   1.70588   1.74234
 Alpha virt. eigenvalues --    1.74556   1.78375   1.78884   1.84686   1.87097
 Alpha virt. eigenvalues --    1.87709   1.90350   1.92255   1.92990   1.95198
 Alpha virt. eigenvalues --    1.95894   2.00771   2.05756   2.10574   2.12015
 Alpha virt. eigenvalues --    2.17855   2.23442   2.28517   2.30267   2.32898
 Alpha virt. eigenvalues --    2.33440   2.35875   2.37403   2.40400   2.45240
 Alpha virt. eigenvalues --    2.45886   2.55822   2.58626   2.59444   2.67305
 Alpha virt. eigenvalues --    2.67414   2.77743   2.80173   2.84214   2.89844
 Alpha virt. eigenvalues --    2.90067   3.03551   3.19517   3.44284   3.86133
 Alpha virt. eigenvalues --    4.08411   4.10200   4.17290   4.20979   4.27757
 Alpha virt. eigenvalues --    4.38533   4.53297   4.91431
          Condensed to atoms (all electrons):
               1          2          3          4          5          6
     1  C    4.961357   0.471369  -0.009731  -0.042406  -0.030919   0.570507
     2  C    0.471369   5.105719   0.477076  -0.031518  -0.050337  -0.023596
     3  C   -0.009731   0.477076   4.781323   0.435557  -0.061320  -0.036501
     4  C   -0.042406  -0.031518   0.435557   4.583169   0.541857  -0.004117
     5  C   -0.030919  -0.050337  -0.061320   0.541857   5.064027   0.522762
     6  C    0.570507  -0.023596  -0.036501  -0.004117   0.522762   4.608240
     7  H    0.351520  -0.043905   0.003652   0.000481   0.006466  -0.038028
     8  H   -0.029260   0.341292  -0.044505   0.003606   0.000948   0.003455
     9  H    0.006181  -0.000100   0.008280  -0.037939   0.345469  -0.051210
    10  O    0.000122   0.005313  -0.064952   0.297258  -0.051191   0.002466
    11  O    0.003988  -0.066872   0.256225  -0.051120   0.003550   0.000186
    12  H   -0.000128   0.001251  -0.012896  -0.034039   0.005045  -0.000043
    13  H    0.000321  -0.004327  -0.025987   0.006176  -0.000157  -0.000024
    14  C   -0.053095   0.008255   0.000411   0.006042  -0.068091   0.353558
    15  H    0.000371  -0.000190   0.000026  -0.000021  -0.002506  -0.027191
    16  H    0.000388  -0.000190   0.000026  -0.000020  -0.002507  -0.027198
    17  H   -0.002811   0.000126   0.000013  -0.000157   0.003672  -0.029531
               7          8          9         10         11         12
     1  C    0.351520  -0.029260   0.006181   0.000122   0.003988  -0.000128
     2  C   -0.043905   0.341292  -0.000100   0.005313  -0.066872   0.001251
     3  C    0.003652  -0.044505   0.008280  -0.064952   0.256225  -0.012896
     4  C    0.000481   0.003606  -0.037939   0.297258  -0.051120  -0.034039
     5  C    0.006466   0.000948   0.345469  -0.051191   0.003550   0.005045
     6  C   -0.038028   0.003455  -0.051210   0.002466   0.000186  -0.000043
     7  H    0.611268  -0.005743  -0.000170   0.000002  -0.000050   0.000000
     8  H   -0.005743   0.611641   0.000017  -0.000055  -0.004978  -0.000013
     9  H   -0.000170   0.000017   0.605373  -0.001093  -0.000061  -0.000334
    10  O    0.000002  -0.000055  -0.001093   8.227078  -0.008995   0.247668
    11  O   -0.000050  -0.004978  -0.000061  -0.008995   8.280388   0.022589
    12  H    0.000000  -0.000013  -0.000334   0.247668   0.022589   0.345539
    13  H   -0.000012   0.006629   0.000006   0.000164   0.245819  -0.000970
    14  C   -0.010794  -0.000205  -0.008890  -0.000052   0.000000   0.000004
    15  H    0.000125   0.000003   0.001920  -0.000001   0.000000   0.000000
    16  H    0.000124   0.000003   0.001934  -0.000001   0.000000   0.000000
    17  H    0.007051  -0.000007   0.000056   0.000000   0.000000   0.000000
              13         14         15         16         17
     1  C    0.000321  -0.053095   0.000371   0.000388  -0.002811
     2  C   -0.004327   0.008255  -0.000190  -0.000190   0.000126
     3  C   -0.025987   0.000411   0.000026   0.000026   0.000013
     4  C    0.006176   0.006042  -0.000021  -0.000020  -0.000157
     5  C   -0.000157  -0.068091  -0.002506  -0.002507   0.003672
     6  C   -0.000024   0.353558  -0.027191  -0.027198  -0.029531
     7  H   -0.000012  -0.010794   0.000125   0.000124   0.007051
     8  H    0.006629  -0.000205   0.000003   0.000003  -0.000007
     9  H    0.000006  -0.008890   0.001920   0.001934   0.000056
    10  O    0.000164  -0.000052  -0.000001  -0.000001   0.000000
    11  O    0.245819   0.000000   0.000000   0.000000   0.000000
    12  H   -0.000970   0.000004   0.000000   0.000000   0.000000
    13  H    0.356476   0.000000   0.000000   0.000000   0.000000
    14  C    0.000000   5.211295   0.363295   0.363303   0.364627
    15  H    0.000000   0.363295   0.565646  -0.034156  -0.028143
    16  H    0.000000   0.363303  -0.034156   0.565635  -0.028132
    17  H    0.000000   0.364627  -0.028143  -0.028132   0.561595
 Mulliken charges:
               1
     1  C   -0.197774
     2  C   -0.189369
     3  C    0.293303
     4  C    0.327190
     5  C   -0.226768
     6  C    0.176266
     7  H    0.118012
     8  H    0.117170
     9  H    0.130560
    10  O   -0.653731
    11  O   -0.680669
    12  H    0.426328
    13  H    0.415887
    14  C   -0.529661
    15  H    0.160823
    16  H    0.160792
    17  H    0.151641
 Sum of Mulliken charges =   0.00000
 Mulliken charges with hydrogens summed into heavy atoms:
               1
     1  C   -0.079762
     2  C   -0.072199
     3  C    0.293303
     4  C    0.327190
     5  C   -0.096208
     6  C    0.176266
    10  O   -0.227403
    11  O   -0.264782
    14  C   -0.056405
 Electronic spatial extent (au):  <R**2>=           1222.9007
 Charge=              0.0000 electrons
 Dipole moment (field-independent basis, Debye):
    X=             -0.6238    Y=              2.2432    Z=             -0.0022  Tot=              2.3283
 Quadrupole moment (field-independent basis, Debye-Ang):
   XX=            -44.3557   YY=            -48.7369   ZZ=            -55.0104
   XY=             -5.0797   XZ=              0.0077   YZ=             -0.0035
 Traceless Quadrupole moment (field-independent basis, Debye-Ang):
   XX=              5.0120   YY=              0.6308   ZZ=             -5.6427
   XY=             -5.0797   XZ=              0.0077   YZ=             -0.0035
 Octapole moment (field-independent basis, Debye-Ang**2):
  XXX=            -32.3613  YYY=             15.9461  ZZZ=              0.0022  XYY=            -12.1664
  XXY=              6.7803  XXZ=             -0.0198  XZZ=             -6.3288  YZZ=             -3.2402
  YYZ=             -0.0098  XYZ=              0.0091
 Hexadecapole moment (field-independent basis, Debye-Ang**3):
 XXXX=           -968.4647 YYYY=           -442.8644 ZZZZ=            -59.4169 XXXY=             -7.4890
 XXXZ=              0.0466 YYYX=            -34.0038 YYYZ=              0.0001 ZZZX=             -0.0004
 ZZZY=              0.0054 XXYY=           -204.8583 XXZZ=           -185.4633 YYZZ=            -91.2914
 XXYZ=             -0.0283 YYXZ=              0.0084 ZZXY=             -1.8211
 N-N= 4.288992630119D+02 E-N=-1.841511198630D+03  KE= 4.182004969720D+02
 No NMR shielding tensors so no spin-rotation constants.
 Leave Link  601 at Wed Dec 03 16:45:01 2025, MaxMem=   104857600 cpu:               0.0 elap:               0.2
 (Enter D:\Gaussian\G16W\l9999.exe)
 1|1|UNPC-PC-20250526LCFF|SP|RB3LYP|6-31G(d)|C7H8O2|ADMINISTRATOR|03-De
 c-2025|0||#P B3LYP/6-31G* SCF=conver=7 out=wfn||Generated by Multiwfn 
 (http://sobereva.com/multiwfn)||0,1|C,0,1.131145,1.295505,-0.000078|C,
 0,-0.23759,1.579354,-0.000048|C,0,-1.158979,0.54513,-0.000005|C,0,-0.7
 18033,-0.78772,0.000014|C,0,0.64304,-1.057438,0.000014|C,0,1.587154,-0
 .021886,-0.000018|H,0,1.842312,2.113769,-0.000137|H,0,-0.582847,2.6093
 52,-0.000052|H,0,0.954928,-2.096201,-0.000003|O,0,-1.618466,-1.810532,
 0.000009|O,0,-2.528903,0.707021,0.000075|H,0,-2.502256,-1.421173,-0.00
 0206|H,0,-2.747416,1.643496,-0.001093|C,0,3.063355,-0.342012,0.00015|H
 ,0,3.344305,-0.926404,0.882146|H,0,3.343907,-0.929275,-0.880048|H,0,3.
 665466,0.56893,-0.001447||Version=EM64W-G16RevA.03|State=1-A|HF=-421.9
 991008|RMSD=3.373e-008|Dipole=-0.2454252,0.882543,-0.0008587|Quadrupol
 e=3.7262642,0.4689513,-4.1952155,-3.7766298,0.0057202,-0.0026197|PG=C0
 1 [X(C7H8O2)]||@

 Writing a WFN file to "N.wfn"


 HE THAT WALD REACHE THE SWEITE ROSE
 SULD NOW AND THEN BE SCRATCHED WT THE SCHARPE BREERES.
 -- PROVERBS AND REASONS OF THE YEAR 1585
           AS REPRINTED IN PAISLEY MAGAZINE 1828.
 Job cpu time:       0 days  0 hours  0 minutes 12.0 seconds.
 Elapsed time:       0 days  0 hours  0 minutes 12.3 seconds.
 File lengths (MBytes):  RWF=     15 Int=      0 D2E=      0 Chk=      2 Scr=      1
 Normal termination of Gaussian 16 at Wed Dec 03 16:45:01 2025.
