 Generated by Multiwfn (http://sobereva.com/multiwfn)
GAUSSIAN             33 MOL ORBITALS    284 PRIMITIVES       17 NUCLEI
  C    1    (CENTRE  1)   2.13755407  2.44814972 -0.00014757  CHARGE =  6.0
  C    2    (CENTRE  2)  -0.44898027  2.98454636 -0.00009088  CHARGE =  6.0
  C    3    (CENTRE  3)  -2.19015296  1.03014609 -0.00000962  CHARGE =  6.0
  C    4    (CENTRE  4)  -1.35688556 -1.48857530  0.00002628  CHARGE =  6.0
  C    5    (CENTRE  5)   1.21516969 -1.99826822  0.00002628  CHARGE =  6.0
  C    6    (CENTRE  6)   2.99928641 -0.04135839 -0.00003419  CHARGE =  6.0
  H    7    (CENTRE  7)   3.48146479  3.99444470 -0.00025906  CHARGE =  1.0
  H    8    (CENTRE  8)  -1.10142161  4.93096043 -0.00009844  CHARGE =  1.0
  H    9    (CENTRE  9)   1.80455277 -3.96124575 -0.00000584  CHARGE =  1.0
  O   10    (CENTRE 10)  -3.05845715 -3.42141001  0.00001684  CHARGE =  8.0
  O   11    (CENTRE 11)  -4.77893416  1.33607551  0.00014156  CHARGE =  8.0
  H   12    (CENTRE 12)  -4.72857827 -2.68562828 -0.00038946  CHARGE =  1.0
  H   13    (CENTRE 13)  -5.19186404  3.10575675 -0.00206564  CHARGE =  1.0
  C   14    (CENTRE 14)   5.78890206 -0.64630861  0.00028329  CHARGE =  6.0
  H   15    (CENTRE 15)   6.31982071 -1.75064939  1.66701417  CHARGE =  1.0
  H   16    (CENTRE 16)   6.31906860 -1.75607480 -1.66304987  CHARGE =  1.0
  H   17    (CENTRE 17)   6.92672679  1.07512239 -0.00273461  CHARGE =  1.0
CENTRE ASSIGNMENTS    1  1  1  1  1  1  1  1  1  1  1  1  1  1  1  1  1  1  1  1
CENTRE ASSIGNMENTS    1  1  1  1  1  1  1  1  2  2  2  2  2  2  2  2  2  2  2  2
CENTRE ASSIGNMENTS    2  2  2  2  2  2  2  2  2  2  2  2  2  2  2  2  3  3  3  3
CENTRE ASSIGNMENTS    3  3  3  3  3  3  3  3  3  3  3  3  3  3  3  3  3  3  3  3
CENTRE ASSIGNMENTS    3  3  3  3  4  4  4  4  4  4  4  4  4  4  4  4  4  4  4  4
CENTRE ASSIGNMENTS    4  4  4  4  4  4  4  4  4  4  4  4  5  5  5  5  5  5  5  5
CENTRE ASSIGNMENTS    5  5  5  5  5  5  5  5  5  5  5  5  5  5  5  5  5  5  5  5
CENTRE ASSIGNMENTS    6  6  6  6  6  6  6  6  6  6  6  6  6  6  6  6  6  6  6  6
CENTRE ASSIGNMENTS    6  6  6  6  6  6  6  6  7  7  7  7  8  8  8  8  9  9  9  9
CENTRE ASSIGNMENTS   10 10 10 10 10 10 10 10 10 10 10 10 10 10 10 10 10 10 10 10
CENTRE ASSIGNMENTS   10 10 10 10 10 10 10 10 11 11 11 11 11 11 11 11 11 11 11 11
CENTRE ASSIGNMENTS   11 11 11 11 11 11 11 11 11 11 11 11 11 11 11 11 12 12 12 12
CENTRE ASSIGNMENTS   13 13 13 13 14 14 14 14 14 14 14 14 14 14 14 14 14 14 14 14
CENTRE ASSIGNMENTS   14 14 14 14 14 14 14 14 14 14 14 14 15 15 15 15 16 16 16 16
CENTRE ASSIGNMENTS   17 17 17 17
TYPE ASSIGNMENTS      1  1  1  1  1  1  1  1  1  2  2  2  3  3  3  4  4  4  1  2
TYPE ASSIGNMENTS      3  4  5  6  7  8  9 10  1  1  1  1  1  1  1  1  1  2  2  2
TYPE ASSIGNMENTS      3  3  3  4  4  4  1  2  3  4  5  6  7  8  9 10  1  1  1  1
TYPE ASSIGNMENTS      1  1  1  1  1  2  2  2  3  3  3  4  4  4  1  2  3  4  5  6
TYPE ASSIGNMENTS      7  8  9 10  1  1  1  1  1  1  1  1  1  2  2  2  3  3  3  4
TYPE ASSIGNMENTS      4  4  1  2  3  4  5  6  7  8  9 10  1  1  1  1  1  1  1  1
TYPE ASSIGNMENTS      1  2  2  2  3  3  3  4  4  4  1  2  3  4  5  6  7  8  9 10
TYPE ASSIGNMENTS      1  1  1  1  1  1  1  1  1  2  2  2  3  3  3  4  4  4  1  2
TYPE ASSIGNMENTS      3  4  5  6  7  8  9 10  1  1  1  1  1  1  1  1  1  1  1  1
TYPE ASSIGNMENTS      1  1  1  1  1  1  1  1  1  2  2  2  3  3  3  4  4  4  1  2
TYPE ASSIGNMENTS      3  4  5  6  7  8  9 10  1  1  1  1  1  1  1  1  1  2  2  2
TYPE ASSIGNMENTS      3  3  3  4  4  4  1  2  3  4  5  6  7  8  9 10  1  1  1  1
TYPE ASSIGNMENTS      1  1  1  1  1  1  1  1  1  1  1  1  1  2  2  2  3  3  3  4
TYPE ASSIGNMENTS      4  4  1  2  3  4  5  6  7  8  9 10  1  1  1  1  1  1  1  1
TYPE ASSIGNMENTS      1  1  1  1
EXPONENTS  0.3047525D+04 0.4573695D+03 0.1039487D+03 0.2921016D+02 0.9286663D+01
EXPONENTS  0.3163927D+01 0.7868272D+01 0.1881289D+01 0.5442493D+00 0.7868272D+01
EXPONENTS  0.1881289D+01 0.5442493D+00 0.7868272D+01 0.1881289D+01 0.5442493D+00
EXPONENTS  0.7868272D+01 0.1881289D+01 0.5442493D+00 0.1687145D+00 0.1687145D+00
EXPONENTS  0.1687145D+00 0.1687145D+00 0.8000000D+00 0.8000000D+00 0.8000000D+00
EXPONENTS  0.8000000D+00 0.8000000D+00 0.8000000D+00 0.3047525D+04 0.4573695D+03
EXPONENTS  0.1039487D+03 0.2921016D+02 0.9286663D+01 0.3163927D+01 0.7868272D+01
EXPONENTS  0.1881289D+01 0.5442493D+00 0.7868272D+01 0.1881289D+01 0.5442493D+00
EXPONENTS  0.7868272D+01 0.1881289D+01 0.5442493D+00 0.7868272D+01 0.1881289D+01
EXPONENTS  0.5442493D+00 0.1687145D+00 0.1687145D+00 0.1687145D+00 0.1687145D+00
EXPONENTS  0.8000000D+00 0.8000000D+00 0.8000000D+00 0.8000000D+00 0.8000000D+00
EXPONENTS  0.8000000D+00 0.3047525D+04 0.4573695D+03 0.1039487D+03 0.2921016D+02
EXPONENTS  0.9286663D+01 0.3163927D+01 0.7868272D+01 0.1881289D+01 0.5442493D+00
EXPONENTS  0.7868272D+01 0.1881289D+01 0.5442493D+00 0.7868272D+01 0.1881289D+01
EXPONENTS  0.5442493D+00 0.7868272D+01 0.1881289D+01 0.5442493D+00 0.1687145D+00
EXPONENTS  0.1687145D+00 0.1687145D+00 0.1687145D+00 0.8000000D+00 0.8000000D+00
EXPONENTS  0.8000000D+00 0.8000000D+00 0.8000000D+00 0.8000000D+00 0.3047525D+04
EXPONENTS  0.4573695D+03 0.1039487D+03 0.2921016D+02 0.9286663D+01 0.3163927D+01
EXPONENTS  0.7868272D+01 0.1881289D+01 0.5442493D+00 0.7868272D+01 0.1881289D+01
EXPONENTS  0.5442493D+00 0.7868272D+01 0.1881289D+01 0.5442493D+00 0.7868272D+01
EXPONENTS  0.1881289D+01 0.5442493D+00 0.1687145D+00 0.1687145D+00 0.1687145D+00
EXPONENTS  0.1687145D+00 0.8000000D+00 0.8000000D+00 0.8000000D+00 0.8000000D+00
EXPONENTS  0.8000000D+00 0.8000000D+00 0.3047525D+04 0.4573695D+03 0.1039487D+03
EXPONENTS  0.2921016D+02 0.9286663D+01 0.3163927D+01 0.7868272D+01 0.1881289D+01
EXPONENTS  0.5442493D+00 0.7868272D+01 0.1881289D+01 0.5442493D+00 0.7868272D+01
EXPONENTS  0.1881289D+01 0.5442493D+00 0.7868272D+01 0.1881289D+01 0.5442493D+00
EXPONENTS  0.1687145D+00 0.1687145D+00 0.1687145D+00 0.1687145D+00 0.8000000D+00
EXPONENTS  0.8000000D+00 0.8000000D+00 0.8000000D+00 0.8000000D+00 0.8000000D+00
EXPONENTS  0.3047525D+04 0.4573695D+03 0.1039487D+03 0.2921016D+02 0.9286663D+01
EXPONENTS  0.3163927D+01 0.7868272D+01 0.1881289D+01 0.5442493D+00 0.7868272D+01
EXPONENTS  0.1881289D+01 0.5442493D+00 0.7868272D+01 0.1881289D+01 0.5442493D+00
EXPONENTS  0.7868272D+01 0.1881289D+01 0.5442493D+00 0.1687145D+00 0.1687145D+00
EXPONENTS  0.1687145D+00 0.1687145D+00 0.8000000D+00 0.8000000D+00 0.8000000D+00
EXPONENTS  0.8000000D+00 0.8000000D+00 0.8000000D+00 0.1873114D+02 0.2825394D+01
EXPONENTS  0.6401217D+00 0.1612778D+00 0.1873114D+02 0.2825394D+01 0.6401217D+00
EXPONENTS  0.1612778D+00 0.1873114D+02 0.2825394D+01 0.6401217D+00 0.1612778D+00
EXPONENTS  0.5484672D+04 0.8252349D+03 0.1880470D+03 0.5296450D+02 0.1689757D+02
EXPONENTS  0.5799635D+01 0.1553962D+02 0.3599934D+01 0.1013762D+01 0.1553962D+02
EXPONENTS  0.3599934D+01 0.1013762D+01 0.1553962D+02 0.3599934D+01 0.1013762D+01
EXPONENTS  0.1553962D+02 0.3599934D+01 0.1013762D+01 0.2700058D+00 0.2700058D+00
EXPONENTS  0.2700058D+00 0.2700058D+00 0.8000000D+00 0.8000000D+00 0.8000000D+00
EXPONENTS  0.8000000D+00 0.8000000D+00 0.8000000D+00 0.5484672D+04 0.8252349D+03
EXPONENTS  0.1880470D+03 0.5296450D+02 0.1689757D+02 0.5799635D+01 0.1553962D+02
EXPONENTS  0.3599934D+01 0.1013762D+01 0.1553962D+02 0.3599934D+01 0.1013762D+01
EXPONENTS  0.1553962D+02 0.3599934D+01 0.1013762D+01 0.1553962D+02 0.3599934D+01
EXPONENTS  0.1013762D+01 0.2700058D+00 0.2700058D+00 0.2700058D+00 0.2700058D+00
EXPONENTS  0.8000000D+00 0.8000000D+00 0.8000000D+00 0.8000000D+00 0.8000000D+00
EXPONENTS  0.8000000D+00 0.1873114D+02 0.2825394D+01 0.6401217D+00 0.1612778D+00
EXPONENTS  0.1873114D+02 0.2825394D+01 0.6401217D+00 0.1612778D+00 0.3047525D+04
EXPONENTS  0.4573695D+03 0.1039487D+03 0.2921016D+02 0.9286663D+01 0.3163927D+01
EXPONENTS  0.7868272D+01 0.1881289D+01 0.5442493D+00 0.7868272D+01 0.1881289D+01
EXPONENTS  0.5442493D+00 0.7868272D+01 0.1881289D+01 0.5442493D+00 0.7868272D+01
EXPONENTS  0.1881289D+01 0.5442493D+00 0.1687145D+00 0.1687145D+00 0.1687145D+00
EXPONENTS  0.1687145D+00 0.8000000D+00 0.8000000D+00 0.8000000D+00 0.8000000D+00
EXPONENTS  0.8000000D+00 0.8000000D+00 0.1873114D+02 0.2825394D+01 0.6401217D+00
EXPONENTS  0.1612778D+00 0.1873114D+02 0.2825394D+01 0.6401217D+00 0.1612778D+00
EXPONENTS  0.1873114D+02 0.2825394D+01 0.6401217D+00 0.1612778D+00
MO    1     MO 0.0        OCC NO =    2.0000000  ORB. ENERGY =  -19.187380
 -0.48240255D-05 -0.88993851D-05 -0.14366367D-04 -0.18700741D-04 -0.15957376D-04
 -0.55096985D-05  0.27409295D-04  0.12632919D-04 -0.35424024D-04 -0.89284192D-04
 -0.68457455D-04 -0.34165068D-04  0.11447509D-04  0.87772235D-05  0.43804497D-05
 -0.17162778D-07 -0.13159330D-07 -0.65674277D-08  0.37687711D-03 -0.14035697D-03
 -0.62829150D-04  0.95724451D-08  0.49751965D-04  0.25273716D-05 -0.79288120D-05
 -0.52425740D-04 -0.62752815D-08 -0.11262404D-07  0.12808073D-04  0.23628394D-04
  0.38143554D-04  0.49651573D-04  0.42367777D-04  0.14628575D-04 -0.80902873D-04
 -0.37288060D-04  0.10455961D-03  0.10150280D-03  0.77825907D-04  0.38840582D-04
  0.44628971D-04  0.34218665D-04  0.17077512D-04  0.35840283D-07  0.27480056D-07
  0.13714474D-07 -0.62336544D-03 -0.14945426D-03  0.28272588D-03  0.83469893D-08
 -0.79795336D-04 -0.50599346D-04  0.52629876D-04  0.72772547D-05 -0.51042517D-08
 -0.66456715D-07 -0.25040779D-04 -0.46195347D-04 -0.74573614D-04 -0.97072688D-04
 -0.82832300D-04 -0.28600003D-04 -0.50657506D-04 -0.23347998D-04  0.65470224D-04
 -0.55262780D-03 -0.42371994D-03 -0.21146595D-03 -0.95364359D-05 -0.73119342D-05
 -0.36491676D-05  0.15544569D-06  0.11918589D-06  0.59482115D-07  0.42103447D-06
  0.72662437D-03  0.42925112D-04 -0.10179904D-06  0.31549653D-04 -0.54869601D-04
 -0.83325152D-04  0.45250368D-04 -0.10197657D-07 -0.30761990D-07  0.12356415D-04
  0.22795173D-04  0.36798477D-04  0.47900684D-04  0.40873740D-04  0.14112720D-04
 -0.61755616D-04 -0.28463107D-04  0.79813523D-04 -0.69498114D-04 -0.53286745D-04
 -0.26593821D-04 -0.48688382D-04 -0.37331163D-04 -0.18630867D-04 -0.13472423D-07
 -0.10329799D-07 -0.51552937D-08 -0.10827691D-03 -0.25574923D-03 -0.25234746D-03
  0.42501261D-07  0.41928674D-05  0.29004991D-04  0.31199869D-04  0.12754485D-03
 -0.31132029D-08  0.36091081D-07  0.46274136D-05  0.85366745D-05  0.13780840D-04
  0.17938558D-04  0.15307004D-04  0.52851408D-05 -0.11549268D-04 -0.53230472D-05
  0.14926380D-04 -0.57620516D-04 -0.44179757D-04 -0.22048795D-04  0.43168725D-04
  0.33099040D-04  0.16518741D-04 -0.13064753D-07 -0.10017224D-07 -0.49992968D-08
  0.23213180D-03  0.28595721D-05  0.11407752D-03 -0.97906814D-08  0.16353047D-04
  0.21685589D-04  0.31534415D-04  0.14113920D-04  0.24161862D-07  0.65430106D-09
  0.59285376D-05  0.10936994D-04  0.17655700D-04  0.22982475D-04  0.19610988D-04
  0.67712028D-05 -0.25493922D-04 -0.11750125D-04  0.32948578D-04 -0.34477462D-04
 -0.26435131D-04 -0.13192983D-04 -0.51894566D-05 -0.39789461D-05 -0.19857730D-05
 -0.11076421D-07 -0.84926970D-08 -0.42384510D-08 -0.20118409D-03  0.13162161D-03
 -0.68136065D-05  0.52433626D-08  0.13421832D-04 -0.31730081D-04  0.26958109D-04
 -0.11278942D-04 -0.42804222D-09 -0.25762278D-08  0.27951267D-05  0.47410639D-05
  0.53975336D-05  0.23751342D-04 -0.19792225D-04 -0.33571359D-04 -0.38219806D-04
 -0.74482428D-04  0.56163911D-05  0.95264624D-05  0.10845541D-04  0.22898956D-04
  0.21051217D-04  0.38745477D-04  0.62697496D-04  0.82417613D-04  0.70689108D-04
  0.24169807D-04 -0.98589379D-04 -0.43990389D-04  0.12990421D-03  0.19626224D-03
  0.15120947D-03  0.66389104D-04  0.13761999D-03  0.10602878D-03  0.46552346D-04
  0.13092647D-06  0.10087178D-06  0.44288146D-07 -0.29578497D-03 -0.20222420D-03
 -0.10309834D-03 -0.53693590D-07  0.11248259D-03  0.45336128D-04  0.11188635D-03
 -0.15358614D-03  0.13877553D-07 -0.47462306D-07  0.82561958D+00  0.15195808D+01
  0.24589685D+01  0.32323829D+01  0.27723961D+01  0.94792930D+00 -0.15795246D-01
 -0.70478079D-02  0.20812271D-01  0.16917145D-02  0.13033749D-02  0.57225177D-03
  0.26525874D-02  0.20436756D-02  0.89728366D-03 -0.36926767D-05 -0.28450083D-05
 -0.12491119D-05  0.38642141D-02  0.34494103D-03 -0.16529275D-03  0.40727760D-07
 -0.92150982D-02 -0.93227760D-02 -0.92523676D-02 -0.66925151D-04  0.11116537D-07
  0.24449565D-06 -0.18322287D-05 -0.31078066D-05 -0.35381280D-05 -0.14506157D-03
  0.98713029D-04  0.16743598D-03  0.19061995D-03 -0.18132666D-03  0.14799388D-05
  0.27301981D-05  0.44073862D-05  0.57371073D-05  0.48954840D-05  0.16902930D-05
 -0.65229989D-05 -0.30064442D-05  0.84303834D-05  0.16104267D-04  0.12347730D-04
  0.61623829D-05 -0.13153446D-04 -0.10085228D-04 -0.50332358D-05 -0.21607235D-08
 -0.16567057D-08 -0.82681227D-09 -0.65001425D-04  0.18020854D-04 -0.26829428D-07
  0.80255504D-08 -0.38004301D-05  0.68156540D-05 -0.45858241D-06  0.13574141D-05
 -0.77911052D-08 -0.33642095D-07  0.23241213D-05  0.39421496D-05  0.44879980D-05
  0.23530610D-05  0.23299755D-05  0.39520795D-05  0.44993029D-05  0.23612428D-05
 -0.68373997D-06 -0.11597524D-05 -0.13203371D-05  0.41620368D-05
MO    2     MO 0.0        OCC NO =    2.0000000  ORB. ENERGY =  -19.167487
  0.10104616D-04  0.18641043D-04  0.30092424D-04  0.39171394D-04  0.33425022D-04
  0.11540857D-04 -0.42231212D-04 -0.19464327D-04  0.54580004D-04  0.16807086D-04
  0.12886607D-04  0.64313202D-05 -0.31566407D-04 -0.24203119D-04 -0.12079053D-04
 -0.15742974D-08 -0.12070714D-08 -0.60241324D-09 -0.35051425D-03  0.11986303D-03
  0.10007733D-03 -0.75820981D-08 -0.23035545D-04  0.26192869D-05  0.42842327D-04
  0.49531380D-04  0.17278994D-08  0.55659013D-08 -0.47231023D-05 -0.87132014D-05
 -0.14065809D-04 -0.18309504D-04 -0.15623533D-04 -0.53944304D-05  0.26731498D-04
  0.12320523D-04 -0.34548032D-04 -0.84550182D-04 -0.64827717D-04 -0.32353574D-04
 -0.78443694D-04 -0.60145649D-04 -0.30016894D-04  0.81963175D-08  0.62844164D-08
  0.31363642D-08  0.49395478D-03  0.10249344D-03 -0.23794519D-03  0.18646377D-08
  0.17437350D-04  0.29557598D-04 -0.24889952D-05  0.25369090D-04 -0.27739254D-08
 -0.65834082D-08  0.25864564D-04  0.47715070D-04  0.77026918D-04  0.10026616D-03
  0.85557296D-04  0.29540878D-04 -0.11746065D-03 -0.54137507D-04  0.15180722D-03
 -0.96506509D-05 -0.73995070D-05 -0.36928726D-05  0.72819512D-04  0.55833383D-04
  0.27864771D-04  0.22476779D-07  0.17233768D-07  0.86008583D-08 -0.67723522D-03
 -0.55848000D-03  0.13374403D-03  0.63003924D-08  0.68483231D-04 -0.71240855D-04
  0.80992180D-04 -0.27517608D-04 -0.20311080D-07  0.30122453D-08 -0.34693003D-04
 -0.64001817D-04 -0.10331878D-03 -0.13449035D-03 -0.11476086D-03 -0.39624167D-04
 -0.30295934D-04 -0.13963368D-04  0.39154743D-04 -0.33298276D-03 -0.25531006D-03
 -0.12741761D-03 -0.45616455D-03 -0.34975804D-03 -0.17455378D-03  0.19334998D-07
  0.14824850D-07  0.73986392D-08  0.21045150D-03  0.47854775D-03  0.74340230D-03
 -0.16504153D-07 -0.10154838D-03 -0.14220184D-04 -0.12888954D-03 -0.62819570D-04
  0.12522615D-08 -0.18484531D-07  0.73184620D-05  0.13501133D-04  0.21795015D-04
  0.28370634D-04  0.24208713D-04  0.83586870D-05 -0.66136064D-04 -0.30482051D-04
  0.85474854D-04  0.75636321D-05  0.57993133D-05  0.28942638D-05  0.43629510D-05
  0.33452341D-05  0.16695063D-05 -0.24359548D-08 -0.18677356D-08 -0.93213098D-09
 -0.38871958D-03  0.53304993D-04 -0.33172058D-03  0.65823670D-08 -0.80020687D-04
 -0.64440340D-04  0.31880961D-04  0.38186162D-04 -0.73794230D-08  0.78304177D-08
 -0.80541963D-06 -0.14858420D-05 -0.23986096D-05 -0.31222770D-05 -0.26642446D-05
 -0.91989965D-06  0.15021351D-04  0.69233271D-05 -0.19413732D-04 -0.71350276D-04
 -0.54706866D-04 -0.27302560D-04 -0.39619284D-04 -0.30377554D-04 -0.15160529D-04
  0.32485814D-08  0.24908062D-08  0.12430868D-08  0.36269995D-03 -0.10881607D-03
  0.79019368D-05  0.12392817D-08  0.17213405D-04  0.43267459D-04  0.15239189D-04
  0.12826550D-04  0.74759282D-08 -0.56156254D-08 -0.47727177D-05 -0.80954325D-05
 -0.92163638D-05 -0.39741411D-04  0.13056173D-04  0.22145741D-04  0.25212143D-04
  0.71718929D-04 -0.10219426D-04 -0.17334081D-04 -0.19734239D-04 -0.14076378D-03
  0.82561320D+00  0.15195690D+01  0.24589495D+01  0.32323580D+01  0.27723747D+01
  0.94792198D+00 -0.15753353D-01 -0.70291154D-02  0.20757072D-01 -0.98666090D-03
 -0.76016903D-03 -0.33375515D-03  0.30657823D-02  0.23620200D-02  0.10370540D-02
 -0.63755761D-06 -0.49120377D-06 -0.21566491D-06  0.40076176D-02  0.31129678D-03
  0.24333002D-03  0.11627362D-07 -0.92350472D-02 -0.92960268D-02 -0.92624513D-02
  0.16466977D-03 -0.64393199D-08  0.20712417D-07  0.50393174D-04  0.92750342D-04
  0.15008756D-03  0.19729430D-03  0.16921817D-03  0.57858568D-04 -0.16637620D-03
 -0.74236738D-04  0.21922208D-03  0.16742153D-03  0.12898927D-03  0.56633235D-04
  0.49447053D-04  0.38096288D-04  0.16726323D-04  0.58011554D-07  0.44694775D-07
  0.19623413D-07 -0.49060888D-03 -0.18529762D-03 -0.46449160D-04  0.66910550D-08
  0.92406844D-04  0.17707829D-03  0.17390717D-03  0.15323998D-04  0.46940901D-08
  0.12167929D-06  0.85519076D-04  0.14505654D-03  0.16514174D-03 -0.20578451D-03
  0.20661844D-04  0.35046398D-04  0.39899086D-04 -0.26814701D-04  0.54891468D-05
  0.10126404D-04  0.16347156D-04  0.21279140D-04  0.18157529D-04  0.62693583D-05
 -0.18651624D-04 -0.85965164D-05  0.24105529D-04 -0.30945002D-05 -0.23726665D-05
 -0.11841269D-05 -0.99818546D-06 -0.76534530D-06 -0.38196094D-06  0.25971955D-08
  0.19913647D-08  0.99383058D-09 -0.23421617D-04  0.97895787D-05 -0.46838021D-06
 -0.47484309D-08 -0.11757365D-05  0.18144238D-04  0.22098185D-04  0.12339109D-04
 -0.18617579D-08  0.28020705D-08  0.18200111D-05  0.30870832D-05  0.35145352D-05
  0.39601502D-05  0.18181364D-05  0.30839035D-05  0.35109151D-05  0.39586949D-05
  0.26848341D-05  0.45539868D-05  0.51845530D-05 -0.15382934D-06
MO    3     MO 0.0        OCC NO =    2.0000000  ORB. ENERGY =  -10.242812
  0.32001304D-04  0.59036158D-04  0.95302664D-04  0.12405575D-03  0.10585700D-03
  0.36549877D-04 -0.78695464D-04 -0.36270668D-04  0.10170674D-03  0.15928721D-03
  0.12213133D-03  0.60952093D-04 -0.43213424D-05 -0.33133313D-05 -0.16535845D-05
 -0.35381890D-08 -0.27128589D-08 -0.13539067D-08 -0.13663450D-02  0.46285567D-03
  0.42604133D-03 -0.28498270D-07  0.71191021D-04  0.15082666D-04  0.42336652D-04
  0.34659522D-04 -0.40856726D-08  0.16465309D-07  0.27180289D-02  0.50142326D-02
  0.80945261D-02  0.10536668D-01  0.89909578D-02  0.31043617D-02  0.25342006D-03
  0.11680107D-03 -0.32752240D-03  0.11806349D-03  0.90523599D-04  0.45177620D-04
  0.35855580D-03  0.27491784D-03  0.13720327D-03  0.11452158D-07  0.87807884D-08
  0.43822288D-08  0.24340737D-02  0.21539873D-03 -0.11676081D-02  0.11629628D-07
 -0.47279541D-03 -0.24747720D-03 -0.36723997D-03 -0.16801040D-03  0.10882538D-08
 -0.11609644D-07  0.53081504D+00  0.97925010D+00  0.15808133D+01  0.20577492D+01
  0.17558811D+01  0.60626356D+00 -0.19719140D-01 -0.90885338D-02  0.25485197D-01
 -0.11305684D-02 -0.86684814D-03 -0.43261798D-03  0.64658026D-04  0.49575674D-04
  0.24741736D-04  0.63659512D-07  0.48810076D-07  0.24359649D-07 -0.38294227D-02
 -0.17268014D-02  0.27821275D-03  0.35859998D-07 -0.93373472D-02 -0.10071927D-01
 -0.10435260D-01 -0.40872314D-04 -0.14554767D-06 -0.76676608D-07  0.42678454D-01
  0.78733415D-01  0.12710014D+00  0.16544662D+00  0.14117590D+00  0.48744647D-01
 -0.12363620D-02 -0.56983813D-03  0.15978856D-02  0.57632043D-04  0.44188595D-04
  0.22053206D-04 -0.37877191D-03 -0.29041828D-03 -0.14493907D-03 -0.72297281D-08
 -0.55432969D-08 -0.27664937D-08  0.19755017D-02  0.53174411D-03  0.10585591D-02
 -0.18321543D-07 -0.12910133D-02 -0.12177211D-02 -0.11856746D-02  0.30599409D-03
  0.77857907D-08 -0.15110224D-07  0.19256380D-03  0.35524261D-03  0.57347171D-03
  0.74648978D-03  0.63698108D-03  0.21993426D-03 -0.32493306D-04 -0.14976135D-04
  0.41994646D-04  0.14380315D-03  0.11025913D-03  0.55027034D-04 -0.77902704D-04
 -0.59730852D-04 -0.29809882D-04  0.11288723D-07  0.86554766D-08  0.43196894D-08
 -0.11602729D-02  0.69239882D-04 -0.58481072D-03  0.86717826D-08  0.10049498D-03
 -0.16140327D-04 -0.65269931D-05 -0.77589529D-04  0.67811671D-08  0.12676191D-07
 -0.68606452D-04 -0.12656551D-03 -0.20431597D-03 -0.26595869D-03 -0.22694303D-03
 -0.78357975D-04  0.14190875D-03  0.65405615D-04 -0.18340417D-03  0.12337242D-03
  0.94594144D-04  0.47209108D-04 -0.74777024D-05 -0.57334279D-05 -0.28613824D-05
  0.18376663D-08  0.14090060D-08  0.70319273D-09  0.10932747D-02 -0.63997843D-03
  0.82054133D-04 -0.99474148D-08 -0.19070238D-04  0.62673295D-04 -0.13319864D-03
  0.42282491D-04 -0.66189447D-08 -0.15154432D-07 -0.22846659D-04 -0.38752257D-04
 -0.44118075D-04 -0.13954993D-03  0.37230525D-04  0.63150017D-04  0.71894062D-04
  0.36211568D-03 -0.28128169D-04 -0.47710699D-04 -0.54316945D-04 -0.12646479D-03
 -0.72037938D-04 -0.13258826D-03 -0.21455283D-03 -0.28203571D-03 -0.24190039D-03
 -0.82709851D-04  0.24572364D-03  0.10964141D-03 -0.32377255D-03 -0.18001265D-03
 -0.13869004D-03 -0.60892398D-04 -0.97846659D-05 -0.75385576D-05 -0.33098328D-05
 -0.32153904D-07 -0.24772850D-07 -0.10876615D-07  0.73485669D-03  0.19133419D-03
  0.62707907D-04  0.16481034D-07 -0.24996154D-03 -0.22637039D-03 -0.23989979D-03
  0.12409231D-04 -0.58592437D-08  0.11575172D-07  0.11587382D-03  0.21326969D-03
  0.34511062D-03  0.45365757D-03  0.38909946D-03  0.13303971D-03 -0.65619481D-03
 -0.29279285D-03  0.86462120D-03 -0.13476176D-04 -0.10382667D-04 -0.45585500D-05
 -0.65454344D-04 -0.50429043D-04 -0.22141066D-04  0.46367670D-07  0.35723790D-07
  0.15684668D-07 -0.15518649D-02 -0.76041041D-03  0.10468206D-03  0.48343634D-07
 -0.51211581D-03  0.72513823D-03  0.93560404D-03  0.37509769D-03  0.17647770D-06
  0.11422763D-06  0.26421455D-05  0.44815789D-05  0.51021192D-05  0.44005872D-04
  0.31724430D-04  0.53810638D-04  0.61261510D-04 -0.60066752D-04 -0.42601756D-05
 -0.78591922D-05 -0.12687173D-04 -0.16514930D-04 -0.14092219D-04 -0.48657047D-05
  0.21568654D-04  0.99409728D-05 -0.27875525D-04 -0.66890874D-04 -0.51287679D-04
 -0.25596146D-04  0.26314800D-04  0.20176520D-04  0.10069497D-04  0.80222743D-08
  0.61509711D-08  0.30697657D-08  0.27899177D-03 -0.80883245D-04  0.18317778D-04
 -0.36991828D-07  0.91265448D-05  0.32673074D-06 -0.51682809D-05 -0.54683617D-05
  0.27053330D-07  0.26168581D-07 -0.58522462D-05 -0.99265173D-05 -0.11300989D-04
 -0.45319682D-05 -0.58618756D-05 -0.99428505D-05 -0.11319584D-04 -0.45544632D-05
 -0.35024991D-05 -0.59409015D-05 -0.67635063D-05 -0.10491895D-04
MO    4     MO 0.0        OCC NO =    2.0000000  ORB. ENERGY =  -10.239638
 -0.71636181D-04 -0.13215477D-03 -0.21333877D-03 -0.27770369D-03 -0.23696506D-03
 -0.81818341D-04  0.14389043D-03  0.66318966D-04 -0.18596530D-03  0.24457639D-04
  0.18752567D-04  0.93588450D-05  0.53585573D-04  0.41086019D-04  0.20504803D-04
 -0.13453545D-07 -0.10315325D-07 -0.51480702D-08  0.12161404D-02 -0.50275813D-03
 -0.38798799D-03  0.38649607D-07  0.58446992D-05 -0.20670042D-04 -0.13879940D-03
 -0.61868175D-04 -0.62543673D-08 -0.27940484D-07 -0.21344497D-03 -0.39376430D-03
 -0.63565767D-03 -0.82743741D-03 -0.70605384D-03 -0.24378342D-03 -0.84409631D-04
 -0.38904322D-04  0.10909178D-03  0.83896909D-04  0.64326828D-04  0.32103596D-04
  0.10979462D-03  0.84183554D-04  0.42013494D-04 -0.24186724D-07 -0.18544846D-07
 -0.92551778D-08 -0.16616207D-02 -0.28994721D-03  0.71582207D-03 -0.53257225D-08
  0.94039078D-04  0.10018262D-03  0.55922444D-04  0.12150145D-03 -0.12393840D-07
 -0.13418257D-08 -0.42989247D-01 -0.79306766D-01 -0.12802571D+00 -0.16665144D+00
 -0.14220397D+00 -0.49099614D-01  0.19447476D-02  0.89633239D-03 -0.25134096D-02
 -0.33889667D-04 -0.25984447D-04 -0.12968060D-04  0.31456651D-03  0.24118965D-03
  0.12037054D-03 -0.41253892D-07 -0.31630868D-07 -0.15786020D-07  0.27548809D-02
  0.14057715D-02 -0.49704074D-03 -0.12625249D-07  0.35121184D-03  0.19616205D-03
  0.49637356D-03 -0.10810251D-03  0.53217551D-07  0.11539849D-07  0.53085089D+00
  0.97931623D+00  0.15809201D+01  0.20578882D+01  0.17559997D+01  0.60630450D+00
 -0.19791260D-01 -0.91217735D-02  0.25578405D-01 -0.82344943D-03 -0.63136880D-03
 -0.31509728D-03 -0.60770509D-03 -0.46594972D-03 -0.23254157D-03  0.64442802D-07
  0.49410653D-07  0.24659379D-07 -0.40870828D-02 -0.13214018D-02 -0.15642472D-02
  0.16086312D-07 -0.96421823D-02 -0.95409731D-02 -0.10365151D-01  0.67909683D-03
  0.30901858D-07 -0.29794893D-08  0.22623278D-02  0.41735530D-02  0.67374087D-02
  0.87701042D-02  0.74835458D-02  0.25838885D-02  0.28978271D-03  0.13356059D-03
 -0.37451782D-03  0.29764668D-03  0.22821660D-03  0.11389608D-03 -0.18259618D-03
 -0.14000317D-03 -0.69871395D-04  0.17784045D-08  0.13635678D-08  0.68051589D-09
  0.27429925D-02 -0.44702192D-03  0.12023015D-02 -0.12005005D-07 -0.45209825D-03
 -0.24652171D-03 -0.37786181D-03 -0.15773695D-03  0.12967884D-08 -0.14793057D-07
  0.48964622D-04  0.90330166D-04  0.14582090D-03  0.18981548D-03  0.16196989D-03
  0.55924311D-04 -0.12232218D-03 -0.56378183D-04  0.15809031D-03  0.82063201D-04
  0.62920858D-04  0.31401918D-04  0.46744095D-04  0.35840407D-04  0.17886875D-04
  0.48196726D-08  0.36954192D-08  0.18442732D-08 -0.15990323D-02  0.71358589D-03
  0.95400442D-04 -0.21526541D-07  0.19400263D-04  0.19914665D-04  0.75390931D-04
 -0.27760685D-05 -0.29173562D-07  0.29899869D-07  0.27280234D-04  0.46272440D-04
  0.52679538D-04  0.17466185D-03 -0.27236580D-04 -0.46198395D-04 -0.52595240D-04
 -0.18918939D-03  0.45693048D-04  0.77504057D-04  0.88235629D-04  0.35713718D-03
  0.14588139D-03  0.26849964D-03  0.43448310D-03  0.57114020D-03  0.48986363D-03
  0.16749269D-03 -0.77109377D-03 -0.34406054D-03  0.10160154D-02  0.45681392D-05
  0.35195050D-05  0.15452523D-05 -0.51021926D-04 -0.39309643D-04 -0.17259051D-04
  0.28982996D-07  0.22329836D-07  0.98040006D-08 -0.19213769D-02 -0.55097433D-03
 -0.62632823D-03 -0.12604739D-07  0.29184440D-03  0.18327486D-03  0.10727632D-02
 -0.12342819D-02 -0.69816563D-07 -0.63219236D-08 -0.85538110D-04 -0.15743579D-03
 -0.25476082D-03 -0.33489023D-03 -0.28723340D-03 -0.98209978D-04  0.34958225D-03
  0.15598292D-03 -0.46061965D-03 -0.11726980D-03 -0.90350057D-04 -0.39668541D-04
  0.38372530D-04  0.29563966D-04  0.12980173D-04 -0.11453599D-06 -0.88243806D-07
 -0.38743784D-07  0.95994484D-03  0.31215249D-03 -0.52373474D-05  0.14793880D-07
 -0.12174202D-03 -0.31524289D-03 -0.38143630D-03 -0.61392106D-04 -0.53535863D-07
 -0.20429260D-07  0.46592985D-04  0.79030521D-04  0.89973455D-04 -0.34469069D-04
 -0.17302497D-04 -0.29348310D-04 -0.33412013D-04  0.75817359D-04 -0.25021857D-04
 -0.46160440D-04 -0.74517263D-04 -0.96999335D-04 -0.82769708D-04 -0.28578391D-04
  0.52625860D-04  0.24255211D-04 -0.68014142D-04  0.52171419D-04  0.40001735D-04
  0.19963669D-04  0.17904816D-05  0.13728278D-05  0.68513727D-06 -0.44983880D-07
 -0.34490786D-07 -0.17213320D-07 -0.78851853D-04 -0.49346200D-05 -0.72378113D-04
  0.68990899D-07  0.17404894D-04 -0.96859681D-04 -0.42441772D-04  0.57405340D-04
  0.33017607D-07  0.19430954D-06 -0.85423641D-05 -0.14489466D-04 -0.16495745D-04
 -0.17824371D-04 -0.85548097D-05 -0.14510576D-04 -0.16519778D-04 -0.17811265D-04
  0.23709067D-05  0.40215065D-05  0.45783430D-05  0.32343947D-04
MO    5     MO 0.0        OCC NO =    2.0000000  ORB. ENERGY =  -10.188155
  0.14845316D-01  0.27386709D-01  0.44210639D-01  0.57549116D-01  0.49106765D-01
  0.16955386D-01 -0.26823463D-03 -0.12362910D-03  0.34666889D-03  0.41485179D-03
  0.31808204D-03  0.15874523D-03  0.22089472D-05  0.16936806D-05  0.84526534D-06
  0.41867956D-08  0.32101693D-08  0.16020995D-08  0.17136894D-02 -0.58100370D-03
 -0.39880811D-03  0.27721106D-07 -0.71199905D-03 -0.57472265D-03 -0.55299038D-03
  0.15790019D-03 -0.31459957D-08 -0.18164045D-07  0.53212587D+00  0.98166832D+00
  0.15847170D+01  0.20628307D+01  0.17602172D+01  0.60776070D+00 -0.19955667D-01
 -0.91975489D-02  0.25790887D-01 -0.13765020D-03 -0.10554144D-03 -0.52672575D-04
 -0.34052452D-03 -0.26109261D-03 -0.13030351D-03 -0.15648080D-06 -0.11997955D-06
 -0.59878204D-07 -0.37949590D-02 -0.16177759D-03  0.79816750D-03  0.11373110D-08
 -0.10246377D-01 -0.10336673D-01 -0.10619244D-01  0.15030586D-03 -0.18572474D-07
 -0.21446050D-07 -0.30122989D-02 -0.55571033D-02 -0.89708878D-02 -0.11677430D-01
 -0.99643725D-02 -0.34404584D-02  0.38678783D-03  0.17827016D-03 -0.49988813D-03
 -0.32796435D-03 -0.25146226D-03 -0.12549729D-03 -0.36774993D-03 -0.28196732D-03
 -0.14072146D-03  0.97030934D-08  0.74397166D-08  0.37129400D-08  0.18038652D-02
  0.70773898D-03  0.23750245D-03 -0.23701547D-07 -0.32892954D-03 -0.44093700D-03
 -0.19492107D-03 -0.19173866D-03  0.31802092D-07  0.19587126D-07  0.30019359D-04
  0.55379855D-04  0.89400257D-04  0.11637257D-03  0.99300926D-04  0.34286223D-04
 -0.27384461D-04 -0.12621473D-04  0.35391927D-04 -0.67178299D-05 -0.51508059D-05
 -0.25706131D-05 -0.12671753D-04 -0.97158964D-05 -0.48489133D-05  0.48699643D-08
  0.37339797D-08  0.18635176D-08 -0.70885866D-03 -0.21760520D-03 -0.22569988D-03
  0.41710543D-08  0.28974236D-04  0.10751041D-03  0.29215345D-04 -0.75451073D-04
 -0.11354907D-07  0.16652602D-11  0.10524180D-03  0.19415058D-03  0.31341923D-03
  0.40797871D-03  0.34812897D-03  0.12020057D-03  0.75631155D-04  0.34858330D-04
 -0.97746396D-04  0.13650604D-04  0.10466418D-04  0.52234759D-05 -0.45158577D-04
 -0.34624733D-04 -0.17280168D-04 -0.14472893D-07 -0.11096896D-07 -0.55381288D-08
  0.62874263D-03 -0.11099585D-03  0.30613662D-03  0.15788468D-09 -0.16566855D-04
 -0.17326110D-04 -0.81766147D-04  0.11878922D-04 -0.47617602D-08 -0.36409684D-08
  0.12284073D-01  0.22661715D-01  0.36583035D-01  0.47620242D-01  0.40634439D-01
  0.14030095D-01 -0.51355158D-03 -0.23669545D-03  0.66371876D-03  0.10223369D-04
  0.78386313D-05  0.39120264D-05 -0.40184797D-04 -0.30811154D-04 -0.15376925D-04
 -0.17895287D-08 -0.13720971D-08 -0.68477262D-09 -0.91341041D-03  0.36436158D-03
 -0.16088083D-03  0.41131833D-08 -0.19699220D-03 -0.18051095D-03 -0.18744954D-03
 -0.25559016D-04 -0.21607673D-07  0.15108041D-09  0.93729640D-05  0.15898321D-04
  0.18099677D-04  0.16432288D-03 -0.10264968D-03 -0.17411328D-03 -0.19822181D-03