Title Card Required                                                     
SP        RB3LYP                                                      6-311G(d,p)         
Number of atoms                            I               17
Info1-9                                    I   N=           9
          45          44           0           0           0         110
           1          18        -502
Full Title                                 C   N=           2
Title Card Required     
Route                                      C   N=           5
# rb3lyp/6-311g(d,p) geom=connectivity temperature=823.15   
Charge                                     I                0
Multiplicity                               I                1
Number of electrons                        I               66
Number of alpha electrons                  I               33
Number of beta electrons                   I               33
Number of basis functions                  I              210
Number of independent functions            I              210
Number of point charges in /Mol/           I                0
Number of translation vectors              I                0
Atomic numbers                             I   N=          17
           6           6           6           6           6           6
           1           1           1           8           8           1
           1           6           1           1           1
Nuclear charges                            R   N=          17
  6.00000000E+00  6.00000000E+00  6.00000000E+00  6.00000000E+00  6.00000000E+00
  6.00000000E+00  1.00000000E+00  1.00000000E+00  1.00000000E+00  8.00000000E+00
  8.00000000E+00  1.00000000E+00  1.00000000E+00  6.00000000E+00  1.00000000E+00
  1.00000000E+00  1.00000000E+00
Current cartesian coordinates              R   N=          51
  2.13755426E+00  2.44814964E+00 -1.47398638E-04 -4.48980030E-01  2.98454651E+00
 -9.07068540E-05 -2.19015289E+00  1.03014640E+00 -9.44863062E-06 -1.35688572E+00
 -1.48857506E+00  2.64561657E-05  1.21516949E+00 -1.99826821E+00  2.64561657E-05
  2.99928638E+00 -4.13585460E-02 -3.40150702E-05  3.48146512E+00  3.99444450E+00
 -2.58892479E-04 -1.10142120E+00  4.93096064E+00 -9.82657585E-05  1.80455239E+00
 -3.96124579E+00 -5.66917837E-06 -3.05845748E+00 -3.42140962E+00  1.70075351E-05
 -4.77893407E+00  1.33607605E+00  1.41729459E-04 -4.72857853E+00 -2.68562775E+00
 -3.89283582E-04 -5.19186379E+00  3.10575733E+00 -2.06547065E-03  5.78890197E+00
 -6.46309011E-01  2.83458919E-04  6.31982053E+00 -1.75064984E+00  1.66701434E+00
  6.31906842E+00 -1.75607524E+00 -1.66304970E+00  6.92672686E+00  1.07512188E+00
 -2.73443370E-03
Number of symbols in /Mol/                 I                0
Force Field                                I                0
Atom Types                                 C   N=          17
                                                            
                                                            
                                                            
                        
Int Atom Types                             I   N=          17
           0           0           0           0           0           0
           0           0           0           0           0           0
           0           0           0           0           0
MM charges                                 R   N=          17
  0.00000000E+00  0.00000000E+00  0.00000000E+00  0.00000000E+00  0.00000000E+00
  0.00000000E+00  0.00000000E+00  0.00000000E+00  0.00000000E+00  0.00000000E+00
  0.00000000E+00  0.00000000E+00  0.00000000E+00  0.00000000E+00  0.00000000E+00
  0.00000000E+00  0.00000000E+00
Integer atomic weights                     I   N=          17
          12          12          12          12          12          12
           1           1           1          16          16           1
           1          12           1           1           1
Real atomic weights                        R   N=          17
  1.20000000E+01  1.20000000E+01  1.20000000E+01  1.20000000E+01  1.20000000E+01
  1.20000000E+01  1.00782504E+00  1.00782504E+00  1.00782504E+00  1.59949146E+01
  1.59949146E+01  1.00782504E+00  1.00782504E+00  1.20000000E+01  1.00782504E+00
  1.00782504E+00  1.00782504E+00
Atom fragment info                         I   N=          17
           0           0           0           0           0           0
           0           0           0           0           0           0
           0           0           0           0           0
Atom residue num                           I   N=          17
           0           0           0           0           0           0
           0           0           0           0           0           0
           0           0           0           0           0
Nuclear spins                              I   N=          17
           0           0           0           0           0           0
           1           1           1           0           0           1
           1           0           1           1           1
Nuclear ZEff                               R   N=          17
 -3.60000000E+00 -3.60000000E+00 -3.60000000E+00 -3.60000000E+00 -3.60000000E+00
 -3.60000000E+00 -1.00000000E+00 -1.00000000E+00 -1.00000000E+00 -5.60000000E+00
 -5.60000000E+00 -1.00000000E+00 -1.00000000E+00 -3.60000000E+00 -1.00000000E+00
 -1.00000000E+00 -1.00000000E+00
Nuclear ZNuc                               R   N=          17
  6.00000000E+00  6.00000000E+00  6.00000000E+00  6.00000000E+00  6.00000000E+00
  6.00000000E+00  1.00000000E+00  1.00000000E+00  1.00000000E+00  8.00000000E+00
  8.00000000E+00  1.00000000E+00  1.00000000E+00  6.00000000E+00  1.00000000E+00
  1.00000000E+00  1.00000000E+00
Nuclear QMom                               R   N=          17
  0.00000000E+00  0.00000000E+00  0.00000000E+00  0.00000000E+00  0.00000000E+00
  0.00000000E+00  0.00000000E+00  0.00000000E+00  0.00000000E+00  0.00000000E+00
  0.00000000E+00  0.00000000E+00  0.00000000E+00  0.00000000E+00  0.00000000E+00
  0.00000000E+00  0.00000000E+00
Nuclear GFac                               R   N=          17
  0.00000000E+00  0.00000000E+00  0.00000000E+00  0.00000000E+00  0.00000000E+00
  0.00000000E+00  2.79284600E+00  2.79284600E+00  2.79284600E+00  0.00000000E+00
  0.00000000E+00  2.79284600E+00  2.79284600E+00  0.00000000E+00  2.79284600E+00
  2.79284600E+00  2.79284600E+00
MicOpt                                     I   N=          17
          -1          -1          -1          -1          -1          -1
          -1          -1          -1          -1          -1          -1
          -1          -1          -1          -1          -1
Number of residues                         I                0
Number of secondary structures             I                0
SymInf integers                            I   N=          26
           1           1           1           1           1           0
           0           0           0           0           0           0
           0           0           0           0           0           0
           0           0           0           0           0           0
           0           0
RotTr to input orientation                 R   N=          12
  1.00000000E+00 -8.91456062E-08  0.00000000E+00  8.91456062E-08  1.00000000E+00
  0.00000000E+00  0.00000000E+00  0.00000000E+00  1.00000000E+00 -2.86322141E-08
  1.14528856E-07  1.71793284E-07
Number of contracted shells                I               77
Number of primitive shells                 I              156
Pure/Cartesian d shells                    I                0
Pure/Cartesian f shells                    I                0
Highest angular momentum                   I                2
Largest degree of contraction              I                6
Shell types                                I   N=          77
           0          -1          -1          -1          -2           0
          -1          -1          -1          -2           0          -1
          -1          -1          -2           0          -1          -1
          -1          -2           0          -1          -1          -1
          -2           0          -1          -1          -1          -2
           0           0           0           1           0           0
           0           1           0           0           0           1
           0          -1          -1          -1          -2           0
          -1          -1          -1          -2           0           0
           0           1           0           0           0           1
           0          -1          -1          -1          -2           0
           0           0           1           0           0           0
           1           0           0           0           1
Number of primitives per shell             I   N=          77
           6           3           1           1           1           6
           3           1           1           1           6           3
           1           1           1           6           3           1
           1           1           6           3           1           1
           1           6           3           1           1           1
           3           1           1           1           3           1
           1           1           3           1           1           1
           6           3           1           1           1           6
           3           1           1           1           3           1
           1           1           3           1           1           1
           6           3           1           1           1           3
           1           1           1           3           1           1
           1           3           1           1           1
Shell to atom map                          I   N=          77
           1           1           1           1           1           2
           2           2           2           2           3           3
           3           3           3           4           4           4
           4           4           5           5           5           5
           5           6           6           6           6           6
           7           7           7           7           8           8
           8           8           9           9           9           9
          10          10          10          10          10          11
          11          11          11          11          12          12
          12          12          13          13          13          13
          14          14          14          14          14          15
          15          15          15          16          16          16
          16          17          17          17          17
Primitive exponents                        R   N=         156
  4.56324000E+03  6.82024000E+02  1.54973000E+02  4.44553000E+01  1.30290000E+01
  1.82773000E+00  2.09642000E+01  4.80331000E+00  1.45933000E+00  4.83456000E-01
  1.45585000E-01  6.26000000E-01  4.56324000E+03  6.82024000E+02  1.54973000E+02
  4.44553000E+01  1.30290000E+01  1.82773000E+00  2.09642000E+01  4.80331000E+00
  1.45933000E+00  4.83456000E-01  1.45585000E-01  6.26000000E-01  4.56324000E+03
  6.82024000E+02  1.54973000E+02  4.44553000E+01  1.30290000E+01  1.82773000E+00
  2.09642000E+01  4.80331000E+00  1.45933000E+00  4.83456000E-01  1.45585000E-01
  6.26000000E-01  4.56324000E+03  6.82024000E+02  1.54973000E+02  4.44553000E+01
  1.30290000E+01  1.82773000E+00  2.09642000E+01  4.80331000E+00  1.45933000E+00
  4.83456000E-01  1.45585000E-01  6.26000000E-01  4.56324000E+03  6.82024000E+02
  1.54973000E+02  4.44553000E+01  1.30290000E+01  1.82773000E+00  2.09642000E+01
  4.80331000E+00  1.45933000E+00  4.83456000E-01  1.45585000E-01  6.26000000E-01
  4.56324000E+03  6.82024000E+02  1.54973000E+02  4.44553000E+01  1.30290000E+01
  1.82773000E+00  2.09642000E+01  4.80331000E+00  1.45933000E+00  4.83456000E-01
  1.45585000E-01  6.26000000E-01  3.38650000E+01  5.09479000E+00  1.15879000E+00
  3.25840000E-01  1.02741000E-01  7.50000000E-01  3.38650000E+01  5.09479000E+00
  1.15879000E+00  3.25840000E-01  1.02741000E-01  7.50000000E-01  3.38650000E+01
  5.09479000E+00  1.15879000E+00  3.25840000E-01  1.02741000E-01  7.50000000E-01
  8.58850000E+03  1.29723000E+03  2.99296000E+02  8.73771000E+01  2.56789000E+01
  3.74004000E+00  4.21175000E+01  9.62837000E+00  2.85332000E+00  9.05661000E-01
  2.55611000E-01  1.29200000E+00  8.58850000E+03  1.29723000E+03  2.99296000E+02
  8.73771000E+01  2.56789000E+01  3.74004000E+00  4.21175000E+01  9.62837000E+00
  2.85332000E+00  9.05661000E-01  2.55611000E-01  1.29200000E+00  3.38650000E+01
  5.09479000E+00  1.15879000E+00  3.25840000E-01  1.02741000E-01  7.50000000E-01
  3.38650000E+01  5.09479000E+00  1.15879000E+00  3.25840000E-01  1.02741000E-01
  7.50000000E-01  4.56324000E+03  6.82024000E+02  1.54973000E+02  4.44553000E+01
  1.30290000E+01  1.82773000E+00  2.09642000E+01  4.80331000E+00  1.45933000E+00
  4.83456000E-01  1.45585000E-01  6.26000000E-01  3.38650000E+01  5.09479000E+00
  1.15879000E+00  3.25840000E-01  1.02741000E-01  7.50000000E-01  3.38650000E+01
  5.09479000E+00  1.15879000E+00  3.25840000E-01  1.02741000E-01  7.50000000E-01
  3.38650000E+01  5.09479000E+00  1.15879000E+00  3.25840000E-01  1.02741000E-01
  7.50000000E-01
Contraction coefficients                   R   N=         156
  1.96665025E-03  1.52306019E-02  7.61269097E-02  2.60801033E-01  6.16462078E-01
  2.21006028E-01  1.14660081E-01  9.19999648E-01 -3.03068213E-03  1.00000000E+00
  1.00000000E+00  1.00000000E+00  1.96665025E-03  1.52306019E-02  7.61269097E-02
  2.60801033E-01  6.16462078E-01  2.21006028E-01  1.14660081E-01  9.19999648E-01
 -3.03068213E-03  1.00000000E+00  1.00000000E+00  1.00000000E+00  1.96665025E-03
  1.52306019E-02  7.61269097E-02  2.60801033E-01  6.16462078E-01  2.21006028E-01
  1.14660081E-01  9.19999648E-01 -3.03068213E-03  1.00000000E+00  1.00000000E+00
  1.00000000E+00  1.96665025E-03  1.52306019E-02  7.61269097E-02  2.60801033E-01
  6.16462078E-01  2.21006028E-01  1.14660081E-01  9.19999648E-01 -3.03068213E-03
  1.00000000E+00  1.00000000E+00  1.00000000E+00  1.96665025E-03  1.52306019E-02
  7.61269097E-02  2.60801033E-01  6.16462078E-01  2.21006028E-01  1.14660081E-01
  9.19999648E-01 -3.03068213E-03  1.00000000E+00  1.00000000E+00  1.00000000E+00
  1.96665025E-03  1.52306019E-02  7.61269097E-02  2.60801033E-01  6.16462078E-01
  2.21006028E-01  1.14660081E-01  9.19999648E-01 -3.03068213E-03  1.00000000E+00
  1.00000000E+00  1.00000000E+00  2.54938145E-02  1.90373109E-01  8.52161486E-01
  1.00000000E+00  1.00000000E+00  1.00000000E+00  2.54938145E-02  1.90373109E-01
  8.52161486E-01  1.00000000E+00  1.00000000E+00  1.00000000E+00  2.54938145E-02
  1.90373109E-01  8.52161486E-01  1.00000000E+00  1.00000000E+00  1.00000000E+00
  1.89515008E-03  1.43859006E-02  7.07320031E-02  2.40001011E-01  5.94797026E-01
  2.80802012E-01  1.13889012E-01  9.20811101E-01 -3.27447036E-03  1.00000000E+00
  1.00000000E+00  1.00000000E+00  1.89515008E-03  1.43859006E-02  7.07320031E-02
  2.40001011E-01  5.94797026E-01  2.80802012E-01  1.13889012E-01  9.20811101E-01
 -3.27447036E-03  1.00000000E+00  1.00000000E+00  1.00000000E+00  2.54938145E-02
  1.90373109E-01  8.52161486E-01  1.00000000E+00  1.00000000E+00  1.00000000E+00
  2.54938145E-02  1.90373109E-01  8.52161486E-01  1.00000000E+00  1.00000000E+00
  1.00000000E+00  1.96665025E-03  1.52306019E-02  7.61269097E-02  2.60801033E-01
  6.16462078E-01  2.21006028E-01  1.14660081E-01  9.19999648E-01 -3.03068213E-03
  1.00000000E+00  1.00000000E+00  1.00000000E+00  2.54938145E-02  1.90373109E-01
  8.52161486E-01  1.00000000E+00  1.00000000E+00  1.00000000E+00  2.54938145E-02
  1.90373109E-01  8.52161486E-01  1.00000000E+00  1.00000000E+00  1.00000000E+00
  2.54938145E-02  1.90373109E-01  8.52161486E-01  1.00000000E+00  1.00000000E+00
  1.00000000E+00
P(S=P) Contraction coefficients            R   N=         156
  0.00000000E+00  0.00000000E+00  0.00000000E+00  0.00000000E+00  0.00000000E+00
  0.00000000E+00  4.02486927E-02  2.37593957E-01  8.15853851E-01  1.00000000E+00
  1.00000000E+00  0.00000000E+00  0.00000000E+00  0.00000000E+00  0.00000000E+00
  0.00000000E+00  0.00000000E+00  0.00000000E+00  4.02486927E-02  2.37593957E-01
  8.15853851E-01  1.00000000E+00  1.00000000E+00  0.00000000E+00  0.00000000E+00
  0.00000000E+00  0.00000000E+00  0.00000000E+00  0.00000000E+00  0.00000000E+00
  4.02486927E-02  2.37593957E-01  8.15853851E-01  1.00000000E+00  1.00000000E+00
  0.00000000E+00  0.00000000E+00  0.00000000E+00  0.00000000E+00  0.00000000E+00
  0.00000000E+00  0.00000000E+00  4.02486927E-02  2.37593957E-01  8.15853851E-01
  1.00000000E+00  1.00000000E+00  0.00000000E+00  0.00000000E+00  0.00000000E+00
  0.00000000E+00  0.00000000E+00  0.00000000E+00  0.00000000E+00  4.02486927E-02
  2.37593957E-01  8.15853851E-01  1.00000000E+00  1.00000000E+00  0.00000000E+00
  0.00000000E+00  0.00000000E+00  0.00000000E+00  0.00000000E+00  0.00000000E+00
  0.00000000E+00  4.02486927E-02  2.37593957E-01  8.15853851E-01  1.00000000E+00
  1.00000000E+00  0.00000000E+00  0.00000000E+00  0.00000000E+00  0.00000000E+00
  0.00000000E+00  0.00000000E+00  0.00000000E+00  0.00000000E+00  0.00000000E+00
  0.00000000E+00  0.00000000E+00  0.00000000E+00  0.00000000E+00  0.00000000E+00
  0.00000000E+00  0.00000000E+00  0.00000000E+00  0.00000000E+00  0.00000000E+00
  0.00000000E+00  0.00000000E+00  0.00000000E+00  0.00000000E+00  0.00000000E+00
  0.00000000E+00  3.65113974E-02  2.37152983E-01  8.19701941E-01  1.00000000E+00
  1.00000000E+00  0.00000000E+00  0.00000000E+00  0.00000000E+00  0.00000000E+00
  0.00000000E+00  0.00000000E+00  0.00000000E+00  3.65113974E-02  2.37152983E-01
  8.19701941E-01  1.00000000E+00  1.00000000E+00  0.00000000E+00  0.00000000E+00
  0.00000000E+00  0.00000000E+00  0.00000000E+00  0.00000000E+00  0.00000000E+00
  0.00000000E+00  0.00000000E+00  0.00000000E+00  0.00000000E+00  0.00000000E+00
  0.00000000E+00  0.00000000E+00  0.00000000E+00  0.00000000E+00  0.00000000E+00
  0.00000000E+00  0.00000000E+00  4.02486927E-02  2.37593957E-01  8.15853851E-01
  1.00000000E+00  1.00000000E+00  0.00000000E+00  0.00000000E+00  0.00000000E+00
  0.00000000E+00  0.00000000E+00  0.00000000E+00  0.00000000E+00  0.00000000E+00
  0.00000000E+00  0.00000000E+00  0.00000000E+00  0.00000000E+00  0.00000000E+00
  0.00000000E+00  0.00000000E+00  0.00000000E+00  0.00000000E+00  0.00000000E+00
  0.00000000E+00
Coordinates of each shell                  R   N=         231
  2.13755407E+00  2.44814972E+00 -1.47570431E-04  2.13755407E+00  2.44814972E+00
 -1.47570431E-04  2.13755407E+00  2.44814972E+00 -1.47570431E-04  2.13755407E+00
  2.44814972E+00 -1.47570431E-04  2.13755407E+00  2.44814972E+00 -1.47570431E-04
 -4.48980267E-01  2.98454636E+00 -9.08786473E-05 -4.48980267E-01  2.98454636E+00
 -9.08786473E-05 -4.48980267E-01  2.98454636E+00 -9.08786473E-05 -4.48980267E-01
  2.98454636E+00 -9.08786473E-05 -4.48980267E-01  2.98454636E+00 -9.08786473E-05
 -2.19015296E+00  1.03014609E+00 -9.62042391E-06 -2.19015296E+00  1.03014609E+00
 -9.62042391E-06 -2.19015296E+00  1.03014609E+00 -9.62042391E-06 -2.19015296E+00
  1.03014609E+00 -9.62042391E-06 -2.19015296E+00  1.03014609E+00 -9.62042391E-06
 -1.35688556E+00 -1.48857530E+00  2.62843725E-05 -1.35688556E+00 -1.48857530E+00
  2.62843725E-05 -1.35688556E+00 -1.48857530E+00  2.62843725E-05 -1.35688556E+00
 -1.48857530E+00  2.62843725E-05 -1.35688556E+00 -1.48857530E+00  2.62843725E-05
  1.21516969E+00 -1.99826822E+00  2.62843725E-05  1.21516969E+00 -1.99826822E+00
  2.62843725E-05  1.21516969E+00 -1.99826822E+00  2.62843725E-05  1.21516969E+00
 -1.99826822E+00  2.62843725E-05  1.21516969E+00 -1.99826822E+00  2.62843725E-05
  2.99928641E+00 -4.13583931E-02 -3.41868635E-05  2.99928641E+00 -4.13583931E-02
 -3.41868635E-05  2.99928641E+00 -4.13583931E-02 -3.41868635E-05  2.99928641E+00
 -4.13583931E-02 -3.41868635E-05  2.99928641E+00 -4.13583931E-02 -3.41868635E-05
  3.48146479E+00  3.99444470E+00 -2.59064272E-04  3.48146479E+00  3.99444470E+00
 -2.59064272E-04  3.48146479E+00  3.99444470E+00 -2.59064272E-04  3.48146479E+00
  3.99444470E+00 -2.59064272E-04 -1.10142161E+00  4.93096043E+00 -9.84375518E-05
 -1.10142161E+00  4.93096043E+00 -9.84375518E-05 -1.10142161E+00  4.93096043E+00
 -9.84375518E-05 -1.10142161E+00  4.93096043E+00 -9.84375518E-05  1.80455277E+00
 -3.96124575E+00 -5.84097166E-06  1.80455277E+00 -3.96124575E+00 -5.84097166E-06
  1.80455277E+00 -3.96124575E+00 -5.84097166E-06  1.80455277E+00 -3.96124575E+00
 -5.84097166E-06 -3.05845715E+00 -3.42141001E+00  1.68357418E-05 -3.05845715E+00
 -3.42141001E+00  1.68357418E-05 -3.05845715E+00 -3.42141001E+00  1.68357418E-05
 -3.05845715E+00 -3.42141001E+00  1.68357418E-05 -3.05845715E+00 -3.42141001E+00
  1.68357418E-05 -4.77893416E+00  1.33607551E+00  1.41557666E-04 -4.77893416E+00
  1.33607551E+00  1.41557666E-04 -4.77893416E+00  1.33607551E+00  1.41557666E-04
 -4.77893416E+00  1.33607551E+00  1.41557666E-04 -4.77893416E+00  1.33607551E+00
  1.41557666E-04 -4.72857827E+00 -2.68562828E+00 -3.89455375E-04 -4.72857827E+00
 -2.68562828E+00 -3.89455375E-04 -4.72857827E+00 -2.68562828E+00 -3.89455375E-04
 -4.72857827E+00 -2.68562828E+00 -3.89455375E-04 -5.19186404E+00  3.10575675E+00
 -2.06564245E-03 -5.19186404E+00  3.10575675E+00 -2.06564245E-03 -5.19186404E+00
  3.10575675E+00 -2.06564245E-03 -5.19186404E+00  3.10575675E+00 -2.06564245E-03
  5.78890206E+00 -6.46308610E-01  2.83287125E-04  5.78890206E+00 -6.46308610E-01
  2.83287125E-04  5.78890206E+00 -6.46308610E-01  2.83287125E-04  5.78890206E+00
 -6.46308610E-01  2.83287125E-04  5.78890206E+00 -6.46308610E-01  2.83287125E-04
  6.31982071E+00 -1.75064939E+00  1.66701417E+00  6.31982071E+00 -1.75064939E+00
  1.66701417E+00  6.31982071E+00 -1.75064939E+00  1.66701417E+00  6.31982071E+00
 -1.75064939E+00  1.66701417E+00  6.31906860E+00 -1.75607480E+00 -1.66304987E+00
  6.31906860E+00 -1.75607480E+00 -1.66304987E+00  6.31906860E+00 -1.75607480E+00
 -1.66304987E+00  6.31906860E+00 -1.75607480E+00 -1.66304987E+00  6.92672679E+00
  1.07512239E+00 -2.73460550E-03  6.92672679E+00  1.07512239E+00 -2.73460550E-03
  6.92672679E+00  1.07512239E+00 -2.73460550E-03  6.92672679E+00  1.07512239E+00
 -2.73460550E-03
Num ILSW                                   I              100
ILSW                                       I   N=         100
           0           0           0           0           2           0
           0           0           0           0         402          -1
           5           0           0           0           0           0
           0           0           1           0           0           0
           1           0           0           0           0           0
           0           0      100000           0          -1           0
           0           0           0           0           0           0
           0           0           0           1           0           0
           0 -2000000000           1           0           0           0
           0           0           4          52           0           0
           0           0           5           0           0           0
           0           0           0           0           0           1
           0           0           0           0           0           0
           0           0           0           0           0           0
           0           0           0           0           0           0
           0           0           0           0           0           0
           0           0           0           0
Num RLSW                                   I               52
RLSW                                       R   N=          52
  8.00000000E-01  7.20000000E-01  1.00000000E+00  8.10000000E-01  2.00000000E-01
  0.00000000E+00  0.00000000E+00  1.00000000E+00  0.00000000E+00  0.00000000E+00
  0.00000000E+00  0.00000000E+00  1.00000000E+00  0.00000000E+00  0.00000000E+00
  0.00000000E+00  0.00000000E+00  1.00000000E+00  0.00000000E+00  0.00000000E+00
  0.00000000E+00  0.00000000E+00  1.00000000E+00  0.00000000E+00  0.00000000E+00
  0.00000000E+00  0.00000000E+00  1.00000000E+00  0.00000000E+00  0.00000000E+00
  0.00000000E+00  0.00000000E+00  1.00000000E+00  0.00000000E+00  0.00000000E+00
  0.00000000E+00  0.00000000E+00  0.00000000E+00  1.00000000E+00  1.00000000E+00
  0.00000000E+00  1.00000000E+00  0.00000000E+00  0.00000000E+00  0.00000000E+00
  0.00000000E+00  0.00000000E+00  0.00000000E+00  0.00000000E+00  0.00000000E+00
  0.00000000E+00  0.00000000E+00
MxBond                                     I                4
NBond                                      I   N=          17
           3           3           3           3           3           3
           1           1           1           2           2           1
           1           4           1           1           1
IBond                                      I   N=          68
           2           6           7           0           1           3
           8           0           2           4          11           0
           3           5          10           0           4           6
           9           0           1           5          14           0
           1           0           0           0           2           0
           0           0           5           0           0           0
           4          12           0           0           3          13
           0           0          10           0           0           0
          11           0           0           0           6          15
          16          17          14           0           0           0
          14           0           0           0          14           0
           0           0
RBond                                      R   N=          68
  1.50000000E+00  1.50000000E+00  1.00000000E+00  0.00000000E+00  1.50000000E+00
  2.00000000E+00  1.00000000E+00  0.00000000E+00  2.00000000E+00  1.50000000E+00
  1.00000000E+00  0.00000000E+00  1.50000000E+00  1.50000000E+00  1.00000000E+00
  0.00000000E+00  1.50000000E+00  1.50000000E+00  1.00000000E+00  0.00000000E+00
  1.50000000E+00  1.50000000E+00  1.00000000E+00  0.00000000E+00  1.00000000E+00
  0.00000000E+00  0.00000000E+00  0.00000000E+00  1.00000000E+00  0.00000000E+00
  0.00000000E+00  0.00000000E+00  1.00000000E+00  0.00000000E+00  0.00000000E+00
  0.00000000E+00  1.00000000E+00  1.00000000E+00  0.00000000E+00  0.00000000E+00
  1.00000000E+00  1.00000000E+00  0.00000000E+00  0.00000000E+00  1.00000000E+00
  0.00000000E+00  0.00000000E+00  0.00000000E+00  1.00000000E+00  0.00000000E+00
  0.00000000E+00  0.00000000E+00  1.00000000E+00  1.00000000E+00  1.00000000E+00
  1.00000000E+00  1.00000000E+00  0.00000000E+00  0.00000000E+00  0.00000000E+00
  1.00000000E+00  0.00000000E+00  0.00000000E+00  0.00000000E+00  1.00000000E+00
  0.00000000E+00  0.00000000E+00  0.00000000E+00
Virial Ratio                               R      2.003691729642024E+00
SCF Energy                                 R     -4.221229833583269E+02
Total Energy                               R     -4.221229833583269E+02
RMS Density                                R      9.749751581314165E-09
Job Status                                 I                1
Nuclear derivative order                   I                0
External E-field                           R   N=          35
  0.00000000E+00  0.00000000E+00  0.00000000E+00  0.00000000E+00  0.00000000E+00
  0.00000000E+00  0.00000000E+00  0.00000000E+00  0.00000000E+00  0.00000000E+00
  0.00000000E+00  0.00000000E+00  0.00000000E+00  0.00000000E+00  0.00000000E+00
  0.00000000E+00  0.00000000E+00  0.00000000E+00  0.00000000E+00  0.00000000E+00
  0.00000000E+00  0.00000000E+00  0.00000000E+00  0.00000000E+00  0.00000000E+00
  0.00000000E+00  0.00000000E+00  0.00000000E+00  0.00000000E+00  0.00000000E+00
  0.00000000E+00  0.00000000E+00  0.00000000E+00  0.00000000E+00  0.00000000E+00
IOpCl                                      I                0
IROHF                                      I                0
Alpha Orbital Energies                     R   N=         210
 -1.91596459E+01 -1.91406008E+01 -1.02320213E+01 -1.02291869E+01 -1.01768056E+01
 -1.01757898E+01 -1.01657493E+01 -1.01643468E+01 -1.01639412E+01 -1.07944366E+00
 -1.04964400E+00 -8.54365532E-01 -7.68025608E-01 -7.44303428E-01 -6.87760146E-01
 -6.30719819E-01 -6.06549422E-01 -5.53990231E-01 -5.28193124E-01 -4.82751842E-01
 -4.59931132E-01 -4.38897780E-01 -4.34971611E-01 -4.13431164E-01 -4.13340753E-01
 -3.94726734E-01 -3.73921735E-01 -3.70830703E-01 -3.59004707E-01 -3.44937933E-01
 -3.21800280E-01 -2.39586015E-01 -2.11704170E-01 -4.13293405E-03  1.40546840E-02
  1.91739505E-02  5.09165412E-02  6.42594740E-02  8.41279871E-02  9.78624271E-02
  1.16316245E-01  1.18074060E-01  1.45225358E-01  1.78768982E-01  1.84529336E-01
  2.17257015E-01  2.49583938E-01  2.59620542E-01  2.92601722E-01  3.10599590E-01
  3.11354057E-01  3.23326344E-01  3.45468932E-01  3.59463627E-01  3.86124997E-01
  3.92985060E-01  4.04102172E-01  4.22679259E-01  4.35534333E-01  4.45612930E-01
  4.52494145E-01  4.72904119E-01  4.83399337E-01  4.89407128E-01  5.01821667E-01
  5.11349872E-01  5.26406490E-01  5.32587203E-01  5.60740469E-01  5.62415916E-01
  5.97912419E-01  6.04885643E-01  6.19278307E-01  6.30317891E-01  6.37464162E-01
  6.42105012E-01  6.69974793E-01  6.96768637E-01  7.54582023E-01  7.63506349E-01
  7.85715807E-01  7.88807045E-01  8.07350828E-01  8.37031954E-01  8.59850004E-01
  8.64187038E-01  8.88733265E-01  9.10342350E-01  9.25021684E-01  9.34352000E-01
  9.60492787E-01  1.00180061E+00  1.01314200E+00  1.01564881E+00  1.03637106E+00
  1.06177642E+00  1.11178003E+00  1.15648324E+00  1.17321416E+00  1.20405357E+00