 Generated by Multiwfn (http://sobereva.com/multiwfn)
GAUSSIAN             57 MOL ORBITALS    248 PRIMITIVES       14 NUCLEI
  C    1    (CENTRE  1)   2.09579331  2.34768260  0.00005301  CHARGE =  6.0
  C    2    (CENTRE  2)  -0.45962474  2.64602683 -0.00002258  CHARGE =  6.0
  C    3    (CENTRE  3)  -3.99121101 -0.44188210  0.00000766  CHARGE =  6.0
  C    4    (CENTRE  4)  -1.54743230  0.11012207 -0.00013596  CHARGE =  6.0
  C    5    (CENTRE  5)   0.54367441 -1.69130467 -0.00010950  CHARGE =  6.0
  C    6    (CENTRE  6)   2.73327549 -0.32625717 -0.00000368  CHARGE =  6.0
  H    7    (CENTRE  7)   3.46103158  3.87014238  0.00011726  CHARGE =  1.0
  H    8    (CENTRE  8)  -1.53132626  4.38083130 -0.00011139  CHARGE =  1.0
  O    9    (CENTRE  9)  -6.12089643 -0.92168361  0.00009648  CHARGE =  8.0
  H   10    (CENTRE 10)   0.33885082 -3.72122013 -0.00001313  CHARGE =  1.0
  C   11    (CENTRE 11)   5.37143709 -1.35869198  0.00005301  CHARGE =  6.0
  H   12    (CENTRE 12)   6.42665260 -0.72387248 -1.66355793  CHARGE =  1.0
  H   13    (CENTRE 13)   6.42636914 -0.72451877  1.66408917  CHARGE =  1.0
  H   14    (CENTRE 14)   5.37012001 -3.42206692 -0.00034761  CHARGE =  1.0
CENTRE ASSIGNMENTS    1  1  1  1  1  1  1  1  1  1  1  1  1  1  1  1  1  1  1  1
CENTRE ASSIGNMENTS    1  1  1  1  1  1  1  1  2  2  2  2  2  2  2  2  2  2  2  2
CENTRE ASSIGNMENTS    2  2  2  2  2  2  2  2  2  2  2  2  2  2  2  2  3  3  3  3
CENTRE ASSIGNMENTS    3  3  3  3  3  3  3  3  3  3  3  3  3  3  3  3  3  3  3  3
CENTRE ASSIGNMENTS    3  3  3  3  4  4  4  4  4  4  4  4  4  4  4  4  4  4  4  4
CENTRE ASSIGNMENTS    4  4  4  4  4  4  4  4  4  4  4  4  5  5  5  5  5  5  5  5
CENTRE ASSIGNMENTS    5  5  5  5  5  5  5  5  5  5  5  5  5  5  5  5  5  5  5  5
CENTRE ASSIGNMENTS    6  6  6  6  6  6  6  6  6  6  6  6  6  6  6  6  6  6  6  6
CENTRE ASSIGNMENTS    6  6  6  6  6  6  6  6  7  7  7  7  8  8  8  8  9  9  9  9
CENTRE ASSIGNMENTS    9  9  9  9  9  9  9  9  9  9  9  9  9  9  9  9  9  9  9  9
CENTRE ASSIGNMENTS    9  9  9  9 10 10 10 10 11 11 11 11 11 11 11 11 11 11 11 11
CENTRE ASSIGNMENTS   11 11 11 11 11 11 11 11 11 11 11 11 11 11 11 11 12 12 12 12
CENTRE ASSIGNMENTS   13 13 13 13 14 14 14 14
TYPE ASSIGNMENTS      1  1  1  1  1  1  1  1  1  2  2  2  3  3  3  4  4  4  1  2
TYPE ASSIGNMENTS      3  4  5  6  7  8  9 10  1  1  1  1  1  1  1  1  1  2  2  2
TYPE ASSIGNMENTS      3  3  3  4  4  4  1  2  3  4  5  6  7  8  9 10  1  1  1  1
TYPE ASSIGNMENTS      1  1  1  1  1  2  2  2  3  3  3  4  4  4  1  2  3  4  5  6
TYPE ASSIGNMENTS      7  8  9 10  1  1  1  1  1  1  1  1  1  2  2  2  3  3  3  4
TYPE ASSIGNMENTS      4  4  1  2  3  4  5  6  7  8  9 10  1  1  1  1  1  1  1  1
TYPE ASSIGNMENTS      1  2  2  2  3  3  3  4  4  4  1  2  3  4  5  6  7  8  9 10
TYPE ASSIGNMENTS      1  1  1  1  1  1  1  1  1  2  2  2  3  3  3  4  4  4  1  2
TYPE ASSIGNMENTS      3  4  5  6  7  8  9 10  1  1  1  1  1  1  1  1  1  1  1  1
TYPE ASSIGNMENTS      1  1  1  1  1  2  2  2  3  3  3  4  4  4  1  2  3  4  5  6
TYPE ASSIGNMENTS      7  8  9 10  1  1  1  1  1  1  1  1  1  1  1  1  1  2  2  2
TYPE ASSIGNMENTS      3  3  3  4  4  4  1  2  3  4  5  6  7  8  9 10  1  1  1  1
TYPE ASSIGNMENTS      1  1  1  1  1  1  1  1
EXPONENTS  0.3047525D+04 0.4573695D+03 0.1039487D+03 0.2921016D+02 0.9286663D+01
EXPONENTS  0.3163927D+01 0.7868272D+01 0.1881289D+01 0.5442493D+00 0.7868272D+01
EXPONENTS  0.1881289D+01 0.5442493D+00 0.7868272D+01 0.1881289D+01 0.5442493D+00
EXPONENTS  0.7868272D+01 0.1881289D+01 0.5442493D+00 0.1687145D+00 0.1687145D+00
EXPONENTS  0.1687145D+00 0.1687145D+00 0.8000000D+00 0.8000000D+00 0.8000000D+00
EXPONENTS  0.8000000D+00 0.8000000D+00 0.8000000D+00 0.3047525D+04 0.4573695D+03
EXPONENTS  0.1039487D+03 0.2921016D+02 0.9286663D+01 0.3163927D+01 0.7868272D+01
EXPONENTS  0.1881289D+01 0.5442493D+00 0.7868272D+01 0.1881289D+01 0.5442493D+00
EXPONENTS  0.7868272D+01 0.1881289D+01 0.5442493D+00 0.7868272D+01 0.1881289D+01
EXPONENTS  0.5442493D+00 0.1687145D+00 0.1687145D+00 0.1687145D+00 0.1687145D+00
EXPONENTS  0.8000000D+00 0.8000000D+00 0.8000000D+00 0.8000000D+00 0.8000000D+00
EXPONENTS  0.8000000D+00 0.3047525D+04 0.4573695D+03 0.1039487D+03 0.2921016D+02
EXPONENTS  0.9286663D+01 0.3163927D+01 0.7868272D+01 0.1881289D+01 0.5442493D+00
EXPONENTS  0.7868272D+01 0.1881289D+01 0.5442493D+00 0.7868272D+01 0.1881289D+01
EXPONENTS  0.5442493D+00 0.7868272D+01 0.1881289D+01 0.5442493D+00 0.1687145D+00
EXPONENTS  0.1687145D+00 0.1687145D+00 0.1687145D+00 0.8000000D+00 0.8000000D+00
EXPONENTS  0.8000000D+00 0.8000000D+00 0.8000000D+00 0.8000000D+00 0.3047525D+04
EXPONENTS  0.4573695D+03 0.1039487D+03 0.2921016D+02 0.9286663D+01 0.3163927D+01
EXPONENTS  0.7868272D+01 0.1881289D+01 0.5442493D+00 0.7868272D+01 0.1881289D+01
EXPONENTS  0.5442493D+00 0.7868272D+01 0.1881289D+01 0.5442493D+00 0.7868272D+01
EXPONENTS  0.1881289D+01 0.5442493D+00 0.1687145D+00 0.1687145D+00 0.1687145D+00
EXPONENTS  0.1687145D+00 0.8000000D+00 0.8000000D+00 0.8000000D+00 0.8000000D+00
EXPONENTS  0.8000000D+00 0.8000000D+00 0.3047525D+04 0.4573695D+03 0.1039487D+03
EXPONENTS  0.2921016D+02 0.9286663D+01 0.3163927D+01 0.7868272D+01 0.1881289D+01
EXPONENTS  0.5442493D+00 0.7868272D+01 0.1881289D+01 0.5442493D+00 0.7868272D+01
EXPONENTS  0.1881289D+01 0.5442493D+00 0.7868272D+01 0.1881289D+01 0.5442493D+00
EXPONENTS  0.1687145D+00 0.1687145D+00 0.1687145D+00 0.1687145D+00 0.8000000D+00
EXPONENTS  0.8000000D+00 0.8000000D+00 0.8000000D+00 0.8000000D+00 0.8000000D+00
EXPONENTS  0.3047525D+04 0.4573695D+03 0.1039487D+03 0.2921016D+02 0.9286663D+01
EXPONENTS  0.3163927D+01 0.7868272D+01 0.1881289D+01 0.5442493D+00 0.7868272D+01
EXPONENTS  0.1881289D+01 0.5442493D+00 0.7868272D+01 0.1881289D+01 0.5442493D+00
EXPONENTS  0.7868272D+01 0.1881289D+01 0.5442493D+00 0.1687145D+00 0.1687145D+00
EXPONENTS  0.1687145D+00 0.1687145D+00 0.8000000D+00 0.8000000D+00 0.8000000D+00
EXPONENTS  0.8000000D+00 0.8000000D+00 0.8000000D+00 0.1873114D+02 0.2825394D+01
EXPONENTS  0.6401217D+00 0.1612778D+00 0.1873114D+02 0.2825394D+01 0.6401217D+00
EXPONENTS  0.1612778D+00 0.5484672D+04 0.8252349D+03 0.1880470D+03 0.5296450D+02
EXPONENTS  0.1689757D+02 0.5799635D+01 0.1553962D+02 0.3599934D+01 0.1013762D+01
EXPONENTS  0.1553962D+02 0.3599934D+01 0.1013762D+01 0.1553962D+02 0.3599934D+01
EXPONENTS  0.1013762D+01 0.1553962D+02 0.3599934D+01 0.1013762D+01 0.2700058D+00
EXPONENTS  0.2700058D+00 0.2700058D+00 0.2700058D+00 0.8000000D+00 0.8000000D+00
EXPONENTS  0.8000000D+00 0.8000000D+00 0.8000000D+00 0.8000000D+00 0.1873114D+02
EXPONENTS  0.2825394D+01 0.6401217D+00 0.1612778D+00 0.3047525D+04 0.4573695D+03
EXPONENTS  0.1039487D+03 0.2921016D+02 0.9286663D+01 0.3163927D+01 0.7868272D+01
EXPONENTS  0.1881289D+01 0.5442493D+00 0.7868272D+01 0.1881289D+01 0.5442493D+00
EXPONENTS  0.7868272D+01 0.1881289D+01 0.5442493D+00 0.7868272D+01 0.1881289D+01
EXPONENTS  0.5442493D+00 0.1687145D+00 0.1687145D+00 0.1687145D+00 0.1687145D+00
EXPONENTS  0.8000000D+00 0.8000000D+00 0.8000000D+00 0.8000000D+00 0.8000000D+00
EXPONENTS  0.8000000D+00 0.1873114D+02 0.2825394D+01 0.6401217D+00 0.1612778D+00
EXPONENTS  0.1873114D+02 0.2825394D+01 0.6401217D+00 0.1612778D+00 0.1873114D+02
EXPONENTS  0.2825394D+01 0.6401217D+00 0.1612778D+00
MO    1     MO 0.0        OCC NO =    1.0000000  ORB. ENERGY =  -18.947975
  0.34951932D-05  0.64479490D-05  0.10408989D-04  0.13549411D-04  0.11561737D-04
  0.39919899D-05 -0.10595377D-04 -0.48833995D-05  0.13693562D-04 -0.87794295D-05
 -0.67315097D-05 -0.33594951D-05 -0.21907906D-04 -0.16797593D-04 -0.83831762D-05
 -0.75498243D-08 -0.57887264D-08 -0.28889802D-08  0.33267740D-04  0.25295208D-05
  0.13733361D-04  0.14645976D-08  0.43630110D-05  0.46447087D-05  0.19604343D-04
  0.14853540D-05 -0.47659268D-08 -0.77936883D-08  0.30476425D-05  0.56223054D-05
  0.90761441D-05  0.11814443D-04  0.10081286D-04  0.34808256D-05 -0.29831994D-04
 -0.13749539D-04  0.38555142D-04 -0.31503861D-04 -0.24155162D-04 -0.12055119D-04
  0.23819344D-04  0.18263162D-04  0.91145980D-05  0.58361366D-08  0.44747794D-08
  0.22332285D-08 -0.63218122D-04 -0.40317159D-04  0.36098995D-04  0.52592421D-08
  0.14672499D-05 -0.93524469D-04  0.27854438D-04  0.75923462D-04  0.13387907D-07
 -0.38670296D-07 -0.93754514D-04 -0.17295877D-03 -0.27920908D-03 -0.36344727D-03
 -0.31013021D-03 -0.10708051D-03  0.51221883D-04  0.23608119D-04 -0.66199630D-04
  0.23833119D-03  0.18273724D-03  0.91198690D-04  0.53203389D-04  0.40792984D-04
  0.20358558D-04 -0.67641824D-09 -0.51863460D-09 -0.25883502D-09  0.30804715D-04
  0.13730317D-02  0.30829159D-03 -0.68977657D-07 -0.22339463D-02 -0.42940931D-03
 -0.30102292D-03 -0.85834248D-03  0.18019240D-06  0.40654325D-07  0.35781876D-04
  0.66010574D-04  0.10656153D-03  0.13871145D-03  0.11836273D-03  0.40867808D-04
 -0.52044689D-04 -0.23987350D-04  0.67263032D-04 -0.66246124D-03 -0.50793326D-03
 -0.25349429D-03 -0.14877530D-03 -0.11407146D-03 -0.56929654D-04  0.46472361D-07
  0.35632059D-07  0.17782895D-07 -0.12549121D-02  0.56890862D-03  0.13348085D-03
 -0.36296004D-07  0.80518065D-03  0.88803776D-04  0.77361428D-04  0.34120522D-03
 -0.74683153D-07 -0.17150459D-07  0.27641739D-05  0.50993611D-05  0.82319499D-05
  0.10715553D-04  0.91436006D-05  0.31570656D-05 -0.28252718D-04 -0.13021652D-04
  0.36514071D-04 -0.10000254D-04 -0.76675604D-05 -0.38266500D-05 -0.32792550D-04
 -0.25143248D-04 -0.12548243D-04  0.29331693D-08  0.22489682D-08  0.11223927D-08
 -0.30936071D-04 -0.20383773D-04 -0.34030396D-04  0.49989187D-08  0.13406526D-04
 -0.10402529D-03  0.27588936D-04  0.37345944D-04 -0.50285501D-08  0.27818551D-07
  0.28656123D-05  0.52864952D-05  0.85340424D-05  0.11108787D-04  0.94791485D-05
  0.32729222D-05 -0.92789447D-05 -0.42766571D-05  0.11992193D-04 -0.33354083D-04
 -0.25573795D-04 -0.12763116D-04  0.20214720D-04  0.15499365D-04  0.77352695D-05
 -0.10369581D-07 -0.79507370D-08 -0.39679750D-08  0.20675161D-04  0.60700146D-04
 -0.30709090D-04  0.43930556D-08  0.63824344D-05 -0.34188110D-05  0.16040690D-04
 -0.54366722D-05 -0.37798781D-08  0.33725356D-08 -0.26601601D-05 -0.45121351D-05
 -0.51369063D-05 -0.12075483D-04 -0.14463595D-05 -0.24532995D-05 -0.27929948D-05
 -0.19016982D-04  0.82547128D+00  0.15193078D+01  0.24585268D+01  0.32318023D+01
  0.27718981D+01  0.94775903D+00 -0.15682332D-01 -0.69974259D-02  0.20663492D-01
  0.46790351D-02  0.36049443D-02  0.15827647D-02  0.10532027D-02  0.81143593D-03
  0.35626408D-03 -0.19627427D-06 -0.15121875D-06 -0.66393174D-07  0.53136121D-02
  0.81974515D-03  0.18532221D-03 -0.26669028D-07 -0.87374984D-02 -0.97365532D-02
 -0.99037346D-02  0.47498113D-03 -0.81483734D-07 -0.18283513D-07 -0.70070670D-06
 -0.11885312D-05 -0.13531008D-05 -0.14286188D-04  0.25930210D-05  0.47836174D-05
  0.77222418D-05  0.10052064D-04  0.85774447D-05  0.29615855D-05 -0.11716909D-04
 -0.54003127D-05  0.15143040D-04  0.19540172D-04  0.14982165D-04  0.74771502D-05
 -0.69759645D-05 -0.53487271D-05 -0.26693897D-05  0.57105014D-08  0.43784502D-08
  0.21851535D-08 -0.67558413D-04  0.21383387D-04 -0.82250198D-05 -0.32330241D-08
 -0.68556985D-05  0.47643655D-05  0.57601768D-05  0.12086059D-04 -0.52106401D-09
 -0.32978313D-08  0.21860726D-05  0.37079929D-05  0.42214189D-05  0.14845727D-05
  0.21873142D-05  0.37100989D-05  0.42238165D-05  0.14876149D-05  0.20920312D-05
  0.35484808D-05  0.40398200D-05  0.14263474D-05
MO    2     MO 0.0        OCC NO =    1.0000000  ORB. ENERGY =  -10.031557
 -0.10300460D-04 -0.19002338D-04 -0.30675665D-04 -0.39930601D-04 -0.34072855D-04
 -0.11764538D-04  0.16923099D-04  0.77998411D-05 -0.21871569D-04 -0.12206393D-03
 -0.93590878D-04 -0.46708407D-04 -0.17397874D-04 -0.13339587D-04 -0.66573886D-05
 -0.18149837D-07 -0.13916144D-07 -0.69451312D-08  0.87123436D-04  0.45728988D-04
 -0.98222238D-04  0.51355874D-08 -0.69183493D-04  0.12079217D-03 -0.34237868D-04
  0.86536083D-04  0.35788160D-08  0.29451168D-08 -0.13941460D-04 -0.25719271D-04
 -0.41518877D-04 -0.54045242D-04 -0.46116903D-04 -0.15923058D-04  0.44190449D-04
  0.20367337D-04 -0.57112140D-04  0.14512681D-04  0.11127403D-04  0.55533539D-05
  0.21149734D-04  0.16216275D-04  0.80930576D-05  0.54738241D-08  0.41969811D-08
  0.20945877D-08  0.64282606D-04  0.52013588D-04  0.71826499D-05  0.17585684D-08
  0.49158158D-04 -0.27150551D-04 -0.57691595D-04 -0.23249311D-04  0.18094275D-08
 -0.55163076D-08 -0.22982097D-04 -0.42397481D-04 -0.68442680D-04 -0.89092033D-04
 -0.76022394D-04 -0.26248706D-04  0.25981538D-04  0.11974867D-04 -0.33578778D-04
  0.41696578D-05  0.31970291D-05  0.15955416D-05 -0.38366381D-05 -0.29416908D-05
 -0.14681099D-05  0.30469965D-08  0.23362437D-08  0.11659493D-08  0.26421388D-03
  0.14548769D-03  0.38556634D-04 -0.12478804D-07  0.25138199D-04 -0.27036222D-04
 -0.33432683D-04  0.24419026D-04 -0.35687129D-08  0.76086211D-09 -0.82962715D-06
 -0.15305001D-05 -0.24707017D-05 -0.32161195D-05 -0.27443206D-05 -0.94754796D-06
  0.18299937D-04  0.84344243D-05 -0.23651006D-04 -0.48964795D-04 -0.37543099D-04
 -0.18736638D-04 -0.17717071D-04 -0.13584326D-04 -0.67795309D-05  0.16446605D-08
  0.12610214D-08  0.62933803D-09 -0.16010762D-03  0.21653201D-03  0.52790135D-04
 -0.67730682D-08  0.14141667D-05  0.12373889D-04 -0.25810858D-04 -0.43613179D-04
  0.16997968D-07  0.86159038D-08 -0.17574194D-04 -0.32420956D-04 -0.52337476D-04
 -0.68127842D-04 -0.58133611D-04 -0.20072139D-04  0.25877215D-04  0.11926785D-04
 -0.33443949D-04 -0.51701257D-04 -0.39641245D-04 -0.19783759D-04  0.85404140D-04
  0.65482478D-04  0.32680346D-04 -0.81081335D-08 -0.62168025D-08 -0.31026201D-08
  0.57642138D-04 -0.10649979D-04  0.43606861D-04  0.86191449D-08 -0.33355627D-04
  0.56913982D-04 -0.58834571D-04  0.15117454D-03  0.12293754D-07  0.18536270D-07
  0.15071086D-02  0.27803212D-02  0.44883004D-02  0.58424336D-02  0.49853592D-02
  0.17213247D-02  0.15235934D-04  0.70222282D-05 -0.19691061D-04 -0.37799548D-03
 -0.28982296D-03 -0.14464197D-03  0.20535629D-03  0.15745417D-03  0.78580668D-04
 -0.29973449D-08 -0.22981739D-08 -0.11469499D-08  0.79959830D-03  0.61740551D-03
 -0.31983203D-03  0.59213382D-08 -0.40662842D-03 -0.24554754D-03 -0.16381584D-03
  0.17836456D-03 -0.40038993D-08 -0.28789293D-09 -0.10390088D-04 -0.17623555D-04
 -0.20063795D-04  0.19894280D-04 -0.29009752D-05 -0.49206030D-05 -0.56019326D-05
  0.91701931D-05 -0.81224750D-05 -0.14949690D-04 -0.24191420D-04 -0.31800299D-04
 -0.27274932D-04 -0.93257624D-05  0.27220926D-04  0.12145924D-04 -0.35867076D-04
 -0.91744136D-05 -0.70683911D-05 -0.31034044D-05  0.67141921D-05  0.51729230D-05
  0.22711918D-05 -0.75084354D-08 -0.57848447D-08 -0.25398584D-08  0.95027936D-04
 -0.17046905D-05 -0.50864275D-05  0.44706231D-08 -0.50779726D-04 -0.23591935D-04
 -0.20448608D-04 -0.20637511D-04  0.88204854D-08  0.21822131D-08  0.10836104D-05
  0.18380084D-05  0.20925076D-05 -0.47233257D-05  0.53255701D+00  0.98246370D+00
  0.15860010D+01  0.20645021D+01  0.17616434D+01  0.60825313D+00 -0.20038385D-01
 -0.92356734D-02  0.25897792D-01  0.31247981D-03  0.23958970D-03  0.11957205D-03
 -0.83045659D-04 -0.63674144D-04 -0.31777860D-04  0.53864072D-08  0.41299554D-08
  0.20611372D-08 -0.35768457D-02  0.23160696D-03 -0.88354039D-04  0.94349877D-08
 -0.10287932D-01 -0.10119953D-01 -0.10117859D-01  0.95242939D-04 -0.51622500D-08
  0.12369487D-07  0.42792193D-06  0.72583658D-06  0.82633930D-06  0.50822640D-03
  0.42473093D-06  0.72042404D-06  0.82017731D-06  0.50822634D-03 -0.31861714D-05
 -0.54043498D-05 -0.61526612D-05  0.51066948D-03
MO    3     MO 0.0        OCC NO =    1.0000000  ORB. ENERGY =  -10.010521
 -0.26720956D-04 -0.49294947D-04 -0.79577328D-04 -0.10358604D-03 -0.88390153D-04
 -0.30518996D-04  0.82661043D-04  0.38098399D-04 -0.10683189D-03 -0.61720697D-04
 -0.47323516D-04 -0.23617751D-04  0.28983079D-04  0.22222387D-04  0.11090528D-04
  0.17356230D-07  0.13307657D-07  0.66414533D-08  0.19802010D-03 -0.82697016D-04
 -0.44628553D-04 -0.87404930D-08  0.85625728D-04 -0.14214090D-04 -0.89427199D-04
  0.33439451D-04  0.32525655D-07  0.19001263D-07  0.42504945D-05  0.78413323D-05
  0.12658342D-04  0.16477400D-04  0.14060195D-04  0.48546475D-05  0.48640506D-04
  0.22418365D-04 -0.62863435D-04  0.20932345D-03  0.16049594D-03  0.80098723D-04
 -0.58745183D-05 -0.45042080D-05 -0.22479155D-05 -0.23906276D-07 -0.18329816D-07
 -0.91478629D-08  0.39829943D-04 -0.63887559D-04 -0.82362815D-04 -0.10168029D-07
 -0.10315881D-03  0.16991763D-03 -0.77582696D-04 -0.27379677D-04 -0.36997657D-07
  0.58553733D-07  0.53235549D+00  0.98209192D+00  0.15854009D+01  0.20637209D+01
  0.17609768D+01  0.60802296D+00 -0.21030739D-01 -0.96930484D-02  0.27180320D-01
 -0.19744764D-02 -0.15139033D-02 -0.75554385D-03 -0.44701208D-03 -0.34274051D-03
 -0.17105154D-03  0.75804749D-07  0.58122274D-07  0.29007088D-07 -0.26873735D-02
 -0.25898653D-02 -0.58147965D-03  0.14428004D-06 -0.89883105D-02 -0.11163347D-01
 -0.11830691D-01  0.10368823D-02 -0.27032604D-06 -0.59714062D-07  0.76353509D-02
  0.14085731D-01  0.22738738D-01  0.29599081D-01  0.25256949D-01  0.87206176D-02
  0.68323443D-04  0.31490212D-04 -0.88301842D-04  0.99221214D-03  0.76076534D-03
  0.37967522D-03  0.21899634D-03  0.16791251D-03  0.83800109D-04 -0.53275880D-07
 -0.40848566D-07 -0.20386297D-07  0.30760904D-02 -0.15197856D-02 -0.34700616D-03
  0.80509534D-07 -0.84411671D-03 -0.49953576D-03 -0.39140513D-03 -0.16569941D-03
  0.22828497D-07  0.15867242D-08  0.55698234D-05  0.10275237D-04  0.16587418D-04
  0.21591889D-04  0.18424398D-04  0.63615020D-05  0.36891309D-04  0.17003171D-04
 -0.47678665D-04  0.16446758D-03  0.12610331D-03  0.62934389D-04  0.82865544D-04
  0.63536043D-04  0.31708939D-04 -0.19323855D-07 -0.14816306D-07 -0.73943753D-08
 -0.87969456D-04 -0.12792365D-03  0.13684807D-04 -0.87448072D-08 -0.74724456D-04
  0.12710442D-03 -0.68712324D-04 -0.21841638D-03 -0.11276112D-07 -0.55579291D-07
 -0.22759316D-04 -0.41986494D-04 -0.67779220D-04 -0.88228405D-04 -0.75285458D-04
 -0.25994259D-04  0.72638267D-04  0.33478911D-04 -0.93878360D-04  0.99472798D-05
  0.76269432D-05  0.38063792D-05 -0.38752314D-04 -0.29712817D-04 -0.14828778D-04
  0.29254358D-07  0.22430386D-07  0.11194335D-07  0.17742054D-03 -0.24765487D-03
 -0.38731899D-04 -0.23800993D-07  0.86421836D-04 -0.79819311D-05 -0.74918358D-04
  0.68650347D-04  0.25653048D-07  0.19686911D-08 -0.38098765D-05 -0.64622716D-05
 -0.73570678D-05  0.36343660D-04 -0.18547879D-04 -0.31460713D-04 -0.35816910D-04
  0.36746952D-04  0.75343114D-04  0.13867155D-03  0.22439674D-03  0.29497580D-03
  0.25299903D-03  0.86504665D-04 -0.12260863D-02 -0.54707732D-03  0.16155267D-02
 -0.77054919D-03 -0.59366661D-03 -0.26065162D-03 -0.17014067D-03 -0.13108421D-03
 -0.57553030D-04  0.67165102D-07  0.51747090D-07  0.22719760D-07 -0.42207488D-02
 -0.13594268D-02 -0.30768868D-03  0.31906925D-07  0.35096942D-03  0.14383879D-02
  0.15732275D-02 -0.51709073D-03  0.57000214D-07  0.12902243D-07 -0.16061931D-04
 -0.27244076D-04 -0.31016417D-04  0.28444344D-04  0.76229211D-05  0.14062801D-04
  0.22701721D-04  0.29550896D-04  0.25215833D-04  0.87064211D-05  0.28402119D-04
  0.13090511D-04 -0.36707158D-04 -0.13690054D-04 -0.10496665D-04 -0.52385717D-05
 -0.11727216D-04 -0.89916852D-05 -0.44874811D-05 -0.21596380D-07 -0.16558735D-07
 -0.82639691D-08  0.16155834D-03 -0.43067957D-04  0.63205951D-04  0.16812391D-07
 -0.26106204D-04 -0.11374036D-04 -0.20727686D-04 -0.51164334D-04 -0.57940912D-08
  0.45356538D-09 -0.70775561D-05 -0.12004875D-04 -0.13667126D-04 -0.10477161D-04
 -0.70801583D-05 -0.12009289D-04 -0.13672151D-04 -0.10488620D-04 -0.32364731D-05
 -0.54896709D-05 -0.62497963D-05  0.28380376D-04
MO    4     MO 0.0        OCC NO =    1.0000000  ORB. ENERGY =   -9.987263
  0.10752034D-01  0.19835403D-01  0.32020490D-01  0.41681164D-01  0.35566613D-01
  0.12280297D-01 -0.26346907D-03 -0.12143266D-03  0.34050984D-03 -0.18743464D-04
 -0.14371299D-04 -0.71722855D-05  0.37042893D-03  0.28402141D-03  0.14174659D-03
  0.10835035D-07  0.83076176D-08  0.41460834D-08  0.93966929D-03 -0.17598646D-04
 -0.36192165D-03 -0.13635779D-07 -0.47175508D-03 -0.75377337D-03 -0.39224594D-03
  0.10842897D-03 -0.13886466D-09 -0.12686013D-07  0.32633388D-03  0.60202229D-03
  0.97185064D-03  0.12650608D-02  0.10794786D-02  0.37271804D-03  0.95121442D-06
  0.43841386D-06 -0.12293582D-05 -0.50265332D-04 -0.38540268D-04 -0.19234295D-04
 -0.50215654D-04 -0.38502178D-04 -0.19215285D-04 -0.47375000D-08 -0.36324145D-08
 -0.18128294D-08 -0.22404234D-03 -0.22868587D-04  0.98985561D-04  0.30690819D-08
  0.64911140D-04  0.45446509D-04  0.44705965D-05 -0.66461605D-04  0.30836773D-08
 -0.13139900D-08 -0.35409728D-06 -0.65324035D-06 -0.10545325D-05 -0.13726879D-05
 -0.11713171D-05 -0.40442765D-06  0.11775432D-04  0.54272857D-05 -0.15218676D-04
 -0.25988618D-04 -0.19926424D-04 -0.99446819D-05 -0.41728708D-06 -0.31994927D-06
 -0.15967711D-06  0.35464989D-08  0.27192304D-08  0.13570865D-08  0.26022612D-04
  0.13637573D-04 -0.54424275D-04 -0.34279449D-11 -0.11535641D-04 -0.18595952D-04
 -0.24857006D-04 -0.58131568D-04  0.94116517D-09  0.10929576D-07  0.19171326D-03
  0.35367353D-03  0.57093875D-03  0.74319261D-03  0.63416760D-03  0.21896283D-03
  0.14093923D-04  0.64958763D-05 -0.18215115D-04  0.49367422D-05  0.37851808D-05
  0.18890705D-05  0.25515210D-04  0.19563445D-04  0.97635301D-05  0.43620059D-08
  0.33445095D-08  0.16691446D-08 -0.10356594D-03 -0.80710861D-04  0.11434477D-03
 -0.26096742D-09  0.72685793D-04  0.25219213D-04  0.61661565D-05  0.47539042D-05
  0.16385556D-08  0.61178829D-08  0.17012393D-01  0.31384542D-01  0.50664383D-01
  0.65949972D-01  0.56275231D-01  0.19430485D-01 -0.39507975D-03 -0.18209190D-03
  0.51060468D-03 -0.33078693D-03 -0.25362644D-03 -0.12657737D-03 -0.30446968D-03
 -0.23344804D-03 -0.11650693D-03 -0.84006407D-08 -0.64410784D-08 -0.32145496D-08
  0.12039174D-02  0.27403657D-03  0.31002100D-03  0.10733889D-07 -0.64523093D-03
 -0.68408741D-03 -0.53374152D-03 -0.13470219D-03 -0.13126896D-07 -0.19306521D-07
  0.53210819D+00  0.98163570D+00  0.15846644D+01  0.20627622D+01  0.17601587D+01
  0.60774051D+00 -0.19783354D-01 -0.91181300D-02  0.25568188D-01  0.22188827D-03
  0.17012986D-03  0.84906721D-04 -0.40613058D-04 -0.31139517D-04 -0.15540801D-04
 -0.11526901D-07 -0.88380963D-08 -0.44108295D-08 -0.32990833D-02  0.24703128D-03
 -0.22100828D-04  0.17636186D-07 -0.99934113D-02 -0.10253128D-01 -0.10486072D-01
  0.91455193D-05  0.43330490D-07  0.42923344D-08 -0.11141116D-04 -0.18897441D-04
 -0.21514069D-04  0.31417596D-04 -0.62238226D-05 -0.10556781D-04 -0.12018522D-04
 -0.12972337D-04  0.51845467D-05  0.95423336D-05  0.15441297D-04  0.20298017D-04
  0.17409491D-04  0.59526007D-05 -0.17430691D-04 -0.77775402D-05  0.22967180D-04
  0.41381136D-04  0.31881934D-04  0.13997886D-04 -0.64499245D-04 -0.49693191D-04
 -0.21817988D-04 -0.13552252D-08 -0.10441279D-08 -0.45842841D-09 -0.35047466D-04
 -0.21522003D-04  0.32943269D-04  0.89626628D-09  0.84999308D-05  0.29582765D-04
  0.22474733D-04  0.31139176D-04  0.22858037D-08 -0.15712648D-08 -0.16058385D-04
 -0.27238061D-04 -0.31009569D-04  0.38598336D-04 -0.16237074D-02 -0.29954231D-02
 -0.48355416D-02 -0.62944384D-02 -0.53710557D-02 -0.18544965D-02  0.10799153D-03
  0.49773198D-04 -0.13956924D-03  0.48099070D-03  0.36879316D-03  0.18405363D-03
 -0.87193401D-04 -0.66854370D-04 -0.33365016D-04  0.62213109D-07  0.47701066D-07
  0.23806175D-07  0.53217606D-03 -0.25913743D-03  0.14147258D-04 -0.41668839D-07
 -0.54936379D-03 -0.18522234D-03 -0.34909082D-04  0.39040185D-03 -0.21332262D-07
  0.11596617D-07 -0.32487257D-04 -0.55104536D-04 -0.62734567D-04  0.76338501D-04
 -0.32492780D-04 -0.55113904D-04 -0.62745232D-04  0.76383197D-04 -0.22595751D-04
 -0.38326670D-04 -0.43633559D-04 -0.55726155D-04
MO    5     MO 0.0        OCC NO =    1.0000000  ORB. ENERGY =   -9.979818
  0.26217408D-01  0.48365998D-01  0.78077717D-01  0.10163399D+00  0.86724467D-01
  0.29943874D-01 -0.93225133D-03 -0.42967379D-03  0.12048501D-02  0.10425283D-03
  0.79934460D-04  0.39892898D-04 -0.73834680D-04 -0.56611750D-04 -0.28253231D-04
 -0.13456222D-07 -0.10317377D-07 -0.51490944D-08 -0.73800911D-04 -0.18173246D-04
  0.67433497D-04  0.11271268D-08 -0.50335319D-03 -0.52559567D-03 -0.52862037D-03
  0.62741061D-04  0.64928177D-08 -0.11082755D-07  0.10435155D+00  0.19250824D+00
  0.31076798D+00  0.40452757D+00  0.34518411D+00  0.11918378D+00 -0.37678580D-02
 -0.17366023D-02  0.48696142D-02  0.58431462D-04  0.44801539D-04  0.22359108D-04
  0.35861432D-03  0.27496272D-03  0.13722567D-03  0.79856816D-08  0.61229142D-08
  0.30557633D-08  0.27949604D-03 -0.12509576D-03 -0.19030075D-03  0.11019519D-07
 -0.22636368D-02 -0.26012972D-02 -0.22594629D-02 -0.15919302D-03  0.24867840D-08
 -0.10327961D-06 -0.77872643D-02 -0.14365982D-01 -0.23191149D-01 -0.30187986D-01
 -0.25759463D-01 -0.88941235D-02  0.52090659D-03  0.24008537D-03 -0.67322444D-03
 -0.78926046D-03 -0.60515486D-03 -0.30201469D-03 -0.18590781D-03 -0.14254231D-03
 -0.71138605D-04  0.48557861D-07  0.37231088D-07  0.18580922D-07  0.13164374D-02
  0.55362080D-03  0.11737276D-03 -0.85164656D-08 -0.56800424D-03 -0.14618919D-03
  0.16747133D-04 -0.20536146D-03  0.97850735D-07  0.19698900D-07  0.52075038D+00
  0.96068276D+00  0.15508399D+01  0.20187327D+01  0.17225883D+01  0.59476833D+00
 -0.19284190D-01 -0.88880654D-02  0.24923063D-01 -0.85188528D-03 -0.65317160D-03
 -0.32597841D-03 -0.23346185D-03 -0.17900374D-03 -0.89335413D-04  0.19874099D-06
  0.15238198D-06  0.76049289D-07 -0.32762568D-02  0.30595549D-03  0.11300369D-03
 -0.87615440D-07 -0.94236454D-02 -0.10134382D-01 -0.10220008D-01  0.31009626D-03
 -0.47324387D-07 -0.79312686D-08  0.26744483D-01  0.49338349D-01  0.79647393D-01
  0.10367724D+00  0.88467977D-01  0.30545866D-01 -0.86754827D-03 -0.39985220D-03
  0.11212273D-02  0.22813182D-03  0.17491701D-03  0.87295847D-04 -0.29256550D-03
 -0.22432067D-03 -0.11195173D-03  0.61027699D-08  0.46792168D-08  0.23352571D-08
  0.70503572D-03 -0.19202429D-03  0.15980567D-03  0.18580187D-07 -0.83557543D-03
 -0.95784130D-03 -0.70197746D-03  0.32818925D-03 -0.32403725D-07  0.50191739D-07
 -0.16555077D-02 -0.30540884D-02 -0.49302456D-02 -0.64177149D-02 -0.54762478D-02
 -0.18908167D-02  0.96770897D-04  0.44601618D-04 -0.12506759D-03 -0.57348448D-05
 -0.43971153D-05 -0.21944687D-05  0.37837465D-04  0.29011368D-04  0.14478706D-04
 -0.14548968D-07 -0.11155226D-07 -0.55672393D-08 -0.73282142D-05  0.64090159D-04
  0.29929122D-04  0.42508786D-08  0.90851152D-04  0.45331410D-04  0.34931238D-04
 -0.25159162D-04  0.15833099D-08  0.11646709D-07 -0.12650188D-04 -0.21457113D-04
 -0.24428164D-04  0.66386094D-05 -0.34227450D-04 -0.58056233D-04 -0.66094969D-04
  0.35105970D-04  0.87879653D-05  0.16174547D-04  0.26173471D-04  0.34405760D-04
  0.29509620D-04  0.10089840D-04 -0.40354739D-04 -0.18006206D-04  0.53172567D-04
  0.32044600D-03  0.24688637D-03  0.10839641D-03  0.68016616D-04  0.52403136D-04
  0.23007799D-04  0.20396207D-07  0.15714178D-07  0.68993704D-08  0.10396119D-03
 -0.59019224D-04 -0.96503473D-05 -0.98370238D-08  0.46412665D-04  0.20886739D-04
  0.56096556D-05  0.16243895D-04 -0.11263078D-07 -0.23617867D-08 -0.19948659D-04
 -0.33836702D-04 -0.38521889D-04 -0.13061180D-04  0.16103767D-05  0.29708306D-05
  0.47958417D-05  0.62427609D-05  0.53269592D-05  0.18392710D-05  0.37820399D-05
  0.17431387D-05 -0.48879430D-05  0.26861719D-04  0.20595862D-04  0.10278779D-04
 -0.98306299D-05 -0.75375035D-05 -0.37617425D-05  0.53837232D-08  0.41278974D-08
  0.20601101D-08 -0.30549692D-04 -0.90660747D-05 -0.14381823D-04 -0.27083342D-08
  0.10921991D-04 -0.43142021D-05 -0.18216580D-04  0.45923779D-04  0.62677447D-08
  0.72435639D-08  0.17273357D-05  0.29298883D-05  0.33355742D-05  0.59571744D-05
  0.17277997D-05  0.29306753D-05  0.33364703D-05  0.59565425D-05 -0.62807475D-05
 -0.10653336D-04 -0.12128447D-04  0.13447870D-04
MO    6     MO 0.0        OCC NO =    1.0000000  ORB. ENERGY =   -9.979052
  0.27201186D+00  0.50180876D+00  0.81007493D+00  0.10544769D+01  0.89978702D+00
  0.31067483D+00 -0.99544382D-02 -0.45879915D-02  0.12865207D-01  0.33185564D-03
  0.25444585D-03  0.12698631D-03 -0.79542036D-05 -0.60987788D-05 -0.30437181D-05
  0.61208975D-08  0.46931160D-08  0.23421938D-08 -0.45787639D-03 -0.19866967D-03
  0.75490626D-04 -0.43185482D-08 -0.55767299D-02 -0.55466295D-02 -0.55915409D-02
  0.71506496D-04  0.87233405D-08 -0.11710657D-09  0.44585273D+00  0.82251123D+00
  0.13277882D+01  0.17283857D+01  0.14748346D+01  0.50922495D+00 -0.16582247D-01
 -0.76427424D-02  0.21431047D-01 -0.63761551D-04 -0.48888313D-04 -0.24398695D-04
 -0.99509936D-05 -0.76297907D-05 -0.38078003D-05 -0.46390051D-07 -0.35568949D-07
 -0.17751398D-07 -0.23457132D-02 -0.55866747D-04  0.40546405D-03  0.16761312D-07
 -0.87424956D-02 -0.87321219D-02 -0.89979273D-02 -0.21080707D-03  0.33473076D-07
 -0.21713924D-07  0.15232590D-02  0.28101154D-02  0.45363975D-02  0.59050417D-02
  0.50387828D-02  0.17397706D-02 -0.57534460D-04 -0.26517580D-04  0.74358062D-04
  0.16161267D-03  0.12391434D-03  0.61841942D-04 -0.26042162D-04 -0.19967478D-04
 -0.99651709D-05 -0.26856519D-07 -0.20591875D-07 -0.10276789D-07  0.54844613D-04
  0.19595737D-04 -0.18173990D-04 -0.80013182D-08  0.27923337D-03  0.43775819D-04
 -0.77538898D-04  0.10835977D-03 -0.62902753D-07  0.69191159D-08 -0.10277336D+00
 -0.18959679D+00 -0.30606800D+00 -0.39840960D+00 -0.33996363D+00 -0.11738127D+00
  0.39376737D-02  0.18148702D-02 -0.50890855D-02  0.40668559D-04  0.31182071D-04
  0.15562039D-04 -0.25874939D-03 -0.19839262D-03 -0.99011820D-04 -0.51855200D-07
 -0.39759279D-07 -0.19842667D-07  0.14260781D-02  0.37512274D-03  0.33509990D-03
  0.23916019D-07  0.15413368D-02  0.16483737D-02  0.18666836D-02 -0.20169995D-03
  0.13741114D-07 -0.90187272D-08 -0.86474600D-02 -0.15952875D-01 -0.25752887D-01
 -0.33522607D-01 -0.28604901D-01 -0.98765850D-02  0.32437805D-03  0.14950555D-03
 -0.41922916D-03  0.11019707D-04  0.84492122D-05  0.42167490D-05  0.46435500D-04
  0.35603796D-04  0.17768790D-04 -0.82717795D-09 -0.63422759D-09 -0.31652402D-09
 -0.47465910D-03 -0.22972751D-04 -0.21124436D-03 -0.35657290D-08  0.30984242D-03