 Entering Link 1 = D:\Gaussian\G16W\l1.exe PID=     39256.
  
 Copyright (c) 1988,1990,1992,1993,1995,1998,2003,2009,2016,
            Gaussian, Inc.  All Rights Reserved.
  
 This is part of the Gaussian(R) 16 program.  It is based on
 the Gaussian(R) 09 system (copyright 2009, Gaussian, Inc.),
 the Gaussian(R) 03 system (copyright 2003, Gaussian, Inc.),
 the Gaussian(R) 98 system (copyright 1998, Gaussian, Inc.),
 the Gaussian(R) 94 system (copyright 1995, Gaussian, Inc.),
 the Gaussian 92(TM) system (copyright 1992, Gaussian, Inc.),
 the Gaussian 90(TM) system (copyright 1990, Gaussian, Inc.),
 the Gaussian 88(TM) system (copyright 1988, Gaussian, Inc.),
 the Gaussian 86(TM) system (copyright 1986, Carnegie Mellon
 University), and the Gaussian 82(TM) system (copyright 1983,
 Carnegie Mellon University). Gaussian is a federally registered
 trademark of Gaussian, Inc.
  
 This software contains proprietary and confidential information,
 including trade secrets, belonging to Gaussian, Inc.
  
 This software is provided under written license and may be
 used, copied, transmitted, or stored only in accord with that
 written license.
  
 The following legend is applicable only to US Government
 contracts under FAR:
  
                    RESTRICTED RIGHTS LEGEND
  
 Use, reproduction and disclosure by the US Government is
 subject to restrictions as set forth in subparagraphs (a)
 and (c) of the Commercial Computer Software - Restricted
 Rights clause in FAR 52.227-19.
  
 Gaussian, Inc.
 340 Quinnipiac St., Bldg. 40, Wallingford CT 06492
  
  
 ---------------------------------------------------------------
 Warning -- This program may not be used in any manner that
 competes with the business of Gaussian, Inc. or will provide
 assistance to any competitor of Gaussian, Inc.  The licensee
 of this program is prohibited from giving any competitor of
 Gaussian, Inc. access to this program.  By using this program,
 the user acknowledges that Gaussian, Inc. is engaged in the
 business of creating and licensing software in the field of
 computational chemistry and represents and warrants to the
 licensee that it is not a competitor of Gaussian, Inc. and that
 it will not use this program in any manner prohibited above.
 ---------------------------------------------------------------
  

 Cite this work as:
 Gaussian 16, Revision A.03,
 M. J. Frisch, G. W. Trucks, H. B. Schlegel, G. E. Scuseria, 
 M. A. Robb, J. R. Cheeseman, G. Scalmani, V. Barone, 
 G. A. Petersson, H. Nakatsuji, X. Li, M. Caricato, A. V. Marenich, 
 J. Bloino, B. G. Janesko, R. Gomperts, B. Mennucci, H. P. Hratchian, 
 J. V. Ortiz, A. F. Izmaylov, J. L. Sonnenberg, D. Williams-Young, 
 F. Ding, F. Lipparini, F. Egidi, J. Goings, B. Peng, A. Petrone, 
 T. Henderson, D. Ranasinghe, V. G. Zakrzewski, J. Gao, N. Rega, 
 G. Zheng, W. Liang, M. Hada, M. Ehara, K. Toyota, R. Fukuda, 
 J. Hasegawa, M. Ishida, T. Nakajima, Y. Honda, O. Kitao, H. Nakai, 
 T. Vreven, K. Throssell, J. A. Montgomery, Jr., J. E. Peralta, 
 F. Ogliaro, M. J. Bearpark, J. J. Heyd, E. N. Brothers, K. N. Kudin, 
 V. N. Staroverov, T. A. Keith, R. Kobayashi, J. Normand, 
 K. Raghavachari, A. P. Rendell, J. C. Burant, S. S. Iyengar, 
 J. Tomasi, M. Cossi, J. M. Millam, M. Klene, C. Adamo, R. Cammi, 
 J. W. Ochterski, R. L. Martin, K. Morokuma, O. Farkas, 
 J. B. Foresman, and D. J. Fox, Gaussian, Inc., Wallingford CT, 2016.
 
 ******************************************
 Gaussian 16:  EM64W-G16RevA.03 17-Dec-2016
                03-Dec-2025 
 ******************************************
 %nprocs=   4
 Will use up to    4 processors via shared memory.
 ------------------------------------
 #P B3LYP/6-31G* SCF=conver=7 out=wfn
 ------------------------------------
 1/38=1,172=1/1;
 2/12=2,17=6,18=5,40=1/2;
 3/5=1,6=6,7=1,11=2,25=1,30=1,74=-5/1,2,3;
 4//1;
 5/5=2,6=7,38=5/2;
 6/7=2,8=2,9=2,10=2,28=1/1;
 99/5=1,6=100,9=1/99;
 Leave Link    1 at Wed Dec 03 16:48:27 2025, MaxMem=           0 cpu:               0.0 elap:               0.1
 (Enter D:\Gaussian\G16W\l101.exe)
 ----------------------------------------------------
 Generated by Multiwfn (http://sobereva.com/multiwfn)
 ----------------------------------------------------
 Symbolic Z-matrix:
 Charge = -1 Multiplicity = 2
 C                     1.10905   1.24234   0.00003 
 C                    -0.24322   1.40022  -0.00001 
 C                    -2.11206  -0.23383   0. 
 C                    -0.81887   0.05827  -0.00007 
 C                     0.2877   -0.895    -0.00006 
 C                     1.44639  -0.17265  0. 
 H                     1.8315    2.04799   0.00006 
 H                    -0.81034   2.31824  -0.00006 
 O                    -3.23904  -0.48773   0.00005 
 H                     0.17931  -1.96918  -0.00001 
 C                     2.84244  -0.71899   0.00003 
 H                     3.40084  -0.38306  -0.88032 
 H                     3.40069  -0.3834    0.8806 
 H                     2.84175  -1.81088  -0.00018 
 
 ITRead=  0  0  0  0  0  0  0  0  0  0  0  0  0  0
 MicOpt= -1 -1 -1 -1 -1 -1 -1 -1 -1 -1 -1 -1 -1 -1
 NAtoms=     14 NQM=       14 NQMF=       0 NMMI=      0 NMMIF=      0
                NMic=       0 NMicF=      0.
                    Isotopes and Nuclear Properties:
 (Nuclear quadrupole moments (NQMom) in fm**2, nuclear magnetic moments (NMagM)
  in nuclear magnetons)

  Atom         1           2           3           4           5           6           7           8           9          10
 IAtWgt=          12          12          12          12          12          12           1           1          16           1
 AtmWgt=  12.0000000  12.0000000  12.0000000  12.0000000  12.0000000  12.0000000   1.0078250   1.0078250  15.9949146   1.0078250
 NucSpn=           0           0           0           0           0           0           1           1           0           1
 AtZEff=   0.0000000   0.0000000   0.0000000   0.0000000   0.0000000   0.0000000   0.0000000   0.0000000   0.0000000   0.0000000
 NQMom=    0.0000000   0.0000000   0.0000000   0.0000000   0.0000000   0.0000000   0.0000000   0.0000000   0.0000000   0.0000000
 NMagM=    0.0000000   0.0000000   0.0000000   0.0000000   0.0000000   0.0000000   2.7928460   2.7928460   0.0000000   2.7928460
 AtZNuc=   6.0000000   6.0000000   6.0000000   6.0000000   6.0000000   6.0000000   1.0000000   1.0000000   8.0000000   1.0000000

  Atom        11          12          13          14
 IAtWgt=          12           1           1           1
 AtmWgt=  12.0000000   1.0078250   1.0078250   1.0078250
 NucSpn=           0           1           1           1
 AtZEff=   0.0000000   0.0000000   0.0000000   0.0000000
 NQMom=    0.0000000   0.0000000   0.0000000   0.0000000
 NMagM=    0.0000000   2.7928460   2.7928460   2.7928460
 AtZNuc=   6.0000000   1.0000000   1.0000000   1.0000000
 Leave Link  101 at Wed Dec 03 16:48:27 2025, MaxMem=   104857600 cpu:               0.0 elap:               0.1
 (Enter D:\Gaussian\G16W\l202.exe)
                          Input orientation:                          
 ---------------------------------------------------------------------
 Center     Atomic      Atomic             Coordinates (Angstroms)
 Number     Number       Type             X           Y           Z
 ---------------------------------------------------------------------
      1          6           0        1.109046    1.242340    0.000028
      2          6           0       -0.243223    1.400217   -0.000012
      3          6           0       -2.112058   -0.233834    0.000004
      4          6           0       -0.818866    0.058274   -0.000072
      5          6           0        0.287700   -0.895000   -0.000058
      6          6           0        1.446387   -0.172648   -0.000002
      7          1           0        1.831499    2.047991    0.000062
      8          1           0       -0.810343    2.318236   -0.000059
      9          8           0       -3.239039   -0.487734    0.000051
     10          1           0        0.179312   -1.969185   -0.000007
     11          6           0        2.842442   -0.718989    0.000028
     12          1           0        3.400838   -0.383057   -0.880317
     13          1           0        3.400688   -0.383399    0.880598
     14          1           0        2.841745   -1.810880   -0.000184
 ---------------------------------------------------------------------
                    Distance matrix (angstroms):
                    1          2          3          4          5
     1  C    0.000000
     2  C    1.361454   0.000000
     3  C    3.543247   2.482472   0.000000
     4  C    2.262489   1.460197   1.325772   0.000000
     5  C    2.289723   2.355823   2.489172   1.460555   0.000000
     6  C    1.454644   2.308395   3.558971   2.276993   1.365411
     7  H    1.082133   2.173495   4.556135   3.314123   3.323328
     8  H    2.200365   1.079066   2.864878   2.259978   3.395671
     9  O    4.679637   3.541084   1.155228   2.481000   3.550177
    10  H    3.343396   3.395792   2.874338   2.259856   1.079639
    11  C    2.617532   3.743309   4.978197   3.742902   2.560798
    12  H    2.944356   4.151407   5.584734   4.333071   3.275450
    13  H    2.944496   4.151487   5.584638   4.333046   3.275360
    14  H    3.510612   4.452884   5.198773   4.110208   2.713297
                    6          7          8          9         10
     6  C    0.000000
     7  H    2.253785   0.000000
     8  H    3.361151   2.655628   0.000000
     9  O    4.696009   5.669238   3.711069   0.000000
    10  H    2.198414   4.343665   4.400159   3.725563   0.000000
    11  C    1.499152   2.945876   4.750534   6.085876   2.941981
    12  H    2.153858   3.024547   5.079949   6.698804   3.697158
    13  H    2.153872   3.024790   5.080076   6.698673   3.696951
    14  H    2.151936   3.988920   5.512472   6.223074   2.667135
                   11         12         13         14
    11  C    0.000000
    12  H    1.095292   0.000000
    13  H    1.095291   1.760915   0.000000
    14  H    1.091891   1.768021   1.768020   0.000000
 Stoichiometry    C7H6O(1-,2)
 Framework group  C1[X(C7H6O)]
 Deg. of freedom    36
 Full point group                 C1      NOp   1
 Largest Abelian subgroup         C1      NOp   1
 Largest concise Abelian subgroup C1      NOp   1
                         Standard orientation:                         
 ---------------------------------------------------------------------
 Center     Atomic      Atomic             Coordinates (Angstroms)
 Number     Number       Type             X           Y           Z
 ---------------------------------------------------------------------
      1          6           0        1.109046    1.242340    0.000028
      2          6           0       -0.243223    1.400217   -0.000012
      3          6           0       -2.112058   -0.233834    0.000004
      4          6           0       -0.818866    0.058274   -0.000072
      5          6           0        0.287700   -0.895000   -0.000058
      6          6           0        1.446387   -0.172648   -0.000002
      7          1           0        1.831499    2.047991    0.000062
      8          1           0       -0.810343    2.318236   -0.000059
      9          8           0       -3.239039   -0.487734    0.000051
     10          1           0        0.179312   -1.969185   -0.000007
     11          6           0        2.842442   -0.718989    0.000028
     12          1           0        3.400838   -0.383057   -0.880317
     13          1           0        3.400688   -0.383399    0.880598
     14          1           0        2.841745   -1.810880   -0.000184
 ---------------------------------------------------------------------
 Rotational constants (GHZ):           6.2147725           1.2508643           1.0480307
 Leave Link  202 at Wed Dec 03 16:48:27 2025, MaxMem=   104857600 cpu:               0.0 elap:               0.0
 (Enter D:\Gaussian\G16W\l301.exe)
 Standard basis: 6-31G(d) (6D, 7F)
 Ernie: Thresh=  0.10000D-02 Tol=  0.10000D-05 Strict=F.
 There are   132 symmetry adapted cartesian basis functions of A   symmetry.
 There are   132 symmetry adapted basis functions of A   symmetry.
   132 basis functions,   248 primitive gaussians,   132 cartesian basis functions
    29 alpha electrons       28 beta electrons
       nuclear repulsion energy       313.9010290375 Hartrees.
 IExCor=  402 DFT=T Ex+Corr=B3LYP ExCW=0 ScaHFX=  0.200000
 ScaDFX=  0.800000  0.720000  1.000000  0.810000 ScalE2=  1.000000  1.000000
 IRadAn=      5 IRanWt=     -1 IRanGd=            0 ICorTp=0 IEmpDi=  4
 NAtoms=   14 NActive=   14 NUniq=   14 SFac= 1.00D+00 NAtFMM=   60 NAOKFM=F Big=F
 Integral buffers will be    131072 words long.
 Raffenetti 2 integral format.
 Two-electron integral symmetry is turned on.
 Leave Link  301 at Wed Dec 03 16:48:28 2025, MaxMem=   104857600 cpu:               1.0 elap:               0.1
 (Enter D:\Gaussian\G16W\l302.exe)
 NPDir=0 NMtPBC=     1 NCelOv=     1 NCel=       1 NClECP=     1 NCelD=      1
         NCelK=      1 NCelE2=     1 NClLst=     1 CellRange=     0.0.
 One-electron integrals computed using PRISM.
 One-electron integral symmetry used in STVInt
 NBasis=   132 RedAO= T EigKep=  8.30D-04  NBF=   132
 NBsUse=   132 1.00D-06 EigRej= -1.00D+00 NBFU=   132
 Precomputing XC quadrature grid using
 IXCGrd= 4 IRadAn=           5 IRanWt=          -1 IRanGd=           0 AccXCQ= 0.00D+00.
 Generated NRdTot=       0 NPtTot=           0 NUsed=           0 NTot=          32
 NSgBfM=   132   132   132   132   132 MxSgAt=    14 MxSgA2=    14.
 Leave Link  302 at Wed Dec 03 16:48:28 2025, MaxMem=   104857600 cpu:               0.0 elap:               0.2
 (Enter D:\Gaussian\G16W\l303.exe)
 DipDrv:  MaxL=1.
 Leave Link  303 at Wed Dec 03 16:48:28 2025, MaxMem=   104857600 cpu:               0.0 elap:               0.1
 (Enter D:\Gaussian\G16W\l401.exe)
 ExpMin= 1.61D-01 ExpMax= 5.48D+03 ExpMxC= 8.25D+02 IAcc=3 IRadAn=         5 AccDes= 0.00D+00
 Harris functional with IExCor=  402 and IRadAn=       5 diagonalized for initial guess.
 HarFok:  IExCor=  402 AccDes= 0.00D+00 IRadAn=         5 IDoV= 1 UseB2=F ITyADJ=14
 ICtDFT=  3500011 ScaDFX=  1.000000  1.000000  1.000000  1.000000
 FoFCou: FMM=F IPFlag=           0 FMFlag=      100000 FMFlg1=           0
         NFxFlg=           0 DoJE=T BraDBF=F KetDBF=T FulRan=T
         wScrn=  0.000000 ICntrl=       500 IOpCl=  0 I1Cent=   200000004 NGrid=           0
         NMat0=    1 NMatS0=      1 NMatT0=    0 NMatD0=    1 NMtDS0=    0 NMtDT0=    0
 Petite list used in FoFCou.
 Harris En= -345.723871830362    
 JPrj=0 DoOrth=F DoCkMO=F.
 Initial guess <Sx>= 0.0000 <Sy>= 0.0000 <Sz>= 0.5000 <S**2>= 0.7500 S= 0.5000
 Leave Link  401 at Wed Dec 03 16:48:29 2025, MaxMem=   104857600 cpu:               1.0 elap:               0.7
 (Enter D:\Gaussian\G16W\l502.exe)
 Keep R1 and R2 ints in memory in canonical form, NReq=80897120.
 FoFCou: FMM=F IPFlag=           0 FMFlag=           0 FMFlg1=           0
         NFxFlg=           0 DoJE=F BraDBF=F KetDBF=F FulRan=T
         wScrn=  0.000000 ICntrl=       600 IOpCl=  0 I1Cent=           0 NGrid=           0
         NMat0=    1 NMatS0=   8778 NMatT0=    0 NMatD0=    1 NMtDS0=    0 NMtDT0=    0
 Symmetry not used in FoFCou.
 Two-electron integral symmetry not used.
 UHF open shell SCF:
 Using DIIS extrapolation, IDIIS=  1040.
 NGot=   104857600 LenX=    27758324 LenY=    27740459
 Requested convergence on RMS density matrix=1.00D-07 within 128 cycles.
 Requested convergence on MAX density matrix=1.00D-05.
 Requested convergence on             energy=1.00D-05.
 No special actions if energy rises.
 Integral accuracy reduced to 1.0D-05 until final iterations.

 Cycle   1  Pass 0  IDiag  1:
 E= -345.111076029762    
 DIIS: error= 4.60D-02 at cycle   1 NSaved=   1.
 NSaved= 1 IEnMin= 1 EnMin= -345.111076029762     IErMin= 1 ErrMin= 4.60D-02
 ErrMax= 4.60D-02  0.00D+00 EMaxC= 1.00D-01 BMatC= 1.31D+00 BMatP= 1.31D+00
 IDIUse=3 WtCom= 5.40D-01 WtEn= 4.60D-01
 Coeff-Com:  0.100D+01
 Coeff-En:   0.100D+01
 Coeff:      0.100D+01
 Gap=    -0.050 Goal=   None    Shift=    0.000
 Gap=     0.166 Goal=   None    Shift=    0.000
 GapD=   -0.050 DampG=0.250 DampE=0.500 DampFc=0.2500 IDamp=-1.
 Damping current iteration by 2.50D-01
 RMSDP=1.90D-02 MaxDP=4.02D-01              OVMax= 9.55D-01

 Cycle   2  Pass 0  IDiag  1:
 E= -345.230718577770     Delta-E=       -0.119642548008 Rises=F Damp=T
 DIIS: error= 2.54D-02 at cycle   2 NSaved=   2.
 NSaved= 2 IEnMin= 2 EnMin= -345.230718577770     IErMin= 2 ErrMin= 2.54D-02
 ErrMax= 2.54D-02  0.00D+00 EMaxC= 1.00D-01 BMatC= 2.80D-01 BMatP= 1.31D+00
 IDIUse=3 WtCom= 7.46D-01 WtEn= 2.54D-01
 Coeff-Com: -0.475D+00 0.147D+01
 Coeff-En:   0.000D+00 0.100D+01
 Coeff:     -0.354D+00 0.135D+01
 Gap=    -0.064 Goal=   None    Shift=    0.000
 Gap=     0.244 Goal=   None    Shift=    0.000
 RMSDP=5.87D-03 MaxDP=1.19D-01 DE=-1.20D-01 OVMax= 8.48D-01

 Cycle   3  Pass 0  IDiag  1:
 E= -345.374792119769     Delta-E=       -0.144073541999 Rises=F Damp=F
 DIIS: error= 2.95D-02 at cycle   3 NSaved=   3.
 NSaved= 3 IEnMin= 3 EnMin= -345.374792119769     IErMin= 2 ErrMin= 2.54D-02
 ErrMax= 2.95D-02  0.00D+00 EMaxC= 1.00D-01 BMatC= 3.79D-01 BMatP= 2.80D-01
 IDIUse=2 WtCom= 0.00D+00 WtEn= 1.00D+00
 Coeff-En:   0.000D+00 0.000D+00 0.100D+01
 Coeff:      0.000D+00 0.000D+00 0.100D+01
 Gap=     0.010 Goal=   None    Shift=    0.000
 Gap=     0.206 Goal=   None    Shift=    0.000
 RMSDP=1.26D-02 MaxDP=3.72D-01 DE=-1.44D-01 OVMax= 9.62D-01

 Cycle   4  Pass 0  IDiag  1:
 E= -343.860469458586     Delta-E=        1.514322661183 Rises=F Damp=F
 DIIS: error= 1.00D-01 at cycle   4 NSaved=   4.
 NSaved= 4 IEnMin= 3 EnMin= -345.374792119769     IErMin= 2 ErrMin= 2.54D-02
 ErrMax= 1.00D-01  0.00D+00 EMaxC= 1.00D-01 BMatC= 4.58D+00 BMatP= 2.80D-01
 IDIUse=2 WtCom= 0.00D+00 WtEn= 1.00D+00
 Coeff-En:   0.000D+00 0.000D+00 0.898D+00 0.102D+00
 Coeff:      0.000D+00 0.000D+00 0.898D+00 0.102D+00
 Gap=     0.010 Goal=   None    Shift=    0.000
 Gap=    -0.085 Goal=   None    Shift=    0.000
 RMSDP=7.71D-03 MaxDP=3.71D-01 DE= 1.51D+00 OVMax= 9.99D-01

 Cycle   5  Pass 0  IDiag  1:
 E= -345.268956682352     Delta-E=       -1.408487223766 Rises=F Damp=F
 DIIS: error= 4.41D-02 at cycle   5 NSaved=   5.
 NSaved= 5 IEnMin= 3 EnMin= -345.374792119769     IErMin= 2 ErrMin= 2.54D-02
 ErrMax= 4.41D-02  0.00D+00 EMaxC= 1.00D-01 BMatC= 7.95D-01 BMatP= 2.80D-01
 IDIUse=2 WtCom= 0.00D+00 WtEn= 1.00D+00
 Coeff-En:   0.000D+00 0.000D+00 0.622D+00 0.000D+00 0.378D+00
 Coeff:      0.000D+00 0.000D+00 0.622D+00 0.000D+00 0.378D+00
 Gap=    -0.004 Goal=   None    Shift=    0.000
 Gap=     0.196 Goal=   None    Shift=    0.000
 RMSDP=3.28D-03 MaxDP=8.15D-02 DE=-1.41D+00 OVMax= 2.20D-01

 Cycle   6  Pass 0  IDiag  1:
 E= -345.471780896554     Delta-E=       -0.202824214202 Rises=F Damp=F
 DIIS: error= 1.42D-02 at cycle   6 NSaved=   6.
 NSaved= 6 IEnMin= 6 EnMin= -345.471780896554     IErMin= 6 ErrMin= 1.42D-02
 ErrMax= 1.42D-02  0.00D+00 EMaxC= 1.00D-01 BMatC= 6.05D-02 BMatP= 2.80D-01
 IDIUse=3 WtCom= 8.58D-01 WtEn= 1.42D-01
 Coeff-Com: -0.109D+00 0.282D+00 0.232D+00-0.335D-01 0.154D-02 0.627D+00
 Coeff-En:   0.000D+00 0.000D+00 0.846D-01 0.000D+00 0.000D+00 0.915D+00
 Coeff:     -0.936D-01 0.242D+00 0.211D+00-0.287D-01 0.132D-02 0.668D+00
 Gap=     0.025 Goal=   None    Shift=    0.000
 Gap=     0.251 Goal=   None    Shift=    0.000
 RMSDP=1.41D-03 MaxDP=3.12D-02 DE=-2.03D-01 OVMax= 1.03D-01

 Cycle   7  Pass 0  IDiag  1:
 E= -345.491289231600     Delta-E=       -0.019508335045 Rises=F Damp=F
 DIIS: error= 4.64D-03 at cycle   7 NSaved=   7.
 NSaved= 7 IEnMin= 7 EnMin= -345.491289231600     IErMin= 7 ErrMin= 4.64D-03
 ErrMax= 4.64D-03  0.00D+00 EMaxC= 1.00D-01 BMatC= 5.09D-03 BMatP= 6.05D-02
 IDIUse=3 WtCom= 9.54D-01 WtEn= 4.64D-02
 Coeff-Com: -0.299D-01 0.886D-01 0.314D-01 0.853D-02-0.113D+00 0.212D+00
 Coeff-Com:  0.802D+00
 Coeff-En:   0.000D+00 0.000D+00 0.000D+00 0.000D+00 0.000D+00 0.000D+00
 Coeff-En:   0.100D+01
 Coeff:     -0.285D-01 0.845D-01 0.300D-01 0.813D-02-0.108D+00 0.202D+00
 Coeff:      0.811D+00
 Gap=     0.058 Goal=   None    Shift=    0.000
 Gap=     0.210 Goal=   None    Shift=    0.000
 RMSDP=6.11D-04 MaxDP=1.59D-02 DE=-1.95D-02 OVMax= 3.83D-02

 Cycle   8  Pass 0  IDiag  1:
 E= -345.492928020801     Delta-E=       -0.001638789202 Rises=F Damp=F
 DIIS: error= 8.85D-04 at cycle   8 NSaved=   8.
 NSaved= 8 IEnMin= 8 EnMin= -345.492928020801     IErMin= 8 ErrMin= 8.85D-04
 ErrMax= 8.85D-04  0.00D+00 EMaxC= 1.00D-01 BMatC= 6.78D-04 BMatP= 5.09D-03
 IDIUse=3 WtCom= 9.91D-01 WtEn= 8.85D-03
 Coeff-Com: -0.175D-02 0.953D-02 0.609D-02 0.178D-02 0.216D-01-0.911D-01
 Coeff-Com:  0.182D+00 0.872D+00
 Coeff-En:   0.000D+00 0.000D+00 0.000D+00 0.000D+00 0.000D+00 0.000D+00
 Coeff-En:   0.000D+00 0.100D+01
 Coeff:     -0.174D-02 0.944D-02 0.603D-02 0.177D-02 0.214D-01-0.903D-01
 Coeff:      0.181D+00 0.873D+00
 Gap=     0.069 Goal=   None    Shift=    0.000
 Gap=     0.208 Goal=   None    Shift=    0.000
 RMSDP=3.41D-04 MaxDP=9.95D-03 DE=-1.64D-03 OVMax= 9.33D-03

 Cycle   9  Pass 0  IDiag  1:
 E= -345.493112850690     Delta-E=       -0.000184829889 Rises=F Damp=F
 DIIS: error= 6.52D-04 at cycle   9 NSaved=   9.
 NSaved= 9 IEnMin= 9 EnMin= -345.493112850690     IErMin= 9 ErrMin= 6.52D-04
 ErrMax= 6.52D-04  0.00D+00 EMaxC= 1.00D-01 BMatC= 1.83D-04 BMatP= 6.78D-04
 IDIUse=3 WtCom= 9.93D-01 WtEn= 6.52D-03
 Coeff-Com:  0.158D-02-0.269D-02 0.155D-03-0.524D-03 0.260D-01-0.821D-01
 Coeff-Com: -0.227D-01 0.434D+00 0.646D+00
 Coeff-En:   0.000D+00 0.000D+00 0.000D+00 0.000D+00 0.000D+00 0.000D+00
 Coeff-En:   0.000D+00 0.000D+00 0.100D+01
 Coeff:      0.157D-02-0.267D-02 0.154D-03-0.521D-03 0.258D-01-0.815D-01
 Coeff:     -0.226D-01 0.432D+00 0.648D+00
 Gap=     0.072 Goal=   None    Shift=    0.000
 Gap=     0.208 Goal=   None    Shift=    0.000
 RMSDP=1.03D-04 MaxDP=3.77D-03 DE=-1.85D-04 OVMax= 5.07D-03

 Cycle  10  Pass 0  IDiag  1:
 E= -345.493165180386     Delta-E=       -0.000052329696 Rises=F Damp=F
 DIIS: error= 3.74D-04 at cycle  10 NSaved=  10.
 NSaved=10 IEnMin=10 EnMin= -345.493165180386     IErMin=10 ErrMin= 3.74D-04
 ErrMax= 3.74D-04  0.00D+00 EMaxC= 1.00D-01 BMatC= 4.63D-05 BMatP= 1.83D-04
 IDIUse=3 WtCom= 9.96D-01 WtEn= 3.74D-03
 Coeff-Com: -0.396D-03 0.121D-02 0.586D-03-0.299D-04 0.386D-02-0.205D-01
 Coeff-Com: -0.334D-01 0.544D-01 0.333D+00 0.661D+00
 Coeff-En:   0.000D+00 0.000D+00 0.000D+00 0.000D+00 0.000D+00 0.000D+00
 Coeff-En:   0.000D+00 0.000D+00 0.000D+00 0.100D+01
 Coeff:     -0.395D-03 0.120D-02 0.584D-03-0.298D-04 0.384D-02-0.204D-01
 Coeff:     -0.333D-01 0.542D-01 0.332D+00 0.663D+00
 Gap=     0.072 Goal=   None    Shift=    0.000
 Gap=     0.208 Goal=   None    Shift=    0.000
 RMSDP=5.24D-05 MaxDP=1.04D-03 DE=-5.23D-05 OVMax= 2.26D-03

 Cycle  11  Pass 0  IDiag  1:
 E= -345.493176520346     Delta-E=       -0.000011339960 Rises=F Damp=F
 DIIS: error= 1.75D-04 at cycle  11 NSaved=  11.
 NSaved=11 IEnMin=11 EnMin= -345.493176520346     IErMin=11 ErrMin= 1.75D-04
 ErrMax= 1.75D-04  0.00D+00 EMaxC= 1.00D-01 BMatC= 1.31D-05 BMatP= 4.63D-05
 IDIUse=3 WtCom= 9.98D-01 WtEn= 1.75D-03
 EnCoef did     1 forward-backward iterations
 Coeff-Com:  0.943D-04 0.970D-04 0.447D-03-0.308D-04-0.774D-03-0.264D-02
 Coeff-Com: -0.184D-01-0.229D-01 0.117D+00 0.424D+00 0.503D+00
 Coeff-En:   0.000D+00 0.000D+00 0.000D+00 0.000D+00 0.000D+00 0.000D+00
 Coeff-En:   0.000D+00 0.000D+00 0.000D+00 0.104D-02 0.999D+00
 Coeff:      0.941D-04 0.969D-04 0.446D-03-0.307D-04-0.772D-03-0.263D-02
 Coeff:     -0.184D-01-0.229D-01 0.116D+00 0.423D+00 0.504D+00
 Gap=     0.072 Goal=   None    Shift=    0.000
 Gap=     0.208 Goal=   None    Shift=    0.000
 RMSDP=1.95D-05 MaxDP=5.35D-04 DE=-1.13D-05 OVMax= 1.14D-03

 Cycle  12  Pass 0  IDiag  1:
 E= -345.493180643000     Delta-E=       -0.000004122654 Rises=F Damp=F
 DIIS: error= 4.60D-05 at cycle  12 NSaved=  12.
 NSaved=12 IEnMin=12 EnMin= -345.493180643000     IErMin=12 ErrMin= 4.60D-05
 ErrMax= 4.60D-05  0.00D+00 EMaxC= 1.00D-01 BMatC= 6.84D-07 BMatP= 1.31D-05
 IDIUse=1 WtCom= 1.00D+00 WtEn= 0.00D+00
 Coeff-Com: -0.147D-03 0.508D-03-0.552D-04 0.942D-05-0.173D-03 0.264D-03
 Coeff-Com:  0.569D-02-0.626D-02-0.644D-01-0.128D+00 0.545D-02 0.119D+01
 Coeff:     -0.147D-03 0.508D-03-0.552D-04 0.942D-05-0.173D-03 0.264D-03
 Coeff:      0.569D-02-0.626D-02-0.644D-01-0.128D+00 0.545D-02 0.119D+01
 Gap=     0.072 Goal=   None    Shift=    0.000
 Gap=     0.207 Goal=   None    Shift=    0.000
 RMSDP=1.66D-05 MaxDP=4.03D-04 DE=-4.12D-06 OVMax= 1.38D-03

 Cycle  13  Pass 0  IDiag  1:
 E= -345.493181458847     Delta-E=       -0.000000815847 Rises=F Damp=F
 DIIS: error= 3.63D-05 at cycle  13 NSaved=  13.
 NSaved=13 IEnMin=13 EnMin= -345.493181458847     IErMin=13 ErrMin= 3.63D-05
 ErrMax= 3.63D-05  0.00D+00 EMaxC= 1.00D-01 BMatC= 4.01D-07 BMatP= 6.84D-07
 IDIUse=1 WtCom= 1.00D+00 WtEn= 0.00D+00
 Coeff-Com: -0.844D-04 0.235D-03-0.864D-04-0.367D-04 0.223D-03 0.500D-03
 Coeff-Com:  0.570D-02-0.364D-03-0.562D-01-0.142D+00-0.741D-01 0.731D+00
 Coeff-Com:  0.535D+00
 Coeff:     -0.844D-04 0.235D-03-0.864D-04-0.367D-04 0.223D-03 0.500D-03
 Coeff:      0.570D-02-0.364D-03-0.562D-01-0.142D+00-0.741D-01 0.731D+00
 Coeff:      0.535D+00
 Gap=     0.072 Goal=   None    Shift=    0.000
 Gap=     0.207 Goal=   None    Shift=    0.000
 RMSDP=7.68D-06 MaxDP=1.72D-04 DE=-8.16D-07 OVMax= 6.95D-04

 Initial convergence to 1.0D-05 achieved.  Increase integral accuracy.
 Cycle  14  Pass 1  IDiag  1:
 E= -345.493184850199     Delta-E=       -0.000003391352 Rises=F Damp=F
 DIIS: error= 1.15D-05 at cycle   1 NSaved=   1.
 NSaved= 1 IEnMin= 1 EnMin= -345.493184850199     IErMin= 1 ErrMin= 1.15D-05
 ErrMax= 1.15D-05  0.00D+00 EMaxC= 1.00D-01 BMatC= 6.19D-08 BMatP= 6.19D-08
 IDIUse=1 WtCom= 1.00D+00 WtEn= 0.00D+00
 Coeff-Com:  0.100D+01
 Coeff:      0.100D+01
 Gap=     0.072 Goal=   None    Shift=    0.000
 Gap=     0.207 Goal=   None    Shift=    0.000
 RMSDP=7.68D-06 MaxDP=1.72D-04 DE=-3.39D-06 OVMax= 8.36D-04

 Cycle  15  Pass 1  IDiag  1:
 E= -345.493184945565     Delta-E=       -0.000000095366 Rises=F Damp=F
 DIIS: error= 1.61D-05 at cycle   2 NSaved=   2.
 NSaved= 2 IEnMin= 2 EnMin= -345.493184945565     IErMin= 1 ErrMin= 1.15D-05
 ErrMax= 1.61D-05  0.00D+00 EMaxC= 1.00D-01 BMatC= 1.26D-07 BMatP= 6.19D-08
 IDIUse=1 WtCom= 1.00D+00 WtEn= 0.00D+00
 Coeff-Com:  0.619D+00 0.381D+00
 Coeff:      0.619D+00 0.381D+00
 Gap=     0.072 Goal=   None    Shift=    0.000
 Gap=     0.207 Goal=   None    Shift=    0.000
 RMSDP=3.21D-06 MaxDP=6.81D-05 DE=-9.54D-08 OVMax= 2.86D-04

 Cycle  16  Pass 1  IDiag  1:
 E= -345.493185009698     Delta-E=       -0.000000064134 Rises=F Damp=F
 DIIS: error= 9.33D-06 at cycle   3 NSaved=   3.
 NSaved= 3 IEnMin= 3 EnMin= -345.493185009698     IErMin= 3 ErrMin= 9.33D-06
 ErrMax= 9.33D-06  0.00D+00 EMaxC= 1.00D-01 BMatC= 1.58D-08 BMatP= 6.19D-08
 IDIUse=1 WtCom= 1.00D+00 WtEn= 0.00D+00
 Coeff-Com: -0.280D+00-0.197D-01 0.130D+01
 Coeff:     -0.280D+00-0.197D-01 0.130D+01
 Gap=     0.072 Goal=   None    Shift=    0.000
 Gap=     0.207 Goal=   None    Shift=    0.000
 RMSDP=9.21D-06 MaxDP=2.40D-04 DE=-6.41D-08 OVMax= 1.00D-03

 Cycle  17  Pass 1  IDiag  1:
 E= -345.493185118962     Delta-E=       -0.000000109263 Rises=F Damp=F
 DIIS: error= 7.96D-06 at cycle   4 NSaved=   4.
 NSaved= 4 IEnMin= 4 EnMin= -345.493185118962     IErMin= 4 ErrMin= 7.96D-06
 ErrMax= 7.96D-06  0.00D+00 EMaxC= 1.00D-01 BMatC= 1.28D-08 BMatP= 1.58D-08
 IDIUse=1 WtCom= 1.00D+00 WtEn= 0.00D+00
 Coeff-Com: -0.453D+00-0.187D+00 0.816D+00 0.824D+00
 Coeff:     -0.453D+00-0.187D+00 0.816D+00 0.824D+00
 Gap=     0.072 Goal=   None    Shift=    0.000
 Gap=     0.207 Goal=   None    Shift=    0.000
 RMSDP=8.78D-06 MaxDP=2.29D-04 DE=-1.09D-07 OVMax= 9.57D-04

 Cycle  18  Pass 1  IDiag  1:
 E= -345.493185206294     Delta-E=       -0.000000087332 Rises=F Damp=F
 DIIS: error= 6.67D-06 at cycle   5 NSaved=   5.
 NSaved= 5 IEnMin= 5 EnMin= -345.493185206294     IErMin= 5 ErrMin= 6.67D-06
 ErrMax= 6.67D-06  0.00D+00 EMaxC= 1.00D-01 BMatC= 8.62D-09 BMatP= 1.28D-08
 IDIUse=1 WtCom= 1.00D+00 WtEn= 0.00D+00
 Coeff-Com: -0.712D-01-0.139D+00-0.694D+00 0.653D+00 0.125D+01
 Coeff:     -0.712D-01-0.139D+00-0.694D+00 0.653D+00 0.125D+01
 Gap=     0.072 Goal=   None    Shift=    0.000
 Gap=     0.207 Goal=   None    Shift=    0.000
 RMSDP=1.51D-05 MaxDP=3.95D-04 DE=-8.73D-08 OVMax= 1.65D-03

 Cycle  19  Pass 1  IDiag  1:
 E= -345.493185319563     Delta-E=       -0.000000113269 Rises=F Damp=F
 DIIS: error= 4.43D-06 at cycle   6 NSaved=   6.
 NSaved= 6 IEnMin= 6 EnMin= -345.493185319563     IErMin= 6 ErrMin= 4.43D-06
 ErrMax= 4.43D-06  0.00D+00 EMaxC= 1.00D-01 BMatC= 4.43D-09 BMatP= 8.62D-09
 IDIUse=1 WtCom= 1.00D+00 WtEn= 0.00D+00
 Coeff-Com:  0.282D+00 0.540D-01-0.983D+00-0.209D+00 0.740D+00 0.112D+01
 Coeff:      0.282D+00 0.540D-01-0.983D+00-0.209D+00 0.740D+00 0.112D+01
 Gap=     0.072 Goal=   None    Shift=    0.000
 Gap=     0.207 Goal=   None    Shift=    0.000
 RMSDP=1.40D-05 MaxDP=3.67D-04 DE=-1.13D-07 OVMax= 1.53D-03

 Cycle  20  Pass 1  IDiag  1:
 E= -345.493185384279     Delta-E=       -0.000000064716 Rises=F Damp=F
 DIIS: error= 2.36D-06 at cycle   7 NSaved=   7.
 NSaved= 7 IEnMin= 7 EnMin= -345.493185384279     IErMin= 7 ErrMin= 2.36D-06
 ErrMax= 2.36D-06  0.00D+00 EMaxC= 1.00D-01 BMatC= 1.94D-09 BMatP= 4.43D-09
 IDIUse=1 WtCom= 1.00D+00 WtEn= 0.00D+00
 Coeff-Com:  0.205D+00 0.123D+00-0.139D+00-0.513D+00-0.397D+00 0.671D+00
 Coeff-Com:  0.105D+01
 Coeff:      0.205D+00 0.123D+00-0.139D+00-0.513D+00-0.397D+00 0.671D+00
 Coeff:      0.105D+01
 Gap=     0.072 Goal=   None    Shift=    0.000
 Gap=     0.207 Goal=   None    Shift=    0.000
 RMSDP=1.08D-05 MaxDP=2.83D-04 DE=-6.47D-08 OVMax= 1.18D-03

 Cycle  21  Pass 1  IDiag  1:
 E= -345.493185407625     Delta-E=       -0.000000023346 Rises=F Damp=F
 DIIS: error= 8.82D-07 at cycle   8 NSaved=   8.
 NSaved= 8 IEnMin= 8 EnMin= -345.493185407625     IErMin= 8 ErrMin= 8.82D-07
 ErrMax= 8.82D-07  0.00D+00 EMaxC= 1.00D-01 BMatC= 4.46D-10 BMatP= 1.94D-09
 IDIUse=1 WtCom= 1.00D+00 WtEn= 0.00D+00
 Coeff-Com:  0.707D-02 0.434D-01 0.258D+00-0.176D+00-0.444D+00-0.402D-01
 Coeff-Com:  0.488D+00 0.863D+00
 Coeff:      0.707D-02 0.434D-01 0.258D+00-0.176D+00-0.444D+00-0.402D-01
 Coeff:      0.488D+00 0.863D+00
 Gap=     0.072 Goal=   None    Shift=    0.000
 Gap=     0.207 Goal=   None    Shift=    0.000
 RMSDP=4.08D-06 MaxDP=1.07D-04 DE=-2.33D-08 OVMax= 4.46D-04

 Cycle  22  Pass 1  IDiag  1:
 E= -345.493185410283     Delta-E=       -0.000000002658 Rises=F Damp=F
 DIIS: error= 8.16D-07 at cycle   9 NSaved=   9.
 NSaved= 9 IEnMin= 9 EnMin= -345.493185410283     IErMin= 9 ErrMin= 8.16D-07
 ErrMax= 8.16D-07  0.00D+00 EMaxC= 1.00D-01 BMatC= 2.79D-10 BMatP= 4.46D-10
 IDIUse=1 WtCom= 1.00D+00 WtEn= 0.00D+00
 Coeff-Com: -0.399D-01 0.443D-02 0.222D+00-0.235D-01-0.239D+00-0.168D+00
 Coeff-Com:  0.139D+00 0.616D+00 0.488D+00
 Coeff:     -0.399D-01 0.443D-02 0.222D+00-0.235D-01-0.239D+00-0.168D+00
 Coeff:      0.139D+00 0.616D+00 0.488D+00
 Gap=     0.072 Goal=   None    Shift=    0.000
 Gap=     0.207 Goal=   None    Shift=    0.000
 RMSDP=8.87D-07 MaxDP=2.30D-05 DE=-2.66D-09 OVMax= 9.62D-05

 Cycle  23  Pass 1  IDiag  1:
 E= -345.493185410466     Delta-E=       -0.000000000183 Rises=F Damp=F
 DIIS: error= 1.55D-07 at cycle  10 NSaved=  10.
 NSaved=10 IEnMin=10 EnMin= -345.493185410466     IErMin=10 ErrMin= 1.55D-07
 ErrMax= 1.55D-07  0.00D+00 EMaxC= 1.00D-01 BMatC= 9.04D-12 BMatP= 2.79D-10
 IDIUse=1 WtCom= 1.00D+00 WtEn= 0.00D+00
 Coeff-Com: -0.131D-01-0.487D-02 0.364D-01 0.133D-01-0.120D-01-0.509D-01
 Coeff-Com: -0.222D-01 0.833D-01 0.159D+00 0.811D+00
 Coeff:     -0.131D-01-0.487D-02 0.364D-01 0.133D-01-0.120D-01-0.509D-01
 Coeff:     -0.222D-01 0.833D-01 0.159D+00 0.811D+00
 Gap=     0.072 Goal=   None    Shift=    0.000
 Gap=     0.207 Goal=   None    Shift=    0.000
 RMSDP=1.31D-07 MaxDP=3.35D-06 DE=-1.83D-10 OVMax= 1.40D-05

 Cycle  24  Pass 1  IDiag  1:
 E= -345.493185410474     Delta-E=       -0.000000000008 Rises=F Damp=F
 DIIS: error= 5.93D-08 at cycle  11 NSaved=  11.
 NSaved=11 IEnMin=11 EnMin= -345.493185410474     IErMin=11 ErrMin= 5.93D-08
 ErrMax= 5.93D-08  0.00D+00 EMaxC= 1.00D-01 BMatC= 2.39D-12 BMatP= 9.04D-12
 IDIUse=1 WtCom= 1.00D+00 WtEn= 0.00D+00
 Coeff-Com:  0.198D-02-0.305D-02-0.266D-01 0.106D-01 0.404D-01 0.952D-02
 Coeff-Com: -0.369D-01-0.798D-01-0.219D-01 0.378D+00 0.727D+00
 Coeff:      0.198D-02-0.305D-02-0.266D-01 0.106D-01 0.404D-01 0.952D-02
 Coeff:     -0.369D-01-0.798D-01-0.219D-01 0.378D+00 0.727D+00
 Gap=     0.072 Goal=   None    Shift=    0.000
 Gap=     0.207 Goal=   None    Shift=    0.000
 RMSDP=2.66D-08 MaxDP=6.35D-07 DE=-8.07D-12 OVMax= 2.63D-06

 SCF Done:  E(UB3LYP) =  -345.493185410     A.U. after   24 cycles
            NFock= 24  Conv=0.27D-07     -V/T= 2.0075
 <Sx>= 0.0000 <Sy>= 0.0000 <Sz>= 0.5000 <S**2>= 0.7535 S= 0.5018
 <L.S>= 0.000000000000E+00
 KE= 3.429299836048D+02 PE=-1.443026064044D+03 EE= 4.407018659908D+02
 Annihilation of the first spin contaminant:
 S**2 before annihilation     0.7535,   after     0.7500
 Leave Link  502 at Wed Dec 03 16:48:58 2025, MaxMem=   104857600 cpu:              29.0 elap:              29.1
 (Enter D:\Gaussian\G16W\l601.exe)
 Copying SCF densities to generalized density rwf, IOpCl= 1 IROHF=0.

 **********************************************************************

            Population analysis using the SCF density.

 **********************************************************************

 Orbital symmetries:
 Alpha Orbitals:
       Occupied  (A) (A) (A) (A) (A) (A) (A) (A) (A) (A) (A) (A)
                 (A) (A) (A) (A) (A) (A) (A) (A) (A) (A) (A) (A)
                 (A) (A) (A) (A) (A)
       Virtual   (A) (A) (A) (A) (A) (A) (A) (A) (A) (A) (A) (A)
                 (A) (A) (A) (A) (A) (A) (A) (A) (A) (A) (A) (A)
                 (A) (A) (A) (A) (A) (A) (A) (A) (A) (A) (A) (A)
                 (A) (A) (A) (A) (A) (A) (A) (A) (A) (A) (A) (A)
                 (A) (A) (A) (A) (A) (A) (A) (A) (A) (A) (A) (A)
                 (A) (A) (A) (A) (A) (A) (A) (A) (A) (A) (A) (A)
                 (A) (A) (A) (A) (A) (A) (A) (A) (A) (A) (A) (A)
                 (A) (A) (A) (A) (A) (A) (A) (A) (A) (A) (A) (A)
                 (A) (A) (A) (A) (A) (A) (A)
 Beta  Orbitals:
       Occupied  (A) (A) (A) (A) (A) (A) (A) (A) (A) (A) (A) (A)
                 (A) (A) (A) (A) (A) (A) (A) (A) (A) (A) (A) (A)
                 (A) (A) (A) (A)
       Virtual   (A) (A) (A) (A) (A) (A) (A) (A) (A) (A) (A) (A)
                 (A) (A) (A) (A) (A) (A) (A) (A) (A) (A) (A) (A)
                 (A) (A) (A) (A) (A) (A) (A) (A) (A) (A) (A) (A)
                 (A) (A) (A) (A) (A) (A) (A) (A) (A) (A) (A) (A)
                 (A) (A) (A) (A) (A) (A) (A) (A) (A) (A) (A) (A)
                 (A) (A) (A) (A) (A) (A) (A) (A) (A) (A) (A) (A)
                 (A) (A) (A) (A) (A) (A) (A) (A) (A) (A) (A) (A)
                 (A) (A) (A) (A) (A) (A) (A) (A) (A) (A) (A) (A)
                 (A) (A) (A) (A) (A) (A) (A) (A)
 The electronic state is 2-A.
 Alpha  occ. eigenvalues --  -18.94798 -10.03156 -10.01052  -9.98726  -9.97982
 Alpha  occ. eigenvalues --   -9.97905  -9.97826  -9.97652  -0.86595  -0.66135
 Alpha  occ. eigenvalues --   -0.57874  -0.51983  -0.49035  -0.39232  -0.33903
 Alpha  occ. eigenvalues --   -0.32513  -0.27553  -0.26336  -0.25998  -0.22728
 Alpha  occ. eigenvalues --   -0.21099  -0.20481  -0.19678  -0.16915  -0.15759
 Alpha  occ. eigenvalues --   -0.14643  -0.01722  -0.00792   0.12077
 Alpha virt. eigenvalues --    0.19294   0.25257   0.25569   0.28634   0.29767
 Alpha virt. eigenvalues --    0.33134   0.33844   0.33910   0.36188   0.37612
 Alpha virt. eigenvalues --    0.40250   0.46544   0.47280   0.53472   0.59457
 Alpha virt. eigenvalues --    0.61272   0.65975   0.69347   0.71130   0.72726
 Alpha virt. eigenvalues --    0.73449   0.75486   0.77218   0.77437   0.79382
 Alpha virt. eigenvalues --    0.83249   0.84676   0.85763   0.86540   0.90277
 Alpha virt. eigenvalues --    0.92371   0.94044   0.96832   0.98944   1.01169
 Alpha virt. eigenvalues --    1.02378   1.02491   1.03485   1.05300   1.08787
 Alpha virt. eigenvalues --    1.09377   1.15015   1.17531   1.22193   1.25642
 Alpha virt. eigenvalues --    1.27871   1.32285   1.34376   1.38593   1.42160
 Alpha virt. eigenvalues --    1.52391   1.53797   1.55986   1.58054   1.61880
 Alpha virt. eigenvalues --    1.66402   1.68228   1.71019   1.71531   1.74654
 Alpha virt. eigenvalues --    1.75645   1.92776   1.96295   1.97314   2.03724
 Alpha virt. eigenvalues --    2.04751   2.07661   2.10947   2.15781   2.18710
 Alpha virt. eigenvalues --    2.19406   2.19901   2.22199   2.31291   2.33018
 Alpha virt. eigenvalues --    2.36861   2.41923   2.42461   2.45199   2.50403
 Alpha virt. eigenvalues --    2.53803   2.57388   2.63926   2.72040   2.73247
 Alpha virt. eigenvalues --    2.84660   2.93505   2.94175   3.05966   3.12120
 Alpha virt. eigenvalues --    3.14772   3.21007   3.24688   3.46827   3.56962
 Alpha virt. eigenvalues --    4.28089   4.32550   4.34794   4.42552   4.44658
 Alpha virt. eigenvalues --    4.73532   4.78241   5.05522
  Beta  occ. eigenvalues --  -18.93975 -10.03144 -10.00015  -9.98728  -9.98115
  Beta  occ. eigenvalues --   -9.97857  -9.97693  -9.97467  -0.84973  -0.65913
  Beta  occ. eigenvalues --   -0.57646  -0.51233  -0.48531  -0.38425  -0.33635
  Beta  occ. eigenvalues --   -0.32094  -0.26674  -0.26337  -0.25483  -0.20337
  Beta  occ. eigenvalues --   -0.20263  -0.19346  -0.18898  -0.16769  -0.14502
  Beta  occ. eigenvalues --   -0.13461  -0.01568  -0.00688
  Beta virt. eigenvalues --    0.20055   0.24250   0.25605   0.25762   0.28775
  Beta virt. eigenvalues --    0.29828   0.33242   0.33852   0.34127   0.36740
  Beta virt. eigenvalues --    0.38721   0.40282   0.46983   0.47465   0.53737
  Beta virt. eigenvalues --    0.60598   0.62035   0.66767   0.69485   0.71722
  Beta virt. eigenvalues --    0.73117   0.74071   0.75626   0.77374   0.78416
  Beta virt. eigenvalues --    0.81312   0.83401   0.84799   0.85958   0.86602
  Beta virt. eigenvalues --    0.90236   0.93355   0.94200   0.96769   0.99638
  Beta virt. eigenvalues --    1.01366   1.02386   1.02654   1.03713   1.05347
  Beta virt. eigenvalues --    1.08986   1.09412   1.15276   1.18024   1.22712
  Beta virt. eigenvalues --    1.27620   1.28574   1.33175   1.34923   1.38844
  Beta virt. eigenvalues --    1.42669   1.52797   1.53915   1.56277   1.58326
  Beta virt. eigenvalues --    1.62059   1.66547   1.68487   1.71575   1.71944
  Beta virt. eigenvalues --    1.77591   1.78057   1.94378   1.96621   1.97487
  Beta virt. eigenvalues --    2.03993   2.04938   2.08101   2.11118   2.18619
  Beta virt. eigenvalues --    2.19683   2.20106   2.21801   2.22696   2.31507
  Beta virt. eigenvalues --    2.33340   2.37231   2.42209   2.42695   2.45572
  Beta virt. eigenvalues --    2.50549   2.53960   2.57550   2.63947   2.73452
  Beta virt. eigenvalues --    2.73596   2.85102   2.93786   2.94375   3.06747
  Beta virt. eigenvalues --    3.12622   3.15297   3.21710   3.24880   3.48539
  Beta virt. eigenvalues --    3.58187   4.28179   4.32755   4.34993   4.43190
  Beta virt. eigenvalues --    4.45504   4.73678   4.78537   5.07004
          Condensed to atoms (all electrons):
               1          2          3          4          5          6
     1  C    5.155893   0.463843   0.016548  -0.041329  -0.046823   0.485324
     2  C    0.463843   5.237678  -0.114066   0.451323  -0.136305  -0.037627
     3  C    0.016548  -0.114066   5.305704   0.380391  -0.102172   0.010994
     4  C   -0.041329   0.451323   0.380391   4.869044   0.417713  -0.007806
     5  C   -0.046823  -0.136305  -0.102172   0.417713   5.315534   0.490736
     6  C    0.485324  -0.037627   0.010994  -0.007806   0.490736   4.825058
     7  H    0.329327  -0.054105  -0.000360   0.005292   0.008479  -0.069112
     8  H   -0.058097   0.321627  -0.000591  -0.044126   0.010875   0.005686
     9  O   -0.000080   0.001743   0.525287  -0.059202   0.001588  -0.000068
    10  H    0.009116   0.009683  -0.000827  -0.047882   0.320443  -0.060217
    11  C   -0.098791   0.010411  -0.000549   0.005431  -0.068358   0.314252
    12  H    0.000604  -0.000095   0.000012   0.000206  -0.000680  -0.030365
    13  H    0.000605  -0.000095   0.000012   0.000206  -0.000683  -0.030367
    14  H    0.004049   0.000107   0.000005  -0.000506  -0.002986  -0.021771
               7          8          9         10         11         12
     1  C    0.329327  -0.058097  -0.000080   0.009116  -0.098791   0.000604
     2  C   -0.054105   0.321627   0.001743   0.009683   0.010411  -0.000095
     3  C   -0.000360  -0.000591   0.525287  -0.000827  -0.000549   0.000012
     4  C    0.005292  -0.044126  -0.059202  -0.047882   0.005431   0.000206
     5  C    0.008479   0.010875   0.001588   0.320443  -0.068358  -0.000680
     6  C   -0.069112   0.005686  -0.000068  -0.060217   0.314252  -0.030365
     7  H    0.771394  -0.005911   0.000000  -0.000122  -0.007492   0.002182
     8  H   -0.005911   0.733671  -0.000197  -0.000136  -0.000152  -0.000008
     9  O    0.000000  -0.000197   8.019491  -0.000188   0.000000   0.000000
    10  H   -0.000122  -0.000136  -0.000188   0.739516  -0.010544   0.000107
    11  C   -0.007492  -0.000152   0.000000  -0.010544   5.342283   0.341196
    12  H    0.002182  -0.000008   0.000000   0.000107   0.341196   0.664684
    13  H    0.002180  -0.000008   0.000000   0.000107   0.341196  -0.049790
    14  H   -0.000059   0.000004   0.000000   0.006810   0.349224  -0.033625
              13         14
     1  C    0.000605   0.004049
     2  C   -0.000095   0.000107
     3  C    0.000012   0.000005
     4  C    0.000206  -0.000506
     5  C   -0.000683  -0.002986
     6  C   -0.030367  -0.021771
     7  H    0.002180  -0.000059
     8  H   -0.000008   0.000004
     9  O    0.000000   0.000000
    10  H    0.000107   0.006810
    11  C    0.341196   0.349224
    12  H   -0.049790  -0.033625
    13  H    0.664693  -0.033627
    14  H   -0.033627   0.621314
          Atomic-Atomic Spin Densities.
               1          2          3          4          5          6
     1  C    0.037498  -0.054770   0.003938   0.006379   0.002586   0.002321
     2  C   -0.054770   0.267240  -0.047715  -0.026339  -0.067074   0.002936
     3  C    0.003938  -0.047715   0.951493   0.051077  -0.046693   0.003753
     4  C    0.006379  -0.026339   0.051077  -0.067416  -0.030970   0.007421
     5  C    0.002586  -0.067074  -0.046693  -0.030970   0.277999  -0.059132
     6  C    0.002321   0.002936   0.003753   0.007421  -0.059132   0.042601
     7  H   -0.009218   0.008756  -0.000116  -0.000554  -0.002043  -0.005679
     8  H    0.010141  -0.028612   0.008504   0.005399   0.002258   0.000359
     9  O   -0.000039   0.001609  -0.251528  -0.004912   0.001524  -0.000038
    10  H    0.000365   0.002052   0.007953   0.005390  -0.027308   0.009957
    11  C   -0.005582  -0.001407  -0.000091  -0.000646   0.009292  -0.011109
    12  H    0.001169   0.000157   0.000003   0.000033  -0.000796   0.000550
    13  H    0.001169   0.000157   0.000003   0.000033  -0.000796   0.000550
    14  H    0.000242   0.000048   0.000011   0.000057  -0.000752   0.001664
               7          8          9         10         11         12
     1  C   -0.009218   0.010141  -0.000039   0.000365  -0.005582   0.001169
     2  C    0.008756  -0.028612   0.001609   0.002052  -0.001407   0.000157
     3  C   -0.000116   0.008504  -0.251528   0.007953  -0.000091   0.000003
     4  C   -0.000554   0.005399  -0.004912   0.005390  -0.000646   0.000033
     5  C   -0.002043   0.002258   0.001524  -0.027308   0.009292  -0.000796
     6  C   -0.005679   0.000359  -0.000038   0.009957  -0.011109   0.000550
     7  H    0.015994  -0.001513   0.000000   0.000045  -0.001236   0.000436
     8  H   -0.001513   0.007341  -0.000502  -0.000041   0.000026  -0.000004
     9  O    0.000000  -0.000502   0.505960  -0.000458   0.000000   0.000000
    10  H    0.000045  -0.000041  -0.000458   0.006243  -0.001799   0.000116
    11  C   -0.001236   0.000026   0.000000  -0.001799   0.027986  -0.005709
    12  H    0.000436  -0.000004   0.000000   0.000116  -0.005709   0.002732
    13  H    0.000436  -0.000004   0.000000   0.000116  -0.005708   0.001730
    14  H    0.000032  -0.000001   0.000000   0.000351  -0.002943   0.000706
              13         14
     1  C    0.001169   0.000242
     2  C    0.000157   0.000048
     3  C    0.000003   0.000011
     4  C    0.000033   0.000057
     5  C   -0.000796  -0.000752
     6  C    0.000550   0.001664
     7  H    0.000436   0.000032
     8  H   -0.000004  -0.000001
     9  O    0.000000   0.000000
    10  H    0.000116   0.000351
    11  C   -0.005708  -0.002943
    12  H    0.001730   0.000706
    13  H    0.002730   0.000706
    14  H    0.000706   0.000238
 Mulliken charges and spin densities:
               1          2
     1  C   -0.220189  -0.003801
     2  C   -0.154122   0.057038
     3  C   -0.020386   0.680593
     4  C    0.071244  -0.055050
     5  C   -0.207360   0.058096
     6  C    0.125282  -0.003847
     7  H    0.018308   0.005342
     8  H    0.037364   0.003351
     9  O   -0.488374   0.251616
    10  H    0.034133   0.002981
    11  C   -0.518105   0.001074
    12  H    0.105571   0.001123
    13  H    0.105571   0.001123
    14  H    0.111063   0.000360
 Sum of Mulliken charges =  -1.00000   1.00000
 Mulliken charges and spin densities with hydrogens summed into heavy atoms:
               1          2
     1  C   -0.201881   0.001540
     2  C   -0.116758   0.060389
     3  C   -0.020386   0.680593
     4  C    0.071244  -0.055050
     5  C   -0.173226   0.061077
     6  C    0.125282  -0.003847
     9  O   -0.488374   0.251616
    11  C   -0.195901   0.003680
 Electronic spatial extent (au):  <R**2>=           1092.3899
 Charge=             -1.0000 electrons
 Dipole moment (field-independent basis, Debye):
    X=              4.0772    Y=              0.0284    Z=              0.0000  Tot=              4.0773
 Quadrupole moment (field-independent basis, Debye-Ang):
   XX=            -74.6900   YY=            -51.1487   ZZ=            -50.6302
   XY=             -3.1039   XZ=              0.0003   YZ=              0.0000
 Traceless Quadrupole moment (field-independent basis, Debye-Ang):
   XX=            -15.8671   YY=              7.6743   ZZ=              8.1928
   XY=             -3.1039   XZ=              0.0003   YZ=              0.0000
 Octapole moment (field-independent basis, Debye-Ang**2):
  XXX=             42.8489  YYY=             -5.5359  ZZZ=              0.0007  XYY=             -5.0959
  XXY=             12.8214  XXZ=             -0.0014  XZZ=             -6.4799  YZZ=             -2.2113
  YYZ=             -0.0001  XYZ=             -0.0001
 Hexadecapole moment (field-independent basis, Debye-Ang**3):
 XXXX=          -1409.2830 YYYY=           -300.2377 ZZZZ=            -59.0392 XXXY=            -17.9022
 XXXZ=              0.0025 YYYX=              1.1119 YYYZ=              0.0000 ZZZX=             -0.0005
 ZZZY=             -0.0005 XXYY=           -246.0385 XXZZ=           -192.9857 YYZZ=            -64.3218
 XXYZ=              0.0007 YYXZ=             -0.0004 ZZXY=              2.3381
 N-N= 3.139010290375D+02 E-N=-1.443026065293D+03  KE= 3.429299836048D+02
                          Isotropic Fermi Contact Couplings
        Atom                 a.u.       MegaHertz       Gauss      10(-4) cm-1
     1  C(13)              0.00266       2.99234       1.06774       0.99814
     2  C(13)              0.09672     108.73108      38.79795      36.26879
     3  C(13)              0.04573      51.40730      18.34340      17.14763
     4  C(13)             -0.04391     -49.36674     -17.61528     -16.46697
     5  C(13)              0.09536     107.20545      38.25357      35.75989
     6  C(13)              0.00135       1.51666       0.54118       0.50590
     7  H(1)               0.00122       5.46306       1.94935       1.82228
     8  H(1)              -0.00078      -3.50763      -1.25161      -1.17002
     9  O(17)              0.05175     -31.37047     -11.19376     -10.46406
    10  H(1)              -0.00079      -3.52249      -1.25691      -1.17497
    11  C(13)              0.00954      10.72520       3.82702       3.57754
    12  H(1)              -0.00016      -0.72015      -0.25697      -0.24021
    13  H(1)              -0.00016      -0.72076      -0.25718      -0.24042
    14  H(1)               0.00008       0.36203       0.12918       0.12076
 --------------------------------------------------------
       Center         ----  Spin Dipole Couplings  ----
                      3XX-RR        3YY-RR        3ZZ-RR
 --------------------------------------------------------
     1   Atom        0.016113      0.004031     -0.020144
     2   Atom        0.016607      0.019597     -0.036204
     3   Atom       -0.366181      0.793085     -0.426904
     4   Atom        0.035841      0.002789     -0.038630
     5   Atom        0.063882     -0.028031     -0.035851
     6   Atom        0.010851      0.010375     -0.021226
     7   Atom        0.003426     -0.000826     -0.002599
     8   Atom       -0.003632      0.013531     -0.009899
     9   Atom       -0.561719      1.192872     -0.631153
    10   Atom        0.002565      0.007290     -0.009855
    11   Atom        0.003499     -0.000924     -0.002576
    12   Atom        0.001851     -0.001014     -0.000837
    13   Atom        0.001851     -0.001014     -0.000836
    14   Atom        0.001970     -0.000448     -0.001523
 --------------------------------------------------------
                        XY            XZ            YZ
 --------------------------------------------------------
     1   Atom       -0.005326      0.000004     -0.000002
     2   Atom        0.058869      0.000006      0.000006
     3   Atom       -0.273624      0.000000      0.000002
     4   Atom        0.007656     -0.000003      0.000001
     5   Atom       -0.037330     -0.000004      0.000001
     6   Atom        0.008897      0.000002      0.000003
     7   Atom        0.001481      0.000000      0.000000
     8   Atom        0.003874      0.000000      0.000000
     9   Atom       -0.414846      0.000000      0.000003
    10   Atom       -0.009086      0.000000      0.000000
    11   Atom       -0.001588      0.000000      0.000000
    12   Atom        0.000064     -0.000751      0.000033
    13   Atom        0.000063      0.000751     -0.000033
    14   Atom       -0.001225      0.000000      0.000000
 --------------------------------------------------------


 ---------------------------------------------------------------------------------
              Anisotropic Spin Dipole Couplings in Principal Axis System
 ---------------------------------------------------------------------------------

       Atom             a.u.   MegaHertz   Gauss  10(-4) cm-1        Axes

              Baa    -0.0201    -2.703    -0.965    -0.902 -0.0001  0.0001  1.0000
     1 C(13)  Bbb     0.0020     0.271     0.097     0.090  0.3535  0.9354  0.0000
              Bcc     0.0181     2.432     0.868     0.811  0.9354 -0.3535  0.0001
 
              Baa    -0.0408    -5.473    -1.953    -1.826  0.7160 -0.6981  0.0000
     2 C(13)  Bbb    -0.0362    -4.858    -1.734    -1.621  0.0000 -0.0001  1.0000
              Bcc     0.0770    10.331     3.686     3.446  0.6981  0.7160  0.0001
 
              Baa    -0.4275   -57.369   -20.471   -19.136  0.9758  0.2187 -0.0011
     3 C(13)  Bbb    -0.4269   -57.286   -20.441   -19.109  0.0011  0.0002  1.0000
              Bcc     0.8544   114.655    40.912    38.245 -0.2187  0.9758  0.0000
 
              Baa    -0.0386    -5.184    -1.850    -1.729  0.0000  0.0000  1.0000
     4 C(13)  Bbb     0.0011     0.148     0.053     0.049 -0.2152  0.9766  0.0000
              Bcc     0.0375     5.036     1.797     1.680  0.9766  0.2152  0.0000
 
              Baa    -0.0413    -5.540    -1.977    -1.848  0.3345  0.9424  0.0000
     5 C(13)  Bbb    -0.0359    -4.811    -1.717    -1.605  0.0000  0.0000  1.0000
              Bcc     0.0771    10.351     3.693     3.453  0.9424 -0.3345  0.0000
 
              Baa    -0.0212    -2.848    -1.016    -0.950  0.0000 -0.0001  1.0000
     6 C(13)  Bbb     0.0017     0.230     0.082     0.077 -0.6976  0.7165  0.0000
              Bcc     0.0195     2.618     0.934     0.873  0.7165  0.6976  0.0001
 
              Baa    -0.0026    -1.387    -0.495    -0.463 -0.0001  0.0001  1.0000
     7 H(1)   Bbb    -0.0013    -0.689    -0.246    -0.230 -0.2996  0.9541 -0.0001
              Bcc     0.0039     2.076     0.741     0.692  0.9541  0.2996  0.0000
 
              Baa    -0.0099    -5.282    -1.885    -1.762  0.0000  0.0000  1.0000
     8 H(1)   Bbb    -0.0045    -2.383    -0.850    -0.795  0.9776 -0.2104  0.0000
              Bcc     0.0144     7.664     2.735     2.556  0.2104  0.9776  0.0000
 
              Baa    -0.6549    47.385    16.908    15.806  0.9757  0.2191  0.0000
     9 O(17)  Bbb    -0.6312    45.670    16.296    15.234  0.0000  0.0000  1.0000
              Bcc     1.2860   -93.055   -33.204   -31.040 -0.2191  0.9757  0.0000
 
              Baa    -0.0099    -5.258    -1.876    -1.754  0.0000  0.0000  1.0000
    10 H(1)   Bbb    -0.0045    -2.380    -0.849    -0.794  0.7911  0.6117  0.0000
              Bcc     0.0143     7.638     2.725     2.548 -0.6117  0.7911  0.0000
 
              Baa    -0.0026    -0.346    -0.123    -0.115 -0.0001 -0.0002  1.0000
    11 C(13)  Bbb    -0.0014    -0.192    -0.069    -0.064  0.3063  0.9519  0.0002
              Bcc     0.0040     0.538     0.192     0.180  0.9519 -0.3063  0.0000
 
              Baa    -0.0011    -0.572    -0.204    -0.191  0.2038 -0.6423  0.7388
    12 H(1)   Bbb    -0.0010    -0.520    -0.186    -0.174  0.1489  0.7662  0.6251
              Bcc     0.0020     1.092     0.390     0.364  0.9676  0.0174 -0.2518
 
              Baa    -0.0011    -0.572    -0.204    -0.191 -0.2037  0.6427  0.7385
    13 H(1)   Bbb    -0.0010    -0.520    -0.186    -0.174  0.1491  0.7659 -0.6254
              Bcc     0.0020     1.092     0.390     0.364  0.9676  0.0173  0.2518
 
              Baa    -0.0015    -0.812    -0.290    -0.271  0.0000 -0.0001  1.0000
    14 H(1)   Bbb    -0.0010    -0.512    -0.183    -0.171  0.3857  0.9226  0.0001
              Bcc     0.0025     1.324     0.473     0.442  0.9226 -0.3857 -0.0001
 

 ---------------------------------------------------------------------------------

 No NMR shielding tensors so no spin-rotation constants.
 Leave Link  601 at Wed Dec 03 16:48:58 2025, MaxMem=   104857600 cpu:               0.0 elap:               0.2
 (Enter D:\Gaussian\G16W\l9999.exe)
 1|1|UNPC-PC-20250526LCFF|SP|UB3LYP|6-31G(d)|C7H6O1(1-,2)|ADMINISTRATOR
 |03-Dec-2025|0||#P B3LYP/6-31G* SCF=conver=7 out=wfn||Generated by Mul
 tiwfn (http://sobereva.com/multiwfn)||-1,2|C,0,1.10904606,1.24234013,0
 .00002805|C,0,-0.24322294,1.4002171,-0.00001195|C,0,-2.11205791,-0.233
 83394,0.00000405|C,0,-0.81886591,0.05827409,-0.00007195|C,0,0.28770011
 ,-0.89499989,-0.00005795|C,0,1.4463871,-0.17264786,-0.00000195|H,0,1.8
 3149904,2.04799115,0.00006205|H,0,-0.81034296,2.31823609,-0.00005895|O
 ,0,-3.2390389,-0.48773396,0.00005105|H,0,0.17931213,-1.96918489,-0.000
 00695|C,0,2.8424421,-0.71898883,0.00002805|H,0,3.4008381,-0.38305682,-
 0.88031695|H,0,3.4006881,-0.38339882,0.88059806|H,0,2.84174513,-1.8108
 7983,-0.00018395||Version=EM64W-G16RevA.03|State=2-A|HF=-345.4931854|S
 2=0.753506|S2-1=0.|S2A=0.75001|RMSD=2.663e-008|Dipole=1.6041026,0.0111
 719,0.0000018|Quadrupole=-11.7967648,5.7056483,6.0911165,-2.3077096,0.
 0002155,-0.0000326|PG=C01 [X(C7H6O1)]||@

 Writing a WFN file to "N+1.wfn"


 HERE WE GO......
 SLIDING DOWN THE RAZOR BLADE OF LIFE......
                                 TOM LEHRER
 Job cpu time:       0 days  0 hours  0 minutes 31.0 seconds.
 Elapsed time:       0 days  0 hours  0 minutes 30.8 seconds.
 File lengths (MBytes):  RWF=     14 Int=      0 D2E=      0 Chk=      2 Scr=      1
 Normal termination of Gaussian 16 at Wed Dec 03 16:48:58 2025.
