 Generated by Multiwfn (http://sobereva.com/multiwfn)
GAUSSIAN             55 MOL ORBITALS    248 PRIMITIVES       14 NUCLEI
  C    1    (CENTRE  1)   2.09579331  2.34768260  0.00005301  CHARGE =  6.0
  C    2    (CENTRE  2)  -0.45962474  2.64602683 -0.00002258  CHARGE =  6.0
  C    3    (CENTRE  3)  -3.99121101 -0.44188210  0.00000766  CHARGE =  6.0
  C    4    (CENTRE  4)  -1.54743230  0.11012207 -0.00013596  CHARGE =  6.0
  C    5    (CENTRE  5)   0.54367441 -1.69130467 -0.00010950  CHARGE =  6.0
  C    6    (CENTRE  6)   2.73327549 -0.32625717 -0.00000368  CHARGE =  6.0
  H    7    (CENTRE  7)   3.46103158  3.87014238  0.00011726  CHARGE =  1.0
  H    8    (CENTRE  8)  -1.53132626  4.38083130 -0.00011139  CHARGE =  1.0
  O    9    (CENTRE  9)  -6.12089643 -0.92168361  0.00009648  CHARGE =  8.0
  H   10    (CENTRE 10)   0.33885082 -3.72122013 -0.00001313  CHARGE =  1.0
  C   11    (CENTRE 11)   5.37143709 -1.35869198  0.00005301  CHARGE =  6.0
  H   12    (CENTRE 12)   6.42665260 -0.72387248 -1.66355793  CHARGE =  1.0
  H   13    (CENTRE 13)   6.42636914 -0.72451877  1.66408917  CHARGE =  1.0
  H   14    (CENTRE 14)   5.37012001 -3.42206692 -0.00034761  CHARGE =  1.0
CENTRE ASSIGNMENTS    1  1  1  1  1  1  1  1  1  1  1  1  1  1  1  1  1  1  1  1
CENTRE ASSIGNMENTS    1  1  1  1  1  1  1  1  2  2  2  2  2  2  2  2  2  2  2  2
CENTRE ASSIGNMENTS    2  2  2  2  2  2  2  2  2  2  2  2  2  2  2  2  3  3  3  3
CENTRE ASSIGNMENTS    3  3  3  3  3  3  3  3  3  3  3  3  3  3  3  3  3  3  3  3
CENTRE ASSIGNMENTS    3  3  3  3  4  4  4  4  4  4  4  4  4  4  4  4  4  4  4  4
CENTRE ASSIGNMENTS    4  4  4  4  4  4  4  4  4  4  4  4  5  5  5  5  5  5  5  5
CENTRE ASSIGNMENTS    5  5  5  5  5  5  5  5  5  5  5  5  5  5  5  5  5  5  5  5
CENTRE ASSIGNMENTS    6  6  6  6  6  6  6  6  6  6  6  6  6  6  6  6  6  6  6  6
CENTRE ASSIGNMENTS    6  6  6  6  6  6  6  6  7  7  7  7  8  8  8  8  9  9  9  9
CENTRE ASSIGNMENTS    9  9  9  9  9  9  9  9  9  9  9  9  9  9  9  9  9  9  9  9
CENTRE ASSIGNMENTS    9  9  9  9 10 10 10 10 11 11 11 11 11 11 11 11 11 11 11 11
CENTRE ASSIGNMENTS   11 11 11 11 11 11 11 11 11 11 11 11 11 11 11 11 12 12 12 12
CENTRE ASSIGNMENTS   13 13 13 13 14 14 14 14
TYPE ASSIGNMENTS      1  1  1  1  1  1  1  1  1  2  2  2  3  3  3  4  4  4  1  2
TYPE ASSIGNMENTS      3  4  5  6  7  8  9 10  1  1  1  1  1  1  1  1  1  2  2  2
TYPE ASSIGNMENTS      3  3  3  4  4  4  1  2  3  4  5  6  7  8  9 10  1  1  1  1
TYPE ASSIGNMENTS      1  1  1  1  1  2  2  2  3  3  3  4  4  4  1  2  3  4  5  6
TYPE ASSIGNMENTS      7  8  9 10  1  1  1  1  1  1  1  1  1  2  2  2  3  3  3  4
TYPE ASSIGNMENTS      4  4  1  2  3  4  5  6  7  8  9 10  1  1  1  1  1  1  1  1
TYPE ASSIGNMENTS      1  2  2  2  3  3  3  4  4  4  1  2  3  4  5  6  7  8  9 10
TYPE ASSIGNMENTS      1  1  1  1  1  1  1  1  1  2  2  2  3  3  3  4  4  4  1  2
TYPE ASSIGNMENTS      3  4  5  6  7  8  9 10  1  1  1  1  1  1  1  1  1  1  1  1
TYPE ASSIGNMENTS      1  1  1  1  1  2  2  2  3  3  3  4  4  4  1  2  3  4  5  6
TYPE ASSIGNMENTS      7  8  9 10  1  1  1  1  1  1  1  1  1  1  1  1  1  2  2  2
TYPE ASSIGNMENTS      3  3  3  4  4  4  1  2  3  4  5  6  7  8  9 10  1  1  1  1
TYPE ASSIGNMENTS      1  1  1  1  1  1  1  1
EXPONENTS  0.3047525D+04 0.4573695D+03 0.1039487D+03 0.2921016D+02 0.9286663D+01
EXPONENTS  0.3163927D+01 0.7868272D+01 0.1881289D+01 0.5442493D+00 0.7868272D+01
EXPONENTS  0.1881289D+01 0.5442493D+00 0.7868272D+01 0.1881289D+01 0.5442493D+00
EXPONENTS  0.7868272D+01 0.1881289D+01 0.5442493D+00 0.1687145D+00 0.1687145D+00
EXPONENTS  0.1687145D+00 0.1687145D+00 0.8000000D+00 0.8000000D+00 0.8000000D+00
EXPONENTS  0.8000000D+00 0.8000000D+00 0.8000000D+00 0.3047525D+04 0.4573695D+03
EXPONENTS  0.1039487D+03 0.2921016D+02 0.9286663D+01 0.3163927D+01 0.7868272D+01
EXPONENTS  0.1881289D+01 0.5442493D+00 0.7868272D+01 0.1881289D+01 0.5442493D+00
EXPONENTS  0.7868272D+01 0.1881289D+01 0.5442493D+00 0.7868272D+01 0.1881289D+01
EXPONENTS  0.5442493D+00 0.1687145D+00 0.1687145D+00 0.1687145D+00 0.1687145D+00
EXPONENTS  0.8000000D+00 0.8000000D+00 0.8000000D+00 0.8000000D+00 0.8000000D+00
EXPONENTS  0.8000000D+00 0.3047525D+04 0.4573695D+03 0.1039487D+03 0.2921016D+02
EXPONENTS  0.9286663D+01 0.3163927D+01 0.7868272D+01 0.1881289D+01 0.5442493D+00
EXPONENTS  0.7868272D+01 0.1881289D+01 0.5442493D+00 0.7868272D+01 0.1881289D+01
EXPONENTS  0.5442493D+00 0.7868272D+01 0.1881289D+01 0.5442493D+00 0.1687145D+00
EXPONENTS  0.1687145D+00 0.1687145D+00 0.1687145D+00 0.8000000D+00 0.8000000D+00
EXPONENTS  0.8000000D+00 0.8000000D+00 0.8000000D+00 0.8000000D+00 0.3047525D+04
EXPONENTS  0.4573695D+03 0.1039487D+03 0.2921016D+02 0.9286663D+01 0.3163927D+01
EXPONENTS  0.7868272D+01 0.1881289D+01 0.5442493D+00 0.7868272D+01 0.1881289D+01
EXPONENTS  0.5442493D+00 0.7868272D+01 0.1881289D+01 0.5442493D+00 0.7868272D+01
EXPONENTS  0.1881289D+01 0.5442493D+00 0.1687145D+00 0.1687145D+00 0.1687145D+00
EXPONENTS  0.1687145D+00 0.8000000D+00 0.8000000D+00 0.8000000D+00 0.8000000D+00
EXPONENTS  0.8000000D+00 0.8000000D+00 0.3047525D+04 0.4573695D+03 0.1039487D+03
EXPONENTS  0.2921016D+02 0.9286663D+01 0.3163927D+01 0.7868272D+01 0.1881289D+01
EXPONENTS  0.5442493D+00 0.7868272D+01 0.1881289D+01 0.5442493D+00 0.7868272D+01
EXPONENTS  0.1881289D+01 0.5442493D+00 0.7868272D+01 0.1881289D+01 0.5442493D+00
EXPONENTS  0.1687145D+00 0.1687145D+00 0.1687145D+00 0.1687145D+00 0.8000000D+00
EXPONENTS  0.8000000D+00 0.8000000D+00 0.8000000D+00 0.8000000D+00 0.8000000D+00
EXPONENTS  0.3047525D+04 0.4573695D+03 0.1039487D+03 0.2921016D+02 0.9286663D+01
EXPONENTS  0.3163927D+01 0.7868272D+01 0.1881289D+01 0.5442493D+00 0.7868272D+01
EXPONENTS  0.1881289D+01 0.5442493D+00 0.7868272D+01 0.1881289D+01 0.5442493D+00
EXPONENTS  0.7868272D+01 0.1881289D+01 0.5442493D+00 0.1687145D+00 0.1687145D+00
EXPONENTS  0.1687145D+00 0.1687145D+00 0.8000000D+00 0.8000000D+00 0.8000000D+00
EXPONENTS  0.8000000D+00 0.8000000D+00 0.8000000D+00 0.1873114D+02 0.2825394D+01
EXPONENTS  0.6401217D+00 0.1612778D+00 0.1873114D+02 0.2825394D+01 0.6401217D+00
EXPONENTS  0.1612778D+00 0.5484672D+04 0.8252349D+03 0.1880470D+03 0.5296450D+02
EXPONENTS  0.1689757D+02 0.5799635D+01 0.1553962D+02 0.3599934D+01 0.1013762D+01
EXPONENTS  0.1553962D+02 0.3599934D+01 0.1013762D+01 0.1553962D+02 0.3599934D+01
EXPONENTS  0.1013762D+01 0.1553962D+02 0.3599934D+01 0.1013762D+01 0.2700058D+00
EXPONENTS  0.2700058D+00 0.2700058D+00 0.2700058D+00 0.8000000D+00 0.8000000D+00
EXPONENTS  0.8000000D+00 0.8000000D+00 0.8000000D+00 0.8000000D+00 0.1873114D+02
EXPONENTS  0.2825394D+01 0.6401217D+00 0.1612778D+00 0.3047525D+04 0.4573695D+03
EXPONENTS  0.1039487D+03 0.2921016D+02 0.9286663D+01 0.3163927D+01 0.7868272D+01
EXPONENTS  0.1881289D+01 0.5442493D+00 0.7868272D+01 0.1881289D+01 0.5442493D+00
EXPONENTS  0.7868272D+01 0.1881289D+01 0.5442493D+00 0.7868272D+01 0.1881289D+01
EXPONENTS  0.5442493D+00 0.1687145D+00 0.1687145D+00 0.1687145D+00 0.1687145D+00
EXPONENTS  0.8000000D+00 0.8000000D+00 0.8000000D+00 0.8000000D+00 0.8000000D+00
EXPONENTS  0.8000000D+00 0.1873114D+02 0.2825394D+01 0.6401217D+00 0.1612778D+00
EXPONENTS  0.1873114D+02 0.2825394D+01 0.6401217D+00 0.1612778D+00 0.1873114D+02
EXPONENTS  0.2825394D+01 0.6401217D+00 0.1612778D+00
MO    1     MO 0.0        OCC NO =    1.0000000  ORB. ENERGY =  -19.444442
  0.31519084D-05  0.58146555D-05  0.93866569D-05  0.12218638D-04  0.10426186D-04
  0.35999115D-05 -0.87779219D-05 -0.40457362D-05  0.11344666D-04 -0.80914637D-05
 -0.62040211D-05 -0.30962414D-05 -0.20571296D-04 -0.15772765D-04 -0.78717153D-05
 -0.70273496D-08 -0.53881260D-08 -0.26890525D-08  0.27779632D-04  0.25503129D-05
  0.12503944D-04  0.13367951D-08  0.61250479D-05  0.49496800D-05  0.17815400D-04
  0.51770075D-05 -0.39419184D-08 -0.69323607D-08  0.28259043D-05  0.52132416D-05
  0.84157884D-05  0.10954856D-04  0.93477984D-05  0.32275701D-05 -0.29385931D-04
 -0.13543949D-04  0.37978646D-04 -0.30676652D-04 -0.23520911D-04 -0.11738583D-04
  0.23763156D-04  0.18220081D-04  0.90930974D-05  0.56209881D-08  0.43098171D-08
  0.21509008D-08 -0.51991297D-04 -0.35378669D-04  0.30439055D-04  0.48253840D-08
 -0.94378622D-07 -0.95825369D-04  0.26614189D-04  0.73174691D-04  0.12530946D-07
 -0.37219322D-07 -0.93121216D-04 -0.17179046D-03 -0.27732307D-03 -0.36099224D-03
 -0.30803533D-03 -0.10635720D-03  0.48760309D-04  0.22473582D-04 -0.63018269D-04
  0.33191263D-03  0.25448955D-03  0.12700812D-03  0.74441572D-04  0.57077076D-04
  0.28485461D-04 -0.45142817D-08 -0.34612649D-08 -0.17274137D-08 -0.43729488D-05
  0.12833920D-02  0.28826889D-03 -0.63966140D-07 -0.23575487D-02 -0.39424929D-03
 -0.28766365D-03 -0.93369079D-03  0.19299667D-06  0.43626009D-07  0.36054017D-04
  0.66512622D-04  0.10737199D-03  0.13976643D-03  0.11926295D-03  0.41178631D-04
 -0.49081839D-04 -0.22621775D-04  0.63433818D-04 -0.69586003D-03 -0.53354134D-03
 -0.26627452D-03 -0.15647333D-03 -0.11997382D-03 -0.59875345D-04  0.49385799D-07
  0.37865898D-07  0.18897737D-07 -0.11700905D-02  0.51530876D-03  0.12060883D-03
 -0.33728640D-07  0.85147351D-03  0.89048949D-04  0.75677780D-04  0.36283207D-03
 -0.82779096D-07 -0.19100097D-07  0.25689682D-05  0.47392447D-05  0.76506103D-05
  0.99588214D-05  0.84978804D-05  0.29341139D-05 -0.27994968D-04 -0.12902855D-04
  0.36180953D-04 -0.10000623D-04 -0.76678434D-05 -0.38267913D-05 -0.32751338D-04
 -0.25111648D-04 -0.12532473D-04  0.29410781D-08  0.22550321D-08  0.11254191D-08
 -0.23035088D-04 -0.18029473D-04 -0.28718787D-04  0.45687003D-08  0.10660093D-04
 -0.10553722D-03  0.26384991D-04  0.39260083D-04 -0.49583122D-08  0.26698170D-07
  0.25613913D-05  0.47252668D-05  0.76280458D-05  0.99294491D-05  0.84728169D-05
  0.29254601D-05 -0.73854130D-05 -0.34039301D-05  0.95449753D-05 -0.30235207D-04
 -0.23182439D-04 -0.11569662D-04  0.18745193D-04  0.14372625D-04  0.71729474D-05
 -0.96193099D-08 -0.73754767D-08 -0.36808798D-08  0.17345972D-04  0.54779918D-04
 -0.26697371D-04  0.40960144D-08  0.92959213D-05 -0.31953116D-05  0.14494430D-04
 -0.66533325D-05 -0.31285282D-08  0.30602297D-08 -0.24845940D-05 -0.42143417D-05
 -0.47978791D-05 -0.10703595D-04 -0.93393948D-06 -0.15841381D-05 -0.18034853D-05
 -0.16279833D-04  0.82558599D+00  0.15195189D+01  0.24588685D+01  0.32322514D+01
  0.27722833D+01  0.94789073D+00 -0.15545872D-01 -0.69365380D-02  0.20483690D-01
  0.52985062D-02  0.40822134D-02  0.17923116D-02  0.11937917D-02  0.91975218D-03
  0.40382075D-03 -0.22276391D-06 -0.17162758D-06 -0.75353752D-07  0.50821957D-02
  0.78492498D-03  0.17732691D-03 -0.25930434D-07 -0.83636807D-02 -0.95666899D-02
 -0.96191062D-02  0.57131285D-03 -0.90162923D-07 -0.20126838D-07 -0.28427931D-06
 -0.48219151D-06 -0.54895799D-06 -0.12181279D-04  0.23129180D-05  0.42668821D-05
  0.68880707D-05  0.89662214D-05  0.76508930D-05  0.26416695D-05 -0.10603130D-04
 -0.48869728D-05  0.13703582D-04  0.17887310D-04  0.13714854D-04  0.68446736D-05
 -0.64688873D-05 -0.49599325D-05 -0.24753539D-05  0.52448106D-08  0.40213881D-08
  0.20069545D-08 -0.60341985D-04  0.19088113D-04 -0.76021207D-05 -0.30145988D-08
 -0.67640190D-05  0.39639804D-05  0.51137566D-05  0.12054543D-04 -0.40687087D-09
 -0.29955717D-08  0.19615328D-05  0.33271309D-05  0.37878209D-05  0.13508922D-05
  0.19626736D-05  0.33290658D-05  0.37900238D-05  0.13536816D-05  0.18496000D-05
  0.31372717D-05  0.35716729D-05  0.11396905D-05
MO    2     MO 0.0        OCC NO =    1.0000000  ORB. ENERGY =  -10.538994
 -0.21250358D-04 -0.39202760D-04 -0.63285411D-04 -0.82378801D-04 -0.70293980D-04
 -0.24270822D-04  0.80669973D-04  0.37180717D-04 -0.10425861D-03 -0.68523804D-04
 -0.52539707D-04 -0.26220996D-04  0.26502299D-04  0.20320282D-04  0.10141245D-04
  0.16884702D-07  0.12946119D-07  0.64610206D-08  0.22631486D-03 -0.87707551D-04
 -0.44132061D-04 -0.87479554D-08  0.83475668D-04 -0.15783064D-04 -0.88121742D-04
  0.25164792D-04  0.31640073D-07  0.17955138D-07 -0.41307430D-05 -0.76204143D-05
 -0.12301711D-04 -0.16013173D-04 -0.13664070D-04 -0.47178749D-05  0.48610429D-04
  0.22404503D-04 -0.62824564D-04  0.21645791D-03  0.16596620D-03  0.82828765D-04
 -0.10806109D-04 -0.82854392D-05 -0.41350149D-05 -0.24189426D-07 -0.18546917D-07
 -0.92562116D-08 -0.63857383D-06 -0.82647961D-04 -0.63169206D-04 -0.99126753D-08
 -0.10024870D-03  0.18705258D-03 -0.79671153D-04 -0.22387577D-04 -0.36981998D-07
  0.58720176D-07  0.53258424D+00  0.98251392D+00  0.15860821D+01  0.20646076D+01
  0.17617334D+01  0.60828422D+00 -0.20172139D-01 -0.92973203D-02  0.26070657D-01
 -0.15788051D-02 -0.12105276D-02 -0.60413813D-03 -0.34495131D-03 -0.26448679D-03
 -0.13199744D-03  0.42788971D-07  0.32807869D-07  0.16373426D-07 -0.26522782D-02
 -0.25687225D-02 -0.57764066D-03  0.14203570D-06 -0.79155253D-02 -0.10809636D-01
 -0.10940778D-01  0.13775149D-02 -0.29328712D-06 -0.66063426D-07  0.20421714D-02
  0.37674074D-02  0.60817637D-02  0.79166493D-02  0.67552912D-02  0.23324397D-02
  0.27759781D-03  0.12794458D-03 -0.35876995D-03  0.11551237D-02  0.88567556D-03
  0.44201418D-03  0.25613921D-03  0.19639130D-03  0.98013024D-04 -0.66662058D-07
 -0.51112238D-07 -0.25508589D-07  0.30918561D-02 -0.14535341D-02 -0.33073996D-03
  0.80034441D-07 -0.94212781D-03 -0.39528458D-03 -0.28505781D-03 -0.26017659D-03
  0.48123040D-07  0.76542790D-08 -0.10844288D-05 -0.20005595D-05 -0.32295233D-05
 -0.42038797D-05 -0.35871782D-05 -0.12385664D-05  0.36346096D-04  0.16751882D-04
 -0.46974026D-04  0.16918683D-03  0.12972173D-03  0.64740234D-04  0.90712531D-04
  0.69552616D-04  0.34711630D-04 -0.20127191D-07 -0.15432254D-07 -0.77017762D-08
 -0.12685049D-03 -0.13830097D-03 -0.78092820D-05 -0.82152890D-08 -0.68223774D-04
  0.14118363D-03 -0.69944111D-04 -0.23275390D-03 -0.11926821D-07 -0.56607933D-07
 -0.18872479D-04 -0.34816038D-04 -0.56203881D-04 -0.73160753D-04 -0.62428204D-04
 -0.21554958D-04  0.70162634D-04  0.32337894D-04 -0.90678830D-04  0.81408091D-07
  0.62418561D-07  0.31151237D-07 -0.37076046D-04 -0.28427560D-04 -0.14187345D-04
  0.28859215D-07  0.22127415D-07  0.11043131D-07  0.19868851D-03 -0.24383709D-03
 -0.51889959D-04 -0.24331491D-07  0.81804867D-04 -0.93945707D-05 -0.73600650D-04
  0.74066992D-04  0.25277311D-07  0.24689833D-08 -0.44073017D-05 -0.74756179D-05
 -0.85107268D-05  0.34297597D-04 -0.20650020D-04 -0.35026342D-04 -0.39876252D-04
  0.26327641D-04  0.60669884D-04  0.11166497D-03  0.18069501D-03  0.23752864D-03
  0.20372694D-03  0.69657700D-04 -0.11667918D-02 -0.52062021D-03  0.15373984D-02
 -0.91128502D-03 -0.70209598D-03 -0.30825795D-03 -0.20352916D-03 -0.15680825D-03
 -0.68847266D-04  0.70873486D-07  0.54604200D-07  0.23974185D-07 -0.41598854D-02
 -0.13242457D-02 -0.29957782D-03  0.31752924D-07  0.38546407D-03  0.14642115D-02
  0.15106766D-02 -0.51536815D-03  0.52169805D-07  0.12311105D-07 -0.17648883D-04
 -0.29935846D-04 -0.34080903D-04  0.19686737D-04 -0.92905972D-05 -0.17139338D-04
 -0.27668205D-04 -0.36015783D-04 -0.30732333D-04 -0.10611136D-04  0.26859612D-04
  0.12379570D-04 -0.34713608D-04 -0.10009773D-04 -0.76748590D-05 -0.38302925D-05
 -0.13542632D-04 -0.10383632D-04 -0.51821599D-05 -0.21540609D-07 -0.16515973D-07
 -0.82426279D-08  0.14844787D-03 -0.38265175D-04  0.64453792D-04  0.17167991D-07
 -0.27454711D-04 -0.89784519D-05 -0.19027708D-04 -0.53872385D-04 -0.64909900D-08
 -0.23338128D-09 -0.67750037D-05 -0.11491689D-04 -0.13082881D-04 -0.10603331D-04
 -0.67775050D-05 -0.11495931D-04 -0.13087711D-04 -0.10614726D-04 -0.26268401D-05
 -0.44556179D-05 -0.50725635D-05  0.30425422D-04
MO    3     MO 0.0        OCC NO =    1.0000000  ORB. ENERGY =  -10.450917
  0.30965950D-05  0.57126131D-05  0.92219288D-05  0.12004211D-04  0.10243215D-04
  0.35367361D-05  0.32743067D-04  0.15091250D-04 -0.42317439D-04 -0.87067549D-04
 -0.66757874D-04 -0.33316858D-04  0.79302448D-04  0.60804087D-04  0.30345501D-04
 -0.46956778D-08 -0.36003479D-08 -0.17968259D-08 -0.14192009D-03  0.77488317D-04
  0.93422020D-04  0.76867498D-08  0.20396539D-04  0.79209627D-04 -0.12106019D-04
  0.14327886D-04 -0.18415573D-08 -0.12752059D-09 -0.16928840D-03 -0.31230404D-03
 -0.50415555D-03 -0.65626073D-03 -0.55998847D-03 -0.19335056D-03  0.50832204D-04
  0.23428516D-04 -0.65696005D-04  0.10417439D-03  0.79874314D-04  0.39862881D-04
  0.80596487D-04  0.61796274D-04  0.30840672D-04  0.10891954D-07  0.83512597D-08
  0.41678639D-08 -0.73665454D-04 -0.65278795D-04  0.70740528D-04 -0.11123369D-08
  0.58379299D-04  0.62088243D-04 -0.26797941D-04  0.80087988D-05  0.96051609D-08
 -0.49705156D-08 -0.26711457D-04 -0.49277423D-04 -0.79549040D-04 -0.10354921D-03
 -0.88358732D-04 -0.30508147D-04  0.38372564D-04  0.17685880D-04 -0.49593053D-04
 -0.19599963D-04 -0.15028009D-04 -0.75000296D-05  0.53434215D-04  0.40969967D-04
  0.20446885D-04 -0.17296522D-07 -0.13261876D-07 -0.66186057D-08  0.28436600D-03
  0.81980852D-04  0.94243860D-04 -0.96693567D-08  0.16848162D-03  0.41186143D-04
 -0.67496670D-04  0.12411382D-03 -0.37768420D-07 -0.33193064D-07  0.43795188D-02
  0.80793571D-02  0.13042587D-01  0.16977574D-01  0.14486994D-01  0.50020110D-02
 -0.31845609D-04 -0.14677612D-04  0.41157556D-04 -0.26764493D-03 -0.20521315D-03
 -0.10241575D-03  0.20723229D-03  0.15889257D-03  0.79298530D-04 -0.10101750D-09
 -0.77453808D-10 -0.38654879D-10  0.11176304D-02  0.66606139D-03 -0.25551468D-03
  0.38295681D-08 -0.58476614D-03 -0.46443924D-03 -0.27347109D-03  0.19884800D-03
  0.14730282D-07 -0.74180038D-08  0.53231617D+00  0.98201939D+00  0.15852838D+01
  0.20635685D+01  0.17608467D+01  0.60797805D+00 -0.20263462D-01 -0.93394109D-02
  0.26188683D-01  0.71373572D-05  0.54724728D-05  0.27311475D-05  0.72947423D-03
  0.55931457D-03  0.27913717D-03 -0.13245604D-07 -0.10155889D-07 -0.50685005D-08
 -0.36743022D-02 -0.94242534D-04 -0.85126785D-03 -0.17813079D-07 -0.10864002D-01
 -0.10679167D-01 -0.10649283D-01  0.23817164D-03 -0.11817202D-07 -0.27629027D-07
  0.96419786D-02  0.17787568D-01  0.28714650D-01  0.37377942D-01  0.31894665D-01
  0.11012462D-01 -0.14073579D-03 -0.64864999D-04  0.18188823D-03  0.40072106D-03
  0.30724749D-03  0.15333803D-03  0.15166488D-03  0.11628701D-03  0.58035367D-04
  0.22923950D-07  0.17576631D-07  0.87719706D-08  0.14585697D-02 -0.69305989D-03
 -0.13635592D-03 -0.28900804D-07 -0.58909104D-03 -0.51783848D-03 -0.38548845D-03
 -0.42659481D-04 -0.25646715D-07 -0.71787887D-08 -0.11405368D-04 -0.19345663D-04
 -0.22024354D-04 -0.33321583D-04 -0.10891735D-04 -0.18474444D-04 -0.21032501D-04
 -0.29891243D-04 -0.25065345D-05 -0.46133616D-05 -0.74652898D-05 -0.98133325D-05
 -0.84168382D-05 -0.28778599D-05  0.16789561D-04  0.74914694D-05 -0.22122410D-04
 -0.11928349D-03 -0.91901500D-04 -0.40349709D-04  0.37433882D-04  0.28840788D-04
  0.12662659D-04  0.21128918D-08  0.16278692D-08  0.71472228D-09  0.13501276D-04
 -0.13357780D-04 -0.41501699D-04  0.18543729D-08 -0.55909475D-04 -0.85489761D-05
  0.11327400D-04 -0.62098970D-04  0.11669913D-08  0.29913894D-08 -0.98825183D-04
 -0.16762622D-03 -0.19083652D-03  0.10505922D-03 -0.45946586D-05 -0.84762479D-05
 -0.13683292D-04 -0.17811581D-04 -0.15198654D-04 -0.52477301D-05  0.38961754D-04
  0.17957437D-04 -0.50354528D-04 -0.78669436D-06 -0.60318734D-06 -0.30103276D-06
  0.10484185D-04  0.80386082D-05  0.40118289D-05 -0.54453312D-09 -0.41751346D-09
 -0.20836848D-09  0.17313742D-03 -0.33387701D-04  0.82702891D-04  0.38958781D-08
  0.29093068D-04  0.33954203D-04 -0.27871896D-04 -0.86497864D-04 -0.37874563D-08
 -0.99584172D-08 -0.41467156D-05 -0.70336145D-05 -0.80075216D-05 -0.82949244D-05
 -0.41459123D-05 -0.70322519D-05 -0.80059702D-05 -0.82936583D-05  0.11790205D-06
  0.19998418D-06  0.22767493D-06  0.27260041D-04
MO    4     MO 0.0        OCC NO =    1.0000000  ORB. ENERGY =  -10.442517
  0.43115978D-02  0.79540561D-02  0.12840313D-01  0.16714272D-01  0.14262319D-01
  0.49244359D-02  0.96831543D-04  0.44629570D-04 -0.12514597D-03  0.37085843D-03
  0.28435072D-03  0.14191094D-03  0.69161747D-04  0.53028841D-04  0.26465108D-04
  0.98583129D-08  0.75587291D-08  0.37723356D-08  0.16190265D-02 -0.52215047D-03
 -0.28837143D-03 -0.25266898D-07 -0.45609940D-03 -0.35590400D-03 -0.30593008D-03
 -0.59640529D-04 -0.44351653D-08 -0.35664080D-08  0.53236396D+00  0.98210755D+00
  0.15854261D+01  0.20637537D+01  0.17610048D+01  0.60803263D+00 -0.20178444D-01
 -0.93002263D-02  0.26078805D-01  0.12215003D-03  0.93656897D-04  0.46741355D-04
 -0.75666114D-03 -0.58015977D-03 -0.28954038D-03 -0.91814927D-08 -0.70397862D-08
 -0.35133467D-08 -0.35502857D-02 -0.37708464D-03  0.75142799D-03  0.13855902D-07
 -0.10650491D-01 -0.10702377D-01 -0.10639352D-01 -0.28612206D-03  0.70189934D-09
 -0.55210968D-07 -0.41341530D-04 -0.76267051D-04 -0.12311867D-03 -0.16026392D-03
 -0.13675350D-03 -0.47217696D-04  0.45066143D-04  0.20770944D-04 -0.58243896D-04
  0.17407675D-06  0.13347101D-06  0.66611389D-07 -0.78097436D-04 -0.59880160D-04
 -0.29884397D-04 -0.23428263D-07 -0.17963306D-07 -0.89649486D-08  0.26817794D-03
  0.11324383D-03 -0.47004265D-04 -0.92099654D-08  0.19377111D-03  0.11277520D-04
 -0.75791679D-04  0.11522844D-04 -0.57627188D-07  0.23706405D-07  0.75017281D-02
  0.13839224D-01  0.22340798D-01  0.29081081D-01  0.24814939D-01  0.85680021D-02
 -0.16012414D-03 -0.73801068D-04  0.20694590D-03 -0.15290689D-03 -0.11723930D-03
 -0.58510628D-04 -0.33621868D-03 -0.25779116D-03 -0.12865585D-03 -0.14884775D-07
 -0.11412701D-07 -0.56957378D-08  0.10728926D-02  0.44227558D-03  0.55099085D-03
  0.18084604D-07 -0.55602407D-03 -0.66942403D-03 -0.33320995D-03 -0.23787809D-03
 -0.95143421D-08 -0.16650506D-07  0.97992957D-04  0.18077787D-03  0.29183154D-03
  0.37987795D-03  0.32415054D-03  0.11192139D-03  0.36281221D-04  0.16721981D-04
 -0.46890181D-04  0.12009773D-03  0.92083320D-04  0.45956030D-04 -0.41957514D-04
 -0.32170360D-04 -0.16055264D-04  0.67985777D-08  0.52127182D-08  0.26015117D-08
 -0.13033277D-03 -0.10062977D-03 -0.61659500D-04 -0.27958891D-08  0.36633636D-04
  0.56005647D-04 -0.28252865D-04 -0.28715523D-04  0.36302406D-08  0.91425821D-08
 -0.27481812D-04 -0.50698578D-04 -0.81843224D-04 -0.10653556D-03 -0.90906986D-04
 -0.31387998D-04  0.24750890D-05  0.11407663D-05 -0.31988277D-05 -0.21959330D-04
 -0.16837021D-04 -0.84028536D-05 -0.55674972D-04 -0.42688038D-04 -0.21304323D-04
 -0.49408925D-08 -0.37883630D-08 -0.18906586D-08 -0.29688964D-03  0.51932414D-04
 -0.23144680D-03 -0.51639735D-08  0.56967380D-04  0.30878642D-04  0.19090257D-04
 -0.34085399D-04 -0.24299418D-08  0.13201709D-08  0.23944644D-05  0.40614649D-05
  0.46238342D-05  0.10922415D-03 -0.10603990D-03 -0.17986373D-03 -0.20476850D-03
  0.10649961D-03 -0.29736947D-05 -0.54731858D-05 -0.88566477D-05 -0.11642311D-04
 -0.99855428D-05 -0.34142267D-05  0.18772500D-04  0.83762531D-05 -0.24735188D-04
 -0.93540109D-04 -0.72067611D-04 -0.31641563D-04 -0.76468050D-04 -0.58914510D-04
 -0.25866643D-04  0.41391375D-08  0.31889823D-08  0.14001350D-08  0.19251212D-04
 -0.27488522D-04  0.27833586D-04  0.65846959D-09 -0.70768759D-04  0.32251697D-05
  0.10152382D-04 -0.54527095D-05 -0.67511288D-09 -0.35052687D-08 -0.47781767D-05
 -0.81046920D-05 -0.92269054D-05 -0.14358994D-04 -0.88274026D-05 -0.16284834D-04
 -0.26288771D-04 -0.34220169D-04 -0.29200133D-04 -0.10082104D-04  0.21416612D-04
  0.98708969D-05 -0.27679025D-04  0.12544964D-04  0.96186825D-05  0.48003967D-05
 -0.34636031D-04 -0.26556712D-04 -0.13253660D-04 -0.66993415D-08 -0.51366301D-08
 -0.25635384D-08  0.33078607D-05  0.17822193D-04  0.70975274D-04  0.73103431D-08
 -0.50913780D-04 -0.35842188D-05 -0.34858579D-05 -0.91696819D-04 -0.11507618D-07
 -0.26006998D-07 -0.77921255D-05 -0.13216920D-04 -0.15046996D-04 -0.13235677D-04
 -0.77891628D-05 -0.13211894D-04 -0.15041275D-04 -0.13236676D-04  0.56773683D-05
  0.96298912D-05  0.10963291D-04  0.33728686D-04
MO    5     MO 0.0        OCC NO =    1.0000000  ORB. ENERGY =  -10.431791
  0.29178280D-02  0.53828229D-02  0.86895451D-02  0.11311206D-01  0.96518725D-02
  0.33325596D-02  0.37415089D-04  0.17244580D-04 -0.48355603D-04  0.10355294D-04
  0.79397825D-05  0.39625079D-05  0.32733746D-03  0.25098160D-03  0.12525741D-03
  0.10294794D-07  0.78933948D-08  0.39393572D-08  0.11345097D-02 -0.11868663D-03
 -0.42899536D-03 -0.18274680D-07 -0.31366859D-03 -0.57627288D-03 -0.24215861D-03
  0.82026043D-04  0.63511540D-09 -0.13350526D-07  0.50798667D-04  0.93713621D-04
  0.15128284D-03  0.19692531D-03  0.16803672D-03  0.58019042D-04 -0.78711757D-06
 -0.36278177D-06  0.10172779D-05 -0.69795284D-04 -0.53514597D-04 -0.26707534D-04
 -0.40628289D-04 -0.31151195D-04 -0.15546630D-04 -0.44999227D-08 -0.34502553D-08
 -0.17219192D-08 -0.39827232D-03 -0.64059264D-04  0.14480769D-03  0.31805037D-08
  0.65900068D-04  0.48687643D-04  0.15482909D-04 -0.79547965D-04  0.19227968D-08
 -0.41241453D-08  0.96592999D-05  0.17819522D-04  0.28766234D-04  0.37445090D-04
  0.31951963D-04  0.11032245D-04  0.12598007D-04  0.58064099D-05 -0.16281780D-04
 -0.10100405D-04 -0.77443499D-05 -0.38649734D-05 -0.24924714D-05 -0.19110690D-05
 -0.95375736D-06  0.48907748D-08  0.37499359D-08  0.18714808D-08  0.11992535D-03
  0.62116415D-04 -0.54290712D-04 -0.61373429D-08  0.71843549D-06 -0.23567161D-04
 -0.21022413D-04 -0.58395890D-04  0.37678495D-09  0.13726178D-07 -0.24534567D-02
 -0.45261485D-02 -0.73066071D-02 -0.95110315D-02 -0.81157804D-02 -0.28021839D-02
  0.11931981D-03  0.54994393D-04 -0.15421002D-03 -0.16542794D-04 -0.12683965D-04
 -0.63301874D-05  0.17544530D-04  0.13452032D-04  0.67135070D-05  0.15453597D-08
  0.11848838D-08  0.59134005D-09 -0.17053993D-03 -0.50024227D-05  0.18165447D-03
  0.39763687D-09  0.14135917D-03  0.10285016D-03  0.53437740D-04 -0.18621070D-05
  0.10405502D-07  0.11413846D-07 -0.98818644D-02 -0.18230110D-01 -0.29429050D-01
 -0.38307879D-01 -0.32688183D-01 -0.11286444D-01  0.59227278D-03  0.27297798D-03
 -0.76545875D-03 -0.40336586D-03 -0.30927536D-03 -0.15435008D-03 -0.36933635D-03
 -0.28318368D-03 -0.14132851D-03 -0.12993173D-07 -0.99623407D-08 -0.49719062D-08
  0.14899690D-02  0.27642009D-03  0.36597770D-03  0.12732818D-07 -0.26222625D-03
 -0.22400321D-03 -0.17985081D-06 -0.30796841D-03 -0.28332002D-07 -0.25197639D-07
  0.53238245D+00  0.98214167D+00  0.15854812D+01  0.20638254D+01  0.17610660D+01
  0.60805376D+00 -0.19948343D-01 -0.91941731D-02  0.25781421D-01 -0.81762529D-03
 -0.62690321D-03 -0.31286864D-03 -0.22272858D-03 -0.17077415D-03 -0.85228269D-04
 -0.53616972D-07 -0.41110093D-07 -0.20516818D-07 -0.34240372D-02  0.51413971D-03
 -0.64978764D-04  0.25214480D-07 -0.10124159D-01 -0.10420885D-01 -0.10490947D-01
  0.16543778D-03  0.32796987D-07 -0.11840326D-07 -0.50761449D-06 -0.86101025D-06
 -0.98022974D-06  0.67868174D-04 -0.59427734D-05 -0.10080069D-04 -0.11475802D-04
 -0.25826016D-04  0.30191046D-05  0.55567642D-05  0.89918934D-05  0.11820096D-04
  0.10138027D-04  0.34663637D-05 -0.10869759D-04 -0.48500654D-05  0.14322308D-04
  0.42085710D-04  0.32424771D-04  0.14236221D-04 -0.75207448D-04 -0.57943284D-04
 -0.25440223D-04 -0.65368311D-08 -0.50362760D-08 -0.22111964D-08 -0.98727192D-05
 -0.24878311D-04  0.38026951D-04  0.39489749D-08 -0.81462710D-05  0.25514257D-04
  0.16843381D-04  0.32116431D-04  0.73868129D-08 -0.81163167D-09 -0.10623763D-04
 -0.18019912D-04 -0.20515033D-04  0.26041484D-04  0.92739535D-03  0.17108633D-02
  0.27618639D-02  0.35951262D-02  0.30677277D-02  0.10592126D-02  0.12747825D-04
  0.58754611D-05 -0.16475406D-04  0.42711087D-03  0.32748153D-03  0.16343623D-03
 -0.68785215D-04 -0.52740140D-04 -0.26321026D-04  0.59738179D-07  0.45803446D-07
  0.22859130D-07  0.33374545D-03 -0.20583014D-03 -0.17536898D-04 -0.39957902D-07
 -0.46014968D-03 -0.20159646D-03 -0.72155949D-04  0.30782174D-03 -0.14886171D-07
  0.13619374D-07 -0.25436539D-04 -0.43145185D-04 -0.49119268D-04  0.78461198D-04
 -0.25442086D-04 -0.43154593D-04 -0.49129979D-04  0.78503528D-04 -0.18363288D-04
 -0.31147612D-04 -0.35460455D-04 -0.54171117D-04
MO    6     MO 0.0        OCC NO =    1.0000000  ORB. ENERGY =  -10.430364
 -0.11752112D-03 -0.21680352D-03 -0.34998811D-03 -0.45558052D-03 -0.38874769D-03
 -0.13422523D-03 -0.33012964D-05 -0.15215645D-05  0.42666257D-05  0.13497648D-04
  0.10349141D-04  0.51649465D-05 -0.82430747D-04 -0.63202669D-04 -0.31542561D-04
 -0.15902472D-07 -0.12193007D-07 -0.60851651D-08 -0.19082360D-03  0.55268313D-04
  0.81981089D-04  0.39817211D-08  0.87359976D-04  0.38315550D-04  0.41628059D-04
  0.52895108D-04  0.63644239D-08 -0.11800490D-07 -0.76730630D-02 -0.14155303D-01
 -0.22851048D-01 -0.29745275D-01 -0.25381697D-01 -0.87636900D-02  0.41720229D-03
  0.19228815D-03 -0.53919605D-03  0.41877117D-04  0.32108717D-04  0.16024500D-04
  0.36584633D-03  0.28050776D-03  0.13999303D-03  0.17262510D-07  0.13235797D-07
  0.66055905D-08  0.92391867D-03 -0.85906708D-04 -0.29909066D-03  0.80115957D-08
 -0.83070773D-04 -0.39646064D-03 -0.63009415D-05 -0.83650843D-04 -0.61652343D-08
 -0.95981143D-07 -0.23752831D-02 -0.43819335D-02 -0.70737993D-02 -0.92079849D-02
 -0.78571902D-02 -0.27128990D-02  0.29449635D-03  0.13573310D-03 -0.38060978D-03
 -0.85646689D-03 -0.65668449D-03 -0.32773158D-03 -0.18926143D-03 -0.14511366D-03
 -0.72421888D-04  0.58476553D-07  0.44836112D-07  0.22376362D-07  0.12862259D-02
  0.51947272D-03  0.11711337D-03 -0.63264339D-08 -0.82534058D-03 -0.29056334D-03
 -0.93081444D-04 -0.25703391D-03  0.11802017D-06  0.19609693D-07  0.53239124D+00
  0.98215787D+00  0.15855073D+01  0.20638595D+01  0.17610950D+01  0.60806379D+00
 -0.19982387D-01 -0.92098641D-02  0.25825420D-01 -0.11210029D-02 -0.85951392D-03
 -0.42895768D-03 -0.21565188D-03 -0.16534818D-03 -0.82520332D-04  0.24477440D-06
  0.18767748D-06  0.93664217D-07 -0.35728681D-02  0.22395079D-03  0.36540120D-04
 -0.93861673D-07 -0.96765023D-02 -0.10459361D-01 -0.10669197D-01  0.37740782D-03
 -0.60731601D-07 -0.96584291D-08 -0.46011746D-02 -0.84882688D-02 -0.13702698D-01
 -0.17836841D-01 -0.15220209D-01 -0.52551723D-02  0.30876802D-03  0.14231090D-03
 -0.39905461D-03  0.20375464D-03  0.15622614D-03  0.77967792D-04 -0.29924000D-03
 -0.22943825D-03 -0.11450577D-03  0.14177879D-08  0.10870698D-08  0.54252404D-09
  0.96193604D-03 -0.17415396D-03  0.22239191D-03  0.21466062D-07 -0.22294828D-03