 Entering Link 1 = D:\Gaussian\G16W\l1.exe PID=     37868.
  
 Copyright (c) 1988,1990,1992,1993,1995,1998,2003,2009,2016,
            Gaussian, Inc.  All Rights Reserved.
  
 This is part of the Gaussian(R) 16 program.  It is based on
 the Gaussian(R) 09 system (copyright 2009, Gaussian, Inc.),
 the Gaussian(R) 03 system (copyright 2003, Gaussian, Inc.),
 the Gaussian(R) 98 system (copyright 1998, Gaussian, Inc.),
 the Gaussian(R) 94 system (copyright 1995, Gaussian, Inc.),
 the Gaussian 92(TM) system (copyright 1992, Gaussian, Inc.),
 the Gaussian 90(TM) system (copyright 1990, Gaussian, Inc.),
 the Gaussian 88(TM) system (copyright 1988, Gaussian, Inc.),
 the Gaussian 86(TM) system (copyright 1986, Carnegie Mellon
 University), and the Gaussian 82(TM) system (copyright 1983,
 Carnegie Mellon University). Gaussian is a federally registered
 trademark of Gaussian, Inc.
  
 This software contains proprietary and confidential information,
 including trade secrets, belonging to Gaussian, Inc.
  
 This software is provided under written license and may be
 used, copied, transmitted, or stored only in accord with that
 written license.
  
 The following legend is applicable only to US Government
 contracts under FAR:
  
                    RESTRICTED RIGHTS LEGEND
  
 Use, reproduction and disclosure by the US Government is
 subject to restrictions as set forth in subparagraphs (a)
 and (c) of the Commercial Computer Software - Restricted
 Rights clause in FAR 52.227-19.
  
 Gaussian, Inc.
 340 Quinnipiac St., Bldg. 40, Wallingford CT 06492
  
  
 ---------------------------------------------------------------
 Warning -- This program may not be used in any manner that
 competes with the business of Gaussian, Inc. or will provide
 assistance to any competitor of Gaussian, Inc.  The licensee
 of this program is prohibited from giving any competitor of
 Gaussian, Inc. access to this program.  By using this program,
 the user acknowledges that Gaussian, Inc. is engaged in the
 business of creating and licensing software in the field of
 computational chemistry and represents and warrants to the
 licensee that it is not a competitor of Gaussian, Inc. and that
 it will not use this program in any manner prohibited above.
 ---------------------------------------------------------------
  

 Cite this work as:
 Gaussian 16, Revision A.03,
 M. J. Frisch, G. W. Trucks, H. B. Schlegel, G. E. Scuseria, 
 M. A. Robb, J. R. Cheeseman, G. Scalmani, V. Barone, 
 G. A. Petersson, H. Nakatsuji, X. Li, M. Caricato, A. V. Marenich, 
 J. Bloino, B. G. Janesko, R. Gomperts, B. Mennucci, H. P. Hratchian, 
 J. V. Ortiz, A. F. Izmaylov, J. L. Sonnenberg, D. Williams-Young, 
 F. Ding, F. Lipparini, F. Egidi, J. Goings, B. Peng, A. Petrone, 
 T. Henderson, D. Ranasinghe, V. G. Zakrzewski, J. Gao, N. Rega, 
 G. Zheng, W. Liang, M. Hada, M. Ehara, K. Toyota, R. Fukuda, 
 J. Hasegawa, M. Ishida, T. Nakajima, Y. Honda, O. Kitao, H. Nakai, 
 T. Vreven, K. Throssell, J. A. Montgomery, Jr., J. E. Peralta, 
 F. Ogliaro, M. J. Bearpark, J. J. Heyd, E. N. Brothers, K. N. Kudin, 
 V. N. Staroverov, T. A. Keith, R. Kobayashi, J. Normand, 
 K. Raghavachari, A. P. Rendell, J. C. Burant, S. S. Iyengar, 
 J. Tomasi, M. Cossi, J. M. Millam, M. Klene, C. Adamo, R. Cammi, 
 J. W. Ochterski, R. L. Martin, K. Morokuma, O. Farkas, 
 J. B. Foresman, and D. J. Fox, Gaussian, Inc., Wallingford CT, 2016.
 
 ******************************************
 Gaussian 16:  EM64W-G16RevA.03 17-Dec-2016
                03-Dec-2025 
 ******************************************
 %nprocs=   4
 Will use up to    4 processors via shared memory.
 ------------------------------------
 #P B3LYP/6-31G* SCF=conver=7 out=wfn
 ------------------------------------
 1/38=1,172=1/1;
 2/12=2,17=6,18=5,40=1/2;
 3/5=1,6=6,7=1,11=2,25=1,30=1,74=-5/1,2,3;
 4//1;
 5/5=2,6=7,38=5/2;
 6/7=2,8=2,9=2,10=2,28=1/1;
 99/5=1,6=100,9=1/99;
 Leave Link    1 at Wed Dec 03 16:49:08 2025, MaxMem=           0 cpu:               0.0 elap:               0.1
 (Enter D:\Gaussian\G16W\l101.exe)
 ----------------------------------------------------
 Generated by Multiwfn (http://sobereva.com/multiwfn)
 ----------------------------------------------------
 Symbolic Z-matrix:
 Charge =  1 Multiplicity = 2
 C                     1.10905   1.24234   0.00003 
 C                    -0.24322   1.40022  -0.00001 
 C                    -2.11206  -0.23383   0. 
 C                    -0.81887   0.05827  -0.00007 
 C                     0.2877   -0.895    -0.00006 
 C                     1.44639  -0.17265  0. 
 H                     1.8315    2.04799   0.00006 
 H                    -0.81034   2.31824  -0.00006 
 O                    -3.23904  -0.48773   0.00005 
 H                     0.17931  -1.96918  -0.00001 
 C                     2.84244  -0.71899   0.00003 
 H                     3.40084  -0.38306  -0.88032 
 H                     3.40069  -0.3834    0.8806 
 H                     2.84175  -1.81088  -0.00018 
 
 ITRead=  0  0  0  0  0  0  0  0  0  0  0  0  0  0
 MicOpt= -1 -1 -1 -1 -1 -1 -1 -1 -1 -1 -1 -1 -1 -1
 NAtoms=     14 NQM=       14 NQMF=       0 NMMI=      0 NMMIF=      0
                NMic=       0 NMicF=      0.
                    Isotopes and Nuclear Properties:
 (Nuclear quadrupole moments (NQMom) in fm**2, nuclear magnetic moments (NMagM)
  in nuclear magnetons)

  Atom         1           2           3           4           5           6           7           8           9          10
 IAtWgt=          12          12          12          12          12          12           1           1          16           1
 AtmWgt=  12.0000000  12.0000000  12.0000000  12.0000000  12.0000000  12.0000000   1.0078250   1.0078250  15.9949146   1.0078250
 NucSpn=           0           0           0           0           0           0           1           1           0           1
 AtZEff=   0.0000000   0.0000000   0.0000000   0.0000000   0.0000000   0.0000000   0.0000000   0.0000000   0.0000000   0.0000000
 NQMom=    0.0000000   0.0000000   0.0000000   0.0000000   0.0000000   0.0000000   0.0000000   0.0000000   0.0000000   0.0000000
 NMagM=    0.0000000   0.0000000   0.0000000   0.0000000   0.0000000   0.0000000   2.7928460   2.7928460   0.0000000   2.7928460
 AtZNuc=   6.0000000   6.0000000   6.0000000   6.0000000   6.0000000   6.0000000   1.0000000   1.0000000   8.0000000   1.0000000

  Atom        11          12          13          14
 IAtWgt=          12           1           1           1
 AtmWgt=  12.0000000   1.0078250   1.0078250   1.0078250
 NucSpn=           0           1           1           1
 AtZEff=   0.0000000   0.0000000   0.0000000   0.0000000
 NQMom=    0.0000000   0.0000000   0.0000000   0.0000000
 NMagM=    0.0000000   2.7928460   2.7928460   2.7928460
 AtZNuc=   6.0000000   1.0000000   1.0000000   1.0000000
 Leave Link  101 at Wed Dec 03 16:49:08 2025, MaxMem=   104857600 cpu:               0.0 elap:               0.1
 (Enter D:\Gaussian\G16W\l202.exe)
                          Input orientation:                          
 ---------------------------------------------------------------------
 Center     Atomic      Atomic             Coordinates (Angstroms)
 Number     Number       Type             X           Y           Z
 ---------------------------------------------------------------------
      1          6           0        1.109046    1.242340    0.000028
      2          6           0       -0.243223    1.400217   -0.000012
      3          6           0       -2.112058   -0.233834    0.000004
      4          6           0       -0.818866    0.058274   -0.000072
      5          6           0        0.287700   -0.895000   -0.000058
      6          6           0        1.446387   -0.172648   -0.000002
      7          1           0        1.831499    2.047991    0.000062
      8          1           0       -0.810343    2.318236   -0.000059
      9          8           0       -3.239039   -0.487734    0.000051
     10          1           0        0.179312   -1.969185   -0.000007
     11          6           0        2.842442   -0.718989    0.000028
     12          1           0        3.400838   -0.383057   -0.880317
     13          1           0        3.400688   -0.383399    0.880598
     14          1           0        2.841745   -1.810880   -0.000184
 ---------------------------------------------------------------------
                    Distance matrix (angstroms):
                    1          2          3          4          5
     1  C    0.000000
     2  C    1.361454   0.000000
     3  C    3.543247   2.482472   0.000000
     4  C    2.262489   1.460197   1.325772   0.000000
     5  C    2.289723   2.355823   2.489172   1.460555   0.000000
     6  C    1.454644   2.308395   3.558971   2.276993   1.365411
     7  H    1.082133   2.173495   4.556135   3.314123   3.323328
     8  H    2.200365   1.079066   2.864878   2.259978   3.395671
     9  O    4.679637   3.541084   1.155228   2.481000   3.550177
    10  H    3.343396   3.395792   2.874338   2.259856   1.079639
    11  C    2.617532   3.743309   4.978197   3.742902   2.560798
    12  H    2.944356   4.151407   5.584734   4.333071   3.275450
    13  H    2.944496   4.151487   5.584638   4.333046   3.275360
    14  H    3.510612   4.452884   5.198773   4.110208   2.713297
                    6          7          8          9         10
     6  C    0.000000
     7  H    2.253785   0.000000
     8  H    3.361151   2.655628   0.000000
     9  O    4.696009   5.669238   3.711069   0.000000
    10  H    2.198414   4.343665   4.400159   3.725563   0.000000
    11  C    1.499152   2.945876   4.750534   6.085876   2.941981
    12  H    2.153858   3.024547   5.079949   6.698804   3.697158
    13  H    2.153872   3.024790   5.080076   6.698673   3.696951
    14  H    2.151936   3.988920   5.512472   6.223074   2.667135
                   11         12         13         14
    11  C    0.000000
    12  H    1.095292   0.000000
    13  H    1.095291   1.760915   0.000000
    14  H    1.091891   1.768021   1.768020   0.000000
 Stoichiometry    C7H6O(1+,2)
 Framework group  C1[X(C7H6O)]
 Deg. of freedom    36
 Full point group                 C1      NOp   1
 Largest Abelian subgroup         C1      NOp   1
 Largest concise Abelian subgroup C1      NOp   1
                         Standard orientation:                         
 ---------------------------------------------------------------------
 Center     Atomic      Atomic             Coordinates (Angstroms)
 Number     Number       Type             X           Y           Z
 ---------------------------------------------------------------------
      1          6           0        1.109046    1.242340    0.000028
      2          6           0       -0.243223    1.400217   -0.000012
      3          6           0       -2.112058   -0.233834    0.000004
      4          6           0       -0.818866    0.058274   -0.000072
      5          6           0        0.287700   -0.895000   -0.000058
      6          6           0        1.446387   -0.172648   -0.000002
      7          1           0        1.831499    2.047991    0.000062
      8          1           0       -0.810343    2.318236   -0.000059
      9          8           0       -3.239039   -0.487734    0.000051
     10          1           0        0.179312   -1.969185   -0.000007
     11          6           0        2.842442   -0.718989    0.000028
     12          1           0        3.400838   -0.383057   -0.880317
     13          1           0        3.400688   -0.383399    0.880598
     14          1           0        2.841745   -1.810880   -0.000184
 ---------------------------------------------------------------------
 Rotational constants (GHZ):           6.2147725           1.2508643           1.0480307
 Leave Link  202 at Wed Dec 03 16:49:08 2025, MaxMem=   104857600 cpu:               0.0 elap:               0.0
 (Enter D:\Gaussian\G16W\l301.exe)
 Standard basis: 6-31G(d) (6D, 7F)
 Ernie: Thresh=  0.10000D-02 Tol=  0.10000D-05 Strict=F.
 There are   132 symmetry adapted cartesian basis functions of A   symmetry.
 There are   132 symmetry adapted basis functions of A   symmetry.
   132 basis functions,   248 primitive gaussians,   132 cartesian basis functions
    28 alpha electrons       27 beta electrons
       nuclear repulsion energy       313.9010290375 Hartrees.
 IExCor=  402 DFT=T Ex+Corr=B3LYP ExCW=0 ScaHFX=  0.200000
 ScaDFX=  0.800000  0.720000  1.000000  0.810000 ScalE2=  1.000000  1.000000
 IRadAn=      5 IRanWt=     -1 IRanGd=            0 ICorTp=0 IEmpDi=  4
 NAtoms=   14 NActive=   14 NUniq=   14 SFac= 1.00D+00 NAtFMM=   60 NAOKFM=F Big=F
 Integral buffers will be    131072 words long.
 Raffenetti 2 integral format.
 Two-electron integral symmetry is turned on.
 Leave Link  301 at Wed Dec 03 16:49:08 2025, MaxMem=   104857600 cpu:               0.0 elap:               0.1
 (Enter D:\Gaussian\G16W\l302.exe)
 NPDir=0 NMtPBC=     1 NCelOv=     1 NCel=       1 NClECP=     1 NCelD=      1
         NCelK=      1 NCelE2=     1 NClLst=     1 CellRange=     0.0.
 One-electron integrals computed using PRISM.
 One-electron integral symmetry used in STVInt
 NBasis=   132 RedAO= T EigKep=  8.30D-04  NBF=   132
 NBsUse=   132 1.00D-06 EigRej= -1.00D+00 NBFU=   132
 Precomputing XC quadrature grid using
 IXCGrd= 4 IRadAn=           5 IRanWt=          -1 IRanGd=           0 AccXCQ= 0.00D+00.
 Generated NRdTot=       0 NPtTot=           0 NUsed=           0 NTot=          32
 NSgBfM=   132   132   132   132   132 MxSgAt=    14 MxSgA2=    14.
 Leave Link  302 at Wed Dec 03 16:49:08 2025, MaxMem=   104857600 cpu:               0.0 elap:               0.2
 (Enter D:\Gaussian\G16W\l303.exe)
 DipDrv:  MaxL=1.
 Leave Link  303 at Wed Dec 03 16:49:09 2025, MaxMem=   104857600 cpu:               1.0 elap:               0.1
 (Enter D:\Gaussian\G16W\l401.exe)
 ExpMin= 1.61D-01 ExpMax= 5.48D+03 ExpMxC= 8.25D+02 IAcc=3 IRadAn=         5 AccDes= 0.00D+00
 Harris functional with IExCor=  402 and IRadAn=       5 diagonalized for initial guess.
 HarFok:  IExCor=  402 AccDes= 0.00D+00 IRadAn=         5 IDoV= 1 UseB2=F ITyADJ=14
 ICtDFT=  3500011 ScaDFX=  1.000000  1.000000  1.000000  1.000000
 FoFCou: FMM=F IPFlag=           0 FMFlag=      100000 FMFlg1=           0
         NFxFlg=           0 DoJE=T BraDBF=F KetDBF=T FulRan=T
         wScrn=  0.000000 ICntrl=       500 IOpCl=  0 I1Cent=   200000004 NGrid=           0
         NMat0=    1 NMatS0=      1 NMatT0=    0 NMatD0=    1 NMtDS0=    0 NMtDT0=    0
 Petite list used in FoFCou.
 Harris En= -345.269310333789    
 JPrj=0 DoOrth=F DoCkMO=F.
 Initial guess <Sx>= 0.0000 <Sy>= 0.0000 <Sz>= 0.5000 <S**2>= 0.7500 S= 0.5000
 Leave Link  401 at Wed Dec 03 16:49:09 2025, MaxMem=   104857600 cpu:               0.0 elap:               0.6
 (Enter D:\Gaussian\G16W\l502.exe)
 Keep R1 and R2 ints in memory in canonical form, NReq=80897120.
 FoFCou: FMM=F IPFlag=           0 FMFlag=           0 FMFlg1=           0
         NFxFlg=           0 DoJE=F BraDBF=F KetDBF=F FulRan=T
         wScrn=  0.000000 ICntrl=       600 IOpCl=  0 I1Cent=           0 NGrid=           0
         NMat0=    1 NMatS0=   8778 NMatT0=    0 NMatD0=    1 NMtDS0=    0 NMtDT0=    0
 Symmetry not used in FoFCou.
 Two-electron integral symmetry not used.
 UHF open shell SCF:
 Using DIIS extrapolation, IDIIS=  1040.
 NGot=   104857600 LenX=    27758324 LenY=    27740459
 Requested convergence on RMS density matrix=1.00D-07 within 128 cycles.
 Requested convergence on MAX density matrix=1.00D-05.
 Requested convergence on             energy=1.00D-05.
 No special actions if energy rises.
 Integral accuracy reduced to 1.0D-05 until final iterations.

 Cycle   1  Pass 0  IDiag  1:
 E= -345.053721166932    
 DIIS: error= 3.27D-02 at cycle   1 NSaved=   1.
 NSaved= 1 IEnMin= 1 EnMin= -345.053721166932     IErMin= 1 ErrMin= 3.27D-02
 ErrMax= 3.27D-02  0.00D+00 EMaxC= 1.00D-01 BMatC= 6.56D-01 BMatP= 6.56D-01
 IDIUse=3 WtCom= 6.73D-01 WtEn= 3.27D-01
 Coeff-Com:  0.100D+01
 Coeff-En:   0.100D+01
 Coeff:      0.100D+01
 Gap=     0.184 Goal=   None    Shift=    0.000
 Gap=     0.000 Goal=   None    Shift=    0.000
 GapD=    0.000 DampG=0.250 DampE=0.500 DampFc=0.2500 IDamp=-1.
 Damping current iteration by 2.50D-01
 RMSDP=8.84D-03 MaxDP=2.35D-01              OVMax= 7.19D-01

 Cycle   2  Pass 0  IDiag  1:
 E= -345.111061381421     Delta-E=       -0.057340214489 Rises=F Damp=T
 DIIS: error= 1.42D-02 at cycle   2 NSaved=   2.
 NSaved= 2 IEnMin= 2 EnMin= -345.111061381421     IErMin= 2 ErrMin= 1.42D-02
 ErrMax= 1.42D-02  0.00D+00 EMaxC= 1.00D-01 BMatC= 1.33D-01 BMatP= 6.56D-01
 IDIUse=3 WtCom= 8.58D-01 WtEn= 1.42D-01
 Coeff-Com: -0.458D+00 0.146D+01
 Coeff-En:   0.000D+00 0.100D+01
 Coeff:     -0.393D+00 0.139D+01
 Gap=     0.216 Goal=   None    Shift=    0.000
 Gap=     0.174 Goal=   None    Shift=    0.000
 RMSDP=3.53D-03 MaxDP=5.11D-02 DE=-5.73D-02 OVMax= 7.19D-01

 Cycle   3  Pass 0  IDiag  1:
 E= -345.198230723635     Delta-E=       -0.087169342215 Rises=F Damp=F
 DIIS: error= 1.63D-02 at cycle   3 NSaved=   3.
 NSaved= 3 IEnMin= 3 EnMin= -345.198230723635     IErMin= 2 ErrMin= 1.42D-02
 ErrMax= 1.63D-02  0.00D+00 EMaxC= 1.00D-01 BMatC= 1.08D-01 BMatP= 1.33D-01
 IDIUse=3 WtCom= 8.37D-01 WtEn= 1.63D-01
 Coeff-Com: -0.329D+00 0.872D+00 0.458D+00
 Coeff-En:   0.000D+00 0.000D+00 0.100D+01
 Coeff:     -0.276D+00 0.729D+00 0.546D+00
 Gap=     0.197 Goal=   None    Shift=    0.000
 Gap=     0.042 Goal=   None    Shift=    0.000
 RMSDP=2.41D-03 MaxDP=7.07D-02 DE=-8.72D-02 OVMax= 2.78D-01

 Cycle   4  Pass 0  IDiag  1:
 E= -345.219389602545     Delta-E=       -0.021158878910 Rises=F Damp=F
 DIIS: error= 1.32D-02 at cycle   4 NSaved=   4.
 NSaved= 4 IEnMin= 4 EnMin= -345.219389602545     IErMin= 4 ErrMin= 1.32D-02
 ErrMax= 1.32D-02  0.00D+00 EMaxC= 1.00D-01 BMatC= 6.22D-02 BMatP= 1.08D-01
 IDIUse=3 WtCom= 8.68D-01 WtEn= 1.32D-01
 Coeff-Com: -0.148D+00 0.359D+00 0.398D+00 0.391D+00
 Coeff-En:   0.000D+00 0.000D+00 0.311D+00 0.689D+00
 Coeff:     -0.128D+00 0.312D+00 0.387D+00 0.430D+00
 Gap=     0.186 Goal=   None    Shift=    0.000
 Gap=     0.051 Goal=   None    Shift=    0.000
 RMSDP=9.86D-04 MaxDP=3.41D-02 DE=-2.12D-02 OVMax= 6.47D-02

 Cycle   5  Pass 0  IDiag  1:
 E= -345.232892247390     Delta-E=       -0.013502644845 Rises=F Damp=F
 DIIS: error= 4.59D-03 at cycle   5 NSaved=   5.
 NSaved= 5 IEnMin= 5 EnMin= -345.232892247390     IErMin= 5 ErrMin= 4.59D-03
 ErrMax= 4.59D-03  0.00D+00 EMaxC= 1.00D-01 BMatC= 6.31D-03 BMatP= 6.22D-02
 IDIUse=3 WtCom= 9.54D-01 WtEn= 4.59D-02
 Coeff-Com: -0.440D-02 0.177D-01 0.152D+00 0.279D+00 0.556D+00
 Coeff-En:   0.000D+00 0.000D+00 0.000D+00 0.496D-01 0.950D+00
 Coeff:     -0.420D-02 0.169D-01 0.145D+00 0.268D+00 0.575D+00
 Gap=     0.185 Goal=   None    Shift=    0.000
 Gap=     0.060 Goal=   None    Shift=    0.000
 RMSDP=4.82D-04 MaxDP=1.53D-02 DE=-1.35D-02 OVMax= 7.33D-02

 Cycle   6  Pass 0  IDiag  1:
 E= -345.234909799206     Delta-E=       -0.002017551816 Rises=F Damp=F
 DIIS: error= 1.99D-03 at cycle   6 NSaved=   6.
 NSaved= 6 IEnMin= 6 EnMin= -345.234909799206     IErMin= 6 ErrMin= 1.99D-03
 ErrMax= 1.99D-03  0.00D+00 EMaxC= 1.00D-01 BMatC= 1.74D-03 BMatP= 6.31D-03
 IDIUse=3 WtCom= 9.80D-01 WtEn= 1.99D-02
 Coeff-Com:  0.164D-01-0.229D-01 0.463D-01 0.577D-01 0.331D+00 0.572D+00
 Coeff-En:   0.000D+00 0.000D+00 0.000D+00 0.000D+00 0.000D+00 0.100D+01
 Coeff:      0.161D-01-0.225D-01 0.454D-01 0.566D-01 0.324D+00 0.580D+00
 Gap=     0.189 Goal=   None    Shift=    0.000
 Gap=     0.063 Goal=   None    Shift=    0.000
 RMSDP=2.61D-04 MaxDP=9.10D-03 DE=-2.02D-03 OVMax= 4.39D-02

 Cycle   7  Pass 0  IDiag  1:
 E= -345.235782803287     Delta-E=       -0.000873004081 Rises=F Damp=F
 DIIS: error= 1.34D-03 at cycle   7 NSaved=   7.
 NSaved= 7 IEnMin= 7 EnMin= -345.235782803287     IErMin= 7 ErrMin= 1.34D-03
 ErrMax= 1.34D-03  0.00D+00 EMaxC= 1.00D-01 BMatC= 6.43D-04 BMatP= 1.74D-03
 IDIUse=3 WtCom= 9.87D-01 WtEn= 1.34D-02
 Coeff-Com:  0.318D-01-0.470D-01-0.149D-01-0.818D-01 0.629D-02 0.282D+00
 Coeff-Com:  0.823D+00
 Coeff-En:   0.000D+00 0.000D+00 0.000D+00 0.000D+00 0.000D+00 0.000D+00
 Coeff-En:   0.100D+01
 Coeff:      0.313D-01-0.464D-01-0.147D-01-0.807D-01 0.621D-02 0.279D+00
 Coeff:      0.826D+00
 Gap=     0.190 Goal=   None    Shift=    0.000
 Gap=     0.066 Goal=   None    Shift=    0.000
 RMSDP=3.56D-04 MaxDP=1.10D-02 DE=-8.73D-04 OVMax= 6.89D-02

 Cycle   8  Pass 0  IDiag  1:
 E= -345.236623659261     Delta-E=       -0.000840855974 Rises=F Damp=F
 DIIS: error= 9.21D-04 at cycle   8 NSaved=   8.
 NSaved= 8 IEnMin= 8 EnMin= -345.236623659261     IErMin= 8 ErrMin= 9.21D-04
 ErrMax= 9.21D-04  0.00D+00 EMaxC= 1.00D-01 BMatC= 4.22D-04 BMatP= 6.43D-04
 IDIUse=3 WtCom= 9.91D-01 WtEn= 9.21D-03
 Coeff-Com:  0.214D-01-0.240D-01-0.841D-02-0.789D-01-0.161D+00-0.175D+00
 Coeff-Com:  0.660D+00 0.766D+00
 Coeff-En:   0.000D+00 0.000D+00 0.000D+00 0.000D+00 0.000D+00 0.000D+00
 Coeff-En:   0.000D+00 0.100D+01
 Coeff:      0.212D-01-0.238D-01-0.834D-02-0.782D-01-0.160D+00-0.174D+00
 Coeff:      0.654D+00 0.769D+00
 Gap=     0.188 Goal=   None    Shift=    0.000
 Gap=     0.069 Goal=   None    Shift=    0.000
 RMSDP=3.37D-04 MaxDP=8.53D-03 DE=-8.41D-04 OVMax= 6.25D-02

 Cycle   9  Pass 0  IDiag  1:
 E= -345.237263823298     Delta-E=       -0.000640164037 Rises=F Damp=F
 DIIS: error= 8.21D-04 at cycle   9 NSaved=   9.
 NSaved= 9 IEnMin= 9 EnMin= -345.237263823298     IErMin= 9 ErrMin= 8.21D-04
 ErrMax= 8.21D-04  0.00D+00 EMaxC= 1.00D-01 BMatC= 1.10D-04 BMatP= 4.22D-04
 IDIUse=3 WtCom= 9.92D-01 WtEn= 8.21D-03
 Coeff-Com: -0.200D-03 0.515D-02 0.310D-01 0.565D-01-0.234D-02-0.208D+00
 Coeff-Com: -0.260D+00-0.887D-01 0.147D+01
 Coeff-En:   0.000D+00 0.000D+00 0.000D+00 0.000D+00 0.000D+00 0.000D+00
 Coeff-En:   0.000D+00 0.000D+00 0.100D+01
 Coeff:     -0.199D-03 0.511D-02 0.308D-01 0.561D-01-0.232D-02-0.206D+00
 Coeff:     -0.258D+00-0.880D-01 0.146D+01
 Gap=     0.186 Goal=   None    Shift=    0.000
 Gap=     0.071 Goal=   None    Shift=    0.000
 RMSDP=3.86D-04 MaxDP=1.09D-02 DE=-6.40D-04 OVMax= 7.62D-02

 Cycle  10  Pass 0  IDiag  1:
 E= -345.237691515217     Delta-E=       -0.000427691920 Rises=F Damp=F
 DIIS: error= 4.14D-04 at cycle  10 NSaved=  10.
 NSaved=10 IEnMin=10 EnMin= -345.237691515217     IErMin=10 ErrMin= 4.14D-04
 ErrMax= 4.14D-04  0.00D+00 EMaxC= 1.00D-01 BMatC= 7.91D-05 BMatP= 1.10D-04
 IDIUse=3 WtCom= 9.96D-01 WtEn= 4.14D-03
 Coeff-Com: -0.247D-02 0.422D-02 0.211D-01 0.535D-01 0.578D-01-0.363D-01
 Coeff-Com: -0.269D+00-0.512D+00 0.948D+00 0.735D+00
 Coeff-En:   0.000D+00 0.000D+00 0.000D+00 0.000D+00 0.000D+00 0.000D+00
 Coeff-En:   0.000D+00 0.000D+00 0.000D+00 0.100D+01
 Coeff:     -0.246D-02 0.420D-02 0.210D-01 0.533D-01 0.575D-01-0.361D-01
 Coeff:     -0.268D+00-0.509D+00 0.944D+00 0.736D+00
 Gap=     0.185 Goal=   None    Shift=    0.000
 Gap=     0.072 Goal=   None    Shift=    0.000
 RMSDP=1.79D-04 MaxDP=4.50D-03 DE=-4.28D-04 OVMax= 3.31D-02

 Cycle  11  Pass 0  IDiag  1:
 E= -345.237810186496     Delta-E=       -0.000118671279 Rises=F Damp=F
 DIIS: error= 2.60D-04 at cycle  11 NSaved=  11.
 NSaved=11 IEnMin=11 EnMin= -345.237810186496     IErMin=11 ErrMin= 2.60D-04
 ErrMax= 2.60D-04  0.00D+00 EMaxC= 1.00D-01 BMatC= 2.01D-05 BMatP= 7.91D-05
 IDIUse=3 WtCom= 9.97D-01 WtEn= 2.60D-03
 Coeff-Com:  0.664D-03-0.261D-02 0.984D-03 0.470D-02 0.554D-01 0.109D+00
 Coeff-Com:  0.330D-01-0.398D+00-0.466D-01 0.140D+00 0.110D+01
 Coeff-En:   0.000D+00 0.000D+00 0.000D+00 0.000D+00 0.000D+00 0.000D+00
 Coeff-En:   0.000D+00 0.000D+00 0.000D+00 0.000D+00 0.100D+01
 Coeff:      0.662D-03-0.261D-02 0.981D-03 0.469D-02 0.552D-01 0.109D+00
 Coeff:      0.329D-01-0.397D+00-0.464D-01 0.140D+00 0.110D+01
 Gap=     0.185 Goal=   None    Shift=    0.000
 Gap=     0.071 Goal=   None    Shift=    0.000
 RMSDP=1.14D-04 MaxDP=3.53D-03 DE=-1.19D-04 OVMax= 2.15D-02

 Cycle  12  Pass 0  IDiag  1:
 E= -345.237853242818     Delta-E=       -0.000043056322 Rises=F Damp=F
 DIIS: error= 1.64D-04 at cycle  12 NSaved=  12.
 NSaved=12 IEnMin=12 EnMin= -345.237853242818     IErMin=12 ErrMin= 1.64D-04
 ErrMax= 1.64D-04  0.00D+00 EMaxC= 1.00D-01 BMatC= 1.40D-05 BMatP= 2.01D-05
 IDIUse=3 WtCom= 9.98D-01 WtEn= 1.64D-03
 Coeff-Com:  0.324D-02-0.433D-02-0.420D-02-0.152D-01-0.230D-01-0.203D-01
 Coeff-Com:  0.833D-01 0.673D-01-0.117D+00-0.571D+00 0.325D+00 0.128D+01
 Coeff-En:   0.000D+00 0.000D+00 0.000D+00 0.000D+00 0.000D+00 0.000D+00
 Coeff-En:   0.000D+00 0.000D+00 0.000D+00 0.000D+00 0.000D+00 0.100D+01
 Coeff:      0.323D-02-0.432D-02-0.420D-02-0.152D-01-0.230D-01-0.203D-01
 Coeff:      0.831D-01 0.672D-01-0.116D+00-0.570D+00 0.325D+00 0.128D+01
 Gap=     0.185 Goal=   None    Shift=    0.000
 Gap=     0.072 Goal=   None    Shift=    0.000
 RMSDP=1.40D-04 MaxDP=3.74D-03 DE=-4.31D-05 OVMax= 2.59D-02

 Cycle  13  Pass 0  IDiag  1:
 E= -345.237874350486     Delta-E=       -0.000021107668 Rises=F Damp=F
 DIIS: error= 8.67D-05 at cycle  13 NSaved=  13.
 NSaved=13 IEnMin=13 EnMin= -345.237874350486     IErMin=13 ErrMin= 8.67D-05
 ErrMax= 8.67D-05  0.00D+00 EMaxC= 1.00D-01 BMatC= 4.96D-06 BMatP= 1.40D-05
 IDIUse=1 WtCom= 1.00D+00 WtEn= 0.00D+00
 Coeff-Com:  0.161D-02-0.196D-02-0.181D-02-0.809D-02-0.810D-02 0.525D-02
 Coeff-Com:  0.656D-01 0.537D-01-0.126D+00-0.382D+00 0.164D+00 0.812D+00
 Coeff-Com:  0.426D+00
 Coeff:      0.161D-02-0.196D-02-0.181D-02-0.809D-02-0.810D-02 0.525D-02
 Coeff:      0.656D-01 0.537D-01-0.126D+00-0.382D+00 0.164D+00 0.812D+00
 Coeff:      0.426D+00
 Gap=     0.185 Goal=   None    Shift=    0.000
 Gap=     0.072 Goal=   None    Shift=    0.000
 RMSDP=1.74D-05 MaxDP=6.16D-04 DE=-2.11D-05 OVMax= 2.02D-03

 Cycle  14  Pass 0  IDiag  1:
 E= -345.237875877110     Delta-E=       -0.000001526624 Rises=F Damp=F
 DIIS: error= 2.78D-05 at cycle  14 NSaved=  14.
 NSaved=14 IEnMin=14 EnMin= -345.237875877110     IErMin=14 ErrMin= 2.78D-05
 ErrMax= 2.78D-05  0.00D+00 EMaxC= 1.00D-01 BMatC= 4.81D-07 BMatP= 4.96D-06
 IDIUse=1 WtCom= 1.00D+00 WtEn= 0.00D+00
 Coeff-Com: -0.368D-04 0.240D-03 0.177D-03 0.690D-03-0.617D-02-0.112D-01
 Coeff-Com: -0.250D-02 0.376D-01 0.144D-01-0.114D-01-0.119D+00-0.269D-01
 Coeff-Com:  0.251D+00 0.873D+00
 Coeff:     -0.368D-04 0.240D-03 0.177D-03 0.690D-03-0.617D-02-0.112D-01
 Coeff:     -0.250D-02 0.376D-01 0.144D-01-0.114D-01-0.119D+00-0.269D-01
 Coeff:      0.251D+00 0.873D+00
 Gap=     0.185 Goal=   None    Shift=    0.000
 Gap=     0.072 Goal=   None    Shift=    0.000
 RMSDP=1.74D-05 MaxDP=4.95D-04 DE=-1.53D-06 OVMax= 3.25D-03

 Cycle  15  Pass 0  IDiag  1:
 E= -345.237876329960     Delta-E=       -0.000000452851 Rises=F Damp=F
 DIIS: error= 7.55D-06 at cycle  15 NSaved=  15.
 NSaved=15 IEnMin=15 EnMin= -345.237876329960     IErMin=15 ErrMin= 7.55D-06
 ErrMax= 7.55D-06  0.00D+00 EMaxC= 1.00D-01 BMatC= 2.37D-08 BMatP= 4.81D-07
 IDIUse=1 WtCom= 1.00D+00 WtEn= 0.00D+00
 Coeff-Com: -0.191D-03 0.272D-03 0.259D-03 0.878D-03 0.321D-03-0.141D-02
 Coeff-Com: -0.536D-02 0.101D-02 0.821D-02 0.378D-01-0.373D-01-0.761D-01
 Coeff-Com: -0.653D-02 0.178D+00 0.900D+00
 Coeff:     -0.191D-03 0.272D-03 0.259D-03 0.878D-03 0.321D-03-0.141D-02
 Coeff:     -0.536D-02 0.101D-02 0.821D-02 0.378D-01-0.373D-01-0.761D-01
 Coeff:     -0.653D-02 0.178D+00 0.900D+00
 Gap=     0.185 Goal=   None    Shift=    0.000
 Gap=     0.072 Goal=   None    Shift=    0.000
 RMSDP=1.50D-06 MaxDP=8.14D-05 DE=-4.53D-07 OVMax= 1.47D-04

 Initial convergence to 1.0D-05 achieved.  Increase integral accuracy.
 Cycle  16  Pass 1  IDiag  1:
 E= -345.237879582388     Delta-E=       -0.000003252428 Rises=F Damp=F
 DIIS: error= 4.24D-06 at cycle   1 NSaved=   1.
 NSaved= 1 IEnMin= 1 EnMin= -345.237879582388     IErMin= 1 ErrMin= 4.24D-06
 ErrMax= 4.24D-06  0.00D+00 EMaxC= 1.00D-01 BMatC= 1.30D-08 BMatP= 1.30D-08
 IDIUse=1 WtCom= 1.00D+00 WtEn= 0.00D+00
 Coeff-Com:  0.100D+01
 Coeff:      0.100D+01
 Gap=     0.185 Goal=   None    Shift=    0.000
 Gap=     0.072 Goal=   None    Shift=    0.000
 RMSDP=1.50D-06 MaxDP=8.14D-05 DE=-3.25D-06 OVMax= 8.71D-05

 Cycle  17  Pass 1  IDiag  1:
 E= -345.237879581480     Delta-E=        0.000000000908 Rises=F Damp=F
 DIIS: error= 5.99D-06 at cycle   2 NSaved=   2.
 NSaved= 2 IEnMin= 1 EnMin= -345.237879582388     IErMin= 1 ErrMin= 4.24D-06
 ErrMax= 5.99D-06  0.00D+00 EMaxC= 1.00D-01 BMatC= 2.32D-08 BMatP= 1.30D-08
 IDIUse=1 WtCom= 1.00D+00 WtEn= 0.00D+00
 Coeff-Com:  0.582D+00 0.418D+00
 Coeff:      0.582D+00 0.418D+00
 Gap=     0.185 Goal=   None    Shift=    0.000
 Gap=     0.072 Goal=   None    Shift=    0.000
 RMSDP=6.94D-07 MaxDP=2.16D-05 DE= 9.08D-10 OVMax= 4.25D-05

 Cycle  18  Pass 1  IDiag  1:
 E= -345.237879587225     Delta-E=       -0.000000005745 Rises=F Damp=F
 DIIS: error= 1.93D-06 at cycle   3 NSaved=   3.
 NSaved= 3 IEnMin= 3 EnMin= -345.237879587225     IErMin= 3 ErrMin= 1.93D-06
 ErrMax= 1.93D-06  0.00D+00 EMaxC= 1.00D-01 BMatC= 1.61D-09 BMatP= 1.30D-08
 IDIUse=1 WtCom= 1.00D+00 WtEn= 0.00D+00
 Coeff-Com:  0.156D+00 0.209D+00 0.635D+00
 Coeff:      0.156D+00 0.209D+00 0.635D+00
 Gap=     0.185 Goal=   None    Shift=    0.000
 Gap=     0.072 Goal=   None    Shift=    0.000
 RMSDP=2.49D-07 MaxDP=7.95D-06 DE=-5.74D-09 OVMax= 1.75D-05

 Cycle  19  Pass 1  IDiag  1:
 E= -345.237879587566     Delta-E=       -0.000000000342 Rises=F Damp=F
 DIIS: error= 1.43D-06 at cycle   4 NSaved=   4.
 NSaved= 4 IEnMin= 4 EnMin= -345.237879587566     IErMin= 4 ErrMin= 1.43D-06
 ErrMax= 1.43D-06  0.00D+00 EMaxC= 1.00D-01 BMatC= 1.05D-09 BMatP= 1.61D-09
 IDIUse=1 WtCom= 1.00D+00 WtEn= 0.00D+00
 Coeff-Com: -0.729D-01 0.286D-01 0.502D+00 0.543D+00
 Coeff:     -0.729D-01 0.286D-01 0.502D+00 0.543D+00
 Gap=     0.185 Goal=   None    Shift=    0.000
 Gap=     0.072 Goal=   None    Shift=    0.000
 RMSDP=1.47D-07 MaxDP=5.31D-06 DE=-3.42D-10 OVMax= 1.29D-05

 Cycle  20  Pass 1  IDiag  1:
 E= -345.237879587907     Delta-E=       -0.000000000340 Rises=F Damp=F
 DIIS: error= 4.75D-07 at cycle   5 NSaved=   5.
 NSaved= 5 IEnMin= 5 EnMin= -345.237879587907     IErMin= 5 ErrMin= 4.75D-07
 ErrMax= 4.75D-07  0.00D+00 EMaxC= 1.00D-01 BMatC= 1.11D-10 BMatP= 1.05D-09
 IDIUse=1 WtCom= 1.00D+00 WtEn= 0.00D+00
 Coeff-Com: -0.610D-01-0.976D-02 0.166D+00 0.284D+00 0.620D+00
 Coeff:     -0.610D-01-0.976D-02 0.166D+00 0.284D+00 0.620D+00
 Gap=     0.185 Goal=   None    Shift=    0.000
 Gap=     0.072 Goal=   None    Shift=    0.000
 RMSDP=7.15D-08 MaxDP=2.40D-06 DE=-3.40D-10 OVMax= 6.26D-06

 SCF Done:  E(UB3LYP) =  -345.237879588     A.U. after   20 cycles
            NFock= 20  Conv=0.71D-07     -V/T= 2.0092
 <Sx>= 0.0000 <Sy>= 0.0000 <Sz>= 0.5000 <S**2>= 0.7619 S= 0.5060
 <L.S>= 0.000000000000E+00
 KE= 3.420756064278D+02 PE=-1.418284951330D+03 EE= 4.170704362771D+02
 Annihilation of the first spin contaminant:
 S**2 before annihilation     0.7619,   after     0.7501
 Leave Link  502 at Wed Dec 03 16:49:30 2025, MaxMem=   104857600 cpu:              21.0 elap:              20.8
 (Enter D:\Gaussian\G16W\l601.exe)
 Copying SCF densities to generalized density rwf, IOpCl= 1 IROHF=0.

 **********************************************************************

            Population analysis using the SCF density.

 **********************************************************************

 Orbital symmetries:
 Alpha Orbitals:
       Occupied  (A) (A) (A) (A) (A) (A) (A) (A) (A) (A) (A) (A)
                 (A) (A) (A) (A) (A) (A) (A) (A) (A) (A) (A) (A)
                 (A) (A) (A) (A)
       Virtual   (A) (A) (A) (A) (A) (A) (A) (A) (A) (A) (A) (A)
                 (A) (A) (A) (A) (A) (A) (A) (A) (A) (A) (A) (A)
                 (A) (A) (A) (A) (A) (A) (A) (A) (A) (A) (A) (A)
                 (A) (A) (A) (A) (A) (A) (A) (A) (A) (A) (A) (A)
                 (A) (A) (A) (A) (A) (A) (A) (A) (A) (A) (A) (A)
                 (A) (A) (A) (A) (A) (A) (A) (A) (A) (A) (A) (A)
                 (A) (A) (A) (A) (A) (A) (A) (A) (A) (A) (A) (A)
                 (A) (A) (A) (A) (A) (A) (A) (A) (A) (A) (A) (A)
                 (A) (A) (A) (A) (A) (A) (A) (A)
 Beta  Orbitals:
       Occupied  (A) (A) (A) (A) (A) (A) (A) (A) (A) (A) (A) (A)
                 (A) (A) (A) (A) (A) (A) (A) (A) (A) (A) (A) (A)
                 (A) (A) (A)
       Virtual   (A) (A) (A) (A) (A) (A) (A) (A) (A) (A) (A) (A)
                 (A) (A) (A) (A) (A) (A) (A) (A) (A) (A) (A) (A)
                 (A) (A) (A) (A) (A) (A) (A) (A) (A) (A) (A) (A)
                 (A) (A) (A) (A) (A) (A) (A) (A) (A) (A) (A) (A)
                 (A) (A) (A) (A) (A) (A) (A) (A) (A) (A) (A) (A)
                 (A) (A) (A) (A) (A) (A) (A) (A) (A) (A) (A) (A)
                 (A) (A) (A) (A) (A) (A) (A) (A) (A) (A) (A) (A)
                 (A) (A) (A) (A) (A) (A) (A) (A) (A) (A) (A) (A)
                 (A) (A) (A) (A) (A) (A) (A) (A) (A)
 The electronic state is 2-A.
 Alpha  occ. eigenvalues --  -19.44444 -10.53899 -10.45092 -10.44252 -10.43179
 Alpha  occ. eigenvalues --  -10.43036 -10.39950 -10.36001  -1.33797  -1.11280
 Alpha  occ. eigenvalues --   -0.99335  -0.95833  -0.89594  -0.81269  -0.76078
 Alpha  occ. eigenvalues --   -0.74411  -0.71456  -0.66776  -0.66079  -0.64820
 Alpha  occ. eigenvalues --   -0.62192  -0.61777  -0.59863  -0.57674  -0.56740
 Alpha  occ. eigenvalues --   -0.55031  -0.46790  -0.44108
 Alpha virt. eigenvalues --   -0.25628  -0.25085  -0.14864  -0.08942  -0.07658
 Alpha virt. eigenvalues --   -0.04838  -0.03191  -0.02427  -0.00342  -0.00043
 Alpha virt. eigenvalues --    0.02614   0.04504   0.06673   0.07976   0.14982
 Alpha virt. eigenvalues --    0.18464   0.21798   0.25466   0.28437   0.32204
 Alpha virt. eigenvalues --    0.32726   0.33931   0.35062   0.35977   0.36669
 Alpha virt. eigenvalues --    0.39308   0.41717   0.43776   0.45991   0.49977
 Alpha virt. eigenvalues --    0.50182   0.51597   0.55380   0.56937   0.58634
 Alpha virt. eigenvalues --    0.61673   0.63636   0.65385   0.68981   0.71023
 Alpha virt. eigenvalues --    0.72624   0.75717   0.76741   0.79080   0.81167
 Alpha virt. eigenvalues --    0.82991   0.86355   0.90176   0.95963   0.98970
 Alpha virt. eigenvalues --    1.01114   1.09595   1.10736   1.11343   1.13112
 Alpha virt. eigenvalues --    1.19803   1.25613   1.26430   1.28887   1.29365
 Alpha virt. eigenvalues --    1.30176   1.32739   1.48480   1.53968   1.56090
 Alpha virt. eigenvalues --    1.59510   1.65756   1.66211   1.70882   1.71489
 Alpha virt. eigenvalues --    1.74164   1.74902   1.78902   1.79578   1.89805
 Alpha virt. eigenvalues --    1.91492   1.94162   1.96806   2.01412   2.03688
 Alpha virt. eigenvalues --    2.06266   2.15525   2.17170   2.23071   2.27524
 Alpha virt. eigenvalues --    2.28885   2.40069   2.50171   2.51314   2.61505
 Alpha virt. eigenvalues --    2.68693   2.69309   2.76833   2.82428   3.01148
 Alpha virt. eigenvalues --    3.10385   3.84013   3.89873   3.90532   3.98638
 Alpha virt. eigenvalues --    4.07104   4.30754   4.35127   4.59408
  Beta  occ. eigenvalues --  -19.44462 -10.53894 -10.44388 -10.43633 -10.43116
  Beta  occ. eigenvalues --  -10.42906 -10.39993 -10.36005  -1.33825  -1.10167
  Beta  occ. eigenvalues --   -0.98991  -0.94362  -0.88951  -0.80777  -0.75457
  Beta  occ. eigenvalues --   -0.73859  -0.71394  -0.66561  -0.65966  -0.64459
  Beta  occ. eigenvalues --   -0.61781  -0.59941  -0.59694  -0.57403  -0.54930
  Beta  occ. eigenvalues --   -0.54887  -0.43848
  Beta virt. eigenvalues --   -0.36683  -0.24900  -0.23224  -0.12342  -0.07473
  Beta virt. eigenvalues --   -0.07423  -0.04684  -0.02892  -0.02212  -0.00233
  Beta virt. eigenvalues --    0.00303   0.02914   0.04895   0.06894   0.08449
  Beta virt. eigenvalues --    0.15240   0.18610   0.22217   0.26256   0.29575
  Beta virt. eigenvalues --    0.32384   0.33434   0.35020   0.35826   0.36528
  Beta virt. eigenvalues --    0.38273   0.39702   0.42112   0.45061   0.47199
  Beta virt. eigenvalues --    0.50447   0.51219   0.51933   0.55524   0.57497
  Beta virt. eigenvalues --    0.58791   0.62130   0.64035   0.65535   0.69126
  Beta virt. eigenvalues --    0.71341   0.72843   0.75863   0.77505   0.79288
  Beta virt. eigenvalues --    0.81251   0.83114   0.86406   0.90663   0.96370
  Beta virt. eigenvalues --    0.99223   1.01488   1.10063   1.11569   1.12317
  Beta virt. eigenvalues --    1.14971   1.20502   1.26247   1.27461   1.29296
  Beta virt. eigenvalues --    1.29679   1.31224   1.32996   1.48982   1.54596
  Beta virt. eigenvalues --    1.56165   1.60716   1.66423   1.66605   1.71391
  Beta virt. eigenvalues --    1.72130   1.74609   1.75596   1.79256   1.79911
  Beta virt. eigenvalues --    1.89996   1.92110   1.95632   1.98187   2.02142
  Beta virt. eigenvalues --    2.04608   2.07926   2.15841   2.18335   2.24242
  Beta virt. eigenvalues --    2.27846   2.30502   2.41556   2.51084   2.52399
  Beta virt. eigenvalues --    2.61728   2.68797   2.69584   2.76884   2.82672
  Beta virt. eigenvalues --    3.01335   3.10447   3.84879   3.90275   3.91699
  Beta virt. eigenvalues --    3.99034   4.07311   4.31224   4.35754   4.59500
          Condensed to atoms (all electrons):
               1          2          3          4          5          6
     1  C    4.980957   0.475454   0.011422  -0.057530  -0.067481   0.518160
     2  C    0.475454   4.924172  -0.066374   0.441173  -0.063344  -0.029758
     3  C    0.011422  -0.066374   4.715530   0.352629  -0.054479   0.006825
     4  C   -0.057530   0.441173   0.352629   4.951242   0.439177  -0.037710
     5  C   -0.067481  -0.063344  -0.054479   0.439177   5.017960   0.453660
     6  C    0.518160  -0.029758   0.006825  -0.037710   0.453660   4.705799
     7  H    0.370235  -0.039449  -0.000193   0.003192   0.007807  -0.035955
     8  H   -0.030227   0.365789  -0.005224  -0.038152   0.004872   0.002969
     9  O   -0.000021  -0.000165   0.639418  -0.044140  -0.000467  -0.000016
    10  H    0.005131   0.003641  -0.004424  -0.038119   0.364011  -0.032957
    11  C   -0.061344   0.008818  -0.000306   0.004717  -0.061519   0.366175
    12  H   -0.003016  -0.000132   0.000005  -0.000058   0.001827  -0.021633
    13  H   -0.003015  -0.000132   0.000005  -0.000058   0.001825  -0.021631
    14  H    0.003819  -0.000207   0.000006   0.000199  -0.004188  -0.027477
               7          8          9         10         11         12
     1  C    0.370235  -0.030227  -0.000021   0.005131  -0.061344  -0.003016
     2  C   -0.039449   0.365789  -0.000165   0.003641   0.008818  -0.000132
     3  C   -0.000193  -0.005224   0.639418  -0.004424  -0.000306   0.000005
     4  C    0.003192  -0.038152  -0.044140  -0.038119   0.004717  -0.000058
     5  C    0.007807   0.004872  -0.000467   0.364011  -0.061519   0.001827
     6  C   -0.035955   0.002969  -0.000016  -0.032957   0.366175  -0.021633
     7  H    0.473766  -0.001716   0.000000  -0.000063  -0.003367   0.000754
     8  H   -0.001716   0.454241   0.000174  -0.000028  -0.000079  -0.000001
     9  O    0.000000   0.000174   7.636457   0.000164   0.000000   0.000000
    10  H   -0.000063  -0.000028   0.000164   0.455795  -0.003207   0.000017
    11  C   -0.003367  -0.000079   0.000000  -0.003207   5.197012   0.363416
    12  H    0.000754  -0.000001   0.000000   0.000017   0.363416   0.466325
    13  H    0.000754  -0.000001   0.000000   0.000017   0.363412  -0.019945
    14  H   -0.000012   0.000002   0.000000   0.002670   0.371173  -0.022528
              13         14
     1  C   -0.003015   0.003819
     2  C   -0.000132  -0.000207
     3  C    0.000005   0.000006
     4  C   -0.000058   0.000199
     5  C    0.001825  -0.004188
     6  C   -0.021631  -0.027477
     7  H    0.000754  -0.000012
     8  H   -0.000001   0.000002
     9  O    0.000000   0.000000
    10  H    0.000017   0.002670
    11  C    0.363412   0.371173
    12  H   -0.019945  -0.022528
    13  H    0.466318  -0.022527
    14  H   -0.022527   0.492151
          Atomic-Atomic Spin Densities.
               1          2          3          4          5          6
     1  C   -0.047623   0.039211  -0.000466  -0.004915  -0.014435  -0.028382
     2  C    0.039211   0.438790   0.001410   0.017791  -0.021798  -0.013567
     3  C   -0.000466   0.001410  -0.003033   0.004689  -0.001738  -0.000463
     4  C   -0.004915   0.017791   0.004689  -0.063128  -0.025873  -0.014967
     5  C   -0.014435  -0.021798  -0.001738  -0.025873   0.516179   0.071156
     6  C   -0.028382  -0.013567  -0.000463  -0.014967   0.071156   0.176165
     7  H    0.001192   0.000192  -0.000008  -0.000166  -0.000067   0.000224
     8  H    0.000456  -0.001431   0.000268   0.000565  -0.000025   0.000051
     9  O    0.000000  -0.000125   0.000848   0.000285   0.000082   0.000004
    10  H   -0.000056  -0.000105   0.000386   0.000722  -0.000764   0.000001
    11  C    0.002671  -0.000092   0.000008   0.000134  -0.002944  -0.006359
    12  H    0.000532   0.000085   0.000000   0.000008  -0.000647  -0.004196
    13  H    0.000532   0.000085   0.000000   0.000009  -0.000647  -0.004197
    14  H   -0.000018  -0.000014   0.000001   0.000033  -0.000018   0.000090
               7          8          9         10         11         12
     1  C    0.001192   0.000456   0.000000  -0.000056   0.002671   0.000532
     2  C    0.000192  -0.001431  -0.000125  -0.000105  -0.000092   0.000085
     3  C   -0.000008   0.000268   0.000848   0.000386   0.000008   0.000000
     4  C   -0.000166   0.000565   0.000285   0.000722   0.000134   0.000008
     5  C   -0.000067  -0.000025   0.000082  -0.000764  -0.002944  -0.000647
     6  C    0.000224   0.000051   0.000004   0.000001  -0.006359  -0.004196
     7  H   -0.001578   0.000058   0.000000   0.000002   0.000211  -0.000021
     8  H    0.000058  -0.018071  -0.000004   0.000002   0.000003   0.000000
     9  O    0.000000  -0.000004  -0.007446  -0.000004   0.000000   0.000000
    10  H    0.000002   0.000002  -0.000004  -0.020458   0.000142  -0.000001
    11  C    0.000211   0.000003   0.000000   0.000142  -0.015461   0.005518
    12  H   -0.000021   0.000000   0.000000  -0.000001   0.005518   0.020495
    13  H   -0.000021   0.000000   0.000000  -0.000001   0.005520  -0.004184
    14  H    0.000002   0.000000   0.000000  -0.000069   0.000467  -0.000162
              13         14
     1  C    0.000532  -0.000018
     2  C    0.000085  -0.000014
     3  C    0.000000   0.000001
     4  C    0.000009   0.000033
     5  C   -0.000647  -0.000018
     6  C   -0.004197   0.000090
     7  H   -0.000021   0.000002
     8  H    0.000000   0.000000
     9  O    0.000000   0.000000
    10  H   -0.000001  -0.000069
    11  C    0.005520   0.000467
    12  H   -0.004184  -0.000162
    13  H    0.020502  -0.000162
    14  H   -0.000162  -0.000404
 Mulliken charges and spin densities:
               1          2
     1  C   -0.142545  -0.051302
     2  C   -0.019486   0.460435
     3  C    0.405161   0.001901
     4  C    0.023439  -0.084812
     5  C   -0.039661   0.518460
     6  C    0.153549   0.175561
     7  H    0.224246   0.000019
     8  H    0.247382  -0.018127
     9  O   -0.231404  -0.006361
    10  H    0.247352  -0.020203
    11  C   -0.544901  -0.010181
    12  H    0.234970   0.017429
    13  H    0.234978   0.017435
    14  H    0.206920  -0.000253
 Sum of Mulliken charges =   1.00000   1.00000
 Mulliken charges and spin densities with hydrogens summed into heavy atoms:
               1          2
     1  C    0.081701  -0.051282
     2  C    0.227895   0.442308
     3  C    0.405161   0.001901
     4  C    0.023439  -0.084812
     5  C    0.207691   0.498257
     6  C    0.153549   0.175561
     9  O   -0.231404  -0.006361
    11  C    0.131967   0.024429
 Electronic spatial extent (au):  <R**2>=           1036.8872
 Charge=              1.0000 electrons
 Dipole moment (field-independent basis, Debye):
    X=              1.5365    Y=              0.3974    Z=              0.0001  Tot=              1.5870
 Quadrupole moment (field-independent basis, Debye-Ang):
   XX=            -26.1657   YY=            -31.6524   ZZ=            -43.9979
   XY=             -1.8148   XZ=              0.0004   YZ=             -0.0001
 Traceless Quadrupole moment (field-independent basis, Debye-Ang):
   XX=              7.7729   YY=              2.2863   ZZ=            -10.0592
   XY=             -1.8148   XZ=              0.0004   YZ=             -0.0001
 Octapole moment (field-independent basis, Debye-Ang**2):
  XXX=             19.6462  YYY=              4.2858  ZZZ=              0.0011  XYY=             -1.4701
  XXY=             -0.6422  XXZ=              0.0008  XZZ=             -2.5536  YZZ=             -1.5291
  YYZ=             -0.0003  XYZ=             -0.0002
 Hexadecapole moment (field-independent basis, Debye-Ang**3):
 XXXX=           -872.0762 YYYY=           -200.7021 ZZZZ=            -47.6269 XXXY=             -9.7025
 XXXZ=              0.0025 YYYX=              1.8062 YYYZ=              0.0004 ZZZX=              0.0013
 ZZZY=             -0.0007 XXYY=           -183.8422 XXZZ=           -162.5902 YYZZ=            -53.2671
 XXYZ=             -0.0013 YYXZ=             -0.0003 ZZXY=              1.5089
 N-N= 3.139010290375D+02 E-N=-1.418284932927D+03  KE= 3.420756064278D+02
                          Isotropic Fermi Contact Couplings
        Atom                 a.u.       MegaHertz       Gauss      10(-4) cm-1
     1  C(13)             -0.01155     -12.98475      -4.63328      -4.33125
     2  C(13)              0.04657      52.35259      18.68070      17.46294
     3  C(13)              0.00019       0.21365       0.07623       0.07126
     4  C(13)             -0.01940     -21.80431      -7.78032      -7.27314
     5  C(13)              0.04998      56.18496      20.04819      18.74129
     6  C(13)              0.01342      15.08340       5.38213       5.03128
     7  H(1)              -0.00013      -0.57060      -0.20361      -0.19033
     8  H(1)              -0.00717     -32.06952     -11.44320     -10.69724
     9  O(17)             -0.00094       0.56784       0.20262       0.18941
    10  H(1)              -0.00811     -36.23463     -12.92942     -12.08657
    11  C(13)             -0.00686      -7.71692      -2.75359      -2.57409
    12  H(1)               0.00916      40.92921      14.60456      13.65251
    13  H(1)               0.00916      40.94573      14.61045      13.65803
    14  H(1)              -0.00009      -0.38414      -0.13707      -0.12813
 --------------------------------------------------------
       Center         ----  Spin Dipole Couplings  ----
                      3XX-RR        3YY-RR        3ZZ-RR
 --------------------------------------------------------
     1   Atom        0.009282      0.001369     -0.010651
     2   Atom       -0.241261     -0.232025      0.473286
     3   Atom        0.004259     -0.000700     -0.003559
     4   Atom        0.014507      0.013470     -0.027977
     5   Atom       -0.275171     -0.274540      0.549711
     6   Atom       -0.107272     -0.122973      0.230245
     7   Atom        0.007464     -0.001039     -0.006425
     8   Atom       -0.012226      0.018316     -0.006090
     9   Atom        0.015957     -0.009109     -0.006848
    10   Atom       -0.033806      0.041377     -0.007572
    11   Atom        0.000250     -0.015232      0.014981
    12   Atom        0.006439     -0.004225     -0.002214
    13   Atom        0.006437     -0.004227     -0.002210
    14   Atom        0.005137     -0.000199     -0.004938
 --------------------------------------------------------
                        XY            XZ            YZ
 --------------------------------------------------------
     1   Atom        0.001267      0.000004     -0.000006
     2   Atom       -0.002817     -0.000040     -0.000006
     3   Atom        0.001224      0.000000      0.000001
     4   Atom       -0.003216     -0.000001      0.000000
     5   Atom        0.003696     -0.000016      0.000021
     6   Atom        0.008336     -0.000016     -0.000023
     7   Atom        0.005851      0.000001      0.000000
     8   Atom       -0.030793      0.000000     -0.000002
     9   Atom        0.005536     -0.000003      0.000007
    10   Atom        0.013368     -0.000001     -0.000003
    11   Atom       -0.000979      0.000001      0.000000
    12   Atom        0.001326     -0.005083     -0.001645
    13   Atom        0.001323      0.005085      0.001645
    14   Atom       -0.005926      0.000000      0.000000
 --------------------------------------------------------


 ---------------------------------------------------------------------------------
              Anisotropic Spin Dipole Couplings in Principal Axis System
 ---------------------------------------------------------------------------------

       Atom             a.u.   MegaHertz   Gauss  10(-4) cm-1        Axes

              Baa    -0.0107    -1.429    -0.510    -0.477 -0.0002  0.0005  1.0000
     1 C(13)  Bbb     0.0012     0.157     0.056     0.052 -0.1544  0.9880 -0.0005
              Bcc     0.0095     1.272     0.454     0.424  0.9880  0.1544  0.0001
 
              Baa    -0.2421   -32.481   -11.590   -10.835  0.9627  0.2705  0.0001
     2 C(13)  Bbb    -0.2312   -31.029   -11.072   -10.350 -0.2705  0.9627  0.0000
              Bcc     0.4733    63.510    22.662    21.185 -0.0001  0.0000  1.0000
 
              Baa    -0.0036    -0.478    -0.170    -0.159  0.0001 -0.0005  1.0000
     3 C(13)  Bbb    -0.0010    -0.132    -0.047    -0.044 -0.2272  0.9739  0.0005
              Bcc     0.0045     0.610     0.218     0.203  0.9739  0.2272  0.0000
 
              Baa    -0.0280    -3.754    -1.340    -1.252  0.0000  0.0000  1.0000
     4 C(13)  Bbb     0.0107     1.440     0.514     0.480  0.6484  0.7613  0.0000
              Bcc     0.0172     2.314     0.826     0.772  0.7613 -0.6484  0.0000
 
              Baa    -0.2786   -37.381   -13.338   -12.469  0.7366 -0.6764  0.0000
     5 C(13)  Bbb    -0.2711   -36.385   -12.983   -12.137  0.6764  0.7366  0.0000
              Bcc     0.5497    73.766    26.322    24.606  0.0000  0.0000  1.0000
 
              Baa    -0.1266   -16.985    -6.061    -5.666 -0.3965  0.9180  0.0000
     6 C(13)  Bbb    -0.1037   -13.912    -4.964    -4.640  0.9180  0.3965  0.0001
              Bcc     0.2302    30.897    11.025    10.306  0.0000 -0.0001  1.0000
 
              Baa    -0.0064    -3.428    -1.223    -1.143 -0.0001  0.0000  1.0000
     7 H(1)   Bbb    -0.0040    -2.145    -0.765    -0.715 -0.4539  0.8910  0.0000
              Bcc     0.0104     5.573     1.988     1.859  0.8910  0.4539  0.0001
 
              Baa    -0.0313   -16.715    -5.964    -5.575  0.8498  0.5271  0.0001
     8 H(1)   Bbb    -0.0061    -3.249    -1.159    -1.084 -0.0001  0.0000  1.0000
              Bcc     0.0374    19.964     7.124     6.659 -0.5271  0.8498  0.0000
 
              Baa    -0.0103     0.744     0.265     0.248 -0.2065  0.9785 -0.0021
     9 O(17)  Bbb    -0.0068     0.496     0.177     0.165 -0.0004  0.0020  1.0000
              Bcc     0.0171    -1.239    -0.442    -0.413  0.9785  0.2065  0.0000
 
              Baa    -0.0361   -19.267    -6.875    -6.427  0.9854 -0.1700  0.0000
    10 H(1)   Bbb    -0.0076    -4.040    -1.442    -1.348  0.0000  0.0001  1.0000
              Bcc     0.0437    23.307     8.317     7.774  0.1700  0.9854 -0.0001
 
              Baa    -0.0153    -2.052    -0.732    -0.685  0.0629  0.9980  0.0000
    11 C(13)  Bbb     0.0003     0.042     0.015     0.014  0.9980 -0.0629 -0.0001
              Bcc     0.0150     2.010     0.717     0.671  0.0001  0.0000  1.0000
 
              Baa    -0.0055    -2.912    -1.039    -0.971  0.2190  0.6878  0.6921
    12 H(1)   Bbb    -0.0036    -1.921    -0.686    -0.641 -0.3898  0.7119 -0.5842
              Bcc     0.0091     4.833     1.725     1.612  0.8945  0.1418 -0.4240
 
              Baa    -0.0055    -2.912    -1.039    -0.971 -0.2191 -0.6883  0.6916
    13 H(1)   Bbb    -0.0036    -1.921    -0.686    -0.641 -0.3899  0.7115  0.5846
              Bcc     0.0091     4.834     1.725     1.612  0.8944  0.1416  0.4243
 
              Baa    -0.0049    -2.635    -0.940    -0.879  0.0001  0.0001  1.0000
    14 H(1)   Bbb    -0.0040    -2.150    -0.767    -0.717  0.5429  0.8398 -0.0001
              Bcc     0.0090     4.785     1.707     1.596  0.8398 -0.5429  0.0000
 

 ---------------------------------------------------------------------------------

 No NMR shielding tensors so no spin-rotation constants.
 Leave Link  601 at Wed Dec 03 16:49:30 2025, MaxMem=   104857600 cpu:               0.0 elap:               0.2
 (Enter D:\Gaussian\G16W\l9999.exe)
 1|1|UNPC-PC-20250526LCFF|SP|UB3LYP|6-31G(d)|C7H6O1(1+,2)|ADMINISTRATOR
 |03-Dec-2025|0||#P B3LYP/6-31G* SCF=conver=7 out=wfn||Generated by Mul
 tiwfn (http://sobereva.com/multiwfn)||1,2|C,0,1.10904606,1.24234013,0.
 00002805|C,0,-0.24322294,1.4002171,-0.00001195|C,0,-2.11205791,-0.2338
 3394,0.00000405|C,0,-0.81886591,0.05827409,-0.00007195|C,0,0.28770011,
 -0.89499989,-0.00005795|C,0,1.4463871,-0.17264786,-0.00000195|H,0,1.83
 149904,2.04799115,0.00006205|H,0,-0.81034296,2.31823609,-0.00005895|O,
 0,-3.2390389,-0.48773396,0.00005105|H,0,0.17931213,-1.96918489,-0.0000
 0695|C,0,2.8424421,-0.71898883,0.00002805|H,0,3.4008381,-0.38305682,-0
 .88031695|H,0,3.4006881,-0.38339882,0.88059806|H,0,2.84174513,-1.81087
 983,-0.00018395||Version=EM64W-G16RevA.03|State=2-A|HF=-345.2378796|S2
 =0.761943|S2-1=0.|S2A=0.750068|RMSD=7.146e-008|Dipole=0.6044866,0.1563
 605,0.0000241|Quadrupole=5.7789776,1.6998056,-7.4787832,-1.349275,0.00
 02633,-0.0000446|PG=C01 [X(C7H6O1)]||@

 Writing a WFN file to "N-1.wfn"


 OUR LITTLE SYSTEMS HAVE THEIR DAY,    
   THEY HAVE THEIR DAY AND CEASE TO BE.
   THEY ARE BUT BROKEN LIGHTS OF THEE, 
 AND THOU, OH LORD, ART MORE THAN THEY.
          -------------------          
 LET KNOWLEDGE GROW FROM MORE TO MORE, 
   BUT MORE OF REVERENCE IN US DWELL.  
   THAT MIND AND SOUL, ACCORDING WELL, 
 MAY MAKE ONE MUSIC AS BEFORE.....     
          -------------------          
                    LORD TENNYSON      
 Job cpu time:       0 days  0 hours  0 minutes 22.0 seconds.
 Elapsed time:       0 days  0 hours  0 minutes 22.4 seconds.
 File lengths (MBytes):  RWF=     14 Int=      0 D2E=      0 Chk=      2 Scr=      1
 Normal termination of Gaussian 16 at Wed Dec 03 16:49:30 2025.
