 Entering Link 1 = D:\Gaussian\G16W\l1.exe PID=     39444.
  
 Copyright (c) 1988,1990,1992,1993,1995,1998,2003,2009,2016,
            Gaussian, Inc.  All Rights Reserved.
  
 This is part of the Gaussian(R) 16 program.  It is based on
 the Gaussian(R) 09 system (copyright 2009, Gaussian, Inc.),
 the Gaussian(R) 03 system (copyright 2003, Gaussian, Inc.),
 the Gaussian(R) 98 system (copyright 1998, Gaussian, Inc.),
 the Gaussian(R) 94 system (copyright 1995, Gaussian, Inc.),
 the Gaussian 92(TM) system (copyright 1992, Gaussian, Inc.),
 the Gaussian 90(TM) system (copyright 1990, Gaussian, Inc.),
 the Gaussian 88(TM) system (copyright 1988, Gaussian, Inc.),
 the Gaussian 86(TM) system (copyright 1986, Carnegie Mellon
 University), and the Gaussian 82(TM) system (copyright 1983,
 Carnegie Mellon University). Gaussian is a federally registered
 trademark of Gaussian, Inc.
  
 This software contains proprietary and confidential information,
 including trade secrets, belonging to Gaussian, Inc.
  
 This software is provided under written license and may be
 used, copied, transmitted, or stored only in accord with that
 written license.
  
 The following legend is applicable only to US Government
 contracts under FAR:
  
                    RESTRICTED RIGHTS LEGEND
  
 Use, reproduction and disclosure by the US Government is
 subject to restrictions as set forth in subparagraphs (a)
 and (c) of the Commercial Computer Software - Restricted
 Rights clause in FAR 52.227-19.
  
 Gaussian, Inc.
 340 Quinnipiac St., Bldg. 40, Wallingford CT 06492
  
  
 ---------------------------------------------------------------
 Warning -- This program may not be used in any manner that
 competes with the business of Gaussian, Inc. or will provide
 assistance to any competitor of Gaussian, Inc.  The licensee
 of this program is prohibited from giving any competitor of
 Gaussian, Inc. access to this program.  By using this program,
 the user acknowledges that Gaussian, Inc. is engaged in the
 business of creating and licensing software in the field of
 computational chemistry and represents and warrants to the
 licensee that it is not a competitor of Gaussian, Inc. and that
 it will not use this program in any manner prohibited above.
 ---------------------------------------------------------------
  

 Cite this work as:
 Gaussian 16, Revision A.03,
 M. J. Frisch, G. W. Trucks, H. B. Schlegel, G. E. Scuseria, 
 M. A. Robb, J. R. Cheeseman, G. Scalmani, V. Barone, 
 G. A. Petersson, H. Nakatsuji, X. Li, M. Caricato, A. V. Marenich, 
 J. Bloino, B. G. Janesko, R. Gomperts, B. Mennucci, H. P. Hratchian, 
 J. V. Ortiz, A. F. Izmaylov, J. L. Sonnenberg, D. Williams-Young, 
 F. Ding, F. Lipparini, F. Egidi, J. Goings, B. Peng, A. Petrone, 
 T. Henderson, D. Ranasinghe, V. G. Zakrzewski, J. Gao, N. Rega, 
 G. Zheng, W. Liang, M. Hada, M. Ehara, K. Toyota, R. Fukuda, 
 J. Hasegawa, M. Ishida, T. Nakajima, Y. Honda, O. Kitao, H. Nakai, 
 T. Vreven, K. Throssell, J. A. Montgomery, Jr., J. E. Peralta, 
 F. Ogliaro, M. J. Bearpark, J. J. Heyd, E. N. Brothers, K. N. Kudin, 
 V. N. Staroverov, T. A. Keith, R. Kobayashi, J. Normand, 
 K. Raghavachari, A. P. Rendell, J. C. Burant, S. S. Iyengar, 
 J. Tomasi, M. Cossi, J. M. Millam, M. Klene, C. Adamo, R. Cammi, 
 J. W. Ochterski, R. L. Martin, K. Morokuma, O. Farkas, 
 J. B. Foresman, and D. J. Fox, Gaussian, Inc., Wallingford CT, 2016.
 
 ******************************************
 Gaussian 16:  EM64W-G16RevA.03 17-Dec-2016
                03-Dec-2025 
 ******************************************
 %nprocs=   4
 Will use up to    4 processors via shared memory.
 ------------------------------------
 #P B3LYP/6-31G* SCF=conver=7 out=wfn
 ------------------------------------
 1/38=1,172=1/1;
 2/12=2,17=6,18=5,40=1/2;
 3/5=1,6=6,7=1,11=2,25=1,30=1,74=-5/1,2,3;
 4//1;
 5/5=2,6=7,38=5/2;
 6/7=2,8=2,9=2,10=2,28=1/1;
 99/5=1,6=100,9=1/99;
 Leave Link    1 at Wed Dec 03 16:47:58 2025, MaxMem=           0 cpu:               0.0 elap:               0.1
 (Enter D:\Gaussian\G16W\l101.exe)
 ----------------------------------------------------
 Generated by Multiwfn (http://sobereva.com/multiwfn)
 ----------------------------------------------------
 Symbolic Z-matrix:
 Charge =  0 Multiplicity = 1
 C                     1.10905   1.24234   0.00003 
 C                    -0.24322   1.40022  -0.00001 
 C                    -2.11206  -0.23383   0. 
 C                    -0.81887   0.05827  -0.00007 
 C                     0.2877   -0.895    -0.00006 
 C                     1.44639  -0.17265  0. 
 H                     1.8315    2.04799   0.00006 
 H                    -0.81034   2.31824  -0.00006 
 O                    -3.23904  -0.48773   0.00005 
 H                     0.17931  -1.96918  -0.00001 
 C                     2.84244  -0.71899   0.00003 
 H                     3.40084  -0.38306  -0.88032 
 H                     3.40069  -0.3834    0.8806 
 H                     2.84175  -1.81088  -0.00018 
 
 ITRead=  0  0  0  0  0  0  0  0  0  0  0  0  0  0
 MicOpt= -1 -1 -1 -1 -1 -1 -1 -1 -1 -1 -1 -1 -1 -1
 NAtoms=     14 NQM=       14 NQMF=       0 NMMI=      0 NMMIF=      0
                NMic=       0 NMicF=      0.
                    Isotopes and Nuclear Properties:
 (Nuclear quadrupole moments (NQMom) in fm**2, nuclear magnetic moments (NMagM)
  in nuclear magnetons)

  Atom         1           2           3           4           5           6           7           8           9          10
 IAtWgt=          12          12          12          12          12          12           1           1          16           1
 AtmWgt=  12.0000000  12.0000000  12.0000000  12.0000000  12.0000000  12.0000000   1.0078250   1.0078250  15.9949146   1.0078250
 NucSpn=           0           0           0           0           0           0           1           1           0           1
 AtZEff=   0.0000000   0.0000000   0.0000000   0.0000000   0.0000000   0.0000000   0.0000000   0.0000000   0.0000000   0.0000000
 NQMom=    0.0000000   0.0000000   0.0000000   0.0000000   0.0000000   0.0000000   0.0000000   0.0000000   0.0000000   0.0000000
 NMagM=    0.0000000   0.0000000   0.0000000   0.0000000   0.0000000   0.0000000   2.7928460   2.7928460   0.0000000   2.7928460
 AtZNuc=   6.0000000   6.0000000   6.0000000   6.0000000   6.0000000   6.0000000   1.0000000   1.0000000   8.0000000   1.0000000

  Atom        11          12          13          14
 IAtWgt=          12           1           1           1
 AtmWgt=  12.0000000   1.0078250   1.0078250   1.0078250
 NucSpn=           0           1           1           1
 AtZEff=   0.0000000   0.0000000   0.0000000   0.0000000
 NQMom=    0.0000000   0.0000000   0.0000000   0.0000000
 NMagM=    0.0000000   2.7928460   2.7928460   2.7928460
 AtZNuc=   6.0000000   1.0000000   1.0000000   1.0000000
 Leave Link  101 at Wed Dec 03 16:47:58 2025, MaxMem=   104857600 cpu:               0.0 elap:               0.1
 (Enter D:\Gaussian\G16W\l202.exe)
                          Input orientation:                          
 ---------------------------------------------------------------------
 Center     Atomic      Atomic             Coordinates (Angstroms)
 Number     Number       Type             X           Y           Z
 ---------------------------------------------------------------------
      1          6           0        1.109046    1.242340    0.000028
      2          6           0       -0.243223    1.400217   -0.000012
      3          6           0       -2.112058   -0.233834    0.000004
      4          6           0       -0.818866    0.058274   -0.000072
      5          6           0        0.287700   -0.895000   -0.000058
      6          6           0        1.446387   -0.172648   -0.000002
      7          1           0        1.831499    2.047991    0.000062
      8          1           0       -0.810343    2.318236   -0.000059
      9          8           0       -3.239039   -0.487734    0.000051
     10          1           0        0.179312   -1.969185   -0.000007
     11          6           0        2.842442   -0.718989    0.000028
     12          1           0        3.400838   -0.383057   -0.880317
     13          1           0        3.400688   -0.383399    0.880598
     14          1           0        2.841745   -1.810880   -0.000184
 ---------------------------------------------------------------------
                    Distance matrix (angstroms):
                    1          2          3          4          5
     1  C    0.000000
     2  C    1.361454   0.000000
     3  C    3.543247   2.482472   0.000000
     4  C    2.262489   1.460197   1.325772   0.000000
     5  C    2.289723   2.355823   2.489172   1.460555   0.000000
     6  C    1.454644   2.308395   3.558971   2.276993   1.365411
     7  H    1.082133   2.173495   4.556135   3.314123   3.323328
     8  H    2.200365   1.079066   2.864878   2.259978   3.395671
     9  O    4.679637   3.541084   1.155228   2.481000   3.550177
    10  H    3.343396   3.395792   2.874338   2.259856   1.079639
    11  C    2.617532   3.743309   4.978197   3.742902   2.560798
    12  H    2.944356   4.151407   5.584734   4.333071   3.275450
    13  H    2.944496   4.151487   5.584638   4.333046   3.275360
    14  H    3.510612   4.452884   5.198773   4.110208   2.713297
                    6          7          8          9         10
     6  C    0.000000
     7  H    2.253785   0.000000
     8  H    3.361151   2.655628   0.000000
     9  O    4.696009   5.669238   3.711069   0.000000
    10  H    2.198414   4.343665   4.400159   3.725563   0.000000
    11  C    1.499152   2.945876   4.750534   6.085876   2.941981
    12  H    2.153858   3.024547   5.079949   6.698804   3.697158
    13  H    2.153872   3.024790   5.080076   6.698673   3.696951
    14  H    2.151936   3.988920   5.512472   6.223074   2.667135
                   11         12         13         14
    11  C    0.000000
    12  H    1.095292   0.000000
    13  H    1.095291   1.760915   0.000000
    14  H    1.091891   1.768021   1.768020   0.000000
 Stoichiometry    C7H6O
 Framework group  C1[X(C7H6O)]
 Deg. of freedom    36
 Full point group                 C1      NOp   1
 Largest Abelian subgroup         C1      NOp   1
 Largest concise Abelian subgroup C1      NOp   1
                         Standard orientation:                         
 ---------------------------------------------------------------------
 Center     Atomic      Atomic             Coordinates (Angstroms)
 Number     Number       Type             X           Y           Z
 ---------------------------------------------------------------------
      1          6           0        1.109046    1.242340    0.000028
      2          6           0       -0.243223    1.400217   -0.000012
      3          6           0       -2.112058   -0.233834    0.000004
      4          6           0       -0.818866    0.058274   -0.000072
      5          6           0        0.287700   -0.895000   -0.000058
      6          6           0        1.446387   -0.172648   -0.000002
      7          1           0        1.831499    2.047991    0.000062
      8          1           0       -0.810343    2.318236   -0.000059
      9          8           0       -3.239039   -0.487734    0.000051
     10          1           0        0.179312   -1.969185   -0.000007
     11          6           0        2.842442   -0.718989    0.000028
     12          1           0        3.400838   -0.383057   -0.880317
     13          1           0        3.400688   -0.383399    0.880598
     14          1           0        2.841745   -1.810880   -0.000184
 ---------------------------------------------------------------------
 Rotational constants (GHZ):           6.2147725           1.2508643           1.0480307
 Leave Link  202 at Wed Dec 03 16:47:58 2025, MaxMem=   104857600 cpu:               0.0 elap:               0.1
 (Enter D:\Gaussian\G16W\l301.exe)
 Standard basis: 6-31G(d) (6D, 7F)
 Ernie: Thresh=  0.10000D-02 Tol=  0.10000D-05 Strict=F.
 There are   132 symmetry adapted cartesian basis functions of A   symmetry.
 There are   132 symmetry adapted basis functions of A   symmetry.
   132 basis functions,   248 primitive gaussians,   132 cartesian basis functions
    28 alpha electrons       28 beta electrons
       nuclear repulsion energy       313.9010290375 Hartrees.
 IExCor=  402 DFT=T Ex+Corr=B3LYP ExCW=0 ScaHFX=  0.200000
 ScaDFX=  0.800000  0.720000  1.000000  0.810000 ScalE2=  1.000000  1.000000
 IRadAn=      5 IRanWt=     -1 IRanGd=            0 ICorTp=0 IEmpDi=  4
 NAtoms=   14 NActive=   14 NUniq=   14 SFac= 1.00D+00 NAtFMM=   60 NAOKFM=F Big=F
 Integral buffers will be    131072 words long.
 Raffenetti 2 integral format.
 Two-electron integral symmetry is turned on.
 Leave Link  301 at Wed Dec 03 16:47:58 2025, MaxMem=   104857600 cpu:               0.0 elap:               0.1
 (Enter D:\Gaussian\G16W\l302.exe)
 NPDir=0 NMtPBC=     1 NCelOv=     1 NCel=       1 NClECP=     1 NCelD=      1
         NCelK=      1 NCelE2=     1 NClLst=     1 CellRange=     0.0.
 One-electron integrals computed using PRISM.
 One-electron integral symmetry used in STVInt
 NBasis=   132 RedAO= T EigKep=  8.30D-04  NBF=   132
 NBsUse=   132 1.00D-06 EigRej= -1.00D+00 NBFU=   132
 Precomputing XC quadrature grid using
 IXCGrd= 4 IRadAn=           5 IRanWt=          -1 IRanGd=           0 AccXCQ= 0.00D+00.
 Generated NRdTot=       0 NPtTot=           0 NUsed=           0 NTot=          32
 NSgBfM=   132   132   132   132   132 MxSgAt=    14 MxSgA2=    14.
 Leave Link  302 at Wed Dec 03 16:47:58 2025, MaxMem=   104857600 cpu:               0.0 elap:               0.2
 (Enter D:\Gaussian\G16W\l303.exe)
 DipDrv:  MaxL=1.
 Leave Link  303 at Wed Dec 03 16:47:58 2025, MaxMem=   104857600 cpu:               0.0 elap:               0.1
 (Enter D:\Gaussian\G16W\l401.exe)
 ExpMin= 1.61D-01 ExpMax= 5.48D+03 ExpMxC= 8.25D+02 IAcc=3 IRadAn=         5 AccDes= 0.00D+00
 Harris functional with IExCor=  402 and IRadAn=       5 diagonalized for initial guess.
 HarFok:  IExCor=  402 AccDes= 0.00D+00 IRadAn=         5 IDoV= 1 UseB2=F ITyADJ=14
 ICtDFT=  3500011 ScaDFX=  1.000000  1.000000  1.000000  1.000000
 FoFCou: FMM=F IPFlag=           0 FMFlag=      100000 FMFlg1=           0
         NFxFlg=           0 DoJE=T BraDBF=F KetDBF=T FulRan=T
         wScrn=  0.000000 ICntrl=       500 IOpCl=  0 I1Cent=   200000004 NGrid=           0
         NMat0=    1 NMatS0=      1 NMatT0=    0 NMatD0=    1 NMtDS0=    0 NMtDT0=    0
 Petite list used in FoFCou.
 Harris En= -345.573015060819    
 JPrj=0 DoOrth=F DoCkMO=F.
 Leave Link  401 at Wed Dec 03 16:47:59 2025, MaxMem=   104857600 cpu:               0.0 elap:               0.7
 (Enter D:\Gaussian\G16W\l502.exe)
 Keep R1 ints in memory in canonical form, NReq=42366089.
 FoFCou: FMM=F IPFlag=           0 FMFlag=           0 FMFlg1=           0
         NFxFlg=           0 DoJE=F BraDBF=F KetDBF=F FulRan=T
         wScrn=  0.000000 ICntrl=       600 IOpCl=  0 I1Cent=           0 NGrid=           0
         NMat0=    1 NMatS0=   8778 NMatT0=    0 NMatD0=    1 NMtDS0=    0 NMtDT0=    0
 Symmetry not used in FoFCou.
 Two-electron integral symmetry not used.
 Closed shell SCF:
 Using DIIS extrapolation, IDIIS=  1040.
 NGot=   104857600 LenX=    66289355 LenY=    66271490
 Requested convergence on RMS density matrix=1.00D-07 within 128 cycles.
 Requested convergence on MAX density matrix=1.00D-05.
 Requested convergence on             energy=1.00D-05.
 No special actions if energy rises.
 Integral accuracy reduced to 1.0D-05 until final iterations.

 Cycle   1  Pass 0  IDiag  1:
 E= -345.268287338148    
 DIIS: error= 3.71D-02 at cycle   1 NSaved=   1.
 NSaved= 1 IEnMin= 1 EnMin= -345.268287338148     IErMin= 1 ErrMin= 3.71D-02
 ErrMax= 3.71D-02  0.00D+00 EMaxC= 1.00D-01 BMatC= 2.35D-01 BMatP= 2.35D-01
 IDIUse=3 WtCom= 6.29D-01 WtEn= 3.71D-01
 Coeff-Com:  0.100D+01
 Coeff-En:   0.100D+01
 Coeff:      0.100D+01
 Gap=     0.147 Goal=   None    Shift=    0.000
 GapD=    0.147 DampG=1.000 DampE=0.500 DampFc=0.5000 IDamp=-1.
 Damping current iteration by 5.00D-01
 RMSDP=1.44D-02 MaxDP=4.03D-01              OVMax= 9.42D-01

 Cycle   2  Pass 0  IDiag  1:
 E= -344.911614471040     Delta-E=        0.356672867107 Rises=F Damp=T
 DIIS: error= 4.33D-02 at cycle   2 NSaved=   2.
 NSaved= 2 IEnMin= 1 EnMin= -345.268287338148     IErMin= 1 ErrMin= 3.71D-02
 ErrMax= 4.33D-02  0.00D+00 EMaxC= 1.00D-01 BMatC= 1.90D-01 BMatP= 2.35D-01
 IDIUse=3 WtCom= 5.67D-01 WtEn= 4.33D-01
 Coeff-Com:  0.462D+00 0.538D+00
 Coeff-En:   0.760D+00 0.240D+00
 Coeff:      0.591D+00 0.409D+00
 Gap=    -0.188 Goal=   None    Shift=    0.000
 RMSDP=6.93D-03 MaxDP=1.82D-01 DE= 3.57D-01 OVMax= 9.74D-01

 Cycle   3  Pass 0  IDiag  1:
 E= -345.404614195569     Delta-E=       -0.492999724529 Rises=F Damp=F
 DIIS: error= 3.59D-02 at cycle   3 NSaved=   3.
 NSaved= 3 IEnMin= 3 EnMin= -345.404614195569     IErMin= 3 ErrMin= 3.59D-02
 ErrMax= 3.59D-02  0.00D+00 EMaxC= 1.00D-01 BMatC= 1.25D-01 BMatP= 1.90D-01
 IDIUse=3 WtCom= 6.41D-01 WtEn= 3.59D-01
 EnCoef did     1 forward-backward iterations
 Coeff-Com:  0.271D+00 0.323D+00 0.406D+00
 Coeff-En:   0.205D+00 0.364D-01 0.758D+00
 Coeff:      0.248D+00 0.220D+00 0.532D+00
 Gap=     0.194 Goal=   None    Shift=    0.000
 RMSDP=3.93D-03 MaxDP=1.25D-01 DE=-4.93D-01 OVMax= 1.89D-01

 Cycle   4  Pass 0  IDiag  1:
 E= -345.491941806182     Delta-E=       -0.087327610613 Rises=F Damp=F
 DIIS: error= 2.06D-02 at cycle   4 NSaved=   4.
 NSaved= 4 IEnMin= 4 EnMin= -345.491941806182     IErMin= 4 ErrMin= 2.06D-02
 ErrMax= 2.06D-02  0.00D+00 EMaxC= 1.00D-01 BMatC= 4.65D-02 BMatP= 1.25D-01
 IDIUse=3 WtCom= 7.94D-01 WtEn= 2.06D-01
 Coeff-Com:  0.129D+00 0.142D+00 0.348D+00 0.381D+00
 Coeff-En:   0.000D+00 0.000D+00 0.233D+00 0.767D+00
 Coeff:      0.103D+00 0.113D+00 0.324D+00 0.461D+00
 Gap=     0.156 Goal=   None    Shift=    0.000
 RMSDP=1.75D-03 MaxDP=6.32D-02 DE=-8.73D-02 OVMax= 7.57D-02

 Cycle   5  Pass 0  IDiag  1:
 E= -345.519449479602     Delta-E=       -0.027507673420 Rises=F Damp=F
 DIIS: error= 9.84D-03 at cycle   5 NSaved=   5.
 NSaved= 5 IEnMin= 5 EnMin= -345.519449479602     IErMin= 5 ErrMin= 9.84D-03
 ErrMax= 9.84D-03  0.00D+00 EMaxC= 1.00D-01 BMatC= 8.28D-03 BMatP= 4.65D-02
 IDIUse=3 WtCom= 9.02D-01 WtEn= 9.84D-02
 Coeff-Com: -0.795D-02 0.252D-01 0.629D-01 0.311D+00 0.609D+00
 Coeff-En:   0.000D+00 0.000D+00 0.000D+00 0.225D+00 0.775D+00
 Coeff:     -0.717D-02 0.228D-01 0.567D-01 0.302D+00 0.625D+00
 Gap=     0.157 Goal=   None    Shift=    0.000
 RMSDP=6.83D-04 MaxDP=2.02D-02 DE=-2.75D-02 OVMax= 3.15D-02

 Cycle   6  Pass 0  IDiag  1:
 E= -345.526437620966     Delta-E=       -0.006988141364 Rises=F Damp=F
 DIIS: error= 1.55D-03 at cycle   6 NSaved=   6.
 NSaved= 6 IEnMin= 6 EnMin= -345.526437620966     IErMin= 6 ErrMin= 1.55D-03
 ErrMax= 1.55D-03  0.00D+00 EMaxC= 1.00D-01 BMatC= 3.37D-04 BMatP= 8.28D-03
 IDIUse=3 WtCom= 9.85D-01 WtEn= 1.55D-02
 Coeff-Com: -0.112D-01 0.734D-02 0.743D-02 0.115D+00 0.332D+00 0.550D+00
 Coeff-En:   0.000D+00 0.000D+00 0.000D+00 0.000D+00 0.000D+00 0.100D+01
 Coeff:     -0.110D-01 0.723D-02 0.732D-02 0.113D+00 0.326D+00 0.557D+00
 Gap=     0.159 Goal=   None    Shift=    0.000
 RMSDP=1.60D-04 MaxDP=4.54D-03 DE=-6.99D-03 OVMax= 7.51D-03

 Cycle   7  Pass 0  IDiag  1:
 E= -345.526717062025     Delta-E=       -0.000279441059 Rises=F Damp=F
 DIIS: error= 5.56D-04 at cycle   7 NSaved=   7.
 NSaved= 7 IEnMin= 7 EnMin= -345.526717062025     IErMin= 7 ErrMin= 5.56D-04
 ErrMax= 5.56D-04  0.00D+00 EMaxC= 1.00D-01 BMatC= 3.96D-05 BMatP= 3.37D-04
 IDIUse=3 WtCom= 9.94D-01 WtEn= 5.56D-03
 Coeff-Com: -0.505D-02 0.149D-02-0.460D-02 0.197D-01 0.103D+00 0.326D+00
 Coeff-Com:  0.560D+00
 Coeff-En:   0.000D+00 0.000D+00 0.000D+00 0.000D+00 0.000D+00 0.621D-01
 Coeff-En:   0.938D+00
 Coeff:     -0.502D-02 0.148D-02-0.458D-02 0.196D-01 0.102D+00 0.324D+00
 Coeff:      0.562D+00
 Gap=     0.159 Goal=   None    Shift=    0.000
 RMSDP=6.06D-05 MaxDP=1.29D-03 DE=-2.79D-04 OVMax= 2.96D-03

 Cycle   8  Pass 0  IDiag  1:
 E= -345.526752033331     Delta-E=       -0.000034971306 Rises=F Damp=F
 DIIS: error= 1.64D-04 at cycle   8 NSaved=   8.
 NSaved= 8 IEnMin= 8 EnMin= -345.526752033331     IErMin= 8 ErrMin= 1.64D-04
 ErrMax= 1.64D-04  0.00D+00 EMaxC= 1.00D-01 BMatC= 4.90D-06 BMatP= 3.96D-05
 IDIUse=3 WtCom= 9.98D-01 WtEn= 1.64D-03
 Coeff-Com: -0.158D-02 0.822D-03-0.279D-02-0.378D-03 0.243D-01 0.130D+00
 Coeff-Com:  0.327D+00 0.523D+00
 Coeff-En:   0.000D+00 0.000D+00 0.000D+00 0.000D+00 0.000D+00 0.000D+00
 Coeff-En:   0.692D-01 0.931D+00
 Coeff:     -0.157D-02 0.821D-03-0.279D-02-0.377D-03 0.243D-01 0.130D+00
 Coeff:      0.326D+00 0.524D+00
 Gap=     0.160 Goal=   None    Shift=    0.000
 RMSDP=1.87D-05 MaxDP=4.46D-04 DE=-3.50D-05 OVMax= 8.30D-04

 Cycle   9  Pass 0  IDiag  1:
 E= -345.526757141251     Delta-E=       -0.000005107919 Rises=F Damp=F
 DIIS: error= 4.70D-05 at cycle   9 NSaved=   9.
 NSaved= 9 IEnMin= 9 EnMin= -345.526757141251     IErMin= 9 ErrMin= 4.70D-05
 ErrMax= 4.70D-05  0.00D+00 EMaxC= 1.00D-01 BMatC= 2.00D-07 BMatP= 4.90D-06
 IDIUse=1 WtCom= 1.00D+00 WtEn= 0.00D+00
 Coeff-Com: -0.867D-04 0.147D-03-0.463D-03-0.145D-02-0.459D-02 0.708D-03
 Coeff-Com:  0.178D-01 0.144D+00 0.844D+00
 Coeff:     -0.867D-04 0.147D-03-0.463D-03-0.145D-02-0.459D-02 0.708D-03
 Coeff:      0.178D-01 0.144D+00 0.844D+00
 Gap=     0.160 Goal=   None    Shift=    0.000
 RMSDP=4.11D-06 MaxDP=1.09D-04 DE=-5.11D-06 OVMax= 2.65D-04

 Initial convergence to 1.0D-05 achieved.  Increase integral accuracy.
 Cycle  10  Pass 1  IDiag  1:
 E= -345.526760895715     Delta-E=       -0.000003754464 Rises=F Damp=F
 DIIS: error= 6.73D-06 at cycle   1 NSaved=   1.
 NSaved= 1 IEnMin= 1 EnMin= -345.526760895715     IErMin= 1 ErrMin= 6.73D-06
 ErrMax= 6.73D-06  0.00D+00 EMaxC= 1.00D-01 BMatC= 1.12D-08 BMatP= 1.12D-08
 IDIUse=1 WtCom= 1.00D+00 WtEn= 0.00D+00
 Coeff-Com:  0.100D+01
 Coeff:      0.100D+01
 Gap=     0.160 Goal=   None    Shift=    0.000
 RMSDP=4.11D-06 MaxDP=1.09D-04 DE=-3.75D-06 OVMax= 1.07D-04

 Cycle  11  Pass 1  IDiag  1:
 E= -345.526760881317     Delta-E=        0.000000014398 Rises=F Damp=F
 DIIS: error= 1.04D-05 at cycle   2 NSaved=   2.
 NSaved= 2 IEnMin= 1 EnMin= -345.526760895715     IErMin= 1 ErrMin= 6.73D-06
 ErrMax= 1.04D-05  0.00D+00 EMaxC= 1.00D-01 BMatC= 2.80D-08 BMatP= 1.12D-08
 IDIUse=1 WtCom= 1.00D+00 WtEn= 0.00D+00
 Coeff-Com:  0.620D+00 0.380D+00
 Coeff:      0.620D+00 0.380D+00
 Gap=     0.160 Goal=   None    Shift=    0.000
 RMSDP=1.27D-06 MaxDP=2.98D-05 DE= 1.44D-08 OVMax= 7.00D-05

 Cycle  12  Pass 1  IDiag  1:
 E= -345.526760907342     Delta-E=       -0.000000026025 Rises=F Damp=F
 DIIS: error= 3.45D-06 at cycle   3 NSaved=   3.
 NSaved= 3 IEnMin= 3 EnMin= -345.526760907342     IErMin= 3 ErrMin= 3.45D-06
 ErrMax= 3.45D-06  0.00D+00 EMaxC= 1.00D-01 BMatC= 1.32D-09 BMatP= 1.12D-08
 IDIUse=1 WtCom= 1.00D+00 WtEn= 0.00D+00
 Coeff-Com:  0.302D+00 0.218D+00 0.480D+00
 Coeff:      0.302D+00 0.218D+00 0.480D+00
 Gap=     0.160 Goal=   None    Shift=    0.000
 RMSDP=3.30D-07 MaxDP=1.16D-05 DE=-2.60D-08 OVMax= 1.77D-05

 Cycle  13  Pass 1  IDiag  1:
 E= -345.526760908286     Delta-E=       -0.000000000944 Rises=F Damp=F
 DIIS: error= 1.40D-06 at cycle   4 NSaved=   4.
 NSaved= 4 IEnMin= 4 EnMin= -345.526760908286     IErMin= 4 ErrMin= 1.40D-06
 ErrMax= 1.40D-06  0.00D+00 EMaxC= 1.00D-01 BMatC= 2.52D-10 BMatP= 1.32D-09
 IDIUse=1 WtCom= 1.00D+00 WtEn= 0.00D+00
 Coeff-Com:  0.414D-01 0.393D-01 0.312D+00 0.607D+00
 Coeff:      0.414D-01 0.393D-01 0.312D+00 0.607D+00
 Gap=     0.160 Goal=   None    Shift=    0.000
 RMSDP=1.25D-07 MaxDP=4.37D-06 DE=-9.44D-10 OVMax= 5.73D-06

 Cycle  14  Pass 1  IDiag  1:
 E= -345.526760908471     Delta-E=       -0.000000000185 Rises=F Damp=F
 DIIS: error= 4.41D-07 at cycle   5 NSaved=   5.
 NSaved= 5 IEnMin= 5 EnMin= -345.526760908471     IErMin= 5 ErrMin= 4.41D-07
 ErrMax= 4.41D-07  0.00D+00 EMaxC= 1.00D-01 BMatC= 3.90D-11 BMatP= 2.52D-10
 IDIUse=1 WtCom= 1.00D+00 WtEn= 0.00D+00
 Coeff-Com: -0.125D-01-0.381D-02 0.139D+00 0.395D+00 0.482D+00
 Coeff:     -0.125D-01-0.381D-02 0.139D+00 0.395D+00 0.482D+00
 Gap=     0.160 Goal=   None    Shift=    0.000
 RMSDP=5.35D-08 MaxDP=1.26D-06 DE=-1.85D-10 OVMax= 2.99D-06

 SCF Done:  E(RB3LYP) =  -345.526760908     A.U. after   14 cycles
            NFock= 14  Conv=0.54D-07     -V/T= 2.0093
 KE= 3.423322501214D+02 PE=-1.430480163477D+03 EE= 4.287201234100D+02
 Leave Link  502 at Wed Dec 03 16:48:08 2025, MaxMem=   104857600 cpu:               9.0 elap:               8.4
 (Enter D:\Gaussian\G16W\l601.exe)
 Copying SCF densities to generalized density rwf, IOpCl= 0 IROHF=0.

 **********************************************************************

            Population analysis using the SCF density.

 **********************************************************************

 Orbital symmetries:
       Occupied  (A) (A) (A) (A) (A) (A) (A) (A) (A) (A) (A) (A)
                 (A) (A) (A) (A) (A) (A) (A) (A) (A) (A) (A) (A)
                 (A) (A) (A) (A)
       Virtual   (A) (A) (A) (A) (A) (A) (A) (A) (A) (A) (A) (A)
                 (A) (A) (A) (A) (A) (A) (A) (A) (A) (A) (A) (A)
                 (A) (A) (A) (A) (A) (A) (A) (A) (A) (A) (A) (A)
                 (A) (A) (A) (A) (A) (A) (A) (A) (A) (A) (A) (A)
                 (A) (A) (A) (A) (A) (A) (A) (A) (A) (A) (A) (A)
                 (A) (A) (A) (A) (A) (A) (A) (A) (A) (A) (A) (A)
                 (A) (A) (A) (A) (A) (A) (A) (A) (A) (A) (A) (A)
                 (A) (A) (A) (A) (A) (A) (A) (A) (A) (A) (A) (A)
                 (A) (A) (A) (A) (A) (A) (A) (A)
 The electronic state is 1-A.
 Alpha  occ. eigenvalues --  -19.24476 -10.33548 -10.21391 -10.19048 -10.18534
 Alpha  occ. eigenvalues --  -10.18460 -10.18035 -10.17679  -1.14703  -0.87172
 Alpha  occ. eigenvalues --   -0.77530  -0.72717  -0.68257  -0.59731  -0.53691
 Alpha  occ. eigenvalues --   -0.53407  -0.51310  -0.47502  -0.46578  -0.43104
 Alpha  occ. eigenvalues --   -0.41447  -0.39726  -0.39155  -0.36445  -0.35106
 Alpha  occ. eigenvalues --   -0.34956  -0.22914  -0.21042
 Alpha virt. eigenvalues --   -0.05074  -0.03220   0.07899   0.11019   0.12155
 Alpha virt. eigenvalues --    0.12988   0.14989   0.15745   0.17404   0.17983
 Alpha virt. eigenvalues --    0.19297   0.24109   0.27210   0.28249   0.34924
 Alpha virt. eigenvalues --    0.37781   0.41972   0.46705   0.48713   0.51330
 Alpha virt. eigenvalues --    0.53825   0.54306   0.56632   0.56962   0.58282
 Alpha virt. eigenvalues --    0.60110   0.64687   0.64828   0.66904   0.69770
 Alpha virt. eigenvalues --    0.71494   0.71715   0.74247   0.77160   0.77518
 Alpha virt. eigenvalues --    0.82192   0.84544   0.85057   0.88133   0.88941
 Alpha virt. eigenvalues --    0.90408   0.95230   0.96217   0.98015   0.98839
 Alpha virt. eigenvalues --    1.03341   1.04405   1.10829   1.16353   1.19571
 Alpha virt. eigenvalues --    1.22392   1.30882   1.31889   1.34256   1.37524
 Alpha virt. eigenvalues --    1.41911   1.46758   1.48168   1.49067   1.49758
 Alpha virt. eigenvalues --    1.52406   1.52796   1.69266   1.73867   1.77459
 Alpha virt. eigenvalues --    1.81544   1.86373   1.87105   1.90568   1.92363
 Alpha virt. eigenvalues --    1.94836   1.96880   2.00662   2.02267   2.11666
 Alpha virt. eigenvalues --    2.13133   2.16997   2.19930   2.23021   2.25301
 Alpha virt. eigenvalues --    2.29990   2.35776   2.38925   2.45580   2.48902
 Alpha virt. eigenvalues --    2.52908   2.63319   2.73708   2.74316   2.82665
 Alpha virt. eigenvalues --    2.88901   2.91823   2.96086   3.05239   3.22938
 Alpha virt. eigenvalues --    3.31077   4.07506   4.11842   4.14767   4.19201
 Alpha virt. eigenvalues --    4.26787   4.52494   4.57514   4.79463
          Condensed to atoms (all electrons):
               1          2          3          4          5          6
     1  C    5.001192   0.538096   0.012825  -0.046244  -0.045956   0.468984
     2  C    0.538096   5.003780  -0.074292   0.446732  -0.081412  -0.031616
     3  C    0.012825  -0.074292   4.856510   0.344377  -0.062637   0.006965
     4  C   -0.046244   0.446732   0.344377   4.947475   0.411293  -0.013081
     5  C   -0.045956  -0.081412  -0.062637   0.411293   5.079374   0.569496
     6  C    0.468984  -0.031616   0.006965  -0.013081   0.569496   4.673507
     7  H    0.361010  -0.051194  -0.000220   0.004653   0.009705  -0.048849
     8  H   -0.042636   0.367946  -0.007662  -0.050913   0.006398   0.003735
     9  O   -0.000035  -0.000099   0.628907  -0.047196  -0.000153  -0.000023
    10  H    0.007019   0.005315  -0.007171  -0.054535   0.365639  -0.043542
    11  C   -0.078450   0.011191  -0.000406   0.005435  -0.068795   0.356924
    12  H   -0.001166  -0.000177   0.000007   0.000046   0.000329  -0.027319
    13  H   -0.001165  -0.000178   0.000007   0.000047   0.000326  -0.027319
    14  H    0.003785  -0.000075   0.000000  -0.000186  -0.003599  -0.025355
               7          8          9         10         11         12
     1  C    0.361010  -0.042636  -0.000035   0.007019  -0.078450  -0.001166
     2  C   -0.051194   0.367946  -0.000099   0.005315   0.011191  -0.000177
     3  C   -0.000220  -0.007662   0.628907  -0.007171  -0.000406   0.000007
     4  C    0.004653  -0.050913  -0.047196  -0.054535   0.005435   0.000046
     5  C    0.009705   0.006398  -0.000153   0.365639  -0.068795   0.000329
     6  C   -0.048849   0.003735  -0.000023  -0.043542   0.356924  -0.027319
     7  H    0.606812  -0.002884   0.000000  -0.000122  -0.004682   0.001230
     8  H   -0.002884   0.591171   0.000235  -0.000057  -0.000136  -0.000002
     9  O    0.000000   0.000235   7.750779   0.000206   0.000000   0.000000
    10  H   -0.000122  -0.000057   0.000206   0.600122  -0.006045  -0.000003
    11  C   -0.004682  -0.000136   0.000000  -0.006045   5.223900   0.361893
    12  H    0.001230  -0.000002   0.000000  -0.000003   0.361893   0.570980
    13  H    0.001228  -0.000002   0.000000  -0.000003   0.361893  -0.036422
    14  H   -0.000059   0.000003   0.000000   0.004493   0.364790  -0.028531
              13         14
     1  C   -0.001165   0.003785
     2  C   -0.000178  -0.000075
     3  C    0.000007   0.000000
     4  C    0.000047  -0.000186
     5  C    0.000326  -0.003599
     6  C   -0.027319  -0.025355
     7  H    0.001228  -0.000059
     8  H   -0.000002   0.000003
     9  O    0.000000   0.000000
    10  H   -0.000003   0.004493
    11  C    0.361893   0.364790
    12  H   -0.036422  -0.028531
    13  H    0.570979  -0.028531
    14  H   -0.028531   0.559357
 Mulliken charges:
               1
     1  C   -0.177261
     2  C   -0.134017
     3  C    0.302790
     4  C    0.052096
     5  C   -0.180009
     6  C    0.137493
     7  H    0.123372
     8  H    0.134805
     9  O   -0.332621
    10  H    0.128684
    11  C   -0.527514
    12  H    0.159135
    13  H    0.159139
    14  H    0.153907
 Sum of Mulliken charges =   0.00000
 Mulliken charges with hydrogens summed into heavy atoms:
               1
     1  C   -0.053889
     2  C    0.000788
     3  C    0.302790
     4  C    0.052096
     5  C   -0.051325
     6  C    0.137493
     9  O   -0.332621
    11  C   -0.055332
 Electronic spatial extent (au):  <R**2>=           1062.4707
 Charge=              0.0000 electrons
 Dipole moment (field-independent basis, Debye):
    X=              0.4676    Y=              0.0285    Z=              0.0001  Tot=              0.4684
 Quadrupole moment (field-independent basis, Debye-Ang):
   XX=            -45.9626   YY=            -42.1370   ZZ=            -48.1271
   XY=             -1.0772   XZ=              0.0003   YZ=             -0.0001
 Traceless Quadrupole moment (field-independent basis, Debye-Ang):
   XX=             -0.5537   YY=              3.2719   ZZ=             -2.7182
   XY=             -1.0772   XZ=              0.0003   YZ=             -0.0001
 Octapole moment (field-independent basis, Debye-Ang**2):
  XXX=             10.6841  YYY=             -1.8261  ZZZ=              0.0010  XYY=             -5.1267
  XXY=              5.4539  XXZ=             -0.0002  XZZ=             -5.0112  YZZ=             -1.8471
  YYZ=             -0.0001  XYZ=              0.0000
 Hexadecapole moment (field-independent basis, Debye-Ang**3):
 XXXX=          -1098.4036 YYYY=           -253.6813 ZZZZ=            -54.6308 XXXY=             -5.0450
 XXXZ=              0.0013 YYYX=              5.0765 YYYZ=              0.0001 ZZZX=              0.0003
 ZZZY=             -0.0007 XXYY=           -210.2985 XXZZ=           -178.5992 YYZZ=            -60.1457
 XXYZ=             -0.0002 YYXZ=             -0.0003 ZZXY=              2.6653
 N-N= 3.139010290375D+02 E-N=-1.430480157800D+03  KE= 3.423322501214D+02
 No NMR shielding tensors so no spin-rotation constants.
 Leave Link  601 at Wed Dec 03 16:48:08 2025, MaxMem=   104857600 cpu:               0.0 elap:               0.1
 (Enter D:\Gaussian\G16W\l9999.exe)
 1|1|UNPC-PC-20250526LCFF|SP|RB3LYP|6-31G(d)|C7H6O1|ADMINISTRATOR|03-De
 c-2025|0||#P B3LYP/6-31G* SCF=conver=7 out=wfn||Generated by Multiwfn 
 (http://sobereva.com/multiwfn)||0,1|C,0,1.10904606,1.24234013,0.000028
 05|C,0,-0.24322294,1.4002171,-0.00001195|C,0,-2.11205791,-0.23383394,0
 .00000405|C,0,-0.81886591,0.05827409,-0.00007195|C,0,0.28770011,-0.894
 99989,-0.00005795|C,0,1.4463871,-0.17264786,-0.00000195|H,0,1.83149904
 ,2.04799115,0.00006205|H,0,-0.81034296,2.31823609,-0.00005895|O,0,-3.2
 390389,-0.48773396,0.00005105|H,0,0.17931213,-1.96918489,-0.00000695|C
 ,0,2.8424421,-0.71898883,0.00002805|H,0,3.4008381,-0.38305682,-0.88031
 695|H,0,3.4006881,-0.38339882,0.88059806|H,0,2.84174513,-1.81087983,-0
 .00018395||Version=EM64W-G16RevA.03|State=1-A|HF=-345.5267609|RMSD=5.3
 52e-008|Dipole=0.18396,0.0112203,0.0000226|Quadrupole=-0.411648,2.4325
 651,-2.0209171,-0.8008835,0.0002059,-0.0000694|PG=C01 [X(C7H6O1)]||@

 Writing a WFN file to "N.wfn"


 LORD, MAN... WERE YE BUT WHYLES WHERE I AM, 
 THE GENTILES YE WAD NE'ER ENVY 'EM.        
 IT'S TRUE, THEY NEEDNA STARVE OR SWEAT,     
 THRO' WINTER'S CAULD OR SIMMER'S HEAT...  
 THEY'VE NAE SAIR WARK TO CRAZE THEIR BANES, 
 AND FILL AULD AGE WITH GRIPS AN' GRANES...  
                                             
 BUT HUMAN BODIES ARE SIC FOOLS              
 FOR A' THEIR COLLEGES AND SCHOOLS,           
 THAT WHEN NAE REAL ILLS PERPLEX THEM,       
 THEY MAK ENOW THEMSELVES TO VEX THEM,       
 AN' AYE THE LESS THEY HAE TO STURT THEM,    
 IN LIKE PROPORTION LESS WILL HURT THEM....  
                                             
                (ROBERT BURNS 'THE TWA DOGS')
 Job cpu time:       0 days  0 hours  0 minutes 10.0 seconds.
 Elapsed time:       0 days  0 hours  0 minutes  9.9 seconds.
 File lengths (MBytes):  RWF=     10 Int=      0 D2E=      0 Chk=      2 Scr=      1
 Normal termination of Gaussian 16 at Wed Dec 03 16:48:08 2025.
