 Generated by Multiwfn (http://sobereva.com/multiwfn)
GAUSSIAN             28 MOL ORBITALS    248 PRIMITIVES       14 NUCLEI
  C    1    (CENTRE  1)   2.09579331  2.34768260  0.00005301  CHARGE =  6.0
  C    2    (CENTRE  2)  -0.45962474  2.64602683 -0.00002258  CHARGE =  6.0
  C    3    (CENTRE  3)  -3.99121101 -0.44188210  0.00000766  CHARGE =  6.0
  C    4    (CENTRE  4)  -1.54743230  0.11012207 -0.00013596  CHARGE =  6.0
  C    5    (CENTRE  5)   0.54367441 -1.69130467 -0.00010950  CHARGE =  6.0
  C    6    (CENTRE  6)   2.73327549 -0.32625717 -0.00000368  CHARGE =  6.0
  H    7    (CENTRE  7)   3.46103158  3.87014238  0.00011726  CHARGE =  1.0
  H    8    (CENTRE  8)  -1.53132626  4.38083130 -0.00011139  CHARGE =  1.0
  O    9    (CENTRE  9)  -6.12089643 -0.92168361  0.00009648  CHARGE =  8.0
  H   10    (CENTRE 10)   0.33885082 -3.72122013 -0.00001313  CHARGE =  1.0
  C   11    (CENTRE 11)   5.37143709 -1.35869198  0.00005301  CHARGE =  6.0
  H   12    (CENTRE 12)   6.42665260 -0.72387248 -1.66355793  CHARGE =  1.0
  H   13    (CENTRE 13)   6.42636914 -0.72451877  1.66408917  CHARGE =  1.0
  H   14    (CENTRE 14)   5.37012001 -3.42206692 -0.00034761  CHARGE =  1.0
CENTRE ASSIGNMENTS    1  1  1  1  1  1  1  1  1  1  1  1  1  1  1  1  1  1  1  1
CENTRE ASSIGNMENTS    1  1  1  1  1  1  1  1  2  2  2  2  2  2  2  2  2  2  2  2
CENTRE ASSIGNMENTS    2  2  2  2  2  2  2  2  2  2  2  2  2  2  2  2  3  3  3  3
CENTRE ASSIGNMENTS    3  3  3  3  3  3  3  3  3  3  3  3  3  3  3  3  3  3  3  3
CENTRE ASSIGNMENTS    3  3  3  3  4  4  4  4  4  4  4  4  4  4  4  4  4  4  4  4
CENTRE ASSIGNMENTS    4  4  4  4  4  4  4  4  4  4  4  4  5  5  5  5  5  5  5  5
CENTRE ASSIGNMENTS    5  5  5  5  5  5  5  5  5  5  5  5  5  5  5  5  5  5  5  5
CENTRE ASSIGNMENTS    6  6  6  6  6  6  6  6  6  6  6  6  6  6  6  6  6  6  6  6
CENTRE ASSIGNMENTS    6  6  6  6  6  6  6  6  7  7  7  7  8  8  8  8  9  9  9  9
CENTRE ASSIGNMENTS    9  9  9  9  9  9  9  9  9  9  9  9  9  9  9  9  9  9  9  9
CENTRE ASSIGNMENTS    9  9  9  9 10 10 10 10 11 11 11 11 11 11 11 11 11 11 11 11
CENTRE ASSIGNMENTS   11 11 11 11 11 11 11 11 11 11 11 11 11 11 11 11 12 12 12 12
CENTRE ASSIGNMENTS   13 13 13 13 14 14 14 14
TYPE ASSIGNMENTS      1  1  1  1  1  1  1  1  1  2  2  2  3  3  3  4  4  4  1  2
TYPE ASSIGNMENTS      3  4  5  6  7  8  9 10  1  1  1  1  1  1  1  1  1  2  2  2
TYPE ASSIGNMENTS      3  3  3  4  4  4  1  2  3  4  5  6  7  8  9 10  1  1  1  1
TYPE ASSIGNMENTS      1  1  1  1  1  2  2  2  3  3  3  4  4  4  1  2  3  4  5  6
TYPE ASSIGNMENTS      7  8  9 10  1  1  1  1  1  1  1  1  1  2  2  2  3  3  3  4
TYPE ASSIGNMENTS      4  4  1  2  3  4  5  6  7  8  9 10  1  1  1  1  1  1  1  1
TYPE ASSIGNMENTS      1  2  2  2  3  3  3  4  4  4  1  2  3  4  5  6  7  8  9 10
TYPE ASSIGNMENTS      1  1  1  1  1  1  1  1  1  2  2  2  3  3  3  4  4  4  1  2
TYPE ASSIGNMENTS      3  4  5  6  7  8  9 10  1  1  1  1  1  1  1  1  1  1  1  1
TYPE ASSIGNMENTS      1  1  1  1  1  2  2  2  3  3  3  4  4  4  1  2  3  4  5  6
TYPE ASSIGNMENTS      7  8  9 10  1  1  1  1  1  1  1  1  1  1  1  1  1  2  2  2
TYPE ASSIGNMENTS      3  3  3  4  4  4  1  2  3  4  5  6  7  8  9 10  1  1  1  1
TYPE ASSIGNMENTS      1  1  1  1  1  1  1  1
EXPONENTS  0.3047525D+04 0.4573695D+03 0.1039487D+03 0.2921016D+02 0.9286663D+01
EXPONENTS  0.3163927D+01 0.7868272D+01 0.1881289D+01 0.5442493D+00 0.7868272D+01
EXPONENTS  0.1881289D+01 0.5442493D+00 0.7868272D+01 0.1881289D+01 0.5442493D+00
EXPONENTS  0.7868272D+01 0.1881289D+01 0.5442493D+00 0.1687145D+00 0.1687145D+00
EXPONENTS  0.1687145D+00 0.1687145D+00 0.8000000D+00 0.8000000D+00 0.8000000D+00
EXPONENTS  0.8000000D+00 0.8000000D+00 0.8000000D+00 0.3047525D+04 0.4573695D+03
EXPONENTS  0.1039487D+03 0.2921016D+02 0.9286663D+01 0.3163927D+01 0.7868272D+01
EXPONENTS  0.1881289D+01 0.5442493D+00 0.7868272D+01 0.1881289D+01 0.5442493D+00
EXPONENTS  0.7868272D+01 0.1881289D+01 0.5442493D+00 0.7868272D+01 0.1881289D+01
EXPONENTS  0.5442493D+00 0.1687145D+00 0.1687145D+00 0.1687145D+00 0.1687145D+00
EXPONENTS  0.8000000D+00 0.8000000D+00 0.8000000D+00 0.8000000D+00 0.8000000D+00
EXPONENTS  0.8000000D+00 0.3047525D+04 0.4573695D+03 0.1039487D+03 0.2921016D+02
EXPONENTS  0.9286663D+01 0.3163927D+01 0.7868272D+01 0.1881289D+01 0.5442493D+00
EXPONENTS  0.7868272D+01 0.1881289D+01 0.5442493D+00 0.7868272D+01 0.1881289D+01
EXPONENTS  0.5442493D+00 0.7868272D+01 0.1881289D+01 0.5442493D+00 0.1687145D+00
EXPONENTS  0.1687145D+00 0.1687145D+00 0.1687145D+00 0.8000000D+00 0.8000000D+00
EXPONENTS  0.8000000D+00 0.8000000D+00 0.8000000D+00 0.8000000D+00 0.3047525D+04
EXPONENTS  0.4573695D+03 0.1039487D+03 0.2921016D+02 0.9286663D+01 0.3163927D+01
EXPONENTS  0.7868272D+01 0.1881289D+01 0.5442493D+00 0.7868272D+01 0.1881289D+01
EXPONENTS  0.5442493D+00 0.7868272D+01 0.1881289D+01 0.5442493D+00 0.7868272D+01
EXPONENTS  0.1881289D+01 0.5442493D+00 0.1687145D+00 0.1687145D+00 0.1687145D+00
EXPONENTS  0.1687145D+00 0.8000000D+00 0.8000000D+00 0.8000000D+00 0.8000000D+00
EXPONENTS  0.8000000D+00 0.8000000D+00 0.3047525D+04 0.4573695D+03 0.1039487D+03
EXPONENTS  0.2921016D+02 0.9286663D+01 0.3163927D+01 0.7868272D+01 0.1881289D+01
EXPONENTS  0.5442493D+00 0.7868272D+01 0.1881289D+01 0.5442493D+00 0.7868272D+01
EXPONENTS  0.1881289D+01 0.5442493D+00 0.7868272D+01 0.1881289D+01 0.5442493D+00
EXPONENTS  0.1687145D+00 0.1687145D+00 0.1687145D+00 0.1687145D+00 0.8000000D+00
EXPONENTS  0.8000000D+00 0.8000000D+00 0.8000000D+00 0.8000000D+00 0.8000000D+00
EXPONENTS  0.3047525D+04 0.4573695D+03 0.1039487D+03 0.2921016D+02 0.9286663D+01
EXPONENTS  0.3163927D+01 0.7868272D+01 0.1881289D+01 0.5442493D+00 0.7868272D+01
EXPONENTS  0.1881289D+01 0.5442493D+00 0.7868272D+01 0.1881289D+01 0.5442493D+00
EXPONENTS  0.7868272D+01 0.1881289D+01 0.5442493D+00 0.1687145D+00 0.1687145D+00
EXPONENTS  0.1687145D+00 0.1687145D+00 0.8000000D+00 0.8000000D+00 0.8000000D+00
EXPONENTS  0.8000000D+00 0.8000000D+00 0.8000000D+00 0.1873114D+02 0.2825394D+01
EXPONENTS  0.6401217D+00 0.1612778D+00 0.1873114D+02 0.2825394D+01 0.6401217D+00
EXPONENTS  0.1612778D+00 0.5484672D+04 0.8252349D+03 0.1880470D+03 0.5296450D+02
EXPONENTS  0.1689757D+02 0.5799635D+01 0.1553962D+02 0.3599934D+01 0.1013762D+01
EXPONENTS  0.1553962D+02 0.3599934D+01 0.1013762D+01 0.1553962D+02 0.3599934D+01
EXPONENTS  0.1013762D+01 0.1553962D+02 0.3599934D+01 0.1013762D+01 0.2700058D+00
EXPONENTS  0.2700058D+00 0.2700058D+00 0.2700058D+00 0.8000000D+00 0.8000000D+00
EXPONENTS  0.8000000D+00 0.8000000D+00 0.8000000D+00 0.8000000D+00 0.1873114D+02
EXPONENTS  0.2825394D+01 0.6401217D+00 0.1612778D+00 0.3047525D+04 0.4573695D+03
EXPONENTS  0.1039487D+03 0.2921016D+02 0.9286663D+01 0.3163927D+01 0.7868272D+01
EXPONENTS  0.1881289D+01 0.5442493D+00 0.7868272D+01 0.1881289D+01 0.5442493D+00
EXPONENTS  0.7868272D+01 0.1881289D+01 0.5442493D+00 0.7868272D+01 0.1881289D+01
EXPONENTS  0.5442493D+00 0.1687145D+00 0.1687145D+00 0.1687145D+00 0.1687145D+00
EXPONENTS  0.8000000D+00 0.8000000D+00 0.8000000D+00 0.8000000D+00 0.8000000D+00
EXPONENTS  0.8000000D+00 0.1873114D+02 0.2825394D+01 0.6401217D+00 0.1612778D+00
EXPONENTS  0.1873114D+02 0.2825394D+01 0.6401217D+00 0.1612778D+00 0.1873114D+02
EXPONENTS  0.2825394D+01 0.6401217D+00 0.1612778D+00
MO    1     MO 0.0        OCC NO =    2.0000000  ORB. ENERGY =  -19.244756
  0.31684439D-05  0.58451604D-05  0.94359012D-05  0.12282740D-04  0.10480884D-04
  0.36187974D-05 -0.90000905D-05 -0.41481335D-05  0.11631799D-04 -0.81942140D-05
 -0.62828035D-05 -0.31355593D-05 -0.20595844D-04 -0.15791587D-04 -0.78811087D-05
 -0.70609476D-08 -0.54138868D-08 -0.27019089D-08  0.28982041D-04  0.24444393D-05
  0.12650714D-04  0.13472686D-08  0.57642785D-05  0.47735645D-05  0.17872595D-04
  0.41728265D-05 -0.40680652D-08 -0.70509948D-08  0.28554034D-05  0.52676617D-05
  0.85036393D-05  0.11069212D-04  0.94453784D-05  0.32612622D-05 -0.29109855D-04
 -0.13416706D-04  0.37621843D-04 -0.30214285D-04 -0.23166397D-04 -0.11561656D-04
  0.23442352D-04  0.17974109D-04  0.89703399D-05  0.55591405D-08  0.42623963D-08
  0.21272345D-08 -0.53925877D-04 -0.36203653D-04  0.31194475D-04  0.48587651D-08
 -0.51097425D-07 -0.93789934D-04  0.26537917D-04  0.72951011D-04  0.12582531D-07
 -0.37031619D-07 -0.92082231D-04 -0.16987374D-03 -0.27422888D-03 -0.35696452D-03
 -0.30459848D-03 -0.10517053D-03  0.51489822D-04  0.23731612D-04 -0.66545916D-04
  0.30609335D-03  0.23469297D-03  0.11712824D-03  0.68576111D-04  0.52579812D-04
  0.26241011D-04 -0.35945551D-08 -0.27560768D-08 -0.13754755D-08 -0.19551588D-05
  0.12929287D-02  0.29038739D-03 -0.64571333D-07 -0.22988445D-02 -0.39279614D-03
 -0.29023166D-03 -0.90648042D-03  0.18722434D-06  0.42436500D-07  0.35490121D-04
  0.65472343D-04  0.10569266D-03  0.13758044D-03  0.11739764D-03  0.40534584D-04
 -0.49134547D-04 -0.22646068D-04  0.63501938D-04 -0.67946376D-03 -0.52096972D-03
 -0.26000040D-03 -0.15273939D-03 -0.11711087D-03 -0.58446534D-04  0.48060046D-07
  0.36849395D-07  0.18390430D-07 -0.11777486D-02  0.52148674D-03  0.12213728D-03
 -0.33928160D-07  0.83026726D-03  0.87249031D-04  0.74992733D-04  0.35368876D-03
 -0.79937817D-07 -0.18447772D-07  0.25947581D-05  0.47868221D-05  0.77274150D-05
  0.10058798D-04  0.85831908D-05  0.29635695D-05 -0.27688410D-04 -0.12761563D-04
  0.35784755D-04 -0.96753450D-05 -0.74184409D-05 -0.37023219D-05 -0.32212159D-04
 -0.24698240D-04 -0.12326153D-04  0.28788034D-08  0.22072839D-08  0.11015894D-08
 -0.24614452D-04 -0.18573256D-04 -0.29474152D-04  0.45979988D-08  0.10971935D-04
 -0.10367777D-03  0.26301647D-04  0.37789163D-04 -0.48916765D-08  0.26588305D-07
  0.25789548D-05  0.47576681D-05  0.76803515D-05  0.99975355D-05  0.85309152D-05
  0.29455200D-05 -0.76567879D-05 -0.35290065D-05  0.98957027D-05 -0.30569745D-04
 -0.23438941D-04 -0.11697674D-04  0.18826743D-04  0.14435153D-04  0.72041529D-05
 -0.96664146D-08 -0.74115936D-08 -0.36989046D-08  0.18093547D-04  0.55343960D-04
 -0.27431214D-04  0.41051927D-08  0.85650491D-05 -0.32013737D-05  0.14546201D-04
 -0.60966629D-05 -0.32332377D-08  0.31130364D-08 -0.25079021D-05 -0.42538766D-05
 -0.48428881D-05 -0.10894636D-04 -0.10743123D-05 -0.18222370D-05 -0.20745524D-05
 -0.16581760D-04  0.82556847D+00  0.15194867D+01  0.24588163D+01  0.32321828D+01
  0.27722244D+01  0.94787062D+00 -0.15563665D-01 -0.69444772D-02  0.20507134D-01
  0.50608398D-02  0.38991042D-02  0.17119168D-02  0.11402536D-02  0.87850390D-03
  0.38571053D-03 -0.21600633D-06 -0.16642123D-06 -0.73067884D-07  0.51110034D-02
  0.79071152D-03  0.17865687D-03 -0.25955267D-07 -0.84271713D-02 -0.96000114D-02
 -0.96502466D-02  0.55713495D-03 -0.87189704D-07 -0.20192374D-07 -0.40513790D-06
 -0.68719056D-06 -0.78234216D-06 -0.12384339D-04  0.23442685D-05  0.43247176D-05
  0.69814352D-05  0.90877542D-05  0.77545971D-05  0.26774760D-05 -0.10711894D-04
 -0.49371020D-05  0.13844149D-04  0.18078072D-04  0.13861119D-04  0.69176699D-05
 -0.65330437D-05 -0.50091236D-05 -0.24999037D-05  0.52801210D-08  0.40484619D-08
  0.20204662D-08 -0.61227290D-04  0.19379574D-04 -0.75923486D-05 -0.30192494D-08
 -0.67417231D-05  0.40929756D-05  0.51758282D-05  0.11857812D-04 -0.43559070D-09
 -0.30437330D-08  0.19849305D-05  0.33668179D-05  0.38330032D-05  0.13564096D-05
  0.19860826D-05  0.33687720D-05  0.38352278D-05  0.13592178D-05  0.18818282D-05
  0.31919369D-05  0.36339073D-05  0.12336272D-05
MO    2     MO 0.0        OCC NO =    2.0000000  ORB. ENERGY =  -10.335478
 -0.21426312D-04 -0.39527362D-04 -0.63809418D-04 -0.83060903D-04 -0.70876019D-04
 -0.24471786D-04  0.81533351D-04  0.37578647D-04 -0.10537445D-03 -0.63732712D-04
 -0.48866201D-04 -0.24387659D-04  0.28456794D-04  0.21818865D-04  0.10889143D-04
  0.17322369D-07  0.13281694D-07  0.66284961D-08  0.20869069D-03 -0.84550852D-04
 -0.45102285D-04 -0.87081324D-08  0.83472745D-04 -0.15209344D-04 -0.89242861D-04
  0.29488640D-04  0.31907993D-07  0.18787192D-07 -0.50669928D-05 -0.93476123D-05
 -0.15089945D-04 -0.19642624D-04 -0.16761087D-04 -0.57872005D-05  0.47609453D-04
  0.21943154D-04 -0.61530893D-04  0.20908870D-03  0.16031595D-03  0.80008895D-04
 -0.12149884D-04 -0.93157601D-05 -0.46492172D-05 -0.23948884D-07 -0.18362485D-07
 -0.91641672D-08  0.19344380D-04 -0.69368979D-04 -0.73008104D-04 -0.10251214D-07
 -0.10006962D-03  0.18139904D-03 -0.78081110D-04 -0.27346804D-04 -0.37120824D-07
  0.59644302D-07  0.53259135D+00  0.98252705D+00  0.15861033D+01  0.20646352D+01
  0.17617570D+01  0.60829235D+00 -0.20207556D-01 -0.93136441D-02  0.26116430D-01
 -0.20786511D-02 -0.15937779D-02 -0.79540685D-03 -0.46810316D-03 -0.35891181D-03
 -0.17912215D-03  0.51565610D-07  0.39537239D-07  0.19731853D-07 -0.26667920D-02
 -0.25980092D-02 -0.58357971D-03  0.14521087D-06 -0.78781742D-02 -0.10808182D-01
 -0.10929445D-01  0.13933037D-02 -0.29194881D-06 -0.67462160D-07  0.18231460D-02
  0.33633483D-02  0.54294870D-02  0.70675789D-02  0.60307779D-02  0.20822827D-02
  0.29360924D-03  0.13532423D-03 -0.37946326D-03  0.11103611D-02  0.85135444D-03
  0.42488553D-03  0.24592402D-03  0.18855894D-03  0.94104127D-04 -0.62234149D-07
 -0.47717198D-07 -0.23814226D-07  0.31163852D-02 -0.14992550D-02 -0.34160738D-03
  0.81075570D-07 -0.85075452D-03 -0.37737179D-03 -0.27196473D-03 -0.22693645D-03
  0.36084028D-07  0.47728104D-08 -0.30518929D-05 -0.56301464D-05 -0.90888020D-05
 -0.11830920D-04 -0.10095345D-04 -0.34856801D-05  0.35706931D-04  0.16457292D-04
 -0.46147964D-04  0.16168778D-03  0.12397194D-03  0.61870685D-04  0.88505189D-04
  0.67860165D-04  0.33866978D-04 -0.19205695D-07 -0.14725709D-07 -0.73491606D-08
 -0.10774394D-03 -0.12982964D-03  0.44860093D-05 -0.87525355D-08 -0.70436513D-04
  0.13757080D-03 -0.68936393D-04 -0.22508178D-03 -0.11372530D-07 -0.56559219D-07
 -0.18153705D-04 -0.33490041D-04 -0.54063311D-04 -0.70374367D-04 -0.60050575D-04
 -0.20734020D-04  0.71198011D-04  0.32815098D-04 -0.92016961D-04  0.69663495D-05
  0.53413550D-05  0.26657105D-05 -0.38126554D-04 -0.29233024D-04 -0.14589328D-04
  0.29223019D-07  0.22406357D-07  0.11182343D-07  0.18496737D-03 -0.24654191D-03
 -0.43666096D-04 -0.23983213D-07  0.83224007D-04 -0.88947069D-05 -0.74584386D-04
  0.70641543D-04  0.25344155D-07  0.18898837D-08 -0.39012823D-05 -0.66173131D-05
 -0.75335771D-05  0.35735003D-04 -0.19066099D-04 -0.32339712D-04 -0.36817620D-04
  0.32260801D-04  0.67103553D-04  0.12350636D-03  0.19985660D-03  0.26271710D-03
  0.22533093D-03  0.77044471D-04 -0.11922976D-02 -0.53200087D-03  0.15710057D-02
 -0.10501388D-02 -0.80907536D-03 -0.35522766D-03 -0.23375994D-03 -0.18009944D-03
 -0.79073353D-04  0.80203831D-07  0.61792728D-07  0.27130336D-07 -0.42577120D-02
 -0.13837320D-02 -0.31313573D-03  0.33370983D-07  0.28671161D-03  0.15069901D-02
  0.15574914D-02 -0.58103496D-03  0.66099316D-07  0.15621136D-07 -0.16398211D-04
 -0.27814469D-04 -0.31665790D-04  0.24660163D-04 -0.98965143D-05 -0.18257136D-04
 -0.29472679D-04 -0.38364671D-04 -0.32736643D-04 -0.11303176D-04  0.28175668D-04
  0.12986139D-04 -0.36414491D-04 -0.12818419D-04 -0.98283510D-05 -0.49050360D-05
 -0.12228041D-04 -0.93756864D-05 -0.46791246D-05 -0.21641689D-07 -0.16593475D-07
 -0.82813068D-08  0.15690195D-03 -0.41239785D-04  0.63753646D-04  0.16962033D-07
 -0.26215240D-04 -0.10116127D-04 -0.19684831D-04 -0.52777097D-04 -0.60820811D-08
  0.13712571D-09 -0.69759073D-05 -0.11832459D-04 -0.13470837D-04 -0.10565426D-04
 -0.69784698D-05 -0.11836806D-04 -0.13475785D-04 -0.10576878D-04 -0.29628046D-05
 -0.50254774D-05 -0.57213283D-05  0.29050795D-04
MO    3     MO 0.0        OCC NO =    2.0000000  ORB. ENERGY =  -10.213910
  0.10768959D-04  0.19866627D-04  0.32070896D-04  0.41746778D-04  0.35622601D-04
  0.12299628D-04 -0.40783263D-05 -0.18796968D-05  0.52708662D-05  0.17339635D-04
  0.13294933D-04  0.66351032D-05 -0.82942641D-04 -0.63595157D-04 -0.31738440D-04
 -0.16011358D-07 -0.12276494D-07 -0.61268310D-08 -0.15358190D-03  0.44551396D-04
  0.80167930D-04  0.36919525D-08  0.77583461D-04  0.33228729D-04  0.37221067D-04
  0.48214248D-04  0.57634099D-08 -0.12393296D-07  0.37594503D-02  0.69354517D-02
  0.11195969D-01  0.14573826D-01  0.12435872D-01  0.42938077D-02 -0.11824669D-04
 -0.54499791D-05  0.15282310D-04  0.46851661D-04  0.35922882D-04  0.17928036D-04
  0.35088239D-03  0.26903436D-03  0.13426700D-03  0.16858126D-07  0.12925741D-07
  0.64508509D-08  0.83049440D-03 -0.10187545D-03 -0.27491692D-03  0.83729329D-08
 -0.30392649D-03 -0.61193617D-03 -0.23474895D-03 -0.81083063D-04 -0.48412695D-08
 -0.97260227D-07 -0.21570398D-02 -0.39793173D-02 -0.64238519D-02 -0.83619465D-02
 -0.71352641D-02 -0.24636352D-02  0.28813731D-03  0.13280222D-03 -0.37239130D-03
 -0.87100116D-03 -0.66782844D-03 -0.33329320D-03 -0.19302498D-03 -0.14799931D-03
 -0.73862028D-04  0.59971406D-07  0.45982271D-07  0.22948376D-07  0.13364213D-02
  0.53780993D-03  0.12073678D-03 -0.87096682D-08 -0.88732232D-03 -0.30057951D-03
 -0.10212241D-03 -0.28104393D-03  0.12553090D-06  0.21515134D-07  0.53245400D+00
  0.98227366D+00  0.15856943D+01  0.20641028D+01  0.17613026D+01  0.60813547D+00
 -0.19939732D-01 -0.91902044D-02  0.25770293D-01 -0.12984305D-02 -0.99555413D-03
 -0.49685128D-03 -0.27179964D-03 -0.20839873D-03 -0.10400557D-03  0.23732664D-06
  0.18196701D-06  0.90814293D-07 -0.35458603D-02  0.28285396D-03  0.54521009D-04
 -0.93188802D-07 -0.96375107D-02 -0.10440491D-01 -0.10643888D-01  0.38211066D-03
 -0.60639719D-07 -0.87308433D-08  0.30051798D-02  0.55439699D-02  0.89496865D-02
  0.11649833D-01  0.99408232D-02  0.34323274D-02  0.22712222D-04  0.10468042D-04
 -0.29353484D-04  0.21059198D-03  0.16146857D-03  0.80584135D-04 -0.28915894D-03
 -0.22170874D-03 -0.11064820D-03  0.16394170D-08  0.12570009D-08  0.62733157D-09
  0.88451288D-03 -0.18338868D-03  0.19872488D-03  0.21133186D-07 -0.36596441D-03
 -0.50858243D-03 -0.22585982D-03  0.29222800D-03 -0.33599847D-07  0.52051056D-07
 -0.31506113D-05 -0.58122626D-05 -0.93827940D-05 -0.12213610D-04 -0.10421895D-04
 -0.35984301D-05  0.12973642D-04  0.59795396D-05 -0.16767253D-04 -0.41450582D-04
 -0.31781677D-04 -0.15861284D-04  0.57267593D-04  0.43909158D-04  0.21913747D-04
 -0.15899399D-07 -0.12190651D-07 -0.60839892D-08 -0.81593341D-04  0.11471559D-03
  0.35127802D-04  0.62040918D-08  0.81119485D-04  0.42937140D-04  0.22176724D-04
 -0.14670872D-04  0.32854394D-08  0.12975066D-07 -0.66891674D-05 -0.11346094D-04
 -0.12917127D-04 -0.19946744D-04 -0.12704928D-04 -0.21549962D-04 -0.24533870D-04
 -0.14639209D-04  0.13168079D-04  0.24236295D-04  0.39218900D-04  0.51554341D-04
  0.44217859D-04  0.15118837D-04 -0.74208131D-04 -0.33111524D-04  0.97778773D-04
  0.44740965D-03  0.34470502D-03  0.15134407D-03  0.98354528D-04  0.75776862D-04
  0.33270124D-04  0.13666945D-07  0.10529644D-07  0.46230810D-08  0.54092601D-04
 -0.66035618D-04 -0.14150079D-04 -0.82979200D-08  0.11388343D-03  0.40572629D-04
  0.20868694D-04  0.35284886D-04 -0.11784008D-07 -0.20536777D-08 -0.14496329D-04
 -0.24588517D-04 -0.27993158D-04 -0.21673763D-04  0.62158624D-05  0.11467052D-04
  0.18511378D-04  0.24096314D-04  0.20561428D-04  0.70993671D-05 -0.57133156D-05
 -0.26332619D-05  0.73839413D-05  0.31712751D-04  0.24315326D-04  0.12135052D-04
 -0.41311637D-05 -0.31675143D-05 -0.15808116D-05  0.78589367D-08  0.60257342D-08
  0.30072637D-08 -0.60175878D-04 -0.20585807D-05 -0.29274241D-04 -0.44041034D-08
  0.98248262D-05 -0.47091956D-05 -0.13216510D-04  0.63818711D-04  0.70778307D-08
  0.10879605D-07  0.37810383D-05  0.64133567D-05  0.73013799D-05  0.80063554D-05
  0.37810512D-05  0.64133785D-05  0.73014047D-05  0.80070290D-05 -0.64902531D-05
 -0.11008698D-04 -0.12533013D-04  0.75830579D-05
MO    4     MO 0.0        OCC NO =    2.0000000  ORB. ENERGY =  -10.190476
  0.13702674D-01  0.25278758D-01  0.40807753D-01  0.53119569D-01  0.45327025D-01
  0.15650332D-01 -0.24391066D-03 -0.11241820D-03  0.31523237D-03  0.38781427D-03
  0.29735138D-03  0.14839918D-03  0.65809236D-04  0.50458348D-04  0.25182252D-04
  0.11203833D-07  0.85903887D-08  0.42872060D-08  0.15224068D-02 -0.50905927D-03
 -0.27526167D-03 -0.25497312D-07 -0.61152612D-03 -0.54100539D-03 -0.48589160D-03
 -0.66190448D-04 -0.24691395D-08 -0.31172128D-08  0.53229871D+00  0.98198718D+00
  0.15852318D+01  0.20635008D+01  0.17607889D+01  0.60795811D+00 -0.19849838D-01
 -0.91487721D-02  0.25654112D-01 -0.14730234D-03 -0.11294209D-03 -0.56366017D-04
 -0.62375424D-03 -0.47825519D-03 -0.23868286D-03 -0.62609599D-07 -0.48005070D-07
 -0.23957894D-07 -0.34865181D-02 -0.32747081D-03  0.69213098D-03  0.17501912D-07
 -0.10268254D-01 -0.10264271D-01 -0.10573002D-01 -0.27840565D-03  0.37640521D-07
 -0.44545171D-07  0.82406511D-05  0.15202392D-04  0.24541375D-04  0.31945578D-04
  0.27259219D-04  0.94119534D-05  0.42888701D-04  0.19767363D-04 -0.55429750D-04
  0.17210836D-04  0.13196178D-04  0.65858175D-05 -0.74568287D-04 -0.57174233D-04
 -0.28533949D-04 -0.24579699D-07 -0.18846154D-07 -0.94055516D-08  0.22266904D-03
  0.98513694D-04 -0.43723839D-04 -0.70245015D-08  0.21948326D-03  0.17916734D-04
 -0.79136084D-04  0.22682236D-04 -0.60976208D-07  0.22413614D-07 -0.39277383D-02
 -0.72459102D-02 -0.11697146D-01 -0.15226208D-01 -0.12992551D-01 -0.44860157D-02
  0.26043710D-03  0.12003522D-03 -0.33659129D-03 -0.13304821D-03 -0.10201293D-03
 -0.50911601D-04 -0.36985284D-03 -0.28357970D-03 -0.14152615D-03 -0.20234307D-07
 -0.15514384D-07 -0.77427647D-08  0.10933653D-02  0.39959261D-03  0.52626579D-03
  0.17010444D-07 -0.36180115D-03 -0.49102185D-03 -0.99726877D-04 -0.28023080D-03
 -0.10540884D-07 -0.21068127D-07 -0.43043296D-03 -0.79406476D-03 -0.12818667D-02
 -0.16686096D-02 -0.14238276D-02 -0.49161346D-03  0.54865086D-04  0.25287268D-04
 -0.70908139D-04  0.11064072D-03  0.84832283D-04  0.42337255D-04 -0.26606656D-04
 -0.20400296D-04 -0.10181178D-04  0.71295669D-08  0.54664997D-08  0.27281665D-08
 -0.11491640D-03 -0.89970919D-04 -0.50527090D-04 -0.26383667D-08  0.58853843D-04
  0.82067848D-04 -0.11271584D-04 -0.35465553D-04  0.36649642D-08  0.85423621D-08
  0.23207414D-03  0.42813148D-03  0.69113695D-03  0.89965495D-03  0.76767720D-03
  0.26506049D-03 -0.92716012D-05 -0.42732725D-05  0.11982702D-04 -0.28464678D-04
 -0.21824910D-04 -0.10892159D-04 -0.51729707D-04 -0.39663058D-04 -0.19794646D-04
 -0.41666309D-08 -0.31947083D-08 -0.15943833D-08 -0.28856505D-03  0.69148860D-04
 -0.22253558D-03 -0.43708867D-08  0.44935566D-04  0.20938936D-04  0.17718527D-04
 -0.37313151D-04 -0.27567901D-08  0.97606699D-09  0.12652345D-05  0.21460772D-05
  0.24432330D-05  0.11349050D-03 -0.11737652D-03 -0.19909279D-03 -0.22666010D-03
  0.15098134D-03 -0.36616822D-05 -0.67394499D-05 -0.10905702D-04 -0.14335851D-04
 -0.12295776D-04 -0.42041346D-05  0.22274754D-04  0.99389519D-05 -0.29349858D-04
 -0.10869188D-03 -0.83741234D-04 -0.36766912D-04 -0.71732144D-04 -0.55265750D-04
 -0.24264641D-04  0.61059856D-08  0.47043327D-08  0.20654554D-08  0.22088117D-04
 -0.24342855D-04  0.23931120D-04 -0.42611441D-09 -0.74746092D-04 -0.25538174D-07
  0.92759026D-05 -0.12649109D-04 -0.19166766D-08 -0.35260601D-08 -0.39765333D-05
 -0.67449532D-05 -0.76788908D-05 -0.93886100D-05 -0.20720455D-04 -0.38225194D-04
 -0.61707316D-04 -0.80324590D-04 -0.68541118D-04 -0.23665601D-04  0.19637063D-04
  0.90507045D-05 -0.25379120D-04  0.16975598D-04  0.13015812D-04  0.64958024D-05
 -0.37800537D-04 -0.28983054D-04 -0.14464575D-04 -0.68832882D-08 -0.52776688D-08
 -0.26339266D-08 -0.11270395D-04  0.21454521D-04  0.67208660D-04  0.74100837D-08
 -0.50098482D-04 -0.29270940D-05 -0.29045050D-05 -0.87382933D-04 -0.11203727D-07
 -0.25252492D-07 -0.73569513D-05 -0.12478782D-04 -0.14206652D-04 -0.12354028D-04
 -0.73541051D-05 -0.12473954D-04 -0.14201156D-04 -0.12355153D-04  0.61538536D-05
  0.10438100D-04  0.11883408D-04  0.33183474D-04
MO    5     MO 0.0        OCC NO =    2.0000000  ORB. ENERGY =  -10.185338
  0.90351763D-02  0.16668136D-01  0.26907540D-01  0.35025622D-01  0.29887427D-01
  0.10319410D-01 -0.21560739D-03 -0.99373249D-04  0.27865296D-03 -0.64708987D-04
 -0.49614747D-04 -0.24761236D-04  0.33861209D-03  0.25962628D-03  0.12957171D-03
  0.60788188D-08  0.46608527D-08  0.23260921D-08  0.68805976D-03  0.28034416D-04
 -0.24402042D-03 -0.72737048D-08 -0.38240574D-03 -0.59219801D-03 -0.32630965D-03
  0.10402756D-03 -0.17181389D-08 -0.11044259D-07 -0.19201814D-03 -0.35423597D-03
 -0.57184670D-03 -0.74437449D-03 -0.63517610D-03 -0.21931104D-03  0.46425103D-04
  0.21397288D-04 -0.60000228D-04  0.10491069D-04  0.80438862D-05  0.40144630D-05
 -0.16860215D-06 -0.12927344D-06 -0.64516505D-07  0.10676528D-08  0.81860843D-09
  0.40854298D-09 -0.21371318D-03 -0.43556891D-04  0.10816676D-03  0.21387555D-08
  0.95359082D-04  0.86128344D-04 -0.60166443D-05 -0.53360469D-04  0.84370897D-08
 -0.20830899D-08  0.18621357D-05  0.34352768D-05  0.55456020D-05  0.72187260D-05
  0.61597520D-05  0.21268143D-05  0.33327451D-04  0.15360592D-04 -0.43072702D-04
 -0.25090216D-04 -0.19237587D-04 -0.96009039D-05  0.32372873D-04  0.24821466D-04
  0.12387651D-04 -0.71293235D-08 -0.54663130D-08 -0.27280733D-08  0.17222399D-03
  0.63401956D-04  0.27063940D-05 -0.56525249D-08  0.97888367D-04  0.83466760D-05
 -0.62593569D-04  0.29349678D-04 -0.22676527D-07 -0.10257760D-07 -0.18011245D-02
 -0.33227230D-02 -0.53639052D-02 -0.69822108D-02 -0.59579332D-02 -0.20571311D-02
  0.14875630D-03  0.68561641D-04 -0.19225400D-03 -0.16032189D-03 -0.12292466D-03
 -0.61348018D-04  0.16397863D-03  0.12572841D-03  0.62747289D-04 -0.52686677D-09
 -0.40396802D-09 -0.20160835D-09  0.49746629D-03  0.27847822D-03 -0.35637695D-04
  0.27744322D-08 -0.21725775D-03 -0.17919245D-03 -0.56096748D-04  0.16724963D-03
  0.96930891D-08  0.24550459D-08  0.30315362D+00  0.55925923D+00  0.90281780D+00
  0.11752005D+01  0.10028007D+01  0.34624299D+00 -0.11128393D-01 -0.51290659D-02
  0.14382436D-01 -0.53158952D-03 -0.40758913D-03 -0.20341554D-03  0.22557520D-04
  0.17295676D-04  0.86317544D-05  0.27184609D-07  0.20843434D-07  0.10402334D-07
 -0.95958031D-03  0.18236433D-03 -0.15807244D-03 -0.43057125D-08 -0.62071050D-02
 -0.60969623D-02 -0.61766648D-02 -0.72200030D-04 -0.11352949D-07 -0.43063127D-07
  0.43739313D+00  0.80690491D+00  0.13025947D+01  0.16955913D+01  0.14468511D+01
  0.49956292D+00 -0.16119129D-01 -0.74292919D-02  0.20832510D-01  0.13896457D-03
  0.10654922D-03  0.53175528D-04  0.12848281D-03  0.98512468D-04  0.49164626D-04
 -0.98040031D-08 -0.75170877D-08 -0.37515536D-08 -0.18886124D-02 -0.10802930D-03
 -0.11444739D-03  0.22575193D-08 -0.84090322D-02 -0.85774557D-02 -0.87172690D-02
  0.47103545D-04  0.23384749D-07  0.26391512D-08 -0.14963232D-04 -0.25380474D-04
 -0.28894773D-04  0.67971226D-05 -0.95867302D-05 -0.16260909D-04 -0.18512470D-04
 -0.19660789D-04  0.15437028D-05  0.28412373D-05  0.45976583D-05  0.60437505D-05
  0.51836897D-05  0.17723915D-05  0.43436816D-07  0.19381423D-07 -0.57233601D-07
 -0.37637434D-04 -0.28997614D-04 -0.12731514D-04 -0.41470633D-04 -0.31950887D-04
 -0.14028160D-04 -0.15539207D-10 -0.11972121D-10 -0.52564060D-11 -0.90202124D-05
 -0.24246600D-04  0.85691444D-05  0.17953341D-08 -0.33090454D-04  0.17099524D-04
  0.21453691D-04 -0.43537413D-05  0.28430973D-08  0.23535858D-09 -0.72745246D-04
 -0.12338970D-03 -0.14047482D-03  0.11556814D-03  0.11307778D-01  0.20860643D-01
  0.33675546D-01  0.43835555D-01  0.37404958D-01  0.12915033D-01 -0.36579158D-03
 -0.16859301D-03  0.47275239D-03  0.37201580D-03  0.28523812D-03  0.14235381D-03
 -0.60088412D-04 -0.46071983D-04 -0.22993149D-04  0.49694996D-07  0.38102971D-07
  0.19016053D-07  0.40048113D-03 -0.20965477D-03  0.49125731D-04 -0.31607343D-07
 -0.63453407D-03 -0.36488792D-03 -0.27752112D-03  0.24938686D-03 -0.17717127D-07
  0.21943995D-08 -0.27088006D-04 -0.45946385D-04 -0.52308336D-04  0.69079214D-04
 -0.27091822D-04 -0.45952857D-04 -0.52315704D-04  0.69115973D-04 -0.16354042D-04
 -0.27739551D-04 -0.31580498D-04 -0.18911872D-04
MO    6     MO 0.0        OCC NO =    2.0000000  ORB. ENERGY =  -10.184601
 -0.70110904D-02 -0.12934093D-01 -0.20879636D-01 -0.27179082D-01 -0.23191960D-01
 -0.80076265D-02  0.20131714D-03  0.92786884D-04 -0.26018411D-03 -0.58116076D-04
 -0.44559721D-04 -0.22238424D-04 -0.15955636D-03 -0.12233770D-03 -0.61055085D-04
 -0.10102493D-07 -0.77459512D-08 -0.38657725D-08 -0.73502426D-03  0.10892625D-03
  0.31696651D-03  0.15510631D-07  0.30644735D-03  0.53467420D-03  0.24711775D-03
 -0.60905923D-04 -0.37406559D-08  0.87228242D-08  0.64227637D-03  0.11848745D-02
  0.19127548D-02  0.24898384D-02  0.21245836D-02  0.73356768D-03  0.66156461D-05
  0.30491452D-05 -0.85501215D-05  0.12201329D-03  0.93552050D-04  0.46689029D-04
  0.78497207D-04  0.60186679D-04  0.30037371D-04  0.10027018D-07  0.76880815D-08
  0.38368915D-08  0.12731814D-03 -0.19195673D-04 -0.22105167D-04 -0.28851581D-08
 -0.96181356D-06  0.20896231D-04 -0.39937185D-04  0.49202967D-04  0.75396407D-08
  0.33879662D-09  0.63760525D-05  0.11762572D-04  0.18988438D-04  0.24717304D-04
  0.21091321D-04  0.72823262D-05  0.25580313D-04  0.11789943D-04 -0.33060230D-04
  0.20594844D-05  0.15790820D-05  0.78807261D-06  0.50245643D-04  0.38525172D-04
  0.19226761D-04 -0.18117744D-07 -0.13891537D-07 -0.69328505D-08  0.14561997D-03
  0.33812305D-04  0.99247668D-04 -0.46853805D-08  0.16140024D-03  0.51719352D-04
 -0.48732816D-04  0.14753257D-03 -0.35715515D-07 -0.36480548D-07 -0.26230445D-02
 -0.48390050D-02 -0.78116544D-02 -0.10168453D-01 -0.86767594D-02 -0.29958765D-02
  0.18062277D-03  0.83248870D-04 -0.23343852D-03 -0.23033651D-03 -0.17660743D-03
 -0.88139484D-04  0.20606115D-03  0.15799462D-03  0.78850390D-04 -0.77106350D-08
 -0.59120259D-08 -0.29505152D-08  0.10160544D-02  0.52111077D-03 -0.29784546D-03
  0.54299818D-08 -0.47492134D-03 -0.33231716D-03 -0.10212713D-03  0.23995543D-03
  0.59384584D-08 -0.10029284D-07  0.43776371D+00  0.80758857D+00  0.13036984D+01
  0.16970279D+01  0.14480770D+01  0.49998618D+00 -0.16486080D-01 -0.75984193D-02
  0.21306761D-01 -0.14871652D-03 -0.11402639D-03 -0.56907161D-04  0.59134830D-03
  0.45340837D-03  0.22628255D-03  0.57338390D-07  0.43963441D-07  0.21940838D-07
 -0.37690665D-02 -0.21222525D-03 -0.84420729D-03 -0.26898819D-07 -0.83476601D-02