 Entering Gaussian System, Link 0=/public1/home/scg3027/software-scg3027/g16/g16
 Input=7-ts-B.gjf
 Output=7-ts-B.log
 Initial command:
 /public1/home/scg3027/software-scg3027/g16/l1.exe "/public1/home/scg3027/software-scg3027/test/tmp/Gau-134346.inp" -scrdir="/public1/home/scg3027/software-scg3027/test/tmp/"
 Entering Link 1 = /public1/home/scg3027/software-scg3027/g16/l1.exe PID=    134347.
  
 Copyright (c) 1988-2019, Gaussian, Inc.  All Rights Reserved.
  
 This is part of the Gaussian(R) 16 program.  It is based on
 the Gaussian(R) 09 system (copyright 2009, Gaussian, Inc.),
 the Gaussian(R) 03 system (copyright 2003, Gaussian, Inc.),
 the Gaussian(R) 98 system (copyright 1998, Gaussian, Inc.),
 the Gaussian(R) 94 system (copyright 1995, Gaussian, Inc.),
 the Gaussian 92(TM) system (copyright 1992, Gaussian, Inc.),
 the Gaussian 90(TM) system (copyright 1990, Gaussian, Inc.),
 the Gaussian 88(TM) system (copyright 1988, Gaussian, Inc.),
 the Gaussian 86(TM) system (copyright 1986, Carnegie Mellon
 University), and the Gaussian 82(TM) system (copyright 1983,
 Carnegie Mellon University). Gaussian is a federally registered
 trademark of Gaussian, Inc.
  
 This software contains proprietary and confidential information,
 including trade secrets, belonging to Gaussian, Inc.
  
 This software is provided under written license and may be
 used, copied, transmitted, or stored only in accord with that
 written license.
  
 The following legend is applicable only to US Government
 contracts under FAR:
  
                    RESTRICTED RIGHTS LEGEND
  
 Use, reproduction and disclosure by the US Government is
 subject to restrictions as set forth in subparagraphs (a)
 and (c) of the Commercial Computer Software - Restricted
 Rights clause in FAR 52.227-19.
  
 Gaussian, Inc.
 340 Quinnipiac St., Bldg. 40, Wallingford CT 06492
  
  
 ---------------------------------------------------------------
 Warning -- This program may not be used in any manner that
 competes with the business of Gaussian, Inc. or will provide
 assistance to any competitor of Gaussian, Inc.  The licensee
 of this program is prohibited from giving any competitor of
 Gaussian, Inc. access to this program.  By using this program,
 the user acknowledges that Gaussian, Inc. is engaged in the
 business of creating and licensing software in the field of
 computational chemistry and represents and warrants to the
 licensee that it is not a competitor of Gaussian, Inc. and that
 it will not use this program in any manner prohibited above.
 ---------------------------------------------------------------
  

 Cite this work as:
 Gaussian 16, Revision C.01,
 M. J. Frisch, G. W. Trucks, H. B. Schlegel, G. E. Scuseria, 
 M. A. Robb, J. R. Cheeseman, G. Scalmani, V. Barone, 
 G. A. Petersson, H. Nakatsuji, X. Li, M. Caricato, A. V. Marenich, 
 J. Bloino, B. G. Janesko, R. Gomperts, B. Mennucci, H. P. Hratchian, 
 J. V. Ortiz, A. F. Izmaylov, J. L. Sonnenberg, D. Williams-Young, 
 F. Ding, F. Lipparini, F. Egidi, J. Goings, B. Peng, A. Petrone, 
 T. Henderson, D. Ranasinghe, V. G. Zakrzewski, J. Gao, N. Rega, 
 G. Zheng, W. Liang, M. Hada, M. Ehara, K. Toyota, R. Fukuda, 
 J. Hasegawa, M. Ishida, T. Nakajima, Y. Honda, O. Kitao, H. Nakai, 
 T. Vreven, K. Throssell, J. A. Montgomery, Jr., J. E. Peralta, 
 F. Ogliaro, M. J. Bearpark, J. J. Heyd, E. N. Brothers, K. N. Kudin, 
 V. N. Staroverov, T. A. Keith, R. Kobayashi, J. Normand, 
 K. Raghavachari, A. P. Rendell, J. C. Burant, S. S. Iyengar, 
 J. Tomasi, M. Cossi, J. M. Millam, M. Klene, C. Adamo, R. Cammi, 
 J. W. Ochterski, R. L. Martin, K. Morokuma, O. Farkas, 
 J. B. Foresman, and D. J. Fox, Gaussian, Inc., Wallingford CT, 2019.
 
 ******************************************
 Gaussian 16:  ES64L-G16RevC.01  3-Jul-2019
                 8-Sep-2022 
 ******************************************
 %nprocshared=20
 Will use up to   20 processors via shared memory.
 %mem=80GB
 %chk=7-ts-B.chk
 ------------------------------------------------------------------
 # opt freq ub3lyp/6-311g(d,p) geom=connectivity temperature=823.15
 ------------------------------------------------------------------
 1/18=20,19=15,26=3,38=1,57=2,112=823150/1,3;
 2/9=110,12=2,17=6,18=5,40=1/2;
 3/5=4,6=6,7=101,11=2,25=1,30=1,71=1,74=-5,116=2/1,2,3;
 4//1;
 5/5=2,38=5/2;
 6/7=2,8=2,9=2,10=2,28=1/1;
 7//1,2,3,16;
 1/18=20,19=15,26=3/3(2);
 2/9=110/2;
 99//99;
 2/9=110/2;
 3/5=4,6=6,7=101,11=2,25=1,30=1,71=1,74=-5,116=2/1,2,3;
 4/5=5,16=3,69=1/1;
 5/5=2,38=5/2;
 7//1,2,3,16;
 1/18=20,19=15,26=3/3(-5);
 2/9=110/2;
 6/7=2,8=2,9=2,10=2,19=2,28=1/1;
 99/9=1/99;
 -------------------
 Title Card Required
 -------------------
 Symbolic Z-matrix:
 Charge =  0 Multiplicity = 2
 C                    -1.02909   0.79306   0.16681 
 C                     0.3689    0.77796   0.19492 
 C                     1.04954  -0.39623   0.06848 
 C                     0.37955  -1.62905  -0.09392 
 C                    -1.0233   -1.6985   -0.13229 
 C                    -1.77405  -0.53063  -0.0081 
 H                     0.90793   1.69425   0.3165 
 H                     0.95179  -2.5281   -0.18964 
 H                    -1.51232  -2.64213  -0.25608 
 O                    -3.07447  -0.56601  -0.04019 
 O                    -1.74779   2.02224   0.29904 
 C                     2.58903  -0.37825   0.10361 
 H                     2.92414  -0.49434   1.11312 
 H                     2.96881  -1.18131  -0.49285 
 O                     3.06316   0.86687  -0.41582 
 H                     4.02284   0.87808  -0.39392 
 H                    -1.22155   2.74075  -0.05931 
 

 GradGradGradGradGradGradGradGradGradGradGradGradGradGradGradGradGradGrad
 Berny optimization.
 Initialization pass.
                           ----------------------------
                           !    Initial Parameters    !
                           ! (Angstroms and Degrees)  !
 --------------------------                            --------------------------
 ! Name  Definition              Value          Derivative Info.                !
 --------------------------------------------------------------------------------
 ! R1    R(1,2)                  1.3984         estimate D2E/DX2                !
 ! R2    R(1,6)                  1.529          estimate D2E/DX2                !
 ! R3    R(1,11)                 1.43           estimate D2E/DX2                !
 ! R4    R(2,3)                  1.3631         estimate D2E/DX2                !
 ! R5    R(2,7)                  1.07           estimate D2E/DX2                !
 ! R6    R(3,4)                  1.4125         estimate D2E/DX2                !
 ! R7    R(3,12)                 1.54           estimate D2E/DX2                !
 ! R8    R(4,5)                  1.4051         estimate D2E/DX2                !
 ! R9    R(4,8)                  1.07           estimate D2E/DX2                !
 ! R10   R(5,6)                  1.3939         estimate D2E/DX2                !
 ! R11   R(5,9)                  1.07           estimate D2E/DX2                !
 ! R12   R(6,10)                 1.3013         estimate D2E/DX2                !
 ! R13   R(11,17)                0.96           estimate D2E/DX2                !
 ! R14   R(12,13)                1.07           estimate D2E/DX2                !
 ! R15   R(12,14)                1.07           estimate D2E/DX2                !
 ! R16   R(12,15)                1.43           estimate D2E/DX2                !
 ! R17   R(15,16)                0.96           estimate D2E/DX2                !
 ! A1    A(2,1,6)              118.6895         estimate D2E/DX2                !
 ! A2    A(2,1,11)             120.6553         estimate D2E/DX2                !
 ! A3    A(6,1,11)             120.6553         estimate D2E/DX2                !
 ! A4    A(1,2,3)              120.44           estimate D2E/DX2                !
 ! A5    A(1,2,7)              119.78           estimate D2E/DX2                !
 ! A6    A(3,2,7)              119.78           estimate D2E/DX2                !
 ! A7    A(2,3,4)              121.7137         estimate D2E/DX2                !
 ! A8    A(2,3,12)             119.1431         estimate D2E/DX2                !
 ! A9    A(4,3,12)             119.1431         estimate D2E/DX2                !
 ! A10   A(3,4,5)              121.3226         estimate D2E/DX2                !
 ! A11   A(3,4,8)              119.3387         estimate D2E/DX2                !
 ! A12   A(5,4,8)              119.3387         estimate D2E/DX2                !
 ! A13   A(4,5,6)              119.5966         estimate D2E/DX2                !
 ! A14   A(4,5,9)              120.2017         estimate D2E/DX2                !
 ! A15   A(6,5,9)              120.2017         estimate D2E/DX2                !
 ! A16   A(1,6,5)              118.2376         estimate D2E/DX2                !
 ! A17   A(1,6,10)             120.8812         estimate D2E/DX2                !
 ! A18   A(5,6,10)             120.8812         estimate D2E/DX2                !
 ! A19   A(1,11,17)            109.4712         estimate D2E/DX2                !
 ! A20   A(3,12,13)            109.4712         estimate D2E/DX2                !
 ! A21   A(3,12,14)            109.4712         estimate D2E/DX2                !
 ! A22   A(3,12,15)            109.4712         estimate D2E/DX2                !
 ! A23   A(13,12,14)           109.4712         estimate D2E/DX2                !
 ! A24   A(13,12,15)           109.4712         estimate D2E/DX2                !
 ! A25   A(14,12,15)           109.4712         estimate D2E/DX2                !
 ! A26   A(12,15,16)           109.4712         estimate D2E/DX2                !
 ! D1    D(6,1,2,3)             -0.0001         estimate D2E/DX2                !
 ! D2    D(6,1,2,7)            179.9999         estimate D2E/DX2                !
 ! D3    D(11,1,2,3)           179.9999         estimate D2E/DX2                !
 ! D4    D(11,1,2,7)             0.0            estimate D2E/DX2                !
 ! D5    D(2,1,6,5)              0.0            estimate D2E/DX2                !
 ! D6    D(2,1,6,10)          -179.9998         estimate D2E/DX2                !
 ! D7    D(11,1,6,5)           180.0            estimate D2E/DX2                !
 ! D8    D(11,1,6,10)            0.0002         estimate D2E/DX2                !
 ! D9    D(2,1,11,17)           30.0            estimate D2E/DX2                !
 ! D10   D(6,1,11,17)         -150.0            estimate D2E/DX2                !
 ! D11   D(1,2,3,4)              0.0003         estimate D2E/DX2                !
 ! D12   D(1,2,3,12)          -179.9997         estimate D2E/DX2                !
 ! D13   D(7,2,3,4)           -179.9998         estimate D2E/DX2                !
 ! D14   D(7,2,3,12)             0.0002         estimate D2E/DX2                !
 ! D15   D(2,3,4,5)             -0.0003         estimate D2E/DX2                !
 ! D16   D(2,3,4,8)            179.9998         estimate D2E/DX2                !
 ! D17   D(12,3,4,5)           179.9997         estimate D2E/DX2                !
 ! D18   D(12,3,4,8)            -0.0002         estimate D2E/DX2                !
 ! D19   D(2,3,12,13)           90.0            estimate D2E/DX2                !
 ! D20   D(2,3,12,14)         -150.0            estimate D2E/DX2                !
 ! D21   D(2,3,12,15)          -30.0            estimate D2E/DX2                !
 ! D22   D(4,3,12,13)          -90.0            estimate D2E/DX2                !
 ! D23   D(4,3,12,14)           30.0            estimate D2E/DX2                !
 ! D24   D(4,3,12,15)          150.0            estimate D2E/DX2                !
 ! D25   D(3,4,5,6)              0.0001         estimate D2E/DX2                !
 ! D26   D(3,4,5,9)            180.0            estimate D2E/DX2                !
 ! D27   D(8,4,5,6)           -179.9999         estimate D2E/DX2                !
 ! D28   D(8,4,5,9)              0.0            estimate D2E/DX2                !
 ! D29   D(4,5,6,1)              0.0            estimate D2E/DX2                !
 ! D30   D(4,5,6,10)           179.9998         estimate D2E/DX2                !
 ! D31   D(9,5,6,1)           -179.9999         estimate D2E/DX2                !
 ! D32   D(9,5,6,10)            -0.0001         estimate D2E/DX2                !
 ! D33   D(3,12,15,16)        -180.0            estimate D2E/DX2                !
 ! D34   D(13,12,15,16)         60.0            estimate D2E/DX2                !
 ! D35   D(14,12,15,16)        -60.0            estimate D2E/DX2                !
 --------------------------------------------------------------------------------
 Trust Radius=3.00D-01 FncErr=1.00D-07 GrdErr=1.00D-06 EigMax=2.50D+02 EigMin=1.00D-04
 Number of steps in this run=     88 maximum allowed number of steps=    102.
 GradGradGradGradGradGradGradGradGradGradGradGradGradGradGradGradGradGrad

                          Input orientation:                          
 ---------------------------------------------------------------------
 Center     Atomic      Atomic             Coordinates (Angstroms)
 Number     Number       Type             X           Y           Z
 ---------------------------------------------------------------------
      1          6           0       -1.029092    0.793055    0.166811
      2          6           0        0.368905    0.777963    0.194925
      3          6           0        1.049537   -0.396233    0.068483
      4          6           0        0.379552   -1.629053   -0.093916
      5          6           0       -1.023301   -1.698505   -0.132287
      6          6           0       -1.774050   -0.530634   -0.008104
      7          1           0        0.907928    1.694246    0.316503
      8          1           0        0.951787   -2.528099   -0.189638
      9          1           0       -1.512317   -2.642134   -0.256082
     10          8           0       -3.074474   -0.566009   -0.040195
     11          8           0       -1.747788    2.022238    0.299043
     12          6           0        2.589031   -0.378246    0.103605
     13          1           0        2.924141   -0.494341    1.113122
     14          1           0        2.968805   -1.181312   -0.492849
     15          8           0        3.063157    0.866866   -0.415819
     16          1           0        4.022842    0.878079   -0.393925
     17          1           0       -1.221555    2.740754   -0.059306
 ---------------------------------------------------------------------
                    Distance matrix (angstroms):
                    1          2          3          4          5
     1  C    0.000000
     2  C    1.398361   0.000000
     3  C    2.396826   1.363079   0.000000
     4  C    2.814048   2.424308   1.412479   0.000000
     5  C    2.509455   2.859755   2.456191   1.405095   0.000000
     6  C    1.528958   2.519108   2.827822   2.419068   1.393904
     7  H    2.141635   1.070000   2.109898   3.389976   3.929607
     8  H    3.883427   3.379007   2.149659   1.070000   2.143009
     9  H    3.494692   3.929310   3.422355   2.152163   1.070000
    10  O    2.464445   3.703836   4.128934   3.614311   2.344854
    11  O    1.430000   2.457529   3.705022   4.244046   3.815083
    12  C    3.803520   2.504820   1.540000   2.546631   3.853267
    13  H    4.263912   2.998512   2.148263   3.036353   4.310841
    14  H    4.507379   3.327352   2.148263   2.657790   4.041584
    15  O    4.134176   2.764038   2.425826   3.678990   4.833286
    16  H    5.083669   3.702434   3.267757   4.432750   5.671930
    17  H    1.970203   2.539043   3.874903   4.654025   4.444282
                    6          7          8          9         10
     6  C    0.000000
     7  H    3.499781   0.000000
     8  H    3.384230   4.252799   0.000000
     9  H    2.142062   4.998963   2.467637   0.000000
    10  O    1.301300   4.592984   4.481396   2.607151   0.000000
    11  O    2.571418   2.675951   5.313388   4.703189   2.928173
    12  C    4.367171   2.677061   2.718166   4.698471   5.668441
    13  H    4.830265   3.080524   3.118258   5.115652   6.108899
    14  H    4.811761   3.629200   2.444205   4.719165   6.091364
    15  O    5.051516   2.421955   4.004351   5.768324   6.313852
    16  H    5.978067   3.297503   4.590769   6.561165   7.251372
    17  H    3.318110   2.402313   5.700984   5.394326   3.790561
                   11         12         13         14         15
    11  O    0.000000
    12  C    4.960698   0.000000
    13  H    5.368688   1.070000   0.000000
    14  H    5.756395   1.070000   1.747303   0.000000
    15  O    4.999110   1.430000   2.051796   2.051796   0.000000
    16  H    5.923637   1.970203   2.315571   2.315570   0.960000
    17  H    0.960000   4.926994   5.387691   5.755838   4.690129
                   16         17
    16  H    0.000000
    17  H    5.575412   0.000000
 Stoichiometry    C7H7O3(2)
 Framework group  C1[X(C7H7O3)]
 Deg. of freedom    45
 Full point group                 C1      NOp   1
 Largest Abelian subgroup         C1      NOp   1
 Largest concise Abelian subgroup C1      NOp   1
                         Standard orientation:                         
 ---------------------------------------------------------------------
 Center     Atomic      Atomic             Coordinates (Angstroms)
 Number     Number       Type             X           Y           Z
 ---------------------------------------------------------------------
      1          6           0       -0.985098    0.848983    0.066956
      2          6           0        0.409861    0.795071    0.148169
      3          6           0        1.057095   -0.404330    0.125530
      4          6           0        0.354644   -1.625245    0.020525
      5          6           0       -1.047475   -1.656199   -0.065478
      6          6           0       -1.764868   -0.461216   -0.047287
      7          1           0        0.972938    1.701367    0.228619
      8          1           0        0.901211   -2.545005    0.006185
      9          1           0       -1.561387   -2.591376   -0.144455
     10          8           0       -3.063817   -0.460747   -0.125470
     11          8           0       -1.668820    2.104722    0.090294
     12          6           0        2.594191   -0.428904    0.216813
     13          1           0        2.889636   -0.486252    1.243615
     14          1           0        2.969213   -1.281162   -0.310364
     15          8           0        3.125448    0.763917   -0.366149
     16          1           0        4.083638    0.748597   -0.309245
     17          1           0       -1.107833    2.781736   -0.295121
 ---------------------------------------------------------------------
 Rotational constants (GHZ):           2.4873794           0.9099383           0.6761724
 Standard basis: 6-311G(d,p) (5D, 7F)
 There are   232 symmetry adapted cartesian basis functions of A   symmetry.
 There are   222 symmetry adapted basis functions of A   symmetry.
   222 basis functions,   376 primitive gaussians,   232 cartesian basis functions
    37 alpha electrons       36 beta electrons
       nuclear repulsion energy       493.0058799138 Hartrees.
 NAtoms=   17 NActive=   17 NUniq=   17 SFac= 1.00D+00 NAtFMM=   60 NAOKFM=F Big=F
 Integral buffers will be    131072 words long.
 Raffenetti 2 integral format.
 Two-electron integral symmetry is turned on.
 One-electron integrals computed using PRISM.
 NBasis=   222 RedAO= T EigKep=  2.24D-04  NBF=   222
 NBsUse=   222 1.00D-06 EigRej= -1.00D+00 NBFU=   222
 ExpMin= 1.03D-01 ExpMax= 8.59D+03 ExpMxC= 1.30D+03 IAcc=3 IRadAn=         5 AccDes= 0.00D+00
 Harris functional with IExCor=  402 and IRadAn=       5 diagonalized for initial guess.
 HarFok:  IExCor=  402 AccDes= 0.00D+00 IRadAn=         5 IDoV= 1 UseB2=F ITyADJ=14
 ICtDFT=  3500011 ScaDFX=  1.000000  1.000000  1.000000  1.000000
 FoFCou: FMM=F IPFlag=           0 FMFlag=      100000 FMFlg1=           0
         NFxFlg=           0 DoJE=T BraDBF=F KetDBF=T FulRan=T
         wScrn=  0.000000 ICntrl=       500 IOpCl=  0 I1Cent=   200000004 NGrid=           0
         NMat0=    1 NMatS0=      1 NMatT0=    0 NMatD0=    1 NMtDS0=    0 NMtDT0=    0
 Petite list used in FoFCou.
 Initial guess <Sx>= 0.0000 <Sy>= 0.0000 <Sz>= 0.5000 <S**2>= 0.7500 S= 0.5000
 Requested convergence on RMS density matrix=1.00D-08 within 128 cycles.
 Requested convergence on MAX density matrix=1.00D-06.
 Requested convergence on             energy=1.00D-06.
 No special actions if energy rises.
 Integral accuracy reduced to 1.0D-05 until final iterations.
 Initial convergence to 1.0D-05 achieved.  Increase integral accuracy.
 SCF Done:  E(UB3LYP) =  -496.690893873     A.U. after   22 cycles
            NFock= 22  Conv=0.92D-08     -V/T= 2.0038
 <Sx>= 0.0000 <Sy>= 0.0000 <Sz>= 0.5000 <S**2>= 0.7827 S= 0.5162
 <L.S>=  0.00000000000    
 Annihilation of the first spin contaminant:
 S**2 before annihilation     0.7827,   after     0.7507

 **********************************************************************

            Population analysis using the SCF Density.

 **********************************************************************

 Orbital symmetries:
 Alpha Orbitals:
       Occupied  (A) (A) (A) (A) (A) (A) (A) (A) (A) (A) (A) (A)
                 (A) (A) (A) (A) (A) (A) (A) (A) (A) (A) (A) (A)
                 (A) (A) (A) (A) (A) (A) (A) (A) (A) (A) (A) (A)
                 (A)
       Virtual   (A) (A) (A) (A) (A) (A) (A) (A) (A) (A) (A) (A)
                 (A) (A) (A) (A) (A) (A) (A) (A) (A) (A) (A) (A)
                 (A) (A) (A) (A) (A) (A) (A) (A) (A) (A) (A) (A)
                 (A) (A) (A) (A) (A) (A) (A) (A) (A) (A) (A) (A)
                 (A) (A) (A) (A) (A) (A) (A) (A) (A) (A) (A) (A)
                 (A) (A) (A) (A) (A) (A) (A) (A) (A) (A) (A) (A)
                 (A) (A) (A) (A) (A) (A) (A) (A) (A) (A) (A) (A)
                 (A) (A) (A) (A) (A) (A) (A) (A) (A) (A) (A) (A)
                 (A) (A) (A) (A) (A) (A) (A) (A) (A) (A) (A) (A)
                 (A) (A) (A) (A) (A) (A) (A) (A) (A) (A) (A) (A)
                 (A) (A) (A) (A) (A) (A) (A) (A) (A) (A) (A) (A)
                 (A) (A) (A) (A) (A) (A) (A) (A) (A) (A) (A) (A)
                 (A) (A) (A) (A) (A) (A) (A) (A) (A) (A) (A) (A)
                 (A) (A) (A) (A) (A) (A) (A) (A) (A) (A) (A) (A)
                 (A) (A) (A) (A) (A) (A) (A) (A) (A) (A) (A) (A)
                 (A) (A) (A) (A) (A)
 Beta  Orbitals:
       Occupied  (A) (A) (A) (A) (A) (A) (A) (A) (A) (A) (A) (A)
                 (A) (A) (A) (A) (A) (A) (A) (A) (A) (A) (A) (A)
                 (A) (A) (A) (A) (A) (A) (A) (A) (A) (A) (A) (A)
       Virtual   (A) (A) (A) (A) (A) (A) (A) (A) (A) (A) (A) (A)
                 (A) (A) (A) (A) (A) (A) (A) (A) (A) (A) (A) (A)
                 (A) (A) (A) (A) (A) (A) (A) (A) (A) (A) (A) (A)
                 (A) (A) (A) (A) (A) (A) (A) (A) (A) (A) (A) (A)
                 (A) (A) (A) (A) (A) (A) (A) (A) (A) (A) (A) (A)
                 (A) (A) (A) (A) (A) (A) (A) (A) (A) (A) (A) (A)
                 (A) (A) (A) (A) (A) (A) (A) (A) (A) (A) (A) (A)
                 (A) (A) (A) (A) (A) (A) (A) (A) (A) (A) (A) (A)
                 (A) (A) (A) (A) (A) (A) (A) (A) (A) (A) (A) (A)
                 (A) (A) (A) (A) (A) (A) (A) (A) (A) (A) (A) (A)
                 (A) (A) (A) (A) (A) (A) (A) (A) (A) (A) (A) (A)
                 (A) (A) (A) (A) (A) (A) (A) (A) (A) (A) (A) (A)
                 (A) (A) (A) (A) (A) (A) (A) (A) (A) (A) (A) (A)
                 (A) (A) (A) (A) (A) (A) (A) (A) (A) (A) (A) (A)
                 (A) (A) (A) (A) (A) (A) (A) (A) (A) (A) (A) (A)
                 (A) (A) (A) (A) (A) (A)
 The electronic state is 2-A.
 Alpha  occ. eigenvalues --  -19.16244 -19.13307 -19.10806 -10.26910 -10.24725
 Alpha  occ. eigenvalues --  -10.24035 -10.21282 -10.19415 -10.19320 -10.18674
 Alpha  occ. eigenvalues --   -1.05740  -1.04083  -1.00583  -0.87139  -0.77604
 Alpha  occ. eigenvalues --   -0.76088  -0.68400  -0.64139  -0.59714  -0.55770
 Alpha  occ. eigenvalues --   -0.53036  -0.50331  -0.49175  -0.47291  -0.45985
 Alpha  occ. eigenvalues --   -0.43718  -0.42910  -0.40886  -0.39075  -0.38225
 Alpha  occ. eigenvalues --   -0.36710  -0.35127  -0.34296  -0.29719  -0.26941
 Alpha  occ. eigenvalues --   -0.26032  -0.22177
 Alpha virt. eigenvalues --   -0.03303  -0.01071   0.02099   0.02942   0.04969
 Alpha virt. eigenvalues --    0.07266   0.08570   0.10121   0.12853   0.13489
 Alpha virt. eigenvalues --    0.16350   0.18462   0.19149   0.22182   0.26285
 Alpha virt. eigenvalues --    0.27697   0.28618   0.31273   0.35358   0.36223
 Alpha virt. eigenvalues --    0.37254   0.37468   0.38029   0.39453   0.40429
 Alpha virt. eigenvalues --    0.40794   0.43731   0.43872   0.45862   0.47167
 Alpha virt. eigenvalues --    0.48604   0.49292   0.51366   0.52402   0.52915
 Alpha virt. eigenvalues --    0.53981   0.55131   0.58721   0.60142   0.60979
 Alpha virt. eigenvalues --    0.61360   0.62777   0.64019   0.66079   0.71516
 Alpha virt. eigenvalues --    0.73234   0.75677   0.76357   0.77418   0.80888
 Alpha virt. eigenvalues --    0.82613   0.83908   0.85620   0.86657   0.88062
 Alpha virt. eigenvalues --    0.90463   0.90977   0.93057   0.95220   0.96146
 Alpha virt. eigenvalues --    0.99501   1.00718   1.02721   1.05675   1.07266
 Alpha virt. eigenvalues --    1.09927   1.12218   1.16739   1.20234   1.21358
 Alpha virt. eigenvalues --    1.31623   1.32570   1.35206   1.37409   1.39223
 Alpha virt. eigenvalues --    1.40067   1.42137   1.43803   1.45963   1.51016
 Alpha virt. eigenvalues --    1.52295   1.52388   1.55175   1.56499   1.58323
 Alpha virt. eigenvalues --    1.59140   1.59944   1.61194   1.62257   1.64427
 Alpha virt. eigenvalues --    1.64625   1.69943   1.71955   1.73522   1.77003
 Alpha virt. eigenvalues --    1.81315   1.83929   1.84845   1.87776   1.89976
 Alpha virt. eigenvalues --    1.90951   1.94139   1.96159   1.97629   1.97774
 Alpha virt. eigenvalues --    2.02708   2.04677   2.06640   2.10562   2.11941
 Alpha virt. eigenvalues --    2.17450   2.20610   2.25267   2.29253   2.32076
 Alpha virt. eigenvalues --    2.38455   2.40747   2.44941   2.48190   2.49960
 Alpha virt. eigenvalues --    2.50964   2.53193   2.55120   2.60916   2.61621
 Alpha virt. eigenvalues --    2.63521   2.65000   2.65450   2.68519   2.71787
 Alpha virt. eigenvalues --    2.74812   2.77915   2.80730   2.83321   2.84936
 Alpha virt. eigenvalues --    2.90285   2.91142   2.92685   3.00882   3.01488
 Alpha virt. eigenvalues --    3.06353   3.07747   3.11202   3.11580   3.14402
 Alpha virt. eigenvalues --    3.19278   3.24161   3.25418   3.28514   3.32318
 Alpha virt. eigenvalues --    3.36138   3.45123   3.48161   3.56159   3.59465
 Alpha virt. eigenvalues --    3.61503   3.76321   3.80202   3.82828   3.89991
 Alpha virt. eigenvalues --    3.95460   4.00596   4.05689   4.11788   4.24188
 Alpha virt. eigenvalues --    4.74833   4.79086   4.85346   4.85944   4.99536
 Alpha virt. eigenvalues --    5.21690   5.24785   5.54573   5.62408   5.64783
 Alpha virt. eigenvalues --   23.44209  23.70351  23.79178  23.87868  23.97152
 Alpha virt. eigenvalues --   24.08701  24.17252  49.86348  49.87301  49.93815
  Beta  occ. eigenvalues --  -19.16064 -19.13298 -19.09511 -10.26482 -10.24875
  Beta  occ. eigenvalues --  -10.24056 -10.20874 -10.19541 -10.19021 -10.18848
  Beta  occ. eigenvalues --   -1.05296  -1.04052  -0.98271  -0.86553  -0.77052
  Beta  occ. eigenvalues --   -0.75530  -0.67994  -0.63775  -0.59360  -0.55562
  Beta  occ. eigenvalues --   -0.52861  -0.50038  -0.48921  -0.47054  -0.45781
  Beta  occ. eigenvalues --   -0.43013  -0.41634  -0.39980  -0.38611  -0.37383
  Beta  occ. eigenvalues --   -0.35813  -0.33980  -0.31895  -0.29392  -0.25652
  Beta  occ. eigenvalues --   -0.24794
  Beta virt. eigenvalues --   -0.13189  -0.01700   0.00721   0.02348   0.03156
  Beta virt. eigenvalues --    0.05021   0.07394   0.08798   0.10265   0.12939
  Beta virt. eigenvalues --    0.14451   0.16889   0.18822   0.19473   0.22620
  Beta virt. eigenvalues --    0.26508   0.27906   0.28788   0.31475   0.35493
  Beta virt. eigenvalues --    0.36301   0.37300   0.37614   0.38420   0.39737
  Beta virt. eigenvalues --    0.40811   0.41055   0.43973   0.44125   0.46183
  Beta virt. eigenvalues --    0.47408   0.48848   0.49442   0.51512   0.52752
  Beta virt. eigenvalues --    0.53203   0.54564   0.55625   0.58896   0.60228
  Beta virt. eigenvalues --    0.61029   0.61503   0.63166   0.64255   0.66456
  Beta virt. eigenvalues --    0.71753   0.73488   0.76031   0.76678   0.77756
  Beta virt. eigenvalues --    0.81133   0.83210   0.84073   0.86097   0.86792
  Beta virt. eigenvalues --    0.89031   0.90961   0.92233   0.93775   0.95588
  Beta virt. eigenvalues --    0.96536   0.99868   1.00930   1.03058   1.06045
  Beta virt. eigenvalues --    1.07593   1.10222   1.12459   1.17495   1.20742
  Beta virt. eigenvalues --    1.21689   1.31810   1.32751   1.35453   1.37504
  Beta virt. eigenvalues --    1.39379   1.40204   1.42281   1.44095   1.46169
  Beta virt. eigenvalues --    1.51203   1.52659   1.52790   1.55573   1.56748
  Beta virt. eigenvalues --    1.58459   1.59360   1.60509   1.61693   1.62835
  Beta virt. eigenvalues --    1.64627   1.64875   1.70209   1.72338   1.73752
  Beta virt. eigenvalues --    1.77086   1.81558   1.84452   1.85251   1.88250
  Beta virt. eigenvalues --    1.90277   1.91248   1.94255   1.96280   1.97823
  Beta virt. eigenvalues --    1.97931   2.02973   2.04977   2.07149   2.10829
  Beta virt. eigenvalues --    2.12086   2.17733   2.20798   2.25667   2.29541
  Beta virt. eigenvalues --    2.32251   2.38557   2.41011   2.45228   2.48539
  Beta virt. eigenvalues --    2.50377   2.51286   2.53448   2.55263   2.61119
  Beta virt. eigenvalues --    2.61731   2.63762   2.65088   2.66423   2.68885
  Beta virt. eigenvalues --    2.71900   2.74974   2.78050   2.81337   2.84465
  Beta virt. eigenvalues --    2.85548   2.92599   2.93549   2.94167   3.01067
  Beta virt. eigenvalues --    3.02283   3.06875   3.08441   3.11414   3.12049
  Beta virt. eigenvalues --    3.14901   3.19335   3.25480   3.27538   3.28810
  Beta virt. eigenvalues --    3.32569   3.36490   3.45572   3.48342   3.56437
  Beta virt. eigenvalues --    3.60029   3.61828   3.76566   3.80260   3.82936
  Beta virt. eigenvalues --    3.90016   3.95667   4.01105   4.05967   4.12053
  Beta virt. eigenvalues --    4.24561   4.75322   4.80480   4.85707   4.90563
  Beta virt. eigenvalues --    5.00613   5.21953   5.24805   5.55334   5.62436
  Beta virt. eigenvalues --    5.65148  23.44418  23.70490  23.79225  23.88117
  Beta virt. eigenvalues --   23.97142  24.08829  24.17301  49.86560  49.87395
  Beta virt. eigenvalues --   49.95006
          Condensed to atoms (all electrons):
               1          2          3          4          5          6
     1  C    5.298140   0.280634   0.000150  -0.028851  -0.086971   0.210316
     2  C    0.280634   5.222480   0.296944  -0.068958  -0.015327  -0.009286
     3  C    0.000150   0.296944   5.391368   0.471978  -0.038202  -0.035714
     4  C   -0.028851  -0.068958   0.471978   4.976386   0.410636  -0.027249
     5  C   -0.086971  -0.015327  -0.038202   0.410636   5.101357   0.391747
     6  C    0.210316  -0.009286  -0.035714  -0.027249   0.391747   4.798993
     7  H   -0.041911   0.402556  -0.032632   0.008018  -0.001039   0.004723
     8  H   -0.002261   0.010032  -0.053053   0.411309  -0.025941   0.007283
     9  H    0.013827  -0.003055   0.009605  -0.042354   0.406892  -0.043347
    10  O   -0.093504   0.007330  -0.001457   0.009006  -0.083961   0.577605
    11  O    0.345732  -0.062336   0.007910   0.000126   0.002503  -0.046916
    12  C    0.004962  -0.039032   0.295596  -0.047719   0.005183  -0.000640
    13  H    0.000138  -0.007802  -0.036972  -0.000017  -0.000636   0.000014
    14  H    0.000040   0.010032  -0.058677  -0.001795   0.000574   0.000013
    15  O    0.000631   0.001854  -0.057856   0.002200  -0.000118   0.000027
    16  H   -0.000006  -0.000522   0.012287  -0.000404   0.000015  -0.000001
    17  H   -0.041254  -0.004015   0.001197  -0.000024  -0.000325   0.004423
               7          8          9         10         11         12
     1  C   -0.041911  -0.002261   0.013827  -0.093504   0.345732   0.004962
     2  C    0.402556   0.010032  -0.003055   0.007330  -0.062336  -0.039032
     3  C   -0.032632  -0.053053   0.009605  -0.001457   0.007910   0.295596
     4  C    0.008018   0.411309  -0.042354   0.009006   0.000126  -0.047719
     5  C   -0.001039  -0.025941   0.406892  -0.083961   0.002503   0.005183
     6  C    0.004723   0.007283  -0.043347   0.577605  -0.046916  -0.000640
     7  H    0.536406  -0.000257   0.000059  -0.000076  -0.001465  -0.011185
     8  H   -0.000257   0.569204  -0.008818  -0.000204   0.000006  -0.006363
     9  H    0.000059  -0.008818   0.543339   0.006470  -0.000065  -0.000247
    10  O   -0.000076  -0.000204   0.006470   7.896406   0.001821  -0.000003
    11  O   -0.001465   0.000006  -0.000065   0.001821   7.794771  -0.000124
    12  C   -0.011185  -0.006363  -0.000247  -0.000003  -0.000124   4.688128
    13  H    0.000120   0.000122   0.000019  -0.000000   0.000002   0.392895
    14  H    0.001749   0.003885  -0.000018  -0.000000   0.000001   0.416998
    15  O    0.024727   0.000001   0.000001   0.000000  -0.000001   0.276422
    16  H   -0.001414  -0.000044  -0.000000  -0.000000   0.000000  -0.032293
    17  H    0.002822  -0.000009   0.000036  -0.000515   0.318605  -0.000007
              13         14         15         16         17
     1  C    0.000138   0.000040   0.000631  -0.000006  -0.041254
     2  C   -0.007802   0.010032   0.001854  -0.000522  -0.004015
     3  C   -0.036972  -0.058677  -0.057856   0.012287   0.001197
     4  C   -0.000017  -0.001795   0.002200  -0.000404  -0.000024
     5  C   -0.000636   0.000574  -0.000118   0.000015  -0.000325
     6  C    0.000014   0.000013   0.000027  -0.000001   0.004423
     7  H    0.000120   0.001749   0.024727  -0.001414   0.002822
     8  H    0.000122   0.003885   0.000001  -0.000044  -0.000009
     9  H    0.000019  -0.000018   0.000001  -0.000000   0.000036
    10  O   -0.000000  -0.000000   0.000000  -0.000000  -0.000515
    11  O    0.000002   0.000001  -0.000001   0.000000   0.318605
    12  C    0.392895   0.416998   0.276422  -0.032293  -0.000007
    13  H    0.613047  -0.044752  -0.034588  -0.004823   0.000004
    14  H   -0.044752   0.595399  -0.030713  -0.005102  -0.000006
    15  O   -0.034588  -0.030713   7.924341   0.307386  -0.000092
    16  H   -0.004823  -0.005102   0.307386   0.478063   0.000003
    17  H    0.000004  -0.000006  -0.000092   0.000003   0.462414
          Atomic-Atomic Spin Densities.
               1          2          3          4          5          6
     1  C    0.307445   0.013924  -0.016844  -0.003050   0.006173   0.029776
     2  C    0.013924  -0.143749  -0.010117   0.002333   0.000532  -0.000527
     3  C   -0.016844  -0.010117   0.316432   0.027749  -0.011787  -0.002503
     4  C   -0.003050   0.002333   0.027749  -0.116471  -0.025201   0.001730
     5  C    0.006173   0.000532  -0.011787  -0.025201   0.244313   0.030087
     6  C    0.029776  -0.000527  -0.002503   0.001730   0.030087  -0.108328
     7  H   -0.000430  -0.000101   0.000239   0.000032  -0.000048   0.000176
     8  H    0.000053   0.000011   0.000084   0.000452  -0.000764  -0.000009
     9  H   -0.000468   0.000048  -0.000303   0.000324   0.002414   0.000590
    10  O   -0.009937  -0.000268   0.000193   0.000141  -0.012324  -0.043436
    11  O   -0.038783   0.000776   0.000271   0.000002  -0.000122  -0.000669
    12  C   -0.000208   0.001622  -0.005850   0.000640  -0.000023  -0.000003
    13  H    0.000185   0.000425  -0.007275  -0.000920   0.000162  -0.000018
    14  H    0.000009  -0.000068  -0.003567   0.000040   0.000054   0.000026
    15  O    0.000020   0.000161  -0.001742   0.000011   0.000001   0.000002
    16  H   -0.000006  -0.000009   0.000290   0.000000  -0.000000  -0.000001
    17  H   -0.002788   0.000319   0.000035   0.000003  -0.000012  -0.000293
               7          8          9         10         11         12
     1  C   -0.000430   0.000053  -0.000468  -0.009937  -0.038783  -0.000208
     2  C   -0.000101   0.000011   0.000048  -0.000268   0.000776   0.001622
     3  C    0.000239   0.000084  -0.000303   0.000193   0.000271  -0.005850
     4  C    0.000032   0.000452   0.000324   0.000141   0.000002   0.000640
     5  C   -0.000048  -0.000764   0.002414  -0.012324  -0.000122  -0.000023
     6  C    0.000176  -0.000009   0.000590  -0.043436  -0.000669  -0.000003
     7  H    0.005970   0.000001  -0.000003   0.000001   0.000085   0.000233
     8  H    0.000001   0.004269   0.000256   0.000007  -0.000000   0.000119
     9  H   -0.000003   0.000256  -0.015692  -0.000343   0.000000   0.000002
    10  O    0.000001   0.000007  -0.000343   0.551612   0.001034   0.000000
    11  O    0.000085  -0.000000   0.000000   0.001034   0.086782   0.000002
    12  C    0.000233   0.000119   0.000002   0.000000   0.000002  -0.020779
    13  H   -0.000310  -0.000071  -0.000000  -0.000000  -0.000003   0.001869
    14  H    0.000059   0.000018   0.000000  -0.000000  -0.000000   0.002912
    15  O    0.000067   0.000002  -0.000000  -0.000000   0.000000   0.000752
    16  H   -0.000024   0.000001  -0.000000   0.000000  -0.000000   0.000291
    17  H   -0.000291  -0.000000  -0.000001   0.000057   0.000597  -0.000001
              13         14         15         16         17
     1  C    0.000185   0.000009   0.000020  -0.000006  -0.002788
     2  C    0.000425  -0.000068   0.000161  -0.000009   0.000319
     3  C   -0.007275  -0.003567  -0.001742   0.000290   0.000035
     4  C   -0.000920   0.000040   0.000011   0.000000   0.000003
     5  C    0.000162   0.000054   0.000001  -0.000000  -0.000012
     6  C   -0.000018   0.000026   0.000002  -0.000001  -0.000293
     7  H   -0.000310   0.000059   0.000067  -0.000024  -0.000291
     8  H   -0.000071   0.000018   0.000002   0.000001  -0.000000
     9  H   -0.000000   0.000000  -0.000000  -0.000000  -0.000001
    10  O   -0.000000  -0.000000  -0.000000   0.000000   0.000057
    11  O   -0.000003  -0.000000   0.000000  -0.000000   0.000597
    12  C    0.001869   0.002912   0.000752   0.000291  -0.000001
    13  H    0.025496  -0.003798  -0.002736   0.000789   0.000007
    14  H   -0.003798   0.008115   0.001131  -0.000311  -0.000002
    15  O   -0.002736   0.001131   0.005058  -0.000682  -0.000002
    16  H    0.000789  -0.000311  -0.000682   0.000217   0.000001
    17  H    0.000007  -0.000002  -0.000002   0.000001   0.002597
 Mulliken charges and spin densities:
               1          2
     1  C    0.140187   0.285072
     2  C   -0.021529  -0.134688
     3  C   -0.172471   0.285304
     4  C   -0.072289  -0.112183
     5  C   -0.066388   0.233455
     6  C    0.168010  -0.093399
     7  H    0.108801   0.005657
     8  H    0.095108   0.004429
     9  H    0.117656  -0.013175
    10  O   -0.318918   0.486737
    11  O   -0.360573   0.049972
    12  C    0.057429  -0.018423
    13  H    0.123228   0.013802
    14  H    0.112374   0.004618
    15  O   -0.414223   0.002042
    16  H    0.246855   0.000555
    17  H    0.256742   0.000225
 Sum of Mulliken charges =  -0.00000   1.00000
 Mulliken charges and spin densities with hydrogens summed into heavy atoms:
               1          2
     1  C    0.140187   0.285072
     2  C    0.087272  -0.129031
     3  C   -0.172471   0.285304
     4  C    0.022819  -0.107755
     5  C    0.051269   0.220280
     6  C    0.168010  -0.093399
    10  O   -0.318918   0.486737
    11  O   -0.103831   0.050197
    12  C    0.293032  -0.000002
    15  O   -0.167369   0.002597
 Electronic spatial extent (au):  <R**2>=           1590.8842
 Charge=             -0.0000 electrons
 Dipole moment (field-independent basis, Debye):
    X=              6.3937    Y=             -0.2941    Z=              0.2284  Tot=              6.4045
 Quadrupole moment (field-independent basis, Debye-Ang):
   XX=            -61.0434   YY=            -48.6670   ZZ=            -59.2187
   XY=             -1.4733   XZ=              2.0271   YZ=             -1.2491
 Traceless Quadrupole moment (field-independent basis, Debye-Ang):
   XX=             -4.7337   YY=              7.6427   ZZ=             -2.9090
   XY=             -1.4733   XZ=              2.0271   YZ=             -1.2491
 Octapole moment (field-independent basis, Debye-Ang**2):
  XXX=            116.8762  YYY=             21.6538  ZZZ=             -1.2382  XYY=             -0.6244
  XXY=             -0.9856  XXZ=              3.2620  XZZ=             -1.2263  YZZ=              5.2334
  YYZ=             -6.7471  XYZ=              3.6411
 Hexadecapole moment (field-independent basis, Debye-Ang**3):
 XXXX=          -1195.7933 YYYY=           -444.8104 ZZZZ=            -74.5871 XXXY=             16.1924
 XXXZ=            -12.7588 YYYX=             -3.2519 YYYZ=            -13.8809 ZZZX=              0.3715
 ZZZY=             -1.7037 XXYY=           -319.7655 XXZZ=           -233.0251 YYZZ=           -109.2796
 XXYZ=             -1.9994 YYXZ=              6.0529 ZZXY=             -2.0318
 N-N= 4.930058799138D+02 E-N=-2.148891582075D+03  KE= 4.948022373673D+02
                          Isotropic Fermi Contact Couplings
        Atom                 a.u.       MegaHertz       Gauss      10(-4) cm-1
     1  C(13)              0.02094      23.54423       8.40117       7.85351
     2  C(13)             -0.01887     -21.21176      -7.56888      -7.07548
     3  C(13)              0.01972      22.17100       7.91116       7.39545
     4  C(13)             -0.01650     -18.55124      -6.61955      -6.18803
     5  C(13)              0.01059      11.90894       4.24941       3.97240
     6  C(13)             -0.03164     -35.56940     -12.69205     -11.86468
     7  H(1)               0.00142       6.32518       2.25698       2.10985
     8  H(1)               0.00105       4.71510       1.68247       1.57279
     9  H(1)              -0.00332     -14.82898      -5.29135      -4.94642
    10  O(17)              0.03400     -20.61220      -7.35495      -6.87549
    11  O(17)              0.01468      -8.89700      -3.17467      -2.96772
    12  C(13)             -0.00857      -9.62895      -3.43585      -3.21187
    13  H(1)               0.00711      31.79627      11.34570      10.60609
    14  H(1)               0.00286      12.77629       4.55890       4.26171
    15  O(17)              0.00514      -3.11803      -1.11259      -1.04006
    16  H(1)               0.00001       0.04340       0.01549       0.01448
    17  H(1)               0.00075       3.33916       1.19149       1.11382
 --------------------------------------------------------
       Center         ----  Spin Dipole Couplings  ----
                      3XX-RR        3YY-RR        3ZZ-RR
 --------------------------------------------------------
     1   Atom       -0.170945     -0.171078      0.342023
     2   Atom        0.065235      0.056167     -0.121403
     3   Atom       -0.152798     -0.168355      0.321153
     4   Atom        0.047729      0.040917     -0.088646
     5   Atom       -0.121814     -0.120286      0.242100
     6   Atom        0.062178      0.016328     -0.078505
     7   Atom        0.006227     -0.000932     -0.005295
     8   Atom        0.001910      0.002720     -0.004630
     9   Atom       -0.010495      0.015022     -0.004527
    10   Atom       -0.978856     -0.975621      1.954477
    11   Atom       -0.148420     -0.139184      0.287604
    12   Atom        0.001026     -0.003095      0.002069
    13   Atom        0.004124     -0.003604     -0.000521
    14   Atom        0.004378     -0.001921     -0.002457
    15   Atom       -0.000848     -0.001199      0.002047
    16   Atom        0.002160     -0.000993     -0.001167
    17   Atom       -0.003468      0.009971     -0.006503
 --------------------------------------------------------
                        XY            XZ            YZ
 --------------------------------------------------------
     1   Atom        0.003217     -0.030012     -0.008622
     2   Atom       -0.005428      0.010982      0.009356
     3   Atom        0.001338     -0.028521     -0.020049
     4   Atom        0.002897      0.005160      0.007251
     5   Atom        0.000267     -0.030467     -0.011431
     6   Atom       -0.000211      0.004587     -0.004130
     7   Atom       -0.003254      0.000316     -0.000099
     8   Atom        0.003004      0.000757      0.000156
     9   Atom        0.008845     -0.000226      0.001679
    10   Atom        0.016423     -0.179176     -0.236274
    11   Atom        0.020324      0.056944      0.071076
    12   Atom        0.002338      0.001475      0.004317
    13   Atom        0.000060      0.002632     -0.000943
    14   Atom       -0.003012     -0.001292      0.000445
    15   Atom        0.007542     -0.006203     -0.010046
    16   Atom        0.001101     -0.000398     -0.000407
    17   Atom        0.011333     -0.002121     -0.004621
 --------------------------------------------------------


 ---------------------------------------------------------------------------------
              Anisotropic Spin Dipole Couplings in Principal Axis System
 ---------------------------------------------------------------------------------

       Atom             a.u.   MegaHertz   Gauss  10(-4) cm-1        Axes

              Baa    -0.1748   -23.452    -8.368    -7.823  0.7934 -0.6076  0.0359
     1 C(13)  Bbb    -0.1692   -22.699    -8.100    -7.572  0.6058  0.7941  0.0490
              Bcc     0.3439    46.151    16.468    15.394 -0.0583 -0.0171  0.9982
 
              Baa    -0.1226   -16.448    -5.869    -5.486 -0.0598 -0.0540  0.9967
     2 C(13)  Bbb     0.0546     7.326     2.614     2.444  0.3922  0.9170  0.0732
              Bcc     0.0680     9.122     3.255     3.043  0.9179 -0.3953  0.0337
 
              Baa    -0.1692   -22.702    -8.101    -7.573 -0.0117  0.9991  0.0402
     3 C(13)  Bbb    -0.1545   -20.733    -7.398    -6.916  0.9981  0.0092  0.0602
              Bcc     0.3237    43.435    15.499    14.488 -0.0598 -0.0408  0.9974
 
              Baa    -0.0892   -11.974    -4.273    -3.994 -0.0364 -0.0548  0.9978
     4 C(13)  Bbb     0.0400     5.373     1.917     1.792 -0.3740  0.9267  0.0372
              Bcc     0.0492     6.601     2.355     2.202  0.9267  0.3719  0.0543
 
              Baa    -0.1245   -16.702    -5.960    -5.571  0.9807  0.1750  0.0870
     5 C(13)  Bbb    -0.1205   -16.173    -5.771    -5.395 -0.1771  0.9841  0.0161
              Bcc     0.2450    32.875    11.731    10.966 -0.0828 -0.0312  0.9961
 
              Baa    -0.0788   -10.579    -3.775    -3.529 -0.0324  0.0433  0.9985
     6 C(13)  Bbb     0.0165     2.215     0.790     0.739  0.0089  0.9990 -0.0430
              Bcc     0.0623     8.364     2.985     2.790  0.9994 -0.0075  0.0328
 
              Baa    -0.0053    -2.830    -1.010    -0.944 -0.0266  0.0028  0.9996
     7 H(1)   Bbb    -0.0022    -1.169    -0.417    -0.390  0.3603  0.9328  0.0070
              Bcc     0.0075     3.998     1.427     1.334  0.9324 -0.3604  0.0258
 
              Baa    -0.0047    -2.519    -0.899    -0.840 -0.1270  0.0304  0.9914
     8 H(1)   Bbb    -0.0007    -0.353    -0.126    -0.118  0.7401 -0.6626  0.1152
              Bcc     0.0054     2.873     1.025     0.958  0.6604  0.7483  0.0616
 
              Baa    -0.0133    -7.107    -2.536    -2.371  0.9500 -0.3013  0.0819
     9 H(1)   Bbb    -0.0046    -2.440    -0.871    -0.814 -0.0986 -0.0407  0.9943
              Bcc     0.0179     9.547     3.407     3.185  0.2963  0.9527  0.0683
 
              Baa    -0.9953    72.020    25.699    24.023 -0.3477  0.9361  0.0539
    10 O(17)  Bbb    -0.9890    71.564    25.536    23.871  0.9356  0.3427  0.0845
              Bcc     1.9843  -143.585   -51.235   -47.895 -0.0606 -0.0798  0.9950
 
              Baa    -0.1646    11.914     4.251     3.974  0.7824 -0.6228 -0.0006
    11 O(17)  Bbb    -0.1423    10.294     3.673     3.434  0.6092  0.7655 -0.2073
              Bcc     0.3069   -22.207    -7.924    -7.407  0.1296  0.1618  0.9783
 
              Baa    -0.0058    -0.780    -0.278    -0.260 -0.2038  0.8743 -0.4406
    12 C(13)  Bbb     0.0000     0.002     0.001     0.001  0.8613 -0.0539 -0.5052
              Bcc     0.0058     0.778     0.278     0.260  0.4655  0.4824  0.7420
 
              Baa    -0.0040    -2.114    -0.754    -0.705 -0.1196  0.9304  0.3464
    13 H(1)   Bbb    -0.0014    -0.727    -0.259    -0.242 -0.3995 -0.3645  0.8411
              Bcc     0.0053     2.841     1.014     0.948  0.9089 -0.0378  0.4153
 
              Baa    -0.0031    -1.675    -0.598    -0.559  0.3893  0.9097  0.1443
    14 H(1)   Bbb    -0.0027    -1.426    -0.509    -0.476  0.0953 -0.1957  0.9760
              Bcc     0.0058     3.101     1.106     1.034  0.9162 -0.3662 -0.1629
 
              Baa    -0.0103     0.748     0.267     0.249 -0.3177  0.8079  0.4963
    15 O(17)  Bbb    -0.0058     0.417     0.149     0.139  0.8083 -0.0430  0.5873
              Bcc     0.0161    -1.164    -0.415    -0.388 -0.4958 -0.5877  0.6394
 
              Baa    -0.0016    -0.831    -0.297    -0.277 -0.1575  0.7601  0.6305
    16 H(1)   Bbb    -0.0010    -0.542    -0.193    -0.181  0.2946 -0.5732  0.7646
              Bcc     0.0026     1.373     0.490     0.458  0.9426  0.3062 -0.1336
 
              Baa    -0.0100    -5.337    -1.904    -1.780  0.8389 -0.5160 -0.1729
    17 H(1)   Bbb    -0.0075    -3.999    -1.427    -1.334  0.2539  0.0901  0.9630
              Bcc     0.0175     9.335     3.331     3.114  0.4814  0.8518 -0.2066
 

 ---------------------------------------------------------------------------------

 Calling FoFJK, ICntrl=      2127 FMM=F ISym2X=0 I1Cent= 0 IOpClX= 1 NMat=1 NMatS=1 NMatT=0.
 ***** Axes restored to original set *****
 -------------------------------------------------------------------
 Center     Atomic                   Forces (Hartrees/Bohr)
 Number     Number              X              Y              Z
 -------------------------------------------------------------------
      1        6          -0.015340045    0.011024707   -0.001278255
      2        6          -0.035076812    0.017719060    0.001066784
      3        6           0.030815268   -0.026035071   -0.004703085
      4        6          -0.024984446    0.005335642    0.000812948
      5        6           0.054996221   -0.003994850    0.001988309
      6        6          -0.063436169    0.052418769    0.006612396
      7        1           0.005631362    0.008495998    0.000243289
      8        1           0.005826685   -0.008427187   -0.001405331
      9        1          -0.007672599   -0.005147677   -0.000937500
     10        8           0.047256478    0.005476430    0.001280191
     11        8           0.009915707   -0.054374298   -0.005015041
     12        6          -0.017936744    0.018382572   -0.011738847
     13        1           0.004697592   -0.005048189    0.018546572
     14        1           0.003982337   -0.015959279   -0.007516173
     15        8          -0.006649260    0.002669452   -0.000529658
     16        1           0.000831262   -0.002177310    0.001949005
     17        1           0.007143163   -0.000358769    0.000624397
 -------------------------------------------------------------------
 Cartesian Forces:  Max     0.063436169 RMS     0.020454327

 GradGradGradGradGradGradGradGradGradGradGradGradGradGradGradGradGradGrad
 Berny optimization.
 FormGI is forming the generalized inverse of G from B-inverse, IUseBI=4.
 Internal  Forces:  Max     0.056026415 RMS     0.012245958
 Search for a local minimum.
 Step number   1 out of a maximum of   88
 All quantities printed in internal units (Hartrees-Bohrs-Radians)
 Mixed Optimization -- RFO/linear search
 Second derivative matrix not updated -- first step.
 ITU=  0
     Eigenvalues ---    0.00237   0.01009   0.01295   0.01295   0.01345
     Eigenvalues ---    0.01368   0.01531   0.01971   0.02035   0.02099
     Eigenvalues ---    0.02281   0.02368   0.06248   0.07241   0.11346
     Eigenvalues ---    0.13882   0.16000   0.16000   0.16000   0.16000
     Eigenvalues ---    0.16000   0.22113   0.22360   0.23490   0.24567
     Eigenvalues ---    0.25000   0.25000   0.25000   0.28519   0.29160
     Eigenvalues ---    0.37230   0.37230   0.37230   0.37230   0.37230
     Eigenvalues ---    0.40989   0.40989   0.41711   0.42631   0.45265
     Eigenvalues ---    0.45894   0.51189   0.55473   0.55473   0.66833
 RFO step:  Lambda=-2.83120116D-02 EMin= 2.36824175D-03
 Linear search not attempted -- first point.
 Iteration  1 RMS(Cart)=  0.04869678 RMS(Int)=  0.00089370
 Iteration  2 RMS(Cart)=  0.00114443 RMS(Int)=  0.00012050
 Iteration  3 RMS(Cart)=  0.00000220 RMS(Int)=  0.00012049
 Iteration  4 RMS(Cart)=  0.00000000 RMS(Int)=  0.00012049
 Variable       Old X    -DE/DX   Delta X   Delta X   Delta X     New X
                                 (Linear)    (Quad)   (Total)
    R1        2.64252  -0.01181   0.00000  -0.02372  -0.02363   2.61889
    R2        2.88931  -0.04135   0.00000  -0.12869  -0.12861   2.76070
    R3        2.70231  -0.05603   0.00000  -0.12785  -0.12785   2.57445
    R4        2.57585   0.02949   0.00000   0.05440   0.05442   2.63027
    R5        2.02201   0.01014   0.00000   0.02531   0.02531   2.04732
    R6        2.66920  -0.00498   0.00000  -0.01011  -0.01018   2.65901
    R7        2.91018  -0.01508   0.00000  -0.04810  -0.04810   2.86208
    R8        2.65525  -0.02150   0.00000  -0.04561  -0.04571   2.60954
    R9        2.02201   0.01032   0.00000   0.02577   0.02577   2.04777
   R10        2.63410   0.02819   0.00000   0.05594   0.05592   2.69001
   R11        2.02201   0.00815   0.00000   0.02036   0.02036   2.04236
   R12        2.45910  -0.04741   0.00000  -0.06805  -0.06805   2.39105
   R13        1.81414   0.00341   0.00000   0.00586   0.00586   1.81999
   R14        2.02201   0.01952   0.00000   0.04872   0.04872   2.07073
   R15        2.02201   0.01758   0.00000   0.04389   0.04389   2.06589
   R16        2.70231  -0.00202   0.00000  -0.00460  -0.00460   2.69771
   R17        1.81414   0.00085   0.00000   0.00146   0.00146   1.81559
    A1        2.07152   0.01025   0.00000   0.03656   0.03672   2.10825
    A2        2.10583   0.00750   0.00000   0.02707   0.02696   2.13279
    A3        2.10583  -0.01774   0.00000  -0.06362  -0.06373   2.04210
    A4        2.10207  -0.00172   0.00000  -0.00402  -0.00389   2.09818
    A5        2.09056   0.00145   0.00000   0.00514   0.00508   2.09563
    A6        2.09056   0.00027   0.00000  -0.00113  -0.00119   2.08936
    A7        2.12431  -0.00631   0.00000  -0.01996  -0.02003   2.10427
    A8        2.07944   0.00449   0.00000   0.01477   0.01476   2.09420
    A9        2.07944   0.00182   0.00000   0.00519   0.00518   2.08462
   A10        2.11748  -0.00485   0.00000  -0.01960  -0.01977   2.09771
   A11        2.08285   0.00207   0.00000   0.00792   0.00801   2.09086
   A12        2.08285   0.00278   0.00000   0.01168   0.01176   2.09461
   A13        2.08735   0.00962   0.00000   0.03538   0.03526   2.12261
   A14        2.09792  -0.00032   0.00000   0.00615   0.00620   2.10412
   A15        2.09792  -0.00930   0.00000  -0.04153  -0.04148   2.05644
   A16        2.06364  -0.00699   0.00000  -0.02836  -0.02831   2.03533
   A17        2.10977  -0.00164   0.00000  -0.00425  -0.00429   2.10549
   A18        2.10977   0.00862   0.00000   0.03262   0.03258   2.14236
   A19        1.91063  -0.00958   0.00000  -0.05087  -0.05087   1.85976
   A20        1.91063  -0.00101   0.00000  -0.01407  -0.01412   1.89652
   A21        1.91063  -0.00105   0.00000  -0.00931  -0.00927   1.90136
   A22        1.91063  -0.00463   0.00000  -0.01668  -0.01664   1.89400
   A23        1.91063  -0.00120   0.00000  -0.01027  -0.01069   1.89994
   A24        1.91063   0.00286   0.00000   0.01526   0.01504   1.92567
   A25        1.91063   0.00503   0.00000   0.03506   0.03497   1.94561
   A26        1.91063  -0.00502   0.00000  -0.02668  -0.02668   1.88395
    D1       -0.00000   0.00019   0.00000   0.00468   0.00472   0.00472
    D2        3.14159  -0.00005   0.00000   0.00014   0.00028  -3.14131
    D3        3.14159  -0.00021   0.00000  -0.00559  -0.00592   3.13567
    D4       -0.00000  -0.00046   0.00000  -0.01013  -0.01036  -0.01036
    D5       -0.00000  -0.00012   0.00000  -0.00248  -0.00256  -0.00256
    D6       -3.14159   0.00006   0.00000   0.00171   0.00163  -3.13996
    D7        3.14159   0.00029   0.00000   0.00779   0.00755  -3.13404
    D8        0.00000   0.00046   0.00000   0.01198   0.01174   0.01174
    D9        0.52360  -0.00276   0.00000  -0.06656  -0.06667   0.45693
   D10       -2.61799  -0.00317   0.00000  -0.07704  -0.07693  -2.69492
   D11        0.00000  -0.00003   0.00000  -0.00182  -0.00173  -0.00172
   D12       -3.14159   0.00058   0.00000   0.01253   0.01258  -3.12901
   D13       -3.14159   0.00022   0.00000   0.00272   0.00270  -3.13889
   D14        0.00000   0.00083   0.00000   0.01707   0.01700   0.01701
   D15       -0.00000  -0.00022   0.00000  -0.00351  -0.00348  -0.00348
   D16        3.14159  -0.00011   0.00000  -0.00163  -0.00166   3.13993
   D17        3.14159  -0.00083   0.00000  -0.01786  -0.01771   3.12388
   D18       -0.00000  -0.00072   0.00000  -0.01598  -0.01589  -0.01589
   D19        1.57080   0.00113   0.00000   0.01812   0.01802   1.58882
   D20       -2.61799  -0.00160   0.00000  -0.00877  -0.00879  -2.62678
   D21       -0.52360   0.00107   0.00000   0.01826   0.01812  -0.50547
   D22       -1.57080   0.00172   0.00000   0.03210   0.03217  -1.53863
   D23        0.52360  -0.00101   0.00000   0.00521   0.00535   0.52895
   D24        2.61799   0.00167   0.00000   0.03224   0.03227   2.65026
   D25        0.00000   0.00028   0.00000   0.00562   0.00567   0.00567
   D26        3.14159   0.00000   0.00000  -0.00042  -0.00055   3.14104
   D27       -3.14159   0.00018   0.00000   0.00373   0.00385  -3.13774
   D28       -0.00000  -0.00011   0.00000  -0.00231  -0.00237  -0.00237
   D29        0.00000  -0.00011   0.00000  -0.00257  -0.00265  -0.00265
   D30        3.14159  -0.00029   0.00000  -0.00677  -0.00694   3.13465
   D31       -3.14159   0.00017   0.00000   0.00346   0.00340  -3.13819
   D32       -0.00000  -0.00001   0.00000  -0.00073  -0.00088  -0.00088
   D33       -3.14159  -0.00094   0.00000  -0.01862  -0.01860   3.12299
   D34        1.04720   0.00137   0.00000  -0.00052  -0.00023   1.04696
   D35       -1.04720  -0.00199   0.00000  -0.01876  -0.01906  -1.06625
         Item               Value     Threshold  Converged?
 Maximum Force            0.056026     0.000450     NO 
 RMS     Force            0.012246     0.000300     NO 
 Maximum Displacement     0.197134     0.001800     NO 
 RMS     Displacement     0.048633     0.001200     NO 
 Predicted change in Energy=-1.540052D-02
 GradGradGradGradGradGradGradGradGradGradGradGradGradGradGradGradGradGrad

                          Input orientation:                          
 ---------------------------------------------------------------------
 Center     Atomic      Atomic             Coordinates (Angstroms)
 Number     Number       Type             X           Y           Z
 ---------------------------------------------------------------------
      1          6           0       -1.030098    0.779439    0.151559
      2          6           0        0.355521    0.790822    0.174685
      3          6           0        1.068002   -0.398290    0.049352
      4          6           0        0.393617   -1.624184   -0.099942
      5          6           0       -0.986699   -1.659528   -0.119459
      6          6           0       -1.765336   -0.474070    0.001995
      7          1           0        0.888915    1.727171    0.286422
      8          1           0        0.960768   -2.542324   -0.198049
      9          1           0       -1.510748   -2.597742   -0.234325
     10          8           0       -3.030409   -0.480803   -0.020508
     11          8           0       -1.767637    1.917920    0.277559
     12          6           0        2.581868   -0.381798    0.091702
     13          1           0        2.905162   -0.521573    1.129333
     14          1           0        2.962766   -1.210019   -0.511709
     15          8           0        3.035612    0.877764   -0.403843
     16          1           0        3.995238    0.885705   -0.357627
     17          1           0       -1.213433    2.640146   -0.036776
 ---------------------------------------------------------------------
                    Distance matrix (angstroms):
                    1          2          3          4          5
     1  C    0.000000
     2  C    1.385859   0.000000
     3  C    2.408219   1.391878   0.000000
     4  C    2.804929   2.430869   1.407089   0.000000
     5  C    2.454362   2.809322   2.416820   1.380907   0.000000
     6  C    1.460900   2.475441   2.834747   2.448312   1.423495
     7  H    2.144526   1.083394   2.146126   3.409718   3.892607
     8  H    3.888430   3.408096   2.160923   1.083635   2.139657
     9  H    3.432970   3.890066   3.401179   2.143008   1.080772
    10  O    2.370456   3.622106   4.099837   3.610760   2.361341
    11  O    1.362342   2.405978   3.668482   4.166536   3.683153
    12  C    3.794517   2.517647   1.514548   2.523627   3.796295
    13  H    4.258515   3.022318   2.134646   3.005782   4.242760
    14  H    4.510082   3.357414   2.136311   2.634694   3.994271
    15  O    4.104649   2.743199   2.388553   3.651333   4.764212
    16  H    5.052185   3.679661   3.222265   4.397457   5.599522
    17  H    1.879178   2.434406   3.800587   4.557533   4.306441
                    6          7          8          9         10
     6  C    0.000000
     7  H    3.459972   0.000000
     8  H    3.427730   4.297494   0.000000
     9  H    2.151894   4.973372   2.472403   0.000000
    10  O    1.265291   4.508930   4.495651   2.614673   0.000000
    11  O    2.407811   2.663406   5.250159   4.551837   2.727143
    12  C    4.349109   2.711412   2.716578   4.665427   5.614272
    13  H    4.804863   3.135698   3.102587   5.066587   6.046057
    14  H    4.812532   3.683063   2.425163   4.692020   6.057325
    15  O    5.004125   2.409620   4.005537   5.725144   6.228103
    16  H    5.929801   3.282089   4.580924   6.516556   7.165244
    17  H    3.162979   2.314702   5.622379   5.250037   3.611369
                   11         12         13         14         15
    11  O    0.000000
    12  C    4.923560   0.000000
    13  H    5.339635   1.095781   0.000000
    14  H    5.725702   1.093223   1.780532   0.000000
    15  O    4.961596   1.427566   2.079853   2.091836   0.000000
    16  H    5.888944   1.950917   2.319429   2.341324   0.960771
    17  H    0.963098   4.853140   5.321570   5.699997   4.614663
                   16         17
    16  H    0.000000
    17  H    5.505567   0.000000
 Stoichiometry    C7H7O3(2)
 Framework group  C1[X(C7H7O3)]
 Deg. of freedom    45
 Full point group                 C1      NOp   1
 Largest Abelian subgroup         C1      NOp   1
 Largest concise Abelian subgroup C1      NOp   1
                         Standard orientation:                         
 ---------------------------------------------------------------------
 Center     Atomic      Atomic             Coordinates (Angstroms)
 Number     Number       Type             X           Y           Z
 ---------------------------------------------------------------------
      1          6           0       -1.001363    0.814761    0.058925
      2          6           0        0.382412    0.806213    0.134410
      3          6           0        1.077918   -0.399167    0.108798
      4          6           0        0.387984   -1.621380    0.008359
      5          6           0       -0.991051   -1.636606   -0.061871
      6          6           0       -1.752577   -0.434092   -0.042441
      7          1           0        0.927752    1.739327    0.209538
      8          1           0        0.942063   -2.552424   -0.012096
      9          1           0       -1.526971   -2.571918   -0.139648
     10          8           0       -3.015849   -0.422721   -0.112966
     11          8           0       -1.722827    1.970036    0.087313
     12          6           0        2.589204   -0.403412    0.208063
     13          1           0        2.871025   -0.484328    1.263887
     14          1           0        2.977638   -1.272801   -0.328984
     15          8           0        3.083345    0.816300   -0.345174
     16          1           0        4.040568    0.812288   -0.262778
     17          1           0       -1.144584    2.663038   -0.248755
 ---------------------------------------------------------------------
 Rotational constants (GHZ):           2.6290280           0.9233436           0.6929459
 Standard basis: 6-311G(d,p) (5D, 7F)
 There are   232 symmetry adapted cartesian basis functions of A   symmetry.
 There are   222 symmetry adapted basis functions of A   symmetry.
   222 basis functions,   376 primitive gaussians,   232 cartesian basis functions
    37 alpha electrons       36 beta electrons
       nuclear repulsion energy       499.1797194166 Hartrees.
 NAtoms=   17 NActive=   17 NUniq=   17 SFac= 1.00D+00 NAtFMM=   60 NAOKFM=F Big=F
 Integral buffers will be    131072 words long.
 Raffenetti 2 integral format.
 Two-electron integral symmetry is turned on.
 One-electron integrals computed using PRISM.
 NBasis=   222 RedAO= T EigKep=  2.21D-04  NBF=   222
 NBsUse=   222 1.00D-06 EigRej= -1.00D+00 NBFU=   222
 Initial guess from the checkpoint file:  "7-ts-B.chk"
 B after Tr=     0.000000   -0.000000    0.000000
         Rot=    0.999972   -0.002161    0.000088   -0.007189 Ang=  -0.86 deg.
 Initial guess <Sx>= 0.0000 <Sy>= 0.0000 <Sz>= 0.5000 <S**2>= 0.7821 S= 0.5159
 ExpMin= 1.03D-01 ExpMax= 8.59D+03 ExpMxC= 1.30D+03 IAcc=3 IRadAn=         5 AccDes= 0.00D+00
 Harris functional with IExCor=  402 and IRadAn=       5 diagonalized for initial guess.
 HarFok:  IExCor=  402 AccDes= 0.00D+00 IRadAn=         5 IDoV= 1 UseB2=F ITyADJ=14
 ICtDFT=  3500011 ScaDFX=  1.000000  1.000000  1.000000  1.000000
 FoFCou: FMM=F IPFlag=           0 FMFlag=      100000 FMFlg1=           0
         NFxFlg=           0 DoJE=T BraDBF=F KetDBF=T FulRan=T
         wScrn=  0.000000 ICntrl=       500 IOpCl=  0 I1Cent=   200000004 NGrid=           0
         NMat0=    1 NMatS0=      1 NMatT0=    0 NMatD0=    1 NMtDS0=    0 NMtDT0=    0
 Petite list used in FoFCou.
 Requested convergence on RMS density matrix=1.00D-08 within 128 cycles.
 Requested convergence on MAX density matrix=1.00D-06.
 Requested convergence on             energy=1.00D-06.
 No special actions if energy rises.
 Integral accuracy reduced to 1.0D-05 until final iterations.
 Initial convergence to 1.0D-05 achieved.  Increase integral accuracy.
 SCF Done:  E(UB3LYP) =  -496.707777278     A.U. after   18 cycles
            NFock= 18  Conv=0.64D-08     -V/T= 2.0034
 <Sx>= 0.0000 <Sy>= 0.0000 <Sz>= 0.5000 <S**2>= 0.7789 S= 0.5143
 <L.S>=  0.00000000000    
 Annihilation of the first spin contaminant:
 S**2 before annihilation     0.7789,   after     0.7506
 Calling FoFJK, ICntrl=      2127 FMM=F ISym2X=0 I1Cent= 0 IOpClX= 1 NMat=1 NMatS=1 NMatT=0.
 ***** Axes restored to original set *****
 -------------------------------------------------------------------
 Center     Atomic                   Forces (Hartrees/Bohr)
 Number     Number              X              Y              Z
 -------------------------------------------------------------------
      1        6          -0.001338499    0.006019489    0.002379270
      2        6          -0.005067374    0.002912022   -0.000713391
      3        6           0.011485559   -0.001560514   -0.001021605
      4        6          -0.011509469   -0.001546956    0.000684164
      5        6           0.017607719   -0.010196423   -0.000235068
      6        6          -0.027797972    0.011298607    0.002865683
      7        1           0.001403582    0.000020553   -0.000549711
      8        1           0.000682975   -0.000478290   -0.000470979
      9        1          -0.002976912   -0.000243496   -0.000182220
     10        8           0.015580151   -0.001309642   -0.000107191
     11        8           0.004978424   -0.010943176   -0.007194529
     12        6          -0.007499574    0.008126394   -0.003059954
     13        1           0.001849200   -0.002190432    0.002466107
     14        1           0.001489706   -0.002120236   -0.000500173
     15        8           0.000789764   -0.002557779    0.000491055
     16        1           0.000810628    0.000579548    0.000671802
     17        1          -0.000487909    0.004190333    0.004476740
 -------------------------------------------------------------------
 Cartesian Forces:  Max     0.027797972 RMS     0.006750805

 GradGradGradGradGradGradGradGradGradGradGradGradGradGradGradGradGradGrad
 Berny optimization.
 Using GEDIIS/GDIIS optimizer.
 FormGI is forming the generalized inverse of G from B-inverse, IUseBI=4.
 Internal  Forces:  Max     0.015568621 RMS     0.003116110
 Search for a local minimum.
 Step number   2 out of a maximum of   88
 All quantities printed in internal units (Hartrees-Bohrs-Radians)
 Mixed Optimization -- RFO/linear search
 Update second derivatives using D2CorX and points    1    2
 DE= -1.69D-02 DEPred=-1.54D-02 R= 1.10D+00
 TightC=F SS=  1.41D+00  RLast= 2.96D-01 DXNew= 5.0454D-01 8.8949D-01
 Trust test= 1.10D+00 RLast= 2.96D-01 DXMaxT set to 5.05D-01
 ITU=  1  0
 Use linear search instead of GDIIS.
     Eigenvalues ---    0.00237   0.01030   0.01264   0.01295   0.01351
     Eigenvalues ---    0.01385   0.01535   0.01971   0.02038   0.02097
     Eigenvalues ---    0.02279   0.02368   0.06351   0.07352   0.11195
     Eigenvalues ---    0.13813   0.15753   0.16000   0.16000   0.16000
     Eigenvalues ---    0.16445   0.22005   0.22514   0.23413   0.24207
     Eigenvalues ---    0.24851   0.24998   0.25235   0.28414   0.31349
     Eigenvalues ---    0.36207   0.37230   0.37230   0.37230   0.37295
     Eigenvalues ---    0.38868   0.41025   0.41794   0.42718   0.44538
     Eigenvalues ---    0.46602   0.50692   0.55459   0.55477   0.64084
 RFO step:  Lambda=-3.65165600D-03 EMin= 2.36832524D-03
 Quartic linear search produced a step of  0.16075.
 Iteration  1 RMS(Cart)=  0.04400909 RMS(Int)=  0.00642337
 Iteration  2 RMS(Cart)=  0.00668444 RMS(Int)=  0.00015507
 Iteration  3 RMS(Cart)=  0.00014009 RMS(Int)=  0.00005749
 Iteration  4 RMS(Cart)=  0.00000005 RMS(Int)=  0.00005749
 Variable       Old X    -DE/DX   Delta X   Delta X   Delta X     New X
                                 (Linear)    (Quad)   (Total)
    R1        2.61889   0.00052  -0.00380   0.00325  -0.00052   2.61837
    R2        2.76070   0.00088  -0.02067   0.01554  -0.00512   2.75558
    R3        2.57445  -0.00833  -0.02055  -0.01279  -0.03335   2.54111
    R4        2.63027   0.00485   0.00875   0.00635   0.01511   2.64538
    R5        2.04732   0.00065   0.00407  -0.00013   0.00394   2.05125
    R6        2.65901   0.00515  -0.00164   0.01408   0.01244   2.67145
    R7        2.86208  -0.00254  -0.00773  -0.00566  -0.01340   2.84869
    R8        2.60954  -0.00608  -0.00735  -0.01200  -0.01937   2.59016
    R9        2.04777   0.00081   0.00414   0.00030   0.00444   2.05222
   R10        2.69001   0.01228   0.00899   0.02591   0.03488   2.72490
   R11        2.04236   0.00167   0.00327   0.00342   0.00670   2.04906
   R12        2.39105  -0.01557  -0.01094  -0.02187  -0.03281   2.35824
   R13        1.81999   0.00140   0.00094   0.00246   0.00340   1.82339
   R14        2.07073   0.00316   0.00783   0.00559   0.01343   2.08415
   R15        2.06589   0.00240   0.00705   0.00367   0.01073   2.07662
   R16        2.69771  -0.00164  -0.00074  -0.00420  -0.00494   2.69277
   R17        1.81559   0.00085   0.00023   0.00164   0.00188   1.81747
    A1        2.10825   0.00131   0.00590   0.00258   0.00852   2.11676
    A2        2.13279   0.00214   0.00433   0.00692   0.01122   2.14401
    A3        2.04210  -0.00345  -0.01024  -0.00956  -0.01984   2.02226
    A4        2.09818   0.00095  -0.00063   0.00480   0.00422   2.10240
    A5        2.09563   0.00079   0.00082   0.00612   0.00689   2.10253
    A6        2.08936  -0.00174  -0.00019  -0.01095  -0.01119   2.07818
    A7        2.10427  -0.00212  -0.00322  -0.00875  -0.01203   2.09224
    A8        2.09420   0.00050   0.00237   0.00125   0.00353   2.09773
    A9        2.08462   0.00161   0.00083   0.00724   0.00798   2.09261
   A10        2.09771   0.00178  -0.00318   0.01030   0.00709   2.10481
   A11        2.09086  -0.00120   0.00129  -0.00709  -0.00579   2.08507
   A12        2.09461  -0.00058   0.00189  -0.00320  -0.00130   2.09331
   A13        2.12261   0.00069   0.00567  -0.00029   0.00534   2.12795
   A14        2.10412   0.00218   0.00100   0.01507   0.01607   2.12019
   A15        2.05644  -0.00288  -0.00667  -0.01481  -0.02146   2.03497
   A16        2.03533  -0.00261  -0.00455  -0.00868  -0.01323   2.02210
   A17        2.10549   0.00301  -0.00069   0.01390   0.01320   2.11869
   A18        2.14236  -0.00040   0.00524  -0.00525  -0.00002   2.14233
   A19        1.85976   0.00718  -0.00818   0.05683   0.04865   1.90841
   A20        1.89652  -0.00059  -0.00227   0.00095  -0.00138   1.89513
   A21        1.90136  -0.00033  -0.00149   0.00299   0.00140   1.90277
   A22        1.89400   0.00380  -0.00267   0.02537   0.02259   1.91658
   A23        1.89994  -0.00109  -0.00172  -0.01922  -0.02103   1.87891
   A24        1.92567  -0.00089   0.00242  -0.00386  -0.00155   1.92412
   A25        1.94561  -0.00089   0.00562  -0.00584  -0.00036   1.94525
   A26        1.88395   0.00053  -0.00429   0.00696   0.00267   1.88662
    D1        0.00472   0.00021   0.00076   0.01012   0.01092   0.01564
    D2       -3.14131  -0.00003   0.00005   0.00145   0.00151  -3.13980
    D3        3.13567  -0.00000  -0.00095   0.00292   0.00187   3.13754
    D4       -0.01036  -0.00025  -0.00167  -0.00575  -0.00754  -0.01790
    D5       -0.00256  -0.00014  -0.00041  -0.00631  -0.00675  -0.00931
    D6       -3.13996   0.00003   0.00026   0.00064   0.00092  -3.13904
    D7       -3.13404   0.00003   0.00121   0.00043   0.00153  -3.13251
    D8        0.01174   0.00020   0.00189   0.00739   0.00920   0.02094
    D9        0.45693  -0.00384  -0.01072  -0.21884  -0.22960   0.22733
   D10       -2.69492  -0.00402  -0.01237  -0.22572  -0.23805  -2.93297
   D11       -0.00172  -0.00011  -0.00028  -0.00744  -0.00764  -0.00936
   D12       -3.12901   0.00036   0.00202   0.01365   0.01561  -3.11339
   D13       -3.13889   0.00013   0.00043   0.00115   0.00160  -3.13730
   D14        0.01701   0.00060   0.00273   0.02224   0.02485   0.04185
   D15       -0.00348  -0.00008  -0.00056   0.00095   0.00034  -0.00315
   D16        3.13993  -0.00008  -0.00027  -0.00113  -0.00146   3.13847
   D17        3.12388  -0.00055  -0.00285  -0.02007  -0.02288   3.10100
   D18       -0.01589  -0.00056  -0.00255  -0.02215  -0.02468  -0.04057
   D19        1.58882   0.00108   0.00290   0.05685   0.05968   1.64850
   D20       -2.62678  -0.00075  -0.00141   0.03602   0.03450  -2.59228
   D21       -0.50547   0.00029   0.00291   0.04615   0.04899  -0.45649
   D22       -1.53863   0.00158   0.00517   0.07783   0.08310  -1.45553
   D23        0.52895  -0.00025   0.00086   0.05700   0.05792   0.58687
   D24        2.65026   0.00078   0.00519   0.06713   0.07241   2.72267
   D25        0.00567   0.00015   0.00091   0.00276   0.00369   0.00936
   D26        3.14104  -0.00005  -0.00009  -0.00272  -0.00288   3.13816
   D27       -3.13774   0.00015   0.00062   0.00484   0.00549  -3.13226
   D28       -0.00237  -0.00004  -0.00038  -0.00064  -0.00108  -0.00346
   D29       -0.00265  -0.00004  -0.00043  -0.00011  -0.00056  -0.00321
   D30        3.13465  -0.00021  -0.00112  -0.00718  -0.00830   3.12635
   D31       -3.13819   0.00013   0.00055   0.00511   0.00558  -3.13260
   D32       -0.00088  -0.00003  -0.00014  -0.00195  -0.00216  -0.00305
   D33        3.12299  -0.00061  -0.00299  -0.02386  -0.02686   3.09613
   D34        1.04696  -0.00168  -0.00004  -0.03820  -0.03820   1.00877
   D35       -1.06625   0.00090  -0.00306  -0.00732  -0.01042  -1.07667
         Item               Value     Threshold  Converged?
 Maximum Force            0.015569     0.000450     NO 
 RMS     Force            0.003116     0.000300     NO 
 Maximum Displacement     0.237251     0.001800     NO 
 RMS     Displacement     0.047909     0.001200     NO 
 Predicted change in Energy=-2.755757D-03
 GradGradGradGradGradGradGradGradGradGradGradGradGradGradGradGradGradGrad

                          Input orientation:                          
 ---------------------------------------------------------------------
 Center     Atomic      Atomic             Coordinates (Angstroms)
 Number     Number       Type             X           Y           Z
 ---------------------------------------------------------------------
      1          6           0       -1.036806    0.781068    0.109739
      2          6           0        0.348605    0.796868    0.124706
      3          6           0        1.073070   -0.396248    0.018516
      4          6           0        0.388632   -1.628098   -0.093521
      5          6           0       -0.981462   -1.667280   -0.095614
      6          6           0       -1.778640   -0.469809    0.003390
      7          1           0        0.887451    1.735640    0.206025
      8          1           0        0.957306   -2.549380   -0.178470
      9          1           0       -1.520980   -2.603686   -0.183946
     10          8           0       -3.026353   -0.486223   -0.012989
     11          8           0       -1.780010    1.896947    0.213021
     12          6           0        2.579442   -0.375784    0.072005
     13          1           0        2.896841   -0.565215    1.111105
     14          1           0        2.971028   -1.192539   -0.550210
     15          8           0        3.061153    0.891215   -0.367488
     16          1           0        4.019344    0.891601   -0.284668
     17          1           0       -1.215515    2.669561    0.088772
 ---------------------------------------------------------------------
                    Distance matrix (angstroms):
                    1          2          3          4          5
     1  C    0.000000
     2  C    1.385581   0.000000
     3  C    2.417844   1.399876   0.000000
     4  C    2.806647   2.435095   1.413670   0.000000
     5  C    2.457568   2.808851   2.418605   1.370656   0.000000
     6  C    1.458191   2.478782   2.852699   2.459287   1.441954
     7  H    2.150173   1.085477   2.148153   3.413690   3.894058
     8  H    3.892483   3.414646   2.165221   1.085986   2.131616
     9  H    3.431798   3.892863   3.412165   2.146291   1.084315
    10  O    2.362073   3.613257   4.100532   3.601734   2.362901
    11  O    1.344696   2.397702   3.665603   4.150051   3.665603
    12  C    3.796969   2.520818   1.507459   2.528900   3.791581
    13  H    4.276539   3.053156   2.132708   2.978583   4.208557
    14  H    4.515904   3.360112   2.135362   2.658391   4.006770
    15  O    4.127123   2.758455   2.399799   3.682983   4.791925
    16  H    5.072714   3.694711   3.229707   4.423516   5.620647
    17  H    1.897046   2.440234   3.826453   4.590903   4.347064
                    6          7          8          9         10
     6  C    0.000000
[...]
   zz         0.124593D+03      0.184627D+02      0.205426D+02

 ----------------------------------------------------------------------
 Unable to Open any file for archive entry.
 1\1\GINC-E0710\Freq\UB3LYP\6-311G(d,p)\C7H7O3(2)\SCG3027\08-Sep-2022\0
 \\#N Geom=AllCheck Guess=TCheck SCRF=Check GenChk UB3LYP/6-311G(d,p) F
 req\\Title Card Required\\0,2\C,-1.0383626369,0.7889975305,0.039623694
 \C,0.3501148099,0.8049124268,0.0282317406\C,1.0722102997,-0.3864572092
 ,0.0009626795\C,0.3876766189,-1.6299781246,-0.015413407\C,-0.978627546
 8,-1.6759415992,-0.00472894\C,-1.7888939108,-0.472879102,0.0234719602\
 H,0.8912494279,1.7448301471,0.0403974583\H,0.9633361135,-2.5505671159,
 -0.0365890106\H,-1.5208364699,-2.6139580262,-0.0168088737\O,-3.0323019
 222,-0.4954856819,0.0335070597\O,-1.7846111546,1.9072167871,0.06582663
 83\C,2.5774015508,-0.3805366693,-0.0116734602\H,2.9376711617,-0.947906
 9054,0.8605028435\H,2.9226684156,-0.9154824497,-0.9100209302\O,3.06371
 85044,0.951928801,0.0085692253\H,4.0240500666,0.9228662424,-0.00017389
 55\H,-1.2033562678,2.6770764884,0.0746865779\\Version=ES64L-G16RevC.01
 \State=2-A\HF=-496.7120889\S2=0.776238\S2-1=0.\S2A=0.750473\RMSD=2.715
 e-09\RMSF=6.019e-06\ZeroPoint=0.1283246\Thermal=0.1828372\ETot=-496.52
 92517\HTot=-496.5266449\GTot=-496.7233165\Dipole=2.5029372,0.1281148,-
 0.0190295\DipoleDeriv=0.6317879,-0.8068501,-0.0185484,-0.6756555,0.993
 7804,0.0209878,-0.0162074,0.0221011,0.1356918,-0.3538806,0.5656909,0.0
 115204,0.0885155,-0.2323024,-0.0016345,0.0030925,-0.0056302,-0.1829785
 ,0.4297653,-0.118644,-0.0061905,0.1268687,0.3024773,0.0051848,-0.00200
 29,0.0072651,-0.0491048,-0.3232108,-0.1140073,-0.0004839,-0.2599515,0.
 0419363,0.0054477,-0.0031031,0.004201,-0.1411644,0.1508891,0.0500017,-
 0.0014392,0.1785648,0.0250447,0.0011503,0.0008541,0.002229,-0.1247382,
 0.7029999,-0.1113279,-0.0064254,0.0041078,0.1191799,-0.0010015,-0.0043
 547,-0.0000388,0.1734444,0.1257152,-0.0199877,-0.0001875,-0.039834,-0.
 0534752,-0.0031991,-0.0005226,-0.0033619,0.145072,0.0119237,0.0937103,
 0.0026203,0.0865574,-0.0473928,-0.0038073,0.0024753,-0.0038495,0.12576
 97,0.0264224,-0.0685117,-0.0003378,-0.0390729,-0.0110366,-0.0021916,0.
 0001841,-0.0019391,0.1308491,-0.9025793,-0.0074761,0.0046649,-0.004965
 5,-0.325974,0.0001437,0.0047053,0.0001666,-0.331765,-0.4962912,0.64244
 69,0.0128819,0.5962872,-1.2665746,-0.0217663,0.0120458,-0.0221565,-0.3
 264431,0.3408827,0.2237079,0.0048883,0.4651684,0.6605153,0.000272,0.00
 95076,0.0022743,0.4331326,-0.082606,0.0090379,-0.0455926,-0.0437928,-0
 .0655775,0.0769137,-0.0728071,0.1015566,-0.082549,-0.0807598,0.0056852
 ,0.0457809,-0.0477956,-0.0590615,-0.0752313,0.0710424,-0.1007812,-0.09
 10358,-0.5695774,-0.2735485,-0.0044242,-0.4645455,-0.7259021,-0.000274
 8,-0.007989,-0.0018911,-0.4972452,0.1980164,0.0363824,0.0019926,0.1146
 194,0.261695,-0.002635,0.0034174,-0.0019602,0.3523489,0.1905026,-0.106
 3097,-0.0007198,-0.0850759,0.3826677,0.0016415,-0.0003376,0.0018149,0.
 3307155\Polar=124.8099927,-1.4638266,96.7805593,-0.7243351,0.9907912,4
 1.8694744\Quadrupole=-3.1774521,5.5062312,-2.3287791,-2.2367397,-0.034
 644,0.157611\PG=C01 [X(C7H7O3)]\NImag=0\\0.68347849,-0.04983947,0.6378
 8780,-0.00550381,0.00938605,0.13469693,-0.30688291,0.00928915,0.002301
 40,0.65426687,-0.06888675,-0.13066442,-0.00080308,0.03653069,0.7077526
 4,0.00091112,-0.00145854,-0.05301468,-0.00396070,0.01038621,0.10702550
 ,-0.03910665,0.03039945,0.00083879,-0.16354960,0.11137385,0.00292634,0
 .61198342,0.08393059,0.02200987,-0.00024875,0.03504506,-0.26320025,-0.
 00406325,-0.02528294,0.62984197,0.00178937,0.00019710,-0.00365058,0.00
 157145,-0.00470457,-0.05159821,-0.00430915,0.00867461,0.15479182,-0.03
 086300,-0.01362940,0.00001975,0.05452088,-0.01673169,-0.00071211,-0.14
 164647,-0.01502601,0.00043662,0.71112896,-0.02334950,-0.01110978,-0.00
 000574,0.01754088,-0.05494755,-0.00121425,-0.08404994,-0.23828261,-0.0
 0250664,-0.05535214,0.65571895,-0.00015456,-0.00008827,0.00025606,-0.0
 0010242,-0.00092758,0.00504839,-0.00079118,-0.00308275,-0.05787605,-0.
 00596990,0.01001848,0.11828839,0.03638932,0.00358162,-0.00018487,-0.02
 999686,0.02201174,0.00065418,-0.03665558,-0.07210119,-0.00094497,-0.39
 303572,0.02292139,0.00329735,0.73300005,0.01092772,-0.03287710,-0.0007
 9935,0.00272752,-0.00685371,-0.00016924,-0.03014481,0.01152991,0.00040
 010,-0.02924562,-0.12455147,-0.00108236,0.07826304,0.63484990,-0.00005
 407,-0.00073776,0.00689157,0.00031181,-0.00033092,0.00134443,-0.000198
 43,0.00075019,0.00343368,0.00237145,-0.00152083,-0.04986496,-0.0038098
 0,0.00856779,0.11555120,-0.07413544,-0.01008087,-0.00018045,-0.0328044
 4,-0.01585515,0.00001367,0.01898003,0.00972269,-0.00001605,-0.05273263
 ,0.01301833,0.00068720,-0.08827041,0.02346852,0.00057271,0.70690719,-0
 .02559600,-0.17486199,-0.00157846,-0.02606965,0.02494344,0.00061968,-0
 .00251521,-0.02544147,-0.00036509,0.03358684,0.02758958,0.00018266,0.0
 3062471,-0.21951859,-0.00291805,-0.02299984,0.53414651,-0.00045541,-0.
 00170737,-0.07415579,-0.00016754,0.00053428,0.00240882,-0.00023450,-0.
 00046731,-0.00372098,0.00105231,0.00035275,0.00153078,0.00070141,-0.00
 285882,-0.06989110,-0.00490616,0.00664459,0.17166419,-0.01141853,-0.02
 815331,-0.00036822,-0.12612289,-0.12003108,-0.00135073,0.01438107,0.01
 193143,0.00011530,-0.00127267,0.00326603,0.00011222,-0.00073806,0.0003
 7720,0.00000596,-0.00306057,0.00388007,0.00015254,0.13099335,0.0029615
 0,-0.00003634,-0.00010298,-0.11749527,-0.26347572,-0.00311250,-0.01403
 360,-0.02083791,-0.00030312,0.00425094,-0.00266960,-0.00017517,0.00042
 798,0.00061389,0.00002218,0.00196338,0.00133802,-0.00011507,0.12847184
 ,0.28157972,0.00018437,0.00015876,0.00434371,-0.00130457,-0.00309184,-
 0.03297570,-0.00034710,-0.00052166,0.00282074,0.00012971,-0.00016690,0
 .00516843,0.00000688,0.00002259,-0.00083602,0.00011850,-0.00013093,0.0
 0687218,0.00138097,0.00350995,0.02359628,-0.00054456,-0.00043070,-0.00
 001260,-0.00127065,-0.00249764,0.00000487,0.01147306,-0.01320441,-0.00
 032355,-0.13350521,0.12042029,0.00296397,-0.01342079,0.03008701,0.0006
 9090,-0.00272334,-0.00433866,0.00002992,0.00039695,-0.00075131,-0.0000
 1122,0.13986289,-0.00085098,0.00063794,0.00003849,-0.00399853,-0.00310
 287,-0.00010315,0.01684166,-0.01907821,-0.00049765,0.12039843,-0.25411
 735,-0.00489870,-0.00153121,0.00431335,-0.00000295,-0.00187486,0.00135
 750,-0.00013757,0.00097295,-0.00112009,-0.00003952,-0.13086615,0.26927
 715,-0.00002004,0.00003494,-0.00112505,-0.00002165,-0.00011611,0.00460
 115,0.00021014,-0.00024573,0.00095874,0.00296256,-0.00489707,-0.035241
 99,0.00012967,-0.00026901,0.00519611,0.00007373,-0.00011710,0.00999561
 ,0.00001932,-0.00002502,0.00063882,-0.00329539,0.00545175,0.02421573,-
 0.00263863,0.00242354,0.00009764,-0.00011764,0.00054037,0.00000292,-0.
 00555633,0.00130837,0.00014144,-0.00923326,-0.02761453,-0.00037381,-0.
 12522616,-0.12167813,-0.00140081,0.01083689,0.01604423,0.00022873,-0.0
 0000967,-0.00011314,-0.00000575,0.00100099,0.00025031,-0.00004987,0.12
 897471,0.00413922,-0.00281536,-0.00015309,0.00049774,0.00026361,0.0000
 1659,0.00072706,0.00141196,-0.00013078,0.00293223,0.00441149,-0.000028
 18,-0.12109332,-0.27107556,-0.00316778,-0.01686595,-0.01915244,-0.0002
 7207,-0.00005439,-0.00004427,0.00000771,-0.00046589,0.00080287,0.00011
 475,0.13123634,0.28378439,0.00012807,-0.00013899,0.00384281,0.00000222
 ,0.00001615,-0.00090721,0.00013035,-0.00013609,0.00843580,0.00016827,0
 .00022944,0.00460829,-0.00139020,-0.00316198,-0.03518303,-0.00035506,-
 0.00054989,0.00415738,-0.00000471,0.00000826,-0.00045323,-0.00006235,0
 .00010872,-0.00543907,0.00144530,0.00350536,0.02408222,-0.08869602,-0.
 04934968,0.00000205,0.01591679,-0.01173381,-0.00032275,-0.01366678,-0.
 00432039,0.00003748,0.02100079,0.01374430,0.00009564,-0.08339285,0.043
 52393,0.00161803,-0.48865195,-0.00310005,0.00357969,-0.00167587,-0.000
 52524,-0.00000481,-0.00218383,0.00065083,0.00001755,0.00153685,-0.0001
 9595,-0.00004222,0.63136447,-0.03928769,-0.00124894,0.00002139,-0.0026
 3933,-0.00795506,-0.00015996,0.00063929,-0.00151028,-0.00003607,0.0016
 5784,-0.00687543,-0.00019497,0.04466796,0.01114829,-0.00048096,-0.0038
 8550,-0.09013232,-0.00057999,-0.00198380,0.00033920,0.00004313,0.00183
 098,0.00008185,0.00001269,-0.00216317,0.00390754,0.00014119,0.00670840
 ,0.08293131,0.00018064,0.00010633,0.01605505,-0.00016143,-0.00008385,0
 .00228929,0.00012781,0.00000538,0.00021763,-0.00011913,-0.00029590,0.0
 0328172,0.00163821,-0.00047164,0.01708358,0.00356517,-0.00058648,-0.05
 571688,-0.00003090,0.00003090,-0.00114587,0.00003821,0.00002268,-0.001
 50305,-0.00007666,0.00012451,-0.00300976,-0.00497584,0.00098586,0.0244
 0426,-0.18074140,0.08265508,0.00264983,-0.03871505,0.05568688,0.001417
 30,-0.00247866,-0.01275518,-0.00013879,0.00120610,0.00272140,0.0000329
 2,-0.00367349,-0.00629971,-0.00006205,0.00938917,-0.00620600,-0.000156
 34,0.00305135,-0.00008569,-0.00006217,0.00013957,0.00025303,-0.0000003
 5,0.00074734,-0.00110524,-0.00002597,0.00852311,-0.00356833,-0.0001470
 0,0.42922628,0.12787625,-0.25979494,-0.00498167,0.02143965,-0.01366025
 ,-0.00063591,-0.00271179,0.00609148,-0.00000950,0.00162132,-0.00132789
 ,-0.00002584,-0.00607552,0.00042114,0.00001837,0.01744067,-0.05794492,
 -0.00124940,-0.00089951,0.00387564,0.00015075,0.00040133,-0.00001340,0
 .00000423,0.00086506,-0.00120255,-0.00002843,0.00310363,0.00727683,0.0
 0012860,0.08858274,0.63811127,0.00345781,-0.00460377,-0.04068148,0.000
 80685,-0.00092356,0.01187619,0.00003922,0.00007414,0.00793412,0.000013
 35,-0.00003508,-0.00064260,-0.00005851,0.00002044,0.00225577,0.0002655
 2,-0.00104986,0.00390280,-0.00007670,0.00014384,-0.00415822,0.00000235
 ,0.00000530,-0.00043108,0.00000910,-0.00001202,-0.00000895,-0.00002861
 ,0.00018465,-0.00139895,-0.00176477,0.01009678,0.03062451,0.00076547,0
 .00103227,0.00007235,-0.01974370,0.00774573,0.00036373,-0.20169784,0.0
 1886125,0.00147435,-0.01980823,-0.00937699,0.00001235,0.00601143,-0.00
 029198,-0.00002985,-0.00423451,0.00152914,0.00005606,0.00026748,-0.002
 26386,-0.00007289,0.00025211,0.00139493,0.00001749,0.00051865,0.000113
 12,-0.00000207,0.00282033,-0.00022606,-0.00002711,0.00085022,-0.001492
 98,-0.00004314,0.50161108,-0.00040078,-0.00427286,-0.00020095,0.029243
 28,0.00646460,-0.00026106,-0.00364459,-0.09025477,-0.00036040,-0.02678
 714,0.00504945,0.00029622,-0.00417021,-0.00605838,-0.00013061,0.000681
 70,-0.00076886,-0.00000531,0.00124718,-0.00169093,0.00002446,-0.000886
 28,0.00020963,0.00002354,-0.00129558,0.00009131,0.00001191,0.00035244,
 -0.00007058,-0.00000537,0.00261016,-0.00163289,-0.00003049,-0.02103731
 ,0.50538950,0.00004574,-0.00020940,0.00713770,0.00074335,-0.00007411,0
 .00696983,0.00106022,-0.00055699,-0.06796893,-0.00029748,0.00014630,0.
 00134034,-0.00010054,-0.00016450,0.00329175,0.00004125,-0.00001361,-0.
 00079005,-0.00000982,0.00005301,-0.00363097,-0.00002378,0.00000666,-0.
 00075158,-0.00002749,0.00000035,0.00001886,-0.00001628,-0.00000035,0.0
 0005840,0.00003005,0.00000244,-0.00112309,-0.00006116,-0.00045882,0.53
 835838,-0.00025855,-0.00007973,0.00141737,-0.00250921,-0.00205012,0.00
 023019,-0.01643869,0.01629958,-0.02526247,0.00116386,0.00128229,0.0014
 7908,-0.00058749,0.00037927,0.00032256,0.00104239,0.00035001,-0.000230
 11,0.00000329,0.00018367,-0.00082142,0.00018573,-0.00065778,-0.0003482
 4,-0.00002564,-0.00003146,-0.00014660,-0.00104253,-0.00015461,0.000085
 76,-0.00053313,0.00039606,-0.00010098,-0.07588588,0.03948025,-0.068656
 57,0.08260905,0.00013683,-0.00019446,-0.00002232,-0.00031645,0.0002101
 6,-0.00005462,0.00497616,0.00135229,0.00184445,-0.00213192,-0.00030003
 ,-0.00020477,0.00139380,-0.00002971,-0.00059939,-0.00072337,0.00029443
 ,0.00003038,-0.00052041,0.00008613,0.00016636,0.00007284,-0.00001929,0
 .00041894,0.00005205,-0.00000082,0.00001151,0.00039891,0.00003866,0.00
 003740,-0.00004751,0.00018831,0.00001114,0.03486546,-0.09777857,0.0866
 0635,-0.03829221,0.12225221,-0.00003277,-0.00016971,-0.00021806,0.0003
 5933,-0.00048186,-0.00060931,-0.00038270,-0.00141134,0.00255019,0.0004
 6554,0.00089074,0.00117643,-0.00074041,-0.00020192,0.00003168,0.000657
 11,0.00001049,-0.00006822,0.00006860,-0.00007739,0.00011409,-0.0001718
 2,-0.00034520,-0.00037406,-0.00006097,0.00000496,0.00002751,-0.0004440
 5,-0.00008218,-0.00000705,-0.00001537,0.00000117,0.00012992,-0.0657924
 3,0.08943139,-0.20552652,0.07083080,-0.10292203,0.21797519,-0.00028270
 ,-0.00002921,-0.00141891,-0.00251398,-0.00203109,-0.00027114,-0.015994
 56,0.01537670,0.02615430,0.00113027,0.00131734,-0.00143268,-0.00058078
 ,0.00039484,-0.00029910,0.00103620,0.00034185,0.00022386,0.00001535,0.
 00015580,0.00082959,0.00019397,-0.00066276,0.00031536,-0.00002216,-0.0
 0003679,0.00014637,-0.00103766,-0.00015024,-0.00007381,-0.00053036,0.0
 0039239,0.00012626,-0.07361856,0.03550260,0.06774070,0.00558047,-0.003
 45121,-0.00988498,0.08021953,0.00013495,-0.00020251,0.00002072,-0.0003
 0085,0.00018734,0.00008974,0.00491928,0.00137927,-0.00196301,-0.002109
 26,-0.00027442,0.00018562,0.00137662,-0.00005769,0.00057242,-0.0006986
 4,0.00029620,-0.00000562,-0.00051986,0.00008910,-0.00015898,0.00005996
 ,-0.00001835,-0.00040632,0.00004963,-0.00000022,-0.00001318,0.00038110
 ,0.00003684,-0.00004220,-0.00004842,0.00018905,-0.00000837,0.03103636,
 -0.09145298,-0.08293815,-0.00361433,0.00908503,0.01166837,-0.03399917,
 0.11482623,0.00004177,0.00017149,-0.00018820,-0.00034104,0.00054608,-0
 .00057836,0.00088331,0.00110769,0.00208062,-0.00054050,-0.00096481,0.0
 0118349,0.00080111,0.00019180,0.00005244,-0.00070230,-0.00000377,-0.00
 006166,-0.00008616,0.00007391,0.00009817,0.00016441,0.00036845,-0.0003
 8505,0.00006363,-0.00000528,0.00002336,0.00047623,0.00008639,-0.000011
 88,0.00002454,-0.00000564,0.00012740,0.06469995,-0.08584266,-0.2140984
 3,0.00925241,-0.01039354,-0.02408455,-0.06975424,0.09970742,0.22777581
 ,0.00107210,-0.00299076,-0.00006117,-0.00186487,0.00018977,0.00002093,
 -0.01922611,-0.04611370,-0.00065582,-0.00798998,0.00318492,0.00013060,
 -0.00016744,-0.00248634,-0.00003878,0.00063651,0.00000765,-0.00000706,
 -0.00351912,-0.00106223,0.00000499,0.00026833,-0.00006537,-0.00000748,
 -0.00069633,0.00001958,0.00000535,-0.00098163,0.00005892,0.00000960,-0
 .00067029,0.00134937,0.00003123,-0.10547859,-0.05763218,-0.00068504,0.
 00542318,0.00212848,0.00480176,0.00515294,0.00185913,-0.00467944,0.651
 39212,0.00085847,-0.00044794,-0.00001699,0.00084518,-0.00190319,-0.000
 04401,-0.00668392,-0.00490884,-0.00008494,-0.00192145,0.00036346,0.000
 00524,0.00162699,0.00018898,-0.00001674,0.00012431,-0.00041942,-0.0000
 0427,0.00106653,0.00101654,0.00001939,0.00053324,0.00069157,0.00001562
 ,-0.00016743,0.00000704,0.00000345,-0.00052895,0.00046208,0.00001198,-
 0.00103632,0.00164663,0.00003435,-0.01591946,-0.21866507,-0.00273892,-
 0.01329266,-0.03579509,0.00279453,-0.01294210,-0.03472024,-0.00415959,
 0.04763487,0.33559467,0.00000684,0.00001426,0.00008971,0.00003434,-0.0
 0004116,0.00027870,0.00006537,0.00025306,0.00277108,0.00003982,-0.0000
 3586,0.00087151,0.00003503,0.00001774,0.00036047,-0.00000481,-0.000002
 98,-0.00022408,0.00004349,0.00003646,-0.00053669,0.00000365,0.00002024
 ,-0.00043704,0.00000202,0.00000178,-0.00010149,-0.00000135,0.00000704,
 0.00003859,-0.00001157,0.00001525,0.00019865,0.00008102,-0.00238190,-0
 .06160693,0.01102560,0.02524550,0.00850217,-0.01145737,-0.02686804,0.0
 0769095,-0.00432545,0.00495280,0.04305215,-0.00010073,-0.00014894,-0.0
 0000171,0.00042959,0.00013728,-0.00000027,-0.00002982,-0.00284078,-0.0
 0005447,-0.00031432,0.00043673,0.00001695,-0.00005887,-0.00030642,-0.0
 0000556,-0.00007074,0.00004110,0.00000198,-0.00007142,-0.00041834,-0.0
 0000925,-0.00005110,-0.00010372,-0.00000075,-0.00003264,0.00003372,-0.
 00000014,0.00007784,-0.00002853,-0.00000135,0.00012670,-0.00015009,-0.
 00000393,-0.01270597,0.00639864,0.00020817,0.00125941,0.00153597,0.000
 31304,0.00123939,0.00155034,-0.00027075,-0.52349724,-0.00001750,0.0044
 6937,0.53379578,-0.00038827,0.00081484,0.00001721,0.00169939,-0.000687
 90,-0.00002842,-0.00078400,-0.00782489,-0.00012815,-0.00188991,0.00065
 853,0.00001238,-0.00007494,-0.00055945,-0.00000766,0.00005446,-0.00020
 886,-0.00000576,-0.00062357,0.00079967,0.00002499,-0.00000949,-0.00001
 420,-0.00000163,-0.00013699,0.00001713,0.00000378,0.00022129,0.0001257
 9,0.00000084,0.00023611,-0.00025659,-0.00000607,-0.04622259,-0.0051400
 4,0.00033790,-0.00004566,0.00063842,0.00091439,-0.00002792,0.00066477,
 -0.00090509,0.05426328,-0.04273878,-0.00123370,-0.00616093,0.05357562,
 -0.00000607,0.00001510,0.00004066,0.00002780,-0.00001575,0.00012248,-0
 .00001787,-0.00011143,-0.00040242,-0.00002522,-0.00000681,0.00083474,-
 0.00000119,-0.00000624,-0.00008173,0.00000198,-0.00000549,0.00008137,-
 0.00001307,0.00002368,-0.00033251,0.00000097,-0.00000075,0.00007765,-0
 .00000331,0.00000229,-0.00012766,0.00000326,0.00000296,-0.00002455,0.0
 0000302,-0.00000297,-0.00002553,-0.00075567,-0.00011086,-0.00204782,0.
 00089542,-0.00021047,0.00041595,-0.00091078,0.00019314,0.00041058,0.00
 546479,-0.00077014,-0.00075720,-0.00466268,0.00100300,0.00174026,0.013
 96375,0.02535097,0.00033257,0.00095767,0.00560102,0.00007247,-0.000770
 48,-0.00083108,-0.00001504,0.00025063,-0.00011079,-0.00000372,0.000403
 68,0.00030396,0.00000503,-0.00214433,0.00441980,0.00013060,-0.00122006
 ,-0.00166645,-0.00001584,-0.00007413,-0.00015079,-0.00000203,-0.000056
 96,0.00014999,0.00000341,0.00008893,-0.00147612,-0.00003215,-0.2259174
 4,-0.25213858,-0.00267505,0.00007651,0.00033782,0.00000867,0.00001375,
 -0.00007742,0.00002930,0.00001264,-0.00007684,-0.00003291,0.00014641,-
 0.00017979,-0.00000601,0.00000414,-0.00011026,-0.00000138,0.21426529,-
 0.02236608,-0.04282381,-0.00057049,-0.00403847,0.00662914,0.00019271,-
 0.00002595,-0.00227751,-0.00002634,0.00037696,0.00066467,0.00000799,-0
 .00184946,-0.00148381,-0.00001731,0.00651012,-0.00151683,-0.00015342,0
 .00157271,0.00013695,-0.00001825,0.00004488,0.00011190,0.00000152,0.00
 039909,-0.00040613,-0.00001120,0.00066924,0.00144422,0.00003099,-0.201
 59300,-0.32196693,-0.00390143,0.00025297,0.00058145,0.00000184,-0.0001
 5258,-0.00002767,-0.00002440,-0.00015102,-0.00002742,0.00002714,-0.000
 34540,-0.00037241,-0.00000050,0.00004144,0.00013594,0.00000075,0.22065
 456,0.36119825,-0.00051899,-0.00097022,-0.00032037,-0.00009922,0.00011
 168,-0.00228129,-0.00000061,-0.00001976,-0.00077725,0.00000497,0.00001
 217,0.00003704,-0.00003335,-0.00003539,0.00036417,0.00016798,-0.000135
 72,0.00401563,0.00004191,0.00000906,0.00041680,0.00000145,0.00000320,0
 .00000416,0.00000790,-0.00000911,0.00003419,0.00000597,0.00004917,-0.0
 0061052,-0.00177327,-0.00347822,-0.00857946,0.00000704,0.00000091,0.00
 036906,0.00002721,0.00003511,-0.00003537,-0.00003343,-0.00003354,-0.00
 003470,-0.00000900,-0.00000174,-0.00019056,0.00000135,0.00000199,0.000
 07575,0.00220209,0.00446039,0.00751271\\0.00001114,-0.00001050,-0.0000
 0218,-0.00001054,0.00000225,0.00000130,-0.00000213,-0.00000940,0.00000
 305,-0.00000505,0.00000376,-0.00000420,0.00001634,-0.00001455,-0.00000
 019,-0.00000891,0.00002099,0.00000095,-0.00000071,-0.00000009,-0.00000
 151,-0.00000094,-0.00000047,0.00000099,-0.00000369,0.00000282,0.000001
 58,0.00000085,-0.00000677,-0.00000076,-0.00000451,0.00000542,0.0000008
 6,-0.00000358,0.00000383,0.00000221,0.00000052,0.00000043,-0.00000386,
 0.00000134,0.00000347,0.00000283,0.00001045,-0.00000167,-0.00000226,-0
 .00000324,0.00000023,0.00000081,0.00000268,0.00000025,0.00000037\\\@
 The archive entry for this job was punched.


     SCHOPENHAUER'S LAW OF ENTROPY
 IF YOU PUT A SPOONFUL OF WINE IN A BARREL FULL
 OF SEWAGE, YOU GET SEWAGE.
 IF YOU PUT A SPOONFUL OF SEWAGE IN A BARREL FULL
 OF WINE, YOU GET SEWAGE.
 Job cpu time:       0 days  0 hours 44 minutes 21.9 seconds.
 Elapsed time:       0 days  0 hours  2 minutes 18.0 seconds.
 File lengths (MBytes):  RWF=    179 Int=      0 D2E=      0 Chk=      7 Scr=      1
 Normal termination of Gaussian 16 at Thu Sep  8 11:19:26 2022.
