 Entering Link 1 = D:\Gaussian\G16W\l1.exe PID=     50404.
  
 Copyright (c) 1988,1990,1992,1993,1995,1998,2003,2009,2016,
            Gaussian, Inc.  All Rights Reserved.
  
 This is part of the Gaussian(R) 16 program.  It is based on
 the Gaussian(R) 09 system (copyright 2009, Gaussian, Inc.),
 the Gaussian(R) 03 system (copyright 2003, Gaussian, Inc.),
 the Gaussian(R) 98 system (copyright 1998, Gaussian, Inc.),
 the Gaussian(R) 94 system (copyright 1995, Gaussian, Inc.),
 the Gaussian 92(TM) system (copyright 1992, Gaussian, Inc.),
 the Gaussian 90(TM) system (copyright 1990, Gaussian, Inc.),
 the Gaussian 88(TM) system (copyright 1988, Gaussian, Inc.),
 the Gaussian 86(TM) system (copyright 1986, Carnegie Mellon
 University), and the Gaussian 82(TM) system (copyright 1983,
 Carnegie Mellon University). Gaussian is a federally registered
 trademark of Gaussian, Inc.
  
 This software contains proprietary and confidential information,
 including trade secrets, belonging to Gaussian, Inc.
  
 This software is provided under written license and may be
 used, copied, transmitted, or stored only in accord with that
 written license.
  
 The following legend is applicable only to US Government
 contracts under FAR:
  
                    RESTRICTED RIGHTS LEGEND
  
 Use, reproduction and disclosure by the US Government is
 subject to restrictions as set forth in subparagraphs (a)
 and (c) of the Commercial Computer Software - Restricted
 Rights clause in FAR 52.227-19.
  
 Gaussian, Inc.
 340 Quinnipiac St., Bldg. 40, Wallingford CT 06492
  
  
 ---------------------------------------------------------------
 Warning -- This program may not be used in any manner that
 competes with the business of Gaussian, Inc. or will provide
 assistance to any competitor of Gaussian, Inc.  The licensee
 of this program is prohibited from giving any competitor of
 Gaussian, Inc. access to this program.  By using this program,
 the user acknowledges that Gaussian, Inc. is engaged in the
 business of creating and licensing software in the field of
 computational chemistry and represents and warrants to the
 licensee that it is not a competitor of Gaussian, Inc. and that
 it will not use this program in any manner prohibited above.
 ---------------------------------------------------------------
  

 Cite this work as:
 Gaussian 16, Revision A.03,
 M. J. Frisch, G. W. Trucks, H. B. Schlegel, G. E. Scuseria, 
 M. A. Robb, J. R. Cheeseman, G. Scalmani, V. Barone, 
 G. A. Petersson, H. Nakatsuji, X. Li, M. Caricato, A. V. Marenich, 
 J. Bloino, B. G. Janesko, R. Gomperts, B. Mennucci, H. P. Hratchian, 
 J. V. Ortiz, A. F. Izmaylov, J. L. Sonnenberg, D. Williams-Young, 
 F. Ding, F. Lipparini, F. Egidi, J. Goings, B. Peng, A. Petrone, 
 T. Henderson, D. Ranasinghe, V. G. Zakrzewski, J. Gao, N. Rega, 
 G. Zheng, W. Liang, M. Hada, M. Ehara, K. Toyota, R. Fukuda, 
 J. Hasegawa, M. Ishida, T. Nakajima, Y. Honda, O. Kitao, H. Nakai, 
 T. Vreven, K. Throssell, J. A. Montgomery, Jr., J. E. Peralta, 
 F. Ogliaro, M. J. Bearpark, J. J. Heyd, E. N. Brothers, K. N. Kudin, 
 V. N. Staroverov, T. A. Keith, R. Kobayashi, J. Normand, 
 K. Raghavachari, A. P. Rendell, J. C. Burant, S. S. Iyengar, 
 J. Tomasi, M. Cossi, J. M. Millam, M. Klene, C. Adamo, R. Cammi, 
 J. W. Ochterski, R. L. Martin, K. Morokuma, O. Farkas, 
 J. B. Foresman, and D. J. Fox, Gaussian, Inc., Wallingford CT, 2016.
 
 ******************************************
 Gaussian 16:  EM64W-G16RevA.03 17-Dec-2016
                08-Dec-2025 
 ******************************************
 %nprocshared=14
 Will use up to   14 processors via shared memory.
 %nprocs=   4
 Will use up to    4 processors via shared memory.
 --------------------------------------
 #p b3lyp/6-31g(d) out=wfn scf=conver=7
 --------------------------------------
 1/38=1,172=1/1;
 2/12=2,17=6,18=5,40=1/2;
 3/5=1,6=6,7=1,11=2,25=1,30=1,74=-5/1,2,3;
 4//1;
 5/5=2,6=7,38=5/2;
 6/7=2,8=2,9=2,10=2,28=1/1;
 99/5=1,6=100,9=1/99;
 Leave Link    1 at Mon Dec 08 16:29:38 2025, MaxMem=           0 cpu:               0.0 elap:               0.2
 (Enter D:\Gaussian\G16W\l101.exe)
 ----------------------------------------------------
 Generated by Multiwfn (http://sobereva.com/multiwfn)
 ----------------------------------------------------
 Symbolic Z-matrix:
 Charge = -1 Multiplicity = 1
 C                     0.99253   0.82691   0.00005 
 C                    -0.39582   0.79981   0.0001 
 C                    -1.08086  -0.41355   0.00007 
 C                    -0.35829  -1.63547  -0.00001 
 C                     1.00883  -1.6391   -0.00007 
 C                     1.78164  -0.41131  -0.00003 
 H                    -0.96569   1.72267   0.00017 
 H                    -0.90531  -2.5736   -0.00007 
 H                     1.57971  -2.56002  -0.00019 
 O                     3.02519  -0.3954   -0.00006 
 O                     1.70397   1.96789   0.00004 
 C                    -2.58556  -0.45426   0.00022 
 H                    -2.92126  -1.0166   -0.88493 
 H                    -2.92111  -1.01576   0.88596 
 O                    -3.11274   0.86273  -0.00033 
 H                    -4.07175   0.80392  -0.00014 
 H                     1.09924   2.7195    0.00005 
 
 ITRead=  0  0  0  0  0  0  0  0  0  0  0  0  0  0  0  0  0
 MicOpt= -1 -1 -1 -1 -1 -1 -1 -1 -1 -1 -1 -1 -1 -1 -1 -1 -1
 NAtoms=     17 NQM=       17 NQMF=       0 NMMI=      0 NMMIF=      0
                NMic=       0 NMicF=      0.
                    Isotopes and Nuclear Properties:
 (Nuclear quadrupole moments (NQMom) in fm**2, nuclear magnetic moments (NMagM)
  in nuclear magnetons)

  Atom         1           2           3           4           5           6           7           8           9          10
 IAtWgt=          12          12          12          12          12          12           1           1           1          16
 AtmWgt=  12.0000000  12.0000000  12.0000000  12.0000000  12.0000000  12.0000000   1.0078250   1.0078250   1.0078250  15.9949146
 NucSpn=           0           0           0           0           0           0           1           1           1           0
 AtZEff=   0.0000000   0.0000000   0.0000000   0.0000000   0.0000000   0.0000000   0.0000000   0.0000000   0.0000000   0.0000000
 NQMom=    0.0000000   0.0000000   0.0000000   0.0000000   0.0000000   0.0000000   0.0000000   0.0000000   0.0000000   0.0000000
 NMagM=    0.0000000   0.0000000   0.0000000   0.0000000   0.0000000   0.0000000   2.7928460   2.7928460   2.7928460   0.0000000
 AtZNuc=   6.0000000   6.0000000   6.0000000   6.0000000   6.0000000   6.0000000   1.0000000   1.0000000   1.0000000   8.0000000

  Atom        11          12          13          14          15          16          17
 IAtWgt=          16          12           1           1          16           1           1
 AtmWgt=  15.9949146  12.0000000   1.0078250   1.0078250  15.9949146   1.0078250   1.0078250
 NucSpn=           0           0           1           1           0           1           1
 AtZEff=   0.0000000   0.0000000   0.0000000   0.0000000   0.0000000   0.0000000   0.0000000
 NQMom=    0.0000000   0.0000000   0.0000000   0.0000000   0.0000000   0.0000000   0.0000000
 NMagM=    0.0000000   0.0000000   2.7928460   2.7928460   0.0000000   2.7928460   2.7928460
 AtZNuc=   8.0000000   6.0000000   1.0000000   1.0000000   8.0000000   1.0000000   1.0000000
 Leave Link  101 at Mon Dec 08 16:29:39 2025, MaxMem=   104857600 cpu:               1.0 elap:               0.1
 (Enter D:\Gaussian\G16W\l202.exe)
                          Input orientation:                          
 ---------------------------------------------------------------------
 Center     Atomic      Atomic             Coordinates (Angstroms)
 Number     Number       Type             X           Y           Z
 ---------------------------------------------------------------------
      1          6           0        0.992533    0.826911    0.000047
      2          6           0       -0.395817    0.799809    0.000101
      3          6           0       -1.080859   -0.413553    0.000072
      4          6           0       -0.358288   -1.635474   -0.000005
      5          6           0        1.008826   -1.639096   -0.000073
      6          6           0        1.781638   -0.411315   -0.000031
      7          1           0       -0.965692    1.722665    0.000173
      8          1           0       -0.905308   -2.573603   -0.000071
      9          1           0        1.579715   -2.560018   -0.000189
     10          8           0        3.025190   -0.395396   -0.000061
     11          8           0        1.703973    1.967894    0.000038
     12          6           0       -2.585564   -0.454264    0.000216
     13          1           0       -2.921263   -1.016603   -0.884926
     14          1           0       -2.921106   -1.015759    0.885958
     15          8           0       -3.112743    0.862725   -0.000327
     16          1           0       -4.071753    0.803920   -0.000141
     17          1           0        1.099240    2.719504    0.000047
 ---------------------------------------------------------------------
                    Distance matrix (angstroms):
                    1          2          3          4          5
     1  C    0.000000
     2  C    1.388614   0.000000
     3  C    2.416134   1.393388   0.000000
     4  C    2.808569   2.435572   1.419577   0.000000
     5  C    2.466061   2.814477   2.422548   1.367119   0.000000
     6  C    1.468295   2.491612   2.862498   2.465329   1.450753
     7  H    2.153374   1.084629   2.139320   3.412629   3.898738
     8  H    3.894264   3.411670   2.167172   1.085964   2.130073
     9  H    3.437451   3.897584   3.418474   2.147239   1.083518
    10  O    2.371862   3.623783   4.106089   3.603570   2.369074
    11  O    1.344615   2.402819   3.664230   4.151768   3.673364
    12  C    3.800551   2.523428   1.505256   2.521114   3.784636
    13  H    4.415826   3.234270   2.129314   2.781174   4.076280
    14  H    4.415523   3.233901   2.129309   2.781549   4.076514
    15  O    4.105432   2.717654   2.399466   3.718605   4.821456
    16  H    5.064338   3.675938   3.229193   4.443024   5.637429
    17  H    1.895599   2.433192   3.816920   4.592409   4.359538
                    6          7          8          9         10
     6  C    0.000000
     7  H    3.478749   0.000000
     8  H    3.448937   4.296692   0.000000
     9  H    2.158170   4.982015   2.485060   0.000000
    10  O    1.243654   4.518110   4.493707   2.602880   0.000000
    11  O    2.380476   2.680904   5.237704   4.529617   2.707537
    12  C    4.367413   2.713486   2.704599   4.667306   5.611063
    13  H    4.823556   3.480122   2.696533   4.839803   6.043938
    14  H    4.823498   3.479544   2.697289   4.840184   6.043866
    15  O    5.057484   2.312861   4.084253   5.808126   6.265548
    16  H    5.978209   3.239091   4.629691   6.576866   7.197566
    17  H    3.204324   2.292953   5.659964   5.301340   3.662224
                   11         12         13         14         15
    11  O    0.000000
    12  C    4.926152   0.000000
    13  H    5.575230   1.101088   0.000000
    14  H    5.574800   1.101092   1.770884   0.000000
    15  O    4.941877   1.418583   2.085918   2.085888   0.000000
    16  H    5.891846   1.947251   2.328256   2.328173   0.960811
    17  H    0.964686   4.863187   5.559327   5.558796   4.603089
                   16         17
    16  H    0.000000
    17  H    5.514402   0.000000
 Stoichiometry    C7H7O3(1-)
 Framework group  C1[X(C7H7O3)]
 Deg. of freedom    45
 Full point group                 C1      NOp   1
 Largest Abelian subgroup         C1      NOp   1
 Largest concise Abelian subgroup C1      NOp   1
                         Standard orientation:                         
 ---------------------------------------------------------------------
 Center     Atomic      Atomic             Coordinates (Angstroms)
 Number     Number       Type             X           Y           Z
 ---------------------------------------------------------------------
      1          6           0        0.992533    0.826911    0.000047
      2          6           0       -0.395817    0.799809    0.000101
      3          6           0       -1.080859   -0.413553    0.000072
      4          6           0       -0.358288   -1.635474   -0.000005
      5          6           0        1.008826   -1.639096   -0.000073
      6          6           0        1.781638   -0.411315   -0.000031
      7          1           0       -0.965692    1.722665    0.000173
      8          1           0       -0.905308   -2.573603   -0.000071
      9          1           0        1.579715   -2.560018   -0.000189
     10          8           0        3.025190   -0.395396   -0.000061
     11          8           0        1.703973    1.967894    0.000038
     12          6           0       -2.585564   -0.454264    0.000216
     13          1           0       -2.921263   -1.016603   -0.884926
     14          1           0       -2.921106   -1.015759    0.885958
     15          8           0       -3.112743    0.862725   -0.000327
     16          1           0       -4.071753    0.803920   -0.000141
     17          1           0        1.099240    2.719504    0.000047
 ---------------------------------------------------------------------
 Rotational constants (GHZ):           2.6442883           0.9222160           0.6866885
 Leave Link  202 at Mon Dec 08 16:29:39 2025, MaxMem=   104857600 cpu:               0.0 elap:               0.1
 (Enter D:\Gaussian\G16W\l301.exe)
 Standard basis: 6-31G(d) (6D, 7F)
 Ernie: Thresh=  0.10000D-02 Tol=  0.10000D-05 Strict=F.
 There are   164 symmetry adapted cartesian basis functions of A   symmetry.
 There are   164 symmetry adapted basis functions of A   symmetry.
   164 basis functions,   308 primitive gaussians,   164 cartesian basis functions
    37 alpha electrons       37 beta electrons
       nuclear repulsion energy       499.2044126331 Hartrees.
 IExCor=  402 DFT=T Ex+Corr=B3LYP ExCW=0 ScaHFX=  0.200000
 ScaDFX=  0.800000  0.720000  1.000000  0.810000 ScalE2=  1.000000  1.000000
 IRadAn=      5 IRanWt=     -1 IRanGd=            0 ICorTp=0 IEmpDi=  4
 NAtoms=   17 NActive=   17 NUniq=   17 SFac= 1.00D+00 NAtFMM=   60 NAOKFM=F Big=F
 Integral buffers will be    131072 words long.
 Raffenetti 2 integral format.
 Two-electron integral symmetry is turned on.
 Leave Link  301 at Mon Dec 08 16:29:39 2025, MaxMem=   104857600 cpu:               0.0 elap:               0.1
 (Enter D:\Gaussian\G16W\l302.exe)
 NPDir=0 NMtPBC=     1 NCelOv=     1 NCel=       1 NClECP=     1 NCelD=      1
         NCelK=      1 NCelE2=     1 NClLst=     1 CellRange=     0.0.
 One-electron integrals computed using PRISM.
 One-electron integral symmetry used in STVInt
 NBasis=   164 RedAO= T EigKep=  4.46D-04  NBF=   164
 NBsUse=   164 1.00D-06 EigRej= -1.00D+00 NBFU=   164
 Precomputing XC quadrature grid using
 IXCGrd= 4 IRadAn=           5 IRanWt=          -1 IRanGd=           0 AccXCQ= 0.00D+00.
 Generated NRdTot=       0 NPtTot=           0 NUsed=           0 NTot=          32
 NSgBfM=   163   163   163   163   163 MxSgAt=    17 MxSgA2=    17.
 Leave Link  302 at Mon Dec 08 16:29:39 2025, MaxMem=   104857600 cpu:               0.0 elap:               0.4
 (Enter D:\Gaussian\G16W\l303.exe)
 DipDrv:  MaxL=1.
 Leave Link  303 at Mon Dec 08 16:29:39 2025, MaxMem=   104857600 cpu:               0.0 elap:               0.1
 (Enter D:\Gaussian\G16W\l401.exe)
 ExpMin= 1.61D-01 ExpMax= 5.48D+03 ExpMxC= 8.25D+02 IAcc=3 IRadAn=         5 AccDes= 0.00D+00
 Harris functional with IExCor=  402 and IRadAn=       5 diagonalized for initial guess.
 HarFok:  IExCor=  402 AccDes= 0.00D+00 IRadAn=         5 IDoV= 1 UseB2=F ITyADJ=14
 ICtDFT=  3500011 ScaDFX=  1.000000  1.000000  1.000000  1.000000
 FoFCou: FMM=F IPFlag=           0 FMFlag=      100000 FMFlg1=           0
         NFxFlg=           0 DoJE=T BraDBF=F KetDBF=T FulRan=T
         wScrn=  0.000000 ICntrl=       500 IOpCl=  0 I1Cent=   200000004 NGrid=           0
         NMat0=    1 NMatS0=      1 NMatT0=    0 NMatD0=    1 NMtDS0=    0 NMtDT0=    0
 Petite list used in FoFCou.
 Harris En= -496.849132235693    
 JPrj=0 DoOrth=F DoCkMO=F.
 Leave Link  401 at Mon Dec 08 16:29:40 2025, MaxMem=   104857600 cpu:               1.0 elap:               1.0
 (Enter D:\Gaussian\G16W\l502.exe)
 Keep R1 ints in memory in canonical form, NReq=95505454.
 FoFCou: FMM=F IPFlag=           0 FMFlag=           0 FMFlg1=           0
         NFxFlg=           0 DoJE=F BraDBF=F KetDBF=F FulRan=T
         wScrn=  0.000000 ICntrl=       600 IOpCl=  0 I1Cent=           0 NGrid=           0
         NMat0=    1 NMatS0=  13530 NMatT0=    0 NMatD0=    1 NMtDS0=    0 NMtDT0=    0
 Symmetry not used in FoFCou.
 Two-electron integral symmetry not used.
 Closed shell SCF:
 Using DIIS extrapolation, IDIIS=  1040.
 NGot=   104857600 LenX=    13263708 LenY=    13236371
 Requested convergence on RMS density matrix=1.00D-07 within 128 cycles.
 Requested convergence on MAX density matrix=1.00D-05.
 Requested convergence on             energy=1.00D-05.
 No special actions if energy rises.
 Integral accuracy reduced to 1.0D-05 until final iterations.

 Cycle   1  Pass 0  IDiag  1:
 E= -496.250653151899    
 DIIS: error= 4.10D-02 at cycle   1 NSaved=   1.
 NSaved= 1 IEnMin= 1 EnMin= -496.250653151899     IErMin= 1 ErrMin= 4.10D-02
 ErrMax= 4.10D-02  0.00D+00 EMaxC= 1.00D-01 BMatC= 3.68D-01 BMatP= 3.68D-01
 IDIUse=3 WtCom= 5.90D-01 WtEn= 4.10D-01
 Coeff-Com:  0.100D+01
 Coeff-En:   0.100D+01
 Coeff:      0.100D+01
 Gap=     0.160 Goal=   None    Shift=    0.000
 GapD=    0.160 DampG=1.000 DampE=0.500 DampFc=0.5000 IDamp=-1.
 Damping current iteration by 5.00D-01
 RMSDP=3.30D-02 MaxDP=2.16D+00              OVMax= 9.83D-01

 Cycle   2  Pass 0  IDiag  1:
 E= -495.831545415812     Delta-E=        0.419107736087 Rises=F Damp=T
 DIIS: error= 2.83D-02 at cycle   2 NSaved=   2.
 NSaved= 2 IEnMin= 1 EnMin= -496.250653151899     IErMin= 2 ErrMin= 2.83D-02
 ErrMax= 2.83D-02  0.00D+00 EMaxC= 1.00D-01 BMatC= 1.97D-01 BMatP= 3.68D-01
 IDIUse=3 WtCom= 7.17D-01 WtEn= 2.83D-01
 Coeff-Com:  0.389D+00 0.611D+00
 Coeff-En:   0.755D+00 0.245D+00
 Coeff:      0.493D+00 0.507D+00
 Gap=    -0.403 Goal=   None    Shift=    0.000
 RMSDP=1.63D-02 MaxDP=1.03D+00 DE= 4.19D-01 OVMax= 6.04D-01

 Cycle   3  Pass 0  IDiag  1:
 E= -496.294467064486     Delta-E=       -0.462921648673 Rises=F Damp=F
 DIIS: error= 3.10D-02 at cycle   3 NSaved=   3.
 NSaved= 3 IEnMin= 3 EnMin= -496.294467064486     IErMin= 2 ErrMin= 2.83D-02
 ErrMax= 3.10D-02  0.00D+00 EMaxC= 1.00D-01 BMatC= 2.87D-01 BMatP= 1.97D-01
 IDIUse=2 WtCom= 0.00D+00 WtEn= 1.00D+00
 EnCoef did     2 forward-backward iterations
 Coeff-En:   0.311D+00 0.182D+00 0.508D+00
 Coeff:      0.311D+00 0.182D+00 0.508D+00
 Gap=     0.323 Goal=   None    Shift=    0.000
 RMSDP=8.39D-03 MaxDP=2.08D-01 DE=-4.63D-01 OVMax= 5.25D-01

 Cycle   4  Pass 0  IDiag  1:
 E= -496.379407487154     Delta-E=       -0.084940422669 Rises=F Damp=F
 DIIS: error= 3.27D-02 at cycle   4 NSaved=   4.
 NSaved= 4 IEnMin= 4 EnMin= -496.379407487154     IErMin= 2 ErrMin= 2.83D-02
 ErrMax= 3.27D-02  0.00D+00 EMaxC= 1.00D-01 BMatC= 2.35D-01 BMatP= 1.97D-01
 IDIUse=2 WtCom= 0.00D+00 WtEn= 1.00D+00
 Coeff-En:   0.000D+00 0.000D+00 0.438D+00 0.562D+00
 Coeff:      0.000D+00 0.000D+00 0.438D+00 0.562D+00
 Gap=     0.215 Goal=   None    Shift=    0.000
 RMSDP=5.53D-03 MaxDP=1.52D-01 DE=-8.49D-02 OVMax= 3.03D-01

 Cycle   5  Pass 0  IDiag  1:
 E= -496.564343172898     Delta-E=       -0.184935685744 Rises=F Damp=F
 DIIS: error= 1.25D-02 at cycle   5 NSaved=   5.
 NSaved= 5 IEnMin= 5 EnMin= -496.564343172898     IErMin= 5 ErrMin= 1.25D-02
 ErrMax= 1.25D-02  0.00D+00 EMaxC= 1.00D-01 BMatC= 5.24D-02 BMatP= 1.97D-01
 IDIUse=3 WtCom= 8.75D-01 WtEn= 1.25D-01
 Coeff-Com:  0.781D-02 0.868D-01 0.216D+00 0.267D+00 0.423D+00
 Coeff-En:   0.000D+00 0.000D+00 0.000D+00 0.165D+00 0.835D+00
 Coeff:      0.683D-02 0.760D-01 0.189D+00 0.254D+00 0.475D+00
 Gap=     0.171 Goal=   None    Shift=    0.000
 RMSDP=1.51D-03 MaxDP=3.73D-02 DE=-1.85D-01 OVMax= 4.81D-02

 Cycle   6  Pass 0  IDiag  1:
 E= -496.601218382934     Delta-E=       -0.036875210035 Rises=F Damp=F
 DIIS: error= 4.98D-03 at cycle   6 NSaved=   6.
 NSaved= 6 IEnMin= 6 EnMin= -496.601218382934     IErMin= 6 ErrMin= 4.98D-03
 ErrMax= 4.98D-03  0.00D+00 EMaxC= 1.00D-01 BMatC= 3.91D-03 BMatP= 5.24D-02
 IDIUse=3 WtCom= 9.50D-01 WtEn= 4.98D-02
 Coeff-Com: -0.505D-01 0.351D-01-0.266D-01 0.445D-01 0.281D+00 0.717D+00
 Coeff-En:   0.000D+00 0.000D+00 0.000D+00 0.000D+00 0.000D+00 0.100D+01
 Coeff:     -0.480D-01 0.334D-01-0.253D-01 0.423D-01 0.267D+00 0.731D+00
 Gap=     0.155 Goal=   None    Shift=    0.000
 RMSDP=4.45D-04 MaxDP=1.10D-02 DE=-3.69D-02 OVMax= 1.11D-02

 Cycle   7  Pass 0  IDiag  1:
 E= -496.604295089066     Delta-E=       -0.003076706132 Rises=F Damp=F
 DIIS: error= 1.34D-03 at cycle   7 NSaved=   7.
 NSaved= 7 IEnMin= 7 EnMin= -496.604295089066     IErMin= 7 ErrMin= 1.34D-03
 ErrMax= 1.34D-03  0.00D+00 EMaxC= 1.00D-01 BMatC= 4.47D-04 BMatP= 3.91D-03
 IDIUse=3 WtCom= 9.87D-01 WtEn= 1.34D-02
 Coeff-Com: -0.236D-01 0.194D-01-0.259D-01 0.136D-01 0.890D-01 0.328D+00
 Coeff-Com:  0.599D+00
 Coeff-En:   0.000D+00 0.000D+00 0.000D+00 0.000D+00 0.000D+00 0.000D+00
 Coeff-En:   0.100D+01
 Coeff:     -0.233D-01 0.192D-01-0.255D-01 0.134D-01 0.878D-01 0.324D+00
 Coeff:      0.605D+00
 Gap=     0.151 Goal=   None    Shift=    0.000
 RMSDP=1.33D-04 MaxDP=2.38D-03 DE=-3.08D-03 OVMax= 9.21D-03

 Cycle   8  Pass 0  IDiag  1:
 E= -496.604714806030     Delta-E=       -0.000419716965 Rises=F Damp=F
 DIIS: error= 7.26D-04 at cycle   8 NSaved=   8.
 NSaved= 8 IEnMin= 8 EnMin= -496.604714806030     IErMin= 8 ErrMin= 7.26D-04
 ErrMax= 7.26D-04  0.00D+00 EMaxC= 1.00D-01 BMatC= 9.77D-05 BMatP= 4.47D-04
 IDIUse=3 WtCom= 9.93D-01 WtEn= 7.26D-03
 Coeff-Com: -0.892D-02 0.109D-01-0.137D-01 0.416D-02 0.145D-01 0.795D-01
 Coeff-Com:  0.294D+00 0.619D+00
 Coeff-En:   0.000D+00 0.000D+00 0.000D+00 0.000D+00 0.000D+00 0.000D+00
 Coeff-En:   0.000D+00 0.100D+01
 Coeff:     -0.885D-02 0.108D-01-0.136D-01 0.413D-02 0.144D-01 0.789D-01
 Coeff:      0.292D+00 0.622D+00
 Gap=     0.150 Goal=   None    Shift=    0.000
 RMSDP=5.22D-05 MaxDP=1.46D-03 DE=-4.20D-04 OVMax= 2.03D-03

 Cycle   9  Pass 0  IDiag  1:
 E= -496.604781545740     Delta-E=       -0.000066739709 Rises=F Damp=F
 DIIS: error= 3.21D-04 at cycle   9 NSaved=   9.
 NSaved= 9 IEnMin= 9 EnMin= -496.604781545740     IErMin= 9 ErrMin= 3.21D-04
 ErrMax= 3.21D-04  0.00D+00 EMaxC= 1.00D-01 BMatC= 2.52D-05 BMatP= 9.77D-05
 IDIUse=3 WtCom= 9.97D-01 WtEn= 3.21D-03
 Coeff-Com: -0.660D-03 0.183D-02-0.177D-02 0.210D-02-0.110D-01-0.491D-01
 Coeff-Com: -0.359D-01 0.222D+00 0.872D+00
 Coeff-En:   0.000D+00 0.000D+00 0.000D+00 0.000D+00 0.000D+00 0.000D+00
 Coeff-En:   0.000D+00 0.000D+00 0.100D+01
 Coeff:     -0.658D-03 0.183D-02-0.177D-02 0.209D-02-0.110D-01-0.489D-01
 Coeff:     -0.358D-01 0.221D+00 0.873D+00
 Gap=     0.148 Goal=   None    Shift=    0.000
 RMSDP=5.35D-05 MaxDP=1.02D-03 DE=-6.67D-05 OVMax= 3.81D-03

 Cycle  10  Pass 0  IDiag  1:
 E= -496.604812509360     Delta-E=       -0.000030963620 Rises=F Damp=F
 DIIS: error= 8.77D-05 at cycle  10 NSaved=  10.
 NSaved=10 IEnMin=10 EnMin= -496.604812509360     IErMin=10 ErrMin= 8.77D-05
 ErrMax= 8.77D-05  0.00D+00 EMaxC= 1.00D-01 BMatC= 2.02D-06 BMatP= 2.52D-05
 IDIUse=1 WtCom= 1.00D+00 WtEn= 0.00D+00
 Coeff-Com:  0.184D-03 0.407D-03 0.389D-03 0.612D-03-0.694D-02-0.380D-01
 Coeff-Com: -0.615D-01 0.325D-01 0.554D+00 0.519D+00
 Coeff:      0.184D-03 0.407D-03 0.389D-03 0.612D-03-0.694D-02-0.380D-01
 Coeff:     -0.615D-01 0.325D-01 0.554D+00 0.519D+00
 Gap=     0.148 Goal=   None    Shift=    0.000
 RMSDP=1.01D-05 MaxDP=2.55D-04 DE=-3.10D-05 OVMax= 5.13D-04

 Cycle  11  Pass 0  IDiag  1:
 E= -496.604814379772     Delta-E=       -0.000001870412 Rises=F Damp=F
 DIIS: error= 1.12D-05 at cycle  11 NSaved=  11.
 NSaved=11 IEnMin=11 EnMin= -496.604814379772     IErMin=11 ErrMin= 1.12D-05
 ErrMax= 1.12D-05  0.00D+00 EMaxC= 1.00D-01 BMatC= 4.02D-08 BMatP= 2.02D-06
 IDIUse=1 WtCom= 1.00D+00 WtEn= 0.00D+00
 Coeff-Com:  0.303D-04 0.546D-04 0.251D-03 0.924D-04-0.931D-03-0.764D-02
 Coeff-Com: -0.160D-01-0.113D-01 0.989D-01 0.169D+00 0.768D+00
 Coeff:      0.303D-04 0.546D-04 0.251D-03 0.924D-04-0.931D-03-0.764D-02
 Coeff:     -0.160D-01-0.113D-01 0.989D-01 0.169D+00 0.768D+00
 Gap=     0.148 Goal=   None    Shift=    0.000
 RMSDP=2.14D-06 MaxDP=5.91D-05 DE=-1.87D-06 OVMax= 1.62D-04

 Initial convergence to 1.0D-05 achieved.  Increase integral accuracy.
 Cycle  12  Pass 1  IDiag  1:
 E= -496.604823309382     Delta-E=       -0.000008929610 Rises=F Damp=F
 DIIS: error= 5.29D-06 at cycle   1 NSaved=   1.
 NSaved= 1 IEnMin= 1 EnMin= -496.604823309382     IErMin= 1 ErrMin= 5.29D-06
 ErrMax= 5.29D-06  0.00D+00 EMaxC= 1.00D-01 BMatC= 1.30D-08 BMatP= 1.30D-08
 IDIUse=1 WtCom= 1.00D+00 WtEn= 0.00D+00
 Coeff-Com:  0.100D+01
 Coeff:      0.100D+01
 Gap=     0.148 Goal=   None    Shift=    0.000
 RMSDP=2.14D-06 MaxDP=5.91D-05 DE=-8.93D-06 OVMax= 1.51D-04

 Cycle  13  Pass 1  IDiag  1:
 E= -496.604823295372     Delta-E=        0.000000014010 Rises=F Damp=F
 DIIS: error= 9.96D-06 at cycle   2 NSaved=   2.
 NSaved= 2 IEnMin= 1 EnMin= -496.604823309382     IErMin= 1 ErrMin= 5.29D-06
 ErrMax= 9.96D-06  0.00D+00 EMaxC= 1.00D-01 BMatC= 2.78D-08 BMatP= 1.30D-08
 IDIUse=1 WtCom= 1.00D+00 WtEn= 0.00D+00
 Coeff-Com:  0.605D+00 0.395D+00
 Coeff:      0.605D+00 0.395D+00
 Gap=     0.148 Goal=   None    Shift=    0.000
 RMSDP=1.38D-06 MaxDP=3.85D-05 DE= 1.40D-08 OVMax= 1.12D-04

 Cycle  14  Pass 1  IDiag  1:
 E= -496.604823323895     Delta-E=       -0.000000028522 Rises=F Damp=F
 DIIS: error= 1.80D-06 at cycle   3 NSaved=   3.
 NSaved= 3 IEnMin= 3 EnMin= -496.604823323895     IErMin= 3 ErrMin= 1.80D-06
 ErrMax= 1.80D-06  0.00D+00 EMaxC= 1.00D-01 BMatC= 9.01D-10 BMatP= 1.30D-08
 IDIUse=1 WtCom= 1.00D+00 WtEn= 0.00D+00
 Coeff-Com:  0.831D-01 0.161D+00 0.756D+00
 Coeff:      0.831D-01 0.161D+00 0.756D+00
 Gap=     0.148 Goal=   None    Shift=    0.000
 RMSDP=3.10D-07 MaxDP=7.71D-06 DE=-2.85D-08 OVMax= 2.28D-05

 Cycle  15  Pass 1  IDiag  1:
 E= -496.604823324593     Delta-E=       -0.000000000699 Rises=F Damp=F
 DIIS: error= 9.22D-07 at cycle   4 NSaved=   4.
 NSaved= 4 IEnMin= 4 EnMin= -496.604823324593     IErMin= 4 ErrMin= 9.22D-07
 ErrMax= 9.22D-07  0.00D+00 EMaxC= 1.00D-01 BMatC= 3.03D-10 BMatP= 9.01D-10
 IDIUse=1 WtCom= 1.00D+00 WtEn= 0.00D+00
 Coeff-Com: -0.130D-01 0.580D-01 0.469D+00 0.486D+00
 Coeff:     -0.130D-01 0.580D-01 0.469D+00 0.486D+00
 Gap=     0.148 Goal=   None    Shift=    0.000
 RMSDP=1.45D-07 MaxDP=2.76D-06 DE=-6.99D-10 OVMax= 6.57D-06

 Cycle  16  Pass 1  IDiag  1:
 E= -496.604823324878     Delta-E=       -0.000000000284 Rises=F Damp=F
 DIIS: error= 2.91D-07 at cycle   5 NSaved=   5.
 NSaved= 5 IEnMin= 5 EnMin= -496.604823324878     IErMin= 5 ErrMin= 2.91D-07
 ErrMax= 2.91D-07  0.00D+00 EMaxC= 1.00D-01 BMatC= 1.88D-11 BMatP= 3.03D-10
 IDIUse=1 WtCom= 1.00D+00 WtEn= 0.00D+00
 Coeff-Com: -0.786D-02 0.283D-01 0.239D+00 0.293D+00 0.448D+00
 Coeff:     -0.786D-02 0.283D-01 0.239D+00 0.293D+00 0.448D+00
 Gap=     0.148 Goal=   None    Shift=    0.000
 RMSDP=4.70D-08 MaxDP=1.25D-06 DE=-2.84D-10 OVMax= 3.50D-06

 SCF Done:  E(RB3LYP) =  -496.604823325     A.U. after   16 cycles
            NFock= 16  Conv=0.47D-07     -V/T= 2.0082
 KE= 4.925739565033D+02 PE=-2.173314902482D+03 EE= 6.849317100208D+02
 Leave Link  502 at Mon Dec 08 16:29:54 2025, MaxMem=   104857600 cpu:              14.0 elap:              14.0
 (Enter D:\Gaussian\G16W\l601.exe)
 Copying SCF densities to generalized density rwf, IOpCl= 0 IROHF=0.

 **********************************************************************

            Population analysis using the SCF density.

 **********************************************************************

 Orbital symmetries:
       Occupied  (A) (A) (A) (A) (A) (A) (A) (A) (A) (A) (A) (A)
                 (A) (A) (A) (A) (A) (A) (A) (A) (A) (A) (A) (A)
                 (A) (A) (A) (A) (A) (A) (A) (A) (A) (A) (A) (A)
                 (A)
       Virtual   (A) (A) (A) (A) (A) (A) (A) (A) (A) (A) (A) (A)
                 (A) (A) (A) (A) (A) (A) (A) (A) (A) (A) (A) (A)
                 (A) (A) (A) (A) (A) (A) (A) (A) (A) (A) (A) (A)
                 (A) (A) (A) (A) (A) (A) (A) (A) (A) (A) (A) (A)
                 (A) (A) (A) (A) (A) (A) (A) (A) (A) (A) (A) (A)
                 (A) (A) (A) (A) (A) (A) (A) (A) (A) (A) (A) (A)
                 (A) (A) (A) (A) (A) (A) (A) (A) (A) (A) (A) (A)
                 (A) (A) (A) (A) (A) (A) (A) (A) (A) (A) (A) (A)
                 (A) (A) (A) (A) (A) (A) (A) (A) (A) (A) (A) (A)
                 (A) (A) (A) (A) (A) (A) (A) (A) (A) (A) (A) (A)
                 (A) (A) (A) (A) (A) (A) (A)
 The electronic state is 1-A.
 Alpha  occ. eigenvalues --  -19.02182 -18.99594 -18.86142 -10.09390 -10.03450
 Alpha  occ. eigenvalues --  -10.02492  -9.99821  -9.99653  -9.99328  -9.97412
 Alpha  occ. eigenvalues --   -0.89584  -0.88373  -0.76725  -0.64826  -0.56705
 Alpha  occ. eigenvalues --   -0.54791  -0.48146  -0.43502  -0.38854  -0.38206
 Alpha  occ. eigenvalues --   -0.33977  -0.31415  -0.29497  -0.27382  -0.24247
 Alpha  occ. eigenvalues --   -0.23490  -0.22229  -0.20632  -0.18183  -0.17127
 Alpha  occ. eigenvalues --   -0.15719  -0.14992  -0.14383  -0.10720  -0.04636
 Alpha  occ. eigenvalues --   -0.00694   0.03670
 Alpha virt. eigenvalues --    0.18449   0.20512   0.22114   0.22435   0.25664
 Alpha virt. eigenvalues --    0.28298   0.31230   0.32265   0.32828   0.35982
 Alpha virt. eigenvalues --    0.38742   0.42085   0.44850   0.45870   0.52179
 Alpha virt. eigenvalues --    0.52698   0.56446   0.58452   0.64389   0.68182
 Alpha virt. eigenvalues --    0.70394   0.72038   0.73468   0.75385   0.75839
 Alpha virt. eigenvalues --    0.78415   0.79349   0.80177   0.81193   0.84035
 Alpha virt. eigenvalues --    0.84349   0.85921   0.89349   0.90484   0.92004
 Alpha virt. eigenvalues --    0.92616   0.94663   0.96768   0.97648   0.98510
 Alpha virt. eigenvalues --    1.01648   1.02616   1.05849   1.07489   1.08590
 Alpha virt. eigenvalues --    1.10545   1.12455   1.13425   1.14741   1.17215
 Alpha virt. eigenvalues --    1.19673   1.24458   1.26785   1.26871   1.29471
 Alpha virt. eigenvalues --    1.32014   1.36478   1.38256   1.43714   1.44140
 Alpha virt. eigenvalues --    1.48775   1.50542   1.51061   1.56996   1.57867
 Alpha virt. eigenvalues --    1.64615   1.65727   1.66260   1.68613   1.78498
 Alpha virt. eigenvalues --    1.83636   1.86035   1.90152   1.90416   1.92019
 Alpha virt. eigenvalues --    1.93750   1.99800   2.00696   2.02056   2.03771
 Alpha virt. eigenvalues --    2.08767   2.10772   2.11364   2.15468   2.15858
 Alpha virt. eigenvalues --    2.16779   2.20470   2.23720   2.26533   2.29203
 Alpha virt. eigenvalues --    2.30816   2.34005   2.39115   2.44325   2.50385
 Alpha virt. eigenvalues --    2.50875   2.52929   2.55052   2.56431   2.57599
 Alpha virt. eigenvalues --    2.61444   2.64309   2.65096   2.80069   2.82692
 Alpha virt. eigenvalues --    2.84666   2.88179   2.89404   2.95182   2.98365
 Alpha virt. eigenvalues --    3.03795   3.08051   3.13663   3.14839   3.26051
 Alpha virt. eigenvalues --    3.44510   3.58934   3.98564   4.03210   4.27402
 Alpha virt. eigenvalues --    4.29385   4.37350   4.40595   4.51865   4.57830
 Alpha virt. eigenvalues --    4.76654   5.15867
          Condensed to atoms (all electrons):
               1          2          3          4          5          6
     1  C    5.167581   0.388027   0.001732  -0.042689  -0.084416   0.288864
     2  C    0.388027   5.274378   0.496298  -0.039333  -0.037109  -0.020586
     3  C    0.001732   0.496298   4.842301   0.520284  -0.020903  -0.030914
     4  C   -0.042689  -0.039333   0.520284   5.098180   0.432483  -0.002861
     5  C   -0.084416  -0.037109  -0.020903   0.432483   5.318715   0.448138
     6  C    0.288864  -0.020586  -0.030914  -0.002861   0.448138   4.443176
     7  H   -0.057807   0.318297  -0.027173   0.007595  -0.000011   0.002437
     8  H   -0.000548   0.008014  -0.066273   0.327580  -0.044140   0.004078
     9  H    0.011414  -0.000007   0.005598  -0.058214   0.308979  -0.030903
    10  O   -0.101266   0.006953  -0.000053   0.006772  -0.089575   0.551969
    11  O    0.251701  -0.070932   0.004205   0.000580   0.002925  -0.042819
    12  C    0.006449  -0.057087   0.332069  -0.071496   0.006793   0.000309
    13  H    0.000038   0.001179  -0.049639  -0.001281   0.000060   0.000029
    14  H    0.000038   0.001165  -0.049630  -0.001277   0.000060   0.000029
    15  O    0.000364  -0.003305  -0.035114   0.001734  -0.000049   0.000006
    16  H   -0.000001   0.000428   0.005923  -0.000246   0.000004   0.000000
    17  H   -0.040685  -0.005902   0.000588  -0.000017  -0.000254   0.006317
               7          8          9         10         11         12
     1  C   -0.057807  -0.000548   0.011414  -0.101266   0.251701   0.006449
     2  C    0.318297   0.008014  -0.000007   0.006953  -0.070932  -0.057087
     3  C   -0.027173  -0.066273   0.005598  -0.000053   0.004205   0.332069
     4  C    0.007595   0.327580  -0.058214   0.006772   0.000580  -0.071496
     5  C   -0.000011  -0.044140   0.308979  -0.089575   0.002925   0.006793
     6  C    0.002437   0.004078  -0.030903   0.551969  -0.042819   0.000309
     7  H    0.688671  -0.000251   0.000025  -0.000073  -0.005069  -0.020468
     8  H   -0.000251   0.756626  -0.009935  -0.000103   0.000003  -0.012591
     9  H    0.000025  -0.009935   0.728228   0.003776  -0.000065  -0.000238
    10  O   -0.000073  -0.000103   0.003776   8.298357   0.000721   0.000000
    11  O   -0.005069   0.000003  -0.000065   0.000721   8.268548  -0.000087
    12  C   -0.020468  -0.012591  -0.000238   0.000000  -0.000087   5.013821
    13  H    0.000524   0.003527  -0.000001   0.000000   0.000000   0.337078
    14  H    0.000524   0.003517  -0.000001   0.000000   0.000000   0.337045
    15  O    0.014683   0.000082   0.000000   0.000000   0.000000   0.237807
    16  H   -0.000628  -0.000011   0.000000   0.000000   0.000000  -0.023398
    17  H    0.010422  -0.000002   0.000010  -0.000298   0.232064  -0.000029
              13         14         15         16         17
     1  C    0.000038   0.000038   0.000364  -0.000001  -0.040685
     2  C    0.001179   0.001165  -0.003305   0.000428  -0.005902
     3  C   -0.049639  -0.049630  -0.035114   0.005923   0.000588
     4  C   -0.001281  -0.001277   0.001734  -0.000246  -0.000017
     5  C    0.000060   0.000060  -0.000049   0.000004  -0.000254
     6  C    0.000029   0.000029   0.000006   0.000000   0.006317
     7  H    0.000524   0.000524   0.014683  -0.000628   0.010422
     8  H    0.003527   0.003517   0.000082  -0.000011  -0.000002
     9  H   -0.000001  -0.000001   0.000000   0.000000   0.000010
    10  O    0.000000   0.000000   0.000000   0.000000  -0.000298
    11  O    0.000000   0.000000   0.000000   0.000000   0.232064
    12  C    0.337078   0.337045   0.237807  -0.023398  -0.000029
    13  H    0.747069  -0.081479  -0.038860  -0.004833   0.000000
    14  H   -0.081479   0.747132  -0.038884  -0.004825   0.000000
    15  O   -0.038860  -0.038884   8.265052   0.222317  -0.000015
    16  H   -0.004833  -0.004825   0.222317   0.437640   0.000001
    17  H    0.000000   0.000000  -0.000015   0.000001   0.432586
 Mulliken charges:
               1
     1  C    0.211206
     2  C   -0.260479
     3  C    0.070701
     4  C   -0.177793
     5  C   -0.241699
     6  C    0.382732
     7  H    0.068303
     8  H    0.030427
     9  H    0.041334
    10  O   -0.677180
    11  O   -0.641776
    12  C   -0.085977
    13  H    0.086591
    14  H    0.086585
    15  O   -0.625818
    16  H    0.367629
    17  H    0.365214
 Sum of Mulliken charges =  -1.00000
 Mulliken charges with hydrogens summed into heavy atoms:
               1
     1  C    0.211206
     2  C   -0.192176
     3  C    0.070701
     4  C   -0.147366
     5  C   -0.200365
     6  C    0.382732
    10  O   -0.677180
    11  O   -0.276562
    12  C    0.087200
    15  O   -0.258189
 Electronic spatial extent (au):  <R**2>=           1590.0355
 Charge=             -1.0000 electrons
 Dipole moment (field-independent basis, Debye):
    X=             -8.5935    Y=              1.4943    Z=              0.0008  Tot=              8.7224
 Quadrupole moment (field-independent basis, Debye-Ang):
   XX=            -83.6372   YY=            -60.4972   ZZ=            -61.9713
   XY=              2.3279   XZ=             -0.0015   YZ=              0.0009
 Traceless Quadrupole moment (field-independent basis, Debye-Ang):
   XX=            -14.9353   YY=              8.2047   ZZ=              6.7306
   XY=              2.3279   XZ=             -0.0015   YZ=              0.0009
 Octapole moment (field-independent basis, Debye-Ang**2):
  XXX=           -125.7190  YYY=             33.1448  ZZZ=             -0.0013  XYY=             -1.7283
  XXY=              5.8730  XXZ=              0.0051  XZZ=              1.2280  YZZ=              6.1807
  YYZ=             -0.0004  XYZ=             -0.0027
 Hexadecapole moment (field-independent basis, Debye-Ang**3):
 XXXX=          -1418.2785 YYYY=           -511.3107 ZZZZ=            -67.0105 XXXY=            -11.8034
 XXXZ=              0.0012 YYYX=              4.3653 YYYZ=              0.0022 ZZZX=              0.0037
 ZZZY=             -0.0007 XXYY=           -349.5144 XXZZ=           -242.7795 YYZZ=           -111.0580
 XXYZ=              0.0065 YYXZ=              0.0004 ZZXY=              0.8401
 N-N= 4.992044126331D+02 E-N=-2.173314875368D+03  KE= 4.925739565033D+02
 No NMR shielding tensors so no spin-rotation constants.
 Leave Link  601 at Mon Dec 08 16:29:54 2025, MaxMem=   104857600 cpu:               0.0 elap:               0.1
 (Enter D:\Gaussian\G16W\l9999.exe)
 1|1|UNPC-PC-20250526LCFF|SP|RB3LYP|6-31G(d)|C7H7O3(1-)|ADMINISTRATOR|0
 8-Dec-2025|0||#p b3lyp/6-31g(d) out=wfn scf=conver=7||Generated by Mul
 tiwfn (http://sobereva.com/multiwfn)||-1,1|C,0,0.9925329,0.82691103,0.
 00004682|C,0,-0.39581709,0.79980903,0.00010082|C,0,-1.0808591,-0.41355
 297,0.00007182|C,0,-0.3582881,-1.63547397,-0.00000518|C,0,1.0088259,-1
 .63909597,-0.00007318|C,0,1.7816379,-0.41131498,-0.00003118|H,0,-0.965
 69209,1.72266503,0.00017282|H,0,-0.9053081,-2.57360297,-0.00007118|H,0
 ,1.5797149,-2.56001798,-0.00018918|O,0,3.0251899,-0.39539598,-0.000061
 18|O,0,1.70397291,1.96789403,0.00003782|C,0,-2.5855641,-0.45426397,0.0
 0021582|H,0,-2.9212631,-1.01660296,-0.88492618|H,0,-2.9211061,-1.01575
 897,0.88595782|O,0,-3.11274309,0.86272503,-0.00032718|H,0,-4.0717531,0
 .80392003,-0.00014118|H,0,1.09923991,2.71950402,0.00004682||Version=EM
 64W-G16RevA.03|State=1-A|HF=-496.6048233|RMSD=4.701e-008|Dipole=-3.380
 9417,0.5878984,0.0003034|Quadrupole=-11.1040289,6.0999684,5.0040605,1.
 7307316,-0.0010913,0.0006826|PG=C01 [X(C7H7O3)]||@

 Writing a WFN file to "N+1.wfn"


 If your ship doesn't come in, swim out to it!
                          -- Jonathan Winters
 Job cpu time:       0 days  0 hours  0 minutes 16.0 seconds.
 Elapsed time:       0 days  0 hours  0 minutes 16.1 seconds.
 File lengths (MBytes):  RWF=     14 Int=      0 D2E=      0 Chk=      3 Scr=      1
 Normal termination of Gaussian 16 at Mon Dec 08 16:29:54 2025.
