 Generated by Multiwfn (http://sobereva.com/multiwfn)
GAUSSIAN             37 MOL ORBITALS    308 PRIMITIVES       17 NUCLEI
  C    1    (CENTRE  1)   1.87561535  1.56263537  0.00008848  CHARGE =  6.0
  C    2    (CENTRE  2)  -0.74798589  1.51142002  0.00019053  CHARGE =  6.0
  C    3    (CENTRE  3)  -2.04252768 -0.78150185  0.00013572  CHARGE =  6.0
  C    4    (CENTRE  4)  -0.67706639 -3.09059789 -0.00000979  CHARGE =  6.0
  C    5    (CENTRE  5)   1.90640466 -3.09744248 -0.00013829  CHARGE =  6.0
  C    6    (CENTRE  6)   3.36680768 -0.77727267 -0.00005892  CHARGE =  6.0
  H    7    (CENTRE  7)  -1.82489356  3.25536511  0.00032659  CHARGE =  1.0
  H    8    (CENTRE  8)  -1.71078437 -4.86340477 -0.00013451  CHARGE =  1.0
  H    9    (CENTRE  9)   2.98522851 -4.83773286 -0.00035749  CHARGE =  1.0
  O   10    (CENTRE 10)   5.71678039 -0.74719012 -0.00011561  CHARGE =  8.0
  O   11    (CENTRE 11)   3.22004213  3.71878075  0.00007147  CHARGE =  8.0
  C   12    (CENTRE 12)  -4.88600803 -0.85843449  0.00040784  CHARGE =  6.0
  H   13    (CENTRE 13)  -5.52038720 -1.92110116 -1.67226812  CHARGE =  1.0
  H   14    (CENTRE 14)  -5.52009051 -1.91950625  1.67421764  CHARGE =  1.0
  O   15    (CENTRE 15)  -5.88223193  1.63031404 -0.00061828  CHARGE =  8.0
  H   16    (CENTRE 16)  -7.69449820  1.51918869 -0.00026679  CHARGE =  1.0
  H   17    (CENTRE 17)   2.07726238  5.13911779  0.00008848  CHARGE =  1.0
CENTRE ASSIGNMENTS    1  1  1  1  1  1  1  1  1  1  1  1  1  1  1  1  1  1  1  1
CENTRE ASSIGNMENTS    1  1  1  1  1  1  1  1  2  2  2  2  2  2  2  2  2  2  2  2
CENTRE ASSIGNMENTS    2  2  2  2  2  2  2  2  2  2  2  2  2  2  2  2  3  3  3  3
CENTRE ASSIGNMENTS    3  3  3  3  3  3  3  3  3  3  3  3  3  3  3  3  3  3  3  3
CENTRE ASSIGNMENTS    3  3  3  3  4  4  4  4  4  4  4  4  4  4  4  4  4  4  4  4
CENTRE ASSIGNMENTS    4  4  4  4  4  4  4  4  4  4  4  4  5  5  5  5  5  5  5  5
CENTRE ASSIGNMENTS    5  5  5  5  5  5  5  5  5  5  5  5  5  5  5  5  5  5  5  5
CENTRE ASSIGNMENTS    6  6  6  6  6  6  6  6  6  6  6  6  6  6  6  6  6  6  6  6
CENTRE ASSIGNMENTS    6  6  6  6  6  6  6  6  7  7  7  7  8  8  8  8  9  9  9  9
CENTRE ASSIGNMENTS   10 10 10 10 10 10 10 10 10 10 10 10 10 10 10 10 10 10 10 10
CENTRE ASSIGNMENTS   10 10 10 10 10 10 10 10 11 11 11 11 11 11 11 11 11 11 11 11
CENTRE ASSIGNMENTS   11 11 11 11 11 11 11 11 11 11 11 11 11 11 11 11 12 12 12 12
CENTRE ASSIGNMENTS   12 12 12 12 12 12 12 12 12 12 12 12 12 12 12 12 12 12 12 12
CENTRE ASSIGNMENTS   12 12 12 12 13 13 13 13 14 14 14 14 15 15 15 15 15 15 15 15
CENTRE ASSIGNMENTS   15 15 15 15 15 15 15 15 15 15 15 15 15 15 15 15 15 15 15 15
CENTRE ASSIGNMENTS   16 16 16 16 17 17 17 17
TYPE ASSIGNMENTS      1  1  1  1  1  1  1  1  1  2  2  2  3  3  3  4  4  4  1  2
TYPE ASSIGNMENTS      3  4  5  6  7  8  9 10  1  1  1  1  1  1  1  1  1  2  2  2
TYPE ASSIGNMENTS      3  3  3  4  4  4  1  2  3  4  5  6  7  8  9 10  1  1  1  1
TYPE ASSIGNMENTS      1  1  1  1  1  2  2  2  3  3  3  4  4  4  1  2  3  4  5  6
TYPE ASSIGNMENTS      7  8  9 10  1  1  1  1  1  1  1  1  1  2  2  2  3  3  3  4
TYPE ASSIGNMENTS      4  4  1  2  3  4  5  6  7  8  9 10  1  1  1  1  1  1  1  1
TYPE ASSIGNMENTS      1  2  2  2  3  3  3  4  4  4  1  2  3  4  5  6  7  8  9 10
TYPE ASSIGNMENTS      1  1  1  1  1  1  1  1  1  2  2  2  3  3  3  4  4  4  1  2
TYPE ASSIGNMENTS      3  4  5  6  7  8  9 10  1  1  1  1  1  1  1  1  1  1  1  1
TYPE ASSIGNMENTS      1  1  1  1  1  1  1  1  1  2  2  2  3  3  3  4  4  4  1  2
TYPE ASSIGNMENTS      3  4  5  6  7  8  9 10  1  1  1  1  1  1  1  1  1  2  2  2
TYPE ASSIGNMENTS      3  3  3  4  4  4  1  2  3  4  5  6  7  8  9 10  1  1  1  1
TYPE ASSIGNMENTS      1  1  1  1  1  2  2  2  3  3  3  4  4  4  1  2  3  4  5  6
TYPE ASSIGNMENTS      7  8  9 10  1  1  1  1  1  1  1  1  1  1  1  1  1  1  1  1
TYPE ASSIGNMENTS      1  2  2  2  3  3  3  4  4  4  1  2  3  4  5  6  7  8  9 10
TYPE ASSIGNMENTS      1  1  1  1  1  1  1  1
EXPONENTS  0.3047525D+04 0.4573695D+03 0.1039487D+03 0.2921016D+02 0.9286663D+01
EXPONENTS  0.3163927D+01 0.7868272D+01 0.1881289D+01 0.5442493D+00 0.7868272D+01
EXPONENTS  0.1881289D+01 0.5442493D+00 0.7868272D+01 0.1881289D+01 0.5442493D+00
EXPONENTS  0.7868272D+01 0.1881289D+01 0.5442493D+00 0.1687145D+00 0.1687145D+00
EXPONENTS  0.1687145D+00 0.1687145D+00 0.8000000D+00 0.8000000D+00 0.8000000D+00
EXPONENTS  0.8000000D+00 0.8000000D+00 0.8000000D+00 0.3047525D+04 0.4573695D+03
EXPONENTS  0.1039487D+03 0.2921016D+02 0.9286663D+01 0.3163927D+01 0.7868272D+01
EXPONENTS  0.1881289D+01 0.5442493D+00 0.7868272D+01 0.1881289D+01 0.5442493D+00
EXPONENTS  0.7868272D+01 0.1881289D+01 0.5442493D+00 0.7868272D+01 0.1881289D+01
EXPONENTS  0.5442493D+00 0.1687145D+00 0.1687145D+00 0.1687145D+00 0.1687145D+00
EXPONENTS  0.8000000D+00 0.8000000D+00 0.8000000D+00 0.8000000D+00 0.8000000D+00
EXPONENTS  0.8000000D+00 0.3047525D+04 0.4573695D+03 0.1039487D+03 0.2921016D+02
EXPONENTS  0.9286663D+01 0.3163927D+01 0.7868272D+01 0.1881289D+01 0.5442493D+00
EXPONENTS  0.7868272D+01 0.1881289D+01 0.5442493D+00 0.7868272D+01 0.1881289D+01
EXPONENTS  0.5442493D+00 0.7868272D+01 0.1881289D+01 0.5442493D+00 0.1687145D+00
EXPONENTS  0.1687145D+00 0.1687145D+00 0.1687145D+00 0.8000000D+00 0.8000000D+00
EXPONENTS  0.8000000D+00 0.8000000D+00 0.8000000D+00 0.8000000D+00 0.3047525D+04
EXPONENTS  0.4573695D+03 0.1039487D+03 0.2921016D+02 0.9286663D+01 0.3163927D+01
EXPONENTS  0.7868272D+01 0.1881289D+01 0.5442493D+00 0.7868272D+01 0.1881289D+01
EXPONENTS  0.5442493D+00 0.7868272D+01 0.1881289D+01 0.5442493D+00 0.7868272D+01
EXPONENTS  0.1881289D+01 0.5442493D+00 0.1687145D+00 0.1687145D+00 0.1687145D+00
EXPONENTS  0.1687145D+00 0.8000000D+00 0.8000000D+00 0.8000000D+00 0.8000000D+00
EXPONENTS  0.8000000D+00 0.8000000D+00 0.3047525D+04 0.4573695D+03 0.1039487D+03
EXPONENTS  0.2921016D+02 0.9286663D+01 0.3163927D+01 0.7868272D+01 0.1881289D+01
EXPONENTS  0.5442493D+00 0.7868272D+01 0.1881289D+01 0.5442493D+00 0.7868272D+01
EXPONENTS  0.1881289D+01 0.5442493D+00 0.7868272D+01 0.1881289D+01 0.5442493D+00
EXPONENTS  0.1687145D+00 0.1687145D+00 0.1687145D+00 0.1687145D+00 0.8000000D+00
EXPONENTS  0.8000000D+00 0.8000000D+00 0.8000000D+00 0.8000000D+00 0.8000000D+00
EXPONENTS  0.3047525D+04 0.4573695D+03 0.1039487D+03 0.2921016D+02 0.9286663D+01
EXPONENTS  0.3163927D+01 0.7868272D+01 0.1881289D+01 0.5442493D+00 0.7868272D+01
EXPONENTS  0.1881289D+01 0.5442493D+00 0.7868272D+01 0.1881289D+01 0.5442493D+00
EXPONENTS  0.7868272D+01 0.1881289D+01 0.5442493D+00 0.1687145D+00 0.1687145D+00
EXPONENTS  0.1687145D+00 0.1687145D+00 0.8000000D+00 0.8000000D+00 0.8000000D+00
EXPONENTS  0.8000000D+00 0.8000000D+00 0.8000000D+00 0.1873114D+02 0.2825394D+01
EXPONENTS  0.6401217D+00 0.1612778D+00 0.1873114D+02 0.2825394D+01 0.6401217D+00
EXPONENTS  0.1612778D+00 0.1873114D+02 0.2825394D+01 0.6401217D+00 0.1612778D+00
EXPONENTS  0.5484672D+04 0.8252349D+03 0.1880470D+03 0.5296450D+02 0.1689757D+02
EXPONENTS  0.5799635D+01 0.1553962D+02 0.3599934D+01 0.1013762D+01 0.1553962D+02
EXPONENTS  0.3599934D+01 0.1013762D+01 0.1553962D+02 0.3599934D+01 0.1013762D+01
EXPONENTS  0.1553962D+02 0.3599934D+01 0.1013762D+01 0.2700058D+00 0.2700058D+00
EXPONENTS  0.2700058D+00 0.2700058D+00 0.8000000D+00 0.8000000D+00 0.8000000D+00
EXPONENTS  0.8000000D+00 0.8000000D+00 0.8000000D+00 0.5484672D+04 0.8252349D+03
EXPONENTS  0.1880470D+03 0.5296450D+02 0.1689757D+02 0.5799635D+01 0.1553962D+02
EXPONENTS  0.3599934D+01 0.1013762D+01 0.1553962D+02 0.3599934D+01 0.1013762D+01
EXPONENTS  0.1553962D+02 0.3599934D+01 0.1013762D+01 0.1553962D+02 0.3599934D+01
EXPONENTS  0.1013762D+01 0.2700058D+00 0.2700058D+00 0.2700058D+00 0.2700058D+00
EXPONENTS  0.8000000D+00 0.8000000D+00 0.8000000D+00 0.8000000D+00 0.8000000D+00
EXPONENTS  0.8000000D+00 0.3047525D+04 0.4573695D+03 0.1039487D+03 0.2921016D+02
EXPONENTS  0.9286663D+01 0.3163927D+01 0.7868272D+01 0.1881289D+01 0.5442493D+00
EXPONENTS  0.7868272D+01 0.1881289D+01 0.5442493D+00 0.7868272D+01 0.1881289D+01
EXPONENTS  0.5442493D+00 0.7868272D+01 0.1881289D+01 0.5442493D+00 0.1687145D+00
EXPONENTS  0.1687145D+00 0.1687145D+00 0.1687145D+00 0.8000000D+00 0.8000000D+00
EXPONENTS  0.8000000D+00 0.8000000D+00 0.8000000D+00 0.8000000D+00 0.1873114D+02
EXPONENTS  0.2825394D+01 0.6401217D+00 0.1612778D+00 0.1873114D+02 0.2825394D+01
EXPONENTS  0.6401217D+00 0.1612778D+00 0.5484672D+04 0.8252349D+03 0.1880470D+03
EXPONENTS  0.5296450D+02 0.1689757D+02 0.5799635D+01 0.1553962D+02 0.3599934D+01
EXPONENTS  0.1013762D+01 0.1553962D+02 0.3599934D+01 0.1013762D+01 0.1553962D+02
EXPONENTS  0.3599934D+01 0.1013762D+01 0.1553962D+02 0.3599934D+01 0.1013762D+01
EXPONENTS  0.2700058D+00 0.2700058D+00 0.2700058D+00 0.2700058D+00 0.8000000D+00
EXPONENTS  0.8000000D+00 0.8000000D+00 0.8000000D+00 0.8000000D+00 0.8000000D+00
EXPONENTS  0.1873114D+02 0.2825394D+01 0.6401217D+00 0.1612778D+00 0.1873114D+02
EXPONENTS  0.2825394D+01 0.6401217D+00 0.1612778D+00
MO    1     MO 0.0        OCC NO =    2.0000000  ORB. ENERGY =  -19.021815
  0.88919734D-05  0.16403955D-04  0.26481069D-04  0.34470484D-04  0.29413726D-04
  0.10155853D-04 -0.41543497D-04 -0.19147360D-04  0.53691196D-04 -0.17911022D-04
 -0.13733036D-04 -0.68537472D-05  0.48190912D-04  0.36949735D-04  0.18440507D-04
  0.41988137D-07  0.32193841D-07  0.16066983D-07 -0.38130460D-03  0.38098386D-03
 -0.16961925D-03 -0.50493853D-07 -0.76890770D-04  0.20065506D-04  0.43488889D-04
 -0.16277049D-04  0.27368892D-07 -0.56308159D-08 -0.77159362D-05 -0.14234396D-04
 -0.22978728D-04 -0.29911476D-04 -0.25523517D-04 -0.88126570D-05  0.33923943D-04
  0.15635514D-04 -0.43843614D-04 -0.13800280D-03 -0.10581179D-03 -0.52807502D-04
 -0.79472834D-04 -0.60934728D-04 -0.30410700D-04 -0.10129400D-06 -0.77665812D-07
 -0.38760683D-07  0.34893656D-03  0.42826899D-03  0.20974121D-03  0.35198281D-07
  0.10927161D-03 -0.98735476D-04 -0.69849326D-05 -0.66488035D-04 -0.40357319D-07
 -0.43704429D-08 -0.17562475D-04 -0.32399337D-04 -0.52302576D-04 -0.68082413D-04
 -0.58094847D-04 -0.20058754D-04  0.41178000D-04  0.18978903D-04 -0.53218824D-04
  0.46869913D-04  0.35936876D-04  0.17935020D-04  0.40728807D-04  0.31228266D-04
  0.15585093D-04 -0.23668914D-07 -0.18147822D-07 -0.90570352D-08  0.54602746D-03
 -0.17693176D-03  0.16532960D-03  0.51882160D-08 -0.34980982D-04 -0.48075070D-04
 -0.66389150D-04  0.11121594D-03 -0.43758429D-07  0.77554015D-07  0.38161894D-05
  0.70401242D-05  0.11364943D-04  0.14793779D-04  0.12623559D-04  0.43586115D-05
 -0.98193855D-05 -0.45257458D-05  0.12690664D-04 -0.21202206D-04 -0.16256507D-04
 -0.81131363D-05  0.35259467D-04  0.27034723D-04  0.13492221D-04  0.46471495D-07
  0.35631395D-07  0.17782563D-07  0.42690409D-04  0.28578781D-04  0.18373479D-04
 -0.11606087D-07  0.57480484D-05  0.30977833D-04  0.16261143D-04  0.18526539D-04
 -0.41845911D-08  0.87387992D-08  0.11206782D-05  0.20674325D-05  0.33374771D-05
  0.43444035D-05  0.37070874D-05  0.12799682D-05 -0.76643358D-05 -0.35324853D-05
  0.99054576D-05  0.11955803D-04  0.91669511D-05  0.45749510D-05 -0.26930144D-04
 -0.20648326D-04 -0.10304962D-04 -0.62877046D-08 -0.48210131D-08 -0.24060234D-08
 -0.13999735D-03 -0.38784390D-04 -0.23210100D-04  0.23986507D-08 -0.73100069D-05
 -0.74679027D-05  0.37258982D-05 -0.15828097D-04 -0.15854305D-07 -0.74388213D-08
  0.34916871D-06  0.64414809D-06  0.10398547D-05  0.13535819D-05  0.11550139D-05
  0.39879854D-06 -0.98697727D-05 -0.45489692D-05  0.12755784D-04  0.29761733D-04
  0.22819409D-04  0.11388484D-04  0.19996304D-04  0.15331898D-04  0.76516915D-05
 -0.62580956D-08 -0.47983108D-08 -0.23946934D-08 -0.17013343D-03 -0.52976676D-04
 -0.17871652D-03  0.35938961D-08 -0.16197187D-04 -0.33392091D-04  0.69629976D-05
  0.11654199D-04 -0.12129547D-08  0.19240625D-07  0.31602661D-04  0.53604094D-04
  0.61026367D-04 -0.13448949D-03  0.71393100D-05  0.12109621D-04  0.13786375D-04
  0.26798555D-05  0.71693805D-05  0.12160626D-04  0.13844443D-04  0.10137997D-04
 -0.49074249D-05 -0.90322816D-05 -0.14615937D-04 -0.19213058D-04 -0.16478928D-04
 -0.56344253D-05  0.21223085D-04  0.94696990D-05 -0.27964148D-04 -0.23071200D-04
 -0.17775116D-04 -0.78042332D-05 -0.38263053D-05 -0.29479620D-05 -0.12943141D-05
  0.83805157D-08  0.64567356D-08  0.28348547D-08  0.10558806D-03 -0.26208779D-04
  0.29223790D-04 -0.30751571D-08 -0.13393186D-04 -0.41121729D-04  0.33389058D-05
 -0.28527830D-04  0.66475413D-08  0.15275974D-08 -0.13271399D-04 -0.24426458D-04
 -0.39526620D-04 -0.51958848D-04 -0.44564802D-04 -0.15237463D-04  0.21367658D-04
  0.95342072D-05 -0.28154642D-04  0.36212886D-04  0.27900076D-04  0.12249636D-04
 -0.34888820D-04 -0.26879955D-04 -0.11801748D-04 -0.30781082D-07 -0.23715165D-07
 -0.10412235D-07  0.58312702D-04 -0.86889287D-04  0.26933166D-04  0.19125455D-07
  0.32896471D-04 -0.46862356D-04 -0.12956133D-04  0.46716128D-04 -0.11562412D-07
 -0.27540811D-07  0.13038369D-04  0.24053244D-04  0.38829394D-04  0.50544333D-04
  0.43129571D-04  0.14891605D-04 -0.14750573D-03 -0.67985256D-04  0.19063776D-03
 -0.16895553D-03 -0.12954438D-03 -0.64651725D-04  0.36913658D-03  0.28303052D-03
  0.14125206D-03 -0.23333870D-06 -0.17890932D-06 -0.89288288D-07 -0.65133949D-03
 -0.95344668D-04 -0.20465665D-03  0.13647756D-06  0.25104798D-04  0.25609136D-03
  0.36695066D-04 -0.27854009D-03  0.12270280D-06 -0.17080315D-06  0.21337828D-04
  0.36192995D-04  0.41204445D-04  0.23677459D-05  0.21332979D-04  0.36184770D-04
  0.41195082D-04  0.23067244D-05  0.82567953D+00  0.15196911D+01  0.24591471D+01
  0.32326177D+01  0.27725974D+01  0.94799814D+00 -0.15971698D-01 -0.71265404D-02
  0.21044769D-01 -0.24444097D-02 -0.18832859D-02 -0.82686393D-03 -0.24271071D-02
 -0.18699552D-02 -0.82101104D-03  0.14448115D-05  0.11131493D-05  0.48873252D-06
  0.32883987D-02  0.22222757D-03 -0.11471367D-03  0.56412244D-07 -0.90866577D-02
 -0.91159910D-02 -0.90533608D-02 -0.18802887D-04  0.11764348D-06  0.99799217D-07
  0.10983132D-03  0.18629471D-03  0.21208994D-03 -0.18955658D-03 -0.11762482D-04
 -0.19951395D-04 -0.22713958D-04  0.21445846D-05
MO    2     MO 0.0        OCC NO =    2.0000000  ORB. ENERGY =  -18.995939
 -0.22053561D-04 -0.40684514D-04 -0.65677420D-04 -0.85492487D-04 -0.72950894D-04
 -0.25188191D-04 -0.85722282D-04 -0.39509321D-04  0.11078826D-03  0.34186107D-03
  0.26211738D-03  0.13081494D-03  0.43799894D-03  0.33582981D-03  0.16760261D-03
 -0.27329490D-08 -0.20954519D-08 -0.10457774D-08 -0.15187404D-03 -0.47570215D-03
 -0.51547761D-03  0.56421399D-08 -0.80082810D-05 -0.16083199D-03 -0.94582923D-04
 -0.25054752D-04 -0.27663347D-08  0.23075422D-08  0.14715884D-04  0.27147933D-04
  0.43825182D-04  0.57047365D-04  0.48678620D-04  0.16807558D-04 -0.94637928D-04
 -0.43618534D-04  0.12231092D-03 -0.74409834D-04 -0.57052741D-04 -0.28473316D-04
 -0.54776915D-04 -0.41999464D-04 -0.20960676D-04  0.38382891D-08  0.29429566D-08
  0.14687416D-08 -0.60387663D-03 -0.79618191D-04  0.29205950D-03  0.12702275D-07
 -0.92714578D-04 -0.70518544D-04  0.63115032D-04 -0.74701641D-04  0.61409730D-08
 -0.39003424D-08 -0.26817349D-05 -0.49472773D-05 -0.79864395D-05 -0.10395971D-04
 -0.88709011D-05 -0.30629090D-05  0.18997671D-04  0.87560090D-05 -0.24552763D-04
  0.75805023D-04  0.58122483D-04  0.29007193D-04  0.52290661D-04  0.40093162D-04
  0.20009298D-04  0.16933332D-08  0.12983405D-08  0.64796289D-09  0.30410788D-03
  0.51946325D-04  0.14676599D-03  0.81785611D-08  0.62704108D-05  0.47931364D-04
  0.11379697D-05  0.78581453D-04 -0.28379708D-08  0.52760775D-08  0.31362718D-05
  0.57858091D-05  0.93400899D-05  0.12158022D-04  0.10374462D-04  0.35820524D-05
 -0.98783380D-05 -0.45529170D-05  0.12766854D-04  0.29228816D-04  0.22410802D-04
  0.11184561D-04  0.24414263D-04  0.18719308D-04  0.93422467D-05  0.32747183D-08
  0.25108463D-08  0.12530883D-08 -0.27981467D-04 -0.69032471D-04 -0.46829142D-05
  0.80214461D-09 -0.97848738D-05  0.12250234D-04  0.20910882D-04  0.22365152D-04
  0.69204802D-08 -0.20598755D-08  0.94744228D-05  0.17478460D-04  0.28215654D-04
  0.36728398D-04  0.31340408D-04  0.10821090D-04 -0.29957353D-04 -0.13807317D-04
  0.38717157D-04  0.14586215D-05  0.11183785D-05  0.55814924D-06  0.83127907D-04
  0.63737206D-04  0.31809333D-04  0.70849660D-08  0.54323025D-08  0.27110997D-08
  0.10629499D-03 -0.35519620D-04 -0.19076110D-04  0.10331684D-08  0.33702229D-04
 -0.34963236D-05  0.57715140D-04 -0.22431302D-05  0.51055535D-09 -0.36429450D-08
  0.11114337D-04  0.20503782D-04  0.33099461D-04  0.43085664D-04  0.36765075D-04
  0.12694097D-04 -0.58145396D-04 -0.26799160D-04  0.75147641D-04  0.69002586D-04
  0.52906806D-04  0.26404204D-04  0.22235040D-04  0.17048418D-04  0.85083554D-05
 -0.31051024D-08 -0.23807956D-08 -0.11881839D-08  0.65033934D-05  0.23255787D-03
  0.27903826D-04 -0.76995999D-08 -0.37049177D-05 -0.63314182D-05  0.36066562D-04
  0.58023495D-04  0.79105829D-08 -0.28651663D-08 -0.19828083D-04 -0.33632182D-04
 -0.38289051D-04 -0.60088999D-04 -0.34609841D-05 -0.58704841D-05 -0.66833386D-05
 -0.17290531D-04 -0.10658051D-05 -0.18078071D-05 -0.20581245D-05 -0.19791152D-04
  0.38138191D-04  0.70194631D-04  0.11358816D-03  0.14931482D-03  0.12806645D-03
  0.43788095D-04 -0.15592994D-03 -0.69575636D-04  0.20545779D-03 -0.75612692D-04
 -0.58255503D-04 -0.25577304D-04  0.15668404D-03  0.12071661D-03  0.53001093D-04
 -0.60092246D-09 -0.46297836D-09 -0.20327244D-09 -0.43127674D-03  0.10462738D-03
 -0.15856127D-04 -0.37591967D-09  0.18307914D-03  0.23232064D-03  0.23881453D-03
  0.69874378D-05  0.63028109D-10  0.24850868D-08  0.82562334D+00  0.15195877D+01
  0.24589797D+01  0.32323977D+01  0.27724087D+01  0.94793362D+00 -0.15811495D-01
 -0.70550580D-02  0.20833681D-01 -0.32937247D-02 -0.25376373D-02 -0.11141595D-02
  0.32354652D-03  0.24927515D-03  0.10944522D-03  0.65551130D-07  0.50503611D-07
  0.22173806D-07  0.38775721D-02 -0.12334743D-03 -0.37421728D-03  0.14010831D-08
 -0.92881434D-02 -0.91459261D-02 -0.92143707D-02  0.15051655D-03  0.52647675D-08
 -0.42729170D-08  0.57645672D-05  0.10634501D-04  0.17167382D-04  0.22346830D-04
  0.19068591D-04  0.65839262D-05 -0.20895348D-04 -0.96306469D-05  0.27005339D-04
 -0.11255626D-04 -0.86301001D-05 -0.43070248D-05 -0.29206280D-05 -0.22393523D-05
 -0.11175938D-05  0.44731096D-08  0.34296967D-08  0.17116590D-08 -0.50779664D-04
 -0.12910504D-04 -0.26085390D-04 -0.71526630D-08 -0.72037624D-05  0.17571652D-04
  0.24200129D-04 -0.37622716D-04 -0.21819514D-08  0.17858184D-07  0.24457725D-05
  0.41484930D-05  0.47229127D-05  0.15426515D-06  0.24494616D-05  0.41547504D-05
  0.47300365D-05  0.16827003D-06  0.88936166D-05  0.16369002D-04  0.26488135D-04
  0.34819395D-04  0.29864393D-04  0.10211143D-04  0.20182687D-05  0.90054756D-06
 -0.26593290D-05  0.56331575D-04  0.43400442D-04  0.19055132D-04  0.65177186D-05
  0.50215508D-05  0.22047313D-05 -0.15633275D-07 -0.12044595D-07 -0.52882261D-08
  0.24074973D-04 -0.19695936D-04 -0.96162864D-05  0.12033642D-07 -0.36621523D-05
  0.12079835D-05  0.11178372D-04  0.10060765D-04 -0.98371713D-08 -0.17049891D-08
 -0.60557653D-05 -0.10271724D-04 -0.11693995D-04 -0.37731192D-05  0.88905151D-04
  0.15079996D-03  0.17168043D-03 -0.18319195D-03
MO    3     MO 0.0        OCC NO =    2.0000000  ORB. ENERGY =  -18.861416
  0.27088869D-04  0.49973674D-04  0.80673005D-04  0.10501228D-03  0.89607171D-04
  0.30939203D-04 -0.11059566D-03 -0.50973441D-04  0.14293485D-03 -0.27452940D-04
 -0.21049173D-04 -0.10505013D-04  0.57579125D-04  0.44148021D-04  0.22032957D-04
  0.62853317D-08  0.48191937D-08  0.24051154D-08 -0.63122642D-03  0.37083672D-03
  0.49801909D-03  0.22215107D-08 -0.97468752D-05  0.75397793D-04  0.77206881D-04
  0.10794235D-03  0.88701579D-08 -0.90667406D-08 -0.42755565D-05 -0.78875668D-05
 -0.12732978D-04 -0.16574555D-04 -0.14143098D-04 -0.48832717D-05  0.29105459D-04
  0.13414680D-04 -0.37616162D-04  0.11626072D-03  0.89141348D-04  0.44487780D-04
 -0.17437031D-04 -0.13369609D-04 -0.66723720D-05 -0.66130588D-08 -0.50704740D-08
 -0.25305219D-08  0.62056036D-03  0.16065726D-03 -0.24085096D-03 -0.15740611D-07
  0.43883583D-04  0.22451789D-04  0.63587112D-05  0.10324844D-04 -0.27100077D-08
  0.44693503D-10  0.10986421D-04  0.20267801D-04  0.32718515D-04  0.42589785D-04
  0.36341941D-04  0.12547999D-04 -0.44898314D-04 -0.20693592D-04  0.58026992D-04
  0.56859204D-04  0.43596032D-04  0.21757475D-04 -0.12004052D-04 -0.92039458D-05
 -0.45934140D-05 -0.16187530D-08 -0.12411571D-08 -0.61942438D-09 -0.37650998D-03
 -0.25672012D-03 -0.26712180D-04  0.66560987D-08  0.29463832D-04 -0.50481495D-04
  0.48267338D-04 -0.10438762D-04 -0.43048113D-08 -0.64615887D-08 -0.33341812D-05
 -0.61509132D-05 -0.99294811D-05 -0.12925234D-04 -0.11029126D-04 -0.38080921D-05
  0.24485580D-04  0.11285382D-04 -0.31645388D-04  0.12110258D-03  0.92853774D-04
  0.46340541D-04  0.20897919D-04  0.16023198D-04  0.79966990D-05 -0.85432220D-08
 -0.65504007D-08 -0.32691090D-08  0.54696475D-03  0.15864967D-03  0.16405813D-03
  0.22269120D-08  0.60703324D-04  0.92794987D-05  0.10016594D-04 -0.49719211D-04
 -0.10907715D-07 -0.49787403D-08  0.14155929D-04  0.26114924D-04  0.42157585D-04
  0.54876649D-04  0.46826344D-04  0.16168011D-04 -0.88215318D-04 -0.40658359D-04
  0.11401028D-03 -0.74245679D-04 -0.56926878D-04 -0.28410502D-04 -0.23147273D-04
 -0.17747860D-04 -0.88574262D-05  0.94309786D-08  0.72310762D-08  0.36088138D-08
 -0.71288209D-03  0.29400242D-03 -0.36271026D-03 -0.39257587D-07 -0.93197977D-04
 -0.34866083D-04  0.51588479D-04 -0.24428240D-04  0.10938327D-07 -0.46520981D-08
 -0.44943308D-04 -0.82911627D-04 -0.13384507D-03 -0.17422652D-03 -0.14866780D-03
 -0.51331419D-04 -0.66411578D-04 -0.30609035D-04  0.85830930D-04  0.16907194D-03
  0.12963364D-03  0.64696273D-04  0.13997530D-04  0.10732418D-04  0.53562288D-05
 -0.61065872D-08 -0.46821437D-08 -0.23367179D-08 -0.10283420D-03 -0.11747092D-02
 -0.35087390D-04  0.34214497D-07 -0.98740888D-03 -0.12417669D-03 -0.19825626D-03
 -0.17006311D-04  0.37014097D-07  0.65240697D-08  0.11995675D-04  0.20346935D-04
  0.23164266D-04  0.75309823D-04  0.67889669D-05  0.11515373D-04  0.13109845D-04
  0.46516629D-04 -0.21955350D-04 -0.37240429D-04 -0.42396912D-04 -0.16380456D-03
  0.82560497D+00  0.15195539D+01  0.24589250D+01  0.32323258D+01  0.27723470D+01
  0.94791253D+00 -0.15570983D-01 -0.69477423D-02  0.20516776D-01 -0.31773648D-02
 -0.24479882D-02 -0.10747987D-02 -0.58036182D-04 -0.44713749D-04 -0.19631744D-04
  0.66474381D-07  0.51214927D-07  0.22486111D-07  0.45641299D-02 -0.65839165D-03
 -0.12040453D-04  0.12790605D-07 -0.87876969D-02 -0.94076067D-02 -0.93579417D-02
  0.20426877D-04 -0.23096989D-07 -0.56040897D-08  0.81555518D-04  0.15010569D-03
  0.24289934D-03  0.31929798D-03  0.27386002D-03  0.93637393D-04 -0.21101769D-03
 -0.94155683D-04  0.27804299D-03  0.46913823D-04  0.36144571D-04  0.15869414D-04
 -0.16128400D-03 -0.12426063D-03 -0.54557108D-04  0.73879088D-08  0.56919855D-08
  0.24990882D-08 -0.62676706D-03  0.87269496D-04  0.16798365D-03 -0.61533144D-08
  0.24420049D-03  0.22198123D-03  0.25939388D-03 -0.10667440D-03  0.19751884D-08
  0.92346433D-08  0.19955267D-05  0.36813571D-05  0.59428519D-05  0.77358273D-05
  0.66009955D-05  0.22791651D-05 -0.11805777D-04 -0.54412717D-05  0.15257894D-04
 -0.29230019D-04 -0.22411725D-04 -0.11185021D-04 -0.54429170D-05 -0.41732835D-05
 -0.20827610D-05 -0.57825331D-09 -0.44336796D-09 -0.22127169D-09 -0.13249714D-03
 -0.38022923D-04 -0.82689111D-05  0.16592116D-07 -0.12630321D-04 -0.71413593D-05
  0.59862714D-05  0.73123922D-05  0.74679779D-08  0.97480549D-08  0.18960344D-05
  0.32160332D-05  0.36613401D-05  0.24775787D-05  0.18945321D-05  0.32134850D-05
  0.36584391D-05  0.24672292D-05 -0.59706779D-05 -0.10989235D-04 -0.17782656D-04
 -0.23375799D-04 -0.20049287D-04 -0.68551918D-05  0.16434028D-04  0.73328314D-05
 -0.21653949D-04 -0.13221136D-04 -0.10186172D-04 -0.44722783D-05  0.41377903D-05
  0.31879443D-05  0.13996793D-05 -0.14683955D-08 -0.11313196D-08 -0.49671023D-09
  0.39863700D-04  0.10207793D-04 -0.11739954D-04  0.32498384D-08 -0.19860060D-04
 -0.14230263D-04 -0.20936345D-04 -0.95592869D-05  0.11238783D-07 -0.18107471D-08
  0.20711296D-06  0.35130278D-06  0.39994580D-06 -0.21637042D-05  0.40380687D-05
  0.68493289D-05  0.77977188D-05 -0.31195922D-04
MO    4     MO 0.0        OCC NO =    2.0000000  ORB. ENERGY =  -10.093903
 -0.31921054D-04 -0.58888112D-04 -0.95063672D-04 -0.12374465D-03 -0.10559154D-03
 -0.36458221D-04  0.79170998D-04  0.36489841D-04 -0.10232132D-03  0.28508735D-04
  0.21858690D-04  0.10909018D-04 -0.63992575D-05 -0.49065447D-05 -0.24487097D-05
  0.28983773D-07  0.22222918D-07  0.11090794D-07  0.29130386D-03 -0.19825285D-03
 -0.14895896D-03 -0.19820001D-07  0.61921264D-05 -0.56584517D-04 -0.86828758D-04
 -0.28616153D-04  0.51720451D-09  0.61354285D-08 -0.15548093D-04 -0.28683196D-04
 -0.46303572D-04 -0.60273493D-04 -0.51431481D-04 -0.17758054D-04  0.33919896D-04
  0.15633649D-04 -0.43838384D-04  0.12546833D-03  0.96201160D-04  0.48011121D-04
 -0.25694675D-05 -0.19701047D-05 -0.98322031D-06 -0.55143757D-07 -0.42280736D-07
 -0.21101050D-07 -0.17624289D-03 -0.11898366D-03 -0.12161892D-04  0.31192564D-07
 -0.72841724D-04  0.10129997D-03 -0.79683640D-04 -0.13344502D-04 -0.26593885D-07
  0.26085072D-08  0.60205298D-03  0.11106702D-02  0.17929661D-02  0.23339091D-02
  0.19915289D-02  0.68762705D-03  0.11057732D-03  0.50964986D-04 -0.14291114D-03
  0.33085201D-03  0.25367634D-03  0.12660227D-03 -0.26790599D-04 -0.20541332D-04
 -0.10251564D-04  0.32431460D-07  0.24866386D-07  0.12410070D-07  0.10006411D-02
 -0.62103403D-03  0.16639791D-04  0.22532544D-07 -0.28753909D-03 -0.20773452D-03
 -0.18883197D-03  0.43707942D-04 -0.29870290D-07 -0.53353732D-08  0.45055180D-07
  0.83118010D-07  0.13417824D-06  0.17466020D-06  0.14903786D-06  0.51459193D-07
  0.14582516D-04  0.67210682D-05 -0.18846577D-04  0.10339271D-03  0.79274972D-04
  0.39563767D-04  0.23417333D-04  0.17954925D-04  0.89607662D-05 -0.50351830D-07
 -0.38606590D-07 -0.19267394D-07 -0.18673405D-03 -0.13282675D-03  0.37213554D-04
  0.37211419D-07 -0.38602500D-04  0.14894415D-03 -0.33569935D-04 -0.69387213D-06
 -0.42121446D-07  0.30054216D-07 -0.23483232D-04 -0.43321977D-04 -0.69935103D-04
 -0.91034725D-04 -0.77680096D-04 -0.26821070D-04  0.80521617D-04  0.37112340D-04
 -0.10406687D-03  0.38495660D-04  0.29516031D-04  0.14730568D-04 -0.20358252D-04
 -0.15609416D-04 -0.77901927D-05  0.21258413D-07  0.16299603D-07  0.81346443D-08
  0.37506104D-03 -0.15710577D-03  0.11102679D-03 -0.41174923D-08  0.37750433D-04
 -0.20216760D-04 -0.95463232D-04 -0.15529063D-04  0.34580560D-08 -0.71479532D-08
  0.33874421D-05  0.62491693D-05  0.10088097D-04  0.13131705D-04  0.11205307D-04
  0.38689234D-05 -0.13696985D-04 -0.63129280D-05  0.17702109D-04  0.59589628D-08
  0.45689547D-08  0.22802286D-08  0.59091863D-05  0.45307892D-05  0.22611814D-05
 -0.90173339D-08 -0.69139197D-08 -0.34505305D-08 -0.16713899D-03  0.14302129D-03
  0.21374945D-04  0.10514537D-07 -0.46362363D-04  0.20814762D-04 -0.47703374D-05
 -0.20689680D-05 -0.18510599D-08  0.49390653D-08 -0.11476514D-04 -0.19466340D-04
 -0.22161740D-04 -0.57424449D-05 -0.10589250D-04 -0.17961372D-04 -0.20448387D-04
  0.19662829D-04  0.28355126D-05  0.48095661D-05  0.54755210D-05  0.62148376D-04
 -0.90680904D-06 -0.16690127D-05 -0.27007776D-05 -0.35502478D-05 -0.30450269D-05
 -0.10411464D-05  0.75016648D-06  0.33472282D-06 -0.98844097D-06  0.21187837D-04
  0.16324086D-04  0.71671529D-05  0.31892807D-05  0.24571689D-05  0.10788295D-05
  0.68553458D-08  0.52816743D-08  0.23189395D-08 -0.59688352D-04 -0.93166091D-05
 -0.22598162D-05 -0.55806866D-08  0.27767926D-04 -0.37587811D-05 -0.33488338D-04
  0.31166680D-05  0.52200205D-08  0.32830723D-08 -0.22885134D-04 -0.42120863D-04
 -0.68159507D-04 -0.89597580D-04 -0.76847324D-04 -0.26275405D-04  0.79705132D-04
  0.35564275D-04 -0.10502178D-03  0.34380485D-05  0.26488311D-05  0.11629795D-05
  0.74846398D-04  0.57665115D-04  0.25318091D-04 -0.24458888D-07 -0.18844255D-07
 -0.82736429D-08  0.22106222D-03 -0.15126973D-04 -0.84657744D-04  0.12322044D-07
 -0.90206246D-04 -0.53303089D-04 -0.89689584D-04  0.28027606D-04 -0.83386759D-08
 -0.16157688D-07  0.53262763D+00  0.98259398D+00  0.15862113D+01  0.20647759D+01
  0.17618770D+01  0.60833378D+00 -0.19759222D-01 -0.91070072D-02  0.25536999D-01
 -0.59052927D-03 -0.45278039D-03 -0.22596915D-03  0.73036042D-03  0.55999405D-03
  0.27947628D-03 -0.23317289D-06 -0.17878218D-06 -0.89224839D-07 -0.34677751D-02
 -0.33991563D-03  0.40019928D-04 -0.76903407D-08 -0.10050728D-01 -0.96135617D-02
 -0.98164695D-02 -0.25649187D-03  0.18195798D-06 -0.14308412D-06  0.10383889D-04
  0.17613041D-04  0.20051825D-04  0.51505648D-03  0.10384820D-04  0.17614621D-04
  0.20053623D-04  0.51509051D-03 -0.10160981D-03 -0.18701630D-03 -0.30262768D-03
 -0.39781255D-03 -0.34120151D-03 -0.11666259D-03  0.14202524D-03  0.63371384D-04
 -0.18713655D-03 -0.11644981D-03 -0.89718299D-04 -0.39391166D-04  0.36924092D-03
  0.28448022D-03  0.12490214D-03 -0.11400243D-06 -0.87832723D-07 -0.38563296D-07
  0.67806167D-03  0.43719977D-04 -0.44400372D-04  0.62152423D-08 -0.24995730D-03
 -0.89177348D-03 -0.10159646D-04  0.55560805D-03 -0.22239511D-06  0.74247300D-06
 -0.10140208D-04 -0.17199712D-04 -0.19581264D-04  0.20966333D-04 -0.12697402D-05
 -0.21537197D-05 -0.24519338D-05  0.23291506D-04
MO    5     MO 0.0        OCC NO =    2.0000000  ORB. ENERGY =  -10.034495
  0.53246962D+00  0.98230248D+00  0.15857408D+01  0.20641633D+01  0.17613543D+01
  0.60815331D+00 -0.19789196D-01 -0.91208223D-02  0.25575738D-01  0.56423451D-03
  0.43261924D-03  0.21590732D-03  0.14374261D-02  0.11021271D-02  0.55003868D-03
 -0.23736458D-07 -0.18199610D-07 -0.90828812D-08 -0.35207120D-02  0.92420465D-03
  0.14056721D-02  0.11448561D-07 -0.98302145D-02 -0.95358744D-02 -0.10459233D-01
  0.96942905D-03 -0.39468601D-07 -0.14574413D-07  0.38858136D-02  0.71685673D-02
  0.11572290D-01  0.15063684D-01  0.12853869D-01  0.44381319D-02  0.21399054D-03
  0.98628042D-04 -0.27656333D-03 -0.45270711D-03 -0.34710709D-03 -0.17323077D-03
  0.12185557D-03  0.93431122D-04  0.46628678D-04  0.23909206D-07  0.18332062D-07