 Entering Link 1 = D:\Gaussian\G16W\l1.exe PID=     45880.
  
 Copyright (c) 1988,1990,1992,1993,1995,1998,2003,2009,2016,
            Gaussian, Inc.  All Rights Reserved.
  
 This is part of the Gaussian(R) 16 program.  It is based on
 the Gaussian(R) 09 system (copyright 2009, Gaussian, Inc.),
 the Gaussian(R) 03 system (copyright 2003, Gaussian, Inc.),
 the Gaussian(R) 98 system (copyright 1998, Gaussian, Inc.),
 the Gaussian(R) 94 system (copyright 1995, Gaussian, Inc.),
 the Gaussian 92(TM) system (copyright 1992, Gaussian, Inc.),
 the Gaussian 90(TM) system (copyright 1990, Gaussian, Inc.),
 the Gaussian 88(TM) system (copyright 1988, Gaussian, Inc.),
 the Gaussian 86(TM) system (copyright 1986, Carnegie Mellon
 University), and the Gaussian 82(TM) system (copyright 1983,
 Carnegie Mellon University). Gaussian is a federally registered
 trademark of Gaussian, Inc.
  
 This software contains proprietary and confidential information,
 including trade secrets, belonging to Gaussian, Inc.
  
 This software is provided under written license and may be
 used, copied, transmitted, or stored only in accord with that
 written license.
  
 The following legend is applicable only to US Government
 contracts under FAR:
  
                    RESTRICTED RIGHTS LEGEND
  
 Use, reproduction and disclosure by the US Government is
 subject to restrictions as set forth in subparagraphs (a)
 and (c) of the Commercial Computer Software - Restricted
 Rights clause in FAR 52.227-19.
  
 Gaussian, Inc.
 340 Quinnipiac St., Bldg. 40, Wallingford CT 06492
  
  
 ---------------------------------------------------------------
 Warning -- This program may not be used in any manner that
 competes with the business of Gaussian, Inc. or will provide
 assistance to any competitor of Gaussian, Inc.  The licensee
 of this program is prohibited from giving any competitor of
 Gaussian, Inc. access to this program.  By using this program,
 the user acknowledges that Gaussian, Inc. is engaged in the
 business of creating and licensing software in the field of
 computational chemistry and represents and warrants to the
 licensee that it is not a competitor of Gaussian, Inc. and that
 it will not use this program in any manner prohibited above.
 ---------------------------------------------------------------
  

 Cite this work as:
 Gaussian 16, Revision A.03,
 M. J. Frisch, G. W. Trucks, H. B. Schlegel, G. E. Scuseria, 
 M. A. Robb, J. R. Cheeseman, G. Scalmani, V. Barone, 
 G. A. Petersson, H. Nakatsuji, X. Li, M. Caricato, A. V. Marenich, 
 J. Bloino, B. G. Janesko, R. Gomperts, B. Mennucci, H. P. Hratchian, 
 J. V. Ortiz, A. F. Izmaylov, J. L. Sonnenberg, D. Williams-Young, 
 F. Ding, F. Lipparini, F. Egidi, J. Goings, B. Peng, A. Petrone, 
 T. Henderson, D. Ranasinghe, V. G. Zakrzewski, J. Gao, N. Rega, 
 G. Zheng, W. Liang, M. Hada, M. Ehara, K. Toyota, R. Fukuda, 
 J. Hasegawa, M. Ishida, T. Nakajima, Y. Honda, O. Kitao, H. Nakai, 
 T. Vreven, K. Throssell, J. A. Montgomery, Jr., J. E. Peralta, 
 F. Ogliaro, M. J. Bearpark, J. J. Heyd, E. N. Brothers, K. N. Kudin, 
 V. N. Staroverov, T. A. Keith, R. Kobayashi, J. Normand, 
 K. Raghavachari, A. P. Rendell, J. C. Burant, S. S. Iyengar, 
 J. Tomasi, M. Cossi, J. M. Millam, M. Klene, C. Adamo, R. Cammi, 
 J. W. Ochterski, R. L. Martin, K. Morokuma, O. Farkas, 
 J. B. Foresman, and D. J. Fox, Gaussian, Inc., Wallingford CT, 2016.
 
 ******************************************
 Gaussian 16:  EM64W-G16RevA.03 17-Dec-2016
                08-Dec-2025 
 ******************************************
 %nprocs=   4
 Will use up to    4 processors via shared memory.
 ------------------------------------
 #P B3LYP/6-31G* SCF=conver=7 out=wfn
 ------------------------------------
 1/38=1,172=1/1;
 2/12=2,17=6,18=5,40=1/2;
 3/5=1,6=6,7=1,11=2,25=1,30=1,74=-5/1,2,3;
 4//1;
 5/5=2,6=7,38=5/2;
 6/7=2,8=2,9=2,10=2,28=1/1;
 99/5=1,6=100,9=1/99;
 Leave Link    1 at Mon Dec 08 16:30:28 2025, MaxMem=           0 cpu:               0.0 elap:               0.1
 (Enter D:\Gaussian\G16W\l101.exe)
 ----------------------------------------------------
 Generated by Multiwfn (http://sobereva.com/multiwfn)
 ----------------------------------------------------
 Symbolic Z-matrix:
 Charge =  1 Multiplicity = 1
 C                     0.99253   0.82691   0.00005 
 C                    -0.39582   0.79981   0.0001 
 C                    -1.08086  -0.41355   0.00007 
 C                    -0.35829  -1.63547  -0.00001 
 C                     1.00883  -1.6391   -0.00007 
 C                     1.78164  -0.41131  -0.00003 
 H                    -0.96569   1.72267   0.00017 
 H                    -0.90531  -2.5736   -0.00007 
 H                     1.57971  -2.56002  -0.00019 
 O                     3.02519  -0.3954   -0.00006 
 O                     1.70397   1.96789   0.00004 
 C                    -2.58556  -0.45426   0.00022 
 H                    -2.92126  -1.0166   -0.88493 
 H                    -2.92111  -1.01576   0.88596 
 O                    -3.11274   0.86273  -0.00033 
 H                    -4.07175   0.80392  -0.00014 
 H                     1.09924   2.7195    0.00005 
 
 ITRead=  0  0  0  0  0  0  0  0  0  0  0  0  0  0  0  0  0
 MicOpt= -1 -1 -1 -1 -1 -1 -1 -1 -1 -1 -1 -1 -1 -1 -1 -1 -1
 NAtoms=     17 NQM=       17 NQMF=       0 NMMI=      0 NMMIF=      0
                NMic=       0 NMicF=      0.
                    Isotopes and Nuclear Properties:
 (Nuclear quadrupole moments (NQMom) in fm**2, nuclear magnetic moments (NMagM)
  in nuclear magnetons)

  Atom         1           2           3           4           5           6           7           8           9          10
 IAtWgt=          12          12          12          12          12          12           1           1           1          16
 AtmWgt=  12.0000000  12.0000000  12.0000000  12.0000000  12.0000000  12.0000000   1.0078250   1.0078250   1.0078250  15.9949146
 NucSpn=           0           0           0           0           0           0           1           1           1           0
 AtZEff=   0.0000000   0.0000000   0.0000000   0.0000000   0.0000000   0.0000000   0.0000000   0.0000000   0.0000000   0.0000000
 NQMom=    0.0000000   0.0000000   0.0000000   0.0000000   0.0000000   0.0000000   0.0000000   0.0000000   0.0000000   0.0000000
 NMagM=    0.0000000   0.0000000   0.0000000   0.0000000   0.0000000   0.0000000   2.7928460   2.7928460   2.7928460   0.0000000
 AtZNuc=   6.0000000   6.0000000   6.0000000   6.0000000   6.0000000   6.0000000   1.0000000   1.0000000   1.0000000   8.0000000

  Atom        11          12          13          14          15          16          17
 IAtWgt=          16          12           1           1          16           1           1
 AtmWgt=  15.9949146  12.0000000   1.0078250   1.0078250  15.9949146   1.0078250   1.0078250
 NucSpn=           0           0           1           1           0           1           1
 AtZEff=   0.0000000   0.0000000   0.0000000   0.0000000   0.0000000   0.0000000   0.0000000
 NQMom=    0.0000000   0.0000000   0.0000000   0.0000000   0.0000000   0.0000000   0.0000000
 NMagM=    0.0000000   0.0000000   2.7928460   2.7928460   0.0000000   2.7928460   2.7928460
 AtZNuc=   8.0000000   6.0000000   1.0000000   1.0000000   8.0000000   1.0000000   1.0000000
 Leave Link  101 at Mon Dec 08 16:30:28 2025, MaxMem=   104857600 cpu:               0.0 elap:               0.1
 (Enter D:\Gaussian\G16W\l202.exe)
                          Input orientation:                          
 ---------------------------------------------------------------------
 Center     Atomic      Atomic             Coordinates (Angstroms)
 Number     Number       Type             X           Y           Z
 ---------------------------------------------------------------------
      1          6           0        0.992533    0.826911    0.000047
      2          6           0       -0.395817    0.799809    0.000101
      3          6           0       -1.080859   -0.413553    0.000072
      4          6           0       -0.358288   -1.635474   -0.000005
      5          6           0        1.008826   -1.639096   -0.000073
      6          6           0        1.781638   -0.411315   -0.000031
      7          1           0       -0.965692    1.722665    0.000173
      8          1           0       -0.905308   -2.573603   -0.000071
      9          1           0        1.579715   -2.560018   -0.000189
     10          8           0        3.025190   -0.395396   -0.000061
     11          8           0        1.703973    1.967894    0.000038
     12          6           0       -2.585564   -0.454264    0.000216
     13          1           0       -2.921263   -1.016603   -0.884926
     14          1           0       -2.921106   -1.015759    0.885958
     15          8           0       -3.112743    0.862725   -0.000327
     16          1           0       -4.071753    0.803920   -0.000141
     17          1           0        1.099240    2.719504    0.000047
 ---------------------------------------------------------------------
                    Distance matrix (angstroms):
                    1          2          3          4          5
     1  C    0.000000
     2  C    1.388614   0.000000
     3  C    2.416134   1.393388   0.000000
     4  C    2.808569   2.435572   1.419577   0.000000
     5  C    2.466061   2.814477   2.422548   1.367119   0.000000
     6  C    1.468295   2.491612   2.862498   2.465329   1.450753
     7  H    2.153374   1.084629   2.139320   3.412629   3.898738
     8  H    3.894264   3.411670   2.167172   1.085964   2.130073
     9  H    3.437451   3.897584   3.418474   2.147239   1.083518
    10  O    2.371862   3.623783   4.106089   3.603570   2.369074
    11  O    1.344615   2.402819   3.664230   4.151768   3.673364
    12  C    3.800551   2.523428   1.505256   2.521114   3.784636
    13  H    4.415826   3.234270   2.129314   2.781174   4.076280
    14  H    4.415523   3.233901   2.129309   2.781549   4.076514
    15  O    4.105432   2.717654   2.399466   3.718605   4.821456
    16  H    5.064338   3.675938   3.229193   4.443024   5.637429
    17  H    1.895599   2.433192   3.816920   4.592409   4.359538
                    6          7          8          9         10
     6  C    0.000000
     7  H    3.478749   0.000000
     8  H    3.448937   4.296692   0.000000
     9  H    2.158170   4.982015   2.485060   0.000000
    10  O    1.243654   4.518110   4.493707   2.602880   0.000000
    11  O    2.380476   2.680904   5.237704   4.529617   2.707537
    12  C    4.367413   2.713486   2.704599   4.667306   5.611063
    13  H    4.823556   3.480122   2.696533   4.839803   6.043938
    14  H    4.823498   3.479544   2.697289   4.840184   6.043866
    15  O    5.057484   2.312861   4.084253   5.808126   6.265548
    16  H    5.978209   3.239091   4.629691   6.576866   7.197566
    17  H    3.204324   2.292953   5.659964   5.301340   3.662224
                   11         12         13         14         15
    11  O    0.000000
    12  C    4.926152   0.000000
    13  H    5.575230   1.101088   0.000000
    14  H    5.574800   1.101092   1.770884   0.000000
    15  O    4.941877   1.418583   2.085918   2.085888   0.000000
    16  H    5.891846   1.947251   2.328256   2.328173   0.960811
    17  H    0.964686   4.863187   5.559327   5.558796   4.603089
                   16         17
    16  H    0.000000
    17  H    5.514402   0.000000
 Stoichiometry    C7H7O3(1+)
 Framework group  C1[X(C7H7O3)]
 Deg. of freedom    45
 Full point group                 C1      NOp   1
 Largest Abelian subgroup         C1      NOp   1
 Largest concise Abelian subgroup C1      NOp   1
                         Standard orientation:                         
 ---------------------------------------------------------------------
 Center     Atomic      Atomic             Coordinates (Angstroms)
 Number     Number       Type             X           Y           Z
 ---------------------------------------------------------------------
      1          6           0        0.992533    0.826911    0.000047
      2          6           0       -0.395817    0.799809    0.000101
      3          6           0       -1.080859   -0.413553    0.000072
      4          6           0       -0.358288   -1.635474   -0.000005
      5          6           0        1.008826   -1.639096   -0.000073
      6          6           0        1.781638   -0.411315   -0.000031
      7          1           0       -0.965692    1.722665    0.000173
      8          1           0       -0.905308   -2.573603   -0.000071
      9          1           0        1.579715   -2.560018   -0.000189
     10          8           0        3.025190   -0.395396   -0.000061
     11          8           0        1.703973    1.967894    0.000038
     12          6           0       -2.585564   -0.454264    0.000216
     13          1           0       -2.921263   -1.016603   -0.884926
     14          1           0       -2.921106   -1.015759    0.885958
     15          8           0       -3.112743    0.862725   -0.000327
     16          1           0       -4.071753    0.803920   -0.000141
     17          1           0        1.099240    2.719504    0.000047
 ---------------------------------------------------------------------
 Rotational constants (GHZ):           2.6442883           0.9222160           0.6866885
 Leave Link  202 at Mon Dec 08 16:30:28 2025, MaxMem=   104857600 cpu:               0.0 elap:               0.0
 (Enter D:\Gaussian\G16W\l301.exe)
 Standard basis: 6-31G(d) (6D, 7F)
 Ernie: Thresh=  0.10000D-02 Tol=  0.10000D-05 Strict=F.
 There are   164 symmetry adapted cartesian basis functions of A   symmetry.
 There are   164 symmetry adapted basis functions of A   symmetry.
   164 basis functions,   308 primitive gaussians,   164 cartesian basis functions
    36 alpha electrons       36 beta electrons
       nuclear repulsion energy       499.2044126331 Hartrees.
 IExCor=  402 DFT=T Ex+Corr=B3LYP ExCW=0 ScaHFX=  0.200000
 ScaDFX=  0.800000  0.720000  1.000000  0.810000 ScalE2=  1.000000  1.000000
 IRadAn=      5 IRanWt=     -1 IRanGd=            0 ICorTp=0 IEmpDi=  4
 NAtoms=   17 NActive=   17 NUniq=   17 SFac= 1.00D+00 NAtFMM=   60 NAOKFM=F Big=F
 Integral buffers will be    131072 words long.
 Raffenetti 2 integral format.
 Two-electron integral symmetry is turned on.
 Leave Link  301 at Mon Dec 08 16:30:28 2025, MaxMem=   104857600 cpu:               0.0 elap:               0.1
 (Enter D:\Gaussian\G16W\l302.exe)
 NPDir=0 NMtPBC=     1 NCelOv=     1 NCel=       1 NClECP=     1 NCelD=      1
         NCelK=      1 NCelE2=     1 NClLst=     1 CellRange=     0.0.
 One-electron integrals computed using PRISM.
 One-electron integral symmetry used in STVInt
 NBasis=   164 RedAO= T EigKep=  4.46D-04  NBF=   164
 NBsUse=   164 1.00D-06 EigRej= -1.00D+00 NBFU=   164
 Precomputing XC quadrature grid using
 IXCGrd= 4 IRadAn=           5 IRanWt=          -1 IRanGd=           0 AccXCQ= 0.00D+00.
 Generated NRdTot=       0 NPtTot=           0 NUsed=           0 NTot=          32
 NSgBfM=   163   163   163   163   163 MxSgAt=    17 MxSgA2=    17.
 Leave Link  302 at Mon Dec 08 16:30:29 2025, MaxMem=   104857600 cpu:               1.0 elap:               0.4
 (Enter D:\Gaussian\G16W\l303.exe)
 DipDrv:  MaxL=1.
 Leave Link  303 at Mon Dec 08 16:30:29 2025, MaxMem=   104857600 cpu:               0.0 elap:               0.1
 (Enter D:\Gaussian\G16W\l401.exe)
 ExpMin= 1.61D-01 ExpMax= 5.48D+03 ExpMxC= 8.25D+02 IAcc=3 IRadAn=         5 AccDes= 0.00D+00
 Harris functional with IExCor=  402 and IRadAn=       5 diagonalized for initial guess.
 HarFok:  IExCor=  402 AccDes= 0.00D+00 IRadAn=         5 IDoV= 1 UseB2=F ITyADJ=14
 ICtDFT=  3500011 ScaDFX=  1.000000  1.000000  1.000000  1.000000
 FoFCou: FMM=F IPFlag=           0 FMFlag=      100000 FMFlg1=           0
         NFxFlg=           0 DoJE=T BraDBF=F KetDBF=T FulRan=T
         wScrn=  0.000000 ICntrl=       500 IOpCl=  0 I1Cent=   200000004 NGrid=           0
         NMat0=    1 NMatS0=      1 NMatT0=    0 NMatD0=    1 NMtDS0=    0 NMtDT0=    0
 Petite list used in FoFCou.
 Harris En= -496.327067570507    
 JPrj=0 DoOrth=F DoCkMO=F.
 Leave Link  401 at Mon Dec 08 16:30:30 2025, MaxMem=   104857600 cpu:               1.0 elap:               1.0
 (Enter D:\Gaussian\G16W\l502.exe)
 Keep R1 ints in memory in canonical form, NReq=95505454.
 FoFCou: FMM=F IPFlag=           0 FMFlag=           0 FMFlg1=           0
         NFxFlg=           0 DoJE=F BraDBF=F KetDBF=F FulRan=T
         wScrn=  0.000000 ICntrl=       600 IOpCl=  0 I1Cent=           0 NGrid=           0
         NMat0=    1 NMatS0=  13530 NMatT0=    0 NMatD0=    1 NMtDS0=    0 NMtDT0=    0
 Symmetry not used in FoFCou.
 Two-electron integral symmetry not used.
 Closed shell SCF:
 Using DIIS extrapolation, IDIIS=  1040.
 NGot=   104857600 LenX=    13263708 LenY=    13236371
 Requested convergence on RMS density matrix=1.00D-07 within 128 cycles.
 Requested convergence on MAX density matrix=1.00D-05.
 Requested convergence on             energy=1.00D-05.
 No special actions if energy rises.
 Integral accuracy reduced to 1.0D-05 until final iterations.

 Cycle   1  Pass 0  IDiag  1:
 E= -496.114397631619    
 DIIS: error= 2.58D-02 at cycle   1 NSaved=   1.
 NSaved= 1 IEnMin= 1 EnMin= -496.114397631619     IErMin= 1 ErrMin= 2.58D-02
 ErrMax= 2.58D-02  0.00D+00 EMaxC= 1.00D-01 BMatC= 2.09D-01 BMatP= 2.09D-01
 IDIUse=3 WtCom= 7.42D-01 WtEn= 2.58D-01
 Coeff-Com:  0.100D+01
 Coeff-En:   0.100D+01
 Coeff:      0.100D+01
 Gap=     0.085 Goal=   None    Shift=    0.000
 GapD=    0.085 DampG=0.500 DampE=0.500 DampFc=0.2500 IDamp=-1.
 Damping current iteration by 2.50D-01
 RMSDP=7.60D-03 MaxDP=2.08D-01              OVMax= 3.57D-01

 Cycle   2  Pass 0  IDiag  1:
 E= -496.173700724195     Delta-E=       -0.059303092577 Rises=F Damp=T
 DIIS: error= 1.61D-02 at cycle   2 NSaved=   2.
 NSaved= 2 IEnMin= 2 EnMin= -496.173700724195     IErMin= 2 ErrMin= 1.61D-02
 ErrMax= 1.61D-02  0.00D+00 EMaxC= 1.00D-01 BMatC= 4.22D-02 BMatP= 2.09D-01
 IDIUse=3 WtCom= 8.39D-01 WtEn= 1.61D-01
 Coeff-Com: -0.438D+00 0.144D+01
 Coeff-En:   0.000D+00 0.100D+01
 Coeff:     -0.367D+00 0.137D+01
 Gap=     0.105 Goal=   None    Shift=    0.000
 RMSDP=2.22D-03 MaxDP=4.04D-02 DE=-5.93D-02 OVMax= 2.39D-01

 Cycle   3  Pass 0  IDiag  1:
 E= -496.265748523957     Delta-E=       -0.092047799762 Rises=F Damp=F
 DIIS: error= 1.49D-02 at cycle   3 NSaved=   3.
 NSaved= 3 IEnMin= 3 EnMin= -496.265748523957     IErMin= 3 ErrMin= 1.49D-02
 ErrMax= 1.49D-02  0.00D+00 EMaxC= 1.00D-01 BMatC= 2.89D-02 BMatP= 4.22D-02
 IDIUse=3 WtCom= 8.51D-01 WtEn= 1.49D-01
 Coeff-Com: -0.322D+00 0.822D+00 0.500D+00
 Coeff-En:   0.000D+00 0.000D+00 0.100D+01
 Coeff:     -0.274D+00 0.699D+00 0.575D+00
 Gap=     0.110 Goal=   None    Shift=    0.000
 RMSDP=1.53D-03 MaxDP=6.31D-02 DE=-9.20D-02 OVMax= 8.04D-02

 Cycle   4  Pass 0  IDiag  1:
 E= -496.281459411525     Delta-E=       -0.015710887568 Rises=F Damp=F
 DIIS: error= 1.13D-02 at cycle   4 NSaved=   4.
 NSaved= 4 IEnMin= 4 EnMin= -496.281459411525     IErMin= 4 ErrMin= 1.13D-02
 ErrMax= 1.13D-02  0.00D+00 EMaxC= 1.00D-01 BMatC= 1.31D-02 BMatP= 2.89D-02
 IDIUse=3 WtCom= 8.87D-01 WtEn= 1.13D-01
 Coeff-Com: -0.947D-01 0.255D+00 0.400D+00 0.441D+00
 Coeff-En:   0.000D+00 0.000D+00 0.330D+00 0.670D+00
 Coeff:     -0.840D-01 0.226D+00 0.392D+00 0.467D+00
 Gap=     0.118 Goal=   None    Shift=    0.000
 RMSDP=8.09D-04 MaxDP=3.60D-02 DE=-1.57D-02 OVMax= 5.15D-02

 Cycle   5  Pass 0  IDiag  1:
 E= -496.291510022948     Delta-E=       -0.010050611423 Rises=F Damp=F
 DIIS: error= 2.39D-03 at cycle   5 NSaved=   5.
 NSaved= 5 IEnMin= 5 EnMin= -496.291510022948     IErMin= 5 ErrMin= 2.39D-03
 ErrMax= 2.39D-03  0.00D+00 EMaxC= 1.00D-01 BMatC= 1.21D-03 BMatP= 1.31D-02
 IDIUse=3 WtCom= 9.76D-01 WtEn= 2.39D-02
 Coeff-Com: -0.127D-01 0.365D-01 0.172D+00 0.305D+00 0.499D+00
 Coeff-En:   0.000D+00 0.000D+00 0.000D+00 0.789D-01 0.921D+00
 Coeff:     -0.124D-01 0.356D-01 0.168D+00 0.300D+00 0.510D+00
 Gap=     0.100 Goal=   None    Shift=    0.000
 RMSDP=2.59D-04 MaxDP=9.23D-03 DE=-1.01D-02 OVMax= 2.32D-02

 Cycle   6  Pass 0  IDiag  1:
 E= -496.292573142843     Delta-E=       -0.001063119895 Rises=F Damp=F
 DIIS: error= 6.87D-04 at cycle   6 NSaved=   6.
 NSaved= 6 IEnMin= 6 EnMin= -496.292573142843     IErMin= 6 ErrMin= 6.87D-04
 ErrMax= 6.87D-04  0.00D+00 EMaxC= 1.00D-01 BMatC= 7.89D-05 BMatP= 1.21D-03
 IDIUse=3 WtCom= 9.93D-01 WtEn= 6.87D-03
 Coeff-Com:  0.120D-05 0.228D-02 0.673D-01 0.136D+00 0.293D+00 0.502D+00
 Coeff-En:   0.000D+00 0.000D+00 0.000D+00 0.000D+00 0.226D-02 0.998D+00
 Coeff:      0.119D-05 0.227D-02 0.668D-01 0.135D+00 0.291D+00 0.505D+00
 Gap=     0.098 Goal=   None    Shift=    0.000
 RMSDP=7.48D-05 MaxDP=2.19D-03 DE=-1.06D-03 OVMax= 6.83D-03

 Cycle   7  Pass 0  IDiag  1:
 E= -496.292634094257     Delta-E=       -0.000060951414 Rises=F Damp=F
 DIIS: error= 2.98D-04 at cycle   7 NSaved=   7.
 NSaved= 7 IEnMin= 7 EnMin= -496.292634094257     IErMin= 7 ErrMin= 2.98D-04
 ErrMax= 2.98D-04  0.00D+00 EMaxC= 1.00D-01 BMatC= 2.19D-05 BMatP= 7.89D-05
 IDIUse=3 WtCom= 9.97D-01 WtEn= 2.98D-03
 Coeff-Com:  0.130D-02-0.333D-02 0.147D-01 0.349D-01 0.113D+00 0.374D+00
 Coeff-Com:  0.465D+00
 Coeff-En:   0.000D+00 0.000D+00 0.000D+00 0.000D+00 0.000D+00 0.251D+00
 Coeff-En:   0.749D+00
 Coeff:      0.129D-02-0.332D-02 0.147D-01 0.348D-01 0.113D+00 0.374D+00
 Coeff:      0.466D+00
 Gap=     0.098 Goal=   None    Shift=    0.000
 RMSDP=3.20D-05 MaxDP=7.74D-04 DE=-6.10D-05 OVMax= 2.30D-03

 Cycle   8  Pass 0  IDiag  1:
 E= -496.292656781565     Delta-E=       -0.000022687308 Rises=F Damp=F
 DIIS: error= 7.11D-05 at cycle   8 NSaved=   8.
 NSaved= 8 IEnMin= 8 EnMin= -496.292656781565     IErMin= 8 ErrMin= 7.11D-05
 ErrMax= 7.11D-05  0.00D+00 EMaxC= 1.00D-01 BMatC= 1.00D-06 BMatP= 2.19D-05
 IDIUse=1 WtCom= 1.00D+00 WtEn= 0.00D+00
 Coeff-Com:  0.801D-03-0.216D-02 0.136D-02 0.474D-02 0.352D-01 0.153D+00
 Coeff-Com:  0.237D+00 0.569D+00
 Coeff:      0.801D-03-0.216D-02 0.136D-02 0.474D-02 0.352D-01 0.153D+00
 Coeff:      0.237D+00 0.569D+00
 Gap=     0.098 Goal=   None    Shift=    0.000
 RMSDP=8.71D-06 MaxDP=2.10D-04 DE=-2.27D-05 OVMax= 7.78D-04

 Initial convergence to 1.0D-05 achieved.  Increase integral accuracy.
 Cycle   9  Pass 1  IDiag  1:
 E= -496.292659450191     Delta-E=       -0.000002668626 Rises=F Damp=F
 DIIS: error= 2.55D-05 at cycle   1 NSaved=   1.
 NSaved= 1 IEnMin= 1 EnMin= -496.292659450191     IErMin= 1 ErrMin= 2.55D-05
 ErrMax= 2.55D-05  0.00D+00 EMaxC= 1.00D-01 BMatC= 1.96D-07 BMatP= 1.96D-07
 IDIUse=1 WtCom= 1.00D+00 WtEn= 0.00D+00
 Coeff-Com:  0.100D+01
 Coeff:      0.100D+01
 Gap=     0.098 Goal=   None    Shift=    0.000
 RMSDP=8.71D-06 MaxDP=2.10D-04 DE=-2.67D-06 OVMax= 5.93D-04

 Cycle  10  Pass 1  IDiag  1:
 E= -496.292658980409     Delta-E=        0.000000469782 Rises=F Damp=F
 DIIS: error= 6.00D-05 at cycle   2 NSaved=   2.
 NSaved= 2 IEnMin= 1 EnMin= -496.292659450191     IErMin= 1 ErrMin= 2.55D-05
 ErrMax= 6.00D-05  0.00D+00 EMaxC= 1.00D-01 BMatC= 6.96D-07 BMatP= 1.96D-07
 IDIUse=1 WtCom= 1.00D+00 WtEn= 0.00D+00
 Coeff-Com:  0.657D+00 0.343D+00
 Coeff:      0.657D+00 0.343D+00
 Gap=     0.098 Goal=   None    Shift=    0.000
 RMSDP=5.58D-06 MaxDP=2.04D-04 DE= 4.70D-07 OVMax= 5.91D-04

 Cycle  11  Pass 1  IDiag  1:
 E= -496.292659628761     Delta-E=       -0.000000648352 Rises=F Damp=F
 DIIS: error= 1.01D-05 at cycle   3 NSaved=   3.
 NSaved= 3 IEnMin= 3 EnMin= -496.292659628761     IErMin= 3 ErrMin= 1.01D-05
 ErrMax= 1.01D-05  0.00D+00 EMaxC= 1.00D-01 BMatC= 2.35D-08 BMatP= 1.96D-07
 IDIUse=1 WtCom= 1.00D+00 WtEn= 0.00D+00
 Coeff-Com:  0.344D+00 0.229D+00 0.427D+00
 Coeff:      0.344D+00 0.229D+00 0.427D+00
 Gap=     0.098 Goal=   None    Shift=    0.000
 RMSDP=9.01D-07 MaxDP=3.48D-05 DE=-6.48D-07 OVMax= 6.25D-05

 Cycle  12  Pass 1  IDiag  1:
 E= -496.292659645765     Delta-E=       -0.000000017003 Rises=F Damp=F
 DIIS: error= 3.39D-06 at cycle   4 NSaved=   4.
 NSaved= 4 IEnMin= 4 EnMin= -496.292659645765     IErMin= 4 ErrMin= 3.39D-06
 ErrMax= 3.39D-06  0.00D+00 EMaxC= 1.00D-01 BMatC= 3.39D-09 BMatP= 2.35D-08
 IDIUse=1 WtCom= 1.00D+00 WtEn= 0.00D+00
 Coeff-Com:  0.536D-01 0.869D-01 0.240D+00 0.619D+00
 Coeff:      0.536D-01 0.869D-01 0.240D+00 0.619D+00
 Gap=     0.098 Goal=   None    Shift=    0.000
 RMSDP=4.36D-07 MaxDP=1.41D-05 DE=-1.70D-08 OVMax= 1.81D-05

 Cycle  13  Pass 1  IDiag  1:
 E= -496.292659648033     Delta-E=       -0.000000002269 Rises=F Damp=F
 DIIS: error= 3.46D-06 at cycle   5 NSaved=   5.
 NSaved= 5 IEnMin= 5 EnMin= -496.292659648033     IErMin= 4 ErrMin= 3.39D-06
 ErrMax= 3.46D-06  0.00D+00 EMaxC= 1.00D-01 BMatC= 1.18D-09 BMatP= 3.39D-09
 IDIUse=1 WtCom= 1.00D+00 WtEn= 0.00D+00
 Coeff-Com: -0.377D-01 0.217D-01 0.699D-01 0.453D+00 0.493D+00
 Coeff:     -0.377D-01 0.217D-01 0.699D-01 0.453D+00 0.493D+00
 Gap=     0.098 Goal=   None    Shift=    0.000
 RMSDP=2.32D-07 MaxDP=7.58D-06 DE=-2.27D-09 OVMax= 1.47D-05

 Cycle  14  Pass 1  IDiag  1:
 E= -496.292659648996     Delta-E=       -0.000000000963 Rises=F Damp=F
 DIIS: error= 8.24D-07 at cycle   6 NSaved=   6.
 NSaved= 6 IEnMin= 6 EnMin= -496.292659648996     IErMin= 6 ErrMin= 8.24D-07
 ErrMax= 8.24D-07  0.00D+00 EMaxC= 1.00D-01 BMatC= 1.31D-10 BMatP= 1.18D-09
 IDIUse=1 WtCom= 1.00D+00 WtEn= 0.00D+00
 Coeff-Com: -0.247D-01 0.694D-02 0.685D-02 0.165D+00 0.297D+00 0.549D+00
 Coeff:     -0.247D-01 0.694D-02 0.685D-02 0.165D+00 0.297D+00 0.549D+00
 Gap=     0.098 Goal=   None    Shift=    0.000
 RMSDP=8.18D-08 MaxDP=2.15D-06 DE=-9.63D-10 OVMax= 6.01D-06

 SCF Done:  E(RB3LYP) =  -496.292659649     A.U. after   14 cycles
            NFock= 14  Conv=0.82D-07     -V/T= 2.0091
 KE= 4.917984020712D+02 PE=-2.143338935535D+03 EE= 6.560434611819D+02
 Leave Link  502 at Mon Dec 08 16:30:44 2025, MaxMem=   104857600 cpu:              14.0 elap:              13.7
 (Enter D:\Gaussian\G16W\l601.exe)
 Copying SCF densities to generalized density rwf, IOpCl= 0 IROHF=0.

 **********************************************************************

            Population analysis using the SCF density.

 **********************************************************************

 Orbital symmetries:
       Occupied  (A) (A) (A) (A) (A) (A) (A) (A) (A) (A) (A) (A)
                 (A) (A) (A) (A) (A) (A) (A) (A) (A) (A) (A) (A)
                 (A) (A) (A) (A) (A) (A) (A) (A) (A) (A) (A) (A)
       Virtual   (A) (A) (A) (A) (A) (A) (A) (A) (A) (A) (A) (A)
                 (A) (A) (A) (A) (A) (A) (A) (A) (A) (A) (A) (A)
                 (A) (A) (A) (A) (A) (A) (A) (A) (A) (A) (A) (A)
                 (A) (A) (A) (A) (A) (A) (A) (A) (A) (A) (A) (A)
                 (A) (A) (A) (A) (A) (A) (A) (A) (A) (A) (A) (A)
                 (A) (A) (A) (A) (A) (A) (A) (A) (A) (A) (A) (A)
                 (A) (A) (A) (A) (A) (A) (A) (A) (A) (A) (A) (A)
                 (A) (A) (A) (A) (A) (A) (A) (A) (A) (A) (A) (A)
                 (A) (A) (A) (A) (A) (A) (A) (A) (A) (A) (A) (A)
                 (A) (A) (A) (A) (A) (A) (A) (A) (A) (A) (A) (A)
                 (A) (A) (A) (A) (A) (A) (A) (A)
 The electronic state is 1-A.
 Alpha  occ. eigenvalues --  -19.41719 -19.36487 -19.32187 -10.50174 -10.48199
 Alpha  occ. eigenvalues --  -10.45053 -10.43158 -10.40754 -10.40681 -10.40162
 Alpha  occ. eigenvalues --   -1.29688  -1.23554  -1.19845  -1.07076  -0.96484
 Alpha  occ. eigenvalues --   -0.96298  -0.87524  -0.83962  -0.79053  -0.76105
 Alpha  occ. eigenvalues --   -0.70851  -0.68611  -0.67157  -0.65346  -0.64037
 Alpha  occ. eigenvalues --   -0.63562  -0.62666  -0.61291  -0.58130  -0.57562
 Alpha  occ. eigenvalues --   -0.56539  -0.52615  -0.52130  -0.46235  -0.45274
 Alpha  occ. eigenvalues --   -0.44660
 Alpha virt. eigenvalues --   -0.34859  -0.19982  -0.19062  -0.10921  -0.08402
 Alpha virt. eigenvalues --   -0.06935  -0.05224  -0.04378  -0.01697   0.00932
 Alpha virt. eigenvalues --    0.02051   0.02368   0.04212   0.06185   0.07058
 Alpha virt. eigenvalues --    0.12313   0.13554   0.17015   0.18394   0.27371
 Alpha virt. eigenvalues --    0.30109   0.30555   0.31663   0.35427   0.37077
 Alpha virt. eigenvalues --    0.37890   0.38960   0.39417   0.41431   0.43462
 Alpha virt. eigenvalues --    0.45554   0.45886   0.46012   0.47031   0.52816
 Alpha virt. eigenvalues --    0.54824   0.55658   0.58678   0.59546   0.63420
 Alpha virt. eigenvalues --    0.65065   0.66385   0.68167   0.70437   0.71607
 Alpha virt. eigenvalues --    0.72109   0.74153   0.74516   0.75076   0.81265
 Alpha virt. eigenvalues --    0.83088   0.85365   0.85739   0.85801   0.87824
 Alpha virt. eigenvalues --    0.91024   0.94014   0.99903   1.00641   1.00859
 Alpha virt. eigenvalues --    1.05677   1.11201   1.13399   1.13469   1.15049
 Alpha virt. eigenvalues --    1.19258   1.20647   1.23124   1.26900   1.28577
 Alpha virt. eigenvalues --    1.40892   1.48978   1.49843   1.50197   1.51065
 Alpha virt. eigenvalues --    1.55605   1.55609   1.59425   1.59716   1.61969
 Alpha virt. eigenvalues --    1.62211   1.68414   1.68817   1.70143   1.72106
 Alpha virt. eigenvalues --    1.75239   1.76003   1.84308   1.84908   1.84929
 Alpha virt. eigenvalues --    1.88715   1.91441   1.92865   2.01121   2.03568
 Alpha virt. eigenvalues --    2.08243   2.10387   2.11586   2.15055   2.20762
 Alpha virt. eigenvalues --    2.21337   2.21560   2.24786   2.29438   2.37761
 Alpha virt. eigenvalues --    2.41732   2.41823   2.43580   2.47885   2.56873
 Alpha virt. eigenvalues --    2.58347   2.61944   2.70677   2.71437   2.74215
 Alpha virt. eigenvalues --    2.83266   3.01018   3.16492   3.61535   3.69367
 Alpha virt. eigenvalues --    3.84818   3.87601   3.95267   4.01366   4.12763
 Alpha virt. eigenvalues --    4.15730   4.35652   4.72692
          Condensed to atoms (all electrons):
               1          2          3          4          5          6
     1  C    4.897426   0.377755   0.012512  -0.019164  -0.115807   0.241716
     2  C    0.377755   5.202332   0.494523  -0.058545  -0.022215  -0.049946
     3  C    0.012512   0.494523   4.797614   0.424218  -0.010798  -0.017294
     4  C   -0.019164  -0.058545   0.424218   5.003646   0.504882  -0.016544
     5  C   -0.115807  -0.022215  -0.010798   0.504882   5.112116   0.395152
     6  C    0.241716  -0.049946  -0.017294  -0.016544   0.395152   4.570521
     7  H   -0.040409   0.349409  -0.018494   0.005363  -0.000307   0.002477
     8  H   -0.000280   0.005470  -0.045297   0.365636  -0.025929   0.002859
     9  H    0.005959   0.000018   0.003236  -0.029413   0.354615  -0.027239
    10  O   -0.068630   0.005108  -0.000366   0.004988  -0.060844   0.497483
    11  O    0.348033  -0.059271   0.003340   0.000189   0.003009  -0.049798
    12  C    0.005210  -0.042451   0.331189  -0.055010   0.004963   0.000159
    13  H   -0.000052   0.001231  -0.035444   0.000671  -0.000187   0.000001
    14  H   -0.000053   0.001215  -0.035416   0.000675  -0.000188   0.000001
    15  O    0.000879   0.002087  -0.050646   0.001974  -0.000058   0.000003
    16  H   -0.000015   0.000091   0.006127  -0.000173   0.000003   0.000000
    17  H   -0.024630  -0.001931   0.000572   0.000028  -0.000209   0.005642
               7          8          9         10         11         12
     1  C   -0.040409  -0.000280   0.005959  -0.068630   0.348033   0.005210
     2  C    0.349409   0.005470   0.000018   0.005108  -0.059271  -0.042451
     3  C   -0.018494  -0.045297   0.003236  -0.000366   0.003340   0.331189
     4  C    0.005363   0.365636  -0.029413   0.004988   0.000189  -0.055010
     5  C   -0.000307  -0.025929   0.354615  -0.060844   0.003009   0.004963
     6  C    0.002477   0.002859  -0.027239   0.497483  -0.049798   0.000159
     7  H    0.460462  -0.000097   0.000008  -0.000033  -0.003279  -0.012056
     8  H   -0.000097   0.485803  -0.004272  -0.000049   0.000002  -0.004907
     9  H    0.000008  -0.004272   0.456898   0.000023  -0.000037  -0.000116
    10  O   -0.000033  -0.000049   0.000023   7.956617  -0.002424   0.000000
    11  O   -0.003279   0.000002  -0.000037  -0.002424   8.014582  -0.000051
    12  C   -0.012056  -0.004907  -0.000116   0.000000  -0.000051   4.919218
    13  H    0.000463   0.001739   0.000000   0.000000   0.000001   0.356919
    14  H    0.000463   0.001734   0.000000   0.000000   0.000001   0.356899
    15  O    0.016375   0.000054   0.000000   0.000000   0.000000   0.256433
    16  H   -0.000479  -0.000008   0.000000   0.000000   0.000000  -0.018154
    17  H    0.005057  -0.000001   0.000004  -0.000194   0.245320  -0.000018
              13         14         15         16         17
     1  C   -0.000052  -0.000053   0.000879  -0.000015  -0.024630
     2  C    0.001231   0.001215   0.002087   0.000091  -0.001931
     3  C   -0.035444  -0.035416  -0.050646   0.006127   0.000572
     4  C    0.000671   0.000675   0.001974  -0.000173   0.000028
     5  C   -0.000187  -0.000188  -0.000058   0.000003  -0.000209
     6  C    0.000001   0.000001   0.000003   0.000000   0.005642
     7  H    0.000463   0.000463   0.016375  -0.000479   0.005057
     8  H    0.001739   0.001734   0.000054  -0.000008  -0.000001
     9  H    0.000000   0.000000   0.000000   0.000000   0.000004
    10  O    0.000000   0.000000   0.000000   0.000000  -0.000194
    11  O    0.000001   0.000001   0.000000   0.000000   0.245320
    12  C    0.356919   0.356899   0.256433  -0.018154  -0.000018
    13  H    0.526956  -0.037393  -0.033161  -0.003025   0.000000
    14  H   -0.037393   0.526930  -0.033153  -0.003027   0.000000
    15  O   -0.033161  -0.033153   8.195925   0.245570  -0.000012
    16  H   -0.003025  -0.003027   0.245570   0.331549   0.000000
    17  H    0.000000   0.000000  -0.000012   0.000000   0.303931
 Mulliken charges:
               1
     1  C    0.379549
     2  C   -0.204881
     3  C    0.140423
     4  C   -0.133421
     5  C   -0.138197
     6  C    0.444808
     7  H    0.235078
     8  H    0.217542
     9  H    0.240314
    10  O   -0.331679
    11  O   -0.499616
    12  C   -0.098227
    13  H    0.221282
    14  H    0.221312
    15  O   -0.602269
    16  H    0.441540
    17  H    0.466441
 Sum of Mulliken charges =   1.00000
 Mulliken charges with hydrogens summed into heavy atoms:
               1
     1  C    0.379549
     2  C    0.030197
     3  C    0.140423
     4  C    0.084121
     5  C    0.102118
     6  C    0.444808
    10  O   -0.331679
    11  O   -0.033175
    12  C    0.344367
    15  O   -0.160729
 Electronic spatial extent (au):  <R**2>=           1530.3043
 Charge=              1.0000 electrons
 Dipole moment (field-independent basis, Debye):
    X=             -4.7091    Y=             -0.6585    Z=              0.0012  Tot=              4.7549
 Quadrupole moment (field-independent basis, Debye-Ang):
   XX=            -36.1393   YY=            -35.1806   ZZ=            -54.4454
   XY=              3.6133   XZ=             -0.0035   YZ=              0.0012
 Traceless Quadrupole moment (field-independent basis, Debye-Ang):
   XX=              5.7825   YY=              6.7412   ZZ=            -12.5236
   XY=              3.6133   XZ=             -0.0035   YZ=              0.0012
 Octapole moment (field-independent basis, Debye-Ang**2):
  XXX=           -112.4075  YYY=             23.4755  ZZZ=              0.0009  XYY=              8.2692
  XXY=             -5.2360  XXZ=              0.0087  XZZ=              1.2736  YZZ=              3.0996
  YYZ=             -0.0011  XYZ=             -0.0008
 Hexadecapole moment (field-independent basis, Debye-Ang**3):
 XXXX=           -919.5263 YYYY=           -342.2987 ZZZZ=            -54.7167 XXXY=            -24.6144
 XXXZ=             -0.0183 YYYX=             17.3349 YYYZ=              0.0075 ZZZX=             -0.0044
 ZZZY=             -0.0016 XXYY=           -269.3518 XXZZ=           -209.8566 YYZZ=            -96.1065
 XXYZ=              0.0037 YYXZ=              0.0005 ZZXY=              4.3166
 N-N= 4.992044126331D+02 E-N=-2.143338902073D+03  KE= 4.917984020712D+02
 No NMR shielding tensors so no spin-rotation constants.
 Leave Link  601 at Mon Dec 08 16:30:44 2025, MaxMem=   104857600 cpu:               0.0 elap:               0.2
 (Enter D:\Gaussian\G16W\l9999.exe)
 1|1|UNPC-PC-20250526LCFF|SP|RB3LYP|6-31G(d)|C7H7O3(1+)|ADMINISTRATOR|0
 8-Dec-2025|0||#P B3LYP/6-31G* SCF=conver=7 out=wfn||Generated by Multi
 wfn (http://sobereva.com/multiwfn)||1,1|C,0,0.9925329,0.82691103,0.000
 04682|C,0,-0.39581709,0.79980903,0.00010082|C,0,-1.0808591,-0.41355297
 ,0.00007182|C,0,-0.3582881,-1.63547397,-0.00000518|C,0,1.0088259,-1.63
 909597,-0.00007318|C,0,1.7816379,-0.41131498,-0.00003118|H,0,-0.965692
 09,1.72266503,0.00017282|H,0,-0.9053081,-2.57360297,-0.00007118|H,0,1.
 5797149,-2.56001798,-0.00018918|O,0,3.0251899,-0.39539598,-0.00006118|
 O,0,1.70397291,1.96789403,0.00003782|C,0,-2.5855641,-0.45426397,0.0002
 1582|H,0,-2.9212631,-1.01660296,-0.88492618|H,0,-2.9211061,-1.01575897
 ,0.88595782|O,0,-3.11274309,0.86272503,-0.00032718|H,0,-4.0717531,0.80
 392003,-0.00014118|H,0,1.09923991,2.71950402,0.00004682||Version=EM64W
 -G16RevA.03|State=1-A|HF=-496.2926596|RMSD=8.180e-008|Dipole=-1.852693
 5,-0.2590671,0.0004587|Quadrupole=4.2991209,5.0118991,-9.31102,2.68642
 34,-0.0025707,0.0009127|PG=C01 [X(C7H7O3)]||@

 Writing a WFN file to "N-1.wfn"


 You can't act like a skunk without someone's getting wind of it.
 -- Lorene Workman
 Job cpu time:       0 days  0 hours  0 minutes 16.0 seconds.
 Elapsed time:       0 days  0 hours  0 minutes 15.7 seconds.
 File lengths (MBytes):  RWF=     14 Int=      0 D2E=      0 Chk=      3 Scr=      1
 Normal termination of Gaussian 16 at Mon Dec 08 16:30:44 2025.
