 Generated by Multiwfn (http://sobereva.com/multiwfn)
GAUSSIAN             36 MOL ORBITALS    308 PRIMITIVES       17 NUCLEI
  C    1    (CENTRE  1)   1.87561535  1.56263537  0.00008848  CHARGE =  6.0
  C    2    (CENTRE  2)  -0.74798589  1.51142002  0.00019053  CHARGE =  6.0
  C    3    (CENTRE  3)  -2.04252768 -0.78150185  0.00013572  CHARGE =  6.0
  C    4    (CENTRE  4)  -0.67706639 -3.09059789 -0.00000979  CHARGE =  6.0
  C    5    (CENTRE  5)   1.90640466 -3.09744248 -0.00013829  CHARGE =  6.0
  C    6    (CENTRE  6)   3.36680768 -0.77727267 -0.00005892  CHARGE =  6.0
  H    7    (CENTRE  7)  -1.82489356  3.25536511  0.00032659  CHARGE =  1.0
  H    8    (CENTRE  8)  -1.71078437 -4.86340477 -0.00013451  CHARGE =  1.0
  H    9    (CENTRE  9)   2.98522851 -4.83773286 -0.00035749  CHARGE =  1.0
  O   10    (CENTRE 10)   5.71678039 -0.74719012 -0.00011561  CHARGE =  8.0
  O   11    (CENTRE 11)   3.22004213  3.71878075  0.00007147  CHARGE =  8.0
  C   12    (CENTRE 12)  -4.88600803 -0.85843449  0.00040784  CHARGE =  6.0
  H   13    (CENTRE 13)  -5.52038720 -1.92110116 -1.67226812  CHARGE =  1.0
  H   14    (CENTRE 14)  -5.52009051 -1.91950625  1.67421764  CHARGE =  1.0
  O   15    (CENTRE 15)  -5.88223193  1.63031404 -0.00061828  CHARGE =  8.0
  H   16    (CENTRE 16)  -7.69449820  1.51918869 -0.00026679  CHARGE =  1.0
  H   17    (CENTRE 17)   2.07726238  5.13911779  0.00008848  CHARGE =  1.0
CENTRE ASSIGNMENTS    1  1  1  1  1  1  1  1  1  1  1  1  1  1  1  1  1  1  1  1
CENTRE ASSIGNMENTS    1  1  1  1  1  1  1  1  2  2  2  2  2  2  2  2  2  2  2  2
CENTRE ASSIGNMENTS    2  2  2  2  2  2  2  2  2  2  2  2  2  2  2  2  3  3  3  3
CENTRE ASSIGNMENTS    3  3  3  3  3  3  3  3  3  3  3  3  3  3  3  3  3  3  3  3
CENTRE ASSIGNMENTS    3  3  3  3  4  4  4  4  4  4  4  4  4  4  4  4  4  4  4  4
CENTRE ASSIGNMENTS    4  4  4  4  4  4  4  4  4  4  4  4  5  5  5  5  5  5  5  5
CENTRE ASSIGNMENTS    5  5  5  5  5  5  5  5  5  5  5  5  5  5  5  5  5  5  5  5
CENTRE ASSIGNMENTS    6  6  6  6  6  6  6  6  6  6  6  6  6  6  6  6  6  6  6  6
CENTRE ASSIGNMENTS    6  6  6  6  6  6  6  6  7  7  7  7  8  8  8  8  9  9  9  9
CENTRE ASSIGNMENTS   10 10 10 10 10 10 10 10 10 10 10 10 10 10 10 10 10 10 10 10
CENTRE ASSIGNMENTS   10 10 10 10 10 10 10 10 11 11 11 11 11 11 11 11 11 11 11 11
CENTRE ASSIGNMENTS   11 11 11 11 11 11 11 11 11 11 11 11 11 11 11 11 12 12 12 12
CENTRE ASSIGNMENTS   12 12 12 12 12 12 12 12 12 12 12 12 12 12 12 12 12 12 12 12
CENTRE ASSIGNMENTS   12 12 12 12 13 13 13 13 14 14 14 14 15 15 15 15 15 15 15 15
CENTRE ASSIGNMENTS   15 15 15 15 15 15 15 15 15 15 15 15 15 15 15 15 15 15 15 15
CENTRE ASSIGNMENTS   16 16 16 16 17 17 17 17
TYPE ASSIGNMENTS      1  1  1  1  1  1  1  1  1  2  2  2  3  3  3  4  4  4  1  2
TYPE ASSIGNMENTS      3  4  5  6  7  8  9 10  1  1  1  1  1  1  1  1  1  2  2  2
TYPE ASSIGNMENTS      3  3  3  4  4  4  1  2  3  4  5  6  7  8  9 10  1  1  1  1
TYPE ASSIGNMENTS      1  1  1  1  1  2  2  2  3  3  3  4  4  4  1  2  3  4  5  6
TYPE ASSIGNMENTS      7  8  9 10  1  1  1  1  1  1  1  1  1  2  2  2  3  3  3  4
TYPE ASSIGNMENTS      4  4  1  2  3  4  5  6  7  8  9 10  1  1  1  1  1  1  1  1
TYPE ASSIGNMENTS      1  2  2  2  3  3  3  4  4  4  1  2  3  4  5  6  7  8  9 10
TYPE ASSIGNMENTS      1  1  1  1  1  1  1  1  1  2  2  2  3  3  3  4  4  4  1  2
TYPE ASSIGNMENTS      3  4  5  6  7  8  9 10  1  1  1  1  1  1  1  1  1  1  1  1
TYPE ASSIGNMENTS      1  1  1  1  1  1  1  1  1  2  2  2  3  3  3  4  4  4  1  2
TYPE ASSIGNMENTS      3  4  5  6  7  8  9 10  1  1  1  1  1  1  1  1  1  2  2  2
TYPE ASSIGNMENTS      3  3  3  4  4  4  1  2  3  4  5  6  7  8  9 10  1  1  1  1
TYPE ASSIGNMENTS      1  1  1  1  1  2  2  2  3  3  3  4  4  4  1  2  3  4  5  6
TYPE ASSIGNMENTS      7  8  9 10  1  1  1  1  1  1  1  1  1  1  1  1  1  1  1  1
TYPE ASSIGNMENTS      1  2  2  2  3  3  3  4  4  4  1  2  3  4  5  6  7  8  9 10
TYPE ASSIGNMENTS      1  1  1  1  1  1  1  1
EXPONENTS  0.3047525D+04 0.4573695D+03 0.1039487D+03 0.2921016D+02 0.9286663D+01
EXPONENTS  0.3163927D+01 0.7868272D+01 0.1881289D+01 0.5442493D+00 0.7868272D+01
EXPONENTS  0.1881289D+01 0.5442493D+00 0.7868272D+01 0.1881289D+01 0.5442493D+00
EXPONENTS  0.7868272D+01 0.1881289D+01 0.5442493D+00 0.1687145D+00 0.1687145D+00
EXPONENTS  0.1687145D+00 0.1687145D+00 0.8000000D+00 0.8000000D+00 0.8000000D+00
EXPONENTS  0.8000000D+00 0.8000000D+00 0.8000000D+00 0.3047525D+04 0.4573695D+03
EXPONENTS  0.1039487D+03 0.2921016D+02 0.9286663D+01 0.3163927D+01 0.7868272D+01
EXPONENTS  0.1881289D+01 0.5442493D+00 0.7868272D+01 0.1881289D+01 0.5442493D+00
EXPONENTS  0.7868272D+01 0.1881289D+01 0.5442493D+00 0.7868272D+01 0.1881289D+01
EXPONENTS  0.5442493D+00 0.1687145D+00 0.1687145D+00 0.1687145D+00 0.1687145D+00
EXPONENTS  0.8000000D+00 0.8000000D+00 0.8000000D+00 0.8000000D+00 0.8000000D+00
EXPONENTS  0.8000000D+00 0.3047525D+04 0.4573695D+03 0.1039487D+03 0.2921016D+02
EXPONENTS  0.9286663D+01 0.3163927D+01 0.7868272D+01 0.1881289D+01 0.5442493D+00
EXPONENTS  0.7868272D+01 0.1881289D+01 0.5442493D+00 0.7868272D+01 0.1881289D+01
EXPONENTS  0.5442493D+00 0.7868272D+01 0.1881289D+01 0.5442493D+00 0.1687145D+00
EXPONENTS  0.1687145D+00 0.1687145D+00 0.1687145D+00 0.8000000D+00 0.8000000D+00
EXPONENTS  0.8000000D+00 0.8000000D+00 0.8000000D+00 0.8000000D+00 0.3047525D+04
EXPONENTS  0.4573695D+03 0.1039487D+03 0.2921016D+02 0.9286663D+01 0.3163927D+01
EXPONENTS  0.7868272D+01 0.1881289D+01 0.5442493D+00 0.7868272D+01 0.1881289D+01
EXPONENTS  0.5442493D+00 0.7868272D+01 0.1881289D+01 0.5442493D+00 0.7868272D+01
EXPONENTS  0.1881289D+01 0.5442493D+00 0.1687145D+00 0.1687145D+00 0.1687145D+00
EXPONENTS  0.1687145D+00 0.8000000D+00 0.8000000D+00 0.8000000D+00 0.8000000D+00
EXPONENTS  0.8000000D+00 0.8000000D+00 0.3047525D+04 0.4573695D+03 0.1039487D+03
EXPONENTS  0.2921016D+02 0.9286663D+01 0.3163927D+01 0.7868272D+01 0.1881289D+01
EXPONENTS  0.5442493D+00 0.7868272D+01 0.1881289D+01 0.5442493D+00 0.7868272D+01
EXPONENTS  0.1881289D+01 0.5442493D+00 0.7868272D+01 0.1881289D+01 0.5442493D+00
EXPONENTS  0.1687145D+00 0.1687145D+00 0.1687145D+00 0.1687145D+00 0.8000000D+00
EXPONENTS  0.8000000D+00 0.8000000D+00 0.8000000D+00 0.8000000D+00 0.8000000D+00
EXPONENTS  0.3047525D+04 0.4573695D+03 0.1039487D+03 0.2921016D+02 0.9286663D+01
EXPONENTS  0.3163927D+01 0.7868272D+01 0.1881289D+01 0.5442493D+00 0.7868272D+01
EXPONENTS  0.1881289D+01 0.5442493D+00 0.7868272D+01 0.1881289D+01 0.5442493D+00
EXPONENTS  0.7868272D+01 0.1881289D+01 0.5442493D+00 0.1687145D+00 0.1687145D+00
EXPONENTS  0.1687145D+00 0.1687145D+00 0.8000000D+00 0.8000000D+00 0.8000000D+00
EXPONENTS  0.8000000D+00 0.8000000D+00 0.8000000D+00 0.1873114D+02 0.2825394D+01
EXPONENTS  0.6401217D+00 0.1612778D+00 0.1873114D+02 0.2825394D+01 0.6401217D+00
EXPONENTS  0.1612778D+00 0.1873114D+02 0.2825394D+01 0.6401217D+00 0.1612778D+00
EXPONENTS  0.5484672D+04 0.8252349D+03 0.1880470D+03 0.5296450D+02 0.1689757D+02
EXPONENTS  0.5799635D+01 0.1553962D+02 0.3599934D+01 0.1013762D+01 0.1553962D+02
EXPONENTS  0.3599934D+01 0.1013762D+01 0.1553962D+02 0.3599934D+01 0.1013762D+01
EXPONENTS  0.1553962D+02 0.3599934D+01 0.1013762D+01 0.2700058D+00 0.2700058D+00
EXPONENTS  0.2700058D+00 0.2700058D+00 0.8000000D+00 0.8000000D+00 0.8000000D+00
EXPONENTS  0.8000000D+00 0.8000000D+00 0.8000000D+00 0.5484672D+04 0.8252349D+03
EXPONENTS  0.1880470D+03 0.5296450D+02 0.1689757D+02 0.5799635D+01 0.1553962D+02
EXPONENTS  0.3599934D+01 0.1013762D+01 0.1553962D+02 0.3599934D+01 0.1013762D+01
EXPONENTS  0.1553962D+02 0.3599934D+01 0.1013762D+01 0.1553962D+02 0.3599934D+01
EXPONENTS  0.1013762D+01 0.2700058D+00 0.2700058D+00 0.2700058D+00 0.2700058D+00
EXPONENTS  0.8000000D+00 0.8000000D+00 0.8000000D+00 0.8000000D+00 0.8000000D+00
EXPONENTS  0.8000000D+00 0.3047525D+04 0.4573695D+03 0.1039487D+03 0.2921016D+02
EXPONENTS  0.9286663D+01 0.3163927D+01 0.7868272D+01 0.1881289D+01 0.5442493D+00
EXPONENTS  0.7868272D+01 0.1881289D+01 0.5442493D+00 0.7868272D+01 0.1881289D+01
EXPONENTS  0.5442493D+00 0.7868272D+01 0.1881289D+01 0.5442493D+00 0.1687145D+00
EXPONENTS  0.1687145D+00 0.1687145D+00 0.1687145D+00 0.8000000D+00 0.8000000D+00
EXPONENTS  0.8000000D+00 0.8000000D+00 0.8000000D+00 0.8000000D+00 0.1873114D+02
EXPONENTS  0.2825394D+01 0.6401217D+00 0.1612778D+00 0.1873114D+02 0.2825394D+01
EXPONENTS  0.6401217D+00 0.1612778D+00 0.5484672D+04 0.8252349D+03 0.1880470D+03
EXPONENTS  0.5296450D+02 0.1689757D+02 0.5799635D+01 0.1553962D+02 0.3599934D+01
EXPONENTS  0.1013762D+01 0.1553962D+02 0.3599934D+01 0.1013762D+01 0.1553962D+02
EXPONENTS  0.3599934D+01 0.1013762D+01 0.1553962D+02 0.3599934D+01 0.1013762D+01
EXPONENTS  0.2700058D+00 0.2700058D+00 0.2700058D+00 0.2700058D+00 0.8000000D+00
EXPONENTS  0.8000000D+00 0.8000000D+00 0.8000000D+00 0.8000000D+00 0.8000000D+00
EXPONENTS  0.1873114D+02 0.2825394D+01 0.6401217D+00 0.1612778D+00 0.1873114D+02
EXPONENTS  0.2825394D+01 0.6401217D+00 0.1612778D+00
MO    1     MO 0.0        OCC NO =    2.0000000  ORB. ENERGY =  -19.417192
 -0.21919231D-04 -0.40436702D-04 -0.65277375D-04 -0.84971746D-04 -0.72506545D-04
 -0.25034768D-04 -0.94610615D-04 -0.43605946D-04  0.12227562D-03  0.33836763D-03
  0.25943884D-03  0.12947816D-03  0.43173779D-03  0.33102916D-03  0.16520675D-03
 -0.26893549D-08 -0.20620268D-08 -0.10290959D-08 -0.14813468D-03 -0.46905164D-03
 -0.50832662D-03  0.57833901D-08 -0.19739010D-04 -0.18627922D-03 -0.94707978D-04
 -0.55199224D-04 -0.24151196D-08  0.28229560D-08  0.14567159D-04  0.26873564D-04
  0.43382264D-04  0.56470818D-04  0.48186652D-04  0.16637693D-04 -0.93888262D-04
 -0.43273014D-04  0.12134205D-03 -0.75510804D-04 -0.57896895D-04 -0.28894609D-04
 -0.56784832D-04 -0.43539007D-04 -0.21729016D-04  0.38884969D-08  0.29814528D-08
  0.14879539D-08 -0.60221651D-03 -0.75212436D-04  0.29153728D-03  0.12432983D-07
 -0.90578963D-04 -0.70760741D-04  0.61167192D-04 -0.83699727D-04  0.54106212D-08
 -0.34713632D-08 -0.28463849D-05 -0.52510243D-05 -0.84767814D-05 -0.11034251D-04
 -0.94155462D-05 -0.32509618D-05  0.19493290D-04  0.89844397D-05 -0.25193307D-04
  0.75352964D-04  0.57775874D-04  0.28834210D-04  0.51861836D-04  0.39764366D-04
  0.19845206D-04  0.15679571D-08  0.12022101D-08  0.59998708D-09  0.30622399D-03
  0.53059619D-04  0.14885404D-03  0.82510391D-08  0.51613870D-05  0.49447996D-04
 -0.57903146D-07  0.79150718D-04 -0.26588732D-08  0.55752734D-08  0.31694164D-05
  0.58469544D-05  0.94387973D-05  0.12286510D-04  0.10484101D-04  0.36199081D-05
 -0.10010609D-04 -0.46138804D-05  0.12937802D-04  0.29091288D-04  0.22305355D-04
  0.11131935D-04  0.24696922D-04  0.18936033D-04  0.94504078D-05  0.34106033D-08
  0.26150343D-08  0.13050854D-08 -0.27214830D-04 -0.69604000D-04 -0.56651998D-05
  0.69689160D-09 -0.97215974D-05  0.12150078D-04  0.20935491D-04  0.22343063D-04
  0.69275854D-08 -0.20268335D-08  0.92192527D-05  0.17007721D-04  0.27455735D-04
  0.35739209D-04  0.30496332D-04  0.10529651D-04 -0.29035130D-04 -0.13382265D-04
  0.37525267D-04  0.12772652D-05  0.97932595D-06  0.48875229D-06  0.82192329D-04
  0.63019865D-04  0.31451329D-04  0.69367827D-08  0.53186850D-08  0.26543966D-08
  0.10900795D-03 -0.34188553D-04 -0.17638148D-04  0.11312935D-08  0.33963990D-04
 -0.39339437D-05  0.56431297D-04 -0.35630715D-06  0.46887769D-09 -0.35564033D-08
  0.10743437D-04  0.19819543D-04  0.31994889D-04  0.41647838D-04  0.35538176D-04
  0.12270478D-04 -0.57012650D-04 -0.26277078D-04  0.73683670D-04  0.68603299D-04
  0.52600659D-04  0.26251415D-04  0.17795325D-04  0.13644327D-04  0.68094753D-05
 -0.32750079D-08 -0.25110684D-08 -0.12531991D-08  0.44375185D-05  0.22938434D-03
  0.30300215D-04 -0.75598975D-08 -0.24806955D-05 -0.98023121D-05  0.33746021D-04
  0.56702947D-04  0.74910333D-08 -0.30428406D-08 -0.20112800D-04 -0.34115116D-04
 -0.38838854D-04 -0.57995455D-04 -0.36634797D-05 -0.62139550D-05 -0.70743681D-05
 -0.17798712D-04 -0.11763790D-05 -0.19953614D-05 -0.22716485D-05 -0.19544089D-04
  0.56676496D-06  0.10431501D-05  0.16880138D-05  0.22189413D-05  0.19031731D-05
  0.65072720D-06 -0.15250622D-03 -0.68047976D-04  0.20094659D-03 -0.72066598D-04
 -0.55523428D-04 -0.24377776D-04  0.15636795D-03  0.12047307D-03  0.52894169D-04
 -0.58119956D-09 -0.44778293D-09 -0.19660082D-09 -0.42460384D-03  0.10271931D-03
 -0.16897729D-04 -0.34111017D-09  0.18057276D-03  0.22885038D-03  0.23489799D-03
  0.86180760D-05 -0.35971958D-10  0.24694884D-08  0.82563454D+00  0.15196083D+01
  0.24590131D+01  0.32324415D+01  0.27724463D+01  0.94794648D+00 -0.15803459D-01
 -0.70514725D-02  0.20823093D-01 -0.34560485D-02 -0.26626991D-02 -0.11690683D-02
 -0.40287192D-04 -0.31039109D-04 -0.13627841D-04  0.92372403D-07  0.71167957D-07
  0.31246566D-07  0.38513656D-02 -0.11666982D-03 -0.35415510D-03  0.29034278D-09
 -0.92596264D-02 -0.91147534D-02 -0.91989297D-02  0.15257793D-03  0.50452179D-08
 -0.35343999D-08  0.56448787D-05  0.10413699D-04  0.16810939D-04  0.21882848D-04
  0.18672673D-04  0.64472254D-05 -0.20522982D-04 -0.94590235D-05  0.26524089D-04
 -0.11249102D-04 -0.86250975D-05 -0.43045282D-05 -0.36371215D-05 -0.27887141D-05
 -0.13917638D-05  0.43971652D-08  0.33714674D-08  0.16825985D-08 -0.49818419D-04
 -0.12380950D-04 -0.26423495D-04 -0.70499594D-08 -0.69837988D-05  0.16898761D-04
  0.23668192D-04 -0.38163292D-04 -0.24444852D-08  0.18232498D-07  0.24358259D-05
  0.41316217D-05  0.47037052D-05  0.85289430D-07  0.24395368D-05  0.41379162D-05
  0.47108714D-05  0.99107497D-07 -0.24316945D-05 -0.44756159D-05 -0.72423914D-05
 -0.95203263D-05 -0.81655285D-05 -0.27919329D-05  0.25852143D-05  0.11535176D-05
 -0.34063529D-05  0.55224276D-04  0.42547328D-04  0.18680569D-04  0.70237378D-05
  0.54114114D-05  0.23759011D-05 -0.16008758D-07 -0.12333885D-07 -0.54152400D-08
  0.24680165D-04 -0.19280672D-04 -0.98910239D-05  0.12194925D-07 -0.39408636D-05
  0.94900820D-06  0.10592515D-04  0.99166433D-05 -0.95027598D-08 -0.20808796D-08
 -0.59999352D-05 -0.10177026D-04 -0.11586184D-04 -0.36173772D-05  0.89924999D-04
  0.15252982D-03  0.17364981D-03 -0.18770601D-03
MO    2     MO 0.0        OCC NO =    2.0000000  ORB. ENERGY =  -19.364873
  0.27180698D-04  0.50143080D-04  0.80946479D-04  0.10536826D-03  0.89910931D-04
  0.31044084D-04 -0.11034127D-03 -0.50856189D-04  0.14260606D-03 -0.30962356D-04
 -0.23739971D-04 -0.11847909D-04  0.58667718D-04  0.44982685D-04  0.22449512D-04
  0.65389904D-08  0.50136831D-08  0.25021792D-08 -0.63980373D-03  0.37455599D-03
  0.50003623D-03  0.20273450D-08 -0.11780351D-04  0.79402473D-04  0.77358504D-04
  0.10953575D-03  0.90595749D-08 -0.86112924D-08 -0.44766176D-05 -0.82584854D-05
 -0.13331756D-04 -0.17353985D-04 -0.14808187D-04 -0.51129111D-05  0.29954521D-04
  0.13806011D-04 -0.38713496D-04  0.11728097D-03  0.89923613D-04  0.44878185D-04
 -0.17639257D-04 -0.13524664D-04 -0.67497551D-05 -0.66983592D-08 -0.51358770D-08
 -0.25631626D-08  0.62846008D-03  0.16355689D-03 -0.24240117D-03 -0.15869624D-07
  0.45107511D-04  0.21850296D-04  0.55902759D-05  0.11499152D-04 -0.27498503D-08
  0.34468052D-10  0.11123725D-04  0.20521100D-04  0.33127419D-04  0.43122056D-04
  0.36796129D-04  0.12704819D-04 -0.45388220D-04 -0.20919389D-04  0.58660151D-04
  0.57841678D-04  0.44349330D-04  0.22133424D-04 -0.12187948D-04 -0.93449455D-05
 -0.46637827D-05 -0.17121771D-08 -0.13127888D-08 -0.65517362D-09 -0.37903873D-03
 -0.25938922D-03 -0.27010377D-04  0.66934697D-08  0.30055488D-04 -0.50805291D-04
  0.48713330D-04 -0.10814414D-04 -0.43410773D-08 -0.64854942D-08 -0.33908788D-05
 -0.62555093D-05 -0.10098332D-04 -0.13145027D-04 -0.11216676D-04 -0.38728485D-05
  0.24694872D-04  0.11381844D-04 -0.31915879D-04  0.12198139D-03  0.93527596D-04
  0.46676825D-04  0.21396296D-04  0.16405323D-04  0.81874058D-05 -0.85659865D-08
 -0.65678552D-08 -0.32778200D-08  0.55217005D-03  0.16065908D-03  0.16480563D-03
  0.21870335D-08  0.61620370D-04  0.89142910D-05  0.97724071D-05 -0.50873902D-04
 -0.11066901D-07 -0.49933877D-08  0.14082826D-04  0.25980064D-04  0.41939879D-04
  0.54593262D-04  0.46584529D-04  0.16084518D-04 -0.87270628D-04 -0.40222953D-04
  0.11278936D-03 -0.76337122D-04 -0.58530463D-04 -0.29210803D-04 -0.22915184D-04
 -0.17569910D-04 -0.87686164D-05  0.96243418D-08  0.73793348D-08  0.36828053D-08
 -0.71712372D-03  0.29717899D-03 -0.36357791D-03 -0.39553558D-07 -0.94901302D-04
 -0.30049629D-04  0.50954244D-04 -0.25009523D-04  0.11081054D-07 -0.42514084D-08
 -0.45986493D-04 -0.84836099D-04 -0.13695177D-03 -0.17827051D-03 -0.15211855D-03
 -0.52522880D-04 -0.71855840D-04 -0.33118291D-04  0.92867144D-04  0.13843049D-03
  0.10613972D-03  0.52971158D-04  0.13353884D-04  0.10238911D-04  0.51099344D-05
 -0.54708827D-08 -0.41947258D-08 -0.20934622D-08 -0.93826791D-04 -0.11775898D-02
 -0.33506426D-04  0.34662158D-07 -0.10474656D-02 -0.12790179D-03 -0.19930552D-03
 -0.20595267D-04  0.39534632D-07  0.62129135D-08  0.12070432D-04  0.20473738D-04
  0.23308627D-04  0.75848093D-04  0.67968546D-05  0.11528752D-04  0.13125077D-04
  0.46850934D-04 -0.22393042D-04 -0.37982838D-04 -0.43242118D-04 -0.16441212D-03
  0.82562882D+00  0.15195978D+01  0.24589960D+01  0.32324191D+01  0.27724271D+01
  0.94793990D+00 -0.15526852D-01 -0.69280513D-02  0.20458628D-01 -0.35742054D-02
 -0.27537326D-02 -0.12090369D-02 -0.90663768D-05 -0.69851545D-05 -0.30668591D-05
  0.98501096D-07  0.75889784D-07  0.33319703D-07  0.45458427D-02 -0.64864679D-03
 -0.14574337D-04  0.11570774D-07 -0.87197360D-02 -0.93667258D-02 -0.93447953D-02
  0.21930933D-04 -0.24585320D-07 -0.21484903D-08  0.11824214D-03  0.21762865D-03
  0.35216423D-03  0.46292974D-03  0.39705215D-03  0.13575887D-03 -0.21176818D-03
 -0.94490550D-04  0.27903186D-03  0.46917788D-04  0.36147626D-04  0.15870755D-04
 -0.15862168D-03 -0.12220945D-03 -0.53656532D-04  0.74353810D-08  0.57285603D-08
  0.25151465D-08 -0.62774095D-03  0.87091460D-04  0.16820576D-03 -0.60788064D-08
  0.24318083D-03  0.22065680D-03  0.25756200D-03 -0.10667475D-03  0.19682316D-08
  0.92682907D-08  0.19627580D-05  0.36209052D-05  0.58452638D-05  0.76087967D-05
  0.64926000D-05  0.22417387D-05 -0.11817477D-04 -0.54466644D-05  0.15273016D-04
 -0.29825203D-04 -0.22868074D-04 -0.11412772D-04 -0.56534296D-05 -0.43346913D-05
 -0.21633147D-05 -0.65358732D-09 -0.50112930D-09 -0.25009864D-09 -0.13391564D-03
 -0.38368906D-04 -0.84095165D-05  0.16919850D-07 -0.12928878D-04 -0.74995334D-05
  0.57658817D-05  0.74435066D-05  0.75672129D-08  0.99332782D-08  0.19217900D-05
  0.32597196D-05  0.37110755D-05  0.24943675D-05  0.19202642D-05  0.32571315D-05
  0.37081291D-05  0.24837252D-05 -0.19243070D-05 -0.35417522D-05 -0.57312236D-05
 -0.75338538D-05 -0.64617426D-05 -0.22093795D-05  0.16784170D-04  0.74890641D-05
 -0.22115307D-04 -0.14078718D-04 -0.10846893D-04 -0.47623702D-05  0.41752875D-05
  0.32168339D-05  0.14123634D-05 -0.15930261D-08 -0.12273407D-08 -0.53886868D-09
  0.40754211D-04  0.10612666D-04 -0.11927757D-04  0.33196377D-08 -0.20462163D-04
 -0.14734279D-04 -0.21719395D-04 -0.97543022D-05  0.11572449D-07 -0.18813615D-08
  0.25494783D-06  0.43243977D-06  0.49231739D-06 -0.21371497D-05  0.41414896D-05
  0.70247502D-05  0.79974298D-05 -0.31280389D-04
MO    3     MO 0.0        OCC NO =    2.0000000  ORB. ENERGY =  -19.321871
  0.84409301D-05  0.15571868D-04  0.25137823D-04  0.32721976D-04  0.27921722D-04
  0.96406995D-05 -0.39754171D-04 -0.18322661D-04  0.51378654D-04 -0.18150214D-04
 -0.13916433D-04 -0.69452752D-05  0.47695968D-04  0.36570243D-04  0.18251114D-04
  0.41440080D-07  0.31773625D-07  0.15857266D-07 -0.37034031D-03  0.37158482D-03
 -0.16950173D-03 -0.49673207D-07 -0.74912932D-04  0.18655396D-04  0.41599658D-04
 -0.16312120D-04  0.26841063D-07 -0.55367979D-08 -0.75861967D-05 -0.13995052D-04
 -0.22592353D-04 -0.29408530D-04 -0.25094352D-04 -0.86644768D-05  0.32568527D-04
  0.15010804D-04 -0.42091862D-04 -0.13307785D-03 -0.10203566D-03 -0.50922945D-04
 -0.79351568D-04 -0.60841749D-04 -0.30364297D-04 -0.99597650D-07 -0.76365161D-07
 -0.38111567D-07  0.33721194D-03  0.41901507D-03  0.20919114D-03  0.35052610D-07
  0.10410503D-03 -0.97467039D-04 -0.73923181D-05 -0.66607188D-04 -0.39620028D-07
 -0.50270726D-08 -0.17502893D-04 -0.32289421D-04 -0.52125137D-04 -0.67851440D-04
 -0.57897757D-04 -0.19990704D-04  0.40545940D-04  0.18687587D-04 -0.52401944D-04
  0.50373803D-04  0.38623437D-04  0.19275802D-04  0.37823772D-04  0.29000869D-04
  0.14473466D-04 -0.23121130D-07 -0.17727816D-07 -0.88474227D-08  0.53674543D-03
 -0.17549683D-03  0.16704967D-03  0.46367496D-08 -0.36159671D-04 -0.48585668D-04
 -0.67830416D-04  0.11410116D-03 -0.42467618D-07  0.74843602D-07  0.35118093D-05
  0.64786025D-05  0.10458473D-04  0.13613825D-04  0.11616701D-04  0.40109678D-05
 -0.86815784D-05 -0.40013316D-05  0.11220151D-04 -0.21400804D-04 -0.16408779D-04
 -0.81891308D-05  0.35000492D-04  0.26836158D-04  0.13393123D-04  0.45308342D-07
  0.34739563D-07  0.17337476D-07  0.46703132D-04  0.26929732D-04  0.20838398D-04
 -0.10951253D-07  0.52681010D-05  0.31618948D-04  0.14749134D-04  0.17033793D-04
 -0.40850272D-08  0.91525287D-08  0.11276551D-05  0.20803035D-05  0.33582549D-05
  0.43714501D-05  0.37301663D-05  0.12879368D-05 -0.76428447D-05 -0.35225802D-05
  0.98776825D-05  0.12505505D-04  0.95884278D-05  0.47852975D-05 -0.25910305D-04
 -0.19866378D-04 -0.99147150D-05 -0.61238552D-08 -0.46953838D-08 -0.23433256D-08
 -0.13754080D-03 -0.38507342D-04 -0.23733170D-04  0.22388204D-08 -0.71821581D-05
 -0.73179869D-05  0.37237802D-05 -0.15368515D-04 -0.15430611D-07 -0.72899046D-08
  0.36091186D-06  0.66581191D-06  0.10748269D-05  0.13991052D-05  0.11938590D-05
  0.41221083D-06 -0.97626191D-05 -0.44995822D-05  0.12617298D-04  0.29302490D-04
  0.22467291D-04  0.11212753D-04  0.18979893D-04  0.14552578D-04  0.72627564D-05
 -0.62402185D-08 -0.47846037D-08 -0.23878526D-08 -0.16768627D-03 -0.50813647D-04
 -0.17611481D-03  0.35328907D-08 -0.16224182D-04 -0.32485118D-04  0.68212448D-05
  0.11998490D-04 -0.11639740D-08  0.18897446D-07  0.31036745D-04  0.52644194D-04
  0.59933554D-04 -0.13445418D-03  0.69966473D-05  0.11867638D-04  0.13510886D-04
  0.32569094D-05  0.69619338D-05  0.11808757D-04  0.13443853D-04  0.97275321D-05
 -0.89413300D-05 -0.16456820D-04 -0.26630242D-04 -0.35006198D-04 -0.30024613D-04
 -0.10265925D-04  0.20720986D-04  0.92456637D-05 -0.27302569D-04 -0.22631950D-04
 -0.17436697D-04 -0.76556492D-05 -0.43682480D-05 -0.33654996D-05 -0.14776356D-05
  0.81283022D-08  0.62624186D-08  0.27495391D-08  0.10266121D-03 -0.25606673D-04
  0.29086435D-04 -0.30465788D-08 -0.12785323D-04 -0.40065786D-04  0.32877952D-05
 -0.28478538D-04  0.65568633D-08  0.15445213D-08 -0.23174884D-05 -0.42654158D-05
 -0.69022480D-05 -0.90731982D-05 -0.77820293D-05 -0.26608080D-05  0.21919312D-04
  0.97803545D-05 -0.28881518D-04  0.34753119D-04  0.26775404D-04  0.11755845D-04
 -0.32837083D-04 -0.25299202D-04 -0.11107713D-04 -0.30373872D-07 -0.23401431D-07
 -0.10274489D-07  0.60808606D-04 -0.85431190D-04  0.24962296D-04  0.18801751D-07
  0.30804805D-04 -0.46937261D-04 -0.13988089D-04  0.46448569D-04 -0.11339412D-07
 -0.27125195D-07  0.12434277D-04  0.22938813D-04  0.37030356D-04  0.48202521D-04
  0.41131299D-04  0.14201649D-04 -0.15093754D-03 -0.69566972D-04  0.19507305D-03
 -0.16700966D-03 -0.12805242D-03 -0.63907131D-04  0.37349525D-03  0.28637247D-03
  0.14291993D-03 -0.23431512D-06 -0.17965797D-06 -0.89661918D-07 -0.63734138D-03
 -0.94828478D-04 -0.20117216D-03  0.13494905D-06  0.20002372D-04  0.24265967D-03
  0.34009521D-04 -0.26599769D-03  0.11517629D-06 -0.16268925D-06  0.20478090D-04
  0.34734717D-04  0.39544248D-04  0.19449598D-05  0.20472855D-04  0.34725837D-04
  0.39534138D-04  0.18849203D-05  0.82568098D+00  0.15196938D+01  0.24591514D+01
  0.32326233D+01  0.27726023D+01  0.94799980D+00 -0.15981165D-01 -0.71307645D-02
  0.21057243D-01 -0.21171198D-02 -0.16311266D-02 -0.71615245D-03 -0.26382042D-02
 -0.20325941D-02 -0.89241829D-03  0.16168297D-05  0.12456801D-05  0.54692067D-06
  0.32757623D-02  0.20176324D-03 -0.10186659D-03  0.48443513D-07 -0.90742132D-02
 -0.91102154D-02 -0.90449446D-02 -0.12190729D-04  0.11025477D-06  0.10350495D-06
  0.11001036D-03  0.18659839D-03  0.21243567D-03 -0.19587904D-03 -0.11532465D-04
 -0.19561244D-04 -0.22269785D-04  0.25663864D-05
MO    4     MO 0.0        OCC NO =    2.0000000  ORB. ENERGY =  -10.501744
  0.53256070D+00  0.98247051D+00  0.15860120D+01  0.20645164D+01  0.17616556D+01
  0.60825734D+00 -0.19712053D-01 -0.90852671D-02  0.25476037D-01  0.61977787D-03
  0.47520636D-03  0.23716128D-03  0.81907993D-03  0.62801854D-03  0.31342527D-03
 -0.22629513D-08 -0.17350875D-08 -0.86593028D-09 -0.35581927D-02  0.88706435D-03
  0.14681493D-02  0.12203566D-07 -0.97958376D-02 -0.94948021D-02 -0.10424728D-01
  0.83220508D-03 -0.43009315D-07 -0.55098228D-08  0.13908048D-02  0.25657632D-02
  0.41419374D-02  0.53915717D-02  0.46006379D-02  0.15884897D-02  0.31157140D-03
  0.14360297D-03 -0.40267773D-03 -0.42511200D-03 -0.32594892D-03 -0.16267136D-03
  0.13431161D-03  0.10298163D-03  0.51395049D-04  0.22517489D-07  0.17264982D-07
  0.86164362D-08  0.23971379D-02  0.69994246D-03 -0.89159650D-03 -0.62698915D-07
 -0.39375740D-03 -0.28692833D-03 -0.36691599D-03 -0.22063985D-03 -0.42252418D-08
  0.95175957D-08  0.44402325D-04  0.81913619D-04  0.13223398D-03  0.17212935D-03
  0.14687829D-03  0.50713543D-04 -0.60505246D-04 -0.27886812D-04  0.78197533D-04
 -0.13786856D-03 -0.10570887D-03 -0.52756135D-04 -0.61179474D-04 -0.46908540D-04
 -0.23410649D-04  0.26458658D-08  0.20286821D-08  0.10124545D-08 -0.11968773D-02
 -0.43701352D-03 -0.20247530D-03 -0.50398048D-08  0.28137942D-04  0.54226274D-04
  0.20435834D-04 -0.12254156D-04  0.11956308D-07  0.45399549D-08 -0.46289710D-04
 -0.85395477D-04 -0.13785478D-03 -0.17944596D-03 -0.15312156D-03 -0.52869196D-04
  0.11741552D-03  0.54116704D-04 -0.15174889D-03 -0.42292701D-04 -0.32427360D-04
 -0.16183526D-04 -0.79398497D-04 -0.60877731D-04 -0.30382255D-04 -0.87867395D-08
 -0.67371145D-08 -0.33622923D-08  0.85238147D-03  0.32402665D-03  0.31799083D-03
  0.68450950D-08  0.16792911D-04 -0.37891764D-04 -0.12959523D-03 -0.30630144D-04
 -0.20067157D-07  0.26986503D-09  0.19979655D-05  0.36858561D-05  0.59501147D-05
  0.77452814D-05  0.66090626D-05  0.22819505D-05 -0.16286667D-04 -0.75065099D-05
  0.21049037D-04 -0.58556895D-04 -0.44897713D-04 -0.22407105D-04 -0.21080802D-03
 -0.16163422D-03 -0.80666805D-04 -0.27964652D-08 -0.21441522D-08 -0.10700822D-08
 -0.10384418D-02  0.31807193D-03 -0.32551759D-03 -0.40639040D-07  0.24163804D-04
  0.57554726D-04 -0.25496013D-04  0.47610684D-04  0.12091672D-07 -0.16494927D-08
  0.40604332D-02  0.74907064D-02  0.12092323D-01  0.15740611D-01  0.13431492D-01
  0.46375714D-02  0.14861294D-03  0.68495567D-04 -0.19206872D-03  0.16595457D-03
  0.12724344D-03  0.63503392D-04 -0.24290771D-03 -0.18624622D-03 -0.92949918D-04
 -0.16506927D-07 -0.12656464D-07 -0.63164628D-08  0.17180788D-02 -0.11011084D-02
  0.26753730D-03  0.51229402D-07 -0.38148896D-03 -0.74650905D-03 -0.44556762D-03
  0.11688354D-03  0.33747305D-08 -0.24393273D-07  0.38249604D-04  0.64878567D-04
  0.73861955D-04  0.33156413D-03  0.18249021D-04  0.30953794D-04  0.35239801D-04
  0.13148153D-03 -0.18302421D-04 -0.31044370D-04 -0.35342919D-04 -0.69560437D-04
 -0.88383295D-04 -0.16267244D-03 -0.26323472D-03 -0.34602941D-03 -0.29678741D-03
 -0.10147666D-03  0.30609161D-03  0.13657748D-03 -0.40331512D-03 -0.10411007D-04
 -0.80211199D-05 -0.35217037D-05  0.87008378D-04  0.67035264D-04  0.29432092D-04
  0.93111580D-08  0.71737453D-08  0.31496606D-08  0.91157328D-03 -0.15778203D-03
 -0.92803953D-04 -0.49134324D-08 -0.25717767D-03 -0.29729415D-03 -0.33804154D-03
  0.33018426D-04  0.45239973D-08  0.36575244D-08  0.10455094D-03  0.19242954D-03
  0.31138731D-03  0.40932734D-03  0.35107768D-03  0.12003942D-03 -0.66262380D-03
 -0.29566145D-03  0.87309222D-03  0.78285359D-04  0.60314649D-04  0.26481380D-04
  0.46666987D-04  0.35954398D-04  0.15785917D-04  0.19576503D-07  0.15082640D-07
  0.66220914D-08 -0.16549565D-02  0.41489495D-03  0.67923687D-03 -0.15855177D-07
  0.44195321D-03 -0.19170330D-03  0.94919485D-03 -0.10447819D-02  0.30734804D-07
  0.18898833D-07 -0.26773229D-04 -0.49391379D-04 -0.79733000D-04 -0.10378868D-03
 -0.88563065D-04 -0.30578698D-04  0.58260910D-04  0.26852400D-04 -0.75296932D-04
 -0.93240439D-05 -0.71490855D-05 -0.35678947D-05 -0.17126196D-04 -0.13131281D-04
 -0.65534295D-05 -0.73655670D-08 -0.56474496D-08 -0.28184731D-08  0.72396051D-05
  0.13761724D-04  0.26111245D-04  0.36571195D-07  0.45085541D-05 -0.80024288D-04
 -0.68745277D-04  0.85941340D-04  0.45088088D-08 -0.88437001D-08 -0.58033745D-05
 -0.98436216D-05 -0.11206615D-04 -0.25003831D-05 -0.58129643D-05 -0.98598877D-05
 -0.11225134D-04 -0.25434282D-05 -0.81595504D-05 -0.15017929D-04 -0.24301843D-04
 -0.31945453D-04 -0.27399430D-04 -0.93683303D-05  0.26369338D-04  0.11765947D-04
 -0.34745000D-04 -0.14576506D-03 -0.11230412D-03 -0.49307558D-04  0.24080759D-04
  0.18552926D-04  0.81457340D-05  0.11783260D-07  0.90783664D-08  0.39858919D-08
  0.13889795D-04  0.59796257D-04 -0.75447713D-05 -0.12076031D-07 -0.10660557D-04
 -0.19145670D-04 -0.62220778D-04 -0.28155107D-04  0.41526288D-07 -0.22369517D-07
  0.11670059D-04  0.19794628D-04  0.22535485D-04  0.12287190D-04  0.42045518D-04
  0.71317156D-04  0.81192062D-04 -0.57893686D-04
MO    5     MO 0.0        OCC NO =    2.0000000  ORB. ENERGY =  -10.481990
 -0.43358304D-02 -0.79987605D-02 -0.12912480D-01 -0.16808212D-01 -0.14342478D-01
 -0.49521128D-02  0.46661497D-03  0.21506241D-03 -0.60305745D-03 -0.15263253D-03
 -0.11702895D-03 -0.58405646D-04  0.26839979D-03  0.20579193D-03  0.10270460D-03
  0.77665571D-08  0.59549034D-08  0.29719141D-08  0.24722371D-02 -0.52497276D-03
 -0.12916236D-02 -0.24538425D-07 -0.44227263D-03 -0.50872180D-03 -0.28549454D-03
  0.32970787D-03  0.20065530D-07 -0.22962832D-07  0.97139093D-05  0.17920266D-04
  0.28928865D-04  0.37656787D-04  0.32132605D-04  0.11094616D-04 -0.98674260D-04
 -0.45478876D-04  0.12752752D-03 -0.16137544D-03 -0.12373245D-03 -0.61751166D-04
  0.48087651D-04  0.36870561D-04  0.18400994D-04  0.55539558D-08  0.42584211D-08