 Entering Link 1 = D:\Gaussian\G16W\l1.exe PID=     34068.
  
 Copyright (c) 1988,1990,1992,1993,1995,1998,2003,2009,2016,
            Gaussian, Inc.  All Rights Reserved.
  
 This is part of the Gaussian(R) 16 program.  It is based on
 the Gaussian(R) 09 system (copyright 2009, Gaussian, Inc.),
 the Gaussian(R) 03 system (copyright 2003, Gaussian, Inc.),
 the Gaussian(R) 98 system (copyright 1998, Gaussian, Inc.),
 the Gaussian(R) 94 system (copyright 1995, Gaussian, Inc.),
 the Gaussian 92(TM) system (copyright 1992, Gaussian, Inc.),
 the Gaussian 90(TM) system (copyright 1990, Gaussian, Inc.),
 the Gaussian 88(TM) system (copyright 1988, Gaussian, Inc.),
 the Gaussian 86(TM) system (copyright 1986, Carnegie Mellon
 University), and the Gaussian 82(TM) system (copyright 1983,
 Carnegie Mellon University). Gaussian is a federally registered
 trademark of Gaussian, Inc.
  
 This software contains proprietary and confidential information,
 including trade secrets, belonging to Gaussian, Inc.
  
 This software is provided under written license and may be
 used, copied, transmitted, or stored only in accord with that
 written license.
  
 The following legend is applicable only to US Government
 contracts under FAR:
  
                    RESTRICTED RIGHTS LEGEND
  
 Use, reproduction and disclosure by the US Government is
 subject to restrictions as set forth in subparagraphs (a)
 and (c) of the Commercial Computer Software - Restricted
 Rights clause in FAR 52.227-19.
  
 Gaussian, Inc.
 340 Quinnipiac St., Bldg. 40, Wallingford CT 06492
  
  
 ---------------------------------------------------------------
 Warning -- This program may not be used in any manner that
 competes with the business of Gaussian, Inc. or will provide
 assistance to any competitor of Gaussian, Inc.  The licensee
 of this program is prohibited from giving any competitor of
 Gaussian, Inc. access to this program.  By using this program,
 the user acknowledges that Gaussian, Inc. is engaged in the
 business of creating and licensing software in the field of
 computational chemistry and represents and warrants to the
 licensee that it is not a competitor of Gaussian, Inc. and that
 it will not use this program in any manner prohibited above.
 ---------------------------------------------------------------
  

 Cite this work as:
 Gaussian 16, Revision A.03,
 M. J. Frisch, G. W. Trucks, H. B. Schlegel, G. E. Scuseria, 
 M. A. Robb, J. R. Cheeseman, G. Scalmani, V. Barone, 
 G. A. Petersson, H. Nakatsuji, X. Li, M. Caricato, A. V. Marenich, 
 J. Bloino, B. G. Janesko, R. Gomperts, B. Mennucci, H. P. Hratchian, 
 J. V. Ortiz, A. F. Izmaylov, J. L. Sonnenberg, D. Williams-Young, 
 F. Ding, F. Lipparini, F. Egidi, J. Goings, B. Peng, A. Petrone, 
 T. Henderson, D. Ranasinghe, V. G. Zakrzewski, J. Gao, N. Rega, 
 G. Zheng, W. Liang, M. Hada, M. Ehara, K. Toyota, R. Fukuda, 
 J. Hasegawa, M. Ishida, T. Nakajima, Y. Honda, O. Kitao, H. Nakai, 
 T. Vreven, K. Throssell, J. A. Montgomery, Jr., J. E. Peralta, 
 F. Ogliaro, M. J. Bearpark, J. J. Heyd, E. N. Brothers, K. N. Kudin, 
 V. N. Staroverov, T. A. Keith, R. Kobayashi, J. Normand, 
 K. Raghavachari, A. P. Rendell, J. C. Burant, S. S. Iyengar, 
 J. Tomasi, M. Cossi, J. M. Millam, M. Klene, C. Adamo, R. Cammi, 
 J. W. Ochterski, R. L. Martin, K. Morokuma, O. Farkas, 
 J. B. Foresman, and D. J. Fox, Gaussian, Inc., Wallingford CT, 2016.
 
 ******************************************
 Gaussian 16:  EM64W-G16RevA.03 17-Dec-2016
                08-Dec-2025 
 ******************************************
 %nprocshared=14
 Will use up to   14 processors via shared memory.
 %nprocs=   4
 Will use up to    4 processors via shared memory.
 --------------------------------------
 #p b3lyp/6-31g(d) out=wfn scf=conver=7
 --------------------------------------
 1/38=1,172=1/1;
 2/12=2,17=6,18=5,40=1/2;
 3/5=1,6=6,7=1,11=2,25=1,30=1,74=-5/1,2,3;
 4//1;
 5/5=2,6=7,38=5/2;
 6/7=2,8=2,9=2,10=2,28=1/1;
 99/5=1,6=100,9=1/99;
 Leave Link    1 at Mon Dec 08 16:28:41 2025, MaxMem=           0 cpu:               0.0 elap:               0.2
 (Enter D:\Gaussian\G16W\l101.exe)
 ----------------------------------------------------
 Generated by Multiwfn (http://sobereva.com/multiwfn)
 ----------------------------------------------------
 Symbolic Z-matrix:
 Charge =  0 Multiplicity = 2
 C                     0.99253   0.82691   0.00005 
 C                    -0.39582   0.79981   0.0001 
 C                    -1.08086  -0.41355   0.00007 
 C                    -0.35829  -1.63547  -0.00001 
 C                     1.00883  -1.6391   -0.00007 
 C                     1.78164  -0.41131  -0.00003 
 H                    -0.96569   1.72267   0.00017 
 H                    -0.90531  -2.5736   -0.00007 
 H                     1.57971  -2.56002  -0.00019 
 O                     3.02519  -0.3954   -0.00006 
 O                     1.70397   1.96789   0.00004 
 C                    -2.58556  -0.45426   0.00022 
 H                    -2.92126  -1.0166   -0.88493 
 H                    -2.92111  -1.01576   0.88596 
 O                    -3.11274   0.86273  -0.00033 
 H                    -4.07175   0.80392  -0.00014 
 H                     1.09924   2.7195    0.00005 
 
 ITRead=  0  0  0  0  0  0  0  0  0  0  0  0  0  0  0  0  0
 MicOpt= -1 -1 -1 -1 -1 -1 -1 -1 -1 -1 -1 -1 -1 -1 -1 -1 -1
 NAtoms=     17 NQM=       17 NQMF=       0 NMMI=      0 NMMIF=      0
                NMic=       0 NMicF=      0.
                    Isotopes and Nuclear Properties:
 (Nuclear quadrupole moments (NQMom) in fm**2, nuclear magnetic moments (NMagM)
  in nuclear magnetons)

  Atom         1           2           3           4           5           6           7           8           9          10
 IAtWgt=          12          12          12          12          12          12           1           1           1          16
 AtmWgt=  12.0000000  12.0000000  12.0000000  12.0000000  12.0000000  12.0000000   1.0078250   1.0078250   1.0078250  15.9949146
 NucSpn=           0           0           0           0           0           0           1           1           1           0
 AtZEff=   0.0000000   0.0000000   0.0000000   0.0000000   0.0000000   0.0000000   0.0000000   0.0000000   0.0000000   0.0000000
 NQMom=    0.0000000   0.0000000   0.0000000   0.0000000   0.0000000   0.0000000   0.0000000   0.0000000   0.0000000   0.0000000
 NMagM=    0.0000000   0.0000000   0.0000000   0.0000000   0.0000000   0.0000000   2.7928460   2.7928460   2.7928460   0.0000000
 AtZNuc=   6.0000000   6.0000000   6.0000000   6.0000000   6.0000000   6.0000000   1.0000000   1.0000000   1.0000000   8.0000000

  Atom        11          12          13          14          15          16          17
 IAtWgt=          16          12           1           1          16           1           1
 AtmWgt=  15.9949146  12.0000000   1.0078250   1.0078250  15.9949146   1.0078250   1.0078250
 NucSpn=           0           0           1           1           0           1           1
 AtZEff=   0.0000000   0.0000000   0.0000000   0.0000000   0.0000000   0.0000000   0.0000000
 NQMom=    0.0000000   0.0000000   0.0000000   0.0000000   0.0000000   0.0000000   0.0000000
 NMagM=    0.0000000   0.0000000   2.7928460   2.7928460   0.0000000   2.7928460   2.7928460
 AtZNuc=   8.0000000   6.0000000   1.0000000   1.0000000   8.0000000   1.0000000   1.0000000
 Leave Link  101 at Mon Dec 08 16:28:41 2025, MaxMem=   104857600 cpu:               0.0 elap:               0.1
 (Enter D:\Gaussian\G16W\l202.exe)
                          Input orientation:                          
 ---------------------------------------------------------------------
 Center     Atomic      Atomic             Coordinates (Angstroms)
 Number     Number       Type             X           Y           Z
 ---------------------------------------------------------------------
      1          6           0        0.992533    0.826911    0.000047
      2          6           0       -0.395817    0.799809    0.000101
      3          6           0       -1.080859   -0.413553    0.000072
      4          6           0       -0.358288   -1.635474   -0.000005
      5          6           0        1.008826   -1.639096   -0.000073
      6          6           0        1.781638   -0.411315   -0.000031
      7          1           0       -0.965692    1.722665    0.000173
      8          1           0       -0.905308   -2.573603   -0.000071
      9          1           0        1.579715   -2.560018   -0.000189
     10          8           0        3.025190   -0.395396   -0.000061
     11          8           0        1.703973    1.967894    0.000038
     12          6           0       -2.585564   -0.454264    0.000216
     13          1           0       -2.921263   -1.016603   -0.884926
     14          1           0       -2.921106   -1.015759    0.885958
     15          8           0       -3.112743    0.862725   -0.000327
     16          1           0       -4.071753    0.803920   -0.000141
     17          1           0        1.099240    2.719504    0.000047
 ---------------------------------------------------------------------
                    Distance matrix (angstroms):
                    1          2          3          4          5
     1  C    0.000000
     2  C    1.388614   0.000000
     3  C    2.416134   1.393388   0.000000
     4  C    2.808569   2.435572   1.419577   0.000000
     5  C    2.466061   2.814477   2.422548   1.367119   0.000000
     6  C    1.468295   2.491612   2.862498   2.465329   1.450753
     7  H    2.153374   1.084629   2.139320   3.412629   3.898738
     8  H    3.894264   3.411670   2.167172   1.085964   2.130073
     9  H    3.437451   3.897584   3.418474   2.147239   1.083518
    10  O    2.371862   3.623783   4.106089   3.603570   2.369074
    11  O    1.344615   2.402819   3.664230   4.151768   3.673364
    12  C    3.800551   2.523428   1.505256   2.521114   3.784636
    13  H    4.415826   3.234270   2.129314   2.781174   4.076280
    14  H    4.415523   3.233901   2.129309   2.781549   4.076514
    15  O    4.105432   2.717654   2.399466   3.718605   4.821456
    16  H    5.064338   3.675938   3.229193   4.443024   5.637429
    17  H    1.895599   2.433192   3.816920   4.592409   4.359538
                    6          7          8          9         10
     6  C    0.000000
     7  H    3.478749   0.000000
     8  H    3.448937   4.296692   0.000000
     9  H    2.158170   4.982015   2.485060   0.000000
    10  O    1.243654   4.518110   4.493707   2.602880   0.000000
    11  O    2.380476   2.680904   5.237704   4.529617   2.707537
    12  C    4.367413   2.713486   2.704599   4.667306   5.611063
    13  H    4.823556   3.480122   2.696533   4.839803   6.043938
    14  H    4.823498   3.479544   2.697289   4.840184   6.043866
    15  O    5.057484   2.312861   4.084253   5.808126   6.265548
    16  H    5.978209   3.239091   4.629691   6.576866   7.197566
    17  H    3.204324   2.292953   5.659964   5.301340   3.662224
                   11         12         13         14         15
    11  O    0.000000
    12  C    4.926152   0.000000
    13  H    5.575230   1.101088   0.000000
    14  H    5.574800   1.101092   1.770884   0.000000
    15  O    4.941877   1.418583   2.085918   2.085888   0.000000
    16  H    5.891846   1.947251   2.328256   2.328173   0.960811
    17  H    0.964686   4.863187   5.559327   5.558796   4.603089
                   16         17
    16  H    0.000000
    17  H    5.514402   0.000000
 Stoichiometry    C7H7O3(2)
 Framework group  C1[X(C7H7O3)]
 Deg. of freedom    45
 Full point group                 C1      NOp   1
 Largest Abelian subgroup         C1      NOp   1
 Largest concise Abelian subgroup C1      NOp   1
                         Standard orientation:                         
 ---------------------------------------------------------------------
 Center     Atomic      Atomic             Coordinates (Angstroms)
 Number     Number       Type             X           Y           Z
 ---------------------------------------------------------------------
      1          6           0        0.992533    0.826911    0.000047
      2          6           0       -0.395817    0.799809    0.000101
      3          6           0       -1.080859   -0.413553    0.000072
      4          6           0       -0.358288   -1.635474   -0.000005
      5          6           0        1.008826   -1.639096   -0.000073
      6          6           0        1.781638   -0.411315   -0.000031
      7          1           0       -0.965692    1.722665    0.000173
      8          1           0       -0.905308   -2.573603   -0.000071
      9          1           0        1.579715   -2.560018   -0.000189
     10          8           0        3.025190   -0.395396   -0.000061
     11          8           0        1.703973    1.967894    0.000038
     12          6           0       -2.585564   -0.454264    0.000216
     13          1           0       -2.921263   -1.016603   -0.884926
     14          1           0       -2.921106   -1.015759    0.885958
     15          8           0       -3.112743    0.862725   -0.000327
     16          1           0       -4.071753    0.803920   -0.000141
     17          1           0        1.099240    2.719504    0.000047
 ---------------------------------------------------------------------
 Rotational constants (GHZ):           2.6442883           0.9222160           0.6866885
 Leave Link  202 at Mon Dec 08 16:28:42 2025, MaxMem=   104857600 cpu:               1.0 elap:               0.1
 (Enter D:\Gaussian\G16W\l301.exe)
 Standard basis: 6-31G(d) (6D, 7F)
 Ernie: Thresh=  0.10000D-02 Tol=  0.10000D-05 Strict=F.
 There are   164 symmetry adapted cartesian basis functions of A   symmetry.
 There are   164 symmetry adapted basis functions of A   symmetry.
   164 basis functions,   308 primitive gaussians,   164 cartesian basis functions
    37 alpha electrons       36 beta electrons
       nuclear repulsion energy       499.2044126331 Hartrees.
 IExCor=  402 DFT=T Ex+Corr=B3LYP ExCW=0 ScaHFX=  0.200000
 ScaDFX=  0.800000  0.720000  1.000000  0.810000 ScalE2=  1.000000  1.000000
 IRadAn=      5 IRanWt=     -1 IRanGd=            0 ICorTp=0 IEmpDi=  4
 NAtoms=   17 NActive=   17 NUniq=   17 SFac= 1.00D+00 NAtFMM=   60 NAOKFM=F Big=F
 Integral buffers will be    131072 words long.
 Raffenetti 2 integral format.
 Two-electron integral symmetry is turned on.
 Leave Link  301 at Mon Dec 08 16:28:42 2025, MaxMem=   104857600 cpu:               0.0 elap:               0.1
 (Enter D:\Gaussian\G16W\l302.exe)
 NPDir=0 NMtPBC=     1 NCelOv=     1 NCel=       1 NClECP=     1 NCelD=      1
         NCelK=      1 NCelE2=     1 NClLst=     1 CellRange=     0.0.
 One-electron integrals computed using PRISM.
 One-electron integral symmetry used in STVInt
 NBasis=   164 RedAO= T EigKep=  4.46D-04  NBF=   164
 NBsUse=   164 1.00D-06 EigRej= -1.00D+00 NBFU=   164
 Precomputing XC quadrature grid using
 IXCGrd= 4 IRadAn=           5 IRanWt=          -1 IRanGd=           0 AccXCQ= 0.00D+00.
 Generated NRdTot=       0 NPtTot=           0 NUsed=           0 NTot=          32
 NSgBfM=   163   163   163   163   163 MxSgAt=    17 MxSgA2=    17.
 Leave Link  302 at Mon Dec 08 16:28:42 2025, MaxMem=   104857600 cpu:               0.0 elap:               0.4
 (Enter D:\Gaussian\G16W\l303.exe)
 DipDrv:  MaxL=1.
 Leave Link  303 at Mon Dec 08 16:28:42 2025, MaxMem=   104857600 cpu:               0.0 elap:               0.1
 (Enter D:\Gaussian\G16W\l401.exe)
 ExpMin= 1.61D-01 ExpMax= 5.48D+03 ExpMxC= 8.25D+02 IAcc=3 IRadAn=         5 AccDes= 0.00D+00
 Harris functional with IExCor=  402 and IRadAn=       5 diagonalized for initial guess.
 HarFok:  IExCor=  402 AccDes= 0.00D+00 IRadAn=         5 IDoV= 1 UseB2=F ITyADJ=14
 ICtDFT=  3500011 ScaDFX=  1.000000  1.000000  1.000000  1.000000
 FoFCou: FMM=F IPFlag=           0 FMFlag=      100000 FMFlg1=           0
         NFxFlg=           0 DoJE=T BraDBF=F KetDBF=T FulRan=T
         wScrn=  0.000000 ICntrl=       500 IOpCl=  0 I1Cent=   200000004 NGrid=           0
         NMat0=    1 NMatS0=      1 NMatT0=    0 NMatD0=    1 NMtDS0=    0 NMtDT0=    0
 Petite list used in FoFCou.
 Harris En= -496.588099903100    
 JPrj=0 DoOrth=F DoCkMO=F.
 Initial guess <Sx>= 0.0000 <Sy>= 0.0000 <Sz>= 0.5000 <S**2>= 0.7500 S= 0.5000
 Leave Link  401 at Mon Dec 08 16:28:43 2025, MaxMem=   104857600 cpu:               1.0 elap:               1.0
 (Enter D:\Gaussian\G16W\l502.exe)
 Integral symmetry usage will be decided dynamically.
 UHF open shell SCF:
 Using DIIS extrapolation, IDIIS=  1040.
 NGot=   104857600 LenX=   104800923 LenY=   104773586
 Requested convergence on RMS density matrix=1.00D-07 within 128 cycles.
 Requested convergence on MAX density matrix=1.00D-05.
 Requested convergence on             energy=1.00D-05.
 No special actions if energy rises.
 Fock matrices will be formed incrementally for  20 cycles.
 Integral accuracy reduced to 1.0D-05 until final iterations.

 Cycle   1  Pass 0  IDiag  1:
 FoFJK:  IHMeth= 1 ICntrl=       0 DoSepK=F KAlg= 0 I1Cent=           0 FoldK=F
 IRaf= 930000000 NMat=       1 IRICut=       1 DoRegI=T DoRafI=F ISym2E= 0 IDoP0=0 IntGTp=1.
 FoFCou: FMM=F IPFlag=           0 FMFlag=      100000 FMFlg1=           0
         NFxFlg=           0 DoJE=F BraDBF=F KetDBF=F FulRan=T
         wScrn=  0.000000 ICntrl=         0 IOpCl=  1 I1Cent=           0 NGrid=           0
         NMat0=    1 NMatS0=      1 NMatT0=    0 NMatD0=    1 NMtDS0=    0 NMtDT0=    0
 Symmetry not used in FoFCou.
 E= -496.325186410376    
 DIIS: error= 3.40D-02 at cycle   1 NSaved=   1.
 NSaved= 1 IEnMin= 1 EnMin= -496.325186410376     IErMin= 1 ErrMin= 3.40D-02
 ErrMax= 3.40D-02  0.00D+00 EMaxC= 1.00D-01 BMatC= 1.06D+00 BMatP= 1.06D+00
 IDIUse=3 WtCom= 6.60D-01 WtEn= 3.40D-01
 Coeff-Com:  0.100D+01
 Coeff-En:   0.100D+01
 Coeff:      0.100D+01
 Gap=     0.176 Goal=   None    Shift=    0.000
 Gap=     0.115 Goal=   None    Shift=    0.000
 GapD=    0.115 DampG=1.000 DampE=0.500 DampFc=0.5000 IDamp=-1.
 Damping current iteration by 5.00D-01
 RMSDP=8.64D-03 MaxDP=2.54D-01              OVMax= 3.59D-01

 Cycle   2  Pass 0  IDiag  1:
 RMSU=  4.31D-03    CP:  9.88D-01
 E= -496.403558620456     Delta-E=       -0.078372210080 Rises=F Damp=T
 DIIS: error= 1.27D-02 at cycle   2 NSaved=   2.
 NSaved= 2 IEnMin= 2 EnMin= -496.403558620456     IErMin= 2 ErrMin= 1.27D-02
 ErrMax= 1.27D-02  0.00D+00 EMaxC= 1.00D-01 BMatC= 1.52D-01 BMatP= 1.06D+00
 IDIUse=3 WtCom= 8.73D-01 WtEn= 1.27D-01
 Coeff-Com:  0.190D+00 0.810D+00
 Coeff-En:   0.284D+00 0.716D+00
 Coeff:      0.201D+00 0.799D+00
 Gap=     0.316 Goal=   None    Shift=    0.000
 Gap=     0.143 Goal=   None    Shift=    0.000
 RMSDP=2.71D-03 MaxDP=8.19D-02 DE=-7.84D-02 OVMax= 2.21D-01

 Cycle   3  Pass 0  IDiag  1:
 RMSU=  2.27D-03    CP:  9.77D-01  6.65D-01
 E= -496.529571017832     Delta-E=       -0.126012397376 Rises=F Damp=F
 DIIS: error= 2.18D-02 at cycle   3 NSaved=   3.
 NSaved= 3 IEnMin= 3 EnMin= -496.529571017832     IErMin= 2 ErrMin= 1.27D-02
 ErrMax= 2.18D-02  0.00D+00 EMaxC= 1.00D-01 BMatC= 1.58D-01 BMatP= 1.52D-01
 IDIUse=3 WtCom= 7.82D-01 WtEn= 2.18D-01
 Coeff-Com:  0.485D-01 0.498D+00 0.454D+00
 Coeff-En:   0.000D+00 0.000D+00 0.100D+01
 Coeff:      0.379D-01 0.389D+00 0.573D+00
 Gap=     0.185 Goal=   None    Shift=    0.000
 Gap=     0.133 Goal=   None    Shift=    0.000
 RMSDP=2.13D-03 MaxDP=9.18D-02 DE=-1.26D-01 OVMax= 1.33D-01

 Cycle   4  Pass 0  IDiag  1:
 RMSU=  1.21D-03    CP:  9.83D-01  8.66D-01  3.36D-01
 E= -496.549198096875     Delta-E=       -0.019627079043 Rises=F Damp=F
 DIIS: error= 1.28D-02 at cycle   4 NSaved=   4.
 NSaved= 4 IEnMin= 4 EnMin= -496.549198096875     IErMin= 2 ErrMin= 1.27D-02
 ErrMax= 1.28D-02  0.00D+00 EMaxC= 1.00D-01 BMatC= 8.01D-02 BMatP= 1.52D-01
 IDIUse=3 WtCom= 8.72D-01 WtEn= 1.28D-01
 Coeff-Com:  0.196D-01 0.834D-01 0.401D+00 0.496D+00
 Coeff-En:   0.000D+00 0.000D+00 0.354D+00 0.646D+00
 Coeff:      0.171D-01 0.727D-01 0.395D+00 0.515D+00
 Gap=     0.193 Goal=   None    Shift=    0.000
 Gap=     0.120 Goal=   None    Shift=    0.000
 RMSDP=1.06D-03 MaxDP=3.93D-02 DE=-1.96D-02 OVMax= 5.77D-02

 Cycle   5  Pass 0  IDiag  1:
 RMSU=  3.80D-04    CP:  9.81D-01  7.46D-01  6.21D-01  5.48D-01
 E= -496.565654144594     Delta-E=       -0.016456047719 Rises=F Damp=F
 DIIS: error= 1.94D-03 at cycle   5 NSaved=   5.
 NSaved= 5 IEnMin= 5 EnMin= -496.565654144594     IErMin= 5 ErrMin= 1.94D-03
 ErrMax= 1.94D-03  0.00D+00 EMaxC= 1.00D-01 BMatC= 2.97D-03 BMatP= 8.01D-02
 IDIUse=3 WtCom= 9.81D-01 WtEn= 1.94D-02
 Coeff-Com:  0.710D-02-0.127D-01 0.180D+00 0.298D+00 0.528D+00
 Coeff-En:   0.000D+00 0.000D+00 0.000D+00 0.000D+00 0.100D+01
 Coeff:      0.697D-02-0.125D-01 0.176D+00 0.292D+00 0.537D+00
 Gap=     0.191 Goal=   None    Shift=    0.000
 Gap=     0.116 Goal=   None    Shift=    0.000
 RMSDP=2.26D-04 MaxDP=8.91D-03 DE=-1.65D-02 OVMax= 1.58D-02

 Cycle   6  Pass 0  IDiag  1:
 RMSU=  1.51D-04    CP:  9.81D-01  7.55D-01  6.22D-01  6.20D-01  6.37D-01
 E= -496.566428965594     Delta-E=       -0.000774821001 Rises=F Damp=F
 DIIS: error= 7.40D-04 at cycle   6 NSaved=   6.
 NSaved= 6 IEnMin= 6 EnMin= -496.566428965594     IErMin= 6 ErrMin= 7.40D-04
 ErrMax= 7.40D-04  0.00D+00 EMaxC= 1.00D-01 BMatC= 3.66D-04 BMatP= 2.97D-03
 IDIUse=3 WtCom= 9.93D-01 WtEn= 7.40D-03
 Coeff-Com:  0.155D-02-0.164D-01 0.156D-01 0.305D-01 0.233D+00 0.736D+00
 Coeff-En:   0.000D+00 0.000D+00 0.000D+00 0.000D+00 0.000D+00 0.100D+01
 Coeff:      0.154D-02-0.163D-01 0.154D-01 0.303D-01 0.231D+00 0.738D+00
 Gap=     0.192 Goal=   None    Shift=    0.000
 Gap=     0.119 Goal=   None    Shift=    0.000
 RMSDP=1.08D-04 MaxDP=3.80D-03 DE=-7.75D-04 OVMax= 9.03D-03

 Cycle   7  Pass 0  IDiag  1:
 RMSU=  8.42D-05    CP:  9.81D-01  7.52D-01  6.30D-01  6.15D-01  8.03D-01
                    CP:  1.01D+00
 E= -496.566568778113     Delta-E=       -0.000139812519 Rises=F Damp=F
 DIIS: error= 6.95D-04 at cycle   7 NSaved=   7.
 NSaved= 7 IEnMin= 7 EnMin= -496.566568778113     IErMin= 7 ErrMin= 6.95D-04
 ErrMax= 6.95D-04  0.00D+00 EMaxC= 1.00D-01 BMatC= 1.83D-04 BMatP= 3.66D-04
 IDIUse=3 WtCom= 9.93D-01 WtEn= 6.95D-03
 Coeff-Com: -0.560D-03-0.744D-02-0.364D-01-0.672D-01 0.140D-01 0.506D+00
 Coeff-Com:  0.591D+00
 Coeff-En:   0.000D+00 0.000D+00 0.000D+00 0.000D+00 0.000D+00 0.000D+00
 Coeff-En:   0.100D+01
 Coeff:     -0.556D-03-0.739D-02-0.361D-01-0.667D-01 0.139D-01 0.503D+00
 Coeff:      0.594D+00
 Gap=     0.193 Goal=   None    Shift=    0.000
 Gap=     0.120 Goal=   None    Shift=    0.000
 RMSDP=6.45D-05 MaxDP=2.55D-03 DE=-1.40D-04 OVMax= 6.01D-03

 Cycle   8  Pass 0  IDiag  1:
 RMSU=  3.94D-05    CP:  9.81D-01  7.49D-01  6.35D-01  6.28D-01  8.44D-01
                    CP:  1.28D+00  8.39D-01
 E= -496.566642608765     Delta-E=       -0.000073830652 Rises=F Damp=F
 DIIS: error= 2.51D-04 at cycle   8 NSaved=   8.
 NSaved= 8 IEnMin= 8 EnMin= -496.566642608765     IErMin= 8 ErrMin= 2.51D-04
 ErrMax= 2.51D-04  0.00D+00 EMaxC= 1.00D-01 BMatC= 2.74D-05 BMatP= 1.83D-04
 IDIUse=3 WtCom= 9.97D-01 WtEn= 2.51D-03
 Coeff-Com: -0.387D-03 0.320D-02-0.193D-01-0.451D-01-0.944D-01-0.133D+00
 Coeff-Com:  0.214D+00 0.108D+01
 Coeff-En:   0.000D+00 0.000D+00 0.000D+00 0.000D+00 0.000D+00 0.000D+00
 Coeff-En:   0.000D+00 0.100D+01
 Coeff:     -0.386D-03 0.319D-02-0.192D-01-0.450D-01-0.941D-01-0.133D+00
 Coeff:      0.213D+00 0.108D+01
 Gap=     0.194 Goal=   None    Shift=    0.000
 Gap=     0.121 Goal=   None    Shift=    0.000
 RMSDP=5.51D-05 MaxDP=2.26D-03 DE=-7.38D-05 OVMax= 4.97D-03

 Cycle   9  Pass 0  IDiag  1:
 RMSU=  1.51D-05    CP:  9.80D-01  7.46D-01  6.41D-01  6.27D-01  9.09D-01
                    CP:  1.49D+00  1.15D+00  1.23D+00
 E= -496.566666492061     Delta-E=       -0.000023883296 Rises=F Damp=F
 DIIS: error= 9.02D-05 at cycle   9 NSaved=   9.
 NSaved= 9 IEnMin= 9 EnMin= -496.566666492061     IErMin= 9 ErrMin= 9.02D-05
 ErrMax= 9.02D-05  0.00D+00 EMaxC= 1.00D-01 BMatC= 3.07D-06 BMatP= 2.74D-05
 IDIUse=1 WtCom= 1.00D+00 WtEn= 0.00D+00
 Coeff-Com: -0.644D-04 0.170D-02-0.435D-02-0.124D-01-0.401D-01-0.104D+00
 Coeff-Com:  0.401D-01 0.452D+00 0.667D+00
 Coeff:     -0.644D-04 0.170D-02-0.435D-02-0.124D-01-0.401D-01-0.104D+00
 Coeff:      0.401D-01 0.452D+00 0.667D+00
 Gap=     0.194 Goal=   None    Shift=    0.000
 Gap=     0.121 Goal=   None    Shift=    0.000
 RMSDP=1.21D-05 MaxDP=6.26D-04 DE=-2.39D-05 OVMax= 1.88D-03

 Cycle  10  Pass 0  IDiag  1:
 RMSU=  8.15D-06    CP:  9.80D-01  7.46D-01  6.42D-01  6.28D-01  9.16D-01
                    CP:  1.52D+00  1.21D+00  1.33D+00  8.07D-01
 E= -496.566667944954     Delta-E=       -0.000001452892 Rises=F Damp=F
 DIIS: error= 5.99D-05 at cycle  10 NSaved=  10.
 NSaved=10 IEnMin=10 EnMin= -496.566667944954     IErMin=10 ErrMin= 5.99D-05
 ErrMax= 5.99D-05  0.00D+00 EMaxC= 1.00D-01 BMatC= 1.24D-06 BMatP= 3.07D-06
 IDIUse=1 WtCom= 1.00D+00 WtEn= 0.00D+00
 Coeff-Com:  0.354D-04 0.191D-03 0.232D-02 0.409D-02-0.473D-03-0.303D-01
 Coeff-Com: -0.294D-01-0.103D-01 0.410D+00 0.654D+00
 Coeff:      0.354D-04 0.191D-03 0.232D-02 0.409D-02-0.473D-03-0.303D-01
 Coeff:     -0.294D-01-0.103D-01 0.410D+00 0.654D+00
 Gap=     0.194 Goal=   None    Shift=    0.000
 Gap=     0.121 Goal=   None    Shift=    0.000
 RMSDP=6.31D-06 MaxDP=3.97D-04 DE=-1.45D-06 OVMax= 7.15D-04

 Initial convergence to 1.0D-05 achieved.  Increase integral accuracy.
 Cycle  11  Pass 1  IDiag  1:
 E= -496.566671468220     Delta-E=       -0.000003523266 Rises=F Damp=F
 DIIS: error= 2.01D-05 at cycle   1 NSaved=   1.
 NSaved= 1 IEnMin= 1 EnMin= -496.566671468220     IErMin= 1 ErrMin= 2.01D-05
 ErrMax= 2.01D-05  0.00D+00 EMaxC= 1.00D-01 BMatC= 1.79D-07 BMatP= 1.79D-07
 IDIUse=1 WtCom= 1.00D+00 WtEn= 0.00D+00
 Coeff-Com:  0.100D+01
 Coeff:      0.100D+01
 Gap=     0.194 Goal=   None    Shift=    0.000
 Gap=     0.121 Goal=   None    Shift=    0.000
 RMSDP=6.31D-06 MaxDP=3.97D-04 DE=-3.52D-06 OVMax= 4.19D-04

 Cycle  12  Pass 1  IDiag  1:
 RMSU=  6.67D-06    CP:  1.00D+00
 E= -496.566671555127     Delta-E=       -0.000000086907 Rises=F Damp=F
 DIIS: error= 1.65D-05 at cycle   2 NSaved=   2.
 NSaved= 2 IEnMin= 2 EnMin= -496.566671555127     IErMin= 2 ErrMin= 1.65D-05
 ErrMax= 1.65D-05  0.00D+00 EMaxC= 1.00D-01 BMatC= 1.49D-07 BMatP= 1.79D-07
 IDIUse=1 WtCom= 1.00D+00 WtEn= 0.00D+00
 Coeff-Com:  0.464D+00 0.536D+00
 Coeff:      0.464D+00 0.536D+00
 Gap=     0.194 Goal=   None    Shift=    0.000
 Gap=     0.121 Goal=   None    Shift=    0.000
 RMSDP=1.78D-06 MaxDP=1.02D-04 DE=-8.69D-08 OVMax= 1.39D-04

 Cycle  13  Pass 1  IDiag  1:
 RMSU=  1.77D-06    CP:  1.00D+00  9.74D-01
 E= -496.566671598860     Delta-E=       -0.000000043734 Rises=F Damp=F
 DIIS: error= 1.10D-05 at cycle   3 NSaved=   3.
 NSaved= 3 IEnMin= 3 EnMin= -496.566671598860     IErMin= 3 ErrMin= 1.10D-05
 ErrMax= 1.10D-05  0.00D+00 EMaxC= 1.00D-01 BMatC= 3.22D-08 BMatP= 1.49D-07
 IDIUse=1 WtCom= 1.00D+00 WtEn= 0.00D+00
 Coeff-Com: -0.116D+00 0.262D+00 0.854D+00
 Coeff:     -0.116D+00 0.262D+00 0.854D+00
 Gap=     0.194 Goal=   None    Shift=    0.000
 Gap=     0.121 Goal=   None    Shift=    0.000
 RMSDP=1.29D-06 MaxDP=7.86D-05 DE=-4.37D-08 OVMax= 2.08D-04

 Cycle  14  Pass 1  IDiag  1:
 RMSU=  1.15D-06    CP:  1.00D+00  1.06D+00  9.34D-01
 E= -496.566671623245     Delta-E=       -0.000000024385 Rises=F Damp=F
 DIIS: error= 5.93D-06 at cycle   4 NSaved=   4.
 NSaved= 4 IEnMin= 4 EnMin= -496.566671623245     IErMin= 4 ErrMin= 5.93D-06
 ErrMax= 5.93D-06  0.00D+00 EMaxC= 1.00D-01 BMatC= 8.06D-09 BMatP= 3.22D-08
 IDIUse=1 WtCom= 1.00D+00 WtEn= 0.00D+00
 Coeff-Com: -0.122D+00-0.953D-02 0.347D+00 0.785D+00
 Coeff:     -0.122D+00-0.953D-02 0.347D+00 0.785D+00
 Gap=     0.194 Goal=   None    Shift=    0.000
 Gap=     0.121 Goal=   None    Shift=    0.000
 RMSDP=7.21D-07 MaxDP=3.86D-05 DE=-2.44D-08 OVMax= 7.56D-05

 Cycle  15  Pass 1  IDiag  1:
 RMSU=  4.81D-07    CP:  1.00D+00  1.08D+00  1.15D+00  1.30D+00
 E= -496.566671629561     Delta-E=       -0.000000006316 Rises=F Damp=F
 DIIS: error= 3.14D-06 at cycle   5 NSaved=   5.
 NSaved= 5 IEnMin= 5 EnMin= -496.566671629561     IErMin= 5 ErrMin= 3.14D-06
 ErrMax= 3.14D-06  0.00D+00 EMaxC= 1.00D-01 BMatC= 3.48D-09 BMatP= 8.06D-09
 IDIUse=1 WtCom= 1.00D+00 WtEn= 0.00D+00
 Coeff-Com: -0.209D-01-0.152D+00-0.191D+00 0.539D+00 0.825D+00
 Coeff:     -0.209D-01-0.152D+00-0.191D+00 0.539D+00 0.825D+00
 Gap=     0.194 Goal=   None    Shift=    0.000
 Gap=     0.121 Goal=   None    Shift=    0.000
 RMSDP=6.17D-07 MaxDP=3.16D-05 DE=-6.32D-09 OVMax= 8.57D-05

 Cycle  16  Pass 1  IDiag  1:
 RMSU=  2.21D-07    CP:  1.00D+00  1.11D+00  1.29D+00  1.72D+00  8.01D-01
 E= -496.566671632265     Delta-E=       -0.000000002704 Rises=F Damp=F
 DIIS: error= 1.57D-06 at cycle   6 NSaved=   6.
 NSaved= 6 IEnMin= 6 EnMin= -496.566671632265     IErMin= 6 ErrMin= 1.57D-06
 ErrMax= 1.57D-06  0.00D+00 EMaxC= 1.00D-01 BMatC= 1.30D-09 BMatP= 3.48D-09
 IDIUse=1 WtCom= 1.00D+00 WtEn= 0.00D+00
 Coeff-Com:  0.331D-03-0.100D+00-0.166D+00 0.253D+00 0.564D+00 0.448D+00
 Coeff:      0.331D-03-0.100D+00-0.166D+00 0.253D+00 0.564D+00 0.448D+00
 Gap=     0.194 Goal=   None    Shift=    0.000
 Gap=     0.121 Goal=   None    Shift=    0.000
 RMSDP=1.61D-07 MaxDP=5.50D-06 DE=-2.70D-09 OVMax= 1.43D-05

 Cycle  17  Pass 1  IDiag  1:
 RMSU=  8.16D-08    CP:  1.00D+00  1.11D+00  1.30D+00  1.79D+00  9.61D-01
                    CP:  6.35D-01
 E= -496.566671632658     Delta-E=       -0.000000000392 Rises=F Damp=F
 DIIS: error= 4.40D-07 at cycle   7 NSaved=   7.
 NSaved= 7 IEnMin= 7 EnMin= -496.566671632658     IErMin= 7 ErrMin= 4.40D-07
 ErrMax= 4.40D-07  0.00D+00 EMaxC= 1.00D-01 BMatC= 9.95D-11 BMatP= 1.30D-09
 IDIUse=1 WtCom= 1.00D+00 WtEn= 0.00D+00
 Coeff-Com:  0.499D-02-0.212D-01-0.468D-01 0.274D-02 0.131D+00 0.212D+00
 Coeff-Com:  0.718D+00
 Coeff:      0.499D-02-0.212D-01-0.468D-01 0.274D-02 0.131D+00 0.212D+00
 Coeff:      0.718D+00
 Gap=     0.194 Goal=   None    Shift=    0.000
 Gap=     0.121 Goal=   None    Shift=    0.000
 RMSDP=6.46D-08 MaxDP=2.76D-06 DE=-3.92D-10 OVMax= 6.50D-06

 SCF Done:  E(UB3LYP) =  -496.566671633     A.U. after   17 cycles
            NFock= 17  Conv=0.65D-07     -V/T= 2.0088
 <Sx>= 0.0000 <Sy>= 0.0000 <Sz>= 0.5000 <S**2>= 0.7772 S= 0.5135
 <L.S>= 0.000000000000E+00
 KE= 4.922388186808D+02 PE=-2.158508443539D+03 EE= 6.704985405925D+02
 Annihilation of the first spin contaminant:
 S**2 before annihilation     0.7772,   after     0.7505
 Leave Link  502 at Mon Dec 08 16:29:13 2025, MaxMem=   104857600 cpu:              30.0 elap:              30.3
 (Enter D:\Gaussian\G16W\l601.exe)
 Copying SCF densities to generalized density rwf, IOpCl= 1 IROHF=0.

 **********************************************************************

            Population analysis using the SCF density.

 **********************************************************************

 Orbital symmetries:
 Alpha Orbitals:
       Occupied  (A) (A) (A) (A) (A) (A) (A) (A) (A) (A) (A) (A)
                 (A) (A) (A) (A) (A) (A) (A) (A) (A) (A) (A) (A)
                 (A) (A) (A) (A) (A) (A) (A) (A) (A) (A) (A) (A)
                 (A)
       Virtual   (A) (A) (A) (A) (A) (A) (A) (A) (A) (A) (A) (A)
                 (A) (A) (A) (A) (A) (A) (A) (A) (A) (A) (A) (A)
                 (A) (A) (A) (A) (A) (A) (A) (A) (A) (A) (A) (A)
                 (A) (A) (A) (A) (A) (A) (A) (A) (A) (A) (A) (A)
                 (A) (A) (A) (A) (A) (A) (A) (A) (A) (A) (A) (A)
                 (A) (A) (A) (A) (A) (A) (A) (A) (A) (A) (A) (A)
                 (A) (A) (A) (A) (A) (A) (A) (A) (A) (A) (A) (A)
                 (A) (A) (A) (A) (A) (A) (A) (A) (A) (A) (A) (A)
                 (A) (A) (A) (A) (A) (A) (A) (A) (A) (A) (A) (A)
                 (A) (A) (A) (A) (A) (A) (A) (A) (A) (A) (A) (A)
                 (A) (A) (A) (A) (A) (A) (A)
 Beta  Orbitals:
       Occupied  (A) (A) (A) (A) (A) (A) (A) (A) (A) (A) (A) (A)
                 (A) (A) (A) (A) (A) (A) (A) (A) (A) (A) (A) (A)
                 (A) (A) (A) (A) (A) (A) (A) (A) (A) (A) (A) (A)
       Virtual   (A) (A) (A) (A) (A) (A) (A) (A) (A) (A) (A) (A)
                 (A) (A) (A) (A) (A) (A) (A) (A) (A) (A) (A) (A)
                 (A) (A) (A) (A) (A) (A) (A) (A) (A) (A) (A) (A)
                 (A) (A) (A) (A) (A) (A) (A) (A) (A) (A) (A) (A)
                 (A) (A) (A) (A) (A) (A) (A) (A) (A) (A) (A) (A)
                 (A) (A) (A) (A) (A) (A) (A) (A) (A) (A) (A) (A)
                 (A) (A) (A) (A) (A) (A) (A) (A) (A) (A) (A) (A)
                 (A) (A) (A) (A) (A) (A) (A) (A) (A) (A) (A) (A)
                 (A) (A) (A) (A) (A) (A) (A) (A) (A) (A) (A) (A)
                 (A) (A) (A) (A) (A) (A) (A) (A) (A) (A) (A) (A)
                 (A) (A) (A) (A) (A) (A) (A) (A)
 The electronic state is 2-A.
 Alpha  occ. eigenvalues --  -19.19917 -19.16626 -19.12410 -10.26571 -10.25747
 Alpha  occ. eigenvalues --  -10.24846 -10.22208 -10.20057 -10.19631 -10.19613
 Alpha  occ. eigenvalues --   -1.08671  -1.04199  -1.01505  -0.85991  -0.76295
 Alpha  occ. eigenvalues --   -0.75549  -0.67838  -0.63639  -0.58699  -0.56283
 Alpha  occ. eigenvalues --   -0.52400  -0.48945  -0.47802  -0.47671  -0.44284
 Alpha  occ. eigenvalues --   -0.43742  -0.42610  -0.40785  -0.38146  -0.37541
 Alpha  occ. eigenvalues --   -0.36700  -0.35147  -0.33656  -0.29074  -0.25392
 Alpha  occ. eigenvalues --   -0.24428  -0.19803
 Alpha virt. eigenvalues --   -0.00419   0.00630   0.05618   0.06126   0.10377
 Alpha virt. eigenvalues --    0.11766   0.13803   0.15582   0.16638   0.18817
 Alpha virt. eigenvalues --    0.19285   0.23742   0.25202   0.25957   0.32326
 Alpha virt. eigenvalues --    0.33098   0.36829   0.38135   0.46096   0.49383
 Alpha virt. eigenvalues --    0.50386   0.51856   0.54042   0.56492   0.56610
 Alpha virt. eigenvalues --    0.58700   0.59364   0.60726   0.62432   0.64685
 Alpha virt. eigenvalues --    0.64918   0.66291   0.67431   0.71508   0.73535
 Alpha virt. eigenvalues --    0.73797   0.77523   0.78347   0.79575   0.82543
 Alpha virt. eigenvalues --    0.83253   0.85601   0.88579   0.89657   0.90533
 Alpha virt. eigenvalues --    0.91843   0.93127   0.94038   0.99234   0.99513
 Alpha virt. eigenvalues --    1.02513   1.04276   1.05010   1.06763   1.10105
 Alpha virt. eigenvalues --    1.12727   1.18558   1.19061   1.22226   1.24610
 Alpha virt. eigenvalues --    1.30272   1.31820   1.32750   1.35525   1.38373
 Alpha virt. eigenvalues --    1.42178   1.44171   1.47080   1.47544   1.59855
 Alpha virt. eigenvalues --    1.67157   1.70258   1.70265   1.70874   1.71427
 Alpha virt. eigenvalues --    1.74711   1.79645   1.80229   1.81010   1.82280
 Alpha virt. eigenvalues --    1.88196   1.89494   1.90464   1.93681   1.95173
 Alpha virt. eigenvalues --    1.96145   2.02978   2.04774   2.05041   2.08728
 Alpha virt. eigenvalues --    2.10509   2.12677   2.20370   2.24152   2.28983
 Alpha virt. eigenvalues --    2.30768   2.31971   2.34726   2.38486   2.40036
 Alpha virt. eigenvalues --    2.42511   2.44124   2.46505   2.58631   2.62236
 Alpha virt. eigenvalues --    2.62872   2.65133   2.68736   2.76682   2.78113
 Alpha virt. eigenvalues --    2.82681   2.89248   2.92433   2.94345   3.04193
 Alpha virt. eigenvalues --    3.22738   3.37734   3.81739   3.84911   4.05921
 Alpha virt. eigenvalues --    4.08503   4.16479   4.21208   4.32051   4.36486
 Alpha virt. eigenvalues --    4.55906   4.94083
  Beta  occ. eigenvalues --  -19.19675 -19.16627 -19.11419 -10.26161 -10.25775
  Beta  occ. eigenvalues --  -10.24943 -10.21737 -10.20168 -10.19798 -10.19345
  Beta  occ. eigenvalues --   -1.08110  -1.04192  -0.99710  -0.85363  -0.75601
  Beta  occ. eigenvalues --   -0.75150  -0.67430  -0.63282  -0.58286  -0.56045
  Beta  occ. eigenvalues --   -0.52220  -0.48691  -0.47456  -0.47350  -0.44083
  Beta  occ. eigenvalues --   -0.42236  -0.41779  -0.40242  -0.37854  -0.36474
  Beta  occ. eigenvalues --   -0.35039  -0.34939  -0.31280  -0.28661  -0.24402
  Beta  occ. eigenvalues --   -0.23424
  Beta virt. eigenvalues --   -0.11321   0.01296   0.02989   0.05619   0.06217
  Beta virt. eigenvalues --    0.10404   0.11915   0.14825   0.15694   0.16689
  Beta virt. eigenvalues --    0.19447   0.19802   0.24261   0.25699   0.26257
  Beta virt. eigenvalues --    0.32597   0.33585   0.37081   0.38401   0.46222
  Beta virt. eigenvalues --    0.49798   0.50998   0.52148   0.54287   0.56649
  Beta virt. eigenvalues --    0.57100   0.59307   0.59607   0.60805   0.62625
  Beta virt. eigenvalues --    0.64790   0.65487   0.66796   0.67730   0.71810
  Beta virt. eigenvalues --    0.74046   0.74288   0.78275   0.78657   0.79582
  Beta virt. eigenvalues --    0.82748   0.83343   0.85562   0.88791   0.89870
  Beta virt. eigenvalues --    0.90844   0.92070   0.94403   0.94503   0.99476
  Beta virt. eigenvalues --    0.99626   1.02660   1.05233   1.07092   1.07236
  Beta virt. eigenvalues --    1.10339   1.13114   1.18783   1.19158   1.23055
  Beta virt. eigenvalues --    1.24788   1.30418   1.32034   1.33230   1.36463
  Beta virt. eigenvalues --    1.38775   1.43010   1.45092   1.47428   1.47900
  Beta virt. eigenvalues --    1.60288   1.67250   1.70633   1.70718   1.71138
  Beta virt. eigenvalues --    1.71551   1.75108   1.80300   1.81148   1.82146
  Beta virt. eigenvalues --    1.82684   1.88940   1.90499   1.90748   1.94359
  Beta virt. eigenvalues --    1.95600   1.96622   2.03329   2.05342   2.05946
  Beta virt. eigenvalues --    2.09021   2.11120   2.13618   2.20508   2.24872
  Beta virt. eigenvalues --    2.29722   2.30942   2.32384   2.35592   2.38771
  Beta virt. eigenvalues --    2.40044   2.43705   2.44369   2.46660   2.59333
  Beta virt. eigenvalues --    2.62459   2.63720   2.66350   2.69079   2.76853
  Beta virt. eigenvalues --    2.78480   2.83064   2.89464   2.92758   2.94625
  Beta virt. eigenvalues --    3.04825   3.22910   3.37885   3.82334   3.85031
  Beta virt. eigenvalues --    4.06284   4.08907   4.16619   4.21680   4.32448
  Beta virt. eigenvalues --    4.36900   4.56439   4.94621
          Condensed to atoms (all electrons):
               1          2          3          4          5          6
     1  C    4.992547   0.380133   0.007004  -0.029649  -0.102816   0.295722
     2  C    0.380133   5.230657   0.504098  -0.049157  -0.030039  -0.039449
     3  C    0.007004   0.504098   4.794097   0.476620  -0.013456  -0.023677
     4  C   -0.029649  -0.049157   0.476620   5.039600   0.474466  -0.013456
     5  C   -0.102816  -0.030039  -0.013456   0.474466   5.175286   0.432393
     6  C    0.295722  -0.039449  -0.023677  -0.013456   0.432393   4.521042
     7  H   -0.048744   0.342016  -0.022006   0.006468  -0.000199   0.002553
     8  H   -0.000338   0.006598  -0.053412   0.356387  -0.034974   0.003348
     9  H    0.008094   0.000026   0.004117  -0.041579   0.342029  -0.029534
    10  O   -0.082091   0.005946  -0.000239   0.005733  -0.071758   0.500398
    11  O    0.304045  -0.064025   0.003806   0.000376   0.002985  -0.048677
    12  C    0.005762  -0.048163   0.335485  -0.062673   0.005913   0.000254
    13  H   -0.000021   0.001115  -0.042185  -0.000195  -0.000118   0.000017
    14  H   -0.000021   0.001099  -0.042164  -0.000190  -0.000119   0.000017
    15  O    0.000620  -0.000657  -0.042246   0.001836  -0.000056   0.000004
    16  H   -0.000011   0.000205   0.006289  -0.000202   0.000004   0.000000
    17  H   -0.032485  -0.003611   0.000636   0.000013  -0.000239   0.006252
               7          8          9         10         11         12
     1  C   -0.048744  -0.000338   0.008094  -0.082091   0.304045   0.005762
     2  C    0.342016   0.006598   0.000026   0.005946  -0.064025  -0.048163
     3  C   -0.022006  -0.053412   0.004117  -0.000239   0.003806   0.335485
     4  C    0.006468   0.356387  -0.041579   0.005733   0.000376  -0.062673
     5  C   -0.000199  -0.034974   0.342029  -0.071758   0.002985   0.005913
     6  C    0.002553   0.003348  -0.029534   0.500398  -0.048677   0.000254
     7  H    0.559115  -0.000158   0.000015  -0.000049  -0.004030  -0.015606
     8  H   -0.000158   0.602127  -0.006373  -0.000071   0.000002  -0.007896
     9  H    0.000015  -0.006373   0.572940   0.001704  -0.000050  -0.000168
    10  O   -0.000049  -0.000071   0.001704   8.123813  -0.000877   0.000000
    11  O   -0.004030   0.000002  -0.000050  -0.000877   8.148995  -0.000069
    12  C   -0.015606  -0.007896  -0.000168   0.000000  -0.000069   4.930529
    13  H    0.000511   0.002478   0.000000   0.000000   0.000001   0.357155
    14  H    0.000511   0.002471   0.000000   0.000000   0.000001   0.357141
    15  O    0.015906   0.000063   0.000000   0.000000   0.000000   0.249185
    16  H   -0.000576  -0.000009   0.000000   0.000000   0.000000  -0.020895
    17  H    0.007195  -0.000001   0.000006  -0.000240   0.242749  -0.000022
              13         14         15         16         17
     1  C   -0.000021  -0.000021   0.000620  -0.000011  -0.032485
     2  C    0.001115   0.001099  -0.000657   0.000205  -0.003611
     3  C   -0.042185  -0.042164  -0.042246   0.006289   0.000636
     4  C   -0.000195  -0.000190   0.001836  -0.000202   0.000013
     5  C   -0.000118  -0.000119  -0.000056   0.000004  -0.000239
     6  C    0.000017   0.000017   0.000004   0.000000   0.006252
     7  H    0.000511   0.000511   0.015906  -0.000576   0.007195
     8  H    0.002478   0.002471   0.000063  -0.000009  -0.000001
     9  H    0.000000   0.000000   0.000000   0.000000   0.000006
    10  O    0.000000   0.000000   0.000000   0.000000  -0.000240
    11  O    0.000001   0.000001   0.000000   0.000000   0.242749
    12  C    0.357155   0.357141   0.249185  -0.020895  -0.000022
    13  H    0.629812  -0.056054  -0.037074  -0.003865   0.000000
    14  H   -0.056054   0.629814  -0.037075  -0.003866   0.000000
    15  O   -0.037074  -0.037075   8.233883   0.236862  -0.000014
    16  H   -0.003865  -0.003866   0.236862   0.381549   0.000000
    17  H    0.000000   0.000000  -0.000014   0.000000   0.363854
          Atomic-Atomic Spin Densities.
               1          2          3          4          5          6
     1  C    0.315729   0.015329  -0.013179  -0.002199   0.004449   0.032346
     2  C    0.015329  -0.167592  -0.008563  -0.000058   0.001249   0.000739
     3  C   -0.013179  -0.008563   0.370231   0.028644  -0.011757  -0.003228
     4  C   -0.002199  -0.000058   0.028644  -0.101482  -0.026342  -0.000976
     5  C    0.004449   0.001249  -0.011757  -0.026342   0.241168   0.029170
     6  C    0.032346   0.000739  -0.003228  -0.000976   0.029170  -0.064688
     7  H   -0.000661   0.001645  -0.000336  -0.000037  -0.000023   0.000067
     8  H    0.000001  -0.000029  -0.000856   0.001562  -0.000406   0.000015
     9  H   -0.000070  -0.000039   0.000014   0.000615   0.001012  -0.000122
    10  O   -0.009468  -0.000089   0.000106   0.000216  -0.008840  -0.053882
    11  O   -0.054327   0.000548   0.000318   0.000006  -0.000147  -0.002108
    12  C   -0.000045   0.000528  -0.005200   0.000386   0.000005  -0.000028
    13  H    0.000045   0.000147  -0.008387  -0.000709   0.000106   0.000007
    14  H    0.000045   0.000147  -0.008392  -0.000711   0.000106   0.000007
    15  O   -0.000001   0.000459  -0.000358  -0.000006  -0.000001   0.000000
    16  H   -0.000001  -0.000026   0.000119   0.000000   0.000000   0.000000
    17  H    0.000033   0.000308  -0.000002   0.000003  -0.000011  -0.000089
               7          8          9         10         11         12
     1  C   -0.000661   0.000001  -0.000070  -0.009468  -0.054327  -0.000045
     2  C    0.001645  -0.000029  -0.000039  -0.000089   0.000548   0.000528
     3  C   -0.000336  -0.000856   0.000014   0.000106   0.000318  -0.005200
     4  C   -0.000037   0.001562   0.000615   0.000216   0.000006   0.000386
     5  C   -0.000023  -0.000406   0.001012  -0.008840  -0.000147   0.000005
     6  C    0.000067   0.000015  -0.000122  -0.053882  -0.002108  -0.000028
     7  H    0.004477   0.000000  -0.000001   0.000001  -0.000016   0.000272
     8  H    0.000000   0.002561   0.000151   0.000001   0.000000   0.000253
     9  H   -0.000001   0.000151  -0.012618  -0.000221   0.000000   0.000001
    10  O    0.000001   0.000001  -0.000221   0.457877   0.001751   0.000000
    11  O   -0.000016   0.000000   0.000000   0.001751   0.129160   0.000001
    12  C    0.000272   0.000253   0.000001   0.000000   0.000001  -0.030145
    13  H   -0.000004  -0.000030   0.000000   0.000000   0.000000   0.003206
    14  H   -0.000004  -0.000030   0.000000   0.000000   0.000000   0.003202
    15  O   -0.000136   0.000000   0.000000   0.000000   0.000000   0.002617
    16  H    0.000017   0.000000   0.000000   0.000000   0.000000   0.000002
    17  H   -0.000005   0.000000   0.000000   0.000001  -0.000771   0.000000
              13         14         15         16         17
     1  C    0.000045   0.000045  -0.000001  -0.000001   0.000033
     2  C    0.000147   0.000147   0.000459  -0.000026   0.000308
     3  C   -0.008387  -0.008392  -0.000358   0.000119  -0.000002
     4  C   -0.000709  -0.000711  -0.000006   0.000000   0.000003
     5  C    0.000106   0.000106  -0.000001   0.000000  -0.000011
     6  C    0.000007   0.000007   0.000000   0.000000  -0.000089
     7  H   -0.000004  -0.000004  -0.000136   0.000017  -0.000005
     8  H   -0.000030  -0.000030   0.000000   0.000000   0.000000
     9  H    0.000000   0.000000   0.000000   0.000000   0.000000
    10  O    0.000000   0.000000   0.000000   0.000000   0.000001
    11  O    0.000000   0.000000   0.000000   0.000000  -0.000771
    12  C    0.003206   0.003202   0.002617   0.000002   0.000000
    13  H    0.028548  -0.006957  -0.000508   0.000041   0.000000
    14  H   -0.006957   0.028580  -0.000515   0.000043   0.000000
    15  O   -0.000508  -0.000515  -0.001567   0.000112   0.000000
    16  H    0.000041   0.000043   0.000112  -0.000553   0.000000
    17  H    0.000000   0.000000   0.000000   0.000000  -0.002226
 Mulliken charges and spin densities:
               1          2
     1  C    0.302249   0.288027
     2  C   -0.236792  -0.155296
     3  C    0.107231   0.339172
     4  C   -0.164398  -0.101087
     5  C   -0.179304   0.229740
     6  C    0.392793  -0.062771
     7  H    0.157080   0.005255
     8  H    0.129758   0.003194
     9  H    0.148772  -0.011277
    10  O   -0.482267   0.387454
    11  O   -0.585231   0.074414
    12  C   -0.085935  -0.024945
    13  H    0.148423   0.015505
    14  H    0.148436   0.015522
    15  O   -0.621237   0.000096
    16  H    0.404515  -0.000245
    17  H    0.415908  -0.002758
 Sum of Mulliken charges =   0.00000   1.00000
 Mulliken charges and spin densities with hydrogens summed into heavy atoms:
               1          2
     1  C    0.302249   0.288027
     2  C   -0.079711  -0.150040
     3  C    0.107231   0.339172
     4  C   -0.034641  -0.097893
     5  C   -0.030533   0.218463
     6  C    0.392793  -0.062771
    10  O   -0.482267   0.387454
    11  O   -0.169323   0.071655
    12  C    0.210924   0.006082
    15  O   -0.216722  -0.000149
 Electronic spatial extent (au):  <R**2>=           1559.8057
 Charge=              0.0000 electrons
 Dipole moment (field-independent basis, Debye):
    X=             -6.2703    Y=              0.1546    Z=              0.0009  Tot=              6.2722
 Quadrupole moment (field-independent basis, Debye-Ang):
   XX=            -59.6839   YY=            -47.6567   ZZ=            -58.1050
   XY=              2.4206   XZ=             -0.0025   YZ=              0.0011
 Traceless Quadrupole moment (field-independent basis, Debye-Ang):
   XX=             -4.5354   YY=              7.4918   ZZ=             -2.9565
   XY=              2.4206   XZ=             -0.0025   YZ=              0.0011
 Octapole moment (field-independent basis, Debye-Ang**2):
  XXX=           -114.1258  YYY=             26.7509  ZZZ=             -0.0002  XYY=              3.4406
  XXY=             -0.7618  XXZ=              0.0069  XZZ=              1.5458  YZZ=              4.4460
  YYZ=             -0.0008  XYZ=             -0.0018
 Hexadecapole moment (field-independent basis, Debye-Ang**3):
 XXXX=          -1163.5843 YYYY=           -423.8318 ZZZZ=            -60.6126 XXXY=            -20.9179
 XXXZ=             -0.0095 YYYX=              8.6152 YYYZ=              0.0050 ZZZX=             -0.0005
 ZZZY=             -0.0011 XXYY=           -309.5396 XXZZ=           -225.9493 YYZZ=           -103.2118
 XXYZ=              0.0052 YYXZ=              0.0003 ZZXY=              2.1889
 N-N= 4.992044126331D+02 E-N=-2.158508457283D+03  KE= 4.922388186808D+02
                          Isotropic Fermi Contact Couplings
        Atom                 a.u.       MegaHertz       Gauss      10(-4) cm-1
     1  C(13)              0.02863      32.18586      11.48471      10.73605
     2  C(13)             -0.02366     -26.59895      -9.49117      -8.87245
     3  C(13)              0.03733      41.96998      14.97593      13.99968
     4  C(13)             -0.01686     -18.95136      -6.76232      -6.32149
     5  C(13)              0.02078      23.36541       8.33736       7.79386
     6  C(13)             -0.02157     -24.25171      -8.65361      -8.08950
     7  H(1)               0.00166       7.39960       2.64036       2.46824
     8  H(1)               0.00096       4.27318       1.52478       1.42538
     9  H(1)              -0.00359     -16.05762      -5.72976      -5.35624
    10  O(17)              0.04842     -29.35500     -10.47459      -9.79177
    11  O(17)              0.01719     -10.41879      -3.71768      -3.47533
    12  C(13)             -0.01040     -11.69610      -4.17346      -3.90140
    13  H(1)               0.00867      38.73782      13.82262      12.92155
    14  H(1)               0.00867      38.77344      13.83533      12.93343
    15  O(17)             -0.00102       0.61663       0.22003       0.20569
    16  H(1)              -0.00018      -0.78384      -0.27969      -0.26146
    17  H(1)              -0.00137      -6.10258      -2.17755      -2.03560
 --------------------------------------------------------
       Center         ----  Spin Dipole Couplings  ----
                      3XX-RR        3YY-RR        3ZZ-RR
 --------------------------------------------------------
     1   Atom       -0.161990     -0.157883      0.319873
     2   Atom        0.066088      0.056622     -0.122710
     3   Atom       -0.172676     -0.184924      0.357599
     4   Atom        0.036655      0.030399     -0.067054
     5   Atom       -0.113661     -0.107060      0.220722
     6   Atom        0.043483     -0.003132     -0.040351
     7   Atom        0.005625     -0.000294     -0.005331
     8   Atom        0.000691      0.004115     -0.004806
     9   Atom       -0.008774      0.013388     -0.004614
    10   Atom       -0.729545     -0.729306      1.458852
    11   Atom       -0.196477     -0.184618      0.381095
    12   Atom        0.001947     -0.006945      0.004998
    13   Atom        0.004785     -0.002908     -0.001876
    14   Atom        0.004784     -0.002911     -0.001872
    15   Atom        0.002211      0.001026     -0.003237
    16   Atom        0.001822     -0.000488     -0.001334
    17   Atom       -0.003935      0.012361     -0.008426
 --------------------------------------------------------
                        XY            XZ            YZ
 --------------------------------------------------------
     1   Atom       -0.000730      0.000019     -0.000011
     2   Atom        0.004745     -0.000009      0.000009
     3   Atom       -0.000819      0.000032     -0.000015
     4   Atom       -0.003442      0.000000      0.000008
     5   Atom       -0.000206      0.000026     -0.000023
     6   Atom       -0.000224     -0.000002     -0.000001
     7   Atom        0.003410      0.000000      0.000000
     8   Atom       -0.001899     -0.000001      0.000000
     9   Atom       -0.010056      0.000000      0.000002
    10   Atom       -0.001161      0.000034     -0.000142
    11   Atom       -0.007397      0.000014     -0.000006
    12   Atom       -0.002106     -0.000003      0.000007
    13   Atom        0.002420      0.002967      0.001735
    14   Atom        0.002415     -0.002969     -0.001736
    15   Atom       -0.004083      0.000003     -0.000011
    16   Atom       -0.001532      0.000000     -0.000001
    17   Atom       -0.015573      0.000000      0.000000
 --------------------------------------------------------


 ---------------------------------------------------------------------------------
              Anisotropic Spin Dipole Couplings in Principal Axis System
 ---------------------------------------------------------------------------------

       Atom             a.u.   MegaHertz   Gauss  10(-4) cm-1        Axes

              Baa    -0.1621   -21.754    -7.762    -7.256  0.9855  0.1699  0.0000
     1 C(13)  Bbb    -0.1578   -21.170    -7.554    -7.061 -0.1699  0.9855  0.0000
              Bcc     0.3199    42.924    15.316    14.318  0.0000  0.0000  1.0000
 
              Baa    -0.1227   -16.467    -5.876    -5.493  0.0000 -0.0001  1.0000
     2 C(13)  Bbb     0.0547     7.334     2.617     2.446 -0.3833  0.9236  0.0001
              Bcc     0.0681     9.133     3.259     3.046  0.9236  0.3833  0.0000
 
              Baa    -0.1850   -24.822    -8.857    -8.280  0.0664  0.9978  0.0000
     3 C(13)  Bbb    -0.1726   -23.164    -8.266    -7.727  0.9978 -0.0664 -0.0001
              Bcc     0.3576    47.986    17.123    16.007  0.0001  0.0000  1.0000
 
              Baa    -0.0671    -8.998    -3.211    -3.001  0.0000 -0.0001  1.0000
     4 C(13)  Bbb     0.0289     3.875     1.383     1.293  0.4046  0.9145  0.0001
              Bcc     0.0382     5.123     1.828     1.709  0.9145 -0.4046  0.0000
 
              Baa    -0.1137   -15.253    -5.443    -5.088  0.9995  0.0312 -0.0001
     5 C(13)  Bbb    -0.1071   -14.366    -5.126    -4.792 -0.0312  0.9995  0.0001
              Bcc     0.2207    29.619    10.569     9.880  0.0001 -0.0001  1.0000
 
              Baa    -0.0404    -5.415    -1.932    -1.806  0.0000  0.0000  1.0000
     6 C(13)  Bbb    -0.0031    -0.420    -0.150    -0.140  0.0048  1.0000  0.0000
              Bcc     0.0435     5.835     2.082     1.946  1.0000 -0.0048  0.0000
 
              Baa    -0.0053    -2.844    -1.015    -0.949  0.0000  0.0000  1.0000
     7 H(1)   Bbb    -0.0018    -0.987    -0.352    -0.329 -0.4151  0.9098  0.0000
              Bcc     0.0072     3.831     1.367     1.278  0.9098  0.4151  0.0000
 
              Baa    -0.0048    -2.564    -0.915    -0.855  0.0001  0.0000  1.0000
     8 H(1)   Bbb    -0.0002    -0.082    -0.029    -0.027  0.9136  0.4065 -0.0001
              Bcc     0.0050     2.646     0.944     0.883 -0.4065  0.9136  0.0000
 
              Baa    -0.0127    -6.753    -2.410    -2.253  0.9329  0.3602 -0.0001
     9 H(1)   Bbb    -0.0046    -2.462    -0.878    -0.821  0.0001 -0.0001  1.0000
              Bcc     0.0173     9.215     3.288     3.074 -0.3602  0.9329  0.0001
 
              Baa    -0.7306    52.865    18.864    17.634  0.7424  0.6699  0.0000
    10 O(17)  Bbb    -0.7283    52.696    18.803    17.578 -0.6699  0.7424  0.0001
              Bcc     1.4589  -105.561   -37.667   -35.212  0.0000 -0.0001  1.0000
 
              Baa    -0.2000    14.474     5.165     4.828  0.9015  0.4327  0.0000
    11 O(17)  Bbb    -0.1811    13.102     4.675     4.370 -0.4327  0.9015  0.0000
              Bcc     0.3811   -27.576    -9.840    -9.198  0.0000  0.0000  1.0000
 
              Baa    -0.0074    -0.995    -0.355    -0.332  0.2194  0.9756 -0.0005
    12 C(13)  Bbb     0.0024     0.325     0.116     0.108  0.9756 -0.2194  0.0018
              Bcc     0.0050     0.671     0.239     0.224 -0.0016  0.0009  1.0000
 
              Baa    -0.0042    -2.245    -0.801    -0.749 -0.0334  0.8217 -0.5689
    13 H(1)   Bbb    -0.0026    -1.370    -0.489    -0.457 -0.4602  0.4926  0.7386
              Bcc     0.0068     3.615     1.290     1.206  0.8872  0.2865  0.3617
 
              Baa    -0.0042    -2.246    -0.801    -0.749 -0.0329  0.8219  0.5687
    14 H(1)   Bbb    -0.0026    -1.369    -0.488    -0.457  0.4603 -0.4926  0.7385
              Bcc     0.0068     3.615     1.290     1.206  0.8871  0.2861 -0.3621
 
              Baa    -0.0032     0.234     0.084     0.078  0.0048  0.0072  1.0000
    15 O(17)  Bbb    -0.0025     0.181     0.065     0.061  0.6543  0.7562 -0.0086
              Bcc     0.0057    -0.416    -0.148    -0.139  0.7562 -0.6544  0.0011
 
              Baa    -0.0013    -0.712    -0.254    -0.237  0.0015  0.0035  1.0000
    16 H(1)   Bbb    -0.0013    -0.668    -0.238    -0.223  0.4462  0.8949 -0.0038
              Bcc     0.0026     1.380     0.492     0.460  0.8949 -0.4462  0.0002
 
              Baa    -0.0134    -7.130    -2.544    -2.378  0.8554  0.5179  0.0000
    17 H(1)   Bbb    -0.0084    -4.496    -1.604    -1.500  0.0000  0.0000  1.0000
              Bcc     0.0218    11.626     4.148     3.878 -0.5179  0.8554  0.0000
 

 ---------------------------------------------------------------------------------

 No NMR shielding tensors so no spin-rotation constants.
 Leave Link  601 at Mon Dec 08 16:29:14 2025, MaxMem=   104857600 cpu:               1.0 elap:               0.2
 (Enter D:\Gaussian\G16W\l9999.exe)
 1|1|UNPC-PC-20250526LCFF|SP|UB3LYP|6-31G(d)|C7H7O3(2)|ADMINISTRATOR|08
 -Dec-2025|0||#p b3lyp/6-31g(d) out=wfn scf=conver=7||Generated by Mult
 iwfn (http://sobereva.com/multiwfn)||0,2|C,0,0.9925329,0.82691103,0.00
 004682|C,0,-0.39581709,0.79980903,0.00010082|C,0,-1.0808591,-0.4135529
 7,0.00007182|C,0,-0.3582881,-1.63547397,-0.00000518|C,0,1.0088259,-1.6
 3909597,-0.00007318|C,0,1.7816379,-0.41131498,-0.00003118|H,0,-0.96569
 209,1.72266503,0.00017282|H,0,-0.9053081,-2.57360297,-0.00007118|H,0,1
 .5797149,-2.56001798,-0.00018918|O,0,3.0251899,-0.39539598,-0.00006118
 |O,0,1.70397291,1.96789403,0.00003782|C,0,-2.5855641,-0.45426397,0.000
 21582|H,0,-2.9212631,-1.01660296,-0.88492618|H,0,-2.9211061,-1.0157589
 7,0.88595782|O,0,-3.11274309,0.86272503,-0.00032718|H,0,-4.0717531,0.8
 0392003,-0.00014118|H,0,1.09923991,2.71950402,0.00004682||Version=EM64
 W-G16RevA.03|State=2-A|HF=-496.5666716|S2=0.777155|S2-1=0.|S2A=0.75050
 7|RMSD=6.456e-008|Dipole=-2.4669125,0.0608171,0.0003711|Quadrupole=-3.
 3719456,5.5700042,-2.1980585,1.7996529,-0.0018552,0.0008254|PG=C01 [X(
 C7H7O3)]||@

 Writing a WFN file to "N.wfn"


 Once you get people laughing, they're
 listening and you can tell them almost anything.
                                 -- Herb Gardner
 Job cpu time:       0 days  0 hours  0 minutes 33.0 seconds.
 Elapsed time:       0 days  0 hours  0 minutes 32.6 seconds.
 File lengths (MBytes):  RWF=     31 Int=      0 D2E=      0 Chk=      3 Scr=      1
 Normal termination of Gaussian 16 at Mon Dec 08 16:29:14 2025.
