 Generated by Multiwfn (http://sobereva.com/multiwfn)
GAUSSIAN             73 MOL ORBITALS    308 PRIMITIVES       17 NUCLEI
  C    1    (CENTRE  1)   1.87561535  1.56263537  0.00008848  CHARGE =  6.0
  C    2    (CENTRE  2)  -0.74798589  1.51142002  0.00019053  CHARGE =  6.0
  C    3    (CENTRE  3)  -2.04252768 -0.78150185  0.00013572  CHARGE =  6.0
  C    4    (CENTRE  4)  -0.67706639 -3.09059789 -0.00000979  CHARGE =  6.0
  C    5    (CENTRE  5)   1.90640466 -3.09744248 -0.00013829  CHARGE =  6.0
  C    6    (CENTRE  6)   3.36680768 -0.77727267 -0.00005892  CHARGE =  6.0
  H    7    (CENTRE  7)  -1.82489356  3.25536511  0.00032659  CHARGE =  1.0
  H    8    (CENTRE  8)  -1.71078437 -4.86340477 -0.00013451  CHARGE =  1.0
  H    9    (CENTRE  9)   2.98522851 -4.83773286 -0.00035749  CHARGE =  1.0
  O   10    (CENTRE 10)   5.71678039 -0.74719012 -0.00011561  CHARGE =  8.0
  O   11    (CENTRE 11)   3.22004213  3.71878075  0.00007147  CHARGE =  8.0
  C   12    (CENTRE 12)  -4.88600803 -0.85843449  0.00040784  CHARGE =  6.0
  H   13    (CENTRE 13)  -5.52038720 -1.92110116 -1.67226812  CHARGE =  1.0
  H   14    (CENTRE 14)  -5.52009051 -1.91950625  1.67421764  CHARGE =  1.0
  O   15    (CENTRE 15)  -5.88223193  1.63031404 -0.00061828  CHARGE =  8.0
  H   16    (CENTRE 16)  -7.69449820  1.51918869 -0.00026679  CHARGE =  1.0
  H   17    (CENTRE 17)   2.07726238  5.13911779  0.00008848  CHARGE =  1.0
CENTRE ASSIGNMENTS    1  1  1  1  1  1  1  1  1  1  1  1  1  1  1  1  1  1  1  1
CENTRE ASSIGNMENTS    1  1  1  1  1  1  1  1  2  2  2  2  2  2  2  2  2  2  2  2
CENTRE ASSIGNMENTS    2  2  2  2  2  2  2  2  2  2  2  2  2  2  2  2  3  3  3  3
CENTRE ASSIGNMENTS    3  3  3  3  3  3  3  3  3  3  3  3  3  3  3  3  3  3  3  3
CENTRE ASSIGNMENTS    3  3  3  3  4  4  4  4  4  4  4  4  4  4  4  4  4  4  4  4
CENTRE ASSIGNMENTS    4  4  4  4  4  4  4  4  4  4  4  4  5  5  5  5  5  5  5  5
CENTRE ASSIGNMENTS    5  5  5  5  5  5  5  5  5  5  5  5  5  5  5  5  5  5  5  5
CENTRE ASSIGNMENTS    6  6  6  6  6  6  6  6  6  6  6  6  6  6  6  6  6  6  6  6
CENTRE ASSIGNMENTS    6  6  6  6  6  6  6  6  7  7  7  7  8  8  8  8  9  9  9  9
CENTRE ASSIGNMENTS   10 10 10 10 10 10 10 10 10 10 10 10 10 10 10 10 10 10 10 10
CENTRE ASSIGNMENTS   10 10 10 10 10 10 10 10 11 11 11 11 11 11 11 11 11 11 11 11
CENTRE ASSIGNMENTS   11 11 11 11 11 11 11 11 11 11 11 11 11 11 11 11 12 12 12 12
CENTRE ASSIGNMENTS   12 12 12 12 12 12 12 12 12 12 12 12 12 12 12 12 12 12 12 12
CENTRE ASSIGNMENTS   12 12 12 12 13 13 13 13 14 14 14 14 15 15 15 15 15 15 15 15
CENTRE ASSIGNMENTS   15 15 15 15 15 15 15 15 15 15 15 15 15 15 15 15 15 15 15 15
CENTRE ASSIGNMENTS   16 16 16 16 17 17 17 17
TYPE ASSIGNMENTS      1  1  1  1  1  1  1  1  1  2  2  2  3  3  3  4  4  4  1  2
TYPE ASSIGNMENTS      3  4  5  6  7  8  9 10  1  1  1  1  1  1  1  1  1  2  2  2
TYPE ASSIGNMENTS      3  3  3  4  4  4  1  2  3  4  5  6  7  8  9 10  1  1  1  1
TYPE ASSIGNMENTS      1  1  1  1  1  2  2  2  3  3  3  4  4  4  1  2  3  4  5  6
TYPE ASSIGNMENTS      7  8  9 10  1  1  1  1  1  1  1  1  1  2  2  2  3  3  3  4
TYPE ASSIGNMENTS      4  4  1  2  3  4  5  6  7  8  9 10  1  1  1  1  1  1  1  1
TYPE ASSIGNMENTS      1  2  2  2  3  3  3  4  4  4  1  2  3  4  5  6  7  8  9 10
TYPE ASSIGNMENTS      1  1  1  1  1  1  1  1  1  2  2  2  3  3  3  4  4  4  1  2
TYPE ASSIGNMENTS      3  4  5  6  7  8  9 10  1  1  1  1  1  1  1  1  1  1  1  1
TYPE ASSIGNMENTS      1  1  1  1  1  1  1  1  1  2  2  2  3  3  3  4  4  4  1  2
TYPE ASSIGNMENTS      3  4  5  6  7  8  9 10  1  1  1  1  1  1  1  1  1  2  2  2
TYPE ASSIGNMENTS      3  3  3  4  4  4  1  2  3  4  5  6  7  8  9 10  1  1  1  1
TYPE ASSIGNMENTS      1  1  1  1  1  2  2  2  3  3  3  4  4  4  1  2  3  4  5  6
TYPE ASSIGNMENTS      7  8  9 10  1  1  1  1  1  1  1  1  1  1  1  1  1  1  1  1
TYPE ASSIGNMENTS      1  2  2  2  3  3  3  4  4  4  1  2  3  4  5  6  7  8  9 10
TYPE ASSIGNMENTS      1  1  1  1  1  1  1  1
EXPONENTS  0.3047525D+04 0.4573695D+03 0.1039487D+03 0.2921016D+02 0.9286663D+01
EXPONENTS  0.3163927D+01 0.7868272D+01 0.1881289D+01 0.5442493D+00 0.7868272D+01
EXPONENTS  0.1881289D+01 0.5442493D+00 0.7868272D+01 0.1881289D+01 0.5442493D+00
EXPONENTS  0.7868272D+01 0.1881289D+01 0.5442493D+00 0.1687145D+00 0.1687145D+00
EXPONENTS  0.1687145D+00 0.1687145D+00 0.8000000D+00 0.8000000D+00 0.8000000D+00
EXPONENTS  0.8000000D+00 0.8000000D+00 0.8000000D+00 0.3047525D+04 0.4573695D+03
EXPONENTS  0.1039487D+03 0.2921016D+02 0.9286663D+01 0.3163927D+01 0.7868272D+01
EXPONENTS  0.1881289D+01 0.5442493D+00 0.7868272D+01 0.1881289D+01 0.5442493D+00
EXPONENTS  0.7868272D+01 0.1881289D+01 0.5442493D+00 0.7868272D+01 0.1881289D+01
EXPONENTS  0.5442493D+00 0.1687145D+00 0.1687145D+00 0.1687145D+00 0.1687145D+00
EXPONENTS  0.8000000D+00 0.8000000D+00 0.8000000D+00 0.8000000D+00 0.8000000D+00
EXPONENTS  0.8000000D+00 0.3047525D+04 0.4573695D+03 0.1039487D+03 0.2921016D+02
EXPONENTS  0.9286663D+01 0.3163927D+01 0.7868272D+01 0.1881289D+01 0.5442493D+00
EXPONENTS  0.7868272D+01 0.1881289D+01 0.5442493D+00 0.7868272D+01 0.1881289D+01
EXPONENTS  0.5442493D+00 0.7868272D+01 0.1881289D+01 0.5442493D+00 0.1687145D+00
EXPONENTS  0.1687145D+00 0.1687145D+00 0.1687145D+00 0.8000000D+00 0.8000000D+00
EXPONENTS  0.8000000D+00 0.8000000D+00 0.8000000D+00 0.8000000D+00 0.3047525D+04
EXPONENTS  0.4573695D+03 0.1039487D+03 0.2921016D+02 0.9286663D+01 0.3163927D+01
EXPONENTS  0.7868272D+01 0.1881289D+01 0.5442493D+00 0.7868272D+01 0.1881289D+01
EXPONENTS  0.5442493D+00 0.7868272D+01 0.1881289D+01 0.5442493D+00 0.7868272D+01
EXPONENTS  0.1881289D+01 0.5442493D+00 0.1687145D+00 0.1687145D+00 0.1687145D+00
EXPONENTS  0.1687145D+00 0.8000000D+00 0.8000000D+00 0.8000000D+00 0.8000000D+00
EXPONENTS  0.8000000D+00 0.8000000D+00 0.3047525D+04 0.4573695D+03 0.1039487D+03
EXPONENTS  0.2921016D+02 0.9286663D+01 0.3163927D+01 0.7868272D+01 0.1881289D+01
EXPONENTS  0.5442493D+00 0.7868272D+01 0.1881289D+01 0.5442493D+00 0.7868272D+01
EXPONENTS  0.1881289D+01 0.5442493D+00 0.7868272D+01 0.1881289D+01 0.5442493D+00
EXPONENTS  0.1687145D+00 0.1687145D+00 0.1687145D+00 0.1687145D+00 0.8000000D+00
EXPONENTS  0.8000000D+00 0.8000000D+00 0.8000000D+00 0.8000000D+00 0.8000000D+00
EXPONENTS  0.3047525D+04 0.4573695D+03 0.1039487D+03 0.2921016D+02 0.9286663D+01
EXPONENTS  0.3163927D+01 0.7868272D+01 0.1881289D+01 0.5442493D+00 0.7868272D+01
EXPONENTS  0.1881289D+01 0.5442493D+00 0.7868272D+01 0.1881289D+01 0.5442493D+00
EXPONENTS  0.7868272D+01 0.1881289D+01 0.5442493D+00 0.1687145D+00 0.1687145D+00
EXPONENTS  0.1687145D+00 0.1687145D+00 0.8000000D+00 0.8000000D+00 0.8000000D+00
EXPONENTS  0.8000000D+00 0.8000000D+00 0.8000000D+00 0.1873114D+02 0.2825394D+01
EXPONENTS  0.6401217D+00 0.1612778D+00 0.1873114D+02 0.2825394D+01 0.6401217D+00
EXPONENTS  0.1612778D+00 0.1873114D+02 0.2825394D+01 0.6401217D+00 0.1612778D+00
EXPONENTS  0.5484672D+04 0.8252349D+03 0.1880470D+03 0.5296450D+02 0.1689757D+02
EXPONENTS  0.5799635D+01 0.1553962D+02 0.3599934D+01 0.1013762D+01 0.1553962D+02
EXPONENTS  0.3599934D+01 0.1013762D+01 0.1553962D+02 0.3599934D+01 0.1013762D+01
EXPONENTS  0.1553962D+02 0.3599934D+01 0.1013762D+01 0.2700058D+00 0.2700058D+00
EXPONENTS  0.2700058D+00 0.2700058D+00 0.8000000D+00 0.8000000D+00 0.8000000D+00
EXPONENTS  0.8000000D+00 0.8000000D+00 0.8000000D+00 0.5484672D+04 0.8252349D+03
EXPONENTS  0.1880470D+03 0.5296450D+02 0.1689757D+02 0.5799635D+01 0.1553962D+02
EXPONENTS  0.3599934D+01 0.1013762D+01 0.1553962D+02 0.3599934D+01 0.1013762D+01
EXPONENTS  0.1553962D+02 0.3599934D+01 0.1013762D+01 0.1553962D+02 0.3599934D+01
EXPONENTS  0.1013762D+01 0.2700058D+00 0.2700058D+00 0.2700058D+00 0.2700058D+00
EXPONENTS  0.8000000D+00 0.8000000D+00 0.8000000D+00 0.8000000D+00 0.8000000D+00
EXPONENTS  0.8000000D+00 0.3047525D+04 0.4573695D+03 0.1039487D+03 0.2921016D+02
EXPONENTS  0.9286663D+01 0.3163927D+01 0.7868272D+01 0.1881289D+01 0.5442493D+00
EXPONENTS  0.7868272D+01 0.1881289D+01 0.5442493D+00 0.7868272D+01 0.1881289D+01
EXPONENTS  0.5442493D+00 0.7868272D+01 0.1881289D+01 0.5442493D+00 0.1687145D+00
EXPONENTS  0.1687145D+00 0.1687145D+00 0.1687145D+00 0.8000000D+00 0.8000000D+00
EXPONENTS  0.8000000D+00 0.8000000D+00 0.8000000D+00 0.8000000D+00 0.1873114D+02
EXPONENTS  0.2825394D+01 0.6401217D+00 0.1612778D+00 0.1873114D+02 0.2825394D+01
EXPONENTS  0.6401217D+00 0.1612778D+00 0.5484672D+04 0.8252349D+03 0.1880470D+03
EXPONENTS  0.5296450D+02 0.1689757D+02 0.5799635D+01 0.1553962D+02 0.3599934D+01
EXPONENTS  0.1013762D+01 0.1553962D+02 0.3599934D+01 0.1013762D+01 0.1553962D+02
EXPONENTS  0.3599934D+01 0.1013762D+01 0.1553962D+02 0.3599934D+01 0.1013762D+01
EXPONENTS  0.2700058D+00 0.2700058D+00 0.2700058D+00 0.2700058D+00 0.8000000D+00
EXPONENTS  0.8000000D+00 0.8000000D+00 0.8000000D+00 0.8000000D+00 0.8000000D+00
EXPONENTS  0.1873114D+02 0.2825394D+01 0.6401217D+00 0.1612778D+00 0.1873114D+02
EXPONENTS  0.2825394D+01 0.6401217D+00 0.1612778D+00
MO    1     MO 0.0        OCC NO =    1.0000000  ORB. ENERGY =  -19.199172
 -0.22084013D-04 -0.40740691D-04 -0.65768108D-04 -0.85610535D-04 -0.73051624D-04
 -0.25222970D-04 -0.90945001D-04 -0.41916468D-04  0.11753815D-03  0.34589953D-03
  0.26521382D-03  0.13236028D-03  0.44309073D-03  0.33973387D-03  0.16955101D-03
 -0.28157614D-08 -0.21589472D-08 -0.10774660D-08 -0.15101570D-03 -0.48052771D-03
 -0.52065851D-03  0.57942699D-08 -0.10903659D-04 -0.17047803D-03 -0.96896920D-04
 -0.36622424D-04 -0.28306050D-08  0.25813710D-08  0.14845283D-04  0.27386649D-04
  0.44210542D-04  0.57548990D-04  0.49106657D-04  0.16955349D-04 -0.95644866D-04
 -0.44082631D-04  0.12361230D-03 -0.76886632D-04 -0.58951793D-04 -0.29421076D-04
 -0.56786558D-04 -0.43540331D-04 -0.21729676D-04  0.38945312D-08  0.29860795D-08
  0.14902629D-08 -0.61415352D-03 -0.78897657D-04  0.29786779D-03  0.12850786D-07
 -0.93401067D-04 -0.71987572D-04  0.63060064D-04 -0.78819403D-04  0.59074593D-08
 -0.38313421D-08 -0.29056419D-05 -0.53603419D-05 -0.86532539D-05 -0.11263965D-04
 -0.96115621D-05 -0.33186414D-05  0.20025021D-04  0.92295138D-05 -0.25880520D-04
  0.76737874D-04  0.58837735D-04  0.29364153D-04  0.52741407D-04  0.40438766D-04
  0.20181778D-04  0.16054504D-08  0.12309575D-08  0.61433408D-09  0.31313337D-03
  0.54691495D-04  0.15006895D-03  0.83036626D-08  0.60435176D-05  0.49350591D-04
  0.27363455D-06  0.80031101D-04 -0.27938108D-08  0.55252596D-08  0.32674918D-05
  0.60278843D-05  0.97308744D-05  0.12666707D-04  0.10808524D-04  0.37319236D-05
 -0.10373567D-04 -0.47811677D-05  0.13406893D-04  0.29299436D-04  0.22464949D-04
  0.11211584D-04  0.25070528D-04  0.19222491D-04  0.95933700D-05  0.34410557D-08
  0.26383832D-08  0.13167381D-08 -0.30491423D-04 -0.70817409D-04 -0.68330264D-05
  0.67964426D-09 -0.99073023D-05  0.12340413D-04  0.21420229D-04  0.22655324D-04
  0.70432547D-08 -0.20282638D-08  0.93016326D-05  0.17159696D-04  0.27701070D-04
  0.36058562D-04  0.30768836D-04  0.10623740D-04 -0.29127134D-04 -0.13424669D-04
  0.37644174D-04  0.16300187D-05  0.12497949D-05  0.62373527D-06  0.84287252D-04
  0.64626119D-04  0.32252963D-04  0.70979288D-08  0.54422416D-08  0.27160600D-08
  0.11472142D-03 -0.35208685D-04 -0.16105173D-04  0.12772494D-08  0.34242610D-04
 -0.32108785D-05  0.57121094D-04 -0.10351875D-05  0.42692471D-09 -0.34778855D-08
  0.11176626D-04  0.20618693D-04  0.33284963D-04  0.43327132D-04  0.36971121D-04
  0.12765239D-04 -0.58756003D-04 -0.27080588D-04  0.75936796D-04  0.69031727D-04
  0.52929150D-04  0.26415355D-04  0.18527879D-04  0.14206003D-04  0.70897910D-05
 -0.32846425D-08 -0.25184555D-08 -0.12568858D-08  0.23725571D-05  0.23756102D-03
  0.32322698D-04 -0.77135093D-08 -0.34992536D-05 -0.76332794D-05  0.35402916D-04
  0.58171643D-04  0.78672320D-08 -0.30466331D-08 -0.20347190D-04 -0.34512685D-04
 -0.39291472D-04 -0.60734050D-04 -0.37223650D-05 -0.63138355D-05 -0.71880786D-05
 -0.18263546D-04 -0.11436150D-05 -0.19397876D-05 -0.22083796D-05 -0.19418708D-04
  0.25124454D-04  0.46242407D-04  0.74828944D-04  0.98364741D-04  0.84366867D-04
  0.28846465D-04 -0.15713919D-03 -0.70115201D-04  0.20705113D-03 -0.74635084D-04
 -0.57502308D-04 -0.25246611D-04  0.15727144D-03  0.12116916D-03  0.53199790D-04
 -0.72615578D-09 -0.55946388D-09 -0.24563478D-09 -0.43681313D-03  0.10564181D-03
 -0.16992708D-04 -0.39772822D-09  0.18489092D-03  0.23430837D-03  0.24006158D-03
  0.87216907D-05  0.32890194D-10  0.25150168D-08  0.82560746D+00  0.15195584D+01
  0.24589324D+01  0.32323355D+01  0.27723554D+01  0.94791538D+00 -0.15842726D-01
 -0.70689937D-02  0.20874833D-01 -0.33700704D-02 -0.25964576D-02 -0.11399847D-02
  0.14559975D-03  0.11217676D-03  0.49251640D-04  0.80587632D-07  0.62088426D-07
  0.27260163D-07  0.39002095D-02 -0.12244081D-03 -0.36810229D-03  0.89376773D-09
 -0.93343700D-02 -0.91924018D-02 -0.92296101D-02  0.14876158D-03  0.69329436D-08
 -0.47001768D-08  0.57910374D-05  0.10683333D-04  0.17246212D-04  0.22449444D-04
  0.19156151D-04  0.66141588D-05 -0.21042125D-04 -0.96982963D-05  0.27195035D-04
 -0.11422597D-04 -0.87581232D-05 -0.43709173D-05 -0.34005574D-05 -0.26073317D-05
 -0.13012413D-05  0.44677794D-08  0.34256098D-08  0.17096194D-08 -0.50747564D-04
 -0.12759720D-04 -0.26669269D-04 -0.71949422D-08 -0.72952396D-05  0.17498382D-04
  0.24270262D-04 -0.38516624D-04 -0.23224594D-08  0.18334699D-07  0.24773433D-05
  0.42020431D-05  0.47838776D-05  0.11458912D-06  0.24811040D-05  0.42084220D-05
  0.47911397D-05  0.12864529D-06 -0.65752001D-05 -0.12101878D-04 -0.19583123D-04
 -0.25742564D-04 -0.22079247D-04 -0.75492696D-05  0.26689914D-05  0.11908988D-05
 -0.35167400D-05  0.56217279D-04  0.43312383D-04  0.19016469D-04  0.67862419D-05
  0.52284336D-05  0.22955639D-05 -0.16234569D-07 -0.12507860D-07 -0.54916245D-08
  0.24980528D-04 -0.19596803D-04 -0.98805859D-05  0.12328987D-07 -0.40121308D-05
  0.94874483D-06  0.10869188D-04  0.10116159D-04 -0.96966140D-08 -0.19074302D-08
 -0.60844127D-05 -0.10320316D-04 -0.11749315D-04 -0.37295826D-05  0.90731523D-04
  0.15389784D-03  0.17520725D-03 -0.18738121D-03
MO    2     MO 0.0        OCC NO =    1.0000000  ORB. ENERGY =  -19.166255
  0.86715302D-05  0.15997280D-04  0.25824570D-04  0.33615917D-04  0.28684523D-04
  0.99040764D-05 -0.40675911D-04 -0.18747490D-04  0.52569919D-04 -0.18045278D-04
 -0.13835975D-04 -0.69051212D-05  0.47942558D-04  0.36759313D-04  0.18345473D-04
  0.41626352D-07  0.31916447D-07  0.15928544D-07 -0.37591371D-03  0.37635389D-03
 -0.16957737D-03 -0.50079770D-07 -0.75898832D-04  0.19373874D-04  0.42550532D-04
 -0.16291421D-04  0.27103894D-07 -0.55642060D-08 -0.76524757D-05 -0.14117323D-04
 -0.22789737D-04 -0.29665466D-04 -0.25313596D-04 -0.87401765D-05  0.33250302D-04
  0.15325034D-04 -0.42972995D-04 -0.13553493D-03 -0.10391959D-03 -0.51863156D-04
 -0.79421051D-04 -0.60895025D-04 -0.30390885D-04 -0.10039815D-06 -0.76978932D-07
 -0.38417882D-07  0.34311350D-03  0.42371011D-03  0.20950461D-03  0.35079167D-07
  0.10669015D-03 -0.98102990D-04 -0.71852309D-05 -0.66545234D-04 -0.40042724D-07
 -0.46428764D-08 -0.17539646D-04 -0.32357221D-04 -0.52234588D-04 -0.67993913D-04
 -0.58019329D-04 -0.20032680D-04  0.40907024D-04  0.18854010D-04 -0.52868611D-04
  0.48679411D-04  0.37324285D-04  0.18627434D-04  0.39261525D-04  0.30103247D-04
  0.15023630D-04 -0.23065976D-07 -0.17685527D-07 -0.88263176D-08  0.54150288D-03
 -0.17621633D-03  0.16622375D-03  0.50319173D-08 -0.35653163D-04 -0.48397633D-04
 -0.67059470D-04  0.11269196D-03 -0.43378881D-07  0.76315778D-07  0.36638642D-05
  0.67591140D-05  0.10911306D-04  0.14203278D-04  0.12119683D-04  0.41846352D-05
 -0.92499631D-05 -0.42632996D-05  0.11954737D-04 -0.21291430D-04 -0.16324918D-04
 -0.81472782D-05  0.35132209D-04  0.26937149D-04  0.13443525D-04  0.45933590D-07
  0.35218963D-07  0.17576731D-07  0.44694678D-04  0.27746896D-04  0.19608634D-04
 -0.11307055D-07  0.55009531D-05  0.31311199D-04  0.15511427D-04  0.17764101D-04
 -0.41468288D-08  0.88948514D-08  0.11265381D-05  0.20782428D-05  0.33549282D-05
  0.43671197D-05  0.37264711D-05  0.12866609D-05 -0.76645669D-05 -0.35325919D-05
  0.99057563D-05  0.12221935D-04  0.93710044D-05  0.46767880D-05 -0.26424343D-04
 -0.20260510D-04 -0.10111415D-04 -0.62418652D-08 -0.47858663D-08 -0.23884827D-08
 -0.13880961D-03 -0.38656450D-04 -0.23487484D-04  0.23239272D-08 -0.72385490D-05
 -0.73916577D-05  0.37257160D-05 -0.15604961D-04 -0.15652103D-07 -0.73822454D-08
  0.35483173D-06  0.65459526D-06  0.10567197D-05  0.13755351D-05  0.11737466D-05
  0.40526649D-06 -0.98165879D-05 -0.45244564D-05  0.12687048D-04  0.29531934D-04
  0.22643214D-04  0.11300551D-04  0.19499677D-04  0.14951115D-04  0.74616544D-05
 -0.62710296D-08 -0.48082278D-08 -0.23996426D-08 -0.16891644D-03 -0.51920055D-04
 -0.17745309D-03  0.35496022D-08 -0.16211768D-04 -0.32941346D-04  0.68883326D-05
  0.11831566D-04 -0.11682374D-08  0.19064127D-07  0.31320867D-04  0.53126118D-04
  0.60482208D-04 -0.13449005D-03  0.70665406D-05  0.11986190D-04  0.13645854D-04
  0.29711951D-05  0.70670490D-05  0.11987053D-04  0.13646836D-04  0.99322818D-05
 -0.14823996D-05 -0.27284067D-05 -0.44150771D-05 -0.58037424D-05 -0.49778361D-05
 -0.17020067D-05  0.20868983D-04  0.93116995D-05 -0.27497573D-04 -0.22875776D-04
 -0.17624553D-04 -0.77381279D-05 -0.40925195D-05 -0.31530657D-05 -0.13843657D-05
  0.83469031D-08  0.64308389D-08  0.28234846D-08  0.10417771D-03 -0.25916180D-04
  0.29160996D-04 -0.30477947D-08 -0.13158621D-04 -0.40671018D-04  0.32641796D-05
 -0.28510882D-04  0.65877953D-08  0.15384505D-08  0.19484650D-05  0.35862158D-05
  0.58031741D-05  0.76284348D-05  0.65428642D-05  0.22371164D-05  0.21460325D-04
  0.95755553D-05 -0.28276743D-04  0.35454449D-04  0.27315742D-04  0.11993082D-04
 -0.33860024D-04 -0.26087323D-04 -0.11453740D-04 -0.30473585D-07 -0.23478254D-07
 -0.10308218D-07  0.59611253D-04 -0.86176319D-04  0.25950549D-04  0.18970223D-07
  0.31741428D-04 -0.47022288D-04 -0.13578579D-04  0.46585846D-04 -0.11462442D-07
 -0.27327795D-07  0.12710223D-04  0.23447880D-04  0.37852149D-04  0.49272251D-04
  0.42044101D-04  0.14516818D-04 -0.14919375D-03 -0.68763261D-04  0.19281936D-03
 -0.16796942D-03 -0.12878830D-03 -0.64274388D-04  0.37122301D-03  0.28463025D-03
  0.14205045D-03 -0.23396578D-06 -0.17939012D-06 -0.89528242D-07 -0.64423414D-03
 -0.95108167D-04 -0.20290007D-03  0.13543918D-06  0.22527814D-04  0.24928666D-03
  0.35209990D-04 -0.27218983D-03  0.11932014D-06 -0.16706443D-06  0.20882434D-04
  0.35420560D-04  0.40325055D-04  0.21279880D-05  0.20877441D-04  0.35412092D-04
  0.40315415D-04  0.20676637D-05  0.82567997D+00  0.15196919D+01  0.24591484D+01
  0.32326194D+01  0.27725988D+01  0.94799863D+00 -0.15977423D-01 -0.71290948D-02
  0.21052313D-01 -0.22819086D-02 -0.17580876D-02 -0.77189513D-03 -0.25336914D-02
 -0.19520726D-02 -0.85706504D-03  0.15186078D-05  0.11700054D-05  0.51369541D-06
  0.32819298D-02  0.21209935D-03 -0.10818161D-03  0.52974597D-07 -0.90805135D-02
 -0.91131221D-02 -0.90489628D-02 -0.15694007D-04  0.11477664D-06  0.99973416D-07
  0.10993444D-03  0.18646962D-03  0.21228907D-03 -0.19267891D-03 -0.11648549D-04
 -0.19758144D-04 -0.22493948D-04  0.23517551D-05
MO    3     MO 0.0        OCC NO =    1.0000000  ORB. ENERGY =  -19.124096
  0.29065505D-04  0.53620181D-04  0.86559597D-04  0.11267488D-03  0.96145676D-04
  0.33196792D-04 -0.11838989D-03 -0.54565790D-04  0.15300817D-03 -0.35466421D-04
 -0.27193402D-04 -0.13571413D-04  0.62560523D-04  0.47967441D-04  0.23939115D-04
  0.70543864D-08  0.54088561D-08  0.26993983D-08 -0.68660159D-03  0.41063376D-03
  0.53422345D-03  0.17462459D-08 -0.88193378D-05  0.79416357D-04  0.82637286D-04
  0.11126054D-03  0.91949004D-08 -0.96205160D-08 -0.53093332D-05 -0.97946830D-05
 -0.15811655D-04 -0.20582077D-04 -0.17562724D-04 -0.60639864D-05  0.34382987D-04
  0.15847087D-04 -0.44436887D-04  0.12443857D-03  0.95411601D-04  0.47617076D-04
 -0.19049047D-04 -0.14605601D-04 -0.72892184D-05 -0.72230967D-08 -0.55382124D-08
 -0.27639561D-08  0.68508604D-03  0.18083558D-03 -0.26110428D-03 -0.17244629D-07
  0.48419418D-04  0.23642279D-04  0.36659017D-05  0.90813301D-05 -0.33245148D-08
  0.32572862D-09  0.11888271D-04  0.21931539D-04  0.35404304D-04  0.46085884D-04
  0.39325168D-04  0.13578035D-04 -0.48672629D-04 -0.22433170D-04  0.62904950D-04
  0.60962905D-04  0.46742489D-04  0.23327778D-04 -0.13166978D-04 -0.10095604D-04
 -0.50384139D-05 -0.17912818D-08 -0.13734413D-08 -0.68544346D-09 -0.40951281D-03
 -0.28031200D-03 -0.28165068D-04  0.72030837D-08  0.30976420D-04 -0.53574320D-04
  0.51585913D-04 -0.11798573D-04 -0.44652083D-08 -0.67431080D-08 -0.41015979D-05
 -0.75666472D-05 -0.12214915D-04 -0.15900190D-04 -0.13567661D-04 -0.46845872D-05
  0.28534379D-04  0.13151469D-04 -0.36878092D-04  0.12897685D-03  0.98891265D-04
  0.49353672D-04  0.23105743D-04  0.17716018D-04  0.88415346D-05 -0.90571944D-08
 -0.69444822D-08 -0.34657833D-08  0.60000924D-03  0.17527339D-03  0.17915455D-03
  0.23538091D-08  0.65410201D-04  0.98303255D-05  0.84722332D-05 -0.50835962D-04
 -0.11767240D-07 -0.53140079D-08  0.15195979D-04  0.28033614D-04  0.45254945D-04
  0.58908492D-04  0.50266723D-04  0.17355892D-04 -0.94373074D-04 -0.43496464D-04
  0.12196862D-03 -0.83091947D-04 -0.63709634D-04 -0.31795573D-04 -0.27203282D-04
 -0.20857751D-04 -0.10409480D-04  0.10168327D-07  0.77964285D-08  0.38909642D-08
 -0.77423887D-03  0.32131768D-03 -0.39036330D-03 -0.42581975D-07 -0.97892641D-04
 -0.39050604D-04  0.55298874D-04 -0.22471096D-04  0.11973263D-07 -0.53600450D-08
 -0.47861633D-04 -0.88295368D-04 -0.14253610D-03 -0.18553965D-03 -0.15832132D-03
 -0.54664547D-04 -0.70176686D-04 -0.32344371D-04  0.90696991D-04  0.19218579D-03
  0.14735588D-03  0.73540910D-04  0.15795055D-04  0.12110646D-04  0.60440614D-05
 -0.72271668D-08 -0.55413331D-08 -0.27655136D-08 -0.10093167D-03 -0.12553272D-02
 -0.40858994D-04  0.36663665D-07 -0.10233409D-02 -0.13025458D-03 -0.21474746D-03
 -0.17595123D-04  0.36935487D-07  0.78128622D-08  0.12848122D-04  0.21792847D-04
  0.24810386D-04  0.82340588D-04  0.72587304D-05  0.12312181D-04  0.14016982D-04
  0.51407473D-04 -0.24237808D-04 -0.41111910D-04 -0.46804456D-04 -0.17648336D-03
  0.82552299D+00  0.15194030D+01  0.24586808D+01  0.32320048D+01  0.27720717D+01
  0.94781840D+00 -0.15671333D-01 -0.69925183D-02  0.20649000D-01 -0.33550074D-02
 -0.25848524D-02 -0.11348894D-02 -0.42697395D-04 -0.32896041D-04 -0.14443134D-04
  0.84792121D-07  0.65327758D-07  0.28682405D-07  0.47605706D-02 -0.69105086D-03
 -0.12919678D-04  0.12817644D-07 -0.90229398D-02 -0.96548867D-02 -0.94792402D-02
  0.20335272D-04 -0.19325573D-07 -0.21294435D-07  0.99453485D-04  0.18304750D-03
  0.29620541D-03  0.38937030D-03  0.33396065D-03  0.11418682D-03 -0.22640152D-03
 -0.10101992D-03  0.29831317D-03  0.45917096D-04  0.35376647D-04  0.15532254D-04
 -0.16800615D-03 -0.12943968D-03 -0.56830991D-04  0.80755129D-08  0.62217473D-08
  0.27316822D-08 -0.67491369D-03  0.92839291D-04  0.18091840D-03 -0.64857455D-08
  0.26249212D-03  0.23518863D-03  0.27400520D-03 -0.11163568D-03  0.16602923D-08
  0.98242324D-08  0.19492433D-05  0.35959734D-05  0.58050160D-05  0.75564060D-05
  0.64478949D-05  0.22263032D-05 -0.12221182D-04 -0.56327315D-05  0.15794767D-04
 -0.32323220D-04 -0.24783395D-04 -0.12368651D-04 -0.64112340D-05 -0.49157276D-05
 -0.24532926D-05 -0.84952939D-09 -0.65136525D-09 -0.32507691D-09 -0.14378994D-03
 -0.41006849D-04 -0.94159614D-05  0.18529826D-07 -0.13797681D-04 -0.89650068D-05
  0.54932019D-05  0.79599150D-05  0.80170882D-08  0.11047729D-07  0.20126743D-05
  0.34138766D-05  0.38865779D-05  0.25768398D-05  0.20110212D-05  0.34110726D-05
  0.38833856D-05  0.25649869D-05 -0.10056005D-04 -0.18508417D-04 -0.29950112D-04
 -0.39370260D-04 -0.33767644D-04 -0.11545731D-04  0.18764772D-04  0.83728048D-05
 -0.24725005D-04 -0.16584433D-04 -0.12777411D-04 -0.56099718D-05  0.46400567D-05
  0.35749135D-05  0.15695796D-05 -0.21715429D-08 -0.16730568D-08 -0.73456204D-09
  0.44867191D-04  0.12014002D-04 -0.13056781D-04  0.37242095D-08 -0.22653377D-04
 -0.16365669D-04 -0.24306769D-04 -0.10640495D-04  0.12922703D-07 -0.23269096D-08
  0.35817029D-06  0.60752461D-06  0.69164529D-06 -0.21612559D-05  0.46727817D-05
  0.79259222D-05  0.90233823D-05 -0.33428415D-04
MO    4     MO 0.0        OCC NO =    1.0000000  ORB. ENERGY =  -10.265710
  0.53249842D+00  0.98235560D+00  0.15858265D+01  0.20642750D+01  0.17614496D+01
  0.60818620D+00 -0.19977131D-01 -0.92074413D-02  0.25818627D-01  0.52998464D-03
  0.40635861D-03  0.20280143D-03  0.11093380D-02  0.85056999D-03  0.42449404D-03
 -0.37376303D-08 -0.28657778D-08 -0.14302240D-08 -0.35984479D-02  0.90555403D-03
  0.14318508D-02  0.11445423D-07 -0.10107247D-01 -0.98256665D-02 -0.10471486D-01
  0.88093516D-03 -0.19892015D-07 -0.22550247D-07  0.20654441D-02  0.38103411D-02
  0.61510720D-02  0.80068681D-02  0.68322751D-02  0.23590204D-02  0.28636423D-03
  0.13198501D-03 -0.37009975D-03 -0.41493351D-03 -0.31814470D-03 -0.15877650D-03
  0.12598299D-03  0.96595763D-04  0.48208056D-04  0.21597153D-07  0.16559327D-07
  0.82642647D-08  0.24100550D-02  0.72187913D-03 -0.86966786D-03 -0.62813540D-07
 -0.39548973D-03 -0.29948415D-03 -0.38769770D-03 -0.22889040D-03 -0.53791953D-08
  0.11207952D-07  0.21313719D-04  0.39319650D-04  0.63474106D-04  0.82624427D-04
  0.70503573D-04  0.24343189D-04 -0.60758836D-04 -0.28003692D-04  0.78525276D-04
 -0.13384106D-03 -0.10262083D-03 -0.51214989D-04 -0.61342379D-04 -0.47033446D-04
 -0.23472986D-04  0.25340249D-08  0.19429296D-08  0.96965802D-09 -0.11820959D-02
 -0.44212226D-03 -0.18683792D-03 -0.40821059D-08  0.25244694D-04  0.55306921D-04
  0.18875527D-04 -0.11277088D-04  0.12046491D-07  0.54420686D-08 -0.58788797D-04
 -0.10845385D-03 -0.17507814D-03 -0.22789972D-03 -0.19446725D-03 -0.67144867D-04
  0.11922738D-03  0.54951789D-04 -0.15409055D-03 -0.36788613D-04 -0.28207175D-04
 -0.14077357D-04 -0.76239463D-04 -0.58455584D-04 -0.29173433D-04 -0.82943051D-08
 -0.63595470D-08 -0.31738597D-08  0.87600085D-03  0.32584657D-03  0.32344646D-03
  0.67387984D-08  0.21262076D-04 -0.36159821D-04 -0.12926912D-03 -0.30148232D-04
 -0.20474684D-07  0.24460357D-09  0.17737704D-04  0.32722600D-04  0.52824423D-04
  0.68761703D-04  0.58674486D-04  0.20258890D-04 -0.22138249D-04 -0.10203499D-04
  0.28611675D-04 -0.62794802D-04 -0.48147071D-04 -0.24028763D-04 -0.20781766D-03
 -0.15934140D-03 -0.79522525D-04 -0.25245202D-08 -0.19356420D-08 -0.96602100D-09
 -0.10477568D-02  0.33003698D-03 -0.33436001D-03 -0.41615483D-07  0.18746918D-04
  0.51837087D-04 -0.19889078D-04  0.48165087D-04  0.13025320D-07 -0.24778140D-08
  0.48769078D-02  0.89969426D-02  0.14523855D-01  0.18905744D-01  0.16132305D-01
  0.55700974D-02  0.13361364D-03  0.61582405D-04 -0.17268349D-03  0.15223435D-03
  0.11672364D-03  0.58253278D-04 -0.20844827D-03 -0.15982491D-03 -0.79763831D-04
 -0.14190342D-07 -0.10880254D-07 -0.54300093D-08  0.17080058D-02 -0.11087985D-02
  0.27296439D-03  0.51324097D-07 -0.36010906D-03 -0.69701517D-03 -0.45975912D-03
  0.37580285D-04 -0.27285877D-08 -0.15778970D-07  0.35477617D-04  0.60176753D-04
  0.68509106D-04  0.32775758D-03  0.17895153D-04  0.30353566D-04  0.34556462D-04
  0.13218602D-03 -0.19705334D-04 -0.33423976D-04 -0.38052015D-04 -0.75420022D-04
 -0.87856329D-04 -0.16170255D-03 -0.26166524D-03 -0.34396629D-03 -0.29501788D-03
 -0.10087162D-03  0.30396493D-03  0.13562856D-03 -0.40051296D-03 -0.92577302D-05
 -0.71325821D-05 -0.31315877D-05  0.96696209D-04  0.74499216D-04  0.32709169D-04
  0.96029679D-08  0.73985691D-08  0.32483703D-08  0.91447151D-03 -0.15376796D-03
 -0.96534329D-04 -0.50633454D-08 -0.26725331D-03 -0.29723639D-03 -0.33280106D-03
  0.28984773D-04  0.47886106D-08  0.28653054D-08  0.10249960D-03  0.18865398D-03
  0.30527775D-03  0.40129615D-03  0.34418938D-03  0.11768419D-03 -0.65717305D-03
 -0.29322934D-03  0.86591016D-03  0.81204353D-04  0.62563577D-04  0.27468780D-04
  0.37120339D-04  0.28599220D-04  0.12556598D-04  0.19518044D-07  0.15037601D-07
  0.66023168D-08 -0.16221533D-02  0.40502187D-03  0.68184733D-03 -0.15384587D-07
  0.43494316D-03 -0.21319270D-03  0.93129211D-03 -0.10805814D-02  0.28603780D-07
  0.18322143D-07 -0.87155335D-04 -0.16078457D-03 -0.25955616D-03 -0.33786499D-03
 -0.28830081D-03 -0.99543342D-04  0.60547280D-04  0.27906186D-04 -0.78251858D-04
 -0.12048887D-04 -0.92383223D-05 -0.46105703D-05 -0.19823764D-04 -0.15199605D-04
 -0.75856679D-05 -0.79998831D-08 -0.61338030D-08 -0.30611976D-08  0.15696793D-05
  0.12681419D-04  0.23130383D-04  0.37758194D-07  0.53765165D-05 -0.80394618D-04
 -0.68344544D-04  0.82036353D-04  0.45625367D-08 -0.67718514D-08 -0.56108785D-05
 -0.95171118D-05 -0.10834895D-04 -0.27648192D-05 -0.56203365D-05 -0.95331545D-05
 -0.10853159D-04 -0.28087524D-05 -0.92259149D-05 -0.16980608D-04 -0.27477830D-04
 -0.36120376D-04 -0.30980237D-04 -0.10592669D-04  0.29453799D-04  0.13142228D-04
 -0.38809175D-04 -0.15066485D-03 -0.11607915D-03 -0.50964998D-04  0.23679188D-04
  0.18243538D-04  0.80098957D-05  0.87446684D-08  0.67372956D-08  0.29580356D-08
  0.21023799D-04  0.62080686D-04 -0.86419265D-05 -0.10574499D-07 -0.15091248D-04
 -0.22942395D-04 -0.67136434D-04 -0.27709341D-04  0.43694213D-07 -0.22990482D-07
  0.11858829D-04  0.20114819D-04  0.22900011D-04  0.12574743D-04  0.39064657D-04
  0.66261052D-04  0.75435866D-04 -0.55468968D-04
MO    5     MO 0.0        OCC NO =    1.0000000  ORB. ENERGY =  -10.257468
  0.46645715D-04  0.86052237D-04  0.13891499D-03  0.18082604D-03  0.15429919D-03
  0.53275803D-04  0.79213799D-04  0.36509568D-04 -0.10237664D-03  0.24306849D-04
  0.18636950D-04  0.93011444D-05 -0.93639259D-05 -0.71796645D-05 -0.35831558D-05
  0.29100512D-07  0.22312427D-07  0.11135465D-07  0.33809383D-03 -0.21941282D-03
 -0.14925927D-03 -0.19211000D-07  0.10281084D-04 -0.56239458D-04 -0.89155685D-04
 -0.25965723D-04  0.14739050D-09  0.57382478D-08 -0.13067363D-04 -0.24106733D-04
 -0.38915742D-04 -0.50656733D-04 -0.43225482D-04 -0.14924720D-04  0.30403329D-04
  0.14012867D-04 -0.39293541D-04  0.13703946D-03  0.10507316D-03  0.52438873D-04
 -0.17178370D-06 -0.13171284D-06 -0.65733939D-07 -0.56771934D-07 -0.43529118D-07