Title Card Required                                                     
SP        UB3LYP                                                      6-311G(d,p)         
Number of atoms                            I               17
Info1-9                                    I   N=           9
          45          44           0           0           0         110
           1          18        -502
Full Title                                 C   N=           2
Title Card Required     
Route                                      C   N=           5
# ub3lyp/6-311g(d,p) geom=connectivity temperature=823.15   
Charge                                     I                0
Multiplicity                               I                2
Number of electrons                        I               73
Number of alpha electrons                  I               37
Number of beta electrons                   I               36
Number of basis functions                  I              222
Number of independent functions            I              222
Number of point charges in /Mol/           I                0
Number of translation vectors              I                0
Atomic numbers                             I   N=          17
           6           6           6           6           6           6
           1           1           1           8           8           6
           1           1           8           1           1
Nuclear charges                            R   N=          17
  6.00000000E+00  6.00000000E+00  6.00000000E+00  6.00000000E+00  6.00000000E+00
  6.00000000E+00  1.00000000E+00  1.00000000E+00  1.00000000E+00  8.00000000E+00
  8.00000000E+00  6.00000000E+00  1.00000000E+00  1.00000000E+00  8.00000000E+00
  1.00000000E+00  1.00000000E+00
Current cartesian coordinates              R   N=          51
  1.87561536E+00  1.56263537E+00  8.84806013E-05 -7.47985904E-01  1.51142002E+00
  1.90525812E-04 -2.04252767E+00 -7.81501852E-01  1.35723754E-04 -6.77066381E-01
 -3.09059789E+00 -9.78515719E-06  1.90640466E+00 -3.09744248E+00 -1.38286534E-04
  3.36680769E+00 -7.77272656E-01 -5.89180364E-05 -1.82489358E+00  3.25536511E+00
  3.26586093E-04 -1.71078437E+00 -4.86340477E+00 -1.34507081E-04  2.98522851E+00
 -4.83773285E+00 -3.57494764E-04  5.71678039E+00 -7.47190110E-01 -1.15609820E-04
  3.22004212E+00  3.71878075E+00  7.14730662E-05 -4.88600802E+00 -8.58434487E-01
  4.07844316E-04 -5.52038719E+00 -1.92110118E+00 -1.67226812E+00 -5.52009051E+00
 -1.91950626E+00  1.67421764E+00 -5.88223194E+00  1.63031403E+00 -6.18276969E-04
 -7.69449820E+00  1.51918869E+00 -2.66787910E-04  2.07726237E+00  5.13911780E+00
  8.84806013E-05
Number of symbols in /Mol/                 I                0
Force Field                                I                0
Atom Types                                 C   N=          17
                                                            
                                                            
                                                            
                        
Int Atom Types                             I   N=          17
           0           0           0           0           0           0
           0           0           0           0           0           0
           0           0           0           0           0
MM charges                                 R   N=          17
  0.00000000E+00  0.00000000E+00  0.00000000E+00  0.00000000E+00  0.00000000E+00
  0.00000000E+00  0.00000000E+00  0.00000000E+00  0.00000000E+00  0.00000000E+00
  0.00000000E+00  0.00000000E+00  0.00000000E+00  0.00000000E+00  0.00000000E+00
  0.00000000E+00  0.00000000E+00
Integer atomic weights                     I   N=          17
          12          12          12          12          12          12
           1           1           1          16          16          12
           1           1          16           1           1
Real atomic weights                        R   N=          17
  1.20000000E+01  1.20000000E+01  1.20000000E+01  1.20000000E+01  1.20000000E+01
  1.20000000E+01  1.00782504E+00  1.00782504E+00  1.00782504E+00  1.59949146E+01
  1.59949146E+01  1.20000000E+01  1.00782504E+00  1.00782504E+00  1.59949146E+01
  1.00782504E+00  1.00782504E+00
Atom fragment info                         I   N=          17
           0           0           0           0           0           0
           0           0           0           0           0           0
           0           0           0           0           0
Atom residue num                           I   N=          17
           0           0           0           0           0           0
           0           0           0           0           0           0
           0           0           0           0           0
Nuclear spins                              I   N=          17
           0           0           0           0           0           0
           1           1           1           0           0           0
           1           1           0           1           1
Nuclear ZEff                               R   N=          17
 -3.60000000E+00 -3.60000000E+00 -3.60000000E+00 -3.60000000E+00 -3.60000000E+00
 -3.60000000E+00 -1.00000000E+00 -1.00000000E+00 -1.00000000E+00 -5.60000000E+00
 -5.60000000E+00 -3.60000000E+00 -1.00000000E+00 -1.00000000E+00 -5.60000000E+00
 -1.00000000E+00 -1.00000000E+00
Nuclear ZNuc                               R   N=          17
  6.00000000E+00  6.00000000E+00  6.00000000E+00  6.00000000E+00  6.00000000E+00
  6.00000000E+00  1.00000000E+00  1.00000000E+00  1.00000000E+00  8.00000000E+00
  8.00000000E+00  6.00000000E+00  1.00000000E+00  1.00000000E+00  8.00000000E+00
  1.00000000E+00  1.00000000E+00
Nuclear QMom                               R   N=          17
  0.00000000E+00  0.00000000E+00  0.00000000E+00  0.00000000E+00  0.00000000E+00
  0.00000000E+00  0.00000000E+00  0.00000000E+00  0.00000000E+00  0.00000000E+00
  0.00000000E+00  0.00000000E+00  0.00000000E+00  0.00000000E+00  0.00000000E+00
  0.00000000E+00  0.00000000E+00
Nuclear GFac                               R   N=          17
  0.00000000E+00  0.00000000E+00  0.00000000E+00  0.00000000E+00  0.00000000E+00
  0.00000000E+00  2.79284600E+00  2.79284600E+00  2.79284600E+00  0.00000000E+00
  0.00000000E+00  0.00000000E+00  2.79284600E+00  2.79284600E+00  0.00000000E+00
  2.79284600E+00  2.79284600E+00
MicOpt                                     I   N=          17
          -1          -1          -1          -1          -1          -1
          -1          -1          -1          -1          -1          -1
          -1          -1          -1          -1          -1
Number of residues                         I                0
Number of secondary structures             I                0
SymInf integers                            I   N=          26
           1           1           1           1           1           0
           0           0           0           0           0           0
           0           0           0           0           0           0
           0           0           0           0           0           0
           0           0
RotTr to input orientation                 R   N=          12
 -1.00000000E+00  1.99415829E-09  0.00000000E+00  1.99415829E-09  1.00000000E+00
  0.00000000E+00  0.00000000E+00  0.00000000E+00 -1.00000000E+00 -1.81206615E-07
 -5.17733183E-08 -3.36526570E-07
Number of contracted shells                I               78
Number of primitive shells                 I              162
Pure/Cartesian d shells                    I                0
Pure/Cartesian f shells                    I                0
Highest angular momentum                   I                2
Largest degree of contraction              I                6
Shell types                                I   N=          78
           0          -1          -1          -1          -2           0
          -1          -1          -1          -2           0          -1
          -1          -1          -2           0          -1          -1
          -1          -2           0          -1          -1          -1
          -2           0          -1          -1          -1          -2
           0           0           0           1           0           0
           0           1           0           0           0           1
           0          -1          -1          -1          -2           0
          -1          -1          -1          -2           0          -1
          -1          -1          -2           0           0           0
           1           0           0           0           1           0
          -1          -1          -1          -2           0           0
           0           1           0           0           0           1
Number of primitives per shell             I   N=          78
           6           3           1           1           1           6
           3           1           1           1           6           3
           1           1           1           6           3           1
           1           1           6           3           1           1
           1           6           3           1           1           1
           3           1           1           1           3           1
           1           1           3           1           1           1
           6           3           1           1           1           6
           3           1           1           1           6           3
           1           1           1           3           1           1
           1           3           1           1           1           6
           3           1           1           1           3           1
           1           1           3           1           1           1
Shell to atom map                          I   N=          78
           1           1           1           1           1           2
           2           2           2           2           3           3
           3           3           3           4           4           4
           4           4           5           5           5           5
           5           6           6           6           6           6
           7           7           7           7           8           8
           8           8           9           9           9           9
          10          10          10          10          10          11
          11          11          11          11          12          12
          12          12          12          13          13          13
          13          14          14          14          14          15
          15          15          15          15          16          16
          16          16          17          17          17          17
Primitive exponents                        R   N=         162
  4.56324000E+03  6.82024000E+02  1.54973000E+02  4.44553000E+01  1.30290000E+01
  1.82773000E+00  2.09642000E+01  4.80331000E+00  1.45933000E+00  4.83456000E-01
  1.45585000E-01  6.26000000E-01  4.56324000E+03  6.82024000E+02  1.54973000E+02
  4.44553000E+01  1.30290000E+01  1.82773000E+00  2.09642000E+01  4.80331000E+00
  1.45933000E+00  4.83456000E-01  1.45585000E-01  6.26000000E-01  4.56324000E+03
  6.82024000E+02  1.54973000E+02  4.44553000E+01  1.30290000E+01  1.82773000E+00
  2.09642000E+01  4.80331000E+00  1.45933000E+00  4.83456000E-01  1.45585000E-01
  6.26000000E-01  4.56324000E+03  6.82024000E+02  1.54973000E+02  4.44553000E+01
  1.30290000E+01  1.82773000E+00  2.09642000E+01  4.80331000E+00  1.45933000E+00
  4.83456000E-01  1.45585000E-01  6.26000000E-01  4.56324000E+03  6.82024000E+02
  1.54973000E+02  4.44553000E+01  1.30290000E+01  1.82773000E+00  2.09642000E+01
  4.80331000E+00  1.45933000E+00  4.83456000E-01  1.45585000E-01  6.26000000E-01
  4.56324000E+03  6.82024000E+02  1.54973000E+02  4.44553000E+01  1.30290000E+01
  1.82773000E+00  2.09642000E+01  4.80331000E+00  1.45933000E+00  4.83456000E-01
  1.45585000E-01  6.26000000E-01  3.38650000E+01  5.09479000E+00  1.15879000E+00
  3.25840000E-01  1.02741000E-01  7.50000000E-01  3.38650000E+01  5.09479000E+00
  1.15879000E+00  3.25840000E-01  1.02741000E-01  7.50000000E-01  3.38650000E+01
  5.09479000E+00  1.15879000E+00  3.25840000E-01  1.02741000E-01  7.50000000E-01
  8.58850000E+03  1.29723000E+03  2.99296000E+02  8.73771000E+01  2.56789000E+01
  3.74004000E+00  4.21175000E+01  9.62837000E+00  2.85332000E+00  9.05661000E-01
  2.55611000E-01  1.29200000E+00  8.58850000E+03  1.29723000E+03  2.99296000E+02
  8.73771000E+01  2.56789000E+01  3.74004000E+00  4.21175000E+01  9.62837000E+00
  2.85332000E+00  9.05661000E-01  2.55611000E-01  1.29200000E+00  4.56324000E+03
  6.82024000E+02  1.54973000E+02  4.44553000E+01  1.30290000E+01  1.82773000E+00
  2.09642000E+01  4.80331000E+00  1.45933000E+00  4.83456000E-01  1.45585000E-01
  6.26000000E-01  3.38650000E+01  5.09479000E+00  1.15879000E+00  3.25840000E-01
  1.02741000E-01  7.50000000E-01  3.38650000E+01  5.09479000E+00  1.15879000E+00
  3.25840000E-01  1.02741000E-01  7.50000000E-01  8.58850000E+03  1.29723000E+03
  2.99296000E+02  8.73771000E+01  2.56789000E+01  3.74004000E+00  4.21175000E+01
  9.62837000E+00  2.85332000E+00  9.05661000E-01  2.55611000E-01  1.29200000E+00
  3.38650000E+01  5.09479000E+00  1.15879000E+00  3.25840000E-01  1.02741000E-01
  7.50000000E-01  3.38650000E+01  5.09479000E+00  1.15879000E+00  3.25840000E-01
  1.02741000E-01  7.50000000E-01
Contraction coefficients                   R   N=         162
  1.96665025E-03  1.52306019E-02  7.61269097E-02  2.60801033E-01  6.16462078E-01
  2.21006028E-01  1.14660081E-01  9.19999648E-01 -3.03068213E-03  1.00000000E+00
  1.00000000E+00  1.00000000E+00  1.96665025E-03  1.52306019E-02  7.61269097E-02
  2.60801033E-01  6.16462078E-01  2.21006028E-01  1.14660081E-01  9.19999648E-01
 -3.03068213E-03  1.00000000E+00  1.00000000E+00  1.00000000E+00  1.96665025E-03
  1.52306019E-02  7.61269097E-02  2.60801033E-01  6.16462078E-01  2.21006028E-01
  1.14660081E-01  9.19999648E-01 -3.03068213E-03  1.00000000E+00  1.00000000E+00
  1.00000000E+00  1.96665025E-03  1.52306019E-02  7.61269097E-02  2.60801033E-01
  6.16462078E-01  2.21006028E-01  1.14660081E-01  9.19999648E-01 -3.03068213E-03
  1.00000000E+00  1.00000000E+00  1.00000000E+00  1.96665025E-03  1.52306019E-02
  7.61269097E-02  2.60801033E-01  6.16462078E-01  2.21006028E-01  1.14660081E-01
  9.19999648E-01 -3.03068213E-03  1.00000000E+00  1.00000000E+00  1.00000000E+00
  1.96665025E-03  1.52306019E-02  7.61269097E-02  2.60801033E-01  6.16462078E-01
  2.21006028E-01  1.14660081E-01  9.19999648E-01 -3.03068213E-03  1.00000000E+00
  1.00000000E+00  1.00000000E+00  2.54938145E-02  1.90373109E-01  8.52161486E-01
  1.00000000E+00  1.00000000E+00  1.00000000E+00  2.54938145E-02  1.90373109E-01
  8.52161486E-01  1.00000000E+00  1.00000000E+00  1.00000000E+00  2.54938145E-02
  1.90373109E-01  8.52161486E-01  1.00000000E+00  1.00000000E+00  1.00000000E+00
  1.89515008E-03  1.43859006E-02  7.07320031E-02  2.40001011E-01  5.94797026E-01
  2.80802012E-01  1.13889012E-01  9.20811101E-01 -3.27447036E-03  1.00000000E+00
  1.00000000E+00  1.00000000E+00  1.89515008E-03  1.43859006E-02  7.07320031E-02
  2.40001011E-01  5.94797026E-01  2.80802012E-01  1.13889012E-01  9.20811101E-01
 -3.27447036E-03  1.00000000E+00  1.00000000E+00  1.00000000E+00  1.96665025E-03
  1.52306019E-02  7.61269097E-02  2.60801033E-01  6.16462078E-01  2.21006028E-01
  1.14660081E-01  9.19999648E-01 -3.03068213E-03  1.00000000E+00  1.00000000E+00
  1.00000000E+00  2.54938145E-02  1.90373109E-01  8.52161486E-01  1.00000000E+00
  1.00000000E+00  1.00000000E+00  2.54938145E-02  1.90373109E-01  8.52161486E-01
  1.00000000E+00  1.00000000E+00  1.00000000E+00  1.89515008E-03  1.43859006E-02
  7.07320031E-02  2.40001011E-01  5.94797026E-01  2.80802012E-01  1.13889012E-01
  9.20811101E-01 -3.27447036E-03  1.00000000E+00  1.00000000E+00  1.00000000E+00
  2.54938145E-02  1.90373109E-01  8.52161486E-01  1.00000000E+00  1.00000000E+00
  1.00000000E+00  2.54938145E-02  1.90373109E-01  8.52161486E-01  1.00000000E+00
  1.00000000E+00  1.00000000E+00
P(S=P) Contraction coefficients            R   N=         162
  0.00000000E+00  0.00000000E+00  0.00000000E+00  0.00000000E+00  0.00000000E+00
  0.00000000E+00  4.02486927E-02  2.37593957E-01  8.15853851E-01  1.00000000E+00
  1.00000000E+00  0.00000000E+00  0.00000000E+00  0.00000000E+00  0.00000000E+00
  0.00000000E+00  0.00000000E+00  0.00000000E+00  4.02486927E-02  2.37593957E-01
  8.15853851E-01  1.00000000E+00  1.00000000E+00  0.00000000E+00  0.00000000E+00
  0.00000000E+00  0.00000000E+00  0.00000000E+00  0.00000000E+00  0.00000000E+00
  4.02486927E-02  2.37593957E-01  8.15853851E-01  1.00000000E+00  1.00000000E+00
  0.00000000E+00  0.00000000E+00  0.00000000E+00  0.00000000E+00  0.00000000E+00
  0.00000000E+00  0.00000000E+00  4.02486927E-02  2.37593957E-01  8.15853851E-01
  1.00000000E+00  1.00000000E+00  0.00000000E+00  0.00000000E+00  0.00000000E+00
  0.00000000E+00  0.00000000E+00  0.00000000E+00  0.00000000E+00  4.02486927E-02
  2.37593957E-01  8.15853851E-01  1.00000000E+00  1.00000000E+00  0.00000000E+00
  0.00000000E+00  0.00000000E+00  0.00000000E+00  0.00000000E+00  0.00000000E+00
  0.00000000E+00  4.02486927E-02  2.37593957E-01  8.15853851E-01  1.00000000E+00
  1.00000000E+00  0.00000000E+00  0.00000000E+00  0.00000000E+00  0.00000000E+00
  0.00000000E+00  0.00000000E+00  0.00000000E+00  0.00000000E+00  0.00000000E+00
  0.00000000E+00  0.00000000E+00  0.00000000E+00  0.00000000E+00  0.00000000E+00
  0.00000000E+00  0.00000000E+00  0.00000000E+00  0.00000000E+00  0.00000000E+00
  0.00000000E+00  0.00000000E+00  0.00000000E+00  0.00000000E+00  0.00000000E+00
  0.00000000E+00  3.65113974E-02  2.37152983E-01  8.19701941E-01  1.00000000E+00
  1.00000000E+00  0.00000000E+00  0.00000000E+00  0.00000000E+00  0.00000000E+00
  0.00000000E+00  0.00000000E+00  0.00000000E+00  3.65113974E-02  2.37152983E-01
  8.19701941E-01  1.00000000E+00  1.00000000E+00  0.00000000E+00  0.00000000E+00
  0.00000000E+00  0.00000000E+00  0.00000000E+00  0.00000000E+00  0.00000000E+00
  4.02486927E-02  2.37593957E-01  8.15853851E-01  1.00000000E+00  1.00000000E+00
  0.00000000E+00  0.00000000E+00  0.00000000E+00  0.00000000E+00  0.00000000E+00
  0.00000000E+00  0.00000000E+00  0.00000000E+00  0.00000000E+00  0.00000000E+00
  0.00000000E+00  0.00000000E+00  0.00000000E+00  0.00000000E+00  0.00000000E+00
  0.00000000E+00  0.00000000E+00  0.00000000E+00  0.00000000E+00  3.65113974E-02
  2.37152983E-01  8.19701941E-01  1.00000000E+00  1.00000000E+00  0.00000000E+00
  0.00000000E+00  0.00000000E+00  0.00000000E+00  0.00000000E+00  0.00000000E+00
  0.00000000E+00  0.00000000E+00  0.00000000E+00  0.00000000E+00  0.00000000E+00
  0.00000000E+00  0.00000000E+00
Coordinates of each shell                  R   N=         234
  1.87561536E+00  1.56263537E+00  8.84806013E-05  1.87561536E+00  1.56263537E+00
  8.84806013E-05  1.87561536E+00  1.56263537E+00  8.84806013E-05  1.87561536E+00
  1.56263537E+00  8.84806013E-05  1.87561536E+00  1.56263537E+00  8.84806013E-05
 -7.47985904E-01  1.51142002E+00  1.90525812E-04 -7.47985904E-01  1.51142002E+00
  1.90525812E-04 -7.47985904E-01  1.51142002E+00  1.90525812E-04 -7.47985904E-01
  1.51142002E+00  1.90525812E-04 -7.47985904E-01  1.51142002E+00  1.90525812E-04
 -2.04252767E+00 -7.81501852E-01  1.35723754E-04 -2.04252767E+00 -7.81501852E-01
  1.35723754E-04 -2.04252767E+00 -7.81501852E-01  1.35723754E-04 -2.04252767E+00
 -7.81501852E-01  1.35723754E-04 -2.04252767E+00 -7.81501852E-01  1.35723754E-04
 -6.77066381E-01 -3.09059789E+00 -9.78515719E-06 -6.77066381E-01 -3.09059789E+00
 -9.78515719E-06 -6.77066381E-01 -3.09059789E+00 -9.78515719E-06 -6.77066381E-01
 -3.09059789E+00 -9.78515719E-06 -6.77066381E-01 -3.09059789E+00 -9.78515719E-06
  1.90640466E+00 -3.09744248E+00 -1.38286534E-04  1.90640466E+00 -3.09744248E+00
 -1.38286534E-04  1.90640466E+00 -3.09744248E+00 -1.38286534E-04  1.90640466E+00
 -3.09744248E+00 -1.38286534E-04  1.90640466E+00 -3.09744248E+00 -1.38286534E-04
  3.36680769E+00 -7.77272656E-01 -5.89180364E-05  3.36680769E+00 -7.77272656E-01
 -5.89180364E-05  3.36680769E+00 -7.77272656E-01 -5.89180364E-05  3.36680769E+00
 -7.77272656E-01 -5.89180364E-05  3.36680769E+00 -7.77272656E-01 -5.89180364E-05
 -1.82489358E+00  3.25536511E+00  3.26586093E-04 -1.82489358E+00  3.25536511E+00
  3.26586093E-04 -1.82489358E+00  3.25536511E+00  3.26586093E-04 -1.82489358E+00
  3.25536511E+00  3.26586093E-04 -1.71078437E+00 -4.86340477E+00 -1.34507081E-04
 -1.71078437E+00 -4.86340477E+00 -1.34507081E-04 -1.71078437E+00 -4.86340477E+00
 -1.34507081E-04 -1.71078437E+00 -4.86340477E+00 -1.34507081E-04  2.98522851E+00
 -4.83773285E+00 -3.57494764E-04  2.98522851E+00 -4.83773285E+00 -3.57494764E-04
  2.98522851E+00 -4.83773285E+00 -3.57494764E-04  2.98522851E+00 -4.83773285E+00
 -3.57494764E-04  5.71678039E+00 -7.47190110E-01 -1.15609820E-04  5.71678039E+00
 -7.47190110E-01 -1.15609820E-04  5.71678039E+00 -7.47190110E-01 -1.15609820E-04
  5.71678039E+00 -7.47190110E-01 -1.15609820E-04  5.71678039E+00 -7.47190110E-01
 -1.15609820E-04  3.22004212E+00  3.71878075E+00  7.14730662E-05  3.22004212E+00
  3.71878075E+00  7.14730662E-05  3.22004212E+00  3.71878075E+00  7.14730662E-05
  3.22004212E+00  3.71878075E+00  7.14730662E-05  3.22004212E+00  3.71878075E+00
  7.14730662E-05 -4.88600802E+00 -8.58434487E-01  4.07844316E-04 -4.88600802E+00
 -8.58434487E-01  4.07844316E-04 -4.88600802E+00 -8.58434487E-01  4.07844316E-04
 -4.88600802E+00 -8.58434487E-01  4.07844316E-04 -4.88600802E+00 -8.58434487E-01
  4.07844316E-04 -5.52038719E+00 -1.92110118E+00 -1.67226812E+00 -5.52038719E+00
 -1.92110118E+00 -1.67226812E+00 -5.52038719E+00 -1.92110118E+00 -1.67226812E+00
 -5.52038719E+00 -1.92110118E+00 -1.67226812E+00 -5.52009051E+00 -1.91950626E+00
  1.67421764E+00 -5.52009051E+00 -1.91950626E+00  1.67421764E+00 -5.52009051E+00
 -1.91950626E+00  1.67421764E+00 -5.52009051E+00 -1.91950626E+00  1.67421764E+00
 -5.88223194E+00  1.63031403E+00 -6.18276969E-04 -5.88223194E+00  1.63031403E+00
 -6.18276969E-04 -5.88223194E+00  1.63031403E+00 -6.18276969E-04 -5.88223194E+00
  1.63031403E+00 -6.18276969E-04 -5.88223194E+00  1.63031403E+00 -6.18276969E-04
 -7.69449820E+00  1.51918869E+00 -2.66787910E-04 -7.69449820E+00  1.51918869E+00
 -2.66787910E-04 -7.69449820E+00  1.51918869E+00 -2.66787910E-04 -7.69449820E+00
  1.51918869E+00 -2.66787910E-04  2.07726237E+00  5.13911780E+00  8.84806013E-05
  2.07726237E+00  5.13911780E+00  8.84806013E-05  2.07726237E+00  5.13911780E+00
  8.84806013E-05  2.07726237E+00  5.13911780E+00  8.84806013E-05
Num ILSW                                   I              100
ILSW                                       I   N=         100
           1           0           0           0           2           0
           0           0           0           0         402          -1
           5           0           0           0           0           0
           0           0           1           0           0           0
           1           0           0           0           0           0
           0           0      100000           0          -1           0
           0           0           0           0           0           0
           0           0           0           1           0           0
           0 -2000000000           1           0           0           0
           0           0           4          52           0           0
           0           0           5           0           0           0
           0           0           0           0           0           1
           0           0           0           0           0           0
           0           0           0           0           0           0
           0           0           0           0           0           0
           0           0           0           0           0           0
           0           0           0           0
Num RLSW                                   I               52
RLSW                                       R   N=          52
  8.00000000E-01  7.20000000E-01  1.00000000E+00  8.10000000E-01  2.00000000E-01
  0.00000000E+00  0.00000000E+00  1.00000000E+00  0.00000000E+00  0.00000000E+00
  0.00000000E+00  0.00000000E+00  1.00000000E+00  0.00000000E+00  0.00000000E+00
  0.00000000E+00  0.00000000E+00  1.00000000E+00  0.00000000E+00  0.00000000E+00
  0.00000000E+00  0.00000000E+00  1.00000000E+00  0.00000000E+00  0.00000000E+00
  0.00000000E+00  0.00000000E+00  1.00000000E+00  0.00000000E+00  0.00000000E+00
  0.00000000E+00  0.00000000E+00  1.00000000E+00  0.00000000E+00  0.00000000E+00
  0.00000000E+00  0.00000000E+00  0.00000000E+00  1.00000000E+00  1.00000000E+00
  0.00000000E+00  1.00000000E+00  0.00000000E+00  0.00000000E+00  0.00000000E+00
  0.00000000E+00  0.00000000E+00  0.00000000E+00  0.00000000E+00  0.00000000E+00
  0.00000000E+00  0.00000000E+00
MxBond                                     I                4
NBond                                      I   N=          17
           3           3           3           3           3           3
           1           1           1           1           2           4
           1           1           2           1           1
IBond                                      I   N=          68
           2           6          11           0           1           3
           7           0           2           4          12           0
           3           5           8           0           4           6
           9           0           1           5          10           0
           2           0           0           0           4           0
           0           0           5           0           0           0
           6           0           0           0           1          17
           0           0           3          13          14          15
          12           0           0           0          12           0
           0           0          12          16           0           0
          15           0           0           0          11           0
           0           0
RBond                                      R   N=          68
  1.50000000E+00  1.00000000E+00  1.00000000E+00  0.00000000E+00  1.50000000E+00
  1.50000000E+00  1.00000000E+00  0.00000000E+00  1.50000000E+00  1.50000000E+00
  1.00000000E+00  0.00000000E+00  1.50000000E+00  2.00000000E+00  1.00000000E+00
  0.00000000E+00  2.00000000E+00  1.00000000E+00  1.00000000E+00  0.00000000E+00
  1.00000000E+00  1.00000000E+00  2.00000000E+00  0.00000000E+00  1.00000000E+00
  0.00000000E+00  0.00000000E+00  0.00000000E+00  1.00000000E+00  0.00000000E+00
  0.00000000E+00  0.00000000E+00  1.00000000E+00  0.00000000E+00  0.00000000E+00
  0.00000000E+00  2.00000000E+00  0.00000000E+00  0.00000000E+00  0.00000000E+00
  1.00000000E+00  1.00000000E+00  0.00000000E+00  0.00000000E+00  1.00000000E+00
  1.00000000E+00  1.00000000E+00  1.00000000E+00  1.00000000E+00  0.00000000E+00
  0.00000000E+00  0.00000000E+00  1.00000000E+00  0.00000000E+00  0.00000000E+00
  0.00000000E+00  1.00000000E+00  1.00000000E+00  0.00000000E+00  0.00000000E+00
  1.00000000E+00  0.00000000E+00  0.00000000E+00  0.00000000E+00  1.00000000E+00
  0.00000000E+00  0.00000000E+00  0.00000000E+00
Virial Ratio                               R      2.003360451979585E+00
SCF Energy                                 R     -4.967120888664813E+02
Total Energy                               R     -4.967120888664813E+02
S**2                                       R      7.762380189062199E-01
S**2 after annihilation                    R      7.504731118156477E-01
RMS Density                                R      7.263295370421390E-09
Job Status                                 I                1
Nuclear derivative order                   I                0
External E-field                           R   N=          35
  0.00000000E+00  0.00000000E+00  0.00000000E+00  0.00000000E+00  0.00000000E+00
  0.00000000E+00  0.00000000E+00  0.00000000E+00  0.00000000E+00  0.00000000E+00
  0.00000000E+00  0.00000000E+00  0.00000000E+00  0.00000000E+00  0.00000000E+00
  0.00000000E+00  0.00000000E+00  0.00000000E+00  0.00000000E+00  0.00000000E+00
  0.00000000E+00  0.00000000E+00  0.00000000E+00  0.00000000E+00  0.00000000E+00
  0.00000000E+00  0.00000000E+00  0.00000000E+00  0.00000000E+00  0.00000000E+00
  0.00000000E+00  0.00000000E+00  0.00000000E+00  0.00000000E+00  0.00000000E+00
IOpCl                                      I                1
IROHF                                      I                0
Alpha Orbital Energies                     R   N=         222
 -1.91717650E+01 -1.91384618E+01 -1.90965044E+01 -1.02553334E+01 -1.02452082E+01
 -1.02371146E+01 -1.02108115E+01 -1.01879038E+01 -1.01843780E+01 -1.01836211E+01
 -1.09251853E+00 -1.04795368E+00 -1.02240635E+00 -8.67243041E-01 -7.69307382E-01
 -7.62181753E-01 -6.84315856E-01 -6.42696848E-01 -5.94132509E-01 -5.69410617E-01
 -5.30363717E-01 -4.96970682E-01 -4.84476051E-01 -4.83765636E-01 -4.49008644E-01
 -4.45688337E-01 -4.34305166E-01 -4.15972729E-01 -3.88854032E-01 -3.84023997E-01
 -3.74623303E-01 -3.59166843E-01 -3.45394025E-01 -2.99432627E-01 -2.62432708E-01
 -2.53408079E-01 -2.06383261E-01 -1.62955208E-02 -5.49845251E-03  1.68277477E-02
  2.54687912E-02  4.89727504E-02  7.51147744E-02  9.29249989E-02  1.08361377E-01
  1.22791483E-01  1.55486985E-01  1.60085450E-01  2.02944094E-01  2.16584289E-01
  2.29127986E-01  2.73542441E-01  2.81240771E-01  3.07711816E-01  3.29419543E-01
  3.49374653E-01  3.54342722E-01  3.77543859E-01  3.80953645E-01  3.82216377E-01
  3.90347853E-01  3.97228364E-01  4.13356693E-01  4.35175596E-01  4.48159395E-01
  4.62202624E-01  4.81485503E-01  4.84590494E-01  5.00218603E-01  5.10373659E-01