 Entering Link 1 = D:\Gaussian\G16W\l1.exe PID=     56644.
  
 Copyright (c) 1988,1990,1992,1993,1995,1998,2003,2009,2016,
            Gaussian, Inc.  All Rights Reserved.
  
 This is part of the Gaussian(R) 16 program.  It is based on
 the Gaussian(R) 09 system (copyright 2009, Gaussian, Inc.),
 the Gaussian(R) 03 system (copyright 2003, Gaussian, Inc.),
 the Gaussian(R) 98 system (copyright 1998, Gaussian, Inc.),
 the Gaussian(R) 94 system (copyright 1995, Gaussian, Inc.),
 the Gaussian 92(TM) system (copyright 1992, Gaussian, Inc.),
 the Gaussian 90(TM) system (copyright 1990, Gaussian, Inc.),
 the Gaussian 88(TM) system (copyright 1988, Gaussian, Inc.),
 the Gaussian 86(TM) system (copyright 1986, Carnegie Mellon
 University), and the Gaussian 82(TM) system (copyright 1983,
 Carnegie Mellon University). Gaussian is a federally registered
 trademark of Gaussian, Inc.
  
 This software contains proprietary and confidential information,
 including trade secrets, belonging to Gaussian, Inc.
  
 This software is provided under written license and may be
 used, copied, transmitted, or stored only in accord with that
 written license.
  
 The following legend is applicable only to US Government
 contracts under FAR:
  
                    RESTRICTED RIGHTS LEGEND
  
 Use, reproduction and disclosure by the US Government is
 subject to restrictions as set forth in subparagraphs (a)
 and (c) of the Commercial Computer Software - Restricted
 Rights clause in FAR 52.227-19.
  
 Gaussian, Inc.
 340 Quinnipiac St., Bldg. 40, Wallingford CT 06492
  
  
 ---------------------------------------------------------------
 Warning -- This program may not be used in any manner that
 competes with the business of Gaussian, Inc. or will provide
 assistance to any competitor of Gaussian, Inc.  The licensee
 of this program is prohibited from giving any competitor of
 Gaussian, Inc. access to this program.  By using this program,
 the user acknowledges that Gaussian, Inc. is engaged in the
 business of creating and licensing software in the field of
 computational chemistry and represents and warrants to the
 licensee that it is not a competitor of Gaussian, Inc. and that
 it will not use this program in any manner prohibited above.
 ---------------------------------------------------------------
  

 Cite this work as:
 Gaussian 16, Revision A.03,
 M. J. Frisch, G. W. Trucks, H. B. Schlegel, G. E. Scuseria, 
 M. A. Robb, J. R. Cheeseman, G. Scalmani, V. Barone, 
 G. A. Petersson, H. Nakatsuji, X. Li, M. Caricato, A. V. Marenich, 
 J. Bloino, B. G. Janesko, R. Gomperts, B. Mennucci, H. P. Hratchian, 
 J. V. Ortiz, A. F. Izmaylov, J. L. Sonnenberg, D. Williams-Young, 
 F. Ding, F. Lipparini, F. Egidi, J. Goings, B. Peng, A. Petrone, 
 T. Henderson, D. Ranasinghe, V. G. Zakrzewski, J. Gao, N. Rega, 
 G. Zheng, W. Liang, M. Hada, M. Ehara, K. Toyota, R. Fukuda, 
 J. Hasegawa, M. Ishida, T. Nakajima, Y. Honda, O. Kitao, H. Nakai, 
 T. Vreven, K. Throssell, J. A. Montgomery, Jr., J. E. Peralta, 
 F. Ogliaro, M. J. Bearpark, J. J. Heyd, E. N. Brothers, K. N. Kudin, 
 V. N. Staroverov, T. A. Keith, R. Kobayashi, J. Normand, 
 K. Raghavachari, A. P. Rendell, J. C. Burant, S. S. Iyengar, 
 J. Tomasi, M. Cossi, J. M. Millam, M. Klene, C. Adamo, R. Cammi, 
 J. W. Ochterski, R. L. Martin, K. Morokuma, O. Farkas, 
 J. B. Foresman, and D. J. Fox, Gaussian, Inc., Wallingford CT, 2016.
 
 ******************************************
 Gaussian 16:  EM64W-G16RevA.03 17-Dec-2016
                08-Dec-2025 
 ******************************************
 %nprocshared=14
 Will use up to   14 processors via shared memory.
 %mem=80GB
 %chk=F:\2025-12\sjk\SJY\PR7\PR7.chk
 ---------------------------------------------------------
 # ub3lyp/6-311g(d,p) geom=connectivity temperature=823.15
 ---------------------------------------------------------
 1/38=1,57=2,112=823150,172=1/1;
 2/12=2,17=6,18=5,40=1/2;
 3/5=4,6=6,7=101,11=2,25=1,30=1,74=-5,116=2/1,2,3;
 4//1;
 5/5=2,38=5/2;
 6/7=2,8=2,9=2,10=2,28=1/1;
 99/5=1,9=1/99;
 -------------------
 Title Card Required
 -------------------
 Symbolic Z-matrix:
 Charge =  0 Multiplicity = 2
 C                    -0.99253   0.82691  -0.00005 
 C                     0.39582   0.79981  -0.0001 
 C                     1.08086  -0.41355  -0.00007 
 C                     0.35829  -1.63547   0.00001 
 C                    -1.00883  -1.6391    0.00007 
 C                    -1.78164  -0.41132   0.00003 
 H                     0.96569   1.72267  -0.00017 
 H                     0.90531  -2.5736    0.00007 
 H                    -1.57972  -2.56002   0.00019 
 O                    -3.02519  -0.3954    0.00006 
 O                    -1.70397   1.96789  -0.00004 
 C                     2.58556  -0.45426  -0.00022 
 H                     2.92126  -1.0166    0.88493 
 H                     2.92111  -1.01576  -0.88596 
 O                     3.11274   0.86273   0.00033 
 H                     4.07175   0.80392   0.00014 
 H                    -1.09924   2.7195   -0.00005 
 
                          Input orientation:                          
 ---------------------------------------------------------------------
 Center     Atomic      Atomic             Coordinates (Angstroms)
 Number     Number       Type             X           Y           Z
 ---------------------------------------------------------------------
      1          6           0       -0.992533    0.826911   -0.000047
      2          6           0        0.395817    0.799809   -0.000101
      3          6           0        1.080859   -0.413553   -0.000072
      4          6           0        0.358288   -1.635474    0.000005
      5          6           0       -1.008826   -1.639096    0.000073
      6          6           0       -1.781638   -0.411315    0.000031
      7          1           0        0.965692    1.722665   -0.000173
      8          1           0        0.905308   -2.573603    0.000071
      9          1           0       -1.579715   -2.560018    0.000189
     10          8           0       -3.025190   -0.395396    0.000061
     11          8           0       -1.703973    1.967894   -0.000038
     12          6           0        2.585564   -0.454264   -0.000216
     13          1           0        2.921263   -1.016603    0.884926
     14          1           0        2.921106   -1.015759   -0.885958
     15          8           0        3.112743    0.862725    0.000327
     16          1           0        4.071753    0.803920    0.000141
     17          1           0       -1.099240    2.719504   -0.000047
 ---------------------------------------------------------------------
                    Distance matrix (angstroms):
                    1          2          3          4          5
     1  C    0.000000
     2  C    1.388615   0.000000
     3  C    2.416134   1.393388   0.000000
     4  C    2.808569   2.435572   1.419577   0.000000
     5  C    2.466061   2.814477   2.422548   1.367119   0.000000
     6  C    1.468295   2.491612   2.862498   2.465329   1.450753
     7  H    2.153374   1.084629   2.139320   3.412629   3.898738
     8  H    3.894264   3.411670   2.167172   1.085964   2.130073
     9  H    3.437451   3.897584   3.418474   2.147239   1.083518
    10  O    2.371862   3.623783   4.106089   3.603570   2.369074
    11  O    1.344615   2.402819   3.664230   4.151768   3.673364
    12  C    3.800551   2.523428   1.505256   2.521114   3.784636
    13  H    4.415826   3.234270   2.129314   2.781174   4.076280
    14  H    4.415523   3.233901   2.129309   2.781549   4.076514
    15  O    4.105432   2.717654   2.399466   3.718605   4.821456
    16  H    5.064338   3.675938   3.229193   4.443024   5.637429
    17  H    1.895599   2.433192   3.816920   4.592409   4.359538
                    6          7          8          9         10
     6  C    0.000000
     7  H    3.478749   0.000000
     8  H    3.448937   4.296692   0.000000
     9  H    2.158170   4.982015   2.485060   0.000000
    10  O    1.243654   4.518110   4.493707   2.602880   0.000000
    11  O    2.380476   2.680904   5.237704   4.529617   2.707537
    12  C    4.367413   2.713486   2.704599   4.667306   5.611063
    13  H    4.823556   3.480122   2.696533   4.839803   6.043938
    14  H    4.823498   3.479544   2.697289   4.840184   6.043866
    15  O    5.057484   2.312861   4.084253   5.808126   6.265548
    16  H    5.978209   3.239091   4.629691   6.576866   7.197566
    17  H    3.204324   2.292953   5.659964   5.301340   3.662224
                   11         12         13         14         15
    11  O    0.000000
    12  C    4.926152   0.000000
    13  H    5.575230   1.101088   0.000000
    14  H    5.574800   1.101092   1.770884   0.000000
    15  O    4.941877   1.418583   2.085918   2.085888   0.000000
    16  H    5.891846   1.947251   2.328256   2.328173   0.960811
    17  H    0.964686   4.863187   5.559327   5.558796   4.603089
                   16         17
    16  H    0.000000
    17  H    5.514402   0.000000
 Stoichiometry    C7H7O3(2)
 Framework group  C1[X(C7H7O3)]
 Deg. of freedom    45
 Full point group                 C1      NOp   1
 Largest Abelian subgroup         C1      NOp   1
 Largest concise Abelian subgroup C1      NOp   1
                         Standard orientation:                         
 ---------------------------------------------------------------------
 Center     Atomic      Atomic             Coordinates (Angstroms)
 Number     Number       Type             X           Y           Z
 ---------------------------------------------------------------------
      1          6           0        0.992533    0.826911    0.000047
      2          6           0       -0.395817    0.799809    0.000101
      3          6           0       -1.080859   -0.413553    0.000072
      4          6           0       -0.358288   -1.635474   -0.000005
      5          6           0        1.008826   -1.639096   -0.000073
      6          6           0        1.781638   -0.411315   -0.000031
      7          1           0       -0.965692    1.722665    0.000173
      8          1           0       -0.905308   -2.573603   -0.000071
      9          1           0        1.579715   -2.560018   -0.000189
     10          8           0        3.025190   -0.395396   -0.000061
     11          8           0        1.703973    1.967894    0.000038
     12          6           0       -2.585564   -0.454264    0.000216
     13          1           0       -2.921263   -1.016603   -0.884926
     14          1           0       -2.921106   -1.015759    0.885958
     15          8           0       -3.112743    0.862725   -0.000327
     16          1           0       -4.071753    0.803920   -0.000141
     17          1           0        1.099240    2.719504    0.000047
 ---------------------------------------------------------------------
 Rotational constants (GHZ):           2.6442883           0.9222160           0.6866885
 Standard basis: 6-311G(d,p) (5D, 7F)
 There are   232 symmetry adapted cartesian basis functions of A   symmetry.
 There are   222 symmetry adapted basis functions of A   symmetry.
   222 basis functions,   376 primitive gaussians,   232 cartesian basis functions
    37 alpha electrons       36 beta electrons
       nuclear repulsion energy       499.2044125792 Hartrees.
 NAtoms=   17 NActive=   17 NUniq=   17 SFac= 1.00D+00 NAtFMM=   60 NAOKFM=F Big=F
 Integral buffers will be    131072 words long.
 Raffenetti 2 integral format.
 Two-electron integral symmetry is turned on.
 One-electron integrals computed using PRISM.
 NBasis=   222 RedAO= T EigKep=  2.27D-04  NBF=   222
 NBsUse=   222 1.00D-06 EigRej= -1.00D+00 NBFU=   222
 ExpMin= 1.03D-01 ExpMax= 8.59D+03 ExpMxC= 1.30D+03 IAcc=3 IRadAn=         5 AccDes= 0.00D+00
 Harris functional with IExCor=  402 and IRadAn=       5 diagonalized for initial guess.
 HarFok:  IExCor=  402 AccDes= 0.00D+00 IRadAn=         5 IDoV= 1 UseB2=F ITyADJ=14
 ICtDFT=  3500011 ScaDFX=  1.000000  1.000000  1.000000  1.000000
 FoFCou: FMM=F IPFlag=           0 FMFlag=      100000 FMFlg1=           0
         NFxFlg=           0 DoJE=T BraDBF=F KetDBF=T FulRan=T
         wScrn=  0.000000 ICntrl=       500 IOpCl=  0 I1Cent=   200000004 NGrid=           0
         NMat0=    1 NMatS0=      1 NMatT0=    0 NMatD0=    1 NMtDS0=    0 NMtDT0=    0
 Petite list used in FoFCou.
 Initial guess <Sx>= 0.0000 <Sy>= 0.0000 <Sz>= 0.5000 <S**2>= 0.7500 S= 0.5000
 Requested convergence on RMS density matrix=1.00D-08 within 128 cycles.
 Requested convergence on MAX density matrix=1.00D-06.
 Requested convergence on             energy=1.00D-06.
 No special actions if energy rises.
 Integral accuracy reduced to 1.0D-05 until final iterations.
 Initial convergence to 1.0D-05 achieved.  Increase integral accuracy.
 SCF Done:  E(UB3LYP) =  -496.712088866     A.U. after   19 cycles
            NFock= 19  Conv=0.73D-08     -V/T= 2.0034
 <Sx>= 0.0000 <Sy>= 0.0000 <Sz>= 0.5000 <S**2>= 0.7762 S= 0.5130
 <L.S>= 0.000000000000E+00
 Annihilation of the first spin contaminant:
 S**2 before annihilation     0.7762,   after     0.7505

 **********************************************************************

            Population analysis using the SCF density.

 **********************************************************************

 Orbital symmetries:
 Alpha Orbitals:
       Occupied  (A) (A) (A) (A) (A) (A) (A) (A) (A) (A) (A) (A)
                 (A) (A) (A) (A) (A) (A) (A) (A) (A) (A) (A) (A)
                 (A) (A) (A) (A) (A) (A) (A) (A) (A) (A) (A) (A)
                 (A)
       Virtual   (A) (A) (A) (A) (A) (A) (A) (A) (A) (A) (A) (A)
                 (A) (A) (A) (A) (A) (A) (A) (A) (A) (A) (A) (A)
                 (A) (A) (A) (A) (A) (A) (A) (A) (A) (A) (A) (A)
                 (A) (A) (A) (A) (A) (A) (A) (A) (A) (A) (A) (A)
                 (A) (A) (A) (A) (A) (A) (A) (A) (A) (A) (A) (A)
                 (A) (A) (A) (A) (A) (A) (A) (A) (A) (A) (A) (A)
                 (A) (A) (A) (A) (A) (A) (A) (A) (A) (A) (A) (A)
                 (A) (A) (A) (A) (A) (A) (A) (A) (A) (A) (A) (A)
                 (A) (A) (A) (A) (A) (A) (A) (A) (A) (A) (A) (A)
                 (A) (A) (A) (A) (A) (A) (A) (A) (A) (A) (A) (A)
                 (A) (A) (A) (A) (A) (A) (A) (A) (A) (A) (A) (A)
                 (A) (A) (A) (A) (A) (A) (A) (A) (A) (A) (A) (A)
                 (A) (A) (A) (A) (A) (A) (A) (A) (A) (A) (A) (A)
                 (A) (A) (A) (A) (A) (A) (A) (A) (A) (A) (A) (A)
                 (A) (A) (A) (A) (A) (A) (A) (A) (A) (A) (A) (A)
                 (A) (A) (A) (A) (A)
 Beta  Orbitals:
       Occupied  (A) (A) (A) (A) (A) (A) (A) (A) (A) (A) (A) (A)
                 (A) (A) (A) (A) (A) (A) (A) (A) (A) (A) (A) (A)
                 (A) (A) (A) (A) (A) (A) (A) (A) (A) (A) (A) (A)
       Virtual   (A) (A) (A) (A) (A) (A) (A) (A) (A) (A) (A) (A)
                 (A) (A) (A) (A) (A) (A) (A) (A) (A) (A) (A) (A)
                 (A) (A) (A) (A) (A) (A) (A) (A) (A) (A) (A) (A)
                 (A) (A) (A) (A) (A) (A) (A) (A) (A) (A) (A) (A)
                 (A) (A) (A) (A) (A) (A) (A) (A) (A) (A) (A) (A)
                 (A) (A) (A) (A) (A) (A) (A) (A) (A) (A) (A) (A)
                 (A) (A) (A) (A) (A) (A) (A) (A) (A) (A) (A) (A)
                 (A) (A) (A) (A) (A) (A) (A) (A) (A) (A) (A) (A)
                 (A) (A) (A) (A) (A) (A) (A) (A) (A) (A) (A) (A)
                 (A) (A) (A) (A) (A) (A) (A) (A) (A) (A) (A) (A)
                 (A) (A) (A) (A) (A) (A) (A) (A) (A) (A) (A) (A)
                 (A) (A) (A) (A) (A) (A) (A) (A) (A) (A) (A) (A)
                 (A) (A) (A) (A) (A) (A) (A) (A) (A) (A) (A) (A)
                 (A) (A) (A) (A) (A) (A) (A) (A) (A) (A) (A) (A)
                 (A) (A) (A) (A) (A) (A) (A) (A) (A) (A) (A) (A)
                 (A) (A) (A) (A) (A) (A)
 The electronic state is 2-A.
 Alpha  occ. eigenvalues --  -19.17176 -19.13846 -19.09650 -10.25533 -10.24521
 Alpha  occ. eigenvalues --  -10.23711 -10.21081 -10.18790 -10.18438 -10.18362
 Alpha  occ. eigenvalues --   -1.09252  -1.04795  -1.02241  -0.86724  -0.76931
 Alpha  occ. eigenvalues --   -0.76218  -0.68432  -0.64270  -0.59413  -0.56941
 Alpha  occ. eigenvalues --   -0.53036  -0.49697  -0.48448  -0.48377  -0.44901
 Alpha  occ. eigenvalues --   -0.44569  -0.43431  -0.41597  -0.38885  -0.38402
 Alpha  occ. eigenvalues --   -0.37462  -0.35917  -0.34539  -0.29943  -0.26243
 Alpha  occ. eigenvalues --   -0.25341  -0.20638
 Alpha virt. eigenvalues --   -0.01630  -0.00550   0.01683   0.02547   0.04897
 Alpha virt. eigenvalues --    0.07511   0.09292   0.10836   0.12279   0.15549
 Alpha virt. eigenvalues --    0.16009   0.20294   0.21658   0.22913   0.27354
 Alpha virt. eigenvalues --    0.28124   0.30771   0.32942   0.34937   0.35434
 Alpha virt. eigenvalues --    0.37754   0.38095   0.38222   0.39035   0.39723
 Alpha virt. eigenvalues --    0.41336   0.43518   0.44816   0.46220   0.48149
 Alpha virt. eigenvalues --    0.48459   0.50022   0.51037   0.52197   0.53380
 Alpha virt. eigenvalues --    0.55345   0.56878   0.58797   0.59881   0.61407
 Alpha virt. eigenvalues --    0.61945   0.62284   0.64310   0.66759   0.72211
 Alpha virt. eigenvalues --    0.74358   0.75036   0.77640   0.79754   0.80832
 Alpha virt. eigenvalues --    0.83732   0.83946   0.84203   0.85348   0.88122
 Alpha virt. eigenvalues --    0.90511   0.92027   0.93784   0.97122   0.98252
 Alpha virt. eigenvalues --    0.99595   1.02405   1.05496   1.05921   1.09430
 Alpha virt. eigenvalues --    1.10190   1.16325   1.18271   1.20312   1.25493
 Alpha virt. eigenvalues --    1.33323   1.34011   1.34697   1.35585   1.37678
 Alpha virt. eigenvalues --    1.38525   1.43084   1.45272   1.46303   1.48977
 Alpha virt. eigenvalues --    1.52441   1.53994   1.55021   1.55283   1.57454
 Alpha virt. eigenvalues --    1.59088   1.62640   1.62939   1.64667   1.65163
 Alpha virt. eigenvalues --    1.65549   1.70581   1.73443   1.75052   1.78315
 Alpha virt. eigenvalues --    1.79421   1.83370   1.87645   1.88269   1.89324
 Alpha virt. eigenvalues --    1.90613   1.92092   1.93663   1.96422   1.97996
 Alpha virt. eigenvalues --    2.04115   2.05209   2.10825   2.12928   2.14207
 Alpha virt. eigenvalues --    2.17697   2.21060   2.26440   2.30160   2.32093
 Alpha virt. eigenvalues --    2.37249   2.40645   2.45259   2.47149   2.49501
 Alpha virt. eigenvalues --    2.50055   2.51728   2.55741   2.58693   2.62690
 Alpha virt. eigenvalues --    2.63297   2.64961   2.66795   2.68884   2.69400
 Alpha virt. eigenvalues --    2.79150   2.81210   2.83223   2.85637   2.91881
 Alpha virt. eigenvalues --    2.92690   2.95371   2.97120   3.01360   3.07214
 Alpha virt. eigenvalues --    3.07607   3.08978   3.12294   3.15433   3.16567
 Alpha virt. eigenvalues --    3.18362   3.26231   3.31724   3.31863   3.37923
 Alpha virt. eigenvalues --    3.39904   3.47822   3.51768   3.57741   3.59915
 Alpha virt. eigenvalues --    3.64698   3.75058   3.81747   3.83508   3.90921
 Alpha virt. eigenvalues --    3.96928   4.01780   4.06839   4.11071   4.25197
 Alpha virt. eigenvalues --    4.77129   4.77708   4.83921   4.89440   5.03403
 Alpha virt. eigenvalues --    5.29753   5.32156   5.60574   5.63758   5.73423
 Alpha virt. eigenvalues --   23.48582  23.77869  23.80966  23.88258  23.92472
 Alpha virt. eigenvalues --   24.09744  24.16513  49.87623  49.88806  49.98511
  Beta  occ. eigenvalues --  -19.16921 -19.13847 -19.08627 -10.25121 -10.24547
  Beta  occ. eigenvalues --  -10.23814 -10.20604 -10.18895 -10.18547 -10.18154
  Beta  occ. eigenvalues --   -1.08691  -1.04787  -1.00470  -0.86092  -0.76251
  Beta  occ. eigenvalues --   -0.75789  -0.68023  -0.63908  -0.58993  -0.56697
  Beta  occ. eigenvalues --   -0.52854  -0.49436  -0.48234  -0.47907  -0.44691
  Beta  occ. eigenvalues --   -0.43041  -0.42618  -0.41069  -0.38593  -0.37239
  Beta  occ. eigenvalues --   -0.35916  -0.35707  -0.32190  -0.29496  -0.25263
  Beta  occ. eigenvalues --   -0.24346
  Beta virt. eigenvalues --   -0.12238   0.00049   0.01691   0.01728   0.02607
  Beta virt. eigenvalues --    0.04903   0.07616   0.09761   0.10901   0.12334
  Beta virt. eigenvalues --    0.16148   0.17003   0.20611   0.22076   0.23207
  Beta virt. eigenvalues --    0.27585   0.28313   0.31029   0.33227   0.35296
  Beta virt. eigenvalues --    0.35484   0.37832   0.38377   0.38800   0.39211
  Beta virt. eigenvalues --    0.40026   0.41677   0.43765   0.45080   0.46424
  Beta virt. eigenvalues --    0.48378   0.48660   0.50247   0.51660   0.52427
  Beta virt. eigenvalues --    0.54288   0.55530   0.57223   0.59071   0.60040
  Beta virt. eigenvalues --    0.61424   0.61958   0.62781   0.64542   0.67076
  Beta virt. eigenvalues --    0.72467   0.74686   0.75434   0.77876   0.80694
  Beta virt. eigenvalues --    0.81036   0.83993   0.84070   0.84630   0.85465
  Beta virt. eigenvalues --    0.88441   0.90586   0.93980   0.94334   0.97843
  Beta virt. eigenvalues --    0.98486   1.00016   1.02748   1.05603   1.06309
  Beta virt. eigenvalues --    1.09823   1.10502   1.17266   1.18409   1.20990
  Beta virt. eigenvalues --    1.25768   1.33514   1.34288   1.34821   1.35818
  Beta virt. eigenvalues --    1.37779   1.38818   1.43197   1.45417   1.46749
  Beta virt. eigenvalues --    1.49218   1.52790   1.54376   1.55390   1.55601
  Beta virt. eigenvalues --    1.57716   1.59574   1.63109   1.63299   1.64834
  Beta virt. eigenvalues --    1.65790   1.65853   1.70735   1.73680   1.75519
  Beta virt. eigenvalues --    1.78385   1.79677   1.84151   1.87958   1.88858
  Beta virt. eigenvalues --    1.89523   1.90875   1.92332   1.93852   1.96582
  Beta virt. eigenvalues --    1.98072   2.04596   2.05581   2.11259   2.13075
  Beta virt. eigenvalues --    2.14537   2.18111   2.21242   2.27158   2.30302
  Beta virt. eigenvalues --    2.32254   2.37456   2.41081   2.45353   2.47418
  Beta virt. eigenvalues --    2.50158   2.50409   2.51824   2.56076   2.58822
  Beta virt. eigenvalues --    2.62895   2.63425   2.66215   2.66798   2.69193
  Beta virt. eigenvalues --    2.69524   2.79851   2.81362   2.84250   2.85836
  Beta virt. eigenvalues --    2.94583   2.94654   2.95910   2.97625   3.02201
  Beta virt. eigenvalues --    3.07837   3.07909   3.09258   3.12732   3.16489
  Beta virt. eigenvalues --    3.16826   3.18400   3.26406   3.31993   3.34222
  Beta virt. eigenvalues --    3.38210   3.40507   3.48022   3.52098   3.57933
  Beta virt. eigenvalues --    3.60130   3.65402   3.75243   3.81967   3.83679
  Beta virt. eigenvalues --    3.90948   3.97147   4.02139   4.07113   4.11394
  Beta virt. eigenvalues --    4.25661   4.78267   4.78617   4.83941   4.93457
  Beta virt. eigenvalues --    5.04224   5.29773   5.32482   5.61126   5.63762
  Beta virt. eigenvalues --    5.73875  23.48791  23.77872  23.81187  23.88264
  Beta virt. eigenvalues --   23.92857  24.09756  24.16597  49.87862  49.88876
  Beta virt. eigenvalues --   49.99486
          Condensed to atoms (all electrons):
               1          2          3          4          5          6
     1  C    5.387394   0.267103   0.003329  -0.031363  -0.114272   0.153849
     2  C    0.267103   5.205026   0.384517  -0.061590  -0.020813  -0.023700
     3  C    0.003329   0.384517   5.396070   0.433177  -0.032274  -0.037054
     4  C   -0.031363  -0.061590   0.433177   4.968269   0.424215  -0.021675
     5  C   -0.114272  -0.020813  -0.032274   0.424215   5.174423   0.393863
     6  C    0.153849  -0.023700  -0.037054  -0.021675   0.393863   4.788410
     7  H   -0.044961   0.393378  -0.017032   0.008518  -0.001443   0.004339
     8  H   -0.003166   0.010257  -0.060502   0.414416  -0.027080   0.007853
     9  H    0.017509  -0.003020   0.010039  -0.041156   0.395508  -0.044161
    10  O   -0.114010   0.007494  -0.001386   0.008794  -0.089187   0.657722
    11  O    0.389640  -0.073159   0.005597   0.000468   0.002329  -0.061422
    12  C    0.007138  -0.042901   0.273175  -0.046147   0.004964  -0.000527
    13  H    0.000269   0.002507  -0.058807  -0.000865  -0.000116   0.000064
    14  H    0.000269   0.002483  -0.058775  -0.000862  -0.000117   0.000064
    15  O    0.001124   0.001276  -0.050332   0.003064  -0.000105   0.000032
    16  H   -0.000027  -0.000555   0.013571  -0.000510   0.000020  -0.000001
    17  H   -0.047748  -0.004835   0.001592  -0.000014  -0.000636   0.007435
               7          8          9         10         11         12
     1  C   -0.044961  -0.003166   0.017509  -0.114010   0.389640   0.007138
     2  C    0.393378   0.010257  -0.003020   0.007494  -0.073159  -0.042901
     3  C   -0.017032  -0.060502   0.010039  -0.001386   0.005597   0.273175
     4  C    0.008518   0.414416  -0.041156   0.008794   0.000468  -0.046147
     5  C   -0.001443  -0.027080   0.395508  -0.089187   0.002329   0.004964
     6  C    0.004339   0.007853  -0.044161   0.657722  -0.061422  -0.000527
     7  H    0.534075  -0.000295   0.000056  -0.000085  -0.002452  -0.013748
     8  H   -0.000295   0.581140  -0.010894  -0.000208   0.000010  -0.003798
     9  H    0.000056  -0.010894   0.555658   0.009289  -0.000113  -0.000322
    10  O   -0.000085  -0.000208   0.009289   7.825264   0.002879  -0.000003
    11  O   -0.002452   0.000010  -0.000113   0.002879   7.711921  -0.000119
    12  C   -0.013748  -0.003798  -0.000322  -0.000003  -0.000119   4.684399
    13  H    0.001340   0.001581  -0.000003   0.000000   0.000002   0.404806
    14  H    0.001339   0.001576  -0.000003   0.000000   0.000002   0.404779
    15  O    0.026677   0.000074   0.000002   0.000000  -0.000002   0.280278
    16  H   -0.001645  -0.000031  -0.000001   0.000000   0.000000  -0.034680
    17  H    0.005180  -0.000016   0.000061  -0.000946   0.320907  -0.000075
              13         14         15         16         17
     1  C    0.000269   0.000269   0.001124  -0.000027  -0.047748
     2  C    0.002507   0.002483   0.001276  -0.000555  -0.004835
     3  C   -0.058807  -0.058775  -0.050332   0.013571   0.001592
     4  C   -0.000865  -0.000862   0.003064  -0.000510  -0.000014
     5  C   -0.000116  -0.000117  -0.000105   0.000020  -0.000636
     6  C    0.000064   0.000064   0.000032  -0.000001   0.007435
     7  H    0.001340   0.001339   0.026677  -0.001645   0.005180
     8  H    0.001581   0.001576   0.000074  -0.000031  -0.000016
     9  H   -0.000003  -0.000003   0.000002  -0.000001   0.000061
    10  O    0.000000   0.000000   0.000000   0.000000  -0.000946
    11  O    0.000002   0.000002  -0.000002   0.000000   0.320907
    12  C    0.404806   0.404779   0.280278  -0.034680  -0.000075
    13  H    0.621024  -0.051469  -0.031284  -0.005317  -0.000008
    14  H   -0.051469   0.621042  -0.031290  -0.005317  -0.000008
    15  O   -0.031284  -0.031290   7.898038   0.309062  -0.000141
    16  H   -0.005317  -0.005317   0.309062   0.478491   0.000005
    17  H   -0.000008  -0.000008  -0.000141   0.000005   0.468774
          Atomic-Atomic Spin Densities.
               1          2          3          4          5          6
     1  C    0.312191   0.013616  -0.018506  -0.002585   0.006694   0.037120
     2  C    0.013616  -0.154740  -0.010741   0.001088   0.001037   0.001147
     3  C   -0.018506  -0.010741   0.372841   0.031847  -0.015647  -0.003082
     4  C   -0.002585   0.001088   0.031847  -0.092102  -0.028600  -0.000249
     5  C    0.006694   0.001037  -0.015647  -0.028600   0.238467   0.029863
     6  C    0.037120   0.001147  -0.003082  -0.000249   0.029863  -0.071565
     7  H   -0.000568   0.000351   0.000388  -0.000027  -0.000012   0.000096
     8  H    0.000055  -0.000035   0.000075   0.000631  -0.000558  -0.000031
     9  H   -0.000530   0.000009  -0.000277   0.000498   0.002919   0.000087
    10  O   -0.011904  -0.000246   0.000225   0.000204  -0.010221  -0.044600
    11  O   -0.056634   0.000951   0.000451   0.000015  -0.000284  -0.001835
    12  C   -0.000038   0.001541  -0.011083   0.000531   0.000069  -0.000046
    13  H    0.000118   0.000147  -0.009093  -0.000967   0.000234   0.000019
    14  H    0.000119   0.000147  -0.009093  -0.000968   0.000234   0.000019
    15  O   -0.000005   0.000349   0.000029   0.000003  -0.000002   0.000000
    16  H   -0.000002  -0.000023   0.000137   0.000001   0.000000   0.000000
    17  H   -0.000545   0.000369   0.000006   0.000013  -0.000025  -0.000069
               7          8          9         10         11         12
     1  C   -0.000568   0.000055  -0.000530  -0.011904  -0.056634  -0.000038
     2  C    0.000351  -0.000035   0.000009  -0.000246   0.000951   0.001541
     3  C    0.000388   0.000075  -0.000277   0.000225   0.000451  -0.011083
     4  C   -0.000027   0.000631   0.000498   0.000204   0.000015   0.000531
     5  C   -0.000012  -0.000558   0.002919  -0.010221  -0.000284   0.000069
     6  C    0.000096  -0.000031   0.000087  -0.044600  -0.001835  -0.000046
     7  H    0.005786   0.000001  -0.000003   0.000002  -0.000044   0.000166
     8  H    0.000001   0.002732   0.000353   0.000006   0.000000   0.000118
     9  H   -0.000003   0.000353  -0.015657  -0.000349   0.000002   0.000003
    10  O    0.000002   0.000006  -0.000349   0.445688   0.002086   0.000000
    11  O   -0.000044   0.000000   0.000002   0.002086   0.129683   0.000002
    12  C    0.000166   0.000118   0.000003   0.000000   0.000002  -0.026512
    13  H   -0.000015  -0.000061   0.000001   0.000000  -0.000001   0.003972
    14  H   -0.000015  -0.000061   0.000001   0.000000  -0.000001   0.003960
    15  O   -0.000135   0.000000   0.000000   0.000000   0.000000   0.002195
    16  H    0.000036   0.000002   0.000000   0.000000   0.000000   0.000056
    17  H   -0.000025   0.000000  -0.000002   0.000019   0.000511  -0.000004
              13         14         15         16         17
     1  C    0.000118   0.000119  -0.000005  -0.000002  -0.000545
     2  C    0.000147   0.000147   0.000349  -0.000023   0.000369
     3  C   -0.009093  -0.009093   0.000029   0.000137   0.000006
     4  C   -0.000967  -0.000968   0.000003   0.000001   0.000013
     5  C    0.000234   0.000234  -0.000002   0.000000  -0.000025
     6  C    0.000019   0.000019   0.000000   0.000000  -0.000069
     7  H   -0.000015  -0.000015  -0.000135   0.000036  -0.000025
     8  H   -0.000061  -0.000061   0.000000   0.000002   0.000000
     9  H    0.000001   0.000001   0.000000   0.000000  -0.000002
    10  O    0.000000   0.000000   0.000000   0.000000   0.000019
    11  O   -0.000001  -0.000001   0.000000   0.000000   0.000511
    12  C    0.003972   0.003960   0.002195   0.000056  -0.000004
    13  H    0.030386  -0.007861  -0.000509   0.000066   0.000000
    14  H   -0.007861   0.030422  -0.000516   0.000068   0.000000
    15  O   -0.000509  -0.000516  -0.001159   0.000106   0.000000
    16  H    0.000066   0.000068   0.000106  -0.000716   0.000000
    17  H    0.000000   0.000000   0.000000   0.000000  -0.002648
 Mulliken charges and spin densities:
               1          2
     1  C    0.127921   0.278596
     2  C   -0.043469  -0.145033
     3  C   -0.204905   0.328477
     4  C   -0.056740  -0.090664
     5  C   -0.109280   0.224168
     6  C    0.174909  -0.053125
     7  H    0.106758   0.005981
     8  H    0.089081   0.003227
     9  H    0.111551  -0.012946
    10  O   -0.305616   0.380910
    11  O   -0.296488   0.074902
    12  C    0.082781  -0.025068
    13  H    0.116276   0.016435
    14  H    0.116289   0.016454
    15  O   -0.406475   0.000355
    16  H    0.246934  -0.000269
    17  H    0.250473  -0.002399
 Sum of Mulliken charges =   0.00000   1.00000
 Mulliken charges and spin densities with hydrogens summed into heavy atoms:
               1          2
     1  C    0.127921   0.278596
     2  C    0.063289  -0.139053
     3  C   -0.204905   0.328477
     4  C    0.032341  -0.087437
     5  C    0.002271   0.211223
     6  C    0.174909  -0.053125
    10  O   -0.305616   0.380910
    11  O   -0.046015   0.072502
    12  C    0.315346   0.007822
    15  O   -0.159541   0.000086
 Electronic spatial extent (au):  <R**2>=           1561.7466
 Charge=              0.0000 electrons
 Dipole moment (field-independent basis, Debye):
    X=             -6.3691    Y=              0.1284    Z=              0.0009  Tot=              6.3704
 Quadrupole moment (field-independent basis, Debye-Ang):
   XX=            -60.4669   YY=            -48.4342   ZZ=            -59.1552
   XY=              2.6432   XZ=             -0.0025   YZ=              0.0012
 Traceless Quadrupole moment (field-independent basis, Debye-Ang):
   XX=             -4.4481   YY=              7.5846   ZZ=             -3.1365
   XY=              2.6432   XZ=             -0.0025   YZ=              0.0012
 Octapole moment (field-independent basis, Debye-Ang**2):
  XXX=           -115.9678  YYY=             26.6429  ZZZ=             -0.0001  XYY=              3.1870
  XXY=             -0.9250  XXZ=              0.0068  XZZ=              1.1344  YZZ=              4.7671
  YYZ=             -0.0010  XYZ=             -0.0019
 Hexadecapole moment (field-independent basis, Debye-Ang**3):
 XXXX=          -1184.5190 YYYY=           -432.1968 ZZZZ=            -65.6063 XXXY=            -18.1285
 XXXZ=             -0.0089 YYYX=              9.1077 YYYZ=              0.0059 ZZZX=             -0.0009
 ZZZY=             -0.0014 XXYY=           -314.1578 XXZZ=           -229.0404 YYZZ=           -106.2448
 XXYZ=              0.0059 YYXZ=              0.0006 ZZXY=              3.1064
 N-N= 4.992044125792D+02 E-N=-2.161477048238D+03  KE= 4.950485021474D+02
                          Isotropic Fermi Contact Couplings
        Atom                 a.u.       MegaHertz       Gauss      10(-4) cm-1
     1  C(13)              0.01533      17.22837       6.14751       5.74677
     2  C(13)             -0.02106     -23.67930      -8.44936      -7.89856
     3  C(13)              0.02234      25.11631       8.96212       8.37790
     4  C(13)             -0.01600     -17.98418      -6.41720      -5.99888
     5  C(13)              0.00932      10.47860       3.73903       3.49529
     6  C(13)             -0.02680     -30.12980     -10.75106     -10.05022
     7  H(1)               0.00145       6.46393       2.30649       2.15613
     8  H(1)               0.00077       3.45576       1.23310       1.15272
     9  H(1)              -0.00313     -13.98477      -4.99011      -4.66482
    10  O(17)              0.02859     -17.32878      -6.18334      -5.78026
    11  O(17)              0.01117      -6.77254      -2.41661      -2.25908
    12  C(13)             -0.01150     -12.92453      -4.61179      -4.31116
    13  H(1)               0.00864      38.60066      13.77367      12.87579
    14  H(1)               0.00864      38.63489      13.78589      12.88721
    15  O(17)             -0.00090       0.54712       0.19522       0.18250
    16  H(1)              -0.00018      -0.79218      -0.28267      -0.26424
    17  H(1)              -0.00136      -6.09712      -2.17560      -2.03378
 --------------------------------------------------------
       Center         ----  Spin Dipole Couplings  ----
                      3XX-RR        3YY-RR        3ZZ-RR
 --------------------------------------------------------
     1   Atom       -0.171917     -0.166546      0.338463
     2   Atom        0.069082      0.059579     -0.128661
     3   Atom       -0.184353     -0.196859      0.381212
     4   Atom        0.036411      0.030062     -0.066473
     5   Atom       -0.119857     -0.112384      0.232241
     6   Atom        0.045418     -0.001071     -0.044347
     7   Atom        0.005780     -0.000194     -0.005586
     8   Atom        0.000470      0.004450     -0.004920
     9   Atom       -0.009013      0.013255     -0.004242
    10   Atom       -0.790062     -0.787716      1.577779
    11   Atom       -0.216467     -0.204577      0.421044
    12   Atom        0.002154     -0.007967      0.005813
    13   Atom        0.004768     -0.002686     -0.002082
    14   Atom        0.004768     -0.002689     -0.002079
    15   Atom        0.001881      0.000971     -0.002853
    16   Atom        0.001844     -0.000456     -0.001388
    17   Atom       -0.004213      0.012298     -0.008084
 --------------------------------------------------------
                        XY            XZ            YZ
 --------------------------------------------------------
     1   Atom       -0.000648      0.000020     -0.000012
     2   Atom        0.004832     -0.000010      0.000010
     3   Atom       -0.000812      0.000035     -0.000015
     4   Atom       -0.003510      0.000001      0.000008
     5   Atom       -0.000296      0.000027     -0.000024
     6   Atom       -0.000369     -0.000003     -0.000001
     7   Atom        0.003559      0.000000      0.000000
     8   Atom       -0.001805     -0.000001      0.000000
     9   Atom       -0.010443      0.000000      0.000002
    10   Atom       -0.001479      0.000036     -0.000154
    11   Atom       -0.007800      0.000016     -0.000006
    12   Atom       -0.002166     -0.000004      0.000008
    13   Atom        0.002076      0.002679      0.001680
    14   Atom        0.002072     -0.002681     -0.001681
    15   Atom       -0.004062      0.000004     -0.000013
    16   Atom       -0.001586      0.000001     -0.000001
    17   Atom       -0.015435      0.000000      0.000000
 --------------------------------------------------------


 ---------------------------------------------------------------------------------
              Anisotropic Spin Dipole Couplings in Principal Axis System
 ---------------------------------------------------------------------------------

       Atom             a.u.   MegaHertz   Gauss  10(-4) cm-1        Axes

              Baa    -0.1720   -23.080    -8.235    -7.699  0.9930  0.1181  0.0000
     1 C(13)  Bbb    -0.1665   -22.339    -7.971    -7.451 -0.1181  0.9930  0.0000
              Bcc     0.3385    45.419    16.206    15.150  0.0000  0.0000  1.0000
 
              Baa    -0.1287   -17.265    -6.161    -5.759  0.0000 -0.0001  1.0000
     2 C(13)  Bbb     0.0576     7.723     2.756     2.576 -0.3865  0.9223  0.0001
              Bcc     0.0711     9.542     3.405     3.183  0.9223  0.3865  0.0000
 
              Baa    -0.1969   -26.424    -9.429    -8.814  0.0646  0.9979  0.0000
     3 C(13)  Bbb    -0.1843   -24.731    -8.825    -8.249  0.9979 -0.0646 -0.0001
              Bcc     0.3812    51.155    18.253    17.063  0.0001  0.0000  1.0000
 
              Baa    -0.0665    -8.920    -3.183    -2.975  0.0000 -0.0001  1.0000
     4 C(13)  Bbb     0.0285     3.825     1.365     1.276  0.4058  0.9140  0.0001
              Bcc     0.0380     5.095     1.818     1.700  0.9140 -0.4058  0.0000
 
              Baa    -0.1199   -16.085    -5.740    -5.365  0.9992  0.0395 -0.0001
     5 C(13)  Bbb    -0.1124   -15.079    -5.381    -5.030 -0.0395  0.9992  0.0001
              Bcc     0.2322    31.165    11.120    10.395  0.0001 -0.0001  1.0000
 
              Baa    -0.0443    -5.951    -2.123    -1.985  0.0000  0.0000  1.0000
     6 C(13)  Bbb    -0.0011    -0.144    -0.051    -0.048  0.0079  1.0000  0.0000
              Bcc     0.0454     6.095     2.175     2.033  1.0000 -0.0079  0.0000
 
              Baa    -0.0056    -2.980    -1.063    -0.994  0.0000  0.0000  1.0000
     7 H(1)   Bbb    -0.0019    -0.989    -0.353    -0.330 -0.4226  0.9063  0.0000
              Bcc     0.0074     3.969     1.416     1.324  0.9063  0.4226  0.0000
 
              Baa    -0.0049    -2.625    -0.937    -0.876  0.0001  0.0000  1.0000
     8 H(1)   Bbb    -0.0002    -0.121    -0.043    -0.040  0.9329  0.3601 -0.0001
              Bcc     0.0051     2.746     0.980     0.916 -0.3601  0.9329  0.0000
 
              Baa    -0.0131    -7.013    -2.502    -2.339  0.9299  0.3678 -0.0001
     9 H(1)   Bbb    -0.0042    -2.263    -0.808    -0.755  0.0001 -0.0001  1.0000
              Bcc     0.0174     9.277     3.310     3.094 -0.3678  0.9299  0.0001
 
              Baa    -0.7908    57.220    20.418    19.087  0.9004  0.4351  0.0000
    10 O(17)  Bbb    -0.7870    56.947    20.320    18.995 -0.4351  0.9004  0.0001
              Bcc     1.5778  -114.167   -40.738   -38.082  0.0000 -0.0001  1.0000
 
              Baa    -0.2203    15.943     5.689     5.318  0.8962  0.4437  0.0000
    11 O(17)  Bbb    -0.2007    14.524     5.182     4.845 -0.4437  0.8962  0.0000
              Bcc     0.4210   -30.466   -10.871   -10.163  0.0000  0.0000  1.0000
 
              Baa    -0.0084    -1.129    -0.403    -0.377  0.2008  0.9796 -0.0005
    12 C(13)  Bbb     0.0026     0.349     0.124     0.116  0.9796 -0.2008  0.0017
              Bcc     0.0058     0.780     0.278     0.260 -0.0016  0.0008  1.0000
 
              Baa    -0.0041    -2.184    -0.779    -0.729  0.0228  0.7523 -0.6585
    13 H(1)   Bbb    -0.0023    -1.227    -0.438    -0.409 -0.4316  0.6015  0.6722
              Bcc     0.0064     3.411     1.217     1.138  0.9018  0.2688  0.3384
 
              Baa    -0.0041    -2.185    -0.780    -0.729  0.0231  0.7526  0.6581
    14 H(1)   Bbb    -0.0023    -1.225    -0.437    -0.409  0.4316 -0.6013  0.6725
              Bcc     0.0064     3.410     1.217     1.138  0.9018  0.2685 -0.3387
 
              Baa    -0.0029     0.206     0.074     0.069  0.0242  0.0291  0.9993
    15 O(17)  Bbb    -0.0027     0.193     0.069     0.064  0.6662  0.7448 -0.0378
              Bcc     0.0055    -0.399    -0.142    -0.133  0.7454 -0.6666  0.0014
 
              Baa    -0.0014    -0.741    -0.264    -0.247  0.0011  0.0026  1.0000
    16 H(1)   Bbb    -0.0013    -0.675    -0.241    -0.225  0.4544  0.8908 -0.0028
              Bcc     0.0027     1.416     0.505     0.472  0.8908 -0.4544  0.0002
 
              Baa    -0.0135    -7.183    -2.563    -2.396  0.8578  0.5140  0.0000
    17 H(1)   Bbb    -0.0081    -4.313    -1.539    -1.439  0.0000  0.0000  1.0000
              Bcc     0.0215    11.496     4.102     3.835 -0.5140  0.8578  0.0000
 

 ---------------------------------------------------------------------------------

 1|1|UNPC-PC-20250526LCFF|SP|UB3LYP|6-311G(d,p)|C7H7O3(2)|ADMINISTRATOR
 |08-Dec-2025|0||# ub3lyp/6-311g(d,p) geom=connectivity temperature=823
 .15||Title Card Required||0,2|C,0,-0.992533,0.826911,-0.000047|C,0,0.3
 95817,0.799809,-0.000101|C,0,1.080859,-0.413553,-0.000072|C,0,0.358288
 ,-1.635474,0.000005|C,0,-1.008826,-1.639096,0.000073|C,0,-1.781638,-0.
 411315,0.000031|H,0,0.965692,1.722665,-0.000173|H,0,0.905308,-2.573603
 ,0.000071|H,0,-1.579715,-2.560018,0.000189|O,0,-3.02519,-0.395396,0.00
 0061|O,0,-1.703973,1.967894,-0.000038|C,0,2.585564,-0.454264,-0.000216
 |H,0,2.921263,-1.016603,0.884926|H,0,2.921106,-1.015759,-0.885958|O,0,
 3.112743,0.862725,0.000327|H,0,4.071753,0.80392,0.000141|H,0,-1.09924,
 2.719504,-0.000047||Version=EM64W-G16RevA.03|State=2-A|HF=-496.7120889
 |S2=0.776238|S2-1=0.|S2A=0.750473|RMSD=7.263e-009|Dipole=2.5057805,0.0
 505302,-0.0003642|Quadrupole=-3.3070757,5.6389576,-2.3318819,-1.965146
 9,-0.0018471,-0.0008818|PG=C01 [X(C7H7O3)]||@


 A successful marriage requires falling in love
 many times, always with the same person.
                           -- Mignon McLaughlin
 Job cpu time:       0 days  0 hours  0 minutes 35.0 seconds.
 Elapsed time:       0 days  0 hours  0 minutes 34.4 seconds.
 File lengths (MBytes):  RWF=     52 Int=      0 D2E=      0 Chk=      5 Scr=      1
 Normal termination of Gaussian 16 at Mon Dec 08 16:27:07 2025.
