 Entering Gaussian System, Link 0=g16
 Initial command:
 /apps/g16/l1.exe "/tmp/Gau-45651.inp" -scrdir="/tmp/"
 Entering Link 1 = /apps/g16/l1.exe PID=     45653.
  
 Copyright (c) 1988,1990,1992,1993,1995,1998,2003,2009,2016,
            Gaussian, Inc.  All Rights Reserved.
  
 This is part of the Gaussian(R) 16 program.  It is based on
 the Gaussian(R) 09 system (copyright 2009, Gaussian, Inc.),
 the Gaussian(R) 03 system (copyright 2003, Gaussian, Inc.),
 the Gaussian(R) 98 system (copyright 1998, Gaussian, Inc.),
 the Gaussian(R) 94 system (copyright 1995, Gaussian, Inc.),
 the Gaussian 92(TM) system (copyright 1992, Gaussian, Inc.),
 the Gaussian 90(TM) system (copyright 1990, Gaussian, Inc.),
 the Gaussian 88(TM) system (copyright 1988, Gaussian, Inc.),
 the Gaussian 86(TM) system (copyright 1986, Carnegie Mellon
 University), and the Gaussian 82(TM) system (copyright 1983,
 Carnegie Mellon University). Gaussian is a federally registered
 trademark of Gaussian, Inc.
  
 This software contains proprietary and confidential information,
 including trade secrets, belonging to Gaussian, Inc.
  
 This software is provided under written license and may be
 used, copied, transmitted, or stored only in accord with that
 written license.
  
 The following legend is applicable only to US Government
 contracts under FAR:
  
                    RESTRICTED RIGHTS LEGEND
  
 Use, reproduction and disclosure by the US Government is
 subject to restrictions as set forth in subparagraphs (a)
 and (c) of the Commercial Computer Software - Restricted
 Rights clause in FAR 52.227-19.
  
 Gaussian, Inc.
 340 Quinnipiac St., Bldg. 40, Wallingford CT 06492
  
  
 ---------------------------------------------------------------
 Warning -- This program may not be used in any manner that
 competes with the business of Gaussian, Inc. or will provide
 assistance to any competitor of Gaussian, Inc.  The licensee
 of this program is prohibited from giving any competitor of
 Gaussian, Inc. access to this program.  By using this program,
 the user acknowledges that Gaussian, Inc. is engaged in the
 business of creating and licensing software in the field of
 computational chemistry and represents and warrants to the
 licensee that it is not a competitor of Gaussian, Inc. and that
 it will not use this program in any manner prohibited above.
 ---------------------------------------------------------------
  

 Cite this work as:
 Gaussian 16, Revision A.03,
 M. J. Frisch, G. W. Trucks, H. B. Schlegel, G. E. Scuseria, 
 M. A. Robb, J. R. Cheeseman, G. Scalmani, V. Barone, 
 G. A. Petersson, H. Nakatsuji, X. Li, M. Caricato, A. V. Marenich, 
 J. Bloino, B. G. Janesko, R. Gomperts, B. Mennucci, H. P. Hratchian, 
 J. V. Ortiz, A. F. Izmaylov, J. L. Sonnenberg, D. Williams-Young, 
 F. Ding, F. Lipparini, F. Egidi, J. Goings, B. Peng, A. Petrone, 
 T. Henderson, D. Ranasinghe, V. G. Zakrzewski, J. Gao, N. Rega, 
 G. Zheng, W. Liang, M. Hada, M. Ehara, K. Toyota, R. Fukuda, 
 J. Hasegawa, M. Ishida, T. Nakajima, Y. Honda, O. Kitao, H. Nakai, 
 T. Vreven, K. Throssell, J. A. Montgomery, Jr., J. E. Peralta, 
 F. Ogliaro, M. J. Bearpark, J. J. Heyd, E. N. Brothers, K. N. Kudin, 
 V. N. Staroverov, T. A. Keith, R. Kobayashi, J. Normand, 
 K. Raghavachari, A. P. Rendell, J. C. Burant, S. S. Iyengar, 
 J. Tomasi, M. Cossi, J. M. Millam, M. Klene, C. Adamo, R. Cammi, 
 J. W. Ochterski, R. L. Martin, K. Morokuma, O. Farkas, 
 J. B. Foresman, and D. J. Fox, Gaussian, Inc., Wallingford CT, 2016.
 
 ******************************************
 Gaussian 16:  ES64L-G16RevA.03 25-Dec-2016
                 7-Sep-2022 
 ******************************************
 %NProcShared=20
 Will use up to   20 processors via shared memory.
 %mem=58371MB
 %chk=7.chk
 ------------------------------------------------------------------
 # opt freq ub3lyp/6-311g(d,p) geom=connectivity temperature=823.15
 ------------------------------------------------------------------
 1/18=20,19=15,26=3,38=1,57=2,112=823150/1,3;
 2/9=110,12=2,17=6,18=5,40=1/2;
 3/5=4,6=6,7=101,11=2,25=1,30=1,71=1,74=-5,116=2/1,2,3;
 4//1;
 5/5=2,38=5/2;
 6/7=2,8=2,9=2,10=2,28=1/1;
 7//1,2,3,16;
 1/18=20,19=15,26=3/3(2);
 2/9=110/2;
 99//99;
 2/9=110/2;
 3/5=4,6=6,7=101,11=2,25=1,30=1,71=1,74=-5,116=2/1,2,3;
 4/5=5,16=3,69=1/1;
 5/5=2,38=5/2;
 7//1,2,3,16;
 1/18=20,19=15,26=3/3(-5);
 2/9=110/2;
 6/7=2,8=2,9=2,10=2,19=2,28=1/1;
 99/9=1/99;
 -------------------
 Title Card Required
 -------------------
 Symbolic Z-matrix:
 Charge =  0 Multiplicity = 2
 C                    -1.01202   0.23586   0.2208 
 C                     0.27148   0.64637   0.36464 
 C                     1.31631  -0.28551   0.30278 
 C                     1.0339   -1.64191   0.09218 
 C                    -0.24959  -2.05242  -0.05167 
 C                    -1.29443  -1.12054   0.01019 
 H                     0.4871    1.68201   0.52544 
 H                     1.83166  -2.35342   0.04495 
 H                    -0.46521  -3.08806  -0.21247 
 O                    -2.52687  -1.51473  -0.12794 
 H                    -3.24261  -0.87636  -0.08556 
 O                    -2.07818   1.18676   0.28392 
 C                     2.77483   0.18099   0.46624 
 H                     3.04598   0.14815   1.50079 
 H                     3.42036  -0.46415  -0.09232 
 O                     2.90406   1.52024  -0.01812 
 H                     3.83437   1.74301  -0.09869 
 

 GradGradGradGradGradGradGradGradGradGradGradGradGradGradGradGradGradGrad
 Berny optimization.
 Initialization pass.
                           ----------------------------
                           !    Initial Parameters    !
                           ! (Angstroms and Degrees)  !
 --------------------------                            --------------------------
 ! Name  Definition              Value          Derivative Info.                !
 --------------------------------------------------------------------------------
 ! R1    R(1,2)                  1.3552         estimate D2E/DX2                !
 ! R2    R(1,6)                  1.4014         estimate D2E/DX2                !
 ! R3    R(1,12)                 1.43           estimate D2E/DX2                !
 ! R4    R(2,3)                  1.4014         estimate D2E/DX2                !
 ! R5    R(2,7)                  1.07           estimate D2E/DX2                !
 ! R6    R(3,4)                  1.4014         estimate D2E/DX2                !
 ! R7    R(3,13)                 1.54           estimate D2E/DX2                !
 ! R8    R(4,5)                  1.3552         estimate D2E/DX2                !
 ! R9    R(4,8)                  1.07           estimate D2E/DX2                !
 ! R10   R(5,6)                  1.4014         estimate D2E/DX2                !
 ! R11   R(5,9)                  1.07           estimate D2E/DX2                !
 ! R12   R(6,10)                 1.3013         estimate D2E/DX2                !
 ! R13   R(10,11)                0.96           estimate D2E/DX2                !
 ! R14   R(13,14)                1.07           estimate D2E/DX2                !
 ! R15   R(13,15)                1.07           estimate D2E/DX2                !
 ! R16   R(13,16)                1.43           estimate D2E/DX2                !
 ! R17   R(16,17)                0.96           estimate D2E/DX2                !
 ! A1    A(2,1,6)              120.0            estimate D2E/DX2                !
 ! A2    A(2,1,12)             120.0            estimate D2E/DX2                !
 ! A3    A(6,1,12)             120.0            estimate D2E/DX2                !
 ! A4    A(1,2,3)              120.0            estimate D2E/DX2                !
 ! A5    A(1,2,7)              120.0            estimate D2E/DX2                !
 ! A6    A(3,2,7)              120.0            estimate D2E/DX2                !
 ! A7    A(2,3,4)              120.0            estimate D2E/DX2                !
 ! A8    A(2,3,13)             120.0            estimate D2E/DX2                !
 ! A9    A(4,3,13)             120.0            estimate D2E/DX2                !
 ! A10   A(3,4,5)              120.0            estimate D2E/DX2                !
 ! A11   A(3,4,8)              120.0            estimate D2E/DX2                !
 ! A12   A(5,4,8)              120.0            estimate D2E/DX2                !
 ! A13   A(4,5,6)              120.0            estimate D2E/DX2                !
 ! A14   A(4,5,9)              120.0            estimate D2E/DX2                !
 ! A15   A(6,5,9)              120.0            estimate D2E/DX2                !
 ! A16   A(1,6,5)              120.0            estimate D2E/DX2                !
 ! A17   A(1,6,10)             120.0            estimate D2E/DX2                !
 ! A18   A(5,6,10)             120.0            estimate D2E/DX2                !
 ! A19   A(6,10,11)            120.0            estimate D2E/DX2                !
 ! A20   A(3,13,14)            109.4712         estimate D2E/DX2                !
 ! A21   A(3,13,15)            109.4712         estimate D2E/DX2                !
 ! A22   A(3,13,16)            109.4712         estimate D2E/DX2                !
 ! A23   A(14,13,15)           109.4712         estimate D2E/DX2                !
 ! A24   A(14,13,16)           109.4712         estimate D2E/DX2                !
 ! A25   A(15,13,16)           109.4712         estimate D2E/DX2                !
 ! A26   A(13,16,17)           109.4712         estimate D2E/DX2                !
 ! D1    D(6,1,2,3)              0.0            estimate D2E/DX2                !
 ! D2    D(6,1,2,7)            179.9999         estimate D2E/DX2                !
 ! D3    D(12,1,2,3)           180.0            estimate D2E/DX2                !
 ! D4    D(12,1,2,7)            -0.0001         estimate D2E/DX2                !
 ! D5    D(2,1,6,5)              0.0002         estimate D2E/DX2                !
 ! D6    D(2,1,6,10)          -180.0            estimate D2E/DX2                !
 ! D7    D(12,1,6,5)          -179.9998         estimate D2E/DX2                !
 ! D8    D(12,1,6,10)            0.0            estimate D2E/DX2                !
 ! D9    D(1,2,3,4)             -0.0001         estimate D2E/DX2                !
 ! D10   D(1,2,3,13)           179.9999         estimate D2E/DX2                !
 ! D11   D(7,2,3,4)            179.9999         estimate D2E/DX2                !
 ! D12   D(7,2,3,13)            -0.0001         estimate D2E/DX2                !
 ! D13   D(2,3,4,5)              0.0001         estimate D2E/DX2                !
 ! D14   D(2,3,4,8)           -180.0            estimate D2E/DX2                !
 ! D15   D(13,3,4,5)          -179.9999         estimate D2E/DX2                !
 ! D16   D(13,3,4,8)             0.0            estimate D2E/DX2                !
 ! D17   D(2,3,13,14)           90.0            estimate D2E/DX2                !
 ! D18   D(2,3,13,15)         -150.0            estimate D2E/DX2                !
 ! D19   D(2,3,13,16)          -30.0            estimate D2E/DX2                !
 ! D20   D(4,3,13,14)          -90.0            estimate D2E/DX2                !
 ! D21   D(4,3,13,15)           30.0            estimate D2E/DX2                !
 ! D22   D(4,3,13,16)          150.0            estimate D2E/DX2                !
 ! D23   D(3,4,5,6)              0.0            estimate D2E/DX2                !
 ! D24   D(3,4,5,9)            179.9998         estimate D2E/DX2                !
 ! D25   D(8,4,5,6)           -179.9999         estimate D2E/DX2                !
 ! D26   D(8,4,5,9)             -0.0001         estimate D2E/DX2                !
 ! D27   D(4,5,6,1)             -0.0002         estimate D2E/DX2                !
 ! D28   D(4,5,6,10)           180.0            estimate D2E/DX2                !
 ! D29   D(9,5,6,1)           -180.0            estimate D2E/DX2                !
 ! D30   D(9,5,6,10)             0.0002         estimate D2E/DX2                !
 ! D31   D(1,6,10,11)            0.0001         estimate D2E/DX2                !
 ! D32   D(5,6,10,11)          180.0            estimate D2E/DX2                !
 ! D33   D(3,13,16,17)        -167.5761         estimate D2E/DX2                !
 ! D34   D(14,13,16,17)         72.4239         estimate D2E/DX2                !
 ! D35   D(15,13,16,17)        -47.5761         estimate D2E/DX2                !
 --------------------------------------------------------------------------------
 Trust Radius=3.00D-01 FncErr=1.00D-07 GrdErr=1.00D-06 EigMax=2.50D+02 EigMin=1.00D-04
 Number of steps in this run=     88 maximum allowed number of steps=    102.
 GradGradGradGradGradGradGradGradGradGradGradGradGradGradGradGradGradGrad

                          Input orientation:                          
 ---------------------------------------------------------------------
 Center     Atomic      Atomic             Coordinates (Angstroms)
 Number     Number       Type             X           Y           Z
 ---------------------------------------------------------------------
      1          6           0       -1.012016    0.235856    0.220797
      2          6           0        0.271475    0.646373    0.364641
      3          6           0        1.316314   -0.285511    0.302782
      4          6           0        1.033904   -1.641908    0.092177
      5          6           0       -0.249588   -2.052425   -0.051668
      6          6           0       -1.294426   -1.120540    0.010188
      7          1           0        0.487101    1.682012    0.525444
      8          1           0        1.831661   -2.353422    0.044946
      9          1           0       -0.465213   -3.088064   -0.212473
     10          8           0       -2.526870   -1.514730   -0.127935
     11          1           0       -3.242614   -0.876361   -0.085562
     12          8           0       -2.078178    1.186759    0.283919
     13          6           0        2.774827    0.180986    0.466238
     14          1           0        3.045981    0.148148    1.500790
     15          1           0        3.420361   -0.464148   -0.092320
     16          8           0        2.904056    1.520238   -0.018122
     17          1           0        3.834367    1.743014   -0.098692
 ---------------------------------------------------------------------
                    Distance matrix (angstroms):
                    1          2          3          4          5
     1  C    0.000000
     2  C    1.355200   0.000000
     3  C    2.387397   1.401400   0.000000
     4  C    2.779988   2.427296   1.401400   0.000000
     5  C    2.427296   2.779988   2.387397   1.355200   0.000000
     6  C    1.401400   2.387397   2.756600   2.387397   1.401400
     7  H    2.105120   1.070000   2.146700   3.396345   3.849908
     8  H    3.849908   3.396345   2.146700   1.070000   2.105120
     9  H    3.396345   3.849908   3.360599   2.105120   1.070000
    10  O    2.341142   3.569837   4.057900   3.569837   2.341142
    11  H    2.511265   3.856194   4.613430   4.348133   3.215973
    12  O    1.430000   2.412344   3.700068   4.209890   3.734792
    13  C    3.795186   2.548270   1.540000   2.548270   3.795186
    14  H    4.255986   3.039234   2.148263   3.039234   4.255986
    15  H    4.498224   3.370097   2.148263   2.667646   3.999100
    16  O    4.128237   2.800112   2.425826   3.675432   4.765555
    17  H    5.085374   3.756527   3.258326   4.397353   5.575505
                    6          7          8          9         10
     6  C    0.000000
     7  H    3.360599   0.000000
     8  H    3.360599   4.280590   0.000000
     9  H    2.146700   4.919863   2.425200   0.000000
    10  O    1.301300   4.441856   4.441856   2.594793   0.000000
    11  H    1.965764   4.563922   5.286493   3.552702   0.960000
    12  O    2.452106   2.623789   5.279852   4.595886   2.769294
    13  C    4.296600   2.736837   2.736837   4.652440   5.597900
    14  H    4.761365   3.138775   3.138775   5.073147   6.039418
    15  H    4.761363   3.686686   2.472279   4.690102   6.039416
    16  O    4.960016   2.482600   4.019857   5.711934   6.222382
    17  H    5.875058   3.405504   4.562044   6.468280   7.146963
                   11         12         13         14         15
    11  H    0.000000
    12  O    2.397685   0.000000
    13  C    6.134498   4.959484   0.000000
    14  H    6.566016   5.368100   1.070000   0.000000
    15  H    6.675718   5.753345   1.070000   1.747303   0.000000
    16  O    6.597711   5.002508   1.430000   2.051796   2.051796
    17  H    7.546188   5.950966   1.970203   2.392382   2.245664
                   16         17
    16  O    0.000000
    17  H    0.960000   0.000000
 Stoichiometry    C7H7O3(2)
 Framework group  C1[X(C7H7O3)]
 Deg. of freedom    45
 Full point group                 C1      NOp   1
 Largest Abelian subgroup         C1      NOp   1
 Largest concise Abelian subgroup C1      NOp   1
                         Standard orientation:                         
 ---------------------------------------------------------------------
 Center     Atomic      Atomic             Coordinates (Angstroms)
 Number     Number       Type             X           Y           Z
 ---------------------------------------------------------------------
      1          6           0       -0.975198    0.822695    0.057506
      2          6           0        0.377259    0.829113    0.143461
      3          6           0        1.086041   -0.379745    0.128911
      4          6           0        0.396260   -1.595240    0.025479
      5          6           0       -0.956196   -1.601657   -0.060476
      6          6           0       -1.664978   -0.392799   -0.045929
      7          1           0        0.903921    1.757170    0.222434
      8          1           0        0.937431   -2.518230    0.014370
      9          1           0       -1.482858   -2.529714   -0.139451
     10          8           0       -2.963643   -0.398961   -0.128466
     11          1           0       -3.449180    0.429142   -0.118501
     12          8           0       -1.698445    2.056224    0.072353
     13          6           0        2.622923   -0.372453    0.226584
     14          1           0        2.915195   -0.420200    1.254785
     15          1           0        3.017543   -1.218638   -0.296050
     16          8           0        3.132032    0.829013   -0.358385
     17          1           0        4.081727    0.750769   -0.474819
 ---------------------------------------------------------------------
 Rotational constants (GHZ):           2.6889464           0.9103320           0.6904232
 Standard basis: 6-311G(d,p) (5D, 7F)
 There are   232 symmetry adapted cartesian basis functions of A   symmetry.
 There are   222 symmetry adapted basis functions of A   symmetry.
   222 basis functions,   376 primitive gaussians,   232 cartesian basis functions
    37 alpha electrons       36 beta electrons
       nuclear repulsion energy       499.4535055974 Hartrees.
 NAtoms=   17 NActive=   17 NUniq=   17 SFac= 1.00D+00 NAtFMM=   60 NAOKFM=F Big=F
 Integral buffers will be    131072 words long.
 Raffenetti 2 integral format.
 Two-electron integral symmetry is turned on.
 One-electron integrals computed using PRISM.
 NBasis=   222 RedAO= T EigKep=  1.91D-04  NBF=   222
 NBsUse=   222 1.00D-06 EigRej= -1.00D+00 NBFU=   222
 ExpMin= 1.03D-01 ExpMax= 8.59D+03 ExpMxC= 1.30D+03 IAcc=3 IRadAn=         5 AccDes= 0.00D+00
 Harris functional with IExCor=  402 and IRadAn=       5 diagonalized for initial guess.
 HarFok:  IExCor=  402 AccDes= 0.00D+00 IRadAn=         5 IDoV= 1 UseB2=F ITyADJ=14
 ICtDFT=  3500011 ScaDFX=  1.000000  1.000000  1.000000  1.000000
 FoFCou: FMM=F IPFlag=           0 FMFlag=      100000 FMFlg1=           0
         NFxFlg=           0 DoJE=T BraDBF=F KetDBF=T FulRan=T
         wScrn=  0.000000 ICntrl=       500 IOpCl=  0 I1Cent=   200000004 NGrid=           0
         NMat0=    1 NMatS0=      1 NMatT0=    0 NMatD0=    1 NMtDS0=    0 NMtDT0=    0
 Petite list used in FoFCou.
 Initial guess <Sx>= 0.0000 <Sy>= 0.0000 <Sz>= 0.5000 <S**2>= 0.7500 S= 0.5000
 Requested convergence on RMS density matrix=1.00D-08 within 128 cycles.
 Requested convergence on MAX density matrix=1.00D-06.
 Requested convergence on             energy=1.00D-06.
 No special actions if energy rises.
 Integral accuracy reduced to 1.0D-05 until final iterations.
 Initial convergence to 1.0D-05 achieved.  Increase integral accuracy.
 SCF Done:  E(UB3LYP) =  -496.687221785     A.U. after   26 cycles
            NFock= 26  Conv=0.26D-08     -V/T= 2.0030
 <Sx>= 0.0000 <Sy>= 0.0000 <Sz>= 0.5000 <S**2>= 0.7697 S= 0.5098
 <L.S>=  0.00000000000    
 Annihilation of the first spin contaminant:
 S**2 before annihilation     0.7697,   after     0.7502

 **********************************************************************

            Population analysis using the SCF density.

 **********************************************************************

 Orbital symmetries:
 Alpha Orbitals:
       Occupied  (A) (A) (A) (A) (A) (A) (A) (A) (A) (A) (A) (A)
                 (A) (A) (A) (A) (A) (A) (A) (A) (A) (A) (A) (A)
                 (A) (A) (A) (A) (A) (A) (A) (A) (A) (A) (A) (A)
                 (A)
       Virtual   (A) (A) (A) (A) (A) (A) (A) (A) (A) (A) (A) (A)
                 (A) (A) (A) (A) (A) (A) (A) (A) (A) (A) (A) (A)
                 (A) (A) (A) (A) (A) (A) (A) (A) (A) (A) (A) (A)
                 (A) (A) (A) (A) (A) (A) (A) (A) (A) (A) (A) (A)
                 (A) (A) (A) (A) (A) (A) (A) (A) (A) (A) (A) (A)
                 (A) (A) (A) (A) (A) (A) (A) (A) (A) (A) (A) (A)
                 (A) (A) (A) (A) (A) (A) (A) (A) (A) (A) (A) (A)
                 (A) (A) (A) (A) (A) (A) (A) (A) (A) (A) (A) (A)
                 (A) (A) (A) (A) (A) (A) (A) (A) (A) (A) (A) (A)
                 (A) (A) (A) (A) (A) (A) (A) (A) (A) (A) (A) (A)
                 (A) (A) (A) (A) (A) (A) (A) (A) (A) (A) (A) (A)
                 (A) (A) (A) (A) (A) (A) (A) (A) (A) (A) (A) (A)
                 (A) (A) (A) (A) (A) (A) (A) (A) (A) (A) (A) (A)
                 (A) (A) (A) (A) (A) (A) (A) (A) (A) (A) (A) (A)
                 (A) (A) (A) (A) (A) (A) (A) (A) (A) (A) (A) (A)
                 (A) (A) (A) (A) (A)
 Beta  Orbitals:
       Occupied  (A) (A) (A) (A) (A) (A) (A) (A) (A) (A) (A) (A)
                 (A) (A) (A) (A) (A) (A) (A) (A) (A) (A) (A) (A)
                 (A) (A) (A) (A) (A) (A) (A) (A) (A) (A) (A) (A)
       Virtual   (A) (A) (A) (A) (A) (A) (A) (A) (A) (A) (A) (A)
                 (A) (A) (A) (A) (A) (A) (A) (A) (A) (A) (A) (A)
                 (A) (A) (A) (A) (A) (A) (A) (A) (A) (A) (A) (A)
                 (A) (A) (A) (A) (A) (A) (A) (A) (A) (A) (A) (A)
                 (A) (A) (A) (A) (A) (A) (A) (A) (A) (A) (A) (A)
                 (A) (A) (A) (A) (A) (A) (A) (A) (A) (A) (A) (A)
                 (A) (A) (A) (A) (A) (A) (A) (A) (A) (A) (A) (A)
                 (A) (A) (A) (A) (A) (A) (A) (A) (A) (A) (A) (A)
                 (A) (A) (A) (A) (A) (A) (A) (A) (A) (A) (A) (A)
                 (A) (A) (A) (A) (A) (A) (A) (A) (A) (A) (A) (A)
                 (A) (A) (A) (A) (A) (A) (A) (A) (A) (A) (A) (A)
                 (A) (A) (A) (A) (A) (A) (A) (A) (A) (A) (A) (A)
                 (A) (A) (A) (A) (A) (A) (A) (A) (A) (A) (A) (A)
                 (A) (A) (A) (A) (A) (A) (A) (A) (A) (A) (A) (A)
                 (A) (A) (A) (A) (A) (A) (A) (A) (A) (A) (A) (A)
                 (A) (A) (A) (A) (A) (A)
 The electronic state is 2-A.
 Alpha  occ. eigenvalues --  -19.16941 -19.12863 -19.12098 -10.26187 -10.23039
 Alpha  occ. eigenvalues --  -10.22963 -10.19648 -10.19401 -10.18302 -10.17930
 Alpha  occ. eigenvalues --   -1.10498  -1.02871  -0.97416  -0.87629  -0.77870
 Alpha  occ. eigenvalues --   -0.76289  -0.70033  -0.63518  -0.62215  -0.57337
 Alpha  occ. eigenvalues --   -0.53576  -0.49781  -0.48427  -0.46711  -0.45524
 Alpha  occ. eigenvalues --   -0.45372  -0.43351  -0.40170  -0.39239  -0.38036
 Alpha  occ. eigenvalues --   -0.35718  -0.34826  -0.34507  -0.28625  -0.27954
 Alpha  occ. eigenvalues --   -0.26304  -0.22994
 Alpha virt. eigenvalues --   -0.01807  -0.00970   0.02892   0.04333   0.05283
 Alpha virt. eigenvalues --    0.07703   0.09596   0.11070   0.13399   0.15004
 Alpha virt. eigenvalues --    0.16003   0.18626   0.20621   0.24575   0.27175
 Alpha virt. eigenvalues --    0.29090   0.29999   0.32156   0.35258   0.37375
 Alpha virt. eigenvalues --    0.37532   0.38571   0.39149   0.39680   0.40659
 Alpha virt. eigenvalues --    0.41902   0.43843   0.45524   0.46904   0.47019
 Alpha virt. eigenvalues --    0.48607   0.49491   0.51084   0.52879   0.53333
 Alpha virt. eigenvalues --    0.54647   0.56811   0.59271   0.60647   0.60976
 Alpha virt. eigenvalues --    0.63010   0.63674   0.65153   0.68319   0.72612
 Alpha virt. eigenvalues --    0.73318   0.76141   0.78566   0.78997   0.81156
 Alpha virt. eigenvalues --    0.83693   0.84462   0.85605   0.88362   0.88804
 Alpha virt. eigenvalues --    0.89975   0.91603   0.94144   0.96481   0.97802
 Alpha virt. eigenvalues --    0.99424   1.01039   1.04711   1.06855   1.09450
 Alpha virt. eigenvalues --    1.11375   1.15542   1.17257   1.20427   1.22711
 Alpha virt. eigenvalues --    1.31957   1.34260   1.35018   1.38219   1.41192
 Alpha virt. eigenvalues --    1.42441   1.42850   1.46589   1.48171   1.50867
 Alpha virt. eigenvalues --    1.52256   1.54252   1.55516   1.56787   1.59829
 Alpha virt. eigenvalues --    1.59864   1.61469   1.62840   1.65362   1.65954
 Alpha virt. eigenvalues --    1.66587   1.70283   1.73108   1.76156   1.79314
 Alpha virt. eigenvalues --    1.81602   1.86182   1.87213   1.90372   1.90471
 Alpha virt. eigenvalues --    1.92471   1.94763   1.96173   1.98639   2.00730
 Alpha virt. eigenvalues --    2.03878   2.06288   2.09178   2.11597   2.13868
 Alpha virt. eigenvalues --    2.19749   2.24977   2.30519   2.33483   2.36731
 Alpha virt. eigenvalues --    2.42320   2.43382   2.46860   2.49886   2.51528
 Alpha virt. eigenvalues --    2.52504   2.54254   2.56442   2.61824   2.63737
 Alpha virt. eigenvalues --    2.65729   2.66512   2.67857   2.70293   2.72936
 Alpha virt. eigenvalues --    2.76457   2.79612   2.81878   2.83555   2.87915
 Alpha virt. eigenvalues --    2.89199   2.93540   2.94704   3.03232   3.04804
 Alpha virt. eigenvalues --    3.07632   3.09406   3.10997   3.13459   3.14497
 Alpha virt. eigenvalues --    3.21377   3.23111   3.24675   3.28320   3.34030
 Alpha virt. eigenvalues --    3.39348   3.41540   3.52188   3.59247   3.63306
 Alpha virt. eigenvalues --    3.66414   3.81035   3.84937   3.90283   3.90922
 Alpha virt. eigenvalues --    3.97938   4.03966   4.08278   4.12851   4.26007
 Alpha virt. eigenvalues --    4.75916   4.83219   4.83473   4.86802   4.94084
 Alpha virt. eigenvalues --    5.24702   5.25708   5.40452   5.63720   5.81284
 Alpha virt. eigenvalues --   23.43707  23.80472  23.86949  23.91990  24.00955
 Alpha virt. eigenvalues --   24.17188  24.22768  49.85717  49.88285  49.92176
  Beta  occ. eigenvalues --  -19.16726 -19.12097 -19.11179 -10.25900 -10.23103
  Beta  occ. eigenvalues --  -10.22960 -10.19471 -10.19381 -10.18408 -10.17785
  Beta  occ. eigenvalues --   -1.10035  -1.02869  -0.94250  -0.86915  -0.77696
  Beta  occ. eigenvalues --   -0.75323  -0.69772  -0.63154  -0.62084  -0.57004
  Beta  occ. eigenvalues --   -0.53484  -0.49702  -0.48321  -0.46537  -0.45212
  Beta  occ. eigenvalues --   -0.44008  -0.42680  -0.39999  -0.38708  -0.35731
  Beta  occ. eigenvalues --   -0.35453  -0.34334  -0.30626  -0.28516  -0.26356
  Beta  occ. eigenvalues --   -0.23946
  Beta virt. eigenvalues --   -0.13708  -0.00726   0.00863   0.02934   0.04504
  Beta virt. eigenvalues --    0.05361   0.07710   0.09739   0.11139   0.13519
  Beta virt. eigenvalues --    0.15560   0.16803   0.18864   0.20708   0.24842
  Beta virt. eigenvalues --    0.27407   0.29154   0.30171   0.32383   0.35525
  Beta virt. eigenvalues --    0.37703   0.37768   0.38841   0.39319   0.39790
  Beta virt. eigenvalues --    0.40821   0.42075   0.44276   0.45667   0.47046
  Beta virt. eigenvalues --    0.47220   0.49088   0.49595   0.51239   0.53164
  Beta virt. eigenvalues --    0.53507   0.54891   0.56990   0.59370   0.60822
  Beta virt. eigenvalues --    0.61058   0.63125   0.63994   0.65204   0.68559
  Beta virt. eigenvalues --    0.72973   0.73494   0.76327   0.79144   0.79345
  Beta virt. eigenvalues --    0.81998   0.83938   0.84575   0.85932   0.88615
  Beta virt. eigenvalues --    0.89925   0.91437   0.92735   0.94416   0.96780
  Beta virt. eigenvalues --    0.98242   0.99658   1.01377   1.04964   1.07124
  Beta virt. eigenvalues --    1.09965   1.11531   1.16172   1.17457   1.20826
  Beta virt. eigenvalues --    1.22898   1.32062   1.34350   1.35073   1.38285
  Beta virt. eigenvalues --    1.41231   1.42632   1.42963   1.46749   1.48450
  Beta virt. eigenvalues --    1.51218   1.52383   1.54356   1.55768   1.56969
  Beta virt. eigenvalues --    1.59863   1.61085   1.61615   1.62920   1.65687
  Beta virt. eigenvalues --    1.66150   1.67054   1.70402   1.73186   1.76466
  Beta virt. eigenvalues --    1.79542   1.81859   1.86278   1.87511   1.90538
  Beta virt. eigenvalues --    1.90836   1.92646   1.94997   1.96214   1.98753
  Beta virt. eigenvalues --    2.00819   2.04128   2.06431   2.09546   2.11776
  Beta virt. eigenvalues --    2.13997   2.19959   2.25111   2.30811   2.33734
  Beta virt. eigenvalues --    2.36778   2.42401   2.43515   2.46949   2.50341
  Beta virt. eigenvalues --    2.51871   2.52661   2.54560   2.56518   2.61908
  Beta virt. eigenvalues --    2.63803   2.65946   2.67016   2.68578   2.70727
  Beta virt. eigenvalues --    2.73126   2.76534   2.79798   2.83348   2.84255
  Beta virt. eigenvalues --    2.91418   2.93589   2.94358   2.94944   3.04324
  Beta virt. eigenvalues --    3.05347   3.07874   3.09695   3.13558   3.14398
  Beta virt. eigenvalues --    3.14754   3.21510   3.24101   3.25135   3.28393
  Beta virt. eigenvalues --    3.34266   3.39770   3.41755   3.52385   3.59452
  Beta virt. eigenvalues --    3.64063   3.66559   3.81061   3.84954   3.90477
  Beta virt. eigenvalues --    3.90947   3.98640   4.04312   4.08608   4.13075
  Beta virt. eigenvalues --    4.26059   4.78946   4.83656   4.86816   4.88694
  Beta virt. eigenvalues --    4.95390   5.25036   5.25736   5.41641   5.63721
  Beta virt. eigenvalues --    5.81554  23.43788  23.80470  23.87006  23.92150
  Beta virt. eigenvalues --   24.01054  24.17279  24.22856  49.86981  49.88348
  Beta virt. eigenvalues --   49.92764
          Condensed to atoms (all electrons):
               1          2          3          4          5          6
     1  C    5.264067   0.249781   0.009440  -0.039833  -0.021106   0.146836
     2  C    0.249781   5.152200   0.325919  -0.047114  -0.036281   0.015353
     3  C    0.009440   0.325919   5.445814   0.476048  -0.051200  -0.066045
     4  C   -0.039833  -0.047114   0.476048   4.806529   0.518391  -0.032151
     5  C   -0.021106  -0.036281  -0.051200   0.518391   4.972943   0.397663
     6  C    0.146836   0.015353  -0.066045  -0.032151   0.397663   5.020248
     7  H   -0.043040   0.414200  -0.053399   0.008616  -0.002508   0.013655
     8  H   -0.001698   0.007771  -0.053869   0.421485  -0.035475   0.010229
     9  H    0.010641  -0.002093   0.009278  -0.035449   0.400582  -0.037492
    10  O   -0.095703   0.009134  -0.000800   0.004133  -0.059904   0.427495
    11  H   -0.008314   0.004131  -0.000569  -0.000259   0.007871  -0.055267
    12  O    0.464207  -0.077344   0.008805  -0.000602   0.006654  -0.088465
    13  C    0.004225  -0.042244   0.297193  -0.047632   0.004315   0.000021
    14  H    0.000126  -0.008739  -0.044225   0.000893  -0.000831   0.000013
    15  H    0.000307   0.008970  -0.057537  -0.003020   0.001064  -0.000098
    16  O    0.000992   0.003833  -0.059215   0.002001  -0.000164   0.000011
    17  H   -0.000026  -0.000523   0.013013  -0.000411   0.000017   0.000000
               7          8          9         10         11         12
     1  C   -0.043040  -0.001698   0.010641  -0.095703  -0.008314   0.464207
     2  C    0.414200   0.007771  -0.002093   0.009134   0.004131  -0.077344
     3  C   -0.053399  -0.053869   0.009278  -0.000800  -0.000569   0.008805
     4  C    0.008616   0.421485  -0.035449   0.004133  -0.000259  -0.000602
     5  C   -0.002508  -0.035475   0.400582  -0.059904   0.007871   0.006654
     6  C    0.013655   0.010229  -0.037492   0.427495  -0.055267  -0.088465
     7  H    0.531024  -0.000169   0.000085  -0.000084  -0.000126   0.005062
     8  H   -0.000169   0.571185  -0.010655  -0.000135   0.000022   0.000007
     9  H    0.000085  -0.010655   0.553573   0.004938  -0.000833  -0.000117
    10  O   -0.000084  -0.000135   0.004938   7.721322   0.326094  -0.008661
    11  H   -0.000126   0.000022  -0.000833   0.326094   0.420365   0.027551
    12  O    0.005062   0.000007  -0.000117  -0.008661   0.027551   8.046459
    13  C   -0.009651  -0.006628  -0.000319   0.000000   0.000006  -0.000130
    14  H   -0.000057   0.000222   0.000023  -0.000001   0.000000   0.000004
    15  H    0.001274   0.003480  -0.000008  -0.000000  -0.000000   0.000002
    16  O    0.017560  -0.000037   0.000002   0.000000   0.000000  -0.000001
    17  H   -0.001078  -0.000038  -0.000001  -0.000000  -0.000000   0.000000
              13         14         15         16         17
     1  C    0.004225   0.000126   0.000307   0.000992  -0.000026
     2  C   -0.042244  -0.008739   0.008970   0.003833  -0.000523
     3  C    0.297193  -0.044225  -0.057537  -0.059215   0.013013
     4  C   -0.047632   0.000893  -0.003020   0.002001  -0.000411
     5  C    0.004315  -0.000831   0.001064  -0.000164   0.000017
     6  C    0.000021   0.000013  -0.000098   0.000011   0.000000
     7  H   -0.009651  -0.000057   0.001274   0.017560  -0.001078
     8  H   -0.006628   0.000222   0.003480  -0.000037  -0.000038
     9  H   -0.000319   0.000023  -0.000008   0.000002  -0.000001
    10  O    0.000000  -0.000001  -0.000000   0.000000  -0.000000
    11  H    0.000006   0.000000  -0.000000   0.000000  -0.000000
    12  O   -0.000130   0.000004   0.000002  -0.000001   0.000000
    13  C    4.674599   0.397813   0.417216   0.283686  -0.034248
    14  H    0.397813   0.622284  -0.047512  -0.036169  -0.001617
    15  H    0.417216  -0.047512   0.612365  -0.029108  -0.008835
    16  O    0.283686  -0.036169  -0.029108   7.919979   0.307261
    17  H   -0.034248  -0.001617  -0.008835   0.307261   0.483530
          Atomic-Atomic Spin Densities.
               1          2          3          4          5          6
     1  C   -0.079374   0.033239   0.000370  -0.001793  -0.000507   0.039097
     2  C    0.033239   0.104990  -0.014911  -0.005691   0.001275   0.002293
     3  C    0.000370  -0.014911  -0.062209   0.020956  -0.000573  -0.003129
     4  C   -0.001793  -0.005691   0.020956   0.206035  -0.014677  -0.010600
     5  C   -0.000507   0.001275  -0.000573  -0.014677  -0.091812   0.020147
     6  C    0.039097   0.002293  -0.003129  -0.010600   0.020147   0.209776
     7  H    0.000955   0.001649  -0.000190  -0.000169   0.000055  -0.000474
     8  H   -0.000008  -0.000038   0.000258   0.001675   0.000167  -0.000196
     9  H    0.000016  -0.000023  -0.000005  -0.000012   0.000663  -0.000564
    10  O   -0.000206  -0.000316   0.000045   0.000388  -0.000750  -0.046469
    11  H    0.000328  -0.000146   0.000034  -0.000016  -0.000540   0.000692
    12  O   -0.049192  -0.007576  -0.000041   0.000141  -0.000437  -0.011556
    13  C   -0.000114  -0.001009   0.004940  -0.000165   0.000098  -0.000104
    14  H   -0.000003   0.000692  -0.000217  -0.000816   0.000007   0.000026
    15  H   -0.000014   0.000035   0.000764  -0.000206  -0.000018   0.000008
    16  O   -0.000002  -0.000135   0.000523  -0.000000  -0.000001   0.000001
    17  H    0.000003  -0.000003  -0.000147  -0.000004   0.000001  -0.000000
               7          8          9         10         11         12
     1  C    0.000955  -0.000008   0.000016  -0.000206   0.000328  -0.049192
     2  C    0.001649  -0.000038  -0.000023  -0.000316  -0.000146  -0.007576
     3  C   -0.000190   0.000258  -0.000005   0.000045   0.000034  -0.000041
     4  C   -0.000169   0.001675  -0.000012   0.000388  -0.000016   0.000141
     5  C    0.000055   0.000167   0.000663  -0.000750  -0.000540  -0.000437
     6  C   -0.000474  -0.000196  -0.000564  -0.046469   0.000692  -0.011556
     7  H   -0.008295   0.000006  -0.000005  -0.000001   0.000013  -0.000432
     8  H    0.000006  -0.012995   0.000199   0.000003   0.000000   0.000000
     9  H   -0.000005   0.000199   0.002882  -0.000048   0.000024   0.000003
    10  O   -0.000001   0.000003  -0.000048   0.109926   0.001913   0.002512
    11  H    0.000013   0.000000   0.000024   0.001913  -0.004625  -0.001889
    12  O   -0.000432   0.000000   0.000003   0.002512  -0.001889   0.705769
    13  C    0.000073   0.000191  -0.000004   0.000000  -0.000001   0.000005
    14  H    0.000012  -0.000032   0.000000  -0.000000   0.000000  -0.000003
    15  H    0.000005  -0.000006   0.000001   0.000000   0.000000  -0.000000
    16  O    0.000059  -0.000000  -0.000000  -0.000000  -0.000000   0.000000
    17  H   -0.000003  -0.000000   0.000000   0.000000   0.000000   0.000000
              13         14         15         16         17
     1  C   -0.000114  -0.000003  -0.000014  -0.000002   0.000003
     2  C   -0.001009   0.000692   0.000035  -0.000135  -0.000003
     3  C    0.004940  -0.000217   0.000764   0.000523  -0.000147
     4  C   -0.000165  -0.000816  -0.000206  -0.000000  -0.000004
     5  C    0.000098   0.000007  -0.000018  -0.000001   0.000001
     6  C   -0.000104   0.000026   0.000008   0.000001  -0.000000
     7  H    0.000073   0.000012   0.000005   0.000059  -0.000003
     8  H    0.000191  -0.000032  -0.000006  -0.000000  -0.000000
     9  H   -0.000004   0.000000   0.000001  -0.000000   0.000000
    10  O    0.000000  -0.000000   0.000000  -0.000000   0.000000
    11  H   -0.000001   0.000000   0.000000  -0.000000   0.000000
    12  O    0.000005  -0.000003  -0.000000   0.000000   0.000000
    13  C    0.000627  -0.001032   0.000012  -0.000599   0.000065
    14  H   -0.001032   0.002533   0.000281  -0.000453  -0.000150
    15  H    0.000012   0.000281  -0.001528   0.000047   0.000147
    16  O   -0.000599  -0.000453   0.000047   0.000986   0.000135
    17  H    0.000065  -0.000150   0.000147   0.000135  -0.000338
 Mulliken charges and spin densities:
               1          2
     1  C    0.059098  -0.057204
     2  C    0.023046   0.114324
     3  C   -0.198649  -0.053533
     4  C   -0.031626   0.195046
     5  C   -0.102030  -0.086904
     6  C    0.247995   0.198947
     7  H    0.118636  -0.006742
     8  H    0.094301  -0.010775
     9  H    0.107846   0.003128
    10  O   -0.327827   0.066996
    11  H    0.279329  -0.004211
    12  O   -0.383432   0.637305
    13  C    0.061777   0.002983
    14  H    0.117772   0.000846
    15  H    0.101441  -0.000472
    16  O   -0.410632   0.000560
    17  H    0.242956  -0.000295
 Sum of Mulliken charges =  -0.00000   1.00000
 Mulliken charges and spin densities with hydrogens summed into heavy atoms:
               1          2
     1  C    0.059098  -0.057204
     2  C    0.141682   0.107583
     3  C   -0.198649  -0.053533
     4  C    0.062676   0.184272
     5  C    0.005816  -0.083776
     6  C    0.247995   0.198947
    10  O   -0.048499   0.062785
    12  O   -0.383432   0.637305
    13  C    0.280990   0.003357
    16  O   -0.167676   0.000265
 Electronic spatial extent (au):  <R**2>=           1563.4328
 Charge=             -0.0000 electrons
 Dipole moment (field-independent basis, Debye):
    X=              2.3650    Y=             -3.2819    Z=              0.2922  Tot=              4.0558
 Quadrupole moment (field-independent basis, Debye-Ang):
   XX=            -43.0003   YY=            -60.8266   ZZ=            -58.9457
   XY=             -1.3023   XZ=              0.7242   YZ=              0.2217
 Traceless Quadrupole moment (field-independent basis, Debye-Ang):
   XX=             11.2573   YY=             -6.5691   ZZ=             -4.6882
   XY=             -1.3023   XZ=              0.7242   YZ=              0.2217
 Octapole moment (field-independent basis, Debye-Ang**2):
  XXX=             37.4721  YYY=            -16.9403  ZZZ=             -1.2697  XYY=              9.9984
  XXY=              5.4598  XXZ=             -4.6161  XZZ=             -0.7852  YZZ=              5.1327
  YYZ=             -1.6090  XYZ=              1.3627
 Hexadecapole moment (field-independent basis, Debye-Ang**3):
 XXXX=           -938.3347 YYYY=           -517.5920 ZZZZ=            -74.3031 XXXY=            -25.0851
 XXXZ=            -27.9347 YYYX=             31.9695 YYYZ=              0.7335 ZZZX=             -1.6229
 ZZZY=             -0.7905 XXYY=           -325.5172 XXZZ=           -231.5146 YYZZ=           -102.0747
 XXYZ=             -4.5292 YYXZ=             -0.0431 ZZXY=             -1.7869
 N-N= 4.994535055974D+02 E-N=-2.162136598044D+03  KE= 4.951835280566D+02
                          Isotropic Fermi Contact Couplings
        Atom                 a.u.       MegaHertz       Gauss      10(-4) cm-1
     1  C(13)             -0.02659     -29.89309     -10.66660      -9.97126
     2  C(13)              0.00295       3.31362       1.18238       1.10531
     3  C(13)             -0.00969     -10.89818      -3.88874      -3.63524
     4  C(13)              0.01062      11.93396       4.25833       3.98074
     5  C(13)             -0.01303     -14.64564      -5.22593      -4.88526
     6  C(13)              0.00792       8.90437       3.17730       2.97018
     7  H(1)              -0.00179      -7.99748      -2.85370      -2.66767
     8  H(1)              -0.00265     -11.86229      -4.23276      -3.95683
     9  H(1)               0.00073       3.27334       1.16801       1.09187
    10  O(17)              0.00869      -5.26606      -1.87906      -1.75657
    11  H(1)              -0.00119      -5.32011      -1.89835      -1.77460
    12  O(17)              0.03921     -23.76894      -8.48135      -7.92846
    13  C(13)              0.00036       0.40194       0.14342       0.13407
    14  H(1)               0.00015       0.66724       0.23809       0.22257
    15  H(1)              -0.00012      -0.55442      -0.19783      -0.18493
    16  O(17)             -0.00190       1.15127       0.41080       0.38402
    17  H(1)              -0.00008      -0.34233      -0.12215      -0.11419
 --------------------------------------------------------
       Center         ----  Spin Dipole Couplings  ----
                      3XX-RR        3YY-RR        3ZZ-RR
 --------------------------------------------------------
     1   Atom       -0.007697      0.013509     -0.005812
     2   Atom       -0.053282     -0.060994      0.114277
     3   Atom        0.016959      0.019325     -0.036284
     4   Atom       -0.104690     -0.099945      0.204635
     5   Atom        0.035576      0.037266     -0.072842
     6   Atom       -0.121238     -0.115249      0.236487
     7   Atom        0.006218     -0.000665     -0.005554
     8   Atom       -0.008194      0.009632     -0.001438
     9   Atom        0.001016      0.003179     -0.004195
    10   Atom       -0.175915     -0.173715      0.349630
    11   Atom        0.001339      0.008615     -0.009953
    12   Atom       -1.264069     -1.255187      2.519257
    13   Atom        0.002485     -0.000790     -0.001695
    14   Atom        0.001879     -0.000776     -0.001103
    15   Atom        0.002932     -0.001264     -0.001668
    16   Atom       -0.000193     -0.004092      0.004285
    17   Atom        0.001634     -0.000765     -0.000869
 --------------------------------------------------------
                        XY            XZ            YZ
 --------------------------------------------------------
     1   Atom       -0.013076     -0.000161     -0.000072
     2   Atom       -0.000901     -0.012432     -0.007639
     3   Atom       -0.001265      0.005242      0.003522
     4   Atom       -0.003435     -0.024313     -0.017244
     5   Atom       -0.005052      0.006516      0.004993
     6   Atom        0.001991     -0.022828     -0.017566
     7   Atom        0.007201      0.001156      0.000836
     8   Atom       -0.012802     -0.000827     -0.000691
     9   Atom       -0.003175      0.000165      0.000189
    10   Atom        0.002955     -0.033103     -0.026080
    11   Atom       -0.004274      0.000506      0.000642
    12   Atom        0.002127     -0.236196     -0.188965
    13   Atom        0.000269      0.000165      0.000981
    14   Atom       -0.000184      0.001293     -0.000049
    15   Atom       -0.000451     -0.000383      0.000150
    16   Atom       -0.001579      0.000223     -0.002285
    17   Atom        0.000036     -0.000272     -0.000047
 --------------------------------------------------------


 ---------------------------------------------------------------------------------
              Anisotropic Spin Dipole Couplings in Principal Axis System
 ---------------------------------------------------------------------------------

       Atom             a.u.   MegaHertz   Gauss  10(-4) cm-1        Axes

              Baa    -0.0139    -1.870    -0.667    -0.624  0.9025  0.4301  0.0217
     1 C(13)  Bbb    -0.0058    -0.779    -0.278    -0.260 -0.0195 -0.0095  0.9998
              Bcc     0.0197     2.649     0.945     0.884 -0.4302  0.9027  0.0002
 
              Baa    -0.0616    -8.267    -2.950    -2.758  0.1898  0.9802  0.0560
     2 C(13)  Bbb    -0.0539    -7.234    -2.581    -2.413  0.9791 -0.1932  0.0636
              Bcc     0.1155    15.501     5.531     5.171 -0.0732 -0.0428  0.9964
 
              Baa    -0.0370    -4.969    -1.773    -1.657 -0.0979 -0.0643  0.9931
     3 C(13)  Bbb     0.0171     2.298     0.820     0.767  0.9292  0.3514  0.1144
              Bcc     0.0199     2.671     0.953     0.891 -0.3563  0.9340  0.0253
 
              Baa    -0.1093   -14.665    -5.233    -4.892  0.8655  0.4920  0.0941
     4 C(13)  Bbb    -0.0982   -13.175    -4.701    -4.395 -0.4949  0.8689  0.0097
              Bcc     0.2075    27.840     9.934     9.286 -0.0769 -0.0550  0.9955
 
              Baa    -0.0735    -9.861    -3.519    -3.289 -0.0618 -0.0478  0.9969
     5 C(13)  Bbb     0.0319     4.286     1.529     1.430  0.7588  0.6467  0.0780
              Bcc     0.0415     5.575     1.989     1.860 -0.6484  0.7613 -0.0037
 
              Baa    -0.1228   -16.479    -5.880    -5.497  0.9900 -0.1294  0.0566
     6 C(13)  Bbb    -0.1160   -15.568    -5.555    -5.193  0.1261  0.9903  0.0575
              Bcc     0.2388    32.047    11.435    10.690 -0.0635 -0.0498  0.9967
 
              Baa    -0.0057    -3.038    -1.084    -1.013  0.0249 -0.1984  0.9798
     7 H(1)   Bbb    -0.0052    -2.768    -0.988    -0.923 -0.5381  0.8233  0.1804
              Bcc     0.0109     5.806     2.072     1.937  0.8425  0.5317  0.0863
 
              Baa    -0.0150    -7.983    -2.848    -2.663  0.8834  0.4620  0.0776
     8 H(1)   Bbb    -0.0014    -0.725    -0.259    -0.242 -0.0748 -0.0244  0.9969
              Bcc     0.0163     8.708     3.107     2.905 -0.4625  0.8865 -0.0130
 
              Baa    -0.0042    -2.249    -0.803    -0.750 -0.0634 -0.0528  0.9966
     9 H(1)   Bbb    -0.0012    -0.660    -0.235    -0.220  0.8108  0.5795  0.0823
              Bcc     0.0055     2.909     1.038     0.970 -0.5818  0.8133  0.0060
 
              Baa    -0.1785    12.915     4.609     4.308  0.9344 -0.3538  0.0411
    10 O(17)  Bbb    -0.1745    12.628     4.506     4.212  0.3506  0.9340  0.0686
              Bcc     0.3530   -25.544    -9.115    -8.520 -0.0627 -0.0497  0.9968
 
              Baa    -0.0100    -5.344    -1.907    -1.783 -0.0628 -0.0487  0.9968
    11 H(1)   Bbb    -0.0006    -0.309    -0.110    -0.103  0.9062  0.4158  0.0774
              Bcc     0.0106     5.653     2.017     1.886 -0.4183  0.9081  0.0181
 
              Baa    -1.2836    92.880    33.142    30.981  0.8898  0.4496  0.0776
    12 O(17)  Bbb    -1.2597    91.153    32.526    30.405 -0.4521  0.8918  0.0163
              Bcc     2.5433  -184.033   -65.668   -61.387 -0.0619 -0.0496  0.9968
 
              Baa    -0.0023    -0.312    -0.111    -0.104  0.0011 -0.5391  0.8423
    13 C(13)  Bbb    -0.0002    -0.027    -0.010    -0.009 -0.1167  0.8364  0.5355
              Bcc     0.0025     0.338     0.121     0.113  0.9932  0.0989  0.0620
 
              Baa    -0.0016    -0.846    -0.302    -0.282 -0.3505 -0.0235  0.9363
    14 H(1)   Bbb    -0.0008    -0.420    -0.150    -0.140  0.0480  0.9979  0.0430
              Bcc     0.0024     1.266     0.452     0.422  0.9353 -0.0600  0.3487
 
              Baa    -0.0017    -0.923    -0.329    -0.308  0.0542 -0.2588  0.9644
    15 H(1)   Bbb    -0.0013    -0.685    -0.244    -0.229  0.1255  0.9600  0.2505
              Bcc     0.0030     1.608     0.574     0.536  0.9906 -0.1074 -0.0845
 
              Baa    -0.0051     0.370     0.132     0.124  0.2888  0.9319  0.2196
    16 O(17)  Bbb     0.0002    -0.013    -0.005    -0.004  0.9495 -0.2494 -0.1903
              Bcc     0.0049    -0.358    -0.128    -0.119  0.1225 -0.2635  0.9569
 
              Baa    -0.0009    -0.486    -0.173    -0.162  0.0979  0.2808  0.9547
    17 H(1)   Bbb    -0.0008    -0.402    -0.143    -0.134 -0.0462  0.9596 -0.2775
              Bcc     0.0017     0.888     0.317     0.296  0.9941  0.0170 -0.1070
 

 ---------------------------------------------------------------------------------

 Calling FoFJK, ICntrl=      2127 FMM=F ISym2X=0 I1Cent= 0 IOpClX= 1 NMat=1 NMatS=1 NMatT=0.
 ***** Axes restored to original set *****
 -------------------------------------------------------------------
 Center     Atomic                   Forces (Hartrees/Bohr)
 Number     Number              X              Y              Z
 -------------------------------------------------------------------
      1        6          -0.095341951    0.072400348    0.003918849
      2        6           0.057817381   -0.005650215    0.003978646
      3        6           0.013093990    0.026569087    0.002977397
      4        6           0.011889683    0.016353063    0.003540143
      5        6          -0.024718028   -0.006207348   -0.001695105
      6        6           0.005598311    0.000807789    0.000529795
      7        1           0.001154790    0.008114565   -0.000037564
      8        1           0.007933855   -0.006814365   -0.000902794
      9        1          -0.006133624   -0.008231318   -0.001771605
     10        8          -0.030640789   -0.043318061   -0.008236684
     11        1           0.010712960    0.019669373    0.003425825
     12        8           0.062577459   -0.068363965   -0.005356352
     13        6          -0.023257401    0.012959777   -0.013293195
     14        1           0.005459553   -0.003187798    0.018632114
     15        1           0.009211744   -0.014203784   -0.007152209
     16        8          -0.006488767    0.000926387   -0.000672955
     17        1           0.001130834   -0.001823535    0.002115693
 -------------------------------------------------------------------
 Cartesian Forces:  Max     0.095341951 RMS     0.025703329

 GradGradGradGradGradGradGradGradGradGradGradGradGradGradGradGradGradGrad
 Berny optimization.
 FormGI is forming the generalized inverse of G from B-inverse, IUseBI=4.
 Internal  Forces:  Max     0.092351989 RMS     0.014912873
 Search for a local minimum.
 Step number   1 out of a maximum of   88
 All quantities printed in internal units (Hartrees-Bohrs-Radians)
 Mixed Optimization -- RFO/linear search
 Second derivative matrix not updated -- first step.
 ITU=  0
     Eigenvalues ---    0.00237   0.01295   0.01359   0.02070   0.02166
     Eigenvalues ---    0.02274   0.02306   0.02376   0.02376   0.02473
     Eigenvalues ---    0.02474   0.02997   0.06248   0.07241   0.11346
     Eigenvalues ---    0.13882   0.16000   0.16000   0.16000   0.16000
     Eigenvalues ---    0.16000   0.22113   0.22369   0.23481   0.24610
     Eigenvalues ---    0.25000   0.25000   0.25000   0.28519   0.37230
     Eigenvalues ---    0.37230   0.37230   0.37230   0.37230   0.40989
     Eigenvalues ---    0.40989   0.41541   0.43364   0.45389   0.45389
     Eigenvalues ---    0.50975   0.53930   0.55473   0.55473   0.66833
 RFO step:  Lambda=-4.18602698D-02 EMin= 2.36824234D-03
 Linear search not attempted -- first point.
 Maximum step size (   0.300) exceeded in Quadratic search.
    -- Step size scaled by   0.884
 Iteration  1 RMS(Cart)=  0.04245221 RMS(Int)=  0.00314255
 Iteration  2 RMS(Cart)=  0.00309710 RMS(Int)=  0.00003971
 Iteration  3 RMS(Cart)=  0.00001019 RMS(Int)=  0.00003919
 Iteration  4 RMS(Cart)=  0.00000000 RMS(Int)=  0.00003919
 Variable       Old X    -DE/DX   Delta X   Delta X   Delta X     New X
                                 (Linear)    (Quad)   (Total)
    R1        2.56096   0.04976   0.00000   0.07651   0.07648   2.63744
    R2        2.64826   0.02050   0.00000   0.03793   0.03794   2.68620
    R3        2.70231  -0.09235   0.00000  -0.18068  -0.18068   2.52163
    R4        2.64826  -0.01581   0.00000  -0.02858  -0.02862   2.61964
    R5        2.02201   0.00808   0.00000   0.01724   0.01724   2.03925
    R6        2.64826   0.01223   0.00000   0.02042   0.02041   2.66867
    R7        2.91018  -0.01486   0.00000  -0.04016  -0.04016   2.87002
    R8        2.56096   0.03510   0.00000   0.05255   0.05258   2.61354
    R9        2.02201   0.01049   0.00000   0.02238   0.02238   2.04439
   R10        2.64826  -0.00399   0.00000  -0.00672  -0.00668   2.64158
   R11        2.02201   0.00947   0.00000   0.02021   0.02021   2.04221
   R12        2.45910   0.02655   0.00000   0.03304   0.03304   2.49214
   R13        1.81414   0.00524   0.00000   0.00777   0.00777   1.82190
   R14        2.02201   0.01950   0.00000   0.04160   0.04160   2.06361
   R15        2.02201   0.01785   0.00000   0.03810   0.03810   2.06011
   R16        2.70231  -0.00181   0.00000  -0.00355  -0.00355   2.69876
   R17        1.81414   0.00050   0.00000   0.00073   0.00073   1.81487
    A1        2.09440   0.00413   0.00000   0.01630   0.01627   2.11067
    A2        2.09440   0.01071   0.00000   0.03053   0.03055   2.12494
    A3        2.09440  -0.01484   0.00000  -0.04683  -0.04682   2.04758
    A4        2.09440  -0.00187   0.00000  -0.00544  -0.00551   2.08888
    A5        2.09440   0.00036   0.00000   0.00020   0.00023   2.09463
    A6        2.09440   0.00151   0.00000   0.00524   0.00527   2.09967
    A7        2.09440  -0.00358   0.00000  -0.01412  -0.01418   2.08022
    A8        2.09440   0.00179   0.00000   0.00707   0.00709   2.10148
    A9        2.09440   0.00179   0.00000   0.00705   0.00707   2.10147
   A10        2.09440   0.01070   0.00000   0.03134   0.03137   2.12576
   A11        2.09440  -0.00548   0.00000  -0.01624  -0.01625   2.07814
   A12        2.09440  -0.00522   0.00000  -0.01510  -0.01512   2.07928
   A13        2.09440  -0.00282   0.00000  -0.01098  -0.01091   2.08349
   A14        2.09440   0.00580   0.00000   0.02469   0.02465   2.11904
   A15        2.09440  -0.00297   0.00000  -0.01370  -0.01374   2.08065
   A16        2.09440  -0.00656   0.00000  -0.01709  -0.01704   2.07735
   A17        2.09440   0.00367   0.00000   0.00972   0.00969   2.10409
   A18        2.09440   0.00289   0.00000   0.00738   0.00735   2.10174
   A19        2.09440  -0.03999   0.00000  -0.17508  -0.17508   1.91931
   A20        1.91063   0.00001   0.00000  -0.00523  -0.00525   1.90538
   A21        1.91063  -0.00134   0.00000  -0.00850  -0.00847   1.90216
   A22        1.91063  -0.00411   0.00000  -0.01227  -0.01224   1.89839
   A23        1.91063  -0.00144   0.00000  -0.00956  -0.00975   1.90089
   A24        1.91063   0.00194   0.00000   0.00814   0.00806   1.91869
   A25        1.91063   0.00495   0.00000   0.02742   0.02738   1.93802
   A26        1.91063  -0.00478   0.00000  -0.02095  -0.02095   1.88968
    D1       -0.00000   0.00000   0.00000   0.00010   0.00008   0.00008
    D2        3.14159  -0.00039   0.00000  -0.00521  -0.00523   3.13636
    D3        3.14159   0.00003   0.00000   0.00053   0.00054  -3.14106
    D4       -0.00000  -0.00036   0.00000  -0.00477  -0.00477  -0.00477
    D5        0.00000  -0.00006   0.00000  -0.00088  -0.00088  -0.00088
    D6       -3.14159   0.00008   0.00000   0.00111   0.00111  -3.14048
    D7       -3.14159  -0.00010   0.00000  -0.00132  -0.00132   3.14028
    D8        0.00000   0.00005   0.00000   0.00067   0.00067   0.00067
    D9       -0.00000   0.00015   0.00000   0.00191   0.00190   0.00190
   D10        3.14159   0.00049   0.00000   0.00737   0.00733  -3.13426
   D11        3.14159   0.00055   0.00000   0.00722   0.00723  -3.13437
   D12       -0.00000   0.00088   0.00000   0.01267   0.01265   0.01265
   D13        0.00000  -0.00025   0.00000  -0.00318  -0.00321  -0.00320
   D14       -3.14159  -0.00020   0.00000  -0.00261  -0.00263   3.13897
   D15       -3.14159  -0.00058   0.00000  -0.00863  -0.00864   3.13296
   D16        0.00000  -0.00054   0.00000  -0.00806  -0.00806  -0.00806
   D17        1.57080   0.00108   0.00000   0.01240   0.01237   1.58317
   D18       -2.61799  -0.00150   0.00000  -0.00772  -0.00771  -2.62571
   D19       -0.52360   0.00122   0.00000   0.01315   0.01311  -0.51049
   D20       -1.57080   0.00142   0.00000   0.01786   0.01786  -1.55293
   D21        0.52360  -0.00116   0.00000  -0.00226  -0.00222   0.52138
   D22        2.61799   0.00156   0.00000   0.01860   0.01861   2.63660
   D23        0.00000   0.00018   0.00000   0.00239   0.00241   0.00241
   D24        3.14159  -0.00003   0.00000  -0.00052  -0.00052   3.14107
   D25       -3.14159   0.00014   0.00000   0.00182   0.00183  -3.13976
   D26       -0.00000  -0.00008   0.00000  -0.00109  -0.00110  -0.00111
   D27       -0.00000  -0.00003   0.00000  -0.00038  -0.00036  -0.00036
   D28        3.14159  -0.00017   0.00000  -0.00237  -0.00235   3.13925
   D29       -3.14159   0.00019   0.00000   0.00253   0.00251  -3.13908
   D30        0.00000   0.00004   0.00000   0.00053   0.00052   0.00053
   D31        0.00000  -0.00002   0.00000  -0.00033  -0.00034  -0.00034
   D32        3.14159   0.00013   0.00000   0.00167   0.00168  -3.13991
   D33       -2.92476  -0.00084   0.00000  -0.01518  -0.01516  -2.93991
   D34        1.26403   0.00048   0.00000  -0.00625  -0.00613   1.25790
   D35       -0.83036  -0.00197   0.00000  -0.01631  -0.01646  -0.84682
         Item               Value     Threshold  Converged?
 Maximum Force            0.092352     0.000450     NO 
 RMS     Force            0.014913     0.000300     NO 
 Maximum Displacement     0.202246     0.001800     NO 
 RMS     Displacement     0.042337     0.001200     NO 
 Predicted change in Energy=-2.257491D-02
 GradGradGradGradGradGradGradGradGradGradGradGradGradGradGradGradGradGrad

                          Input orientation:                          
 ---------------------------------------------------------------------
 Center     Atomic      Atomic             Coordinates (Angstroms)
 Number     Number       Type             X           Y           Z
 ---------------------------------------------------------------------
      1          6           0       -1.022187    0.229333    0.215563
      2          6           0        0.297098    0.661801    0.358232
      3          6           0        1.331675   -0.258916    0.297972
      4          6           0        1.028838   -1.622512    0.090101
      5          6           0       -0.273323   -2.066436   -0.051565
      6          6           0       -1.322429   -1.144618    0.008910
      7          1           0        0.508428    1.709135    0.509706
      8          1           0        1.837871   -2.339053    0.040942
      9          1           0       -0.497957   -3.111448   -0.210904
     10          8           0       -2.571706   -1.544917   -0.126206
     11          1           0       -3.168106   -0.790183   -0.061467
     12          8           0       -2.049249    1.079735    0.266075
     13          6           0        2.772693    0.192315    0.460626
     14          1           0        3.047249    0.141900    1.516362
     15          1           0        3.420185   -0.477750   -0.105255
     16          8           0        2.889301    1.535912   -0.009148
     17          1           0        3.822763    1.751980   -0.074794
 ---------------------------------------------------------------------
                    Distance matrix (angstroms):
                    1          2          3          4          5
     1  C    0.000000
     2  C    1.395671   0.000000
     3  C    2.405379   1.386254   0.000000
     4  C    2.766184   2.413591   1.412202   0.000000
     5  C    2.429549   2.817196   2.442402   1.383026   0.000000
     6  C    1.421475   2.451131   2.812880   2.400714   1.397865
     7  H    2.149213   1.079126   2.143780   3.398053   3.896293
     8  H    3.847990   3.388183   2.156217   1.081842   2.130732
     9  H    3.408446   3.897876   3.426871   2.153750   1.080693
    10  O    2.380289   3.651619   4.131599   3.607870   2.357990
    11  H    2.391887   3.780483   4.545270   4.281365   3.163651
    12  O    1.334388   2.385059   3.636434   4.099722   3.626734
    13  C    3.802966   2.521800   1.518749   2.543996   3.826554
    14  H    4.273176   3.029008   2.142036   3.036667   4.285013
    15  H    4.509719   3.356645   2.138306   2.658417   4.021046
    16  O    4.130059   2.760173   2.396232   3.666990   4.793841
    17  H    5.086876   3.715685   3.223069   4.384108   5.599890
                    6          7          8          9         10
     6  C    0.000000
     7  H    3.427352   0.000000
     8  H    3.378638   4.286606   0.000000
     9  H    2.143942   4.976957   2.473077   0.000000
    10  O    1.318783   4.525534   4.483632   2.600312   0.000000
    11  H    1.880719   4.482157   5.241116   3.541228   0.964110
    12  O    2.354177   2.645225   5.181554   4.494444   2.704744
    13  C    4.331451   2.725812   2.730907   4.697122   5.650217
    14  H    4.798085   3.148840   3.129630   5.112357   6.092292
    15  H    4.790630   3.693098   2.447354   4.722220   6.086217
    16  O    4.992418   2.442903   4.015392   5.754318   6.271189
    17  H    5.905107   3.365753   4.548598   6.506925   7.194540
                   11         12         13         14         15
    11  H    0.000000
    12  O    2.203569   0.000000
    13  C    6.044087   4.906781   0.000000
    14  H    6.479889   5.330764   1.092016   0.000000
    15  H    6.595841   5.698979   1.090163   1.775581   0.000000
    16  O    6.488886   4.967205   1.428124   2.072534   2.084685
    17  H    7.438752   5.920189   1.954962   2.392814   2.265986
                   16         17
    16  O    0.000000
    17  H    0.960388   0.000000
 Stoichiometry    C7H7O3(2)
 Framework group  C1[X(C7H7O3)]
 Deg. of freedom    45
 Full point group                 C1      NOp   1
 Largest Abelian subgroup         C1      NOp   1
 Largest concise Abelian subgroup C1      NOp   1
                         Standard orientation:                         
 ---------------------------------------------------------------------
 Center     Atomic      Atomic             Coordinates (Angstroms)
 Number     Number       Type             X           Y           Z
 ---------------------------------------------------------------------
      1          6           0       -0.965887    0.842736    0.057230
      2          6           0        0.427394    0.836319    0.138612
      3          6           0        1.110498   -0.369826    0.121746
      4          6           0        0.379618   -1.573870    0.019731
      5          6           0       -1.001061   -1.583718   -0.060208
      6          6           0       -1.697559   -0.371853   -0.042881
      7          1           0        0.968259    1.767438    0.209284
      8          1           0        0.914812   -2.513928    0.004263
      9          1           0       -1.554131   -2.508850   -0.138590
     10          8           0       -3.013965   -0.357063   -0.120627
     11          1           0       -3.334981    0.551731   -0.097160
     12          8           0       -1.664738    1.979421    0.069284
     13          6           0        2.625900   -0.396398    0.218965
     14          1           0        2.916661   -0.467650    1.269146
     15          1           0        3.000022   -1.272254   -0.311472
     16          8           0        3.143981    0.807113   -0.349095
     17          1           0        4.093713    0.707399   -0.451136
 ---------------------------------------------------------------------
 Rotational constants (GHZ):           2.7949134           0.8993071           0.6903172
 Standard basis: 6-311G(d,p) (5D, 7F)
 There are   232 symmetry adapted cartesian basis functions of A   symmetry.
 There are   222 symmetry adapted basis functions of A   symmetry.
   222 basis functions,   376 primitive gaussians,   232 cartesian basis functions
    37 alpha electrons       36 beta electrons
       nuclear repulsion energy       500.1538854620 Hartrees.
 NAtoms=   17 NActive=   17 NUniq=   17 SFac= 1.00D+00 NAtFMM=   60 NAOKFM=F Big=F
 Integral buffers will be    131072 words long.
 Raffenetti 2 integral format.
 Two-electron integral symmetry is turned on.
 One-electron integrals computed using PRISM.
 NBasis=   222 RedAO= T EigKep=  2.05D-04  NBF=   222
 NBsUse=   222 1.00D-06 EigRej= -1.00D+00 NBFU=   222
 Initial guess from the checkpoint file:  "7.chk"
 B after Tr=     0.000000    0.000000   -0.000000
         Rot=    0.999986   -0.000796   -0.000456    0.005267 Ang=  -0.61 deg.
 Initial guess <Sx>= 0.0000 <Sy>= 0.0000 <Sz>= 0.5000 <S**2>= 0.7695 S= 0.5097
 ExpMin= 1.03D-01 ExpMax= 8.59D+03 ExpMxC= 1.30D+03 IAcc=2 IRadAn=         4 AccDes= 0.00D+00
 Harris functional with IExCor=  402 and IRadAn=       4 diagonalized for initial guess.
 HarFok:  IExCor=  402 AccDes= 0.00D+00 IRadAn=         4 IDoV= 1 UseB2=F ITyADJ=14
 ICtDFT=  3500011 ScaDFX=  1.000000  1.000000  1.000000  1.000000
 FoFCou: FMM=F IPFlag=           0 FMFlag=      100000 FMFlg1=           0
         NFxFlg=           0 DoJE=T BraDBF=F KetDBF=T FulRan=T
         wScrn=  0.000000 ICntrl=       500 IOpCl=  0 I1Cent=   200000004 NGrid=           0
         NMat0=    1 NMatS0=      1 NMatT0=    0 NMatD0=    1 NMtDS0=    0 NMtDT0=    0
 Petite list used in FoFCou.
 Requested convergence on RMS density matrix=1.00D-08 within 128 cycles.
 Requested convergence on MAX density matrix=1.00D-06.
 Requested convergence on             energy=1.00D-06.
 No special actions if energy rises.
 Integral accuracy reduced to 1.0D-05 until final iterations.
 Initial convergence to 1.0D-05 achieved.  Increase integral accuracy.
 SCF Done:  E(UB3LYP) =  -496.714559053     A.U. after   19 cycles
            NFock= 19  Conv=0.56D-08     -V/T= 2.0033
 <Sx>= 0.0000 <Sy>= 0.0000 <Sz>= 0.5000 <S**2>= 0.7731 S= 0.5115
 <L.S>=  0.00000000000    
 Annihilation of the first spin contaminant:
 S**2 before annihilation     0.7731,   after     0.7503
 Calling FoFJK, ICntrl=      2127 FMM=F ISym2X=0 I1Cent= 0 IOpClX= 1 NMat=1 NMatS=1 NMatT=0.
 ***** Axes restored to original set *****
 -------------------------------------------------------------------
 Center     Atomic                   Forces (Hartrees/Bohr)
 Number     Number              X              Y              Z
 -------------------------------------------------------------------
      1        6          -0.065390944    0.054074861    0.003137667
      2        6           0.028911956   -0.007149831    0.001338891
      3        6           0.000611975    0.011951747    0.001416185
      4        6           0.000883374    0.000560702    0.000859237
      5        6          -0.005700936   -0.001176653    0.000060603
      6        6           0.015347814   -0.013714789   -0.000905787
      7        1          -0.002165672    0.001776140   -0.000795498
      8        1           0.001588222   -0.001884959   -0.000543122
      9        1          -0.000359738   -0.001599054   -0.000403465
     10        8          -0.009945044   -0.014752717   -0.002667342
     11        1           0.000957070    0.012267757    0.001704283
     12        8           0.038700842   -0.038096936   -0.002600595
     13        6          -0.008853783    0.005172572   -0.005135460
     14        1           0.002635117   -0.002123595    0.004477367
     15        1           0.002978826   -0.003442391   -0.001178230
     16        8          -0.000910116   -0.002171208   -0.000235313
     17        1           0.000711036    0.000308354    0.001470579
 -------------------------------------------------------------------
 Cartesian Forces:  Max     0.065390944 RMS     0.015560889

 GradGradGradGradGradGradGradGradGradGradGradGradGradGradGradGradGradGrad
 Berny optimization.
 Using GEDIIS/GDIIS optimizer.
 FormGI is forming the generalized inverse of G from B-inverse, IUseBI=4.
 Internal  Forces:  Max     0.054165174 RMS     0.007602719
 Search for a local minimum.
 Step number   2 out of a maximum of   88
 All quantities printed in internal units (Hartrees-Bohrs-Radians)
 Mixed Optimization -- RFO/linear search
 Update second derivatives using D2CorX and points    1    2
 DE= -2.73D-02 DEPred=-2.26D-02 R= 1.21D+00
 TightC=F SS=  1.41D+00  RLast= 3.03D-01 DXNew= 5.0454D-01 9.1033D-01
 Trust test= 1.21D+00 RLast= 3.03D-01 DXMaxT set to 5.05D-01
 ITU=  1  0
 Use linear search instead of GDIIS.
     Eigenvalues ---    0.00237   0.01294   0.01349   0.02070   0.02169
     Eigenvalues ---    0.02278   0.02311   0.02379   0.02382   0.02478
     Eigenvalues ---    0.02479   0.02997   0.06316   0.07310   0.11228
     Eigenvalues ---    0.13832   0.14459   0.16000   0.16000   0.16000
     Eigenvalues ---    0.16294   0.21838   0.22121   0.22889   0.23700
     Eigenvalues ---    0.24845   0.25000   0.26087   0.28985   0.30465
     Eigenvalues ---    0.37230   0.37230   0.37230   0.37235   0.38332
     Eigenvalues ---    0.41002   0.41698   0.43522   0.45153   0.45428
     Eigenvalues ---    0.50772   0.54465   0.55473   0.57067   0.66882
 RFO step:  Lambda=-7.52249418D-03 EMin= 2.36723807D-03
 Quartic linear search produced a step of  0.64887.
 Iteration  1 RMS(Cart)=  0.04334073 RMS(Int)=  0.00273318
 Iteration  2 RMS(Cart)=  0.00275169 RMS(Int)=  0.00007119
 Iteration  3 RMS(Cart)=  0.00000911 RMS(Int)=  0.00007090
 Iteration  4 RMS(Cart)=  0.00000000 RMS(Int)=  0.00007090
 Variable       Old X    -DE/DX   Delta X   Delta X   Delta X     New X
                                 (Linear)    (Quad)   (Total)
    R1        2.63744   0.02081   0.04963   0.01627   0.06599   2.70342
    R2        2.68620   0.01342   0.02462   0.02508   0.04983   2.73603
    R3        2.52163  -0.05417  -0.11724  -0.09377  -0.21101   2.31062
    R4        2.61964  -0.00595  -0.01857  -0.00267  -0.02129   2.59835
    R5        2.03925   0.00119   0.01119  -0.00653   0.00466   2.04391
    R6        2.66867   0.00589   0.01325   0.00597   0.01908   2.68776
    R7        2.87002  -0.00400  -0.02606   0.00674  -0.01931   2.85071
    R8        2.61354   0.00527   0.03412  -0.01855   0.01548   2.62902
    R9        2.04439   0.00246   0.01452  -0.00449   0.01003   2.05441
   R10        2.64158  -0.00259  -0.00433  -0.00493  -0.00922   2.63237
   R11        2.04221   0.00168   0.01311  -0.00640   0.00671   2.04893
   R12        2.49214   0.00937   0.02144   0.00287   0.02431   2.51645
   R13        1.82190   0.00913   0.00504   0.02184   0.02688   1.84879
   R14        2.06361   0.00509   0.02700  -0.00613   0.02087   2.08448
   R15        2.06011   0.00450   0.02472  -0.00632   0.01840   2.07851
   R16        2.69876  -0.00217  -0.00230  -0.00622  -0.00852   2.69025
   R17        1.81487   0.00066   0.00048   0.00147   0.00195   1.81682
    A1        2.11067  -0.00768   0.01056  -0.05494  -0.04415   2.06652
    A2        2.12494   0.00976   0.01982   0.03595   0.05566   2.18060
    A3        2.04758  -0.00208  -0.03038   0.01898  -0.01151   2.03607
    A4        2.08888   0.00135  -0.00358   0.01778   0.01424   2.10312
    A5        2.09463  -0.00323   0.00015  -0.03171  -0.03159   2.06304
    A6        2.09967   0.00188   0.00342   0.01393   0.01732   2.11699
    A7        2.08022   0.00088  -0.00920   0.01301   0.00363   2.08385
    A8        2.10148   0.00167   0.00460   0.00697   0.01166   2.11314
    A9        2.10147  -0.00255   0.00459  -0.02000  -0.01532   2.08615
   A10        2.12576   0.00304   0.02035  -0.01036   0.00977   2.13554
   A11        2.07814  -0.00110  -0.01055   0.00985  -0.00058   2.07756
   A12        2.07928  -0.00195  -0.00981   0.00050  -0.00919   2.07008
   A13        2.08349  -0.00161  -0.00708  -0.00705  -0.01417   2.06931
   A14        2.11904   0.00082   0.01599  -0.01338   0.00264   2.12168
   A15        2.08065   0.00078  -0.00892   0.02042   0.01153   2.09218
   A16        2.07735   0.00402  -0.01106   0.04155   0.03067   2.10802
   A17        2.10409  -0.01015   0.00629  -0.07361  -0.06742   2.03667
   A18        2.10174   0.00613   0.00477   0.03207   0.03675   2.13849
   A19        1.91931  -0.01535  -0.11361   0.00535  -0.10826   1.81106
   A20        1.90538  -0.00038  -0.00341   0.00233  -0.00112   1.90425
   A21        1.90216   0.00012  -0.00550   0.01219   0.00664   1.90880
   A22        1.89839   0.00097  -0.00794   0.02061   0.01260   1.91099
   A23        1.90089  -0.00137  -0.00632  -0.01614  -0.02258   1.87831
   A24        1.91869   0.00010   0.00523  -0.00335   0.00180   1.92050
   A25        1.93802   0.00054   0.01777  -0.01521   0.00242   1.94044
   A26        1.88968  -0.00065  -0.01359   0.01225  -0.00134   1.88834
    D1        0.00008   0.00001   0.00005   0.00062   0.00065   0.00073
    D2        3.13636  -0.00026  -0.00339  -0.00041  -0.00375   3.13261
    D3       -3.14106  -0.00000   0.00035  -0.00124  -0.00094   3.14119
    D4       -0.00477  -0.00027  -0.00309  -0.00228  -0.00535  -0.01012
    D5       -0.00088  -0.00006  -0.00057  -0.00090  -0.00145  -0.00232
    D6       -3.14048   0.00002   0.00072  -0.00183  -0.00110  -3.14158
    D7        3.14028  -0.00004  -0.00085   0.00089   0.00003   3.14031
    D8        0.00067   0.00003   0.00044  -0.00003   0.00039   0.00106
    D9        0.00190   0.00009   0.00124  -0.00033   0.00087   0.00277
   D10       -3.13426   0.00036   0.00476   0.00122   0.00597  -3.12830
   D11       -3.13437   0.00037   0.00469   0.00085   0.00556  -3.12880
   D12        0.01265   0.00065   0.00821   0.00240   0.01066   0.02332
   D13       -0.00320  -0.00016  -0.00208   0.00031  -0.00178  -0.00499
   D14        3.13897  -0.00017  -0.00170  -0.00155  -0.00327   3.13569
   D15        3.13296  -0.00042  -0.00560  -0.00115  -0.00671   3.12625
   D16       -0.00806  -0.00042  -0.00523  -0.00301  -0.00820  -0.01626
   D17        1.58317   0.00113   0.00803   0.02784   0.03585   1.61902
   D18       -2.62571  -0.00068  -0.00500   0.01683   0.01180  -2.61391
   D19       -0.51049   0.00064   0.00851   0.01821   0.02673  -0.48376
   D20       -1.55293   0.00139   0.01159   0.02930   0.04090  -1.51203
   D21        0.52138  -0.00041  -0.00144   0.01829   0.01684   0.53822
   D22        2.63660   0.00091   0.01207   0.01967   0.03177   2.66838
   D23        0.00241   0.00011   0.00156  -0.00061   0.00098   0.00339
   D24        3.14107  -0.00004  -0.00034  -0.00089  -0.00123   3.13984
   D25       -3.13976   0.00012   0.00119   0.00126   0.00246  -3.13730
   D26       -0.00111  -0.00003  -0.00072   0.00098   0.00026  -0.00084
   D27       -0.00036   0.00000  -0.00023   0.00087   0.00066   0.00029
   D28        3.13925  -0.00009  -0.00152   0.00167   0.00016   3.13941
   D29       -3.13908   0.00015   0.00163   0.00120   0.00283  -3.13625
   D30        0.00053   0.00006   0.00034   0.00200   0.00234   0.00286
   D31       -0.00034  -0.00001  -0.00022   0.00023   0.00001  -0.00033
   D32       -3.13991   0.00007   0.00109  -0.00072   0.00038  -3.13954
   D33       -2.93991  -0.00116  -0.00984  -0.02432  -0.03414  -2.97406
   D34        1.25790  -0.00135  -0.00398  -0.03771  -0.04163   1.21628
   D35       -0.84682  -0.00005  -0.01068  -0.00541  -0.01616  -0.86298
         Item               Value     Threshold  Converged?
 Maximum Force            0.054165     0.000450     NO 
 RMS     Force            0.007603     0.000300     NO 
 Maximum Displacement     0.192184     0.001800     NO 
 RMS     Displacement     0.043685     0.001200     NO 
 Predicted change in Energy=-1.096026D-02
 GradGradGradGradGradGradGradGradGradGradGradGradGradGradGradGradGradGrad

                          Input orientation:                          
 ---------------------------------------------------------------------
 Center     Atomic      Atomic             Coordinates (Angstroms)
 Number     Number       Type             X           Y           Z
 ---------------------------------------------------------------------
      1          6           0       -1.063179    0.240918    0.207193
      2          6           0        0.294563    0.670634    0.343100
      3          6           0        1.323554   -0.239669    0.287264
      4          6           0        1.027514   -1.616653    0.089247
      5          6           0       -0.275053   -2.086240   -0.046018
      6          6           0       -1.322693   -1.169958    0.011402
      7          1           0        0.485245    1.726350    0.480749
      8          1           0        1.845918   -2.330606    0.040488
      9          1           0       -0.485950   -3.138839   -0.198154
     10          8           0       -2.598265   -1.532197   -0.111000
     11          1           0       -3.088287   -0.689102   -0.032175
     12          8           0       -2.038032    0.978035    0.244399
     13          6           0        2.758788    0.196870    0.446004
     14          1           0        3.046988    0.111069    1.507285
     15          1           0        3.410442   -0.475296   -0.131336
     16          8           0        2.896044    1.545366    0.010797
     17          1           0        3.833548    1.755596   -0.024095
 ---------------------------------------------------------------------
                    Distance matrix (angstroms):
                    1          2          3          4          5
     1  C    0.000000
     2  C    1.430591   0.000000
     3  C    2.435954   1.374988   0.000000
     4  C    2.799192   2.415230   1.422299   0.000000
     5  C    2.470004   2.841870   2.465045   1.391219   0.000000
     6  C    1.447843   2.472512   2.818539   2.393547   1.392989
     7  H    2.163090   1.081593   2.146026   3.409251   3.923185
     8  H    3.886306   3.392008   2.169282   1.087149   2.136754
     9  H    3.452572   3.926097   3.451829   2.165692   1.084245
    10  O    2.366785   3.664304   4.148483   3.632287   2.389247
    11  H    2.241271   3.665158   4.446163   4.220771   3.141093
    12  O    1.222729   2.354833   3.575598   4.019210   3.547142
    13  C    3.829675   2.511464   1.508530   2.532479   3.828690
    14  H    4.312839   3.040442   2.140489   3.012330   4.275146
    15  H    4.543220   3.353646   2.141459   2.651358   4.023095
    16  O    4.173201   2.764649   2.394892   3.673680   4.821582
    17  H    5.130855   3.719730   3.221505   4.388478   5.625015
                    6          7          8          9         10
     6  C    0.000000
     7  H    3.446378   0.000000
     8  H    3.374618   4.301645   0.000000
[...]
   yy         0.929640D+02      0.137758D+02      0.153277D+02
   zx         0.368648D+01      0.546280D+00      0.607819D+00
   zy         0.895130D+01      0.132645D+01      0.147587D+01
   zz         0.118795D+03      0.176037D+02      0.195867D+02

 ----------------------------------------------------------------------
 1\1\GINC-IONIC-19\Freq\UB3LYP\6-311G(d,p)\C7H7O3(2)\JD\07-Sep-2022\0\\
 #N Geom=AllCheck Guess=TCheck SCRF=Check GenChk UB3LYP/6-311G(d,p) Fre
 q\\Title Card Required\\0,2\C,-1.0647459741,0.2617353161,0.1162180682\
 C,0.3064985344,0.6883818242,0.2066360552\C,1.3198078912,-0.2327684187,
 0.2279229148\C,1.0233976669,-1.6272134792,0.160380548\C,-0.276886806,-
 2.1020664593,0.0723076124\C,-1.3185711602,-1.1823781643,0.0494708286\H
 ,0.5124396642,1.7485939793,0.2568831562\H,1.8430032621,-2.338856475,0.
 1786273437\H,-0.4915139977,-3.1624470403,0.0216941272\O,-2.5976085677,
 -1.540058614,-0.0332421963\H,-3.0832808347,-0.6863496393,-0.0284279658
 \O,-2.0626361318,1.0178524106,0.0895643798\C,2.7681094723,0.1814953507
 ,0.3222294617\H,3.2085370987,-0.2816199723,1.2188281181\H,3.3065977203
 ,-0.2219988196,-0.5493268665\O,2.8645408647,1.5935933304,0.3752005441\
 H,3.7934549974,1.8303830108,0.4401840406\\Version=ES64L-G16RevA.03\Sta
 te=2-A\HF=-496.7250395\S2=0.770794\S2-1=0.\S2A=0.750291\RMSD=3.315e-09
 \RMSF=2.204e-05\ZeroPoint=0.1289782\Thermal=0.1828222\Dipole=1.662128,
 -0.752086,0.0680926\DipoleDeriv=0.7252991,-0.2661082,0.0194576,-0.3024
 952,0.318303,-0.0118104,0.0180707,-0.0097813,0.1906723,-0.2428817,0.05
 42566,-0.0042404,-0.1082946,0.1023241,0.0026432,-0.0106244,0.0112641,-
 0.129555,0.2525102,0.0749484,0.0218504,0.291401,-0.2437196,0.0104956,0
 .0307422,-0.0012832,-0.0938753,0.1180033,0.205721,0.0186935,-0.1607384
 ,0.3450294,0.0071194,0.0054506,0.0271034,-0.0872002,-0.4527315,-0.3753
 282,-0.0284064,0.1805008,0.1524968,0.0221607,-0.0080679,-0.008018,-0.1
 844125,1.3879969,0.3669998,0.081045,0.1100601,-0.0218534,-0.0001435,0.
 0716054,0.0138178,0.1495056,0.1164387,0.0242041,-0.0001328,-0.0138091,
 0.0266772,-0.0047632,-0.001721,-0.0027735,0.1351284,-0.0234274,0.09028
 8,-0.0044794,0.0729672,0.0181832,0.0001999,-0.0051001,0.0010948,0.1202
 335,0.0659072,-0.045835,-0.0062446,-0.0277561,-0.0494181,-0.0088362,-0
 .005544,-0.0098026,0.1491998,-1.4154037,-0.4137965,-0.0752326,-0.31593
 76,-0.3318218,-0.0179436,-0.071623,-0.0232338,-0.3165801,0.4660512,-0.
 0192717,0.0081604,0.1058761,0.2252299,0.0029074,0.0127239,-0.0039209,0
 .3038905,-0.8680264,0.3171552,-0.0164561,0.242466,-0.6048806,0.0039623
 ,-0.0191143,0.0080251,-0.3534618,0.2400203,0.147555,-0.0070897,0.27700
 58,0.7668785,0.0261793,-0.0036425,0.0188688,0.4560789,-0.0619727,0.008
 0238,-0.0630245,-0.0327461,-0.0666727,0.0654295,-0.0988398,0.0791752,-
 0.1008407,-0.0797397,0.012213,0.0664991,-0.0312711,-0.0572463,-0.06683
 77,0.0992418,-0.0759526,-0.0924342,-0.3888668,-0.1847876,0.0011529,-0.
 3687361,-0.8777771,-0.0338541,-0.0048829,-0.0229304,-0.4975886,0.16082
 31,0.0037623,-0.0115527,0.0815074,0.2982675,0.0030915,-0.0086747,-0.00
 16531,0.3512395\Polar=122.7402459,-0.5378239,96.3765964,4.4001673,1.97
 81928,42.118588\Quadrupole=5.9472863,-3.0709535,-2.8763327,2.230941,0.
 5972838,0.13728\PG=C01 [X(C7H7O3)]\NImag=0\\0.72631477,-0.07003906,0.5
 7245011,0.02798181,0.01111182,0.16744777,-0.19681885,-0.06622247,-0.00
 968965,0.63718329,-0.07153632,-0.14411954,-0.00685573,-0.04268437,0.75
 470203,-0.00988637,-0.00657496,-0.06447403,0.02700716,0.02128354,0.115
 27797,-0.04570699,0.02344579,-0.00146768,-0.26796691,0.15093308,-0.006
 18785,0.66010649,0.04220672,0.02126858,0.00318480,0.10761240,-0.240442
 79,-0.00104287,-0.05630205,0.63481067,-0.00077474,0.00216418,-0.002808
 27,-0.00778485,0.00131652,-0.05305693,0.02548405,0.01460414,0.15639636
 ,-0.00271354,-0.01517896,-0.00054281,0.02753793,0.01267985,0.00181138,
 -0.12750211,-0.00337236,-0.00396640,0.70640236,-0.02236479,-0.00266912
 ,-0.00120907,0.04228406,-0.05279184,0.00024789,-0.06090481,-0.24123475
 ,-0.01010065,-0.03371709,0.60710498,-0.00080545,-0.00080868,-0.0031081
 1,0.00289499,-0.00135250,0.00289800,-0.00607768,-0.00700453,-0.0572441
 4,0.03059273,0.01613500,0.12225642,0.01075746,0.03047732,0.00158238,-0
 .02720467,0.01703180,-0.00100031,0.00905903,-0.06668404,-0.00210892,-0
 .30399597,-0.03455346,-0.01524709,0.63868615,0.02563759,-0.01881248,0.
 00061686,-0.00093013,-0.00301675,-0.00026145,-0.03603145,-0.01020057,-
 0.00243112,-0.11015265,-0.15576539,-0.00999620,0.03612723,0.73432924,0
 .00139877,0.00088129,0.00240720,-0.00166032,0.00071211,0.00270143,-0.0
 0098401,-0.00409702,0.00241492,-0.01802683,-0.00588933,-0.04785330,0.0
 3012949,0.02494716,0.11120814,-0.09458232,-0.04321978,-0.00273470,-0.0
 0238346,-0.03792143,-0.00179387,-0.00319578,0.01592362,0.00039220,-0.0
 6889559,-0.00538853,-0.00384071,-0.19508699,0.12777204,-0.00293201,0.7
 6587627,-0.04787599,-0.15691065,-0.00566581,-0.03235491,0.00236652,-0.
 00185063,0.00788159,-0.03654314,-0.00093143,0.04589807,0.05076983,0.00
 442008,0.06025588,-0.23752160,-0.00343202,-0.05662836,0.59256564,-0.00
 290146,-0.00541156,-0.07378474,-0.00159348,-0.00216196,0.00482519,0.00
 009573,-0.00049145,0.00030889,-0.00195561,0.00164095,-0.00182688,-0.00
 542084,0.00023925,-0.05513200,0.03227328,0.01372681,0.13668900,-0.0013
 8611,-0.02946891,-0.00132491,-0.06627912,-0.05532581,-0.00375163,0.011
 14174,0.02280047,0.00116223,-0.00421326,0.00241016,-0.00057126,-0.0001
 6584,-0.00021216,0.00003827,-0.00541879,0.00027940,-0.00051827,0.06443
 862,0.00088752,-0.00463129,-0.00023337,-0.05344456,-0.33413892,-0.0139
 2914,-0.00362972,-0.01469454,-0.00092871,0.00305024,-0.00084765,-0.000
 15566,0.00028998,0.00036339,0.00006607,-0.00084367,0.00068012,-0.00017
 791,0.05816321,0.35364717,-0.00020474,-0.00188878,0.00295246,-0.003688
 26,-0.01402476,-0.03553651,0.00019997,0.00050985,0.00520504,-0.0005438
 0,-0.00019001,0.00785471,0.00005390,0.00003963,-0.00100173,-0.00055822
 ,-0.00011750,0.00423714,0.00430432,0.01527252,0.02551115,-0.00014379,-
 0.00055084,0.00003717,0.00052749,-0.00171278,-0.00027635,0.00780024,-0
 .00420379,0.00012318,-0.21405030,0.13335951,-0.00486457,-0.01718759,0.
 02111930,-0.00041891,-0.00370696,-0.00336687,-0.00073268,0.00019687,-0
 .00039878,-0.00000128,0.22609039,-0.00085990,-0.00044676,-0.00001906,-
 0.00327015,-0.00513368,-0.00053283,0.02475944,-0.01495283,0.00069342,0
 .13527418,-0.17722707,0.00205249,-0.00930328,0.01024789,-0.00030564,-0
 .00279381,0.00023198,-0.00042001,0.00135444,-0.00069767,0.00005058,-0.
 14516333,0.18560398,0.00002684,-0.00000221,-0.00119996,-0.00033729,-0.
 00044513,0.00442818,0.00118968,-0.00088788,0.00282122,-0.00478892,0.00
 195203,-0.03402089,-0.00154315,0.00134665,0.00479846,-0.00071062,-0.00
 045200,0.00745192,0.00006509,-0.00004442,-0.00007047,0.00573591,-0.001
 83520,0.02203287,-0.00413484,-0.00023931,-0.00061115,-0.00026675,0.000
 61168,0.00006216,-0.00518985,-0.00058801,-0.00068725,-0.00030213,-0.02
 948574,-0.00118336,-0.06879085,-0.05187518,-0.00384291,0.00979861,0.02
 495830,0.00119547,0.00009019,-0.00003725,0.00004375,0.00105715,0.00040
 345,0.00030490,0.06579509,0.00294112,0.00218859,-0.00001565,0.00053576
 ,0.00024042,0.00007469,-0.00156055,0.00214433,-0.00026497,-0.00030975,
 -0.00522919,-0.00026346,-0.05123270,-0.32833022,-0.01363146,-0.0075422
 6,-0.01796331,-0.00124138,-0.00005670,-0.00008599,0.00002093,-0.000205
 65,0.00074895,0.00017355,0.05708339,0.34693109,-0.00049537,-0.00018869
 ,0.00692157,0.00006046,0.00007749,-0.00099136,-0.00072297,-0.00021131,
 0.00702227,-0.00011123,-0.00185085,0.00140634,-0.00381694,-0.01366565,
 -0.03379777,-0.00000064,0.00052692,0.00468709,0.00004327,0.00002206,-0
 .00073729,0.00028221,0.00020757,-0.00425993,0.00439124,0.01498242,0.02
 435532,-0.04106181,-0.02746546,-0.00385784,0.00740350,0.00018857,0.000
 26217,-0.00048322,-0.00214895,-0.00004517,0.00993467,0.01093852,0.0006
 6438,-0.06321412,-0.00172125,-0.00374369,-0.32799913,-0.09532595,-0.01
 909314,-0.00050861,0.00029522,-0.00003732,-0.00106649,-0.00026936,-0.0
 0007405,0.00190621,-0.00035428,0.00029188,0.52779828,-0.03594165,-0.02
 565277,-0.00330981,0.00168082,-0.00707910,-0.00026702,-0.00091943,0.00
 310409,0.00010311,-0.00238530,-0.00979581,-0.00067601,0.03780911,0.019
 16248,0.00259610,-0.04780848,-0.13296144,-0.00595841,-0.00161027,-0.00
 010008,-0.00010518,0.00144730,0.00056291,0.00009569,-0.00172646,0.0018
 1231,0.00010763,-0.06637803,0.50007420,-0.00416660,-0.00285039,0.01098
 491,0.00031898,-0.00034571,0.00265733,-0.00000468,0.00003375,-0.001006
 33,0.00017401,0.00004803,0.00511957,-0.00228946,0.00044486,0.00433209,
 -0.01735790,-0.00854496,-0.04256280,-0.00010649,-0.00000131,0.00036091
 ,-0.00001040,0.00000193,0.00010478,0.00024070,0.00018249,-0.00366414,0
 .02411203,0.01322844,0.04194665,-0.00631216,0.00089219,-0.00031852,-0.
 00044753,0.00118423,-0.00002600,-0.00007769,-0.00050066,-0.00003273,-0
 .00056995,0.00161999,-0.00004715,-0.00387889,-0.00439352,-0.00061264,-
 0.04799671,0.04060630,-0.00109452,0.00026118,-0.00001397,0.00002389,-0
 .00033410,-0.00021013,0.00000449,0.00007412,0.00001105,0.00002264,-0.1
 3014812,0.13620909,-0.00107124,0.18715921,-0.01535635,-0.00188543,-0.0
 0091016,0.00309479,-0.00121188,0.00009326,0.00081773,-0.00223802,-0.00
 004449,0.00423978,0.00487437,0.00035822,-0.01273302,0.00099918,-0.0008
 1678,0.01970180,0.01563805,0.00166520,-0.00035339,0.00015884,-0.000006
 66,-0.00018361,-0.00001580,0.00000958,0.00005015,-0.00039911,0.0000005
 1,0.16707025,-0.34262116,-0.00275791,-0.17952332,0.31954071,-0.0009144
 1,-0.00002575,0.00008651,0.00004361,-0.00001072,0.00084104,0.00001694,
 -0.00011495,0.00016307,0.00004878,0.00021556,0.00140160,-0.00091663,-0
 .00036443,0.00434700,-0.00185914,0.00280420,-0.00056238,0.00001134,0.0
 0001184,-0.00018226,0.00000542,0.00000853,-0.00055716,0.00002405,-0.00
 000157,-0.00033480,0.00005703,-0.00443752,-0.01903650,0.00250654,0.001
 17947,0.02055471,-0.34601253,0.19344439,-0.00872217,-0.07749917,0.0344
 4571,-0.00370664,0.00164808,-0.01902397,-0.00086307,-0.00928506,0.0062
 5820,-0.00027395,0.01643020,-0.00521012,0.00058252,-0.02452976,0.05427
 564,-0.00028472,0.00350007,-0.00014132,0.00034173,0.00002537,0.0001181
 7,0.00000344,-0.00023492,0.00067862,0.00006643,0.01780006,-0.01911831,
 0.00022469,0.00199296,0.01239099,0.00092504,0.41706007,0.19114371,-0.2
 3601619,0.00380416,0.02252260,0.01847991,0.00140338,-0.00798927,0.0096
 0408,-0.00024413,0.00329506,-0.00859032,-0.00013629,-0.01020757,-0.005
 57528,-0.00084060,0.03827569,-0.08115205,-0.00151871,0.00234085,0.0011
 4847,0.00027678,0.00021127,0.00033387,0.00002263,0.00230195,-0.0016829
 7,0.00009990,0.01552733,-0.00672288,0.00057034,0.00406689,0.00728346,0
 .00073182,-0.25970242,0.30214926,-0.00881111,0.00393083,-0.05605779,-0
 .00414463,0.00205236,0.01357051,-0.00045104,-0.00085043,0.00446685,-0.
 00038315,0.00002739,-0.00002863,0.00040018,-0.00056848,0.00220917,-0.0
 0087045,-0.00064811,0.01713699,0.00043417,0.00014051,-0.00285745,0.000
 00697,0.00001719,0.00004307,0.00012583,0.00001219,-0.00099440,0.001494
 78,-0.00131658,0.00082457,0.00061981,0.00118504,-0.00657719,0.01161223
 ,-0.00414770,0.02972127,0.00052446,0.00457262,-0.00041451,-0.02884833,
 -0.00277381,-0.00207858,-0.19684325,-0.01009330,-0.00723310,-0.0062208
 6,-0.01397225,-0.00084901,0.00605630,0.00232715,0.00026667,-0.00346094
 ,0.00187336,-0.00004199,0.00059372,-0.00164163,0.00024341,0.00003993,0
 .00146752,0.00007833,0.00083926,0.00024992,0.00002230,0.00186300,-0.00
 047856,0.00007873,-0.00012069,0.00073044,0.00002654,0.00022712,-0.0018
 8379,0.00004350,0.51370757,0.00143093,-0.00756841,-0.00059934,0.019325
 47,0.01629636,0.00141387,-0.02961802,-0.09621897,-0.00257448,-0.031341
 86,-0.00606608,-0.00194416,-0.00098061,-0.00501591,-0.00034728,-0.0000
 6380,-0.00043329,0.00003101,0.00160833,-0.00159206,0.00021383,-0.00096
 948,0.00030934,-0.00001620,-0.00114779,-0.00018885,-0.00009056,0.00080
 255,0.00062351,0.00006508,-0.00029258,-0.00055329,-0.00003219,0.002237
 23,0.00132665,0.00023420,-0.02030175,0.49752260,-0.00052035,-0.0004255
 9,0.01109049,-0.00124829,0.00017781,0.00715059,-0.00790602,-0.00140449
 ,-0.07215472,-0.00148337,-0.00099191,-0.00031574,0.00015283,-0.0001690
 1,0.00295857,-0.00011608,0.00014414,-0.00140602,0.00036501,0.00003794,
 -0.00504435,-0.00000592,0.00010174,-0.00053498,-0.00002769,-0.00001523
 ,0.00058793,0.00012360,-0.00001035,0.00008008,-0.00000901,0.00002674,-
 0.00012165,0.00019474,0.00000599,-0.00180070,-0.00227377,-0.00256114,0
 .54479230,-0.00025506,0.00117755,0.00228866,-0.00172592,-0.00292557,0.
 00018374,-0.01838660,0.01169274,-0.02680615,0.00051259,0.00093399,0.00
 108471,-0.00042379,-0.00012360,0.00032834,0.00034508,-0.00015623,-0.00
 027658,0.00014788,0.00017349,-0.00110429,0.00033612,-0.00055343,-0.000
 33209,-0.00001544,-0.00004150,-0.00005083,-0.00055276,-0.00028071,0.00
 001139,0.00009793,0.00009229,-0.00004371,-0.00032376,-0.00037923,-0.00
 034583,-0.08625991,0.03597843,-0.07963335,0.09334533,-0.00031574,0.000
 86168,0.00074615,-0.00054126,-0.00103445,-0.00001931,-0.00210779,0.006
 53037,-0.00554570,-0.00132770,-0.00100049,0.00011967,0.00120124,0.0000
 9525,-0.00043476,-0.00030635,0.00040680,-0.00018311,-0.00048184,-0.000
 04997,-0.00021430,0.00011635,-0.00013728,0.00026380,0.00006098,-0.0000
 1404,0.00000299,-0.00005295,-0.00018049,0.00007557,0.00005160,0.000160
 47,0.00002167,0.00008140,-0.00040513,-0.00011008,0.03224181,-0.0791589
 5,0.06906126,-0.03888798,0.10231886,0.00020803,0.00008750,-0.00011899,
 0.00022749,-0.00050975,-0.00022166,-0.00089412,-0.00044918,0.00063870,
 -0.00022823,0.00089584,0.00114667,-0.00049046,-0.00036677,0.00003633,0
 .00034005,-0.00018420,0.00000388,0.00008789,-0.00004030,0.00005961,-0.
 00004481,-0.00043472,-0.00039378,-0.00006317,-0.00001318,-0.00001738,-
 0.00023846,-0.00008661,-0.00005591,0.00003790,-0.00001387,-0.00000492,
 -0.00008612,-0.00003450,0.00006815,-0.07888418,0.07247867,-0.21559296,
 0.08670901,-0.08442463,0.22813764,0.00001195,0.00134602,-0.00217166,-0
 .00167202,-0.00294958,-0.00055526,-0.02124204,0.00980022,0.02510753,0.
 00062118,0.00112975,-0.00106538,-0.00043647,-0.00013867,-0.00038964,0.
 00034879,-0.00019636,0.00029943,0.00004384,0.00008873,0.00110505,0.000
 29221,-0.00063047,0.00036344,-0.00002788,-0.00004611,0.00004663,-0.000
 56670,-0.00028434,-0.00008832,0.00009533,0.00008604,0.00006100,-0.0003
 6977,-0.00040089,0.00026830,-0.10557123,0.03729660,0.09482102,0.007540
 94,-0.00324663,-0.01057305,0.11441384,-0.00022042,0.00091356,-0.000692
 56,-0.00053165,-0.00104812,-0.00010229,-0.00268198,0.00605499,0.005542
 46,-0.00131772,-0.00090608,-0.00039469,0.00110688,0.00003461,0.0005647
 1,-0.00030297,0.00037591,0.00017922,-0.00049707,-0.00006630,0.00014986
 ,0.00013619,-0.00014389,-0.00023860,0.00005631,-0.00001451,0.00000233,
 -0.00005410,-0.00017634,-0.00009205,0.00005419,0.00015897,-0.00000399,
 0.00006391,-0.00040904,0.00008174,0.03335809,-0.07045468,-0.05625269,-
 0.00494712,0.00699316,0.00875638,-0.04108933,0.09181026,-0.00021977,0.
 00012868,-0.00043619,-0.00041261,0.00012812,-0.00027847,-0.00174220,0.
 00189420,0.00392919,0.00007523,-0.00093514,0.00095934,0.00051778,0.000
 35463,0.00011282,-0.00032432,0.00019582,0.00002624,-0.00012461,0.00004
 213,0.00018684,0.00012821,0.00039192,-0.00033157,0.00006623,0.00000799
 ,-0.00000401,0.00017570,0.00004639,-0.00003974,-0.00002298,0.00003482,
 -0.00000150,0.00004462,-0.00004340,0.00011483,0.09384726,-0.05915830,-
 0.20494663,0.01378056,-0.00712039,-0.02382404,-0.10265180,0.07144291,0
 .21758635,0.00131819,-0.00248857,-0.00002124,-0.00142294,0.00044483,-0
 .00006473,-0.00358672,-0.04642428,-0.00199650,-0.00732996,0.00110668,-
 0.00038195,-0.00058314,-0.00214180,-0.00013741,0.00107117,-0.00005956,
 0.00006519,-0.00273133,-0.00225788,-0.00018321,0.00014288,-0.00021744,
 0.00002463,-0.00059682,-0.00017928,-0.00003554,-0.00117614,-0.00020685
 ,-0.00007041,0.00022280,-0.00010282,0.00001099,-0.00046441,0.00078686,
 -0.00000834,-0.09494782,-0.02170549,-0.00271439,0.00485335,0.01192146,
 0.00379338,0.00567247,0.01528781,-0.00319776,0.59823370,0.00075838,0.0
 0067230,0.00006958,0.00121475,-0.00199857,-0.00002012,-0.00764641,-0.0
 1900457,-0.00118585,-0.00319948,-0.00054239,-0.00020886,0.00113504,-0.
 00042595,0.00003041,0.00119352,0.00044151,0.00008581,-0.00028832,0.000
 38149,0.00001684,0.00039041,0.00077295,0.00006427,-0.00028839,-0.00013
 697,-0.00001737,-0.00134842,-0.00021093,-0.00008157,0.00032221,0.00013
 945,0.00002457,-0.00110183,0.00034586,-0.00005429,0.01967703,-0.232305
 51,-0.00446636,-0.00168845,-0.03648557,0.00337582,-0.00086671,-0.03424
 624,-0.00650637,0.12313699,0.38720113,0.00009951,-0.00010741,-0.000069
 15,-0.00005096,-0.00006004,0.00013076,-0.00067458,-0.00341408,0.003335
 55,-0.00057215,0.00001305,0.00052531,-0.00001351,-0.00015200,0.0003870
 2,0.00010611,0.00001545,-0.00014915,-0.00011639,-0.00008087,-0.0006873
 4,0.00004414,0.00003344,-0.00040641,-0.00004062,-0.00001259,-0.0000785
 5,-0.00010809,-0.00001668,-0.00001296,0.00002519,0.00000056,-0.0000445
 5,-0.00007503,0.00004667,0.00022046,-0.00137036,-0.00711917,-0.0625472
 1,0.00324427,0.02763916,0.00959816,-0.00366280,-0.02903338,0.00661038,
 0.03817085,0.01910684,0.04625969,0.00020117,-0.00048252,-0.00001318,-0
 .00011652,0.00030991,0.00000098,0.00042558,-0.00069475,0.00002967,0.00
 007000,0.00034582,-0.00002925,-0.00002082,-0.00005275,0.00000432,-0.00
 018348,-0.00006431,-0.00001582,0.00028895,-0.00053961,0.00000510,-0.00
 001942,-0.00010591,-0.00001063,-0.00000115,0.00002893,0.00000646,0.000
 07137,-0.00000792,0.00000498,-0.00001768,-0.00002174,-0.00000339,0.000
 03545,0.00009096,0.00000878,-0.00157833,0.00774184,0.00028102,0.000764
 04,0.00159340,0.00009886,0.00084557,0.00157898,0.00006047,-0.49867528,
 -0.13140032,-0.03500559,0.49791055,-0.00049574,0.00035781,-0.00002282,
 0.00170883,-0.00006957,0.00008398,0.00155386,-0.00798694,-0.00017229,-
 0.00213430,-0.00008301,-0.00014440,0.00026020,-0.00056791,-0.00000296,
 -0.00004722,0.00000912,-0.00000374,-0.00066238,0.00052499,-0.00000364,
 -0.00002519,-0.00005689,-0.00000657,-0.00013808,-0.00002053,-0.0000053
 8,0.00029632,0.00016151,0.00002340,-0.00008355,-0.00002882,-0.00000655
 ,0.00030371,-0.00011768,0.00001422,-0.04535286,-0.01652245,-0.00325883
 ,-0.00006467,0.00109980,0.00096352,0.00010174,0.00112374,-0.00090400,-
 0.07690065,-0.06459796,-0.00685895,0.12167998,0.08677479,-0.00001460,-
 0.00002029,0.00016633,0.00005767,0.00001835,0.00007794,0.00012645,-0.0
 0025854,-0.00043168,-0.00009964,-0.00000877,0.00082973,0.00001072,-0.0
 0001393,-0.00012836,-0.00001298,-0.00000675,0.00005765,0.00000196,-0.0
 0000138,-0.00025048,-0.00000828,-0.00001135,0.00009465,0.00000182,0.00
 000524,-0.00010091,0.00001620,0.00000683,-0.00003251,-0.00000567,-0.00
 000355,0.00002898,0.00001625,0.00000366,-0.00005971,-0.00146126,0.0000
 0616,-0.00219501,0.00096217,0.00012202,0.00054050,-0.00091449,0.000090
 65,0.00033617,-0.03325357,-0.01023336,-0.00307201,0.03457724,0.0103050
 1,0.00413873\\0.00006483,0.00005476,0.00000023,-0.00005735,-0.00002971
 ,-0.00000513,0.00000174,0.00000504,0.00000391,0.00001648,0.00001174,-0
 .00000223,-0.00001126,-0.00001371,-0.00000789,-0.00007594,-0.00003330,
 0.00000261,0.00001387,0.00000813,0.00000772,0.00000287,-0.00000159,-0.
 00000009,-0.00000107,-0.00000785,0.00000356,0.00005110,0.00002007,0.00
 000430,0.00001486,-0.00000770,-0.00000087,-0.00001263,0.00000021,-0.00
 000326,0.00002597,0.00000740,0.00001273,-0.00000305,0.00000161,-0.0000
 0275,-0.00000784,-0.00000479,-0.00000773,-0.00001867,-0.00000328,-0.00
 001430,-0.00000390,-0.00000705,0.00000921\\\@


 KINETICS       FACT
 ---------  =  -------
 MECHANISM     FICTION
 Job cpu time:       0 days  0 hours 54 minutes 27.2 seconds.
 Elapsed time:       0 days  0 hours  2 minutes 44.9 seconds.
 File lengths (MBytes):  RWF=    179 Int=      0 D2E=      0 Chk=      7 Scr=      1
 Normal termination of Gaussian 16 at Wed Sep  7 23:22:35 2022.
