 Generated by Multiwfn (http://sobereva.com/multiwfn)
GAUSSIAN             37 MOL ORBITALS    308 PRIMITIVES       17 NUCLEI
  C    1    (CENTRE  1)   1.85835486 -1.67798250  0.00051393  CHARGE =  6.0
  C    2    (CENTRE  2)  -0.85941148 -1.59033888  0.00136241  CHARGE =  6.0
  C    3    (CENTRE  3)  -2.09801355  0.68218151  0.00101471  CHARGE =  6.0
  C    4    (CENTRE  4)  -0.69982407  2.98846941 -0.00028165  CHARGE =  6.0
  C    5    (CENTRE  5)   1.92102764  3.03085406 -0.00066148  CHARGE =  6.0
  C    6    (CENTRE  6)   3.21127595  0.74336514 -0.00023251  CHARGE =  6.0
  H    7    (CENTRE  7)  -1.88773051 -3.35586653  0.00225059  CHARGE =  1.0
  H    8    (CENTRE  8)  -1.72243801  4.76690579 -0.00091659  CHARGE =  1.0
  H    9    (CENTRE  9)   2.96497095  4.79129645 -0.00133989  CHARGE =  1.0
  O   10    (CENTRE 10)   5.72119885  0.58969259 -0.00072384  CHARGE =  8.0
  H   11    (CENTRE 11)   6.05825036 -1.23554096 -0.00053676  CHARGE =  1.0
  O   12    (CENTRE 12)   3.17214157 -3.64626456  0.00049314  CHARGE =  8.0
  C   13    (CENTRE 13)  -4.94588751  0.83966563  0.00215799  CHARGE =  6.0
  H   14    (CENTRE 14)  -5.55124614  1.91163925  1.67958472  CHARGE =  1.0
  H   15    (CENTRE 15)  -5.55201337  1.92140534 -1.66875864  CHARGE =  1.0
  O   16    (CENTRE 16)  -5.99693430 -1.62188971 -0.00476408  CHARGE =  8.0
  H   17    (CENTRE 17)  -7.80617321 -1.46943226  0.00643444  CHARGE =  1.0
CENTRE ASSIGNMENTS    1  1  1  1  1  1  1  1  1  1  1  1  1  1  1  1  1  1  1  1
CENTRE ASSIGNMENTS    1  1  1  1  1  1  1  1  2  2  2  2  2  2  2  2  2  2  2  2
CENTRE ASSIGNMENTS    2  2  2  2  2  2  2  2  2  2  2  2  2  2  2  2  3  3  3  3
CENTRE ASSIGNMENTS    3  3  3  3  3  3  3  3  3  3  3  3  3  3  3  3  3  3  3  3
CENTRE ASSIGNMENTS    3  3  3  3  4  4  4  4  4  4  4  4  4  4  4  4  4  4  4  4
CENTRE ASSIGNMENTS    4  4  4  4  4  4  4  4  4  4  4  4  5  5  5  5  5  5  5  5
CENTRE ASSIGNMENTS    5  5  5  5  5  5  5  5  5  5  5  5  5  5  5  5  5  5  5  5
CENTRE ASSIGNMENTS    6  6  6  6  6  6  6  6  6  6  6  6  6  6  6  6  6  6  6  6
CENTRE ASSIGNMENTS    6  6  6  6  6  6  6  6  7  7  7  7  8  8  8  8  9  9  9  9
CENTRE ASSIGNMENTS   10 10 10 10 10 10 10 10 10 10 10 10 10 10 10 10 10 10 10 10
CENTRE ASSIGNMENTS   10 10 10 10 10 10 10 10 11 11 11 11 12 12 12 12 12 12 12 12
CENTRE ASSIGNMENTS   12 12 12 12 12 12 12 12 12 12 12 12 12 12 12 12 12 12 12 12
CENTRE ASSIGNMENTS   13 13 13 13 13 13 13 13 13 13 13 13 13 13 13 13 13 13 13 13
CENTRE ASSIGNMENTS   13 13 13 13 13 13 13 13 14 14 14 14 15 15 15 15 16 16 16 16
CENTRE ASSIGNMENTS   16 16 16 16 16 16 16 16 16 16 16 16 16 16 16 16 16 16 16 16
CENTRE ASSIGNMENTS   16 16 16 16 17 17 17 17
TYPE ASSIGNMENTS      1  1  1  1  1  1  1  1  1  2  2  2  3  3  3  4  4  4  1  2
TYPE ASSIGNMENTS      3  4  5  6  7  8  9 10  1  1  1  1  1  1  1  1  1  2  2  2
TYPE ASSIGNMENTS      3  3  3  4  4  4  1  2  3  4  5  6  7  8  9 10  1  1  1  1
TYPE ASSIGNMENTS      1  1  1  1  1  2  2  2  3  3  3  4  4  4  1  2  3  4  5  6
TYPE ASSIGNMENTS      7  8  9 10  1  1  1  1  1  1  1  1  1  2  2  2  3  3  3  4
TYPE ASSIGNMENTS      4  4  1  2  3  4  5  6  7  8  9 10  1  1  1  1  1  1  1  1
TYPE ASSIGNMENTS      1  2  2  2  3  3  3  4  4  4  1  2  3  4  5  6  7  8  9 10
TYPE ASSIGNMENTS      1  1  1  1  1  1  1  1  1  2  2  2  3  3  3  4  4  4  1  2
TYPE ASSIGNMENTS      3  4  5  6  7  8  9 10  1  1  1  1  1  1  1  1  1  1  1  1
TYPE ASSIGNMENTS      1  1  1  1  1  1  1  1  1  2  2  2  3  3  3  4  4  4  1  2
TYPE ASSIGNMENTS      3  4  5  6  7  8  9 10  1  1  1  1  1  1  1  1  1  1  1  1
TYPE ASSIGNMENTS      1  2  2  2  3  3  3  4  4  4  1  2  3  4  5  6  7  8  9 10
TYPE ASSIGNMENTS      1  1  1  1  1  1  1  1  1  2  2  2  3  3  3  4  4  4  1  2
TYPE ASSIGNMENTS      3  4  5  6  7  8  9 10  1  1  1  1  1  1  1  1  1  1  1  1
TYPE ASSIGNMENTS      1  1  1  1  1  2  2  2  3  3  3  4  4  4  1  2  3  4  5  6
TYPE ASSIGNMENTS      7  8  9 10  1  1  1  1
EXPONENTS  0.3047525D+04 0.4573695D+03 0.1039487D+03 0.2921016D+02 0.9286663D+01
EXPONENTS  0.3163927D+01 0.7868272D+01 0.1881289D+01 0.5442493D+00 0.7868272D+01
EXPONENTS  0.1881289D+01 0.5442493D+00 0.7868272D+01 0.1881289D+01 0.5442493D+00
EXPONENTS  0.7868272D+01 0.1881289D+01 0.5442493D+00 0.1687145D+00 0.1687145D+00
EXPONENTS  0.1687145D+00 0.1687145D+00 0.8000000D+00 0.8000000D+00 0.8000000D+00
EXPONENTS  0.8000000D+00 0.8000000D+00 0.8000000D+00 0.3047525D+04 0.4573695D+03
EXPONENTS  0.1039487D+03 0.2921016D+02 0.9286663D+01 0.3163927D+01 0.7868272D+01
EXPONENTS  0.1881289D+01 0.5442493D+00 0.7868272D+01 0.1881289D+01 0.5442493D+00
EXPONENTS  0.7868272D+01 0.1881289D+01 0.5442493D+00 0.7868272D+01 0.1881289D+01
EXPONENTS  0.5442493D+00 0.1687145D+00 0.1687145D+00 0.1687145D+00 0.1687145D+00
EXPONENTS  0.8000000D+00 0.8000000D+00 0.8000000D+00 0.8000000D+00 0.8000000D+00
EXPONENTS  0.8000000D+00 0.3047525D+04 0.4573695D+03 0.1039487D+03 0.2921016D+02
EXPONENTS  0.9286663D+01 0.3163927D+01 0.7868272D+01 0.1881289D+01 0.5442493D+00
EXPONENTS  0.7868272D+01 0.1881289D+01 0.5442493D+00 0.7868272D+01 0.1881289D+01
EXPONENTS  0.5442493D+00 0.7868272D+01 0.1881289D+01 0.5442493D+00 0.1687145D+00
EXPONENTS  0.1687145D+00 0.1687145D+00 0.1687145D+00 0.8000000D+00 0.8000000D+00
EXPONENTS  0.8000000D+00 0.8000000D+00 0.8000000D+00 0.8000000D+00 0.3047525D+04
EXPONENTS  0.4573695D+03 0.1039487D+03 0.2921016D+02 0.9286663D+01 0.3163927D+01
EXPONENTS  0.7868272D+01 0.1881289D+01 0.5442493D+00 0.7868272D+01 0.1881289D+01
EXPONENTS  0.5442493D+00 0.7868272D+01 0.1881289D+01 0.5442493D+00 0.7868272D+01
EXPONENTS  0.1881289D+01 0.5442493D+00 0.1687145D+00 0.1687145D+00 0.1687145D+00
EXPONENTS  0.1687145D+00 0.8000000D+00 0.8000000D+00 0.8000000D+00 0.8000000D+00
EXPONENTS  0.8000000D+00 0.8000000D+00 0.3047525D+04 0.4573695D+03 0.1039487D+03
EXPONENTS  0.2921016D+02 0.9286663D+01 0.3163927D+01 0.7868272D+01 0.1881289D+01
EXPONENTS  0.5442493D+00 0.7868272D+01 0.1881289D+01 0.5442493D+00 0.7868272D+01
EXPONENTS  0.1881289D+01 0.5442493D+00 0.7868272D+01 0.1881289D+01 0.5442493D+00
EXPONENTS  0.1687145D+00 0.1687145D+00 0.1687145D+00 0.1687145D+00 0.8000000D+00
EXPONENTS  0.8000000D+00 0.8000000D+00 0.8000000D+00 0.8000000D+00 0.8000000D+00
EXPONENTS  0.3047525D+04 0.4573695D+03 0.1039487D+03 0.2921016D+02 0.9286663D+01
EXPONENTS  0.3163927D+01 0.7868272D+01 0.1881289D+01 0.5442493D+00 0.7868272D+01
EXPONENTS  0.1881289D+01 0.5442493D+00 0.7868272D+01 0.1881289D+01 0.5442493D+00
EXPONENTS  0.7868272D+01 0.1881289D+01 0.5442493D+00 0.1687145D+00 0.1687145D+00
EXPONENTS  0.1687145D+00 0.1687145D+00 0.8000000D+00 0.8000000D+00 0.8000000D+00
EXPONENTS  0.8000000D+00 0.8000000D+00 0.8000000D+00 0.1873114D+02 0.2825394D+01
EXPONENTS  0.6401217D+00 0.1612778D+00 0.1873114D+02 0.2825394D+01 0.6401217D+00
EXPONENTS  0.1612778D+00 0.1873114D+02 0.2825394D+01 0.6401217D+00 0.1612778D+00
EXPONENTS  0.5484672D+04 0.8252349D+03 0.1880470D+03 0.5296450D+02 0.1689757D+02
EXPONENTS  0.5799635D+01 0.1553962D+02 0.3599934D+01 0.1013762D+01 0.1553962D+02
EXPONENTS  0.3599934D+01 0.1013762D+01 0.1553962D+02 0.3599934D+01 0.1013762D+01
EXPONENTS  0.1553962D+02 0.3599934D+01 0.1013762D+01 0.2700058D+00 0.2700058D+00
EXPONENTS  0.2700058D+00 0.2700058D+00 0.8000000D+00 0.8000000D+00 0.8000000D+00
EXPONENTS  0.8000000D+00 0.8000000D+00 0.8000000D+00 0.1873114D+02 0.2825394D+01
EXPONENTS  0.6401217D+00 0.1612778D+00 0.5484672D+04 0.8252349D+03 0.1880470D+03
EXPONENTS  0.5296450D+02 0.1689757D+02 0.5799635D+01 0.1553962D+02 0.3599934D+01
EXPONENTS  0.1013762D+01 0.1553962D+02 0.3599934D+01 0.1013762D+01 0.1553962D+02
EXPONENTS  0.3599934D+01 0.1013762D+01 0.1553962D+02 0.3599934D+01 0.1013762D+01
EXPONENTS  0.2700058D+00 0.2700058D+00 0.2700058D+00 0.2700058D+00 0.8000000D+00
EXPONENTS  0.8000000D+00 0.8000000D+00 0.8000000D+00 0.8000000D+00 0.8000000D+00
EXPONENTS  0.3047525D+04 0.4573695D+03 0.1039487D+03 0.2921016D+02 0.9286663D+01
EXPONENTS  0.3163927D+01 0.7868272D+01 0.1881289D+01 0.5442493D+00 0.7868272D+01
EXPONENTS  0.1881289D+01 0.5442493D+00 0.7868272D+01 0.1881289D+01 0.5442493D+00
EXPONENTS  0.7868272D+01 0.1881289D+01 0.5442493D+00 0.1687145D+00 0.1687145D+00
EXPONENTS  0.1687145D+00 0.1687145D+00 0.8000000D+00 0.8000000D+00 0.8000000D+00
EXPONENTS  0.8000000D+00 0.8000000D+00 0.8000000D+00 0.1873114D+02 0.2825394D+01
EXPONENTS  0.6401217D+00 0.1612778D+00 0.1873114D+02 0.2825394D+01 0.6401217D+00
EXPONENTS  0.1612778D+00 0.5484672D+04 0.8252349D+03 0.1880470D+03 0.5296450D+02
EXPONENTS  0.1689757D+02 0.5799635D+01 0.1553962D+02 0.3599934D+01 0.1013762D+01
EXPONENTS  0.1553962D+02 0.3599934D+01 0.1013762D+01 0.1553962D+02 0.3599934D+01
EXPONENTS  0.1013762D+01 0.1553962D+02 0.3599934D+01 0.1013762D+01 0.2700058D+00
EXPONENTS  0.2700058D+00 0.2700058D+00 0.2700058D+00 0.8000000D+00 0.8000000D+00
EXPONENTS  0.8000000D+00 0.8000000D+00 0.8000000D+00 0.8000000D+00 0.1873114D+02
EXPONENTS  0.2825394D+01 0.6401217D+00 0.1612778D+00
MO    1     MO 0.0        OCC NO =    2.0000000  ORB. ENERGY =  -19.018835
  0.10106837D-04  0.18645140D-04  0.30099038D-04  0.39180004D-04  0.33432368D-04
  0.11543393D-04 -0.44210964D-04 -0.20376793D-04  0.57138654D-04 -0.23913973D-04
 -0.18335718D-04 -0.91508083D-05 -0.34305944D-04 -0.26303622D-04 -0.13127351D-04
  0.26876830D-06  0.20607449D-06  0.10284561D-06 -0.34323414D-03  0.35869929D-03
  0.13003876D-03 -0.36569605D-06 -0.60860411D-04  0.20213615D-04  0.47431959D-04
  0.13095407D-04  0.22259033D-06  0.10777220D-06 -0.76806666D-05 -0.14169330D-04
 -0.22873692D-04 -0.29774751D-04 -0.25406849D-04 -0.87723744D-05  0.33264381D-04
  0.15331523D-04 -0.42991190D-04 -0.15446118D-03 -0.11843104D-03 -0.59105387D-04
  0.71132365D-04  0.54539786D-04  0.27219176D-04 -0.74168366D-06 -0.56867599D-06
 -0.28380917D-06  0.29490619D-03  0.40814045D-03 -0.18399904D-03  0.29687273D-06
  0.10079998D-03 -0.99697945D-04 -0.52993671D-05  0.72488529D-04 -0.32226600D-06
  0.19944976D-06 -0.16594246D-04 -0.30613143D-04 -0.49419105D-04 -0.64328991D-04
 -0.54892044D-04 -0.18952904D-04  0.36160353D-04  0.16666274D-04 -0.46733971D-04
  0.51308225D-04  0.39339893D-04  0.19633364D-04 -0.46053782D-04 -0.35311119D-04
 -0.17622723D-04  0.41901445D-07  0.32127370D-07  0.16033809D-07  0.52325294D-03
 -0.19253465D-03 -0.14918948D-03 -0.19419349D-06 -0.39215003D-04 -0.45618178D-04
 -0.63855948D-04 -0.11358945D-03 -0.57897388D-07 -0.53544599D-06  0.31598080D-05
  0.58292287D-05  0.94101826D-05  0.12249262D-04  0.10452317D-04  0.36089340D-05
 -0.71951703D-05 -0.33162474D-05  0.92991039D-05 -0.16838251D-04 -0.12910503D-04
 -0.64432457D-05 -0.34718683D-04 -0.26620084D-04 -0.13285288D-04  0.34148736D-06
  0.26183085D-06  0.13067194D-06  0.74030934D-04  0.45291528D-04 -0.23980072D-04
 -0.17643945D-07  0.68075508D-05  0.29380117D-04  0.14606931D-04 -0.18566920D-04
 -0.34283071D-07 -0.24375046D-06  0.21826456D-05  0.40265550D-05  0.65001082D-05
  0.84612095D-05  0.72199654D-05  0.24928805D-05 -0.12406175D-04 -0.57179947D-05
  0.16033854D-04  0.50196567D-05  0.38487544D-05  0.19207982D-05  0.31430680D-04
  0.24099052D-04  0.12027116D-04 -0.51021000D-07 -0.39119666D-07 -0.19523455D-07
 -0.20011952D-03 -0.16523363D-04  0.44707482D-04 -0.14459294D-07 -0.77129886D-05
 -0.82966502D-05  0.70156648D-05  0.95510487D-05 -0.10127297D-06  0.38114187D-07
 -0.99095342D-06 -0.18281156D-05 -0.29511453D-05 -0.38415144D-05 -0.32779712D-05
 -0.11318047D-05 -0.46735215D-05 -0.21540218D-05  0.60401019D-05  0.33155296D-04
  0.25421378D-04  0.12687049D-04 -0.24013329D-04 -0.18411897D-04 -0.91888272D-05
 -0.94353083D-07 -0.72343959D-07 -0.36104706D-07 -0.97925222D-04 -0.87155393D-04
  0.17831139D-03  0.79589509D-07 -0.14921058D-04 -0.33873423D-04  0.11233650D-05
 -0.97824574D-05 -0.20004173D-07 -0.16649297D-06  0.32652339D-04  0.55384546D-04
  0.63053348D-04 -0.11586954D-03  0.76319560D-05  0.12945242D-04  0.14737700D-04
  0.47127706D-05  0.56438762D-05  0.95730822D-05  0.10898616D-04  0.15640231D-05
 -0.41806365D-05 -0.76946029D-05 -0.12451320D-04 -0.16367609D-04 -0.14038403D-04
 -0.47999683D-05  0.29765604D-04  0.13281355D-04 -0.39220018D-04 -0.20795621D-04
 -0.16021905D-04 -0.70344792D-05  0.12013449D-05  0.92557151D-06  0.40637574D-06
  0.69074123D-07  0.53217888D-07  0.23365519D-07  0.12481682D-03 -0.30669095D-04
 -0.21986000D-04 -0.29759362D-07 -0.21336685D-04 -0.43520104D-04 -0.94736245D-05
  0.12763060D-04  0.62684095D-07 -0.39212045D-07 -0.53153968D-05 -0.90159191D-05
 -0.10264305D-04 -0.24679234D-05 -0.10465743D-05 -0.19262555D-05 -0.31170450D-05
 -0.40974429D-05 -0.35143529D-05 -0.12016170D-05  0.55466677D-05  0.24749123D-05
 -0.73084493D-05  0.36507779D-04  0.28127275D-04  0.12349389D-04  0.39013481D-04
  0.30057784D-04  0.13196986D-04 -0.23665719D-06 -0.18233160D-06 -0.80053395D-07
  0.15570039D-04 -0.80255837D-04 -0.34004736D-04  0.15697278D-06  0.39216767D-04
 -0.44980379D-04  0.30266332D-05 -0.58723247D-04 -0.74905262D-07  0.22241647D-06
  0.12986410D-04  0.23957391D-04  0.38674657D-04  0.50342913D-04  0.42957699D-04
  0.14832261D-04 -0.15052068D-03 -0.69374843D-04  0.19453430D-03 -0.17833987D-03
 -0.13673970D-03 -0.68242695D-04 -0.37013479D-03 -0.28379588D-03 -0.14163403D-03
 -0.19717471D-05 -0.15118106D-05 -0.75449944D-06 -0.65285549D-03 -0.90212429D-04
  0.20780117D-03  0.12325301D-05  0.27816196D-04  0.24117333D-03  0.35902418D-04
  0.27809205D-03  0.41641933D-06  0.13645204D-05  0.20775436D-04  0.35239071D-04
  0.40118437D-04  0.21559677D-05  0.21022947D-04  0.35658898D-04  0.40596395D-04
  0.26172299D-05  0.82568156D+00  0.15196948D+01  0.24591531D+01  0.32326256D+01
  0.27726042D+01  0.94800046D+00 -0.15977398D-01 -0.71290840D-02  0.21052280D-01
 -0.23799500D-02 -0.18336231D-02 -0.80505932D-03  0.25320176D-02  0.19507831D-02
  0.85649883D-03  0.23765929D-04  0.18310367D-04  0.80392375D-05  0.32800766D-02
  0.21804114D-03  0.11127532D-03  0.67114792D-07 -0.90776562D-02 -0.91054770D-02
 -0.90421418D-02  0.22146612D-04  0.17729656D-05 -0.11345747D-05  0.10838669D-03
  0.18384433D-03  0.20930028D-03 -0.18984714D-03
MO    2     MO 0.0        OCC NO =    2.0000000  ORB. ENERGY =  -18.980282
  0.28166089D-04  0.51960935D-04  0.83881061D-04  0.10918822D-03  0.93170504D-04
  0.32169536D-04 -0.12992286D-03 -0.59881327D-04  0.16791349D-03 -0.35424687D-04
 -0.27161403D-04 -0.13555444D-04 -0.81570408D-04 -0.62543015D-04 -0.31213348D-04
  0.31635157D-07  0.24255832D-07  0.12105360D-07 -0.41878608D-03  0.26633919D-03
 -0.43363279D-03  0.13455283D-08 -0.29115065D-04  0.24441784D-04  0.79926479D-04
 -0.11315830D-03  0.93235520D-07  0.44963526D-07 -0.42055317D-05 -0.77583849D-05
 -0.12524439D-04 -0.16303098D-04 -0.13911463D-04 -0.48032939D-05  0.27113992D-04
  0.12496814D-04 -0.35042371D-04  0.98480223D-04  0.75508389D-04  0.37683978D-04
  0.52846668D-05  0.40519473D-05  0.20222057D-05 -0.41112484D-07 -0.31522445D-07
 -0.15731909D-07  0.46039714D-03  0.86791085D-04  0.20049143D-03 -0.82424162D-07
  0.40556068D-04  0.18808999D-04 -0.14257391D-05 -0.62323827D-05 -0.36195636D-07
 -0.34581618D-07  0.74507707D-05  0.13745217D-04  0.22189042D-04  0.28883540D-04
  0.24646377D-04  0.85098017D-05 -0.30945314D-04 -0.14262667D-04  0.39994007D-04
  0.39825623D-04  0.30535762D-04  0.15239485D-04  0.20995744D-04  0.16098204D-04
  0.80341323D-05 -0.69219858D-08 -0.53073397D-08 -0.26487345D-08 -0.25240161D-03
 -0.17131395D-03  0.70077424D-04  0.15907093D-07  0.20948369D-04 -0.39165076D-04
  0.35173600D-04  0.30090568D-04  0.21503400D-08  0.34980309D-07  0.47186821D-05
  0.87050470D-05  0.14052645D-04  0.18292368D-04  0.15608911D-04  0.53893819D-05
 -0.11501010D-04 -0.53008051D-05  0.14864011D-04  0.79570224D-04  0.61009401D-04
  0.30447967D-04 -0.27713507D-04 -0.21248960D-04 -0.10604720D-04  0.84180761D-08
  0.64544468D-08  0.32212213D-08  0.25325916D-03  0.79067734D-04 -0.52907835D-04
  0.11855980D-07  0.25877057D-04  0.11318839D-04  0.39716730D-04  0.48243496D-04
  0.30280002D-09 -0.14484338D-08  0.63236845D-05  0.11665963D-04  0.18832482D-04
  0.24514296D-04  0.20918093D-04  0.72225148D-05 -0.56253533D-04 -0.25927202D-04
  0.72702581D-04 -0.13260151D-04 -0.10167043D-04 -0.50740670D-05 -0.19624129D-05
 -0.15046538D-05 -0.75092769D-06  0.68829201D-08  0.52773866D-08  0.26337858D-08
 -0.35479647D-03  0.20395186D-03  0.22787041D-03 -0.10370412D-06 -0.49324663D-04
 -0.61347642D-04  0.28100230D-04 -0.20480074D-05  0.33072075D-07  0.61544011D-07
 -0.28387520D-04 -0.52369431D-04 -0.84540499D-04 -0.11004661D-03 -0.93902972D-04
 -0.32422440D-04 -0.75997582D-04 -0.35027216D-04  0.98219970D-04  0.54959392D-03
  0.42139376D-03  0.21030502D-03  0.20862960D-04  0.15996394D-04  0.79833218D-05
 -0.11896607D-06 -0.91215636D-07 -0.45522995D-07 -0.44647995D-05 -0.81124353D-03
 -0.57566304D-04  0.17287907D-06 -0.22364239D-03 -0.55559231D-04 -0.12300697D-03
  0.10834891D-03  0.49032933D-07 -0.63670874D-07  0.11736344D-04  0.19907060D-04
  0.22663484D-04  0.49743526D-04  0.18196365D-05  0.30864479D-05  0.35138119D-05
  0.92078679D-05 -0.12143538D-04 -0.20597739D-04 -0.23449798D-04 -0.12587438D-03
  0.82560139D+00  0.15195473D+01  0.24589143D+01  0.32323117D+01  0.27723350D+01
  0.94790841D+00 -0.15753849D-01 -0.70293367D-02  0.20757725D-01 -0.19096902D-02
 -0.14713133D-02 -0.64598579D-03 -0.22802111D-02 -0.17567797D-02 -0.77132092D-03
  0.72064865D-06  0.55522094D-06  0.24377190D-06  0.40623188D-02 -0.39689386D-03
  0.70308961D-04  0.74059392D-07 -0.91727550D-02 -0.93661468D-02 -0.92990953D-02
 -0.10877499D-03 -0.37297287D-07  0.46871098D-07  0.79983357D-04  0.13566691D-03
  0.15445198D-03 -0.21755030D-03  0.38519192D-04  0.70895875D-04  0.11472291D-03
  0.15080647D-03  0.12934584D-03  0.44225538D-04 -0.18196843D-03 -0.81193960D-04
  0.23976685D-03 -0.12560524D-03 -0.96772069D-04 -0.42488151D-04  0.32562276D-04
  0.25087478D-04  0.11014754D-04  0.12215356D-07  0.94112733D-08  0.41320559D-08
 -0.56748500D-03  0.14779740D-03 -0.10466517D-03 -0.16527227D-07  0.19702566D-03
  0.15208132D-03  0.19252547D-03  0.10676180D-03 -0.20426380D-07 -0.12845006D-07
  0.29749568D-05  0.54882145D-05  0.88596798D-05  0.11532671D-04  0.98408488D-05
  0.33978086D-05 -0.12670179D-04 -0.58396740D-05  0.16375056D-04 -0.14795257D-04
 -0.11344065D-04 -0.56614833D-05  0.48823926D-05  0.37435089D-05  0.18682733D-05
 -0.16797586D-07 -0.12879324D-07 -0.64276853D-08 -0.10003355D-03 -0.33069531D-04
 -0.49998863D-05  0.65572147D-07 -0.60566487D-05  0.43517897D-05  0.85866168D-05
 -0.14746892D-04  0.25728092D-07  0.92397910D-08  0.22989177D-05  0.38993995D-05
  0.44393285D-05  0.36856273D-05  0.23131225D-05  0.39234935D-05  0.44667587D-05
  0.37457327D-05 -0.70009940D-05 -0.12885566D-04 -0.20851279D-04 -0.27409589D-04
 -0.23509046D-04 -0.80381419D-05  0.91087974D-05  0.40643276D-05 -0.12002014D-04
 -0.17891298D-04 -0.13784280D-04 -0.60520415D-05  0.34369593D-05  0.26479919D-05
  0.11626111D-05  0.21784167D-09  0.16783526D-09  0.73688721D-10  0.19071517D-04
  0.11135079D-04  0.31917956D-05 -0.47294067D-08 -0.11541102D-04 -0.10882989D-04
 -0.13155220D-04  0.10248896D-04  0.97457581D-07 -0.29109603D-07  0.17158536D-05
  0.29104124D-05  0.33134017D-05 -0.24536042D-05
MO    3     MO 0.0        OCC NO =    2.0000000  ORB. ENERGY =  -18.883952
 -0.41976418D-04 -0.77438294D-04 -0.12500942D-03 -0.16272512D-03 -0.13885364D-03
 -0.47942824D-04 -0.78462135D-04 -0.36163126D-04  0.10140518D-03  0.12515711D-03
  0.95962534D-04  0.47892030D-04 -0.17502846D-03 -0.13420072D-03 -0.66975567D-04
  0.53027530D-08  0.40658147D-08  0.20291265D-08 -0.11032975D-03 -0.59823346D-03
  0.92987194D-03 -0.36071356D-08 -0.38666447D-03 -0.63853065D-03 -0.19206373D-03
  0.75064257D-03 -0.39167898D-07 -0.36862479D-07  0.13489368D-04  0.24885251D-04
  0.40172510D-04  0.52292672D-04  0.44621432D-04  0.15406708D-04 -0.78339108D-04
 -0.36106423D-04  0.10124618D-03 -0.35212546D-04 -0.26998747D-04 -0.13474267D-04
  0.56134745D-04  0.43040562D-04  0.21480257D-04 -0.11061805D-07 -0.84814901D-08
 -0.42328580D-08 -0.68608528D-03 -0.13184985D-03 -0.41303810D-03  0.15357222D-06
 -0.25865040D-04 -0.57239149D-04  0.48169578D-04  0.75753473D-04  0.13504784D-07
  0.39275662D-07 -0.31382802D-05 -0.57895141D-05 -0.93460709D-05 -0.12165807D-04
 -0.10381105D-04 -0.35843462D-05  0.20649535D-04  0.95173517D-05 -0.26687648D-04
  0.89093763D-04  0.68311446D-04  0.34092199D-04 -0.72392170D-04 -0.55505724D-04
 -0.27701247D-04 -0.11290073D-07 -0.86565119D-08 -0.43202061D-08  0.49410502D-03
  0.11516136D-03 -0.11282730D-03  0.28098753D-07 -0.21196624D-05  0.58084149D-04
  0.81247362D-05 -0.39640324D-04 -0.72984142D-08 -0.21986271D-07  0.99083933D-05
  0.18279051D-04  0.29508056D-04  0.38410721D-04  0.32775938D-04  0.11316744D-04
 -0.37989364D-04 -0.17509263D-04  0.49097801D-04 -0.57706391D-05 -0.44245601D-05
 -0.22081656D-05 -0.43775926D-04 -0.33564604D-04 -0.16751090D-04  0.94584294D-08
  0.72521237D-08  0.36193180D-08 -0.30408234D-03 -0.12715191D-03  0.99485920D-04
 -0.26651333D-07 -0.28667057D-04  0.22207075D-04  0.45631180D-04 -0.44066556D-04
  0.37158775D-07  0.35654635D-07 -0.17096559D-05 -0.31539813D-05 -0.50915037D-05
 -0.66276250D-05 -0.56553644D-05 -0.19526614D-05  0.16474195D-04  0.75929412D-05
 -0.21291400D-04  0.53344316D-04  0.40901038D-04  0.20412485D-04 -0.11583811D-03
 -0.88817314D-04 -0.44326064D-04  0.19128146D-07  0.14666249D-07  0.73194862D-08
  0.49063025D-03 -0.15210353D-03 -0.18309392D-03  0.88234717D-07  0.28130110D-04
  0.31223577D-04  0.11586733D-04 -0.17024548D-04  0.72332180D-09 -0.39810211D-07
  0.24774297D-04  0.45703740D-04  0.73780007D-04  0.96039647D-04  0.81950805D-04
  0.28295643D-04 -0.11024348D-03 -0.50811118D-04  0.14247968D-03  0.63214678D-04
  0.48469006D-04  0.24189431D-04  0.66190650D-04  0.50750792D-04  0.25328202D-04
 -0.26335427D-07 -0.20192335D-07 -0.10077390D-07 -0.46078125D-03  0.57938726D-03
 -0.34703734D-04 -0.10864326D-06  0.11264174D-03 -0.79070727D-04  0.63101629D-04
  0.99787270D-05 -0.41679496D-07  0.73539219D-07 -0.22713439D-04 -0.38526292D-04
 -0.43860822D-04 -0.14393608D-03 -0.68567934D-05 -0.11630419D-04 -0.13240821D-04
 -0.40934476D-04  0.11650339D-04  0.19761180D-04  0.22497405D-04  0.57827433D-04
  0.60988145D-04  0.11225074D-03  0.18164289D-03  0.23877467D-03  0.20479564D-03
  0.70023109D-04 -0.16624192D-03 -0.74176819D-04  0.21904514D-03 -0.15846197D-03
 -0.12208640D-03 -0.53602507D-04  0.98309899D-04  0.75742477D-04  0.33255027D-04
  0.32008234D-07  0.24660619D-07  0.10827340D-07 -0.51732485D-03  0.22030932D-03
 -0.10936741D-03 -0.33162081D-07  0.68468289D-04  0.24687622D-03  0.17309903D-03
  0.25542809D-05  0.43979360D-07 -0.25289235D-07 -0.13241899D-04 -0.22460768D-04
 -0.25570790D-04 -0.10906441D-03  0.82560240D+00  0.15195491D+01  0.24589173D+01
  0.32323157D+01  0.27723384D+01  0.94790958D+00 -0.15568178D-01 -0.69464907D-02
  0.20513080D-01 -0.15116643D-02 -0.11646558D-02 -0.51134665D-03  0.26459931D-02
  0.20385950D-02  0.89505302D-03  0.13551125D-08  0.10440411D-08  0.45839030D-09
  0.45029612D-02 -0.33923315D-03  0.52612582D-03  0.25940986D-08 -0.92305147D-02
 -0.90290404D-02 -0.93878373D-02 -0.49697810D-03 -0.53506206D-09  0.16706699D-07
  0.75620651D-05  0.13950534D-04  0.22520487D-04  0.29314982D-04  0.25014528D-04
  0.86369152D-05 -0.25374411D-04 -0.11695043D-04  0.32794121D-04 -0.50588280D-05
 -0.38787884D-05 -0.19357873D-05  0.22668537D-05  0.17380796D-05  0.86742355D-06
  0.22242527D-07  0.17054159D-07  0.85112207D-08 -0.46423059D-04 -0.18131147D-04
  0.11971948D-04 -0.59884448D-07 -0.23215304D-05  0.31297360D-04  0.27408354D-04
  0.30662009D-04  0.25088023D-07  0.11698463D-07  0.36794517D-05  0.62410464D-05
  0.71052108D-05  0.20779866D-05  0.36707002D-05  0.62262023D-05  0.70883113D-05
  0.19783590D-05 -0.70676606D-06 -0.13008268D-05 -0.21049834D-05 -0.27670596D-05
 -0.23732909D-05 -0.81146847D-06  0.16008748D-05  0.71430720D-06 -0.21093587D-05
  0.36157715D-04  0.27857570D-04  0.12230974D-04  0.10757172D-04  0.82878215D-05
  0.36388000D-05 -0.11854334D-06 -0.91331256D-07 -0.40099341D-07  0.17467353D-04
 -0.11328864D-04 -0.70907582D-06  0.77967159D-07 -0.81777295D-05 -0.71812990D-05
  0.63389557D-05 -0.10841415D-04 -0.16296893D-06 -0.44959311D-07 -0.31761508D-05
 -0.53873530D-05 -0.61333109D-05 -0.47709400D-05
MO    4     MO 0.0        OCC NO =    2.0000000  ORB. ENERGY =  -10.095511
 -0.27766719D-04 -0.51224174D-04 -0.82691700D-04 -0.10764002D-03 -0.91849427D-04
 -0.31713400D-04  0.69815365D-04  0.32177838D-04 -0.90230017D-04  0.36379704D-04
  0.27893650D-04  0.13920886D-04  0.84952394D-05  0.65136108D-05  0.32507483D-05
  0.13974274D-06  0.10714587D-06  0.53473298D-07  0.14897938D-03 -0.15062598D-03
  0.98038525D-04 -0.10774109D-06  0.32408625D-07 -0.51037169D-04 -0.79833511D-04
  0.80139583D-05 -0.13977805D-07 -0.32292086D-08 -0.15933010D-04 -0.29393292D-04
 -0.47449887D-04 -0.61765654D-04 -0.52704745D-04 -0.18197682D-04  0.44349128D-04
  0.20440472D-04 -0.57317218D-04  0.12257739D-03  0.93984566D-04  0.46904885D-04
  0.40689349D-05  0.31198012D-05  0.15569995D-05 -0.31809325D-06 -0.24389373D-06
 -0.12172006D-06 -0.69146589D-04 -0.58736385D-04  0.55767101D-04  0.17789612D-06
 -0.62097679D-04  0.10432146D-03 -0.88582078D-04  0.20303965D-04 -0.11795460D-06
  0.34235813D-07  0.67392505D-03  0.12432601D-02  0.20070073D-02  0.26125272D-02
  0.22292742D-02  0.76971480D-03  0.96920883D-04  0.44670747D-04 -0.12526144D-03
  0.32898533D-03  0.25224509D-03  0.12588798D-03  0.27600420D-04  0.21162252D-04
  0.10561447D-04  0.22633364D-06  0.17353828D-06  0.86607765D-07  0.90958048D-03
 -0.66395591D-03 -0.21475055D-04  0.42169293D-07 -0.30471496D-03 -0.21260988D-03
 -0.18747797D-03 -0.35237142D-04 -0.14276724D-06  0.26327334D-07 -0.43737865D-05
 -0.80687820D-05 -0.13025516D-04 -0.16955352D-04 -0.14468032D-04 -0.49954638D-05
  0.31488242D-04  0.14512902D-04 -0.40695692D-04  0.11490376D-03  0.88100918D-04
  0.43968533D-04 -0.18395368D-04 -0.14104402D-04 -0.70390850D-05 -0.32211619D-06
 -0.24697826D-06 -0.12325946D-06 -0.69789292D-04 -0.11832551D-03 -0.87144210D-04
  0.26098972D-06 -0.32010570D-04  0.14959473D-03 -0.50172597D-04  0.37248672D-05
 -0.27483811D-06 -0.29920835D-06 -0.20347258D-04 -0.37536718D-04 -0.60595901D-04
 -0.78877859D-04 -0.67306620D-04 -0.23239358D-04  0.67589186D-04  0.31151794D-04
 -0.87352882D-04  0.33205995D-04  0.25460251D-04  0.12706449D-04  0.20789367D-04
  0.15939968D-04  0.79551611D-05  0.14266837D-06  0.10938906D-06  0.54592807D-07
  0.27325385D-03 -0.12490321D-03 -0.62213049D-04 -0.90444935D-07  0.32973787D-04
 -0.21263622D-04 -0.84453037D-04  0.14144703D-04  0.62035104D-07  0.36997529D-07
 -0.57054579D-05 -0.10525456D-04 -0.16991349D-04 -0.22117688D-04 -0.18873063D-04
 -0.65164151D-05  0.63552055D-05  0.29291084D-05 -0.82135258D-05  0.11082060D-04
  0.84970208D-05  0.42406089D-05 -0.72133061D-05 -0.55307056D-05 -0.27602097D-05
 -0.69333686D-07 -0.53160673D-07 -0.26530901D-07 -0.98006601D-04  0.56895022D-04
 -0.15984711D-04  0.90677643D-07 -0.52107631D-04  0.12104812D-04 -0.28351034D-04
  0.13543978D-05 -0.21631217D-07 -0.10650805D-07 -0.81032759D-05 -0.13744690D-04
 -0.15647843D-04  0.22510009D-04 -0.96448899D-05 -0.16359559D-04 -0.18624779D-04
  0.35039891D-04 -0.87893925D-06 -0.14908473D-05 -0.16972770D-05  0.43591369D-04
 -0.81870779D-05 -0.15068594D-04 -0.24383829D-04 -0.32053226D-04 -0.27491866D-04
 -0.93999357D-05  0.26611069D-04  0.11873807D-04 -0.35063512D-04  0.42239096D-04
  0.32542946D-04  0.14288106D-04 -0.20081105D-04 -0.15471409D-04 -0.67927819D-05
  0.49736987D-07  0.38319668D-07  0.16824398D-07  0.24832319D-04 -0.29370779D-04
  0.80871629D-05 -0.34936662D-07  0.13231233D-05 -0.33326043D-04 -0.53673134D-04
 -0.22852381D-05  0.39013999D-07 -0.13396049D-07  0.10839295D-06  0.18385496D-06
  0.20931238D-06  0.94315194D-05 -0.24934411D-04 -0.45892628D-04 -0.74262934D-04
 -0.97620706D-04 -0.83728712D-04 -0.28628269D-04  0.82499395D-04  0.36811069D-04
 -0.10870358D-03  0.19167768D-04  0.14767732D-04  0.64838296D-05 -0.22203489D-04
 -0.17106592D-04 -0.75107151D-05 -0.12298239D-06 -0.94751300D-07 -0.41600924D-07
  0.22668160D-03 -0.20632840D-04  0.57442170D-04  0.65960627D-07 -0.98270034D-04
 -0.66533692D-04 -0.99377363D-04 -0.20337856D-04 -0.49316357D-07  0.79307342D-07
  0.53262360D+00  0.98258655D+00  0.15861993D+01  0.20647602D+01  0.17618637D+01
  0.60832918D+00 -0.19772923D-01 -0.91133223D-02  0.25554707D-01 -0.56808851D-03
 -0.43557424D-03 -0.21738207D-03 -0.68534658D-03 -0.52548029D-03 -0.26225149D-03
 -0.91458278D-06 -0.70124407D-06 -0.34996994D-06 -0.34728707D-02 -0.34355274D-03
 -0.27332601D-04 -0.57407089D-07 -0.10058794D-01 -0.96428287D-02 -0.98313074D-02
  0.28115979D-03  0.74530428D-06  0.12198555D-05  0.10471627D-04  0.17761861D-04
  0.20221251D-04  0.51403535D-03  0.10549132D-04  0.17893325D-04  0.20370918D-04
  0.51384343D-03 -0.10288635D-03 -0.18936580D-03 -0.30642961D-03 -0.40281030D-03
 -0.34548805D-03 -0.11812823D-03  0.14665056D-03  0.65435193D-04 -0.19323100D-03
 -0.12896970D-03 -0.99364204D-04 -0.43626237D-04 -0.36943068D-03 -0.28462642D-03
 -0.12496633D-03 -0.55793512D-06 -0.42985893D-06 -0.18873122D-06  0.68479542D-03
  0.46566547D-04  0.46686194D-04  0.20140558D-07 -0.26789987D-03 -0.87155793D-03
 -0.15655712D-04 -0.57793895D-03 -0.17714111D-05 -0.48518227D-05 -0.98137426D-05
 -0.16645965D-04 -0.18950843D-04  0.21318031D-04
MO    5     MO 0.0        OCC NO =    2.0000000  ORB. ENERGY =  -10.032584
  0.37304704D-01  0.68819894D-01  0.11109665D+00  0.14461482D+00  0.12340009D+00
  0.42607086D-01 -0.10859115D-02 -0.50049564D-03  0.14034420D-02 -0.11334057D-03
 -0.86902358D-04 -0.43370367D-04 -0.28187279D-03 -0.21612218D-03 -0.10786011D-03
  0.70536990D-07  0.54083290D-07  0.26991352D-07  0.15371137D-02 -0.35879604D-03
  0.88391480D-03 -0.78461284D-07 -0.11856057D-02 -0.10401729D-02 -0.10801335D-02
 -0.40093316D-03  0.18333134D-07  0.70343881D-07  0.14001988D-03  0.25830934D-03
  0.41699136D-03  0.54279885D-03  0.46317124D-03  0.15992190D-03 -0.38888906D-04
 -0.17923861D-04  0.50260378D-04 -0.18444590D-03 -0.14142142D-03 -0.70579198D-04
 -0.69731285D-04 -0.53465527D-04 -0.26683045D-04  0.65111268D-07  0.49923191D-07