 Entering Link 1 = D:\Gaussian\G16W\l1.exe PID=     44828.
  
 Copyright (c) 1988,1990,1992,1993,1995,1998,2003,2009,2016,
            Gaussian, Inc.  All Rights Reserved.
  
 This is part of the Gaussian(R) 16 program.  It is based on
 the Gaussian(R) 09 system (copyright 2009, Gaussian, Inc.),
 the Gaussian(R) 03 system (copyright 2003, Gaussian, Inc.),
 the Gaussian(R) 98 system (copyright 1998, Gaussian, Inc.),
 the Gaussian(R) 94 system (copyright 1995, Gaussian, Inc.),
 the Gaussian 92(TM) system (copyright 1992, Gaussian, Inc.),
 the Gaussian 90(TM) system (copyright 1990, Gaussian, Inc.),
 the Gaussian 88(TM) system (copyright 1988, Gaussian, Inc.),
 the Gaussian 86(TM) system (copyright 1986, Carnegie Mellon
 University), and the Gaussian 82(TM) system (copyright 1983,
 Carnegie Mellon University). Gaussian is a federally registered
 trademark of Gaussian, Inc.
  
 This software contains proprietary and confidential information,
 including trade secrets, belonging to Gaussian, Inc.
  
 This software is provided under written license and may be
 used, copied, transmitted, or stored only in accord with that
 written license.
  
 The following legend is applicable only to US Government
 contracts under FAR:
  
                    RESTRICTED RIGHTS LEGEND
  
 Use, reproduction and disclosure by the US Government is
 subject to restrictions as set forth in subparagraphs (a)
 and (c) of the Commercial Computer Software - Restricted
 Rights clause in FAR 52.227-19.
  
 Gaussian, Inc.
 340 Quinnipiac St., Bldg. 40, Wallingford CT 06492
  
  
 ---------------------------------------------------------------
 Warning -- This program may not be used in any manner that
 competes with the business of Gaussian, Inc. or will provide
 assistance to any competitor of Gaussian, Inc.  The licensee
 of this program is prohibited from giving any competitor of
 Gaussian, Inc. access to this program.  By using this program,
 the user acknowledges that Gaussian, Inc. is engaged in the
 business of creating and licensing software in the field of
 computational chemistry and represents and warrants to the
 licensee that it is not a competitor of Gaussian, Inc. and that
 it will not use this program in any manner prohibited above.
 ---------------------------------------------------------------
  

 Cite this work as:
 Gaussian 16, Revision A.03,
 M. J. Frisch, G. W. Trucks, H. B. Schlegel, G. E. Scuseria, 
 M. A. Robb, J. R. Cheeseman, G. Scalmani, V. Barone, 
 G. A. Petersson, H. Nakatsuji, X. Li, M. Caricato, A. V. Marenich, 
 J. Bloino, B. G. Janesko, R. Gomperts, B. Mennucci, H. P. Hratchian, 
 J. V. Ortiz, A. F. Izmaylov, J. L. Sonnenberg, D. Williams-Young, 
 F. Ding, F. Lipparini, F. Egidi, J. Goings, B. Peng, A. Petrone, 
 T. Henderson, D. Ranasinghe, V. G. Zakrzewski, J. Gao, N. Rega, 
 G. Zheng, W. Liang, M. Hada, M. Ehara, K. Toyota, R. Fukuda, 
 J. Hasegawa, M. Ishida, T. Nakajima, Y. Honda, O. Kitao, H. Nakai, 
 T. Vreven, K. Throssell, J. A. Montgomery, Jr., J. E. Peralta, 
 F. Ogliaro, M. J. Bearpark, J. J. Heyd, E. N. Brothers, K. N. Kudin, 
 V. N. Staroverov, T. A. Keith, R. Kobayashi, J. Normand, 
 K. Raghavachari, A. P. Rendell, J. C. Burant, S. S. Iyengar, 
 J. Tomasi, M. Cossi, J. M. Millam, M. Klene, C. Adamo, R. Cammi, 
 J. W. Ochterski, R. L. Martin, K. Morokuma, O. Farkas, 
 J. B. Foresman, and D. J. Fox, Gaussian, Inc., Wallingford CT, 2016.
 
 ******************************************
 Gaussian 16:  EM64W-G16RevA.03 17-Dec-2016
                08-Dec-2025 
 ******************************************
 %chk=F:\MULTIWFN\Multiwfn_3.8_dev_bin_Win64\N+1.chk
 %nprocshared=14
 Will use up to   14 processors via shared memory.
 %nprocs=   4
 Will use up to    4 processors via shared memory.
 --------------------------------------
 #p b3lyp/6-31g(d) out=wfn scf=conver=7
 --------------------------------------
 1/38=1,172=1/1;
 2/12=2,17=6,18=5,40=1/2;
 3/5=1,6=6,7=1,11=2,25=1,30=1,74=-5/1,2,3;
 4//1;
 5/5=2,6=7,38=5/2;
 6/7=2,8=2,9=2,10=2,28=1/1;
 99/5=1,6=100,9=1/99;
 Leave Link    1 at Mon Dec 08 16:23:52 2025, MaxMem=           0 cpu:               0.0 elap:               0.2
 (Enter D:\Gaussian\G16W\l101.exe)
 ----------------------------------------------------
 Generated by Multiwfn (http://sobereva.com/multiwfn)
 ----------------------------------------------------
 Symbolic Z-matrix:
 Charge = -1 Multiplicity = 1
 C                     0.9834   -0.88795   0.00027 
 C                    -0.45478  -0.84157   0.00072 
 C                    -1.11022   0.36099   0.00054 
 C                    -0.37033   1.58143  -0.00015 
 C                     1.01656   1.60386  -0.00035 
 C                     1.69933   0.39337  -0.00012 
 H                    -0.99894  -1.77585   0.00119 
 H                    -0.91147   2.52254  -0.00049 
 H                     1.569     2.53544  -0.00071 
 O                     3.02753   0.31205  -0.00038 
 H                     3.20589  -0.65382  -0.00028 
 O                     1.67863  -1.92952   0.00026 
 C                    -2.61725   0.44433   0.00114 
 H                    -2.93759   1.0116    0.8888 
 H                    -2.938     1.01676  -0.88307 
 O                    -3.17344  -0.85827  -0.00252 
 H                    -4.13085  -0.77759   0.0034 
 
 ITRead=  0  0  0  0  0  0  0  0  0  0  0  0  0  0  0  0  0
 MicOpt= -1 -1 -1 -1 -1 -1 -1 -1 -1 -1 -1 -1 -1 -1 -1 -1 -1
 NAtoms=     17 NQM=       17 NQMF=       0 NMMI=      0 NMMIF=      0
                NMic=       0 NMicF=      0.
                    Isotopes and Nuclear Properties:
 (Nuclear quadrupole moments (NQMom) in fm**2, nuclear magnetic moments (NMagM)
  in nuclear magnetons)

  Atom         1           2           3           4           5           6           7           8           9          10
 IAtWgt=          12          12          12          12          12          12           1           1           1          16
 AtmWgt=  12.0000000  12.0000000  12.0000000  12.0000000  12.0000000  12.0000000   1.0078250   1.0078250   1.0078250  15.9949146
 NucSpn=           0           0           0           0           0           0           1           1           1           0
 AtZEff=   0.0000000   0.0000000   0.0000000   0.0000000   0.0000000   0.0000000   0.0000000   0.0000000   0.0000000   0.0000000
 NQMom=    0.0000000   0.0000000   0.0000000   0.0000000   0.0000000   0.0000000   0.0000000   0.0000000   0.0000000   0.0000000
 NMagM=    0.0000000   0.0000000   0.0000000   0.0000000   0.0000000   0.0000000   2.7928460   2.7928460   2.7928460   0.0000000
 AtZNuc=   6.0000000   6.0000000   6.0000000   6.0000000   6.0000000   6.0000000   1.0000000   1.0000000   1.0000000   8.0000000

  Atom        11          12          13          14          15          16          17
 IAtWgt=           1          16          12           1           1          16           1
 AtmWgt=   1.0078250  15.9949146  12.0000000   1.0078250   1.0078250  15.9949146   1.0078250
 NucSpn=           1           0           0           1           1           0           1
 AtZEff=   0.0000000   0.0000000   0.0000000   0.0000000   0.0000000   0.0000000   0.0000000
 NQMom=    0.0000000   0.0000000   0.0000000   0.0000000   0.0000000   0.0000000   0.0000000
 NMagM=    2.7928460   0.0000000   0.0000000   2.7928460   2.7928460   0.0000000   2.7928460
 AtZNuc=   1.0000000   8.0000000   6.0000000   1.0000000   1.0000000   8.0000000   1.0000000
 Leave Link  101 at Mon Dec 08 16:23:53 2025, MaxMem=   104857600 cpu:               1.0 elap:               0.1
 (Enter D:\Gaussian\G16W\l202.exe)
                          Input orientation:                          
 ---------------------------------------------------------------------
 Center     Atomic      Atomic             Coordinates (Angstroms)
 Number     Number       Type             X           Y           Z
 ---------------------------------------------------------------------
      1          6           0        0.983399   -0.887950    0.000272
      2          6           0       -0.454781   -0.841571    0.000721
      3          6           0       -1.110221    0.360995    0.000537
      4          6           0       -0.370331    1.581430   -0.000149
      5          6           0        1.016564    1.603859   -0.000350
      6          6           0        1.699334    0.393372   -0.000123
      7          1           0       -0.998944   -1.775848    0.001191
      8          1           0       -0.911475    2.522538   -0.000485
      9          1           0        1.568995    2.535445   -0.000709
     10          8           0        3.027528    0.312052   -0.000383
     11          1           0        3.205888   -0.653820   -0.000284
     12          8           0        1.678625   -1.929520    0.000261
     13          6           0       -2.617251    0.444332    0.001142
     14          1           0       -2.937593    1.011596    0.888798
     15          1           0       -2.937999    1.016764   -0.883069
     16          8           0       -3.173441   -0.858267   -0.002521
     17          1           0       -4.130849   -0.777590    0.003405
 ---------------------------------------------------------------------
                    Distance matrix (angstroms):
                    1          2          3          4          5
     1  C    0.000000
     2  C    1.438928   0.000000
     3  C    2.437849   1.369586   0.000000
     4  C    2.816101   2.424472   1.427200   0.000000
     5  C    2.492030   2.853942   2.463316   1.387076   0.000000
     6  C    1.467770   2.483001   2.809742   2.386419   1.389768
     7  H    2.172107   1.081197   2.139739   3.415622   3.935060
     8  H    3.901535   3.394967   2.170661   1.085597   2.135721
     9  H    3.473119   3.936992   3.450570   2.161280   1.083066
    10  O    2.370331   3.668422   4.138039   3.627226   2.390134
    11  H    2.234787   3.665481   4.433807   4.217308   3.144877
    12  O    1.252281   2.394797   3.608895   4.065094   3.594870
    13  C    3.839226   2.515914   1.509333   2.518262   3.814330
    14  H    4.446564   3.222928   2.133443   2.775927   4.095939
    15  H    4.448099   3.225037   2.133440   2.773322   4.094196
    16  O    4.156947   2.718713   2.396557   3.716121   4.859857
    17  H    5.115440   3.676626   3.228092   4.439199   5.671611
                    6          7          8          9         10
     6  C    0.000000
     7  H    3.462112   0.000000
     8  H    3.368927   4.299276   0.000000
     9  H    2.146035   5.018123   2.480504   0.000000
    10  O    1.330681   4.535615   4.516857   2.659097   0.000000
    11  H    1.834752   4.351961   5.200185   3.584805   0.982202
    12  O    2.322984   2.681975   5.150674   4.466311   2.616139
    13  C    4.316886   2.747384   2.688608   4.679467   5.646329
    14  H    4.761667   3.509423   2.679351   4.839698   6.071464
    15  H    4.761625   3.512909   2.674530   4.837142   6.071513
    16  O    5.030958   2.360171   4.067719   5.831636   6.310441
    17  H    5.946612   3.287150   4.610339   6.592757   7.240835
                   11         12         13         14         15
    11  H    0.000000
    12  O    1.989961   0.000000
    13  C    5.925782   4.908128   0.000000
    14  H    6.427008   5.545190   1.101063   0.000000
    15  H    6.427870   5.547439   1.101084   1.771875   0.000000
    16  O    6.382605   4.968917   1.416377   2.084817   2.084835
    17  H    7.337782   5.922579   1.945271   2.325719   2.329900
                   16         17
    16  O    0.000000
    17  H    0.960819   0.000000
 Stoichiometry    C7H7O3(1-)
 Framework group  C1[X(C7H7O3)]
 Deg. of freedom    45
 Full point group                 C1      NOp   1
 Largest Abelian subgroup         C1      NOp   1
 Largest concise Abelian subgroup C1      NOp   1
                         Standard orientation:                         
 ---------------------------------------------------------------------
 Center     Atomic      Atomic             Coordinates (Angstroms)
 Number     Number       Type             X           Y           Z
 ---------------------------------------------------------------------
      1          6           0        0.983399   -0.887950    0.000272
      2          6           0       -0.454781   -0.841571    0.000721
      3          6           0       -1.110221    0.360995    0.000537
      4          6           0       -0.370331    1.581430   -0.000149
      5          6           0        1.016564    1.603859   -0.000350
      6          6           0        1.699334    0.393372   -0.000123
      7          1           0       -0.998944   -1.775848    0.001191
      8          1           0       -0.911475    2.522538   -0.000485
      9          1           0        1.568995    2.535445   -0.000709
     10          8           0        3.027528    0.312052   -0.000383
     11          1           0        3.205888   -0.653820   -0.000284
     12          8           0        1.678625   -1.929520    0.000261
     13          6           0       -2.617251    0.444332    0.001142
     14          1           0       -2.937593    1.011596    0.888798
     15          1           0       -2.937999    1.016764   -0.883069
     16          8           0       -3.173441   -0.858267   -0.002521
     17          1           0       -4.130849   -0.777590    0.003405
 ---------------------------------------------------------------------
 Rotational constants (GHZ):           2.8364562           0.8975893           0.6847503
 Leave Link  202 at Mon Dec 08 16:23:53 2025, MaxMem=   104857600 cpu:               0.0 elap:               0.0
 (Enter D:\Gaussian\G16W\l301.exe)
 Standard basis: 6-31G(d) (6D, 7F)
 Ernie: Thresh=  0.10000D-02 Tol=  0.10000D-05 Strict=F.
 There are   164 symmetry adapted cartesian basis functions of A   symmetry.
 There are   164 symmetry adapted basis functions of A   symmetry.
   164 basis functions,   308 primitive gaussians,   164 cartesian basis functions
    37 alpha electrons       37 beta electrons
       nuclear repulsion energy       500.6695092960 Hartrees.
 IExCor=  402 DFT=T Ex+Corr=B3LYP ExCW=0 ScaHFX=  0.200000
 ScaDFX=  0.800000  0.720000  1.000000  0.810000 ScalE2=  1.000000  1.000000
 IRadAn=      5 IRanWt=     -1 IRanGd=            0 ICorTp=0 IEmpDi=  4
 NAtoms=   17 NActive=   17 NUniq=   17 SFac= 1.00D+00 NAtFMM=   60 NAOKFM=F Big=F
 Integral buffers will be    131072 words long.
 Raffenetti 2 integral format.
 Two-electron integral symmetry is turned on.
 Leave Link  301 at Mon Dec 08 16:23:53 2025, MaxMem=   104857600 cpu:               0.0 elap:               0.1
 (Enter D:\Gaussian\G16W\l302.exe)
 NPDir=0 NMtPBC=     1 NCelOv=     1 NCel=       1 NClECP=     1 NCelD=      1
         NCelK=      1 NCelE2=     1 NClLst=     1 CellRange=     0.0.
 One-electron integrals computed using PRISM.
 One-electron integral symmetry used in STVInt
 NBasis=   164 RedAO= T EigKep=  4.44D-04  NBF=   164
 NBsUse=   164 1.00D-06 EigRej= -1.00D+00 NBFU=   164
 Precomputing XC quadrature grid using
 IXCGrd= 4 IRadAn=           5 IRanWt=          -1 IRanGd=           0 AccXCQ= 0.00D+00.
 Generated NRdTot=       0 NPtTot=           0 NUsed=           0 NTot=          32
 NSgBfM=   163   163   163   163   163 MxSgAt=    17 MxSgA2=    17.
 Leave Link  302 at Mon Dec 08 16:23:53 2025, MaxMem=   104857600 cpu:               0.0 elap:               0.3
 (Enter D:\Gaussian\G16W\l303.exe)
 DipDrv:  MaxL=1.
 Leave Link  303 at Mon Dec 08 16:23:53 2025, MaxMem=   104857600 cpu:               0.0 elap:               0.1
 (Enter D:\Gaussian\G16W\l401.exe)
 ExpMin= 1.61D-01 ExpMax= 5.48D+03 ExpMxC= 8.25D+02 IAcc=3 IRadAn=         5 AccDes= 0.00D+00
 Harris functional with IExCor=  402 and IRadAn=       5 diagonalized for initial guess.
 HarFok:  IExCor=  402 AccDes= 0.00D+00 IRadAn=         5 IDoV= 1 UseB2=F ITyADJ=14
 ICtDFT=  3500011 ScaDFX=  1.000000  1.000000  1.000000  1.000000
 FoFCou: FMM=F IPFlag=           0 FMFlag=      100000 FMFlg1=           0
         NFxFlg=           0 DoJE=T BraDBF=F KetDBF=T FulRan=T
         wScrn=  0.000000 ICntrl=       500 IOpCl=  0 I1Cent=   200000004 NGrid=           0
         NMat0=    1 NMatS0=      1 NMatT0=    0 NMatD0=    1 NMtDS0=    0 NMtDT0=    0
 Petite list used in FoFCou.
 Harris En= -496.850169463790    
 JPrj=0 DoOrth=F DoCkMO=F.
 Leave Link  401 at Mon Dec 08 16:23:54 2025, MaxMem=   104857600 cpu:               1.0 elap:               1.0
 (Enter D:\Gaussian\G16W\l502.exe)
 Keep R1 ints in memory in canonical form, NReq=95505454.
 FoFCou: FMM=F IPFlag=           0 FMFlag=           0 FMFlg1=           0
         NFxFlg=           0 DoJE=F BraDBF=F KetDBF=F FulRan=T
         wScrn=  0.000000 ICntrl=       600 IOpCl=  0 I1Cent=           0 NGrid=           0
         NMat0=    1 NMatS0=  13530 NMatT0=    0 NMatD0=    1 NMtDS0=    0 NMtDT0=    0
 Symmetry not used in FoFCou.
 Two-electron integral symmetry not used.
 Closed shell SCF:
 Using DIIS extrapolation, IDIIS=  1040.
 NGot=   104857600 LenX=    13263708 LenY=    13236371
 Requested convergence on RMS density matrix=1.00D-07 within 128 cycles.
 Requested convergence on MAX density matrix=1.00D-05.
 Requested convergence on             energy=1.00D-05.
 No special actions if energy rises.
 Integral accuracy reduced to 1.0D-05 until final iterations.

 Cycle   1  Pass 0  IDiag  1:
 E= -496.295566529331    
 DIIS: error= 4.22D-02 at cycle   1 NSaved=   1.
 NSaved= 1 IEnMin= 1 EnMin= -496.295566529331     IErMin= 1 ErrMin= 4.22D-02
 ErrMax= 4.22D-02  0.00D+00 EMaxC= 1.00D-01 BMatC= 3.50D-01 BMatP= 3.50D-01
 IDIUse=3 WtCom= 5.78D-01 WtEn= 4.22D-01
 Coeff-Com:  0.100D+01
 Coeff-En:   0.100D+01
 Coeff:      0.100D+01
 Gap=     0.187 Goal=   None    Shift=    0.000
 GapD=    0.187 DampG=1.000 DampE=0.500 DampFc=0.5000 IDamp=-1.
 Damping current iteration by 5.00D-01
 RMSDP=1.09D-02 MaxDP=2.33D-01              OVMax= 2.74D-01

 Cycle   2  Pass 0  IDiag  1:
 E= -496.422149876810     Delta-E=       -0.126583347479 Rises=F Damp=T
 DIIS: error= 1.20D-02 at cycle   2 NSaved=   2.
 NSaved= 2 IEnMin= 2 EnMin= -496.422149876810     IErMin= 2 ErrMin= 1.20D-02
 ErrMax= 1.20D-02  0.00D+00 EMaxC= 1.00D-01 BMatC= 2.94D-02 BMatP= 3.50D-01
 IDIUse=3 WtCom= 8.80D-01 WtEn= 1.20D-01
 Coeff-Com:  0.135D+00 0.865D+00
 Coeff-En:   0.211D+00 0.789D+00
 Coeff:      0.144D+00 0.856D+00
 Gap=     0.152 Goal=   None    Shift=    0.000
 RMSDP=3.10D-03 MaxDP=6.68D-02 DE=-1.27D-01 OVMax= 2.07D-01

 Cycle   3  Pass 0  IDiag  1:
 E= -496.592449943279     Delta-E=       -0.170300066469 Rises=F Damp=F
 DIIS: error= 1.44D-02 at cycle   3 NSaved=   3.
 NSaved= 3 IEnMin= 3 EnMin= -496.592449943279     IErMin= 2 ErrMin= 1.20D-02
 ErrMax= 1.44D-02  0.00D+00 EMaxC= 1.00D-01 BMatC= 3.83D-02 BMatP= 2.94D-02
 IDIUse=2 WtCom= 0.00D+00 WtEn= 1.00D+00
 Coeff-En:   0.000D+00 0.000D+00 0.100D+01
 Coeff:      0.000D+00 0.000D+00 0.100D+01
 Gap=     0.178 Goal=   None    Shift=    0.000
 RMSDP=4.84D-03 MaxDP=1.42D-01 DE=-1.70D-01 OVMax= 3.10D-01

 Cycle   4  Pass 0  IDiag  1:
 E= -496.424525655308     Delta-E=        0.167924287970 Rises=F Damp=F
 DIIS: error= 3.86D-02 at cycle   4 NSaved=   4.
 NSaved= 4 IEnMin= 3 EnMin= -496.592449943279     IErMin= 2 ErrMin= 1.20D-02
 ErrMax= 3.86D-02  0.00D+00 EMaxC= 1.00D-01 BMatC= 2.29D-01 BMatP= 2.94D-02
 IDIUse=2 WtCom= 0.00D+00 WtEn= 1.00D+00
 Coeff-En:   0.000D+00 0.000D+00 0.801D+00 0.199D+00
 Coeff:      0.000D+00 0.000D+00 0.801D+00 0.199D+00
 Gap=     0.214 Goal=   None    Shift=    0.000
 RMSDP=2.71D-03 MaxDP=7.78D-02 DE= 1.68D-01 OVMax= 1.62D-01

 Cycle   5  Pass 0  IDiag  1:
 E= -496.611773070278     Delta-E=       -0.187247414970 Rises=F Damp=F
 DIIS: error= 9.25D-03 at cycle   5 NSaved=   5.
 NSaved= 5 IEnMin= 5 EnMin= -496.611773070278     IErMin= 5 ErrMin= 9.25D-03
 ErrMax= 9.25D-03  0.00D+00 EMaxC= 1.00D-01 BMatC= 1.69D-02 BMatP= 2.94D-02
 IDIUse=3 WtCom= 9.07D-01 WtEn= 9.25D-02
 Coeff-Com:  0.342D-02 0.180D-01 0.378D+00-0.177D-01 0.618D+00
 Coeff-En:   0.000D+00 0.000D+00 0.347D+00 0.000D+00 0.653D+00
 Coeff:      0.311D-02 0.163D-01 0.375D+00-0.160D-01 0.621D+00
 Gap=     0.157 Goal=   None    Shift=    0.000
 RMSDP=9.36D-04 MaxDP=2.37D-02 DE=-1.87D-01 OVMax= 6.11D-02

 Cycle   6  Pass 0  IDiag  1:
 E= -496.626540818560     Delta-E=       -0.014767748282 Rises=F Damp=F
 DIIS: error= 9.69D-04 at cycle   6 NSaved=   6.
 NSaved= 6 IEnMin= 6 EnMin= -496.626540818560     IErMin= 6 ErrMin= 9.69D-04
 ErrMax= 9.69D-04  0.00D+00 EMaxC= 1.00D-01 BMatC= 2.62D-04 BMatP= 1.69D-02
 IDIUse=3 WtCom= 9.90D-01 WtEn= 9.69D-03
 Coeff-Com: -0.202D-02 0.614D-02 0.154D+00-0.465D-01 0.401D+00 0.487D+00
 Coeff-En:   0.000D+00 0.000D+00 0.000D+00 0.000D+00 0.000D+00 0.100D+01
 Coeff:     -0.200D-02 0.608D-02 0.153D+00-0.460D-01 0.397D+00 0.492D+00
 Gap=     0.157 Goal=   None    Shift=    0.000
 RMSDP=1.31D-04 MaxDP=3.65D-03 DE=-1.48D-02 OVMax= 9.73D-03

 Cycle   7  Pass 0  IDiag  1:
 E= -496.626795081474     Delta-E=       -0.000254262914 Rises=F Damp=F
 DIIS: error= 2.90D-04 at cycle   7 NSaved=   7.
 NSaved= 7 IEnMin= 7 EnMin= -496.626795081474     IErMin= 7 ErrMin= 2.90D-04
 ErrMax= 2.90D-04  0.00D+00 EMaxC= 1.00D-01 BMatC= 1.65D-05 BMatP= 2.62D-04
 IDIUse=3 WtCom= 9.97D-01 WtEn= 2.90D-03
 Coeff-Com: -0.132D-02 0.393D-02 0.660D-01-0.268D-01 0.190D+00 0.280D+00
 Coeff-Com:  0.489D+00
 Coeff-En:   0.000D+00 0.000D+00 0.000D+00 0.000D+00 0.000D+00 0.000D+00
 Coeff-En:   0.100D+01
 Coeff:     -0.132D-02 0.392D-02 0.658D-01-0.267D-01 0.190D+00 0.279D+00
 Coeff:      0.490D+00
 Gap=     0.157 Goal=   None    Shift=    0.000
 RMSDP=3.23D-05 MaxDP=6.60D-04 DE=-2.54D-04 OVMax= 2.05D-03

 Cycle   8  Pass 0  IDiag  1:
 E= -496.626811038210     Delta-E=       -0.000015956736 Rises=F Damp=F
 DIIS: error= 6.12D-05 at cycle   8 NSaved=   8.
 NSaved= 8 IEnMin= 8 EnMin= -496.626811038210     IErMin= 8 ErrMin= 6.12D-05
 ErrMax= 6.12D-05  0.00D+00 EMaxC= 1.00D-01 BMatC= 1.02D-06 BMatP= 1.65D-05
 IDIUse=1 WtCom= 1.00D+00 WtEn= 0.00D+00
 Coeff-Com: -0.208D-04-0.136D-03 0.683D-02-0.336D-02 0.169D-01 0.351D-01
 Coeff-Com:  0.192D+00 0.753D+00
 Coeff:     -0.208D-04-0.136D-03 0.683D-02-0.336D-02 0.169D-01 0.351D-01
 Coeff:      0.192D+00 0.753D+00
 Gap=     0.157 Goal=   None    Shift=    0.000
 RMSDP=8.58D-06 MaxDP=1.75D-04 DE=-1.60D-05 OVMax= 3.27D-04

 Initial convergence to 1.0D-05 achieved.  Increase integral accuracy.
 Cycle   9  Pass 1  IDiag  1:
 E= -496.626807067124     Delta-E=        0.000003971086 Rises=F Damp=F
 DIIS: error= 1.32D-05 at cycle   1 NSaved=   1.
 NSaved= 1 IEnMin= 1 EnMin= -496.626807067124     IErMin= 1 ErrMin= 1.32D-05
 ErrMax= 1.32D-05  0.00D+00 EMaxC= 1.00D-01 BMatC= 6.70D-08 BMatP= 6.70D-08
 IDIUse=1 WtCom= 1.00D+00 WtEn= 0.00D+00
 Coeff-Com:  0.100D+01
 Coeff:      0.100D+01
 Gap=     0.157 Goal=   None    Shift=    0.000
 RMSDP=8.58D-06 MaxDP=1.75D-04 DE= 3.97D-06 OVMax= 2.57D-04

 Cycle  10  Pass 1  IDiag  1:
 E= -496.626806975981     Delta-E=        0.000000091143 Rises=F Damp=F
 DIIS: error= 2.22D-05 at cycle   2 NSaved=   2.
 NSaved= 2 IEnMin= 1 EnMin= -496.626807067124     IErMin= 1 ErrMin= 1.32D-05
 ErrMax= 2.22D-05  0.00D+00 EMaxC= 1.00D-01 BMatC= 1.71D-07 BMatP= 6.70D-08
 IDIUse=1 WtCom= 1.00D+00 WtEn= 0.00D+00
 Coeff-Com:  0.618D+00 0.382D+00
 Coeff:      0.618D+00 0.382D+00
 Gap=     0.157 Goal=   None    Shift=    0.000
 RMSDP=2.73D-06 MaxDP=7.28D-05 DE= 9.11D-08 OVMax= 1.54D-04

 Cycle  11  Pass 1  IDiag  1:
 E= -496.626807131355     Delta-E=       -0.000000155374 Rises=F Damp=F
 DIIS: error= 3.24D-06 at cycle   3 NSaved=   3.
 NSaved= 3 IEnMin= 3 EnMin= -496.626807131355     IErMin= 3 ErrMin= 3.24D-06
 ErrMax= 3.24D-06  0.00D+00 EMaxC= 1.00D-01 BMatC= 2.71D-09 BMatP= 6.70D-08
 IDIUse=1 WtCom= 1.00D+00 WtEn= 0.00D+00
 Coeff-Com:  0.302D+00 0.200D+00 0.498D+00
 Coeff:      0.302D+00 0.200D+00 0.498D+00
 Gap=     0.157 Goal=   None    Shift=    0.000
 RMSDP=5.05D-07 MaxDP=1.33D-05 DE=-1.55D-07 OVMax= 2.88D-05

 Cycle  12  Pass 1  IDiag  1:
 E= -496.626807133423     Delta-E=       -0.000000002067 Rises=F Damp=F
 DIIS: error= 1.74D-06 at cycle   4 NSaved=   4.
 NSaved= 4 IEnMin= 4 EnMin= -496.626807133423     IErMin= 4 ErrMin= 1.74D-06
 ErrMax= 1.74D-06  0.00D+00 EMaxC= 1.00D-01 BMatC= 5.11D-10 BMatP= 2.71D-09
 IDIUse=1 WtCom= 1.00D+00 WtEn= 0.00D+00
 Coeff-Com:  0.439D-01 0.321D-01 0.303D+00 0.621D+00
 Coeff:      0.439D-01 0.321D-01 0.303D+00 0.621D+00
 Gap=     0.157 Goal=   None    Shift=    0.000
 RMSDP=2.14D-07 MaxDP=5.76D-06 DE=-2.07D-09 OVMax= 1.05D-05

 Cycle  13  Pass 1  IDiag  1:
 E= -496.626807133799     Delta-E=       -0.000000000376 Rises=F Damp=F
 DIIS: error= 5.98D-07 at cycle   5 NSaved=   5.
 NSaved= 5 IEnMin= 5 EnMin= -496.626807133799     IErMin= 5 ErrMin= 5.98D-07
 ErrMax= 5.98D-07  0.00D+00 EMaxC= 1.00D-01 BMatC= 8.64D-11 BMatP= 5.11D-10
 IDIUse=1 WtCom= 1.00D+00 WtEn= 0.00D+00
 Coeff-Com: -0.456D-02-0.233D-02 0.131D+00 0.388D+00 0.488D+00
 Coeff:     -0.456D-02-0.233D-02 0.131D+00 0.388D+00 0.488D+00
 Gap=     0.157 Goal=   None    Shift=    0.000
 RMSDP=7.97D-08 MaxDP=1.75D-06 DE=-3.76D-10 OVMax= 6.02D-06

 SCF Done:  E(RB3LYP) =  -496.626807134     A.U. after   13 cycles
            NFock= 13  Conv=0.80D-07     -V/T= 2.0083
 KE= 4.925611783961D+02 PE=-2.176149404808D+03 EE= 6.862919099817D+02
 Leave Link  502 at Mon Dec 08 16:24:06 2025, MaxMem=   104857600 cpu:              12.0 elap:              12.0
 (Enter D:\Gaussian\G16W\l601.exe)
 Copying SCF densities to generalized density rwf, IOpCl= 0 IROHF=0.

 **********************************************************************

            Population analysis using the SCF density.

 **********************************************************************

 Orbital symmetries:
       Occupied  (A) (A) (A) (A) (A) (A) (A) (A) (A) (A) (A) (A)
                 (A) (A) (A) (A) (A) (A) (A) (A) (A) (A) (A) (A)
                 (A) (A) (A) (A) (A) (A) (A) (A) (A) (A) (A) (A)
                 (A)
       Virtual   (A) (A) (A) (A) (A) (A) (A) (A) (A) (A) (A) (A)
                 (A) (A) (A) (A) (A) (A) (A) (A) (A) (A) (A) (A)
                 (A) (A) (A) (A) (A) (A) (A) (A) (A) (A) (A) (A)
                 (A) (A) (A) (A) (A) (A) (A) (A) (A) (A) (A) (A)
                 (A) (A) (A) (A) (A) (A) (A) (A) (A) (A) (A) (A)
                 (A) (A) (A) (A) (A) (A) (A) (A) (A) (A) (A) (A)
                 (A) (A) (A) (A) (A) (A) (A) (A) (A) (A) (A) (A)
                 (A) (A) (A) (A) (A) (A) (A) (A) (A) (A) (A) (A)
                 (A) (A) (A) (A) (A) (A) (A) (A) (A) (A) (A) (A)
                 (A) (A) (A) (A) (A) (A) (A) (A) (A) (A) (A) (A)
                 (A) (A) (A) (A) (A) (A) (A)
 The electronic state is 1-A.
 Alpha  occ. eigenvalues --  -19.01883 -18.98028 -18.88395 -10.09551 -10.03258
 Alpha  occ. eigenvalues --  -10.03028 -10.00656  -9.99762  -9.99018  -9.97568
 Alpha  occ. eigenvalues --   -0.89414  -0.87629  -0.78092  -0.64948  -0.58089
 Alpha  occ. eigenvalues --   -0.52884  -0.49143  -0.41491  -0.39317  -0.37652
 Alpha  occ. eigenvalues --   -0.34082  -0.31590  -0.29930  -0.27355  -0.25405
 Alpha  occ. eigenvalues --   -0.22261  -0.21956  -0.20373  -0.20024  -0.17578
 Alpha  occ. eigenvalues --   -0.15536  -0.14561  -0.14401  -0.11494  -0.04393
 Alpha  occ. eigenvalues --   -0.03349   0.02990
 Alpha virt. eigenvalues --    0.18687   0.20640   0.21440   0.25547   0.27822
 Alpha virt. eigenvalues --    0.29650   0.31060   0.31855   0.33563   0.36447
 Alpha virt. eigenvalues --    0.38479   0.41709   0.44207   0.45925   0.50608
 Alpha virt. eigenvalues --    0.54416   0.54801   0.58128   0.63681   0.66939
 Alpha virt. eigenvalues --    0.70471   0.72842   0.73126   0.74758   0.76316
 Alpha virt. eigenvalues --    0.78144   0.79131   0.80069   0.81625   0.83366
 Alpha virt. eigenvalues --    0.85862   0.86123   0.87108   0.90858   0.91981
 Alpha virt. eigenvalues --    0.92151   0.95172   0.96496   0.97096   0.98501
 Alpha virt. eigenvalues --    1.01347   1.03951   1.05803   1.06318   1.09523
 Alpha virt. eigenvalues --    1.12136   1.13209   1.14498   1.15843   1.15895
 Alpha virt. eigenvalues --    1.18844   1.24766   1.25140   1.28293   1.29973
 Alpha virt. eigenvalues --    1.34365   1.35289   1.37992   1.43200   1.43889
 Alpha virt. eigenvalues --    1.45816   1.50986   1.54370   1.56474   1.57632
 Alpha virt. eigenvalues --    1.63771   1.64369   1.64517   1.69277   1.78086
 Alpha virt. eigenvalues --    1.83866   1.86375   1.90434   1.90896   1.91955
 Alpha virt. eigenvalues --    1.94220   1.97778   1.99268   2.03218   2.04759
 Alpha virt. eigenvalues --    2.05882   2.11102   2.11565   2.12531   2.16495
 Alpha virt. eigenvalues --    2.18345   2.21303   2.24627   2.24988   2.28843
 Alpha virt. eigenvalues --    2.29017   2.34401   2.39705   2.44667   2.48511
 Alpha virt. eigenvalues --    2.49500   2.52467   2.55694   2.56518   2.58168
 Alpha virt. eigenvalues --    2.61035   2.65014   2.65593   2.80900   2.82620
 Alpha virt. eigenvalues --    2.83586   2.87646   2.88354   2.92762   3.01226
 Alpha virt. eigenvalues --    3.05090   3.06021   3.12992   3.14342   3.25221
 Alpha virt. eigenvalues --    3.44684   3.59195   3.98723   4.06777   4.28026
 Alpha virt. eigenvalues --    4.28490   4.37121   4.41993   4.49862   4.59922
 Alpha virt. eigenvalues --    4.76218   5.14872
          Condensed to atoms (all electrons):
               1          2          3          4          5          6
     1  C    4.576930   0.394079   0.010210  -0.047508  -0.007763   0.344620
     2  C    0.394079   5.339478   0.482791  -0.038705  -0.042727  -0.046085
     3  C    0.010210   0.482791   4.797586   0.519053  -0.010628  -0.034955
     4  C   -0.047508  -0.038705   0.519053   5.109594   0.492374  -0.017912
     5  C   -0.007763  -0.042727  -0.010628   0.492374   5.045732   0.476549
     6  C    0.344620  -0.046085  -0.034955  -0.017912   0.476549   4.946110
     7  H   -0.044313   0.327873  -0.045364   0.007677  -0.000168   0.007528
     8  H    0.000441   0.006582  -0.062324   0.338241  -0.053675   0.006245
     9  H    0.005564  -0.000048   0.004456  -0.053961   0.320946  -0.036538
    10  O   -0.054527   0.005458   0.000077   0.003795  -0.060491   0.279574
    11  H   -0.011734   0.003261  -0.000270  -0.000093   0.009892  -0.071729
    12  O    0.458357  -0.077474   0.004961   0.000348   0.007783  -0.089863
    13  C    0.005988  -0.058279   0.315685  -0.073628   0.006741  -0.000152
    14  H   -0.000017   0.000357  -0.041367  -0.000817  -0.000084   0.000042
    15  H   -0.000016   0.000422  -0.041681  -0.000789  -0.000083   0.000041
    16  O    0.000363  -0.000546  -0.037065   0.001566  -0.000048  -0.000002
    17  H   -0.000007   0.000306   0.006401  -0.000222   0.000004   0.000001
               7          8          9         10         11         12
     1  C   -0.044313   0.000441   0.005564  -0.054527  -0.011734   0.458357
     2  C    0.327873   0.006582  -0.000048   0.005458   0.003261  -0.077474
     3  C   -0.045364  -0.062324   0.004456   0.000077  -0.000270   0.004961
     4  C    0.007677   0.338241  -0.053961   0.003795  -0.000093   0.000348
     5  C   -0.000168  -0.053675   0.320946  -0.060491   0.009892   0.007783
     6  C    0.007528   0.006245  -0.036538   0.279574  -0.071729  -0.089863
     7  H    0.674011  -0.000210   0.000027  -0.000043  -0.000122   0.002643
     8  H   -0.000210   0.757681  -0.008292  -0.000081   0.000006   0.000001
     9  H    0.000027  -0.008292   0.720353  -0.001057  -0.000812  -0.000094
    10  O   -0.000043  -0.000081  -0.001057   8.343550   0.203096  -0.031989
    11  H   -0.000122   0.000006  -0.000812   0.203096   0.410469   0.080539
    12  O    0.002643   0.000001  -0.000094  -0.031989   0.080539   8.353076
    13  C   -0.018445  -0.013372  -0.000210   0.000000   0.000003  -0.000098
    14  H    0.000464   0.003505   0.000000   0.000000   0.000000   0.000001
    15  H    0.000464   0.003565   0.000000   0.000000   0.000000   0.000001
    16  O    0.010525   0.000095   0.000000   0.000000   0.000000   0.000000
    17  H   -0.000379  -0.000008   0.000000   0.000000   0.000000   0.000000
              13         14         15         16         17
     1  C    0.005988  -0.000017  -0.000016   0.000363  -0.000007
     2  C   -0.058279   0.000357   0.000422  -0.000546   0.000306
     3  C    0.315685  -0.041367  -0.041681  -0.037065   0.006401
     4  C   -0.073628  -0.000817  -0.000789   0.001566  -0.000222
     5  C    0.006741  -0.000084  -0.000083  -0.000048   0.000004
     6  C   -0.000152   0.000042   0.000041  -0.000002   0.000001
     7  H   -0.018445   0.000464   0.000464   0.010525  -0.000379
     8  H   -0.013372   0.003505   0.003565   0.000095  -0.000008
     9  H   -0.000210   0.000000   0.000000   0.000000   0.000000
    10  O    0.000000   0.000000   0.000000   0.000000   0.000000
    11  H    0.000003   0.000000   0.000000   0.000000   0.000000
    12  O   -0.000098   0.000001   0.000001   0.000000   0.000000
    13  C    5.020756   0.341477   0.341708   0.242245  -0.023510
    14  H    0.341477   0.718490  -0.071496  -0.039300  -0.004876
    15  H    0.341708  -0.071496   0.718346  -0.039365  -0.004771
    16  O    0.242245  -0.039300  -0.039365   8.256594   0.221535
    17  H   -0.023510  -0.004876  -0.004771   0.221535   0.438522
 Mulliken charges:
               1
     1  C    0.369333
     2  C   -0.296742
     3  C    0.132433
     4  C   -0.239011
     5  C   -0.184353
     6  C    0.236526
     7  H    0.077832
     8  H    0.021599
     9  H    0.049668
    10  O   -0.687361
    11  H    0.377495
    12  O   -0.708191
    13  C   -0.086910
    14  H    0.093621
    15  H    0.093655
    16  O   -0.616598
    17  H    0.367005
 Sum of Mulliken charges =  -1.00000
 Mulliken charges with hydrogens summed into heavy atoms:
               1
     1  C    0.369333
     2  C   -0.218910
     3  C    0.132433
     4  C   -0.217413
     5  C   -0.134686
     6  C    0.236526
    10  O   -0.309866
    12  O   -0.708191
    13  C    0.100367
    16  O   -0.249593
 Electronic spatial extent (au):  <R**2>=           1594.8655
 Charge=             -1.0000 electrons
 Dipole moment (field-independent basis, Debye):
    X=             -5.4691    Y=              2.7228    Z=              0.0122  Tot=              6.1094
 Quadrupole moment (field-independent basis, Debye-Ang):
   XX=            -66.6914   YY=            -73.1953   ZZ=            -61.9187
   XY=              1.3478   XZ=             -0.0494   YZ=             -0.0097
 Traceless Quadrupole moment (field-independent basis, Debye-Ang):
   XX=              0.5771   YY=             -5.9268   ZZ=              5.3498
   XY=              1.3478   XZ=             -0.0494   YZ=             -0.0097
 Octapole moment (field-independent basis, Debye-Ang**2):
  XXX=            -69.0104  YYY=              7.7202  ZZZ=             -0.0038  XYY=            -12.8163
  XXY=             -4.5878  XXZ=              0.1860  XZZ=              1.0412  YZZ=             -5.7174
  YYZ=              0.0009  XYZ=              0.0468
 Hexadecapole moment (field-independent basis, Debye-Ang**3):
 XXXX=          -1239.5463 YYYY=           -581.0586 ZZZZ=            -66.8188 XXXY=             -9.9107
 XXXZ=             -0.6925 YYYX=             44.8557 YYYZ=             -0.0044 ZZZX=             -0.0003
 ZZZY=              0.0045 XXYY=           -357.0688 XXZZ=           -249.6010 YYZZ=           -105.3189
 XXYZ=             -0.1517 YYXZ=             -0.0337 ZZXY=             -0.9370
 N-N= 5.006695092960D+02 E-N=-2.176149310196D+03  KE= 4.925611783961D+02
 No NMR shielding tensors so no spin-rotation constants.
 Leave Link  601 at Mon Dec 08 16:24:06 2025, MaxMem=   104857600 cpu:               0.0 elap:               0.1
 (Enter D:\Gaussian\G16W\l9999.exe)
 1|1|UNPC-PC-20250526LCFF|SP|RB3LYP|6-31G(d)|C7H7O3(1-)|ADMINISTRATOR|0
 8-Dec-2025|0||#p b3lyp/6-31g(d) out=wfn scf=conver=7||Generated by Mul
 tiwfn (http://sobereva.com/multiwfn)||-1,1|C,0,0.98339904,-0.8879501,0
 .00027196|C,0,-0.45478097,-0.84157109,0.00072096|C,0,-1.11022096,0.360
 99491,0.00053696|C,0,-0.37033095,1.58142991,-0.00014904|C,0,1.01656405
 ,1.6038589,-0.00035004|C,0,1.69933405,0.39337189,-0.00012304|H,0,-0.99
 894397,-1.77584809,0.00119096|H,0,-0.91147494,2.52253791,-0.00048504|H
 ,0,1.56899506,2.53544489,-0.00070904|O,0,3.02752805,0.31205188,-0.0003
 8304|H,0,3.20588803,-0.65382012,-0.00028404|O,0,1.67862503,-1.92952011
 ,0.00026096|C,0,-2.61725096,0.44433192,0.00114196|H,0,-2.93759295,1.01
 159593,0.88879796|H,0,-2.93799895,1.01676392,-0.88306904|O,0,-3.173440
 97,-0.85826707,-0.00252104|H,0,-4.13084897,-0.77759006,0.00340496||Ver
 sion=EM64W-G16RevA.03|State=1-A|HF=-496.6268071|RMSD=7.966e-008|Dipole
 =-2.1517145,1.071239,0.0048154|Quadrupole=0.4290325,-4.4064517,3.97741
 93,1.0020722,-0.0367404,-0.0072297|PG=C01 [X(C7H7O3)]||@

 Writing a WFN file to "N+1.wfn"


 Everywhere is walking distance if you have the time.
                                    -- Steven Wright
 Job cpu time:       0 days  0 hours  0 minutes 14.0 seconds.
 Elapsed time:       0 days  0 hours  0 minutes 14.1 seconds.
 File lengths (MBytes):  RWF=     14 Int=      0 D2E=      0 Chk=      3 Scr=      1
 Normal termination of Gaussian 16 at Mon Dec 08 16:24:06 2025.
