 Entering Link 1 = D:\Gaussian\G16W\l1.exe PID=     28144.
  
 Copyright (c) 1988,1990,1992,1993,1995,1998,2003,2009,2016,
            Gaussian, Inc.  All Rights Reserved.
  
 This is part of the Gaussian(R) 16 program.  It is based on
 the Gaussian(R) 09 system (copyright 2009, Gaussian, Inc.),
 the Gaussian(R) 03 system (copyright 2003, Gaussian, Inc.),
 the Gaussian(R) 98 system (copyright 1998, Gaussian, Inc.),
 the Gaussian(R) 94 system (copyright 1995, Gaussian, Inc.),
 the Gaussian 92(TM) system (copyright 1992, Gaussian, Inc.),
 the Gaussian 90(TM) system (copyright 1990, Gaussian, Inc.),
 the Gaussian 88(TM) system (copyright 1988, Gaussian, Inc.),
 the Gaussian 86(TM) system (copyright 1986, Carnegie Mellon
 University), and the Gaussian 82(TM) system (copyright 1983,
 Carnegie Mellon University). Gaussian is a federally registered
 trademark of Gaussian, Inc.
  
 This software contains proprietary and confidential information,
 including trade secrets, belonging to Gaussian, Inc.
  
 This software is provided under written license and may be
 used, copied, transmitted, or stored only in accord with that
 written license.
  
 The following legend is applicable only to US Government
 contracts under FAR:
  
                    RESTRICTED RIGHTS LEGEND
  
 Use, reproduction and disclosure by the US Government is
 subject to restrictions as set forth in subparagraphs (a)
 and (c) of the Commercial Computer Software - Restricted
 Rights clause in FAR 52.227-19.
  
 Gaussian, Inc.
 340 Quinnipiac St., Bldg. 40, Wallingford CT 06492
  
  
 ---------------------------------------------------------------
 Warning -- This program may not be used in any manner that
 competes with the business of Gaussian, Inc. or will provide
 assistance to any competitor of Gaussian, Inc.  The licensee
 of this program is prohibited from giving any competitor of
 Gaussian, Inc. access to this program.  By using this program,
 the user acknowledges that Gaussian, Inc. is engaged in the
 business of creating and licensing software in the field of
 computational chemistry and represents and warrants to the
 licensee that it is not a competitor of Gaussian, Inc. and that
 it will not use this program in any manner prohibited above.
 ---------------------------------------------------------------
  

 Cite this work as:
 Gaussian 16, Revision A.03,
 M. J. Frisch, G. W. Trucks, H. B. Schlegel, G. E. Scuseria, 
 M. A. Robb, J. R. Cheeseman, G. Scalmani, V. Barone, 
 G. A. Petersson, H. Nakatsuji, X. Li, M. Caricato, A. V. Marenich, 
 J. Bloino, B. G. Janesko, R. Gomperts, B. Mennucci, H. P. Hratchian, 
 J. V. Ortiz, A. F. Izmaylov, J. L. Sonnenberg, D. Williams-Young, 
 F. Ding, F. Lipparini, F. Egidi, J. Goings, B. Peng, A. Petrone, 
 T. Henderson, D. Ranasinghe, V. G. Zakrzewski, J. Gao, N. Rega, 
 G. Zheng, W. Liang, M. Hada, M. Ehara, K. Toyota, R. Fukuda, 
 J. Hasegawa, M. Ishida, T. Nakajima, Y. Honda, O. Kitao, H. Nakai, 
 T. Vreven, K. Throssell, J. A. Montgomery, Jr., J. E. Peralta, 
 F. Ogliaro, M. J. Bearpark, J. J. Heyd, E. N. Brothers, K. N. Kudin, 
 V. N. Staroverov, T. A. Keith, R. Kobayashi, J. Normand, 
 K. Raghavachari, A. P. Rendell, J. C. Burant, S. S. Iyengar, 
 J. Tomasi, M. Cossi, J. M. Millam, M. Klene, C. Adamo, R. Cammi, 
 J. W. Ochterski, R. L. Martin, K. Morokuma, O. Farkas, 
 J. B. Foresman, and D. J. Fox, Gaussian, Inc., Wallingford CT, 2016.
 
 ******************************************
 Gaussian 16:  EM64W-G16RevA.03 17-Dec-2016
                08-Dec-2025 
 ******************************************
 %nprocs=   4
 Will use up to    4 processors via shared memory.
 ------------------------------------
 #P B3LYP/6-31G* SCF=conver=7 out=wfn
 ------------------------------------
 1/38=1,172=1/1;
 2/12=2,17=6,18=5,40=1/2;
 3/5=1,6=6,7=1,11=2,25=1,30=1,74=-5/1,2,3;
 4//1;
 5/5=2,6=7,38=5/2;
 6/7=2,8=2,9=2,10=2,28=1/1;
 99/5=1,6=100,9=1/99;
 Leave Link    1 at Mon Dec 08 16:24:35 2025, MaxMem=           0 cpu:               0.0 elap:               0.1
 (Enter D:\Gaussian\G16W\l101.exe)
 ----------------------------------------------------
 Generated by Multiwfn (http://sobereva.com/multiwfn)
 ----------------------------------------------------
 Symbolic Z-matrix:
 Charge =  1 Multiplicity = 1
 C                     0.9834   -0.88795   0.00027 
 C                    -0.45478  -0.84157   0.00072 
 C                    -1.11022   0.36099   0.00054 
 C                    -0.37033   1.58143  -0.00015 
 C                     1.01656   1.60386  -0.00035 
 C                     1.69933   0.39337  -0.00012 
 H                    -0.99894  -1.77585   0.00119 
 H                    -0.91147   2.52254  -0.00049 
 H                     1.569     2.53544  -0.00071 
 O                     3.02753   0.31205  -0.00038 
 H                     3.20589  -0.65382  -0.00028 
 O                     1.67863  -1.92952   0.00026 
 C                    -2.61725   0.44433   0.00114 
 H                    -2.93759   1.0116    0.8888 
 H                    -2.938     1.01676  -0.88307 
 O                    -3.17344  -0.85827  -0.00252 
 H                    -4.13085  -0.77759   0.0034 
 
 ITRead=  0  0  0  0  0  0  0  0  0  0  0  0  0  0  0  0  0
 MicOpt= -1 -1 -1 -1 -1 -1 -1 -1 -1 -1 -1 -1 -1 -1 -1 -1 -1
 NAtoms=     17 NQM=       17 NQMF=       0 NMMI=      0 NMMIF=      0
                NMic=       0 NMicF=      0.
                    Isotopes and Nuclear Properties:
 (Nuclear quadrupole moments (NQMom) in fm**2, nuclear magnetic moments (NMagM)
  in nuclear magnetons)

  Atom         1           2           3           4           5           6           7           8           9          10
 IAtWgt=          12          12          12          12          12          12           1           1           1          16
 AtmWgt=  12.0000000  12.0000000  12.0000000  12.0000000  12.0000000  12.0000000   1.0078250   1.0078250   1.0078250  15.9949146
 NucSpn=           0           0           0           0           0           0           1           1           1           0
 AtZEff=   0.0000000   0.0000000   0.0000000   0.0000000   0.0000000   0.0000000   0.0000000   0.0000000   0.0000000   0.0000000
 NQMom=    0.0000000   0.0000000   0.0000000   0.0000000   0.0000000   0.0000000   0.0000000   0.0000000   0.0000000   0.0000000
 NMagM=    0.0000000   0.0000000   0.0000000   0.0000000   0.0000000   0.0000000   2.7928460   2.7928460   2.7928460   0.0000000
 AtZNuc=   6.0000000   6.0000000   6.0000000   6.0000000   6.0000000   6.0000000   1.0000000   1.0000000   1.0000000   8.0000000

  Atom        11          12          13          14          15          16          17
 IAtWgt=           1          16          12           1           1          16           1
 AtmWgt=   1.0078250  15.9949146  12.0000000   1.0078250   1.0078250  15.9949146   1.0078250
 NucSpn=           1           0           0           1           1           0           1
 AtZEff=   0.0000000   0.0000000   0.0000000   0.0000000   0.0000000   0.0000000   0.0000000
 NQMom=    0.0000000   0.0000000   0.0000000   0.0000000   0.0000000   0.0000000   0.0000000
 NMagM=    2.7928460   0.0000000   0.0000000   2.7928460   2.7928460   0.0000000   2.7928460
 AtZNuc=   1.0000000   8.0000000   6.0000000   1.0000000   1.0000000   8.0000000   1.0000000
 Leave Link  101 at Mon Dec 08 16:24:35 2025, MaxMem=   104857600 cpu:               0.0 elap:               0.1
 (Enter D:\Gaussian\G16W\l202.exe)
                          Input orientation:                          
 ---------------------------------------------------------------------
 Center     Atomic      Atomic             Coordinates (Angstroms)
 Number     Number       Type             X           Y           Z
 ---------------------------------------------------------------------
      1          6           0        0.983399   -0.887950    0.000272
      2          6           0       -0.454781   -0.841571    0.000721
      3          6           0       -1.110221    0.360995    0.000537
      4          6           0       -0.370331    1.581430   -0.000149
      5          6           0        1.016564    1.603859   -0.000350
      6          6           0        1.699334    0.393372   -0.000123
      7          1           0       -0.998944   -1.775848    0.001191
      8          1           0       -0.911475    2.522538   -0.000485
      9          1           0        1.568995    2.535445   -0.000709
     10          8           0        3.027528    0.312052   -0.000383
     11          1           0        3.205888   -0.653820   -0.000284
     12          8           0        1.678625   -1.929520    0.000261
     13          6           0       -2.617251    0.444332    0.001142
     14          1           0       -2.937593    1.011596    0.888798
     15          1           0       -2.937999    1.016764   -0.883069
     16          8           0       -3.173441   -0.858267   -0.002521
     17          1           0       -4.130849   -0.777590    0.003405
 ---------------------------------------------------------------------
                    Distance matrix (angstroms):
                    1          2          3          4          5
     1  C    0.000000
     2  C    1.438928   0.000000
     3  C    2.437849   1.369586   0.000000
     4  C    2.816101   2.424472   1.427200   0.000000
     5  C    2.492030   2.853942   2.463316   1.387076   0.000000
     6  C    1.467770   2.483001   2.809742   2.386419   1.389768
     7  H    2.172107   1.081197   2.139739   3.415622   3.935060
     8  H    3.901535   3.394967   2.170661   1.085597   2.135721
     9  H    3.473119   3.936992   3.450570   2.161280   1.083066
    10  O    2.370331   3.668422   4.138039   3.627226   2.390134
    11  H    2.234787   3.665481   4.433807   4.217308   3.144877
    12  O    1.252281   2.394797   3.608895   4.065094   3.594870
    13  C    3.839226   2.515914   1.509333   2.518262   3.814330
    14  H    4.446564   3.222928   2.133443   2.775927   4.095939
    15  H    4.448099   3.225037   2.133440   2.773322   4.094196
    16  O    4.156947   2.718713   2.396557   3.716121   4.859857
    17  H    5.115440   3.676626   3.228092   4.439199   5.671611
                    6          7          8          9         10
     6  C    0.000000
     7  H    3.462112   0.000000
     8  H    3.368927   4.299276   0.000000
     9  H    2.146035   5.018123   2.480504   0.000000
    10  O    1.330681   4.535615   4.516857   2.659097   0.000000
    11  H    1.834752   4.351961   5.200185   3.584805   0.982202
    12  O    2.322984   2.681975   5.150674   4.466311   2.616139
    13  C    4.316886   2.747384   2.688608   4.679467   5.646329
    14  H    4.761667   3.509423   2.679351   4.839698   6.071464
    15  H    4.761625   3.512909   2.674530   4.837142   6.071513
    16  O    5.030958   2.360171   4.067719   5.831636   6.310441
    17  H    5.946612   3.287150   4.610339   6.592757   7.240835
                   11         12         13         14         15
    11  H    0.000000
    12  O    1.989961   0.000000
    13  C    5.925782   4.908128   0.000000
    14  H    6.427008   5.545190   1.101063   0.000000
    15  H    6.427870   5.547439   1.101084   1.771875   0.000000
    16  O    6.382605   4.968917   1.416377   2.084817   2.084835
    17  H    7.337782   5.922579   1.945271   2.325719   2.329900
                   16         17
    16  O    0.000000
    17  H    0.960819   0.000000
 Stoichiometry    C7H7O3(1+)
 Framework group  C1[X(C7H7O3)]
 Deg. of freedom    45
 Full point group                 C1      NOp   1
 Largest Abelian subgroup         C1      NOp   1
 Largest concise Abelian subgroup C1      NOp   1
                         Standard orientation:                         
 ---------------------------------------------------------------------
 Center     Atomic      Atomic             Coordinates (Angstroms)
 Number     Number       Type             X           Y           Z
 ---------------------------------------------------------------------
      1          6           0        0.983399   -0.887950    0.000272
      2          6           0       -0.454781   -0.841571    0.000721
      3          6           0       -1.110221    0.360995    0.000537
      4          6           0       -0.370331    1.581430   -0.000149
      5          6           0        1.016564    1.603859   -0.000350
      6          6           0        1.699334    0.393372   -0.000123
      7          1           0       -0.998944   -1.775848    0.001191
      8          1           0       -0.911475    2.522538   -0.000485
      9          1           0        1.568995    2.535445   -0.000709
     10          8           0        3.027528    0.312052   -0.000383
     11          1           0        3.205888   -0.653820   -0.000284
     12          8           0        1.678625   -1.929520    0.000261
     13          6           0       -2.617251    0.444332    0.001142
     14          1           0       -2.937593    1.011596    0.888798
     15          1           0       -2.937999    1.016764   -0.883069
     16          8           0       -3.173441   -0.858267   -0.002521
     17          1           0       -4.130849   -0.777590    0.003405
 ---------------------------------------------------------------------
 Rotational constants (GHZ):           2.8364562           0.8975893           0.6847503
 Leave Link  202 at Mon Dec 08 16:24:35 2025, MaxMem=   104857600 cpu:               0.0 elap:               0.0
 (Enter D:\Gaussian\G16W\l301.exe)
 Standard basis: 6-31G(d) (6D, 7F)
 Ernie: Thresh=  0.10000D-02 Tol=  0.10000D-05 Strict=F.
 There are   164 symmetry adapted cartesian basis functions of A   symmetry.
 There are   164 symmetry adapted basis functions of A   symmetry.
   164 basis functions,   308 primitive gaussians,   164 cartesian basis functions
    36 alpha electrons       36 beta electrons
       nuclear repulsion energy       500.6695092960 Hartrees.
 IExCor=  402 DFT=T Ex+Corr=B3LYP ExCW=0 ScaHFX=  0.200000
 ScaDFX=  0.800000  0.720000  1.000000  0.810000 ScalE2=  1.000000  1.000000
 IRadAn=      5 IRanWt=     -1 IRanGd=            0 ICorTp=0 IEmpDi=  4
 NAtoms=   17 NActive=   17 NUniq=   17 SFac= 1.00D+00 NAtFMM=   60 NAOKFM=F Big=F
 Integral buffers will be    131072 words long.
 Raffenetti 2 integral format.
 Two-electron integral symmetry is turned on.
 Leave Link  301 at Mon Dec 08 16:24:35 2025, MaxMem=   104857600 cpu:               0.0 elap:               0.1
 (Enter D:\Gaussian\G16W\l302.exe)
 NPDir=0 NMtPBC=     1 NCelOv=     1 NCel=       1 NClECP=     1 NCelD=      1
         NCelK=      1 NCelE2=     1 NClLst=     1 CellRange=     0.0.
 One-electron integrals computed using PRISM.
 One-electron integral symmetry used in STVInt
 NBasis=   164 RedAO= T EigKep=  4.44D-04  NBF=   164
 NBsUse=   164 1.00D-06 EigRej= -1.00D+00 NBFU=   164
 Precomputing XC quadrature grid using
 IXCGrd= 4 IRadAn=           5 IRanWt=          -1 IRanGd=           0 AccXCQ= 0.00D+00.
 Generated NRdTot=       0 NPtTot=           0 NUsed=           0 NTot=          32
 NSgBfM=   163   163   163   163   163 MxSgAt=    17 MxSgA2=    17.
 Leave Link  302 at Mon Dec 08 16:24:36 2025, MaxMem=   104857600 cpu:               1.0 elap:               0.3
 (Enter D:\Gaussian\G16W\l303.exe)
 DipDrv:  MaxL=1.
 Leave Link  303 at Mon Dec 08 16:24:36 2025, MaxMem=   104857600 cpu:               0.0 elap:               0.1
 (Enter D:\Gaussian\G16W\l401.exe)
 ExpMin= 1.61D-01 ExpMax= 5.48D+03 ExpMxC= 8.25D+02 IAcc=3 IRadAn=         5 AccDes= 0.00D+00
 Harris functional with IExCor=  402 and IRadAn=       5 diagonalized for initial guess.
 HarFok:  IExCor=  402 AccDes= 0.00D+00 IRadAn=         5 IDoV= 1 UseB2=F ITyADJ=14
 ICtDFT=  3500011 ScaDFX=  1.000000  1.000000  1.000000  1.000000
 FoFCou: FMM=F IPFlag=           0 FMFlag=      100000 FMFlg1=           0
         NFxFlg=           0 DoJE=T BraDBF=F KetDBF=T FulRan=T
         wScrn=  0.000000 ICntrl=       500 IOpCl=  0 I1Cent=   200000004 NGrid=           0
         NMat0=    1 NMatS0=      1 NMatT0=    0 NMatD0=    1 NMtDS0=    0 NMtDT0=    0
 Petite list used in FoFCou.
 Harris En= -496.325649903883    
 JPrj=0 DoOrth=F DoCkMO=F.
 Leave Link  401 at Mon Dec 08 16:24:37 2025, MaxMem=   104857600 cpu:               1.0 elap:               1.0
 (Enter D:\Gaussian\G16W\l502.exe)
 Keep R1 ints in memory in canonical form, NReq=95505454.
 FoFCou: FMM=F IPFlag=           0 FMFlag=           0 FMFlg1=           0
         NFxFlg=           0 DoJE=F BraDBF=F KetDBF=F FulRan=T
         wScrn=  0.000000 ICntrl=       600 IOpCl=  0 I1Cent=           0 NGrid=           0
         NMat0=    1 NMatS0=  13530 NMatT0=    0 NMatD0=    1 NMtDS0=    0 NMtDT0=    0
 Symmetry not used in FoFCou.
 Two-electron integral symmetry not used.
 Closed shell SCF:
 Using DIIS extrapolation, IDIIS=  1040.
 NGot=   104857600 LenX=    13263708 LenY=    13236371
 Requested convergence on RMS density matrix=1.00D-07 within 128 cycles.
 Requested convergence on MAX density matrix=1.00D-05.
 Requested convergence on             energy=1.00D-05.
 No special actions if energy rises.
 Integral accuracy reduced to 1.0D-05 until final iterations.

 Cycle   1  Pass 0  IDiag  1:
 E= -496.123067967638    
 DIIS: error= 2.70D-02 at cycle   1 NSaved=   1.
 NSaved= 1 IEnMin= 1 EnMin= -496.123067967638     IErMin= 1 ErrMin= 2.70D-02
 ErrMax= 2.70D-02  0.00D+00 EMaxC= 1.00D-01 BMatC= 2.04D-01 BMatP= 2.04D-01
 IDIUse=3 WtCom= 7.30D-01 WtEn= 2.70D-01
 Coeff-Com:  0.100D+01
 Coeff-En:   0.100D+01
 Coeff:      0.100D+01
 Gap=     0.050 Goal=   None    Shift=    0.000
 GapD=    0.050 DampG=0.500 DampE=0.500 DampFc=0.2500 IDamp=-1.
 Damping current iteration by 2.50D-01
 RMSDP=8.95D-03 MaxDP=4.46D-01              OVMax= 8.27D-01

 Cycle   2  Pass 0  IDiag  1:
 E= -496.106754830266     Delta-E=        0.016313137372 Rises=F Damp=T
 DIIS: error= 1.65D-02 at cycle   2 NSaved=   2.
 NSaved= 2 IEnMin= 1 EnMin= -496.123067967638     IErMin= 2 ErrMin= 1.65D-02
 ErrMax= 1.65D-02  0.00D+00 EMaxC= 1.00D-01 BMatC= 5.42D-02 BMatP= 2.04D-01
 IDIUse=3 WtCom= 8.35D-01 WtEn= 1.65D-01
 Coeff-Com: -0.254D-01 0.103D+01
 Coeff-En:   0.558D+00 0.442D+00
 Coeff:      0.706D-01 0.929D+00
 Gap=    -0.242 Goal=   None    Shift=    0.000
 RMSDP=3.68D-03 MaxDP=1.11D-01 DE= 1.63D-02 OVMax= 8.40D-01

 Cycle   3  Pass 0  IDiag  1:
 E= -496.158628403916     Delta-E=       -0.051873573649 Rises=F Damp=F
 DIIS: error= 2.59D-02 at cycle   3 NSaved=   3.
 NSaved= 3 IEnMin= 3 EnMin= -496.158628403916     IErMin= 2 ErrMin= 1.65D-02
 ErrMax= 2.59D-02  0.00D+00 EMaxC= 1.00D-01 BMatC= 1.48D-01 BMatP= 5.42D-02
 IDIUse=2 WtCom= 0.00D+00 WtEn= 1.00D+00
 EnCoef did     3 forward-backward iterations
 Coeff-En:   0.166D+00 0.300D+00 0.534D+00
 Coeff:      0.166D+00 0.300D+00 0.534D+00
 Gap=     0.143 Goal=   None    Shift=    0.000
 RMSDP=6.66D-03 MaxDP=3.53D-01 DE=-5.19D-02 OVMax= 8.62D-01

 Cycle   4  Pass 0  IDiag  1:
 E= -495.347181191739     Delta-E=        0.811447212176 Rises=F Damp=F
 DIIS: error= 1.10D-01 at cycle   4 NSaved=   4.
 NSaved= 4 IEnMin= 3 EnMin= -496.158628403916     IErMin= 2 ErrMin= 1.65D-02
 ErrMax= 1.10D-01  0.00D+00 EMaxC= 1.00D-01 BMatC= 7.22D-01 BMatP= 5.42D-02
 IDIUse=2 WtCom= 0.00D+00 WtEn= 1.00D+00
 EnCoef did     3 forward-backward iterations
 Coeff-En:   0.222D+00 0.000D+00 0.611D+00 0.167D+00
 Coeff:      0.222D+00 0.000D+00 0.611D+00 0.167D+00
 Gap=    -0.013 Goal=   None    Shift=    0.000
 RMSDP=5.05D-03 MaxDP=2.84D-01 DE= 8.11D-01 OVMax= 7.76D-01

 Cycle   5  Pass 0  IDiag  1:
 E= -496.280655159152     Delta-E=       -0.933473967413 Rises=F Damp=F
 DIIS: error= 1.04D-02 at cycle   5 NSaved=   5.
 NSaved= 5 IEnMin= 5 EnMin= -496.280655159152     IErMin= 5 ErrMin= 1.04D-02
 ErrMax= 1.04D-02  0.00D+00 EMaxC= 1.00D-01 BMatC= 2.04D-02 BMatP= 5.42D-02
 IDIUse=3 WtCom= 8.96D-01 WtEn= 1.04D-01
 Coeff-Com: -0.886D-01 0.300D+00 0.259D+00-0.164D-01 0.546D+00
 Coeff-En:   0.000D+00 0.000D+00 0.678D-01 0.000D+00 0.932D+00
 Coeff:     -0.794D-01 0.269D+00 0.239D+00-0.147D-01 0.586D+00
 Gap=     0.092 Goal=   None    Shift=    0.000
 RMSDP=1.11D-03 MaxDP=4.10D-02 DE=-9.33D-01 OVMax= 7.26D-02

 Cycle   6  Pass 0  IDiag  1:
 E= -496.289793242481     Delta-E=       -0.009138083329 Rises=F Damp=F
 DIIS: error= 5.61D-03 at cycle   6 NSaved=   6.
 NSaved= 6 IEnMin= 6 EnMin= -496.289793242481     IErMin= 6 ErrMin= 5.61D-03
 ErrMax= 5.61D-03  0.00D+00 EMaxC= 1.00D-01 BMatC= 6.53D-03 BMatP= 2.04D-02
 IDIUse=3 WtCom= 9.44D-01 WtEn= 5.61D-02
 Coeff-Com: -0.727D-01 0.135D+00 0.663D-01-0.789D-02 0.377D+00 0.502D+00
 Coeff-En:   0.000D+00 0.000D+00 0.000D+00 0.000D+00 0.330D+00 0.670D+00
 Coeff:     -0.686D-01 0.128D+00 0.626D-01-0.744D-02 0.374D+00 0.512D+00
 Gap=     0.079 Goal=   None    Shift=    0.000
 RMSDP=5.45D-04 MaxDP=1.46D-02 DE=-9.14D-03 OVMax= 4.42D-02

 Cycle   7  Pass 0  IDiag  1:
 E= -496.295808132326     Delta-E=       -0.006014889845 Rises=F Damp=F
 DIIS: error= 1.81D-03 at cycle   7 NSaved=   7.
 NSaved= 7 IEnMin= 7 EnMin= -496.295808132326     IErMin= 7 ErrMin= 1.81D-03
 ErrMax= 1.81D-03  0.00D+00 EMaxC= 1.00D-01 BMatC= 8.29D-04 BMatP= 6.53D-03
 IDIUse=3 WtCom= 9.82D-01 WtEn= 1.81D-02
 Coeff-Com: -0.481D-01 0.617D-01-0.989D-02-0.142D-03 0.163D+00 0.369D+00
 Coeff-Com:  0.465D+00
 Coeff-En:   0.000D+00 0.000D+00 0.000D+00 0.000D+00 0.000D+00 0.000D+00
 Coeff-En:   0.100D+01
 Coeff:     -0.472D-01 0.606D-01-0.971D-02-0.139D-03 0.160D+00 0.363D+00
 Coeff:      0.474D+00
 Gap=     0.077 Goal=   None    Shift=    0.000
 RMSDP=1.68D-04 MaxDP=4.72D-03 DE=-6.01D-03 OVMax= 1.18D-02

 Cycle   8  Pass 0  IDiag  1:
 E= -496.296449221186     Delta-E=       -0.000641088860 Rises=F Damp=F
 DIIS: error= 7.25D-04 at cycle   8 NSaved=   8.
 NSaved= 8 IEnMin= 8 EnMin= -496.296449221186     IErMin= 8 ErrMin= 7.25D-04
 ErrMax= 7.25D-04  0.00D+00 EMaxC= 1.00D-01 BMatC= 1.38D-04 BMatP= 8.29D-04
 IDIUse=3 WtCom= 9.93D-01 WtEn= 7.25D-03
 Coeff-Com: -0.271D-01 0.337D-01-0.222D-01 0.121D-02 0.176D-01 0.118D+00
 Coeff-Com:  0.249D+00 0.630D+00
 Coeff-En:   0.000D+00 0.000D+00 0.000D+00 0.000D+00 0.000D+00 0.000D+00
 Coeff-En:   0.000D+00 0.100D+01
 Coeff:     -0.269D-01 0.334D-01-0.221D-01 0.120D-02 0.175D-01 0.117D+00
 Coeff:      0.247D+00 0.633D+00
 Gap=     0.076 Goal=   None    Shift=    0.000
 RMSDP=6.13D-05 MaxDP=1.95D-03 DE=-6.41D-04 OVMax= 4.70D-03

 Cycle   9  Pass 0  IDiag  1:
 E= -496.296552974435     Delta-E=       -0.000103753250 Rises=F Damp=F
 DIIS: error= 5.17D-04 at cycle   9 NSaved=   9.
 NSaved= 9 IEnMin= 9 EnMin= -496.296552974435     IErMin= 9 ErrMin= 5.17D-04
 ErrMax= 5.17D-04  0.00D+00 EMaxC= 1.00D-01 BMatC= 5.27D-05 BMatP= 1.38D-04
 IDIUse=3 WtCom= 9.95D-01 WtEn= 5.17D-03
 Coeff-Com: -0.137D-01 0.164D-01-0.152D-01 0.161D-02-0.795D-02 0.195D-01
 Coeff-Com:  0.615D-01 0.388D+00 0.550D+00
 Coeff-En:   0.000D+00 0.000D+00 0.000D+00 0.000D+00 0.000D+00 0.000D+00
 Coeff-En:   0.000D+00 0.000D+00 0.100D+01
 Coeff:     -0.137D-01 0.163D-01-0.152D-01 0.160D-02-0.791D-02 0.194D-01
 Coeff:      0.612D-01 0.386D+00 0.552D+00
 Gap=     0.075 Goal=   None    Shift=    0.000
 RMSDP=3.73D-05 MaxDP=7.23D-04 DE=-1.04D-04 OVMax= 2.74D-03

 Cycle  10  Pass 0  IDiag  1:
 E= -496.296598849690     Delta-E=       -0.000045875255 Rises=F Damp=F
 DIIS: error= 3.25D-04 at cycle  10 NSaved=  10.
 NSaved=10 IEnMin=10 EnMin= -496.296598849690     IErMin=10 ErrMin= 3.25D-04
 ErrMax= 3.25D-04  0.00D+00 EMaxC= 1.00D-01 BMatC= 1.31D-05 BMatP= 5.27D-05
 IDIUse=3 WtCom= 9.97D-01 WtEn= 3.25D-03
 Coeff-Com: -0.179D-02 0.244D-02-0.341D-02 0.759D-03-0.873D-02-0.327D-01
 Coeff-Com: -0.700D-01 0.206D-01 0.289D+00 0.804D+00
 Coeff-En:   0.000D+00 0.000D+00 0.000D+00 0.000D+00 0.000D+00 0.000D+00
 Coeff-En:   0.000D+00 0.000D+00 0.000D+00 0.100D+01
 Coeff:     -0.178D-02 0.243D-02-0.340D-02 0.757D-03-0.870D-02-0.326D-01
 Coeff:     -0.698D-01 0.205D-01 0.288D+00 0.805D+00
 Gap=     0.074 Goal=   None    Shift=    0.000
 RMSDP=3.24D-05 MaxDP=7.87D-04 DE=-4.59D-05 OVMax= 3.32D-03

 Cycle  11  Pass 0  IDiag  1:
 E= -496.296614050444     Delta-E=       -0.000015200754 Rises=F Damp=F
 DIIS: error= 3.65D-05 at cycle  11 NSaved=  11.
 NSaved=11 IEnMin=11 EnMin= -496.296614050444     IErMin=11 ErrMin= 3.65D-05
 ErrMax= 3.65D-05  0.00D+00 EMaxC= 1.00D-01 BMatC= 2.94D-07 BMatP= 1.31D-05
 IDIUse=1 WtCom= 1.00D+00 WtEn= 0.00D+00
 Coeff-Com:  0.401D-03-0.196D-03 0.444D-03 0.200D-03-0.162D-02-0.164D-01
 Coeff-Com: -0.412D-01-0.296D-01 0.644D-01 0.351D+00 0.672D+00
 Coeff:      0.401D-03-0.196D-03 0.444D-03 0.200D-03-0.162D-02-0.164D-01
 Coeff:     -0.412D-01-0.296D-01 0.644D-01 0.351D+00 0.672D+00
 Gap=     0.074 Goal=   None    Shift=    0.000
 RMSDP=7.92D-06 MaxDP=2.00D-04 DE=-1.52D-05 OVMax= 9.73D-04

 Initial convergence to 1.0D-05 achieved.  Increase integral accuracy.
 Cycle  12  Pass 1  IDiag  1:
 E= -496.296605777690     Delta-E=        0.000008272754 Rises=F Damp=F
 DIIS: error= 2.07D-05 at cycle   1 NSaved=   1.
 NSaved= 1 IEnMin= 1 EnMin= -496.296605777690     IErMin= 1 ErrMin= 2.07D-05
 ErrMax= 2.07D-05  0.00D+00 EMaxC= 1.00D-01 BMatC= 1.03D-07 BMatP= 1.03D-07
 IDIUse=1 WtCom= 1.00D+00 WtEn= 0.00D+00
 Coeff-Com:  0.100D+01
 Coeff:      0.100D+01
 Gap=     0.074 Goal=   None    Shift=    0.000
 RMSDP=7.92D-06 MaxDP=2.00D-04 DE= 8.27D-06 OVMax= 4.61D-04

 Cycle  13  Pass 1  IDiag  1:
 E= -496.296605500226     Delta-E=        0.000000277464 Rises=F Damp=F
 DIIS: error= 4.17D-05 at cycle   2 NSaved=   2.
 NSaved= 2 IEnMin= 1 EnMin= -496.296605777690     IErMin= 1 ErrMin= 2.07D-05
 ErrMax= 4.17D-05  0.00D+00 EMaxC= 1.00D-01 BMatC= 3.60D-07 BMatP= 1.03D-07
 IDIUse=1 WtCom= 1.00D+00 WtEn= 0.00D+00
 Coeff-Com:  0.657D+00 0.343D+00
 Coeff:      0.657D+00 0.343D+00
 Gap=     0.074 Goal=   None    Shift=    0.000
 RMSDP=4.46D-06 MaxDP=9.79D-05 DE= 2.77D-07 OVMax= 4.47D-04

 Cycle  14  Pass 1  IDiag  1:
 E= -496.296605888017     Delta-E=       -0.000000387791 Rises=F Damp=F
 DIIS: error= 7.81D-06 at cycle   3 NSaved=   3.
 NSaved= 3 IEnMin= 3 EnMin= -496.296605888017     IErMin= 3 ErrMin= 7.81D-06
 ErrMax= 7.81D-06  0.00D+00 EMaxC= 1.00D-01 BMatC= 1.10D-08 BMatP= 1.03D-07
 IDIUse=1 WtCom= 1.00D+00 WtEn= 0.00D+00
 Coeff-Com:  0.353D+00 0.214D+00 0.433D+00
 Coeff:      0.353D+00 0.214D+00 0.433D+00
 Gap=     0.074 Goal=   None    Shift=    0.000
 RMSDP=8.79D-07 MaxDP=3.35D-05 DE=-3.88D-07 OVMax= 6.61D-05

 Cycle  15  Pass 1  IDiag  1:
 E= -496.296605897494     Delta-E=       -0.000000009477 Rises=F Damp=F
 DIIS: error= 4.82D-06 at cycle   4 NSaved=   4.
 NSaved= 4 IEnMin= 4 EnMin= -496.296605897494     IErMin= 4 ErrMin= 4.82D-06
 ErrMax= 4.82D-06  0.00D+00 EMaxC= 1.00D-01 BMatC= 2.91D-09 BMatP= 1.10D-08
 IDIUse=1 WtCom= 1.00D+00 WtEn= 0.00D+00
 Coeff-Com:  0.923D-01 0.795D-01 0.336D+00 0.493D+00
 Coeff:      0.923D-01 0.795D-01 0.336D+00 0.493D+00
 Gap=     0.074 Goal=   None    Shift=    0.000
 RMSDP=3.73D-07 MaxDP=1.68D-05 DE=-9.48D-09 OVMax= 2.69D-05

 Cycle  16  Pass 1  IDiag  1:
 E= -496.296605899763     Delta-E=       -0.000000002270 Rises=F Damp=F
 DIIS: error= 1.47D-06 at cycle   5 NSaved=   5.
 NSaved= 5 IEnMin= 5 EnMin= -496.296605899763     IErMin= 5 ErrMin= 1.47D-06
 ErrMax= 1.47D-06  0.00D+00 EMaxC= 1.00D-01 BMatC= 4.40D-10 BMatP= 2.91D-09
 IDIUse=1 WtCom= 1.00D+00 WtEn= 0.00D+00
 Coeff-Com: -0.139D-01 0.154D-01 0.155D+00 0.332D+00 0.512D+00
 Coeff:     -0.139D-01 0.154D-01 0.155D+00 0.332D+00 0.512D+00
 Gap=     0.074 Goal=   None    Shift=    0.000
 RMSDP=1.45D-07 MaxDP=4.08D-06 DE=-2.27D-09 OVMax= 6.50D-06

 Cycle  17  Pass 1  IDiag  1:
 E= -496.296605900105     Delta-E=       -0.000000000342 Rises=F Damp=F
 DIIS: error= 6.31D-07 at cycle   6 NSaved=   6.
 NSaved= 6 IEnMin= 6 EnMin= -496.296605900105     IErMin= 6 ErrMin= 6.31D-07
 ErrMax= 6.31D-07  0.00D+00 EMaxC= 1.00D-01 BMatC= 5.62D-11 BMatP= 4.40D-10
 IDIUse=1 WtCom= 1.00D+00 WtEn= 0.00D+00
 Coeff-Com: -0.199D-01 0.314D-02 0.565D-01 0.143D+00 0.297D+00 0.519D+00
 Coeff:     -0.199D-01 0.314D-02 0.565D-01 0.143D+00 0.297D+00 0.519D+00
 Gap=     0.074 Goal=   None    Shift=    0.000
 RMSDP=5.87D-08 MaxDP=1.34D-06 DE=-3.42D-10 OVMax= 3.95D-06

 SCF Done:  E(RB3LYP) =  -496.296605900     A.U. after   17 cycles
            NFock= 17  Conv=0.59D-07     -V/T= 2.0091
 KE= 4.918237557028D+02 PE=-2.146065263027D+03 EE= 6.572753921286D+02
 Leave Link  502 at Mon Dec 08 16:24:52 2025, MaxMem=   104857600 cpu:              15.0 elap:              15.3
 (Enter D:\Gaussian\G16W\l601.exe)
 Copying SCF densities to generalized density rwf, IOpCl= 0 IROHF=0.

 **********************************************************************

            Population analysis using the SCF density.

 **********************************************************************

 Orbital symmetries:
       Occupied  (A) (A) (A) (A) (A) (A) (A) (A) (A) (A) (A) (A)
                 (A) (A) (A) (A) (A) (A) (A) (A) (A) (A) (A) (A)
                 (A) (A) (A) (A) (A) (A) (A) (A) (A) (A) (A) (A)
       Virtual   (A) (A) (A) (A) (A) (A) (A) (A) (A) (A) (A) (A)
                 (A) (A) (A) (A) (A) (A) (A) (A) (A) (A) (A) (A)
                 (A) (A) (A) (A) (A) (A) (A) (A) (A) (A) (A) (A)
                 (A) (A) (A) (A) (A) (A) (A) (A) (A) (A) (A) (A)
                 (A) (A) (A) (A) (A) (A) (A) (A) (A) (A) (A) (A)
                 (A) (A) (A) (A) (A) (A) (A) (A) (A) (A) (A) (A)
                 (A) (A) (A) (A) (A) (A) (A) (A) (A) (A) (A) (A)
                 (A) (A) (A) (A) (A) (A) (A) (A) (A) (A) (A) (A)
                 (A) (A) (A) (A) (A) (A) (A) (A) (A) (A) (A) (A)
                 (A) (A) (A) (A) (A) (A) (A) (A) (A) (A) (A) (A)
                 (A) (A) (A) (A) (A) (A) (A) (A)
 The electronic state is 1-A.
 Alpha  occ. eigenvalues --  -19.42963 -19.37929 -19.31365 -10.51276 -10.49197
 Alpha  occ. eigenvalues --  -10.44908 -10.41765 -10.41715 -10.41146 -10.39719
 Alpha  occ. eigenvalues --   -1.31585  -1.24599  -1.18862  -1.07546  -0.97954
 Alpha  occ. eigenvalues --   -0.94955  -0.87511  -0.83559  -0.79658  -0.76614
 Alpha  occ. eigenvalues --   -0.72405  -0.67455  -0.66612  -0.65889  -0.65675
 Alpha  occ. eigenvalues --   -0.63562  -0.63170  -0.61610  -0.58742  -0.58436
 Alpha  occ. eigenvalues --   -0.56496  -0.53394  -0.51094  -0.48391  -0.45370
 Alpha  occ. eigenvalues --   -0.43428
 Alpha virt. eigenvalues --   -0.36003  -0.20100  -0.19973  -0.09291  -0.07500
 Alpha virt. eigenvalues --   -0.06333  -0.05496  -0.03158  -0.00989   0.01125
 Alpha virt. eigenvalues --    0.02016   0.02833   0.04119   0.04810   0.07734
 Alpha virt. eigenvalues --    0.10231   0.14283   0.15545   0.18609   0.26373
 Alpha virt. eigenvalues --    0.29707   0.29948   0.31022   0.35462   0.36771
 Alpha virt. eigenvalues --    0.37786   0.38278   0.39008   0.42424   0.43002
 Alpha virt. eigenvalues --    0.44959   0.45107   0.46453   0.47219   0.51936
 Alpha virt. eigenvalues --    0.54315   0.56092   0.57464   0.58964   0.62702
 Alpha virt. eigenvalues --    0.65427   0.67646   0.68831   0.69973   0.71985
 Alpha virt. eigenvalues --    0.72770   0.74225   0.75069   0.76477   0.77393
 Alpha virt. eigenvalues --    0.83415   0.85145   0.85198   0.85971   0.89358
 Alpha virt. eigenvalues --    0.92555   0.96290   0.97007   1.00123   1.01053
 Alpha virt. eigenvalues --    1.05043   1.09528   1.12801   1.15168   1.16401
 Alpha virt. eigenvalues --    1.18459   1.19618   1.21340   1.26279   1.27328
 Alpha virt. eigenvalues --    1.40980   1.47732   1.48465   1.50862   1.52267
 Alpha virt. eigenvalues --    1.54061   1.56182   1.57707   1.58014   1.62965
 Alpha virt. eigenvalues --    1.63654   1.67796   1.68471   1.69575   1.70490
 Alpha virt. eigenvalues --    1.74611   1.79085   1.80528   1.85059   1.86102
 Alpha virt. eigenvalues --    1.88984   1.90579   1.93413   2.01516   2.04463
 Alpha virt. eigenvalues --    2.06445   2.06849   2.12038   2.17323   2.19870
 Alpha virt. eigenvalues --    2.20160   2.22378   2.24598   2.30362   2.39088
 Alpha virt. eigenvalues --    2.40040   2.40855   2.43431   2.46654   2.52283
 Alpha virt. eigenvalues --    2.60404   2.63552   2.69799   2.71220   2.73950
 Alpha virt. eigenvalues --    2.82379   3.00965   3.16419   3.63990   3.69890
 Alpha virt. eigenvalues --    3.85623   3.85803   3.95937   4.01012   4.11326
 Alpha virt. eigenvalues --    4.18115   4.35730   4.71322
          Condensed to atoms (all electrons):
               1          2          3          4          5          6
     1  C    4.668113   0.337001   0.000893  -0.028384  -0.043375   0.262476
     2  C    0.337001   5.183135   0.530941  -0.036105  -0.022358  -0.088566
     3  C    0.000893   0.530941   4.854710   0.403594  -0.032700  -0.013834
     4  C   -0.028384  -0.036105   0.403594   4.965984   0.504422  -0.001483
     5  C   -0.043375  -0.022358  -0.032700   0.504422   4.994115   0.451846
     6  C    0.262476  -0.088566  -0.013834  -0.001483   0.451846   4.764664
     7  H   -0.033109   0.354767  -0.027362   0.005421  -0.000303   0.004359
     8  H    0.000241   0.004373  -0.040501   0.362923  -0.031746   0.003536
     9  H    0.003708  -0.000181   0.002764  -0.029322   0.357746  -0.025004
    10  O   -0.045043   0.004512  -0.000141   0.002796  -0.053369   0.355290
    11  H   -0.010613   0.002358  -0.000181  -0.000170   0.007032  -0.040070
    12  O    0.441952  -0.056618   0.003985  -0.000109   0.006108  -0.060024
    13  C    0.005107  -0.042955   0.332120  -0.055350   0.005109  -0.000140
    14  H   -0.000026   0.000311  -0.041282   0.001683  -0.000087  -0.000001
    15  H   -0.000023   0.000401  -0.041752   0.001701  -0.000081  -0.000001
    16  O    0.000733   0.004846  -0.048675   0.001721  -0.000056  -0.000001
    17  H   -0.000013   0.000095   0.006196  -0.000182   0.000003   0.000000
               7          8          9         10         11         12
     1  C   -0.033109   0.000241   0.003708  -0.045043  -0.010613   0.441952
     2  C    0.354767   0.004373  -0.000181   0.004512   0.002358  -0.056618
     3  C   -0.027362  -0.040501   0.002764  -0.000141  -0.000181   0.003985
     4  C    0.005421   0.362923  -0.029322   0.002796  -0.000170  -0.000109
     5  C   -0.000303  -0.031746   0.357746  -0.053369   0.007032   0.006108
     6  C    0.004359   0.003536  -0.025004   0.355290  -0.040070  -0.060024
     7  H    0.440408  -0.000081   0.000009  -0.000026  -0.000033  -0.000340
     8  H   -0.000081   0.467518  -0.003826  -0.000043   0.000003   0.000001
     9  H    0.000009  -0.003826   0.454296  -0.001783  -0.000247  -0.000045
    10  O   -0.000026  -0.000043  -0.001783   8.032562   0.222778  -0.024392
    11  H   -0.000033   0.000003  -0.000247   0.222778   0.294429   0.049422
    12  O   -0.000340   0.000001  -0.000045  -0.024392   0.049422   8.037792
    13  C   -0.010707  -0.004490  -0.000098   0.000000   0.000001  -0.000054
    14  H    0.000420   0.001876   0.000001   0.000000   0.000000   0.000001
    15  H    0.000421   0.001909   0.000001   0.000000   0.000000   0.000001
    16  O    0.013003   0.000052   0.000000   0.000000   0.000000   0.000000
    17  H   -0.000396  -0.000009   0.000000   0.000000   0.000000   0.000000
              13         14         15         16         17
     1  C    0.005107  -0.000026  -0.000023   0.000733  -0.000013
     2  C   -0.042955   0.000311   0.000401   0.004846   0.000095
     3  C    0.332120  -0.041282  -0.041752  -0.048675   0.006196
     4  C   -0.055350   0.001683   0.001701   0.001721  -0.000182
     5  C    0.005109  -0.000087  -0.000081  -0.000056   0.000003
     6  C   -0.000140  -0.000001  -0.000001  -0.000001   0.000000
     7  H   -0.010707   0.000420   0.000421   0.013003  -0.000396
     8  H   -0.004490   0.001876   0.001909   0.000052  -0.000009
     9  H   -0.000098   0.000001   0.000001   0.000000   0.000000
    10  O    0.000000   0.000000   0.000000   0.000000   0.000000
    11  H    0.000001   0.000000   0.000000   0.000000   0.000000
    12  O   -0.000054   0.000001   0.000001   0.000000   0.000000
    13  C    4.891317   0.361174   0.361440   0.260948  -0.018394
    14  H    0.361174   0.558299  -0.044499  -0.033462  -0.003189
    15  H    0.361440  -0.044499   0.558531  -0.033648  -0.003069
    16  O    0.260948  -0.033462  -0.033648   8.181570   0.244636
    17  H   -0.018394  -0.003189  -0.003069   0.244636   0.334477
 Mulliken charges:
               1
     1  C    0.440364
     2  C   -0.175957
     3  C    0.111226
     4  C   -0.099142
     5  C   -0.142308
     6  C    0.386952
     7  H    0.253550
     8  H    0.238264
     9  H    0.241982
    10  O   -0.493142
    11  H    0.475291
    12  O   -0.397680
    13  C   -0.085028
    14  H    0.198779
    15  H    0.198668
    16  O   -0.591667
    17  H    0.439847
 Sum of Mulliken charges =   1.00000
 Mulliken charges with hydrogens summed into heavy atoms:
               1
     1  C    0.440364
     2  C    0.077593
     3  C    0.111226
     4  C    0.139122
     5  C    0.099674
     6  C    0.386952
    10  O   -0.017851
    12  O   -0.397680
    13  C    0.312420
    16  O   -0.151820
 Electronic spatial extent (au):  <R**2>=           1536.9607
 Charge=              1.0000 electrons
 Dipole moment (field-independent basis, Debye):
    X=             -1.3504    Y=              3.8152    Z=              0.0149  Tot=              4.0472
 Quadrupole moment (field-independent basis, Debye-Ang):
   XX=            -23.1028   YY=            -46.3036   ZZ=            -54.5150
   XY=             -3.4278   XZ=             -0.0597   YZ=             -0.0132
 Traceless Quadrupole moment (field-independent basis, Debye-Ang):
   XX=             18.2044   YY=             -4.9965   ZZ=            -13.2078
   XY=             -3.4278   XZ=             -0.0597   YZ=             -0.0132
 Octapole moment (field-independent basis, Debye-Ang**2):
  XXX=            -57.0395  YYY=             18.9930  ZZZ=              0.0072  XYY=             -2.6855
  XXY=             -6.6392  XXZ=              0.2150  XZZ=              1.7496  YZZ=             -3.4295
  YYZ=             -0.0006  XYZ=              0.0435
 Hexadecapole moment (field-independent basis, Debye-Ang**3):
 XXXX=           -779.1784 YYYY=           -420.2017 ZZZZ=            -54.9693 XXXY=            -17.9223
 XXXZ=             -0.8390 YYYX=             21.6887 YYYZ=             -0.0318 ZZZX=             -0.0347
 ZZZY=              0.0048 XXYY=           -274.9983 XXZZ=           -221.3248 YYZZ=            -88.8717
 XXYZ=             -0.1568 YYXZ=             -0.0326 ZZXY=             -5.8092
 N-N= 5.006695092960D+02 E-N=-2.146065229972D+03  KE= 4.918237557028D+02
 No NMR shielding tensors so no spin-rotation constants.
 Leave Link  601 at Mon Dec 08 16:24:52 2025, MaxMem=   104857600 cpu:               0.0 elap:               0.1
 (Enter D:\Gaussian\G16W\l9999.exe)
 1|1|UNPC-PC-20250526LCFF|SP|RB3LYP|6-31G(d)|C7H7O3(1+)|ADMINISTRATOR|0
 8-Dec-2025|0||#P B3LYP/6-31G* SCF=conver=7 out=wfn||Generated by Multi
 wfn (http://sobereva.com/multiwfn)||1,1|C,0,0.98339904,-0.8879501,0.00
 027196|C,0,-0.45478097,-0.84157109,0.00072096|C,0,-1.11022096,0.360994
 91,0.00053696|C,0,-0.37033095,1.58142991,-0.00014904|C,0,1.01656405,1.
 6038589,-0.00035004|C,0,1.69933405,0.39337189,-0.00012304|H,0,-0.99894
 397,-1.77584809,0.00119096|H,0,-0.91147494,2.52253791,-0.00048504|H,0,
 1.56899506,2.53544489,-0.00070904|O,0,3.02752805,0.31205188,-0.0003830
 4|H,0,3.20588803,-0.65382012,-0.00028404|O,0,1.67862503,-1.92952011,0.
 00026096|C,0,-2.61725096,0.44433192,0.00114196|H,0,-2.93759295,1.01159
 593,0.88879796|H,0,-2.93799895,1.01676392,-0.88306904|O,0,-3.17344097,
 -0.85826707,-0.00252104|H,0,-4.13084897,-0.77759006,0.00340496||Versio
 n=EM64W-G16RevA.03|State=1-A|HF=-496.2966059|RMSD=5.873e-008|Dipole=-0
 .5313069,1.5010108,0.0058676|Quadrupole=13.5344955,-3.7147869,-9.81970
 85,-2.548467,-0.0444126,-0.0098424|PG=C01 [X(C7H7O3)]||@

 Writing a WFN file to "N-1.wfn"


 What some people mistake for the high cost
 of living is really the cost of living high.
                              -- Doug Larson
 Job cpu time:       0 days  0 hours  0 minutes 17.0 seconds.
 Elapsed time:       0 days  0 hours  0 minutes 17.2 seconds.
 File lengths (MBytes):  RWF=     14 Int=      0 D2E=      0 Chk=      3 Scr=      1
 Normal termination of Gaussian 16 at Mon Dec 08 16:24:52 2025.
