 Generated by Multiwfn (http://sobereva.com/multiwfn)
GAUSSIAN             36 MOL ORBITALS    308 PRIMITIVES       17 NUCLEI
  C    1    (CENTRE  1)   1.85835486 -1.67798250  0.00051393  CHARGE =  6.0
  C    2    (CENTRE  2)  -0.85941148 -1.59033888  0.00136241  CHARGE =  6.0
  C    3    (CENTRE  3)  -2.09801355  0.68218151  0.00101471  CHARGE =  6.0
  C    4    (CENTRE  4)  -0.69982407  2.98846941 -0.00028165  CHARGE =  6.0
  C    5    (CENTRE  5)   1.92102764  3.03085406 -0.00066148  CHARGE =  6.0
  C    6    (CENTRE  6)   3.21127595  0.74336514 -0.00023251  CHARGE =  6.0
  H    7    (CENTRE  7)  -1.88773051 -3.35586653  0.00225059  CHARGE =  1.0
  H    8    (CENTRE  8)  -1.72243801  4.76690579 -0.00091659  CHARGE =  1.0
  H    9    (CENTRE  9)   2.96497095  4.79129645 -0.00133989  CHARGE =  1.0
  O   10    (CENTRE 10)   5.72119885  0.58969259 -0.00072384  CHARGE =  8.0
  H   11    (CENTRE 11)   6.05825036 -1.23554096 -0.00053676  CHARGE =  1.0
  O   12    (CENTRE 12)   3.17214157 -3.64626456  0.00049314  CHARGE =  8.0
  C   13    (CENTRE 13)  -4.94588751  0.83966563  0.00215799  CHARGE =  6.0
  H   14    (CENTRE 14)  -5.55124614  1.91163925  1.67958472  CHARGE =  1.0
  H   15    (CENTRE 15)  -5.55201337  1.92140534 -1.66875864  CHARGE =  1.0
  O   16    (CENTRE 16)  -5.99693430 -1.62188971 -0.00476408  CHARGE =  8.0
  H   17    (CENTRE 17)  -7.80617321 -1.46943226  0.00643444  CHARGE =  1.0
CENTRE ASSIGNMENTS    1  1  1  1  1  1  1  1  1  1  1  1  1  1  1  1  1  1  1  1
CENTRE ASSIGNMENTS    1  1  1  1  1  1  1  1  2  2  2  2  2  2  2  2  2  2  2  2
CENTRE ASSIGNMENTS    2  2  2  2  2  2  2  2  2  2  2  2  2  2  2  2  3  3  3  3
CENTRE ASSIGNMENTS    3  3  3  3  3  3  3  3  3  3  3  3  3  3  3  3  3  3  3  3
CENTRE ASSIGNMENTS    3  3  3  3  4  4  4  4  4  4  4  4  4  4  4  4  4  4  4  4
CENTRE ASSIGNMENTS    4  4  4  4  4  4  4  4  4  4  4  4  5  5  5  5  5  5  5  5
CENTRE ASSIGNMENTS    5  5  5  5  5  5  5  5  5  5  5  5  5  5  5  5  5  5  5  5
CENTRE ASSIGNMENTS    6  6  6  6  6  6  6  6  6  6  6  6  6  6  6  6  6  6  6  6
CENTRE ASSIGNMENTS    6  6  6  6  6  6  6  6  7  7  7  7  8  8  8  8  9  9  9  9
CENTRE ASSIGNMENTS   10 10 10 10 10 10 10 10 10 10 10 10 10 10 10 10 10 10 10 10
CENTRE ASSIGNMENTS   10 10 10 10 10 10 10 10 11 11 11 11 12 12 12 12 12 12 12 12
CENTRE ASSIGNMENTS   12 12 12 12 12 12 12 12 12 12 12 12 12 12 12 12 12 12 12 12
CENTRE ASSIGNMENTS   13 13 13 13 13 13 13 13 13 13 13 13 13 13 13 13 13 13 13 13
CENTRE ASSIGNMENTS   13 13 13 13 13 13 13 13 14 14 14 14 15 15 15 15 16 16 16 16
CENTRE ASSIGNMENTS   16 16 16 16 16 16 16 16 16 16 16 16 16 16 16 16 16 16 16 16
CENTRE ASSIGNMENTS   16 16 16 16 17 17 17 17
TYPE ASSIGNMENTS      1  1  1  1  1  1  1  1  1  2  2  2  3  3  3  4  4  4  1  2
TYPE ASSIGNMENTS      3  4  5  6  7  8  9 10  1  1  1  1  1  1  1  1  1  2  2  2
TYPE ASSIGNMENTS      3  3  3  4  4  4  1  2  3  4  5  6  7  8  9 10  1  1  1  1
TYPE ASSIGNMENTS      1  1  1  1  1  2  2  2  3  3  3  4  4  4  1  2  3  4  5  6
TYPE ASSIGNMENTS      7  8  9 10  1  1  1  1  1  1  1  1  1  2  2  2  3  3  3  4
TYPE ASSIGNMENTS      4  4  1  2  3  4  5  6  7  8  9 10  1  1  1  1  1  1  1  1
TYPE ASSIGNMENTS      1  2  2  2  3  3  3  4  4  4  1  2  3  4  5  6  7  8  9 10
TYPE ASSIGNMENTS      1  1  1  1  1  1  1  1  1  2  2  2  3  3  3  4  4  4  1  2
TYPE ASSIGNMENTS      3  4  5  6  7  8  9 10  1  1  1  1  1  1  1  1  1  1  1  1
TYPE ASSIGNMENTS      1  1  1  1  1  1  1  1  1  2  2  2  3  3  3  4  4  4  1  2
TYPE ASSIGNMENTS      3  4  5  6  7  8  9 10  1  1  1  1  1  1  1  1  1  1  1  1
TYPE ASSIGNMENTS      1  2  2  2  3  3  3  4  4  4  1  2  3  4  5  6  7  8  9 10
TYPE ASSIGNMENTS      1  1  1  1  1  1  1  1  1  2  2  2  3  3  3  4  4  4  1  2
TYPE ASSIGNMENTS      3  4  5  6  7  8  9 10  1  1  1  1  1  1  1  1  1  1  1  1
TYPE ASSIGNMENTS      1  1  1  1  1  2  2  2  3  3  3  4  4  4  1  2  3  4  5  6
TYPE ASSIGNMENTS      7  8  9 10  1  1  1  1
EXPONENTS  0.3047525D+04 0.4573695D+03 0.1039487D+03 0.2921016D+02 0.9286663D+01
EXPONENTS  0.3163927D+01 0.7868272D+01 0.1881289D+01 0.5442493D+00 0.7868272D+01
EXPONENTS  0.1881289D+01 0.5442493D+00 0.7868272D+01 0.1881289D+01 0.5442493D+00
EXPONENTS  0.7868272D+01 0.1881289D+01 0.5442493D+00 0.1687145D+00 0.1687145D+00
EXPONENTS  0.1687145D+00 0.1687145D+00 0.8000000D+00 0.8000000D+00 0.8000000D+00
EXPONENTS  0.8000000D+00 0.8000000D+00 0.8000000D+00 0.3047525D+04 0.4573695D+03
EXPONENTS  0.1039487D+03 0.2921016D+02 0.9286663D+01 0.3163927D+01 0.7868272D+01
EXPONENTS  0.1881289D+01 0.5442493D+00 0.7868272D+01 0.1881289D+01 0.5442493D+00
EXPONENTS  0.7868272D+01 0.1881289D+01 0.5442493D+00 0.7868272D+01 0.1881289D+01
EXPONENTS  0.5442493D+00 0.1687145D+00 0.1687145D+00 0.1687145D+00 0.1687145D+00
EXPONENTS  0.8000000D+00 0.8000000D+00 0.8000000D+00 0.8000000D+00 0.8000000D+00
EXPONENTS  0.8000000D+00 0.3047525D+04 0.4573695D+03 0.1039487D+03 0.2921016D+02
EXPONENTS  0.9286663D+01 0.3163927D+01 0.7868272D+01 0.1881289D+01 0.5442493D+00
EXPONENTS  0.7868272D+01 0.1881289D+01 0.5442493D+00 0.7868272D+01 0.1881289D+01
EXPONENTS  0.5442493D+00 0.7868272D+01 0.1881289D+01 0.5442493D+00 0.1687145D+00
EXPONENTS  0.1687145D+00 0.1687145D+00 0.1687145D+00 0.8000000D+00 0.8000000D+00
EXPONENTS  0.8000000D+00 0.8000000D+00 0.8000000D+00 0.8000000D+00 0.3047525D+04
EXPONENTS  0.4573695D+03 0.1039487D+03 0.2921016D+02 0.9286663D+01 0.3163927D+01
EXPONENTS  0.7868272D+01 0.1881289D+01 0.5442493D+00 0.7868272D+01 0.1881289D+01
EXPONENTS  0.5442493D+00 0.7868272D+01 0.1881289D+01 0.5442493D+00 0.7868272D+01
EXPONENTS  0.1881289D+01 0.5442493D+00 0.1687145D+00 0.1687145D+00 0.1687145D+00
EXPONENTS  0.1687145D+00 0.8000000D+00 0.8000000D+00 0.8000000D+00 0.8000000D+00
EXPONENTS  0.8000000D+00 0.8000000D+00 0.3047525D+04 0.4573695D+03 0.1039487D+03
EXPONENTS  0.2921016D+02 0.9286663D+01 0.3163927D+01 0.7868272D+01 0.1881289D+01
EXPONENTS  0.5442493D+00 0.7868272D+01 0.1881289D+01 0.5442493D+00 0.7868272D+01
EXPONENTS  0.1881289D+01 0.5442493D+00 0.7868272D+01 0.1881289D+01 0.5442493D+00
EXPONENTS  0.1687145D+00 0.1687145D+00 0.1687145D+00 0.1687145D+00 0.8000000D+00
EXPONENTS  0.8000000D+00 0.8000000D+00 0.8000000D+00 0.8000000D+00 0.8000000D+00
EXPONENTS  0.3047525D+04 0.4573695D+03 0.1039487D+03 0.2921016D+02 0.9286663D+01
EXPONENTS  0.3163927D+01 0.7868272D+01 0.1881289D+01 0.5442493D+00 0.7868272D+01
EXPONENTS  0.1881289D+01 0.5442493D+00 0.7868272D+01 0.1881289D+01 0.5442493D+00
EXPONENTS  0.7868272D+01 0.1881289D+01 0.5442493D+00 0.1687145D+00 0.1687145D+00
EXPONENTS  0.1687145D+00 0.1687145D+00 0.8000000D+00 0.8000000D+00 0.8000000D+00
EXPONENTS  0.8000000D+00 0.8000000D+00 0.8000000D+00 0.1873114D+02 0.2825394D+01
EXPONENTS  0.6401217D+00 0.1612778D+00 0.1873114D+02 0.2825394D+01 0.6401217D+00
EXPONENTS  0.1612778D+00 0.1873114D+02 0.2825394D+01 0.6401217D+00 0.1612778D+00
EXPONENTS  0.5484672D+04 0.8252349D+03 0.1880470D+03 0.5296450D+02 0.1689757D+02
EXPONENTS  0.5799635D+01 0.1553962D+02 0.3599934D+01 0.1013762D+01 0.1553962D+02
EXPONENTS  0.3599934D+01 0.1013762D+01 0.1553962D+02 0.3599934D+01 0.1013762D+01
EXPONENTS  0.1553962D+02 0.3599934D+01 0.1013762D+01 0.2700058D+00 0.2700058D+00
EXPONENTS  0.2700058D+00 0.2700058D+00 0.8000000D+00 0.8000000D+00 0.8000000D+00
EXPONENTS  0.8000000D+00 0.8000000D+00 0.8000000D+00 0.1873114D+02 0.2825394D+01
EXPONENTS  0.6401217D+00 0.1612778D+00 0.5484672D+04 0.8252349D+03 0.1880470D+03
EXPONENTS  0.5296450D+02 0.1689757D+02 0.5799635D+01 0.1553962D+02 0.3599934D+01
EXPONENTS  0.1013762D+01 0.1553962D+02 0.3599934D+01 0.1013762D+01 0.1553962D+02
EXPONENTS  0.3599934D+01 0.1013762D+01 0.1553962D+02 0.3599934D+01 0.1013762D+01
EXPONENTS  0.2700058D+00 0.2700058D+00 0.2700058D+00 0.2700058D+00 0.8000000D+00
EXPONENTS  0.8000000D+00 0.8000000D+00 0.8000000D+00 0.8000000D+00 0.8000000D+00
EXPONENTS  0.3047525D+04 0.4573695D+03 0.1039487D+03 0.2921016D+02 0.9286663D+01
EXPONENTS  0.3163927D+01 0.7868272D+01 0.1881289D+01 0.5442493D+00 0.7868272D+01
EXPONENTS  0.1881289D+01 0.5442493D+00 0.7868272D+01 0.1881289D+01 0.5442493D+00
EXPONENTS  0.7868272D+01 0.1881289D+01 0.5442493D+00 0.1687145D+00 0.1687145D+00
EXPONENTS  0.1687145D+00 0.1687145D+00 0.8000000D+00 0.8000000D+00 0.8000000D+00
EXPONENTS  0.8000000D+00 0.8000000D+00 0.8000000D+00 0.1873114D+02 0.2825394D+01
EXPONENTS  0.6401217D+00 0.1612778D+00 0.1873114D+02 0.2825394D+01 0.6401217D+00
EXPONENTS  0.1612778D+00 0.5484672D+04 0.8252349D+03 0.1880470D+03 0.5296450D+02
EXPONENTS  0.1689757D+02 0.5799635D+01 0.1553962D+02 0.3599934D+01 0.1013762D+01
EXPONENTS  0.1553962D+02 0.3599934D+01 0.1013762D+01 0.1553962D+02 0.3599934D+01
EXPONENTS  0.1013762D+01 0.1553962D+02 0.3599934D+01 0.1013762D+01 0.2700058D+00
EXPONENTS  0.2700058D+00 0.2700058D+00 0.2700058D+00 0.8000000D+00 0.8000000D+00
EXPONENTS  0.8000000D+00 0.8000000D+00 0.8000000D+00 0.8000000D+00 0.1873114D+02
EXPONENTS  0.2825394D+01 0.6401217D+00 0.1612778D+00
MO    1     MO 0.0        OCC NO =    2.0000000  ORB. ENERGY =  -19.429631
  0.28183935D-04  0.51993857D-04  0.83934206D-04  0.10925740D-03  0.93229535D-04
  0.32189918D-04 -0.13024495D-03 -0.60029780D-04  0.16832977D-03 -0.41224373D-04
 -0.31608235D-04 -0.15774724D-04 -0.83472833D-04 -0.64001674D-04 -0.31941321D-04
  0.33541275D-07  0.25717322D-07  0.12834746D-07 -0.43125496D-03  0.26714152D-03
 -0.43574775D-03  0.89144757D-09 -0.31861979D-04  0.24707188D-04  0.79315183D-04
 -0.11672096D-03  0.95296227D-07  0.44871965D-07 -0.45887556D-05 -0.84653580D-05
 -0.13665713D-04 -0.17788697D-04 -0.15179128D-04 -0.52409880D-05  0.28622090D-04
  0.13191895D-04 -0.36991451D-04  0.98636337D-04  0.75628087D-04  0.37743716D-04
  0.47361737D-05  0.36313976D-05  0.18123219D-05 -0.41285346D-07 -0.31654985D-07
 -0.15798056D-07  0.46805772D-03  0.89405017D-04  0.20290794D-03 -0.83629488D-07
  0.41631215D-04  0.17955276D-04 -0.30692381D-05 -0.74678357D-05 -0.37338427D-07
 -0.34877593D-07  0.75555989D-05  0.13938605D-04  0.22501230D-04  0.29289915D-04
  0.24993138D-04  0.86295299D-05 -0.31412151D-04 -0.14477832D-04  0.40597351D-04
  0.40071638D-04  0.30724391D-04  0.15333624D-04  0.21376355D-04  0.16390033D-04
  0.81797753D-05 -0.71727933D-08 -0.54996429D-08 -0.27447073D-08 -0.25530643D-03
 -0.17357217D-03  0.71110352D-04  0.15818147D-07  0.20997019D-04 -0.39519573D-04
  0.35474867D-04  0.30777399D-04  0.25427176D-08  0.34953989D-07  0.46825538D-05
  0.86383975D-05  0.13945052D-04  0.18152314D-04  0.15489403D-04  0.53481185D-05
 -0.11506241D-04 -0.53032159D-05  0.14870771D-04  0.79226680D-04  0.60745993D-04
  0.30316508D-04 -0.27810564D-04 -0.21323377D-04 -0.10641859D-04  0.86495029D-08
  0.66318902D-08  0.33097780D-08  0.25511281D-03  0.80248304D-04 -0.53112314D-04
  0.11911554D-07  0.26142165D-04  0.11216447D-04  0.39319872D-04  0.49897888D-04
 -0.17253513D-09 -0.20694850D-08  0.61874540D-05  0.11414644D-04  0.18426775D-04
  0.23986186D-04  0.20467456D-04  0.70669208D-05 -0.55257213D-04 -0.25467999D-04
  0.71414927D-04 -0.14154417D-04 -0.10852709D-04 -0.54162625D-05 -0.37549483D-05
 -0.28790562D-05 -0.14368508D-05  0.76604882D-08  0.58735765D-08  0.29313263D-08
 -0.35155049D-03  0.20595528D-03  0.22627073D-03 -0.10366695D-06 -0.50818699D-04
 -0.56476457D-04  0.26377037D-04  0.48992712D-06  0.32211787D-07  0.57255131D-07
 -0.28677716D-04 -0.52904787D-04 -0.85404729D-04 -0.11117158D-03 -0.94862912D-04
 -0.32753884D-04 -0.83775317D-04 -0.38611967D-04  0.10827199D-03  0.53940194D-03
  0.41357920D-03  0.20640500D-03  0.22873256D-04  0.17537762D-04  0.87525724D-05
 -0.11744522D-06 -0.90049546D-07 -0.44941034D-07  0.68871320D-05 -0.80830233D-03
 -0.65156150D-04  0.17467768D-06 -0.26594274D-03 -0.57462227D-04 -0.12384715D-03
  0.11812062D-03  0.64387409D-07 -0.65343265D-07  0.11873662D-04  0.20139978D-04
  0.22928654D-04  0.50594556D-04  0.18446652D-05  0.31289013D-05  0.35621435D-05
  0.95543563D-05 -0.12426879D-04 -0.21078339D-04 -0.23996944D-04 -0.12587784D-03
  0.82561789D+00  0.15195777D+01  0.24589635D+01  0.32323763D+01  0.27723904D+01
  0.94792736D+00 -0.15736806D-01 -0.70217320D-02  0.20735269D-01 -0.23197100D-02
 -0.17872115D-02 -0.78468211D-03 -0.24613307D-02 -0.18963226D-02 -0.83258776D-03
  0.90539647D-06  0.69755917D-06  0.30626605D-06  0.40311537D-02 -0.38003842D-03
  0.80601198D-04  0.65949649D-07 -0.91255063D-02 -0.93323459D-02 -0.92738229D-02
 -0.11314202D-03 -0.43570809D-07  0.44486689D-07  0.81615838D-04  0.13843591D-03
  0.15760439D-03 -0.21674020D-03  0.11878519D-04  0.21862815D-04  0.35378162D-04
  0.46505585D-04  0.39887570D-04  0.13638238D-04 -0.17945382D-03 -0.80071945D-04
  0.23645353D-03 -0.12596596D-03 -0.97049983D-04 -0.42610170D-04  0.26995100D-04
  0.20798269D-04  0.91315605D-05  0.11782161D-07  0.90775200D-08  0.39855202D-08
 -0.56388923D-03  0.14695559D-03 -0.10299052D-03 -0.16181629D-07  0.19446423D-03
  0.15030174D-03  0.18817511D-03  0.10548476D-03 -0.21101494D-07 -0.12972480D-07
  0.29186768D-05  0.53843888D-05  0.86920731D-05  0.11314496D-04  0.96546804D-05
  0.33335291D-05 -0.12567973D-04 -0.57925673D-05  0.16242963D-04 -0.15226744D-04
 -0.11674902D-04 -0.58265942D-05  0.51355582D-05  0.39376203D-05  0.19651485D-05
 -0.17516802D-07 -0.13430773D-07 -0.67028968D-08 -0.10090787D-03 -0.33336385D-04
 -0.51149806D-05  0.67387054D-07 -0.62236088D-05  0.40259053D-05  0.82077472D-05
 -0.15076917D-04  0.25973404D-07  0.93318641D-08  0.23210551D-05  0.39369488D-05
  0.44820771D-05  0.36880383D-05  0.23356471D-05  0.39616996D-05  0.45102549D-05
  0.37502861D-05 -0.18963055D-05 -0.34902143D-05 -0.56478256D-05 -0.74242249D-05
 -0.63677145D-05 -0.21772297D-05  0.92789491D-05  0.41402490D-05 -0.12226211D-04
 -0.18950082D-04 -0.14600017D-04 -0.64101938D-05  0.35097682D-05  0.27040872D-05
  0.11872399D-05  0.88235042D-09  0.67980343D-09  0.29847032D-09  0.19497776D-04
  0.11575408D-04  0.32244009D-05 -0.54260132D-08 -0.11960601D-04 -0.11278420D-04
 -0.13793593D-04  0.10459422D-04  0.10234858D-06 -0.29390225D-07  0.17999861D-05
  0.30531171D-05  0.34758659D-05 -0.24165830D-05
MO    2     MO 0.0        OCC NO =    2.0000000  ORB. ENERGY =  -19.379290
 -0.42863768D-04 -0.79075282D-04 -0.12765202D-03 -0.16616501D-03 -0.14178890D-03
 -0.48956300D-04 -0.84068596D-04 -0.38747139D-04  0.10865102D-03  0.11117627D-03
  0.85242912D-04  0.42542188D-04 -0.15302398D-03 -0.11732908D-03 -0.58555433D-04
  0.54772022D-08  0.41995712D-08  0.20958804D-08 -0.10192852D-03 -0.59970415D-03
  0.93264622D-03 -0.33785510D-08 -0.40754370D-03 -0.67677920D-03 -0.19273263D-03
  0.79962988D-03 -0.37245118D-07 -0.37415018D-07  0.13532577D-04  0.24964962D-04
  0.40301189D-04  0.52460173D-04  0.44764361D-04  0.15456058D-04 -0.77873658D-04
 -0.35891898D-04  0.10064463D-03 -0.35259539D-04 -0.27034778D-04 -0.13492249D-04
  0.58236067D-04  0.44651722D-04  0.22284339D-04 -0.11597834D-07 -0.88924831D-08
 -0.44379723D-08 -0.69196152D-03 -0.13190005D-03 -0.41615995D-03  0.15448570D-06
 -0.22395319D-04 -0.57141212D-04  0.47887695D-04  0.82464459D-04  0.90118213D-08
  0.36638865D-07 -0.32309476D-05 -0.59604675D-05 -0.96220427D-05 -0.12525041D-04
 -0.10687640D-04 -0.36901852D-05  0.20932433D-04  0.96477390D-05 -0.27053267D-04
  0.89757476D-04  0.68820340D-04  0.34346173D-04 -0.73023255D-04 -0.55989600D-04
 -0.27942735D-04 -0.11644564D-07 -0.89283128D-08 -0.44558538D-08  0.49955431D-03
  0.11703461D-03 -0.11407369D-03  0.27983472D-07 -0.29233760D-05  0.59285838D-04
  0.76780640D-05 -0.40096995D-04 -0.69171472D-08 -0.23080482D-07  0.10074366D-04
  0.18585237D-04  0.30002336D-04  0.39054126D-04  0.33324957D-04  0.11506307D-04
 -0.38570747D-04 -0.17777222D-04  0.49849186D-04 -0.58192584D-05 -0.44618382D-05
 -0.22267700D-05 -0.44531498D-04 -0.34143928D-04 -0.17040213D-04  0.99359800D-08
  0.76182792D-08  0.38020553D-08 -0.30704473D-03 -0.12820207D-03  0.10139411D-03
 -0.27282139D-07 -0.28659642D-04  0.22615641D-04  0.46196221D-04 -0.44694429D-04
  0.37522287D-07  0.35955122D-07 -0.18835780D-05 -0.34748337D-05 -0.56094590D-05
 -0.73018489D-05 -0.62306809D-05 -0.21513044D-05  0.17201043D-04  0.79279451D-05
 -0.22230786D-04  0.53697513D-04  0.41171847D-04  0.20547637D-04 -0.11699567D-03
 -0.89704858D-04 -0.44769011D-04  0.19083925D-07  0.14632344D-07  0.73025649D-08
  0.49812678D-03 -0.15187607D-03 -0.18597329D-03  0.89226953D-07  0.28373524D-04
  0.31226480D-04  0.10976997D-04 -0.18492799D-04  0.80935806D-09 -0.40141934D-07
  0.24779645D-04  0.45713606D-04  0.73795934D-04  0.96060379D-04  0.81968496D-04
  0.28301752D-04 -0.10959951D-03 -0.50514314D-04  0.14164741D-03  0.62910081D-04
  0.48235460D-04  0.24072875D-04  0.70577455D-04  0.54114316D-04  0.27006836D-04
 -0.26900514D-07 -0.20625608D-07 -0.10293624D-07 -0.46741783D-03  0.58277294D-03
 -0.37882317D-04 -0.10869828D-06  0.11482764D-03 -0.79876039D-04  0.63019875D-04
  0.11770880D-04 -0.43380068D-07  0.74273304D-07 -0.23084757D-04 -0.39156118D-04
 -0.44577856D-04 -0.14462548D-03 -0.70430640D-05 -0.11946370D-04 -0.13600519D-04
 -0.41568549D-04  0.11637416D-04  0.19739261D-04  0.22472451D-04  0.58255847D-04
  0.86910981D-04  0.15996260D-03  0.25884968D-03  0.34026515D-03  0.29184345D-03
  0.99786231D-04 -0.16682723D-03 -0.74437985D-04  0.21981637D-03 -0.15557510D-03
 -0.11986223D-03 -0.52625974D-04  0.99017620D-04  0.76287738D-04  0.33494426D-04
  0.31158784D-07  0.24006163D-07  0.10539999D-07 -0.51864839D-03  0.22035631D-03
 -0.10893202D-03 -0.33225983D-07  0.67687342D-04  0.24634669D-03  0.17113023D-03
  0.23017319D-05  0.43487397D-07 -0.25614355D-07 -0.13096843D-04 -0.22214725D-04
 -0.25290679D-04 -0.10914593D-03  0.82562291D+00  0.15195869D+01  0.24589784D+01
  0.32323960D+01  0.27724073D+01  0.94793312D+00 -0.15530754D-01 -0.69297923D-02
  0.20463770D-01 -0.16671979D-02 -0.12844861D-02 -0.56395860D-03  0.29880918D-02
  0.23021637D-02  0.10107738D-02  0.26667111D-07  0.20545571D-07  0.90206124D-08
  0.44872038D-02 -0.33610315D-03  0.51726984D-03  0.15971361D-08 -0.91868574D-02
 -0.89774265D-02 -0.93782162D-02 -0.51821755D-03 -0.12039220D-07  0.77740971D-08
  0.75604406D-05  0.13947537D-04  0.22515649D-04  0.29308685D-04  0.25009154D-04
  0.86350598D-05 -0.25356803D-04 -0.11686927D-04  0.32771364D-04 -0.50181701D-05
 -0.38476146D-05 -0.19202293D-05  0.25293944D-05  0.19393792D-05  0.96788614D-06
  0.21686188D-07  0.16627594D-07  0.82983347D-08 -0.46082626D-04 -0.17967174D-04
  0.12123635D-04 -0.59610317D-07 -0.21231347D-05  0.31270208D-04  0.27381022D-04
  0.31060653D-04  0.24839424D-07  0.11127759D-07  0.37012188D-05  0.62779677D-05
  0.71472443D-05  0.20642251D-05  0.36923957D-05  0.62630020D-05  0.71302064D-05
  0.19650459D-05 -0.12048682D-05 -0.22176006D-05 -0.35884964D-05 -0.47171790D-05
 -0.40458970D-05 -0.13833609D-05  0.17508125D-05  0.78120911D-06 -0.23069209D-05
  0.35722460D-04  0.27522229D-04  0.12083741D-04  0.10834041D-04  0.83470444D-05
  0.36648021D-05 -0.11846533D-06 -0.91271147D-07 -0.40072950D-07  0.17817656D-04
 -0.11170350D-04 -0.68032149D-06  0.78219812D-07 -0.84767290D-05 -0.74481770D-05
  0.60084255D-05 -0.10892107D-04 -0.16152365D-06 -0.45105790D-07 -0.31509198D-05
 -0.53445563D-05 -0.60845885D-05 -0.47298724D-05
MO    3     MO 0.0        OCC NO =    2.0000000  ORB. ENERGY =  -19.313646
  0.97171738D-05  0.17926288D-04  0.28938587D-04  0.37669442D-04  0.32143404D-04
  0.11098345D-04 -0.42659075D-04 -0.19661529D-04  0.55132979D-04 -0.23805267D-04
 -0.18252369D-04 -0.91092113D-05 -0.34025482D-04 -0.26088582D-04 -0.13020031D-04
  0.26635812D-06  0.20422651D-06  0.10192334D-06 -0.33562708D-03  0.35132911D-03
  0.12980010D-03 -0.36076732D-06 -0.59314143D-04  0.19124294D-04  0.45785950D-04
  0.12826878D-04  0.21876421D-06  0.10713930D-06 -0.75955913D-05 -0.14012383D-04
 -0.22620331D-04 -0.29444949D-04 -0.25125429D-04 -0.86752067D-05  0.32255887D-04
  0.14866709D-04 -0.41687803D-04 -0.14959671D-03 -0.11470127D-03 -0.57243973D-04
  0.70895798D-04  0.54358401D-04  0.27128652D-04 -0.72526779D-06 -0.55608934D-06
 -0.27752755D-06  0.28626515D-03  0.40099910D-03 -0.18316232D-03  0.29679425D-06
  0.96433231D-04 -0.98478656D-04 -0.56693554D-05  0.72622182D-04 -0.31913938D-06
  0.20452038D-06 -0.16528128D-04 -0.30491168D-04 -0.49222200D-04 -0.64072679D-04
 -0.54673333D-04 -0.18877388D-04  0.35581951D-04  0.16399689D-04 -0.45986439D-04
  0.54476759D-04  0.41769324D-04  0.20845820D-04 -0.43212764D-04 -0.33132807D-04
 -0.16535593D-04  0.51508198D-07  0.39493220D-07  0.19709884D-07  0.51438406D-03
 -0.19189296D-03 -0.15149014D-03 -0.19896810D-06 -0.40316297D-04 -0.46146690D-04
 -0.65095632D-04 -0.11605031D-03 -0.48470520D-07 -0.52030220D-06  0.28619450D-05
  0.52797296D-05  0.85231206D-05  0.11094571D-04  0.94670172D-05  0.32687335D-05
 -0.60515484D-05 -0.27891531D-05  0.78210766D-05 -0.17157435D-04 -0.13155233D-04
 -0.65653831D-05 -0.34559157D-04 -0.26497770D-04 -0.13224244D-04  0.33410466D-06
  0.25617026D-06  0.12784692D-06  0.78632098D-04  0.43754491D-04 -0.26746319D-04
 -0.12927768D-07  0.65047428D-05  0.30062791D-04  0.13113911D-04 -0.17068922D-04
 -0.34850392D-07 -0.24870391D-06  0.22177636D-05  0.40913408D-05  0.66046926D-05
  0.85973473D-05  0.73361320D-05  0.25329901D-05 -0.12495131D-04 -0.57589943D-05
  0.16148821D-04  0.55515631D-05  0.42565865D-05  0.21243350D-05  0.30477188D-04
  0.23367975D-04  0.11662257D-04 -0.50600545D-07 -0.38797289D-07 -0.19362566D-07
 -0.19843627D-03 -0.16367278D-04  0.45529078D-04 -0.15596441D-07 -0.76460186D-05
 -0.81667289D-05  0.71621676D-05  0.93128300D-05 -0.97953435D-07  0.37193937D-07
 -0.10137726D-05 -0.18702124D-05 -0.30191027D-05 -0.39299747D-05 -0.33534545D-05
 -0.11578673D-05 -0.44851564D-05 -0.20672045D-05  0.57966571D-05  0.32706738D-04
  0.25077452D-04  0.12515406D-04 -0.23070936D-04 -0.17689330D-04 -0.88282156D-05
 -0.93557144D-07 -0.71733684D-07 -0.35800136D-07 -0.95701950D-04 -0.85596475D-04
  0.17625277D-03  0.79250160D-07 -0.15061885D-04 -0.33177858D-04  0.91853777D-06
 -0.10111583D-04 -0.20148191D-07 -0.16420629D-06  0.32117636D-04  0.54477589D-04
  0.62020810D-04 -0.11536878D-03  0.75339073D-05  0.12778933D-04  0.14548363D-04
  0.53530104D-05  0.54448662D-05  0.92355236D-05  0.10514317D-04  0.11201010D-05
 -0.92699030D-05 -0.17061570D-04 -0.27608841D-04 -0.36292594D-04 -0.31127947D-04
 -0.10643174D-04  0.29444667D-04  0.13138153D-04 -0.38797142D-04 -0.20273409D-04
 -0.15619569D-04 -0.68578321D-05  0.15982241D-05  0.12313455D-05  0.54062699D-06
  0.67521739D-07  0.52021860D-07  0.22840399D-07  0.12269772D-03 -0.30256800D-04
 -0.21957190D-04 -0.29885139D-07 -0.20886355D-04 -0.42723517D-04 -0.95019545D-05
  0.13023467D-04  0.62434317D-07 -0.38783971D-07 -0.52697063D-05 -0.89384193D-05
 -0.10176074D-04 -0.23223571D-05 -0.92603562D-06 -0.17043999D-05 -0.27580407D-05
 -0.36255217D-05 -0.31095889D-05 -0.10632213D-05  0.65233864D-05  0.29107223D-05
 -0.85954019D-05  0.35680200D-04  0.27489671D-04  0.12069446D-04  0.38007286D-04
  0.29282565D-04  0.12856623D-04 -0.23768833D-06 -0.18312604D-06 -0.80402196D-07
  0.18483953D-04 -0.79176290D-04 -0.32706552D-04  0.15426880D-06  0.37253827D-04
 -0.45288225D-04  0.17161441D-05 -0.57964754D-04 -0.73165253D-07  0.21948316D-06
  0.12477460D-04  0.23018477D-04  0.37158959D-04  0.48369924D-04  0.41274144D-04
  0.14250970D-04 -0.15340585D-03 -0.70704617D-04  0.19826313D-03 -0.17679519D-03
 -0.13555534D-03 -0.67651613D-04 -0.37394845D-03 -0.28671995D-03 -0.14309335D-03
 -0.19836621D-05 -0.15209463D-05 -0.75905880D-06 -0.64122116D-03 -0.89686859D-04
  0.20487129D-03  0.12236720D-05  0.23199501D-04  0.23040624D-03  0.33622526D-04
  0.26730243D-03  0.37636598D-06  0.13339048D-05  0.20079467D-04  0.34058576D-04
  0.38774485D-04  0.18571763D-05  0.20332995D-04  0.34488609D-04  0.39264062D-04
  0.23027652D-05  0.82568333D+00  0.15196981D+01  0.24591584D+01  0.32326325D+01
  0.27726101D+01  0.94800250D+00 -0.15983457D-01 -0.71317873D-02  0.21060263D-01
 -0.20709552D-02 -0.15955594D-02 -0.70053650D-03  0.26882306D-02  0.20711368D-02
  0.90934060D-03  0.24917178D-04  0.19197343D-04  0.84286674D-05  0.32699055D-02
  0.19894345D-03  0.10140529D-03  0.37874120D-07 -0.90663563D-02 -0.91001315D-02
 -0.90357065D-02  0.15480624D-04  0.16590632D-05 -0.11405982D-05  0.10849843D-03
  0.18403387D-03  0.20951605D-03 -0.19569839D-03
MO    4     MO 0.0        OCC NO =    2.0000000  ORB. ENERGY =  -10.512760
  0.38864674D-02  0.71697734D-02  0.11574237D-01  0.15066218D-01  0.12856031D-01
  0.44388786D-02  0.14654071D-03  0.67540480D-04 -0.18939055D-03 -0.15939322D-03
 -0.12221261D-03 -0.60992659D-04 -0.26800612D-03 -0.20549009D-03 -0.10255396D-03
  0.74099394D-07  0.56814715D-07  0.28354525D-07  0.17794887D-02 -0.41745777D-03
  0.98833253D-03 -0.74400903D-07 -0.59213334D-03 -0.51788409D-03 -0.43757374D-03
 -0.40076186D-03  0.42539640D-07  0.10903088D-06  0.12573549D-04  0.23195743D-04
  0.37445121D-04  0.48742422D-04  0.41591997D-04  0.14360717D-04 -0.50271887D-04
 -0.23170267D-04  0.64971846D-04 -0.16524000D-03 -0.12669555D-03 -0.63229959D-04
 -0.68116111D-04 -0.52227114D-04 -0.26064990D-04  0.62501649D-07  0.47922300D-07
  0.23916587D-07 -0.12331104D-02 -0.26128754D-03 -0.49949306D-03  0.23721777D-06
  0.75138656D-04 -0.94461519D-05  0.62981632D-05 -0.78648635D-05 -0.14322673D-07
  0.10296457D-06 -0.48018864D-04 -0.88585428D-04 -0.14300435D-03 -0.18614917D-03
 -0.15884142D-03 -0.54844126D-04  0.12908302D-03  0.59494248D-04 -0.16682808D-03
 -0.17381802D-03 -0.13327263D-03 -0.66512383D-04  0.41572091D-06  0.31874842D-06
  0.15907780D-06  0.14355268D-07  0.11006709D-07  0.54931191D-08  0.92691151D-03
  0.65349435D-03 -0.83029501D-04 -0.15274067D-06 -0.49725084D-04  0.60880682D-04
 -0.13694818D-03 -0.14834261D-04 -0.65863143D-07 -0.76058735D-07  0.35837042D-04
  0.66112344D-04  0.10672582D-03  0.13892531D-03  0.11854522D-03  0.40930815D-04
 -0.43609898D-04 -0.20099762D-04  0.56361831D-04 -0.16455163D-03 -0.12616775D-03
 -0.62966550D-04  0.54668325D-04  0.41916204D-04  0.20919124D-04 -0.16079206D-07
 -0.12328515D-07 -0.61527931D-08 -0.12457813D-02 -0.34866741D-03  0.40422819D-03
 -0.11081110D-06  0.72196994D-04  0.23187085D-04  0.31487081D-05 -0.76004150D-04
 -0.14606660D-07  0.80180819D-07  0.13601559D-02  0.25092221D-02  0.40506625D-02
  0.52727591D-02  0.44992549D-02  0.15534846D-02  0.28672538D-03  0.13215147D-03
 -0.37056650D-03 -0.42881130D-04 -0.32878530D-04 -0.16408691D-04  0.38861029D-03
  0.29796172D-03  0.14870378D-03 -0.11345134D-06 -0.86987292D-07 -0.43412755D-07
  0.22988474D-02 -0.44745055D-03 -0.10162371D-02  0.36013969D-06 -0.39187185D-03
 -0.31343950D-03 -0.34309295D-03  0.28517467D-03 -0.74225326D-07 -0.37901028D-07
  0.53254656D+00  0.98244442D+00  0.15859699D+01  0.20644616D+01  0.17616088D+01
  0.60824119D+00 -0.19733577D-01 -0.90951875D-02  0.25503855D-01  0.10427524D-02
  0.79951638D-03  0.39901471D-03 -0.20620085D-03 -0.15810173D-03 -0.78903846D-04
 -0.15599202D-06 -0.11960479D-06 -0.59691171D-07 -0.33279613D-02  0.16613146D-02
 -0.14448814D-03 -0.23308041D-06 -0.92481535D-02 -0.10075343D-01 -0.10514106D-01
 -0.28443805D-03 -0.49774369D-06 -0.12562268D-06 -0.24669951D-04 -0.41844906D-04
 -0.47638946D-04 -0.11720290D-03 -0.16724548D-04 -0.28367999D-04 -0.32295964D-04
 -0.97320173D-04  0.37597104D-04  0.63771805D-04  0.72601945D-04  0.33210301D-03
  0.11499664D-03  0.21165521D-03  0.34249808D-03  0.45022332D-03  0.38615392D-03
  0.13203258D-03 -0.71117395D-03 -0.31732443D-03  0.93706330D-03  0.14941559D-03
  0.11511666D-03  0.50542413D-04 -0.28042112D-04 -0.21604936D-04 -0.94857305D-05
  0.63073582D-07  0.48594795D-07  0.21335732D-07 -0.17929679D-02  0.79264095D-03
  0.87514663D-05 -0.20974075D-06 -0.36694954D-03  0.74888220D-03  0.10378203D-02
  0.12256868D-03  0.63526314D-06  0.87695039D-07  0.64002134D-04  0.10855973D-03
  0.12359142D-03 -0.96317537D-05 -0.79389453D-04 -0.14611897D-03 -0.23644808D-03
 -0.31081762D-03 -0.26658647D-03 -0.91150441D-04  0.28019643D-03  0.12502310D-03
 -0.36919489D-03  0.56110604D-04  0.43230195D-04  0.18980384D-04  0.56341484D-04
  0.43408076D-04  0.19058483D-04  0.17631601D-07  0.13584198D-07  0.59641946D-08
  0.81958348D-03 -0.13064483D-03  0.80923855D-04  0.16060035D-07 -0.25297925D-03
 -0.23014902D-03 -0.30750100D-03 -0.11576737D-04 -0.41940974D-07 -0.26531936D-07
 -0.89602445D-05 -0.16529902D-04 -0.26684386D-04 -0.34735142D-04 -0.29639560D-04
 -0.10233828D-04  0.38094198D-04  0.17557581D-04 -0.49233290D-04  0.73645779D-04
  0.56466912D-04  0.28180947D-04 -0.49555329D-05 -0.37995883D-05 -0.18962609D-05
  0.32941088D-08  0.25257137D-08  0.12605081D-08  0.35491189D-03  0.10524291D-03
 -0.23574766D-04 -0.15240344D-06  0.25045015D-04  0.74931595D-05 -0.25598718D-04
  0.13016571D-04 -0.31870854D-07  0.14223298D-06 -0.53934701D-05 -0.91483462D-05
 -0.10415069D-04 -0.72719151D-05 -0.53912286D-05 -0.91445442D-05 -0.10410740D-04
 -0.73712315D-05  0.10654054D-04  0.19609147D-04  0.31731302D-04  0.41711684D-04
  0.35775869D-04  0.12232377D-04 -0.33898894D-04 -0.15125620D-04  0.44666160D-04
  0.96578873D-05  0.74408815D-05  0.32669478D-05 -0.78513301D-05 -0.60490266D-05
 -0.26558485D-05  0.15732155D-06  0.12120778D-06  0.53216742D-07 -0.91844084D-04
 -0.16212876D-04 -0.22591818D-04 -0.12345580D-06  0.47931141D-04  0.28948217D-04
  0.38609666D-04 -0.15916663D-04 -0.68823391D-07 -0.44729892D-07  0.72570100D-06
  0.12309263D-05  0.14013660D-05  0.80888903D-05
MO    5     MO 0.0        OCC NO =    2.0000000  ORB. ENERGY =  -10.491965
  0.53258041D+00  0.98250687D+00  0.15860707D+01  0.20645928D+01  0.17617208D+01
  0.60827985D+00 -0.19951652D-01 -0.91956982D-02  0.25785698D-01  0.74544091D-03
  0.57155681D-03  0.28524691D-03 -0.28563060D-03 -0.21900343D-03 -0.10929806D-03
 -0.74608307D-07 -0.57204918D-07 -0.28549263D-07 -0.33574115D-02  0.10976730D-02
 -0.17797404D-02 -0.33592540D-07 -0.98322026D-02 -0.94845966D-02 -0.10425298D-01
 -0.98102682D-03 -0.13647438D-06 -0.93044254D-07  0.97017556D-03  0.17897845D-02
  0.28892671D-02  0.37609673D-02  0.32092402D-02  0.11080735D-02  0.30891493D-03
  0.14237861D-03 -0.39924448D-03 -0.31776834D-03 -0.24364461D-03 -0.12159574D-03
 -0.15695669D-03 -0.12034443D-03 -0.60060306D-04  0.95630560D-07  0.73323448D-07