 Entering Link 1 = D:\Gaussian\G16W\l1.exe PID=     21320.
  
 Copyright (c) 1988,1990,1992,1993,1995,1998,2003,2009,2016,
            Gaussian, Inc.  All Rights Reserved.
  
 This is part of the Gaussian(R) 16 program.  It is based on
 the Gaussian(R) 09 system (copyright 2009, Gaussian, Inc.),
 the Gaussian(R) 03 system (copyright 2003, Gaussian, Inc.),
 the Gaussian(R) 98 system (copyright 1998, Gaussian, Inc.),
 the Gaussian(R) 94 system (copyright 1995, Gaussian, Inc.),
 the Gaussian 92(TM) system (copyright 1992, Gaussian, Inc.),
 the Gaussian 90(TM) system (copyright 1990, Gaussian, Inc.),
 the Gaussian 88(TM) system (copyright 1988, Gaussian, Inc.),
 the Gaussian 86(TM) system (copyright 1986, Carnegie Mellon
 University), and the Gaussian 82(TM) system (copyright 1983,
 Carnegie Mellon University). Gaussian is a federally registered
 trademark of Gaussian, Inc.
  
 This software contains proprietary and confidential information,
 including trade secrets, belonging to Gaussian, Inc.
  
 This software is provided under written license and may be
 used, copied, transmitted, or stored only in accord with that
 written license.
  
 The following legend is applicable only to US Government
 contracts under FAR:
  
                    RESTRICTED RIGHTS LEGEND
  
 Use, reproduction and disclosure by the US Government is
 subject to restrictions as set forth in subparagraphs (a)
 and (c) of the Commercial Computer Software - Restricted
 Rights clause in FAR 52.227-19.
  
 Gaussian, Inc.
 340 Quinnipiac St., Bldg. 40, Wallingford CT 06492
  
  
 ---------------------------------------------------------------
 Warning -- This program may not be used in any manner that
 competes with the business of Gaussian, Inc. or will provide
 assistance to any competitor of Gaussian, Inc.  The licensee
 of this program is prohibited from giving any competitor of
 Gaussian, Inc. access to this program.  By using this program,
 the user acknowledges that Gaussian, Inc. is engaged in the
 business of creating and licensing software in the field of
 computational chemistry and represents and warrants to the
 licensee that it is not a competitor of Gaussian, Inc. and that
 it will not use this program in any manner prohibited above.
 ---------------------------------------------------------------
  

 Cite this work as:
 Gaussian 16, Revision A.03,
 M. J. Frisch, G. W. Trucks, H. B. Schlegel, G. E. Scuseria, 
 M. A. Robb, J. R. Cheeseman, G. Scalmani, V. Barone, 
 G. A. Petersson, H. Nakatsuji, X. Li, M. Caricato, A. V. Marenich, 
 J. Bloino, B. G. Janesko, R. Gomperts, B. Mennucci, H. P. Hratchian, 
 J. V. Ortiz, A. F. Izmaylov, J. L. Sonnenberg, D. Williams-Young, 
 F. Ding, F. Lipparini, F. Egidi, J. Goings, B. Peng, A. Petrone, 
 T. Henderson, D. Ranasinghe, V. G. Zakrzewski, J. Gao, N. Rega, 
 G. Zheng, W. Liang, M. Hada, M. Ehara, K. Toyota, R. Fukuda, 
 J. Hasegawa, M. Ishida, T. Nakajima, Y. Honda, O. Kitao, H. Nakai, 
 T. Vreven, K. Throssell, J. A. Montgomery, Jr., J. E. Peralta, 
 F. Ogliaro, M. J. Bearpark, J. J. Heyd, E. N. Brothers, K. N. Kudin, 
 V. N. Staroverov, T. A. Keith, R. Kobayashi, J. Normand, 
 K. Raghavachari, A. P. Rendell, J. C. Burant, S. S. Iyengar, 
 J. Tomasi, M. Cossi, J. M. Millam, M. Klene, C. Adamo, R. Cammi, 
 J. W. Ochterski, R. L. Martin, K. Morokuma, O. Farkas, 
 J. B. Foresman, and D. J. Fox, Gaussian, Inc., Wallingford CT, 2016.
 
 ******************************************
 Gaussian 16:  EM64W-G16RevA.03 17-Dec-2016
                08-Dec-2025 
 ******************************************
 %nprocs=   4
 Will use up to    4 processors via shared memory.
 ------------------------------------
 #P B3LYP/6-31G* SCF=conver=7 out=wfn
 ------------------------------------
 1/38=1,172=1/1;
 2/12=2,17=6,18=5,40=1/2;
 3/5=1,6=6,7=1,11=2,25=1,30=1,74=-5/1,2,3;
 4//1;
 5/5=2,6=7,38=5/2;
 6/7=2,8=2,9=2,10=2,28=1/1;
 99/5=1,6=100,9=1/99;
 Leave Link    1 at Mon Dec 08 16:21:47 2025, MaxMem=           0 cpu:               0.0 elap:               0.1
 (Enter D:\Gaussian\G16W\l101.exe)
 ----------------------------------------------------
 Generated by Multiwfn (http://sobereva.com/multiwfn)
 ----------------------------------------------------
 Symbolic Z-matrix:
 Charge =  0 Multiplicity = 2
 C                     0.9834   -0.88795   0.00027 
 C                    -0.45478  -0.84157   0.00072 
 C                    -1.11022   0.36099   0.00054 
 C                    -0.37033   1.58143  -0.00015 
 C                     1.01656   1.60386  -0.00035 
 C                     1.69933   0.39337  -0.00012 
 H                    -0.99894  -1.77585   0.00119 
 H                    -0.91147   2.52254  -0.00049 
 H                     1.569     2.53544  -0.00071 
 O                     3.02753   0.31205  -0.00038 
 H                     3.20589  -0.65382  -0.00028 
 O                     1.67863  -1.92952   0.00026 
 C                    -2.61725   0.44433   0.00114 
 H                    -2.93759   1.0116    0.8888 
 H                    -2.938     1.01676  -0.88307 
 O                    -3.17344  -0.85827  -0.00252 
 H                    -4.13085  -0.77759   0.0034 
 
 ITRead=  0  0  0  0  0  0  0  0  0  0  0  0  0  0  0  0  0
 MicOpt= -1 -1 -1 -1 -1 -1 -1 -1 -1 -1 -1 -1 -1 -1 -1 -1 -1
 NAtoms=     17 NQM=       17 NQMF=       0 NMMI=      0 NMMIF=      0
                NMic=       0 NMicF=      0.
                    Isotopes and Nuclear Properties:
 (Nuclear quadrupole moments (NQMom) in fm**2, nuclear magnetic moments (NMagM)
  in nuclear magnetons)

  Atom         1           2           3           4           5           6           7           8           9          10
 IAtWgt=          12          12          12          12          12          12           1           1           1          16
 AtmWgt=  12.0000000  12.0000000  12.0000000  12.0000000  12.0000000  12.0000000   1.0078250   1.0078250   1.0078250  15.9949146
 NucSpn=           0           0           0           0           0           0           1           1           1           0
 AtZEff=   0.0000000   0.0000000   0.0000000   0.0000000   0.0000000   0.0000000   0.0000000   0.0000000   0.0000000   0.0000000
 NQMom=    0.0000000   0.0000000   0.0000000   0.0000000   0.0000000   0.0000000   0.0000000   0.0000000   0.0000000   0.0000000
 NMagM=    0.0000000   0.0000000   0.0000000   0.0000000   0.0000000   0.0000000   2.7928460   2.7928460   2.7928460   0.0000000
 AtZNuc=   6.0000000   6.0000000   6.0000000   6.0000000   6.0000000   6.0000000   1.0000000   1.0000000   1.0000000   8.0000000

  Atom        11          12          13          14          15          16          17
 IAtWgt=           1          16          12           1           1          16           1
 AtmWgt=   1.0078250  15.9949146  12.0000000   1.0078250   1.0078250  15.9949146   1.0078250
 NucSpn=           1           0           0           1           1           0           1
 AtZEff=   0.0000000   0.0000000   0.0000000   0.0000000   0.0000000   0.0000000   0.0000000
 NQMom=    0.0000000   0.0000000   0.0000000   0.0000000   0.0000000   0.0000000   0.0000000
 NMagM=    2.7928460   0.0000000   0.0000000   2.7928460   2.7928460   0.0000000   2.7928460
 AtZNuc=   1.0000000   8.0000000   6.0000000   1.0000000   1.0000000   8.0000000   1.0000000
 Leave Link  101 at Mon Dec 08 16:21:47 2025, MaxMem=   104857600 cpu:               0.0 elap:               0.1
 (Enter D:\Gaussian\G16W\l202.exe)
                          Input orientation:                          
 ---------------------------------------------------------------------
 Center     Atomic      Atomic             Coordinates (Angstroms)
 Number     Number       Type             X           Y           Z
 ---------------------------------------------------------------------
      1          6           0        0.983399   -0.887950    0.000272
      2          6           0       -0.454781   -0.841571    0.000721
      3          6           0       -1.110221    0.360995    0.000537
      4          6           0       -0.370331    1.581430   -0.000149
      5          6           0        1.016564    1.603859   -0.000350
      6          6           0        1.699334    0.393372   -0.000123
      7          1           0       -0.998944   -1.775848    0.001191
      8          1           0       -0.911475    2.522538   -0.000485
      9          1           0        1.568995    2.535445   -0.000709
     10          8           0        3.027528    0.312052   -0.000383
     11          1           0        3.205888   -0.653820   -0.000284
     12          8           0        1.678625   -1.929520    0.000261
     13          6           0       -2.617251    0.444332    0.001142
     14          1           0       -2.937593    1.011596    0.888798
     15          1           0       -2.937999    1.016764   -0.883069
     16          8           0       -3.173441   -0.858267   -0.002521
     17          1           0       -4.130849   -0.777590    0.003405
 ---------------------------------------------------------------------
                    Distance matrix (angstroms):
                    1          2          3          4          5
     1  C    0.000000
     2  C    1.438928   0.000000
     3  C    2.437849   1.369586   0.000000
     4  C    2.816101   2.424472   1.427200   0.000000
     5  C    2.492030   2.853942   2.463316   1.387076   0.000000
     6  C    1.467770   2.483001   2.809742   2.386419   1.389768
     7  H    2.172107   1.081197   2.139739   3.415622   3.935060
     8  H    3.901535   3.394967   2.170661   1.085597   2.135721
     9  H    3.473119   3.936992   3.450570   2.161280   1.083066
    10  O    2.370331   3.668422   4.138039   3.627226   2.390134
    11  H    2.234787   3.665481   4.433807   4.217308   3.144877
    12  O    1.252281   2.394797   3.608895   4.065094   3.594870
    13  C    3.839226   2.515914   1.509333   2.518262   3.814330
    14  H    4.446564   3.222928   2.133443   2.775927   4.095939
    15  H    4.448099   3.225037   2.133440   2.773322   4.094196
    16  O    4.156947   2.718713   2.396557   3.716121   4.859857
    17  H    5.115440   3.676626   3.228092   4.439199   5.671611
                    6          7          8          9         10
     6  C    0.000000
     7  H    3.462112   0.000000
     8  H    3.368927   4.299276   0.000000
     9  H    2.146035   5.018123   2.480504   0.000000
    10  O    1.330681   4.535615   4.516857   2.659097   0.000000
    11  H    1.834752   4.351961   5.200185   3.584805   0.982202
    12  O    2.322984   2.681975   5.150674   4.466311   2.616139
    13  C    4.316886   2.747384   2.688608   4.679467   5.646329
    14  H    4.761667   3.509423   2.679351   4.839698   6.071464
    15  H    4.761625   3.512909   2.674530   4.837142   6.071513
    16  O    5.030958   2.360171   4.067719   5.831636   6.310441
    17  H    5.946612   3.287150   4.610339   6.592757   7.240835
                   11         12         13         14         15
    11  H    0.000000
    12  O    1.989961   0.000000
    13  C    5.925782   4.908128   0.000000
    14  H    6.427008   5.545190   1.101063   0.000000
    15  H    6.427870   5.547439   1.101084   1.771875   0.000000
    16  O    6.382605   4.968917   1.416377   2.084817   2.084835
    17  H    7.337782   5.922579   1.945271   2.325719   2.329900
                   16         17
    16  O    0.000000
    17  H    0.960819   0.000000
 Stoichiometry    C7H7O3(2)
 Framework group  C1[X(C7H7O3)]
 Deg. of freedom    45
 Full point group                 C1      NOp   1
 Largest Abelian subgroup         C1      NOp   1
 Largest concise Abelian subgroup C1      NOp   1
                         Standard orientation:                         
 ---------------------------------------------------------------------
 Center     Atomic      Atomic             Coordinates (Angstroms)
 Number     Number       Type             X           Y           Z
 ---------------------------------------------------------------------
      1          6           0        0.983399   -0.887950    0.000272
      2          6           0       -0.454781   -0.841571    0.000721
      3          6           0       -1.110221    0.360995    0.000537
      4          6           0       -0.370331    1.581430   -0.000149
      5          6           0        1.016564    1.603859   -0.000350
      6          6           0        1.699334    0.393372   -0.000123
      7          1           0       -0.998944   -1.775848    0.001191
      8          1           0       -0.911475    2.522538   -0.000485
      9          1           0        1.568995    2.535445   -0.000709
     10          8           0        3.027528    0.312052   -0.000383
     11          1           0        3.205888   -0.653820   -0.000284
     12          8           0        1.678625   -1.929520    0.000261
     13          6           0       -2.617251    0.444332    0.001142
     14          1           0       -2.937593    1.011596    0.888798
     15          1           0       -2.937999    1.016764   -0.883069
     16          8           0       -3.173441   -0.858267   -0.002521
     17          1           0       -4.130849   -0.777590    0.003405
 ---------------------------------------------------------------------
 Rotational constants (GHZ):           2.8364562           0.8975893           0.6847503
 Leave Link  202 at Mon Dec 08 16:21:47 2025, MaxMem=   104857600 cpu:               0.0 elap:               0.0
 (Enter D:\Gaussian\G16W\l301.exe)
 Standard basis: 6-31G(d) (6D, 7F)
 Ernie: Thresh=  0.10000D-02 Tol=  0.10000D-05 Strict=F.
 There are   164 symmetry adapted cartesian basis functions of A   symmetry.
 There are   164 symmetry adapted basis functions of A   symmetry.
   164 basis functions,   308 primitive gaussians,   164 cartesian basis functions
    37 alpha electrons       36 beta electrons
       nuclear repulsion energy       500.6695092960 Hartrees.
 IExCor=  402 DFT=T Ex+Corr=B3LYP ExCW=0 ScaHFX=  0.200000
 ScaDFX=  0.800000  0.720000  1.000000  0.810000 ScalE2=  1.000000  1.000000
 IRadAn=      5 IRanWt=     -1 IRanGd=            0 ICorTp=0 IEmpDi=  4
 NAtoms=   17 NActive=   17 NUniq=   17 SFac= 1.00D+00 NAtFMM=   60 NAOKFM=F Big=F
 Integral buffers will be    131072 words long.
 Raffenetti 2 integral format.
 Two-electron integral symmetry is turned on.
 Leave Link  301 at Mon Dec 08 16:21:47 2025, MaxMem=   104857600 cpu:               0.0 elap:               0.1
 (Enter D:\Gaussian\G16W\l302.exe)
 NPDir=0 NMtPBC=     1 NCelOv=     1 NCel=       1 NClECP=     1 NCelD=      1
         NCelK=      1 NCelE2=     1 NClLst=     1 CellRange=     0.0.
 One-electron integrals computed using PRISM.
 One-electron integral symmetry used in STVInt
 NBasis=   164 RedAO= T EigKep=  4.44D-04  NBF=   164
 NBsUse=   164 1.00D-06 EigRej= -1.00D+00 NBFU=   164
 Precomputing XC quadrature grid using
 IXCGrd= 4 IRadAn=           5 IRanWt=          -1 IRanGd=           0 AccXCQ= 0.00D+00.
 Generated NRdTot=       0 NPtTot=           0 NUsed=           0 NTot=          32
 NSgBfM=   163   163   163   163   163 MxSgAt=    17 MxSgA2=    17.
 Leave Link  302 at Mon Dec 08 16:21:47 2025, MaxMem=   104857600 cpu:               0.0 elap:               0.3
 (Enter D:\Gaussian\G16W\l303.exe)
 DipDrv:  MaxL=1.
 Leave Link  303 at Mon Dec 08 16:21:47 2025, MaxMem=   104857600 cpu:               0.0 elap:               0.1
 (Enter D:\Gaussian\G16W\l401.exe)
 ExpMin= 1.61D-01 ExpMax= 5.48D+03 ExpMxC= 8.25D+02 IAcc=3 IRadAn=         5 AccDes= 0.00D+00
 Harris functional with IExCor=  402 and IRadAn=       5 diagonalized for initial guess.
 HarFok:  IExCor=  402 AccDes= 0.00D+00 IRadAn=         5 IDoV= 1 UseB2=F ITyADJ=14
 ICtDFT=  3500011 ScaDFX=  1.000000  1.000000  1.000000  1.000000
 FoFCou: FMM=F IPFlag=           0 FMFlag=      100000 FMFlg1=           0
         NFxFlg=           0 DoJE=T BraDBF=F KetDBF=T FulRan=T
         wScrn=  0.000000 ICntrl=       500 IOpCl=  0 I1Cent=   200000004 NGrid=           0
         NMat0=    1 NMatS0=      1 NMatT0=    0 NMatD0=    1 NMtDS0=    0 NMtDT0=    0
 Petite list used in FoFCou.
 Harris En= -496.587909683837    
 JPrj=0 DoOrth=F DoCkMO=F.
 Initial guess <Sx>= 0.0000 <Sy>= 0.0000 <Sz>= 0.5000 <S**2>= 0.7500 S= 0.5000
 Leave Link  401 at Mon Dec 08 16:21:48 2025, MaxMem=   104857600 cpu:               1.0 elap:               1.0
 (Enter D:\Gaussian\G16W\l502.exe)
 Integral symmetry usage will be decided dynamically.
 UHF open shell SCF:
 Using DIIS extrapolation, IDIIS=  1040.
 NGot=   104857600 LenX=   104800923 LenY=   104773586
 Requested convergence on RMS density matrix=1.00D-07 within 128 cycles.
 Requested convergence on MAX density matrix=1.00D-05.
 Requested convergence on             energy=1.00D-05.
 No special actions if energy rises.
 Fock matrices will be formed incrementally for  20 cycles.
 Integral accuracy reduced to 1.0D-05 until final iterations.

 Cycle   1  Pass 0  IDiag  1:
 FoFJK:  IHMeth= 1 ICntrl=       0 DoSepK=F KAlg= 0 I1Cent=           0 FoldK=F
 IRaf= 920000000 NMat=       1 IRICut=       1 DoRegI=T DoRafI=F ISym2E= 0 IDoP0=0 IntGTp=1.
 FoFCou: FMM=F IPFlag=           0 FMFlag=      100000 FMFlg1=           0
         NFxFlg=           0 DoJE=F BraDBF=F KetDBF=F FulRan=T
         wScrn=  0.000000 ICntrl=         0 IOpCl=  1 I1Cent=           0 NGrid=           0
         NMat0=    1 NMatS0=      1 NMatT0=    0 NMatD0=    1 NMtDS0=    0 NMtDT0=    0
 Symmetry not used in FoFCou.
 E= -496.353394407406    
 DIIS: error= 3.39D-02 at cycle   1 NSaved=   1.
 NSaved= 1 IEnMin= 1 EnMin= -496.353394407406     IErMin= 1 ErrMin= 3.39D-02
 ErrMax= 3.39D-02  0.00D+00 EMaxC= 1.00D-01 BMatC= 1.01D+00 BMatP= 1.01D+00
 IDIUse=3 WtCom= 6.61D-01 WtEn= 3.39D-01
 Coeff-Com:  0.100D+01
 Coeff-En:   0.100D+01
 Coeff:      0.100D+01
 Gap=     0.201 Goal=   None    Shift=    0.000
 Gap=     0.083 Goal=   None    Shift=    0.000
 GapD=    0.083 DampG=0.500 DampE=0.500 DampFc=0.2500 IDamp=-1.
 Damping current iteration by 2.50D-01
 RMSDP=7.70D-03 MaxDP=2.12D-01              OVMax= 3.68D-01

 Cycle   2  Pass 0  IDiag  1:
 RMSU=  1.92D-03    CP:  9.93D-01
 E= -496.432796975544     Delta-E=       -0.079402568138 Rises=F Damp=T
 DIIS: error= 1.83D-02 at cycle   2 NSaved=   2.
 NSaved= 2 IEnMin= 2 EnMin= -496.432796975544     IErMin= 2 ErrMin= 1.83D-02
 ErrMax= 1.83D-02  0.00D+00 EMaxC= 1.00D-01 BMatC= 2.29D-01 BMatP= 1.01D+00
 IDIUse=3 WtCom= 8.17D-01 WtEn= 1.83D-01
 Coeff-Com: -0.630D+00 0.163D+01
 Coeff-En:   0.000D+00 0.100D+01
 Coeff:     -0.515D+00 0.151D+01
 Gap=     0.226 Goal=   None    Shift=    0.000
 Gap=     0.148 Goal=   None    Shift=    0.000
 RMSDP=2.35D-03 MaxDP=5.50D-02 DE=-7.94D-02 OVMax= 2.69D-01

 Cycle   3  Pass 0  IDiag  1:
 RMSU=  2.09D-03    CP:  9.76D-01  1.50D+00
 E= -496.551754645754     Delta-E=       -0.118957670210 Rises=F Damp=F
 DIIS: error= 1.37D-02 at cycle   3 NSaved=   3.
 NSaved= 3 IEnMin= 3 EnMin= -496.551754645754     IErMin= 3 ErrMin= 1.37D-02
 ErrMax= 1.37D-02  0.00D+00 EMaxC= 1.00D-01 BMatC= 1.19D-01 BMatP= 2.29D-01
 IDIUse=3 WtCom= 8.63D-01 WtEn= 1.37D-01
 Coeff-Com: -0.384D+00 0.917D+00 0.466D+00
 Coeff-En:   0.000D+00 0.000D+00 0.100D+01
 Coeff:     -0.331D+00 0.792D+00 0.539D+00
 Gap=     0.199 Goal=   None    Shift=    0.000
 Gap=     0.120 Goal=   None    Shift=    0.000
 RMSDP=1.70D-03 MaxDP=6.96D-02 DE=-1.19D-01 OVMax= 1.24D-01

 Cycle   4  Pass 0  IDiag  1:
 RMSU=  1.10D-03    CP:  9.80D-01  1.68D+00  4.09D-01
 E= -496.571068526338     Delta-E=       -0.019313880584 Rises=F Damp=F
 DIIS: error= 8.32D-03 at cycle   4 NSaved=   4.
 NSaved= 4 IEnMin= 4 EnMin= -496.571068526338     IErMin= 4 ErrMin= 8.32D-03
 ErrMax= 8.32D-03  0.00D+00 EMaxC= 1.00D-01 BMatC= 4.22D-02 BMatP= 1.19D-01
 IDIUse=3 WtCom= 9.17D-01 WtEn= 8.32D-02
 Coeff-Com: -0.655D-01 0.182D+00 0.365D+00 0.518D+00
 Coeff-En:   0.000D+00 0.000D+00 0.279D+00 0.721D+00
 Coeff:     -0.601D-01 0.167D+00 0.358D+00 0.535D+00
 Gap=     0.202 Goal=   None    Shift=    0.000
 Gap=     0.135 Goal=   None    Shift=    0.000
 RMSDP=7.65D-04 MaxDP=2.76D-02 DE=-1.93D-02 OVMax= 4.40D-02

 Cycle   5  Pass 0  IDiag  1:
 RMSU=  3.56D-04    CP:  9.79D-01  1.56D+00  6.16D-01  5.76D-01
 E= -496.579632148955     Delta-E=       -0.008563622617 Rises=F Damp=F
 DIIS: error= 1.67D-03 at cycle   5 NSaved=   5.
 NSaved= 5 IEnMin= 5 EnMin= -496.579632148955     IErMin= 5 ErrMin= 1.67D-03
 ErrMax= 1.67D-03  0.00D+00 EMaxC= 1.00D-01 BMatC= 2.52D-03 BMatP= 4.22D-02
 IDIUse=3 WtCom= 9.83D-01 WtEn= 1.67D-02
 Coeff-Com:  0.975D-02-0.409D-02 0.156D+00 0.307D+00 0.531D+00
 Coeff-En:   0.000D+00 0.000D+00 0.000D+00 0.000D+00 0.100D+01
 Coeff:      0.959D-02-0.402D-02 0.154D+00 0.302D+00 0.538D+00
 Gap=     0.200 Goal=   None    Shift=    0.000
 Gap=     0.117 Goal=   None    Shift=    0.000
 RMSDP=2.00D-04 MaxDP=7.96D-03 DE=-8.56D-03 OVMax= 1.38D-02

 Cycle   6  Pass 0  IDiag  1:
 RMSU=  1.33D-04    CP:  9.79D-01  1.57D+00  6.22D-01  6.47D-01  6.52D-01
 E= -496.580277750915     Delta-E=       -0.000645601960 Rises=F Damp=F
 DIIS: error= 6.15D-04 at cycle   6 NSaved=   6.
 NSaved= 6 IEnMin= 6 EnMin= -496.580277750915     IErMin= 6 ErrMin= 6.15D-04
 ErrMax= 6.15D-04  0.00D+00 EMaxC= 1.00D-01 BMatC= 2.53D-04 BMatP= 2.52D-03
 IDIUse=3 WtCom= 9.94D-01 WtEn= 6.15D-03
 Coeff-Com:  0.137D-01-0.239D-01 0.264D-01 0.509D-01 0.226D+00 0.707D+00
 Coeff-En:   0.000D+00 0.000D+00 0.000D+00 0.000D+00 0.000D+00 0.100D+01
 Coeff:      0.136D-01-0.237D-01 0.263D-01 0.506D-01 0.225D+00 0.709D+00
 Gap=     0.201 Goal=   None    Shift=    0.000
 Gap=     0.118 Goal=   None    Shift=    0.000
 RMSDP=8.60D-05 MaxDP=3.09D-03 DE=-6.46D-04 OVMax= 7.88D-03

 Cycle   7  Pass 0  IDiag  1:
 RMSU=  7.17D-05    CP:  9.79D-01  1.57D+00  6.27D-01  6.46D-01  7.80D-01
                    CP:  1.03D+00
 E= -496.580371885499     Delta-E=       -0.000094134584 Rises=F Damp=F
 DIIS: error= 5.83D-04 at cycle   7 NSaved=   7.
 NSaved= 7 IEnMin= 7 EnMin= -496.580371885499     IErMin= 7 ErrMin= 5.83D-04
 ErrMax= 5.83D-04  0.00D+00 EMaxC= 1.00D-01 BMatC= 1.24D-04 BMatP= 2.53D-04
 IDIUse=3 WtCom= 9.94D-01 WtEn= 5.83D-03
 Coeff-Com:  0.691D-02-0.146D-01-0.248D-01-0.637D-01-0.718D-02 0.471D+00
 Coeff-Com:  0.633D+00
 Coeff-En:   0.000D+00 0.000D+00 0.000D+00 0.000D+00 0.000D+00 0.000D+00
 Coeff-En:   0.100D+01
 Coeff:      0.687D-02-0.146D-01-0.247D-01-0.634D-01-0.714D-02 0.468D+00
 Coeff:      0.635D+00
 Gap=     0.201 Goal=   None    Shift=    0.000
 Gap=     0.119 Goal=   None    Shift=    0.000
 RMSDP=5.78D-05 MaxDP=2.40D-03 DE=-9.41D-05 OVMax= 5.89D-03

 Cycle   8  Pass 0  IDiag  1:
 RMSU=  3.68D-05    CP:  9.79D-01  1.57D+00  6.32D-01  6.56D-01  8.25D-01
                    CP:  1.31D+00  8.82D-01
 E= -496.580427534887     Delta-E=       -0.000055649388 Rises=F Damp=F
 DIIS: error= 1.96D-04 at cycle   8 NSaved=   8.
 NSaved= 8 IEnMin= 8 EnMin= -496.580427534887     IErMin= 8 ErrMin= 1.96D-04
 ErrMax= 1.96D-04  0.00D+00 EMaxC= 1.00D-01 BMatC= 2.36D-05 BMatP= 1.24D-04
 IDIUse=3 WtCom= 9.98D-01 WtEn= 1.96D-03
 Coeff-Com: -0.603D-03 0.111D-02-0.172D-01-0.507D-01-0.928D-01-0.115D+00
 Coeff-Com:  0.248D+00 0.103D+01
 Coeff-En:   0.000D+00 0.000D+00 0.000D+00 0.000D+00 0.000D+00 0.000D+00
 Coeff-En:   0.000D+00 0.100D+01
 Coeff:     -0.602D-03 0.111D-02-0.171D-01-0.506D-01-0.926D-01-0.115D+00
 Coeff:      0.247D+00 0.103D+01
 Gap=     0.202 Goal=   None    Shift=    0.000
 Gap=     0.119 Goal=   None    Shift=    0.000
 RMSDP=4.96D-05 MaxDP=1.80D-03 DE=-5.56D-05 OVMax= 5.72D-03

 Cycle   9  Pass 0  IDiag  1:
 RMSU=  1.49D-05    CP:  9.79D-01  1.56D+00  6.38D-01  6.55D-01  8.86D-01
                    CP:  1.53D+00  1.23D+00  1.29D+00
 E= -496.580447647978     Delta-E=       -0.000020113091 Rises=F Damp=F
 DIIS: error= 9.33D-05 at cycle   9 NSaved=   9.
 NSaved= 9 IEnMin= 9 EnMin= -496.580447647978     IErMin= 9 ErrMin= 9.33D-05
 ErrMax= 9.33D-05  0.00D+00 EMaxC= 1.00D-01 BMatC= 5.68D-06 BMatP= 2.36D-05
 IDIUse=1 WtCom= 1.00D+00 WtEn= 0.00D+00
 Coeff-Com: -0.111D-02 0.244D-02-0.556D-02-0.200D-01-0.517D-01-0.137D+00
 Coeff-Com:  0.514D-01 0.573D+00 0.588D+00
 Coeff:     -0.111D-02 0.244D-02-0.556D-02-0.200D-01-0.517D-01-0.137D+00
 Coeff:      0.514D-01 0.573D+00 0.588D+00
 Gap=     0.202 Goal=   None    Shift=    0.000
 Gap=     0.119 Goal=   None    Shift=    0.000
 RMSDP=1.45D-05 MaxDP=6.78D-04 DE=-2.01D-05 OVMax= 2.23D-03

 Cycle  10  Pass 0  IDiag  1:
 RMSU=  8.19D-06    CP:  9.79D-01  1.56D+00  6.39D-01  6.56D-01  8.95D-01
                    CP:  1.58D+00  1.31D+00  1.44D+00  8.53D-01
 E= -496.580450308360     Delta-E=       -0.000002660383 Rises=F Damp=F
 DIIS: error= 4.35D-05 at cycle  10 NSaved=  10.
 NSaved=10 IEnMin=10 EnMin= -496.580450308360     IErMin=10 ErrMin= 4.35D-05
 ErrMax= 4.35D-05  0.00D+00 EMaxC= 1.00D-01 BMatC= 9.69D-07 BMatP= 5.68D-06
 IDIUse=1 WtCom= 1.00D+00 WtEn= 0.00D+00
 Coeff-Com:  0.115D-04 0.228D-03 0.306D-02 0.666D-02 0.700D-02-0.218D-01
 Coeff-Com: -0.487D-01-0.786D-01 0.265D+00 0.867D+00
 Coeff:      0.115D-04 0.228D-03 0.306D-02 0.666D-02 0.700D-02-0.218D-01
 Coeff:     -0.487D-01-0.786D-01 0.265D+00 0.867D+00
 Gap=     0.202 Goal=   None    Shift=    0.000
 Gap=     0.119 Goal=   None    Shift=    0.000
 RMSDP=8.74D-06 MaxDP=4.82D-04 DE=-2.66D-06 OVMax= 1.00D-03

 Initial convergence to 1.0D-05 achieved.  Increase integral accuracy.
 Cycle  11  Pass 1  IDiag  1:
 E= -496.580443542403     Delta-E=        0.000006765957 Rises=F Damp=F
 DIIS: error= 1.79D-05 at cycle   1 NSaved=   1.
 NSaved= 1 IEnMin= 1 EnMin= -496.580443542403     IErMin= 1 ErrMin= 1.79D-05
 ErrMax= 1.79D-05  0.00D+00 EMaxC= 1.00D-01 BMatC= 2.48D-07 BMatP= 2.48D-07
 IDIUse=1 WtCom= 1.00D+00 WtEn= 0.00D+00
 Coeff-Com:  0.100D+01
 Coeff:      0.100D+01
 Gap=     0.202 Goal=   None    Shift=    0.000
 Gap=     0.119 Goal=   None    Shift=    0.000
 RMSDP=8.74D-06 MaxDP=4.82D-04 DE= 6.77D-06 OVMax= 5.50D-04

 Cycle  12  Pass 1  IDiag  1:
 RMSU=  6.97D-06    CP:  1.00D+00
 E= -496.580443603333     Delta-E=       -0.000000060930 Rises=F Damp=F
 DIIS: error= 2.16D-05 at cycle   2 NSaved=   2.
 NSaved= 2 IEnMin= 2 EnMin= -496.580443603333     IErMin= 1 ErrMin= 1.79D-05
 ErrMax= 2.16D-05  0.00D+00 EMaxC= 1.00D-01 BMatC= 3.45D-07 BMatP= 2.48D-07
 IDIUse=1 WtCom= 1.00D+00 WtEn= 0.00D+00
 Coeff-Com:  0.554D+00 0.446D+00
 Coeff:      0.554D+00 0.446D+00
 Gap=     0.202 Goal=   None    Shift=    0.000
 Gap=     0.119 Goal=   None    Shift=    0.000
 RMSDP=2.29D-06 MaxDP=1.21D-04 DE=-6.09D-08 OVMax= 2.13D-04

 Cycle  13  Pass 1  IDiag  1:
 RMSU=  2.20D-06    CP:  1.00D+00  9.07D-01
 E= -496.580443698687     Delta-E=       -0.000000095354 Rises=F Damp=F
 DIIS: error= 9.49D-06 at cycle   3 NSaved=   3.
 NSaved= 3 IEnMin= 3 EnMin= -496.580443698687     IErMin= 3 ErrMin= 9.49D-06
 ErrMax= 9.49D-06  0.00D+00 EMaxC= 1.00D-01 BMatC= 2.68D-08 BMatP= 2.48D-07
 IDIUse=1 WtCom= 1.00D+00 WtEn= 0.00D+00
 Coeff-Com: -0.497D-01 0.139D+00 0.910D+00
 Coeff:     -0.497D-01 0.139D+00 0.910D+00
 Gap=     0.202 Goal=   None    Shift=    0.000
 Gap=     0.119 Goal=   None    Shift=    0.000
 RMSDP=1.38D-06 MaxDP=8.61D-05 DE=-9.54D-08 OVMax= 2.34D-04

 Cycle  14  Pass 1  IDiag  1:
 RMSU=  1.22D-06    CP:  1.00D+00  9.99D-01  1.01D+00
 E= -496.580443723325     Delta-E=       -0.000000024638 Rises=F Damp=F
 DIIS: error= 6.40D-06 at cycle   4 NSaved=   4.
 NSaved= 4 IEnMin= 4 EnMin= -496.580443723325     IErMin= 4 ErrMin= 6.40D-06
 ErrMax= 6.40D-06  0.00D+00 EMaxC= 1.00D-01 BMatC= 1.72D-08 BMatP= 2.68D-08
 IDIUse=1 WtCom= 1.00D+00 WtEn= 0.00D+00
 Coeff-Com: -0.146D+00-0.219D-01 0.556D+00 0.612D+00
 Coeff:     -0.146D+00-0.219D-01 0.556D+00 0.612D+00
 Gap=     0.202 Goal=   None    Shift=    0.000
 Gap=     0.119 Goal=   None    Shift=    0.000
 RMSDP=7.94D-07 MaxDP=3.78D-05 DE=-2.46D-08 OVMax= 8.29D-05

 Cycle  15  Pass 1  IDiag  1:
 RMSU=  5.74D-07    CP:  1.00D+00  1.03D+00  1.19D+00  1.27D+00
 E= -496.580443733569     Delta-E=       -0.000000010244 Rises=F Damp=F
 DIIS: error= 3.14D-06 at cycle   5 NSaved=   5.
 NSaved= 5 IEnMin= 5 EnMin= -496.580443733569     IErMin= 5 ErrMin= 3.14D-06
 ErrMax= 3.14D-06  0.00D+00 EMaxC= 1.00D-01 BMatC= 2.78D-09 BMatP= 1.72D-08
 IDIUse=1 WtCom= 1.00D+00 WtEn= 0.00D+00
 Coeff-Com: -0.336D-01-0.905D-01-0.194D+00 0.206D+00 0.111D+01
 Coeff:     -0.336D-01-0.905D-01-0.194D+00 0.206D+00 0.111D+01
 Gap=     0.202 Goal=   None    Shift=    0.000
 Gap=     0.119 Goal=   None    Shift=    0.000
 RMSDP=8.15D-07 MaxDP=4.27D-05 DE=-1.02D-08 OVMax= 1.26D-04

 Cycle  16  Pass 1  IDiag  1:
 RMSU=  2.61D-07    CP:  1.00D+00  1.06D+00  1.33D+00  1.80D+00  1.20D+00
 E= -496.580443737735     Delta-E=       -0.000000004166 Rises=F Damp=F
 DIIS: error= 1.97D-06 at cycle   6 NSaved=   6.
 NSaved= 6 IEnMin= 6 EnMin= -496.580443737735     IErMin= 6 ErrMin= 1.97D-06
 ErrMax= 1.97D-06  0.00D+00 EMaxC= 1.00D-01 BMatC= 1.97D-09 BMatP= 2.78D-09
 IDIUse=1 WtCom= 1.00D+00 WtEn= 0.00D+00
 Coeff-Com: -0.299D-03-0.603D-01-0.218D+00 0.318D-01 0.770D+00 0.477D+00
 Coeff:     -0.299D-03-0.603D-01-0.218D+00 0.318D-01 0.770D+00 0.477D+00
 Gap=     0.202 Goal=   None    Shift=    0.000
 Gap=     0.119 Goal=   None    Shift=    0.000
 RMSDP=2.37D-07 MaxDP=1.08D-05 DE=-4.17D-09 OVMax= 2.61D-05

 Cycle  17  Pass 1  IDiag  1:
 RMSU=  1.04D-07    CP:  1.00D+00  1.07D+00  1.36D+00  1.91D+00  1.40D+00
                    CP:  6.68D-01
 E= -496.580443738500     Delta-E=       -0.000000000765 Rises=F Damp=F
 DIIS: error= 6.59D-07 at cycle   7 NSaved=   7.
 NSaved= 7 IEnMin= 7 EnMin= -496.580443738500     IErMin= 7 ErrMin= 6.59D-07
 ErrMax= 6.59D-07  0.00D+00 EMaxC= 1.00D-01 BMatC= 1.54D-10 BMatP= 1.97D-09
 IDIUse=1 WtCom= 1.00D+00 WtEn= 0.00D+00
 Coeff-Com:  0.612D-02-0.158D-01-0.762D-01-0.280D-01 0.203D+00 0.219D+00
 Coeff-Com:  0.692D+00
 Coeff:      0.612D-02-0.158D-01-0.762D-01-0.280D-01 0.203D+00 0.219D+00
 Coeff:      0.692D+00
 Gap=     0.202 Goal=   None    Shift=    0.000
 Gap=     0.119 Goal=   None    Shift=    0.000
 RMSDP=8.73D-08 MaxDP=4.03D-06 DE=-7.65D-10 OVMax= 1.15D-05

 SCF Done:  E(UB3LYP) =  -496.580443739     A.U. after   17 cycles
            NFock= 17  Conv=0.87D-07     -V/T= 2.0088
 <Sx>= 0.0000 <Sy>= 0.0000 <Sz>= 0.5000 <S**2>= 0.7714 S= 0.5107
 <L.S>= 0.000000000000E+00
 KE= 4.922444228640D+02 PE=-2.161280478958D+03 EE= 6.717861030592D+02
 Annihilation of the first spin contaminant:
 S**2 before annihilation     0.7714,   after     0.7503
 Leave Link  502 at Mon Dec 08 16:22:18 2025, MaxMem=   104857600 cpu:              30.0 elap:              30.0
 (Enter D:\Gaussian\G16W\l601.exe)
 Copying SCF densities to generalized density rwf, IOpCl= 1 IROHF=0.

 **********************************************************************

            Population analysis using the SCF density.

 **********************************************************************

 Orbital symmetries:
 Alpha Orbitals:
       Occupied  (A) (A) (A) (A) (A) (A) (A) (A) (A) (A) (A) (A)
                 (A) (A) (A) (A) (A) (A) (A) (A) (A) (A) (A) (A)
                 (A) (A) (A) (A) (A) (A) (A) (A) (A) (A) (A) (A)
                 (A)
       Virtual   (A) (A) (A) (A) (A) (A) (A) (A) (A) (A) (A) (A)
                 (A) (A) (A) (A) (A) (A) (A) (A) (A) (A) (A) (A)
                 (A) (A) (A) (A) (A) (A) (A) (A) (A) (A) (A) (A)
                 (A) (A) (A) (A) (A) (A) (A) (A) (A) (A) (A) (A)
                 (A) (A) (A) (A) (A) (A) (A) (A) (A) (A) (A) (A)
                 (A) (A) (A) (A) (A) (A) (A) (A) (A) (A) (A) (A)
                 (A) (A) (A) (A) (A) (A) (A) (A) (A) (A) (A) (A)
                 (A) (A) (A) (A) (A) (A) (A) (A) (A) (A) (A) (A)
                 (A) (A) (A) (A) (A) (A) (A) (A) (A) (A) (A) (A)
                 (A) (A) (A) (A) (A) (A) (A) (A) (A) (A) (A) (A)
                 (A) (A) (A) (A) (A) (A) (A)
 Beta  Orbitals:
       Occupied  (A) (A) (A) (A) (A) (A) (A) (A) (A) (A) (A) (A)
                 (A) (A) (A) (A) (A) (A) (A) (A) (A) (A) (A) (A)
                 (A) (A) (A) (A) (A) (A) (A) (A) (A) (A) (A) (A)
       Virtual   (A) (A) (A) (A) (A) (A) (A) (A) (A) (A) (A) (A)
                 (A) (A) (A) (A) (A) (A) (A) (A) (A) (A) (A) (A)
                 (A) (A) (A) (A) (A) (A) (A) (A) (A) (A) (A) (A)
                 (A) (A) (A) (A) (A) (A) (A) (A) (A) (A) (A) (A)
                 (A) (A) (A) (A) (A) (A) (A) (A) (A) (A) (A) (A)
                 (A) (A) (A) (A) (A) (A) (A) (A) (A) (A) (A) (A)
                 (A) (A) (A) (A) (A) (A) (A) (A) (A) (A) (A) (A)
                 (A) (A) (A) (A) (A) (A) (A) (A) (A) (A) (A) (A)
                 (A) (A) (A) (A) (A) (A) (A) (A) (A) (A) (A) (A)
                 (A) (A) (A) (A) (A) (A) (A) (A) (A) (A) (A) (A)
                 (A) (A) (A) (A) (A) (A) (A) (A)
 The electronic state is 2-A.
 Alpha  occ. eigenvalues --  -19.19724 -19.16002 -19.14133 -10.26784 -10.25780
 Alpha  occ. eigenvalues --  -10.25279 -10.21877 -10.21215 -10.20211 -10.19300
 Alpha  occ. eigenvalues --   -1.09327  -1.03635  -1.02475  -0.86254  -0.77602
 Alpha  occ. eigenvalues --   -0.73958  -0.68721  -0.62193  -0.59450  -0.55818
 Alpha  occ. eigenvalues --   -0.53293  -0.49405  -0.47200  -0.46978  -0.45356
 Alpha  occ. eigenvalues --   -0.44630  -0.43062  -0.40630  -0.39551  -0.38060
 Alpha  occ. eigenvalues --   -0.36075  -0.34878  -0.34214  -0.28592  -0.26701
 Alpha  occ. eigenvalues --   -0.25321  -0.20577
 Alpha virt. eigenvalues --   -0.00364  -0.00238   0.06123   0.09212   0.11420
 Alpha virt. eigenvalues --    0.12352   0.13698   0.15653   0.17378   0.18868
 Alpha virt. eigenvalues --    0.19528   0.23709   0.23943   0.26228   0.30469
 Alpha virt. eigenvalues --    0.34182   0.35231   0.38027   0.45361   0.48401
 Alpha virt. eigenvalues --    0.49984   0.51821   0.54277   0.56367   0.56480
 Alpha virt. eigenvalues --    0.58009   0.58474   0.61551   0.62399   0.63966
 Alpha virt. eigenvalues --    0.65663   0.66227   0.66274   0.71591   0.72559
 Alpha virt. eigenvalues --    0.73879   0.76926   0.77616   0.80021   0.82636
 Alpha virt. eigenvalues --    0.83055   0.86529   0.87479   0.90755   0.91362
 Alpha virt. eigenvalues --    0.92316   0.94102   0.95350   0.96269   1.00319
 Alpha virt. eigenvalues --    1.01778   1.02900   1.05437   1.08700   1.10523
 Alpha virt. eigenvalues --    1.15339   1.16293   1.19299   1.21678   1.24017
 Alpha virt. eigenvalues --    1.27533   1.33160   1.34959   1.35771   1.37156
 Alpha virt. eigenvalues --    1.41187   1.42614   1.45517   1.47241   1.59694
 Alpha virt. eigenvalues --    1.67683   1.69489   1.69800   1.71944   1.72350
 Alpha virt. eigenvalues --    1.73403   1.77564   1.78379   1.81856   1.84194
 Alpha virt. eigenvalues --    1.86469   1.89187   1.90730   1.91075   1.95506
 Alpha virt. eigenvalues --    1.99506   2.00217   2.04975   2.05484   2.08785
 Alpha virt. eigenvalues --    2.09022   2.13043   2.20481   2.24936   2.27352
 Alpha virt. eigenvalues --    2.27870   2.32165   2.36310   2.38811   2.39723
 Alpha virt. eigenvalues --    2.42635   2.43352   2.47165   2.59584   2.61356
 Alpha virt. eigenvalues --    2.61697   2.64864   2.67795   2.72516   2.80900
 Alpha virt. eigenvalues --    2.84482   2.87810   2.91612   2.93985   3.03390
 Alpha virt. eigenvalues --    3.22782   3.37779   3.84189   3.85738   4.06738
 Alpha virt. eigenvalues --    4.07033   4.17088   4.21179   4.30260   4.38772
 Alpha virt. eigenvalues --    4.55713   4.92906
  Beta  occ. eigenvalues --  -19.19420 -19.15996 -19.13249 -10.26361 -10.25800
  Beta  occ. eigenvalues --  -10.25272 -10.21423 -10.21282 -10.20382 -10.19104
  Beta  occ. eigenvalues --   -1.08615  -1.03622  -1.00899  -0.85667  -0.77388
  Beta  occ. eigenvalues --   -0.73046  -0.68137  -0.61739  -0.59194  -0.55521
  Beta  occ. eigenvalues --   -0.53086  -0.49252  -0.47062  -0.46732  -0.45071
  Beta  occ. eigenvalues --   -0.42527  -0.42407  -0.40331  -0.39256  -0.35858
  Beta  occ. eigenvalues --   -0.35297  -0.34755  -0.31897  -0.28366  -0.25824
  Beta  occ. eigenvalues --   -0.24187
  Beta virt. eigenvalues --   -0.12278   0.01376   0.02067   0.06145   0.09452
  Beta virt. eigenvalues --    0.11582   0.12348   0.14753   0.15749   0.17479
  Beta virt. eigenvalues --    0.19672   0.19714   0.24003   0.24442   0.26497
  Beta virt. eigenvalues --    0.30716   0.34517   0.35648   0.38380   0.45505
  Beta virt. eigenvalues --    0.48744   0.50803   0.52174   0.54415   0.56672
  Beta virt. eigenvalues --    0.56759   0.58354   0.59476   0.61684   0.62600
  Beta virt. eigenvalues --    0.64748   0.65946   0.66512   0.66931   0.71800
  Beta virt. eigenvalues --    0.72719   0.74143   0.77279   0.78148   0.80135
  Beta virt. eigenvalues --    0.82791   0.83122   0.86742   0.87540   0.90836
  Beta virt. eigenvalues --    0.91559   0.93825   0.94348   0.95562   0.96639
  Beta virt. eigenvalues --    1.00556   1.01923   1.05339   1.05621   1.09075
  Beta virt. eigenvalues --    1.10733   1.15588   1.16511   1.19570   1.22563
  Beta virt. eigenvalues --    1.24186   1.27784   1.33453   1.35362   1.36637
  Beta virt. eigenvalues --    1.37347   1.42068   1.43358   1.45892   1.48282
  Beta virt. eigenvalues --    1.60082   1.67754   1.69832   1.70505   1.72007
  Beta virt. eigenvalues --    1.72651   1.73852   1.78074   1.79606   1.82814
  Beta virt. eigenvalues --    1.84576   1.86795   1.90085   1.91124   1.91814
  Beta virt. eigenvalues --    1.95720   2.00158   2.00872   2.05546   2.06135
  Beta virt. eigenvalues --    2.09281   2.09532   2.13743   2.21011   2.25669
  Beta virt. eigenvalues --    2.27875   2.28217   2.32557   2.36637   2.39090
  Beta virt. eigenvalues --    2.40012   2.43592   2.43876   2.47303   2.60414
  Beta virt. eigenvalues --    2.62093   2.62343   2.65951   2.68127   2.72808
  Beta virt. eigenvalues --    2.81131   2.84880   2.87925   2.91953   2.94138
  Beta virt. eigenvalues --    3.03975   3.22960   3.37946   3.84389   3.86324
  Beta virt. eigenvalues --    4.07067   4.07470   4.17238   4.21967   4.30568
  Beta virt. eigenvalues --    4.39130   4.56075   4.93463
          Condensed to atoms (all electrons):
               1          2          3          4          5          6
     1  C    4.641617   0.362198   0.002382  -0.037622  -0.028753   0.327145
     2  C    0.362198   5.229499   0.518946  -0.034024  -0.032791  -0.071430
     3  C    0.002382   0.518946   4.807708   0.458746  -0.022951  -0.022011
     4  C   -0.037622  -0.034024   0.458746   5.019769   0.508567  -0.011085
     5  C   -0.028753  -0.032791  -0.022951   0.508567   5.004402   0.464518
     6  C    0.327145  -0.071430  -0.022011  -0.011085   0.464518   4.829714
     7  H   -0.038540   0.348269  -0.033994   0.006400  -0.000275   0.005581
     8  H    0.000354   0.005393  -0.050079   0.359881  -0.040737   0.004538
     9  H    0.004645  -0.000148   0.003516  -0.039815   0.348573  -0.029804
    10  O   -0.051533   0.005056  -0.000054   0.003293  -0.055386   0.319017
    11  H   -0.012142   0.002767  -0.000223  -0.000149   0.008208  -0.053117
    12  O    0.436876  -0.063553   0.004330   0.000094   0.006859  -0.073625
    13  C    0.005486  -0.049849   0.337399  -0.063479   0.005825  -0.000105
    14  H   -0.000013   0.000457  -0.042673   0.000116  -0.000085   0.000021
    15  H   -0.000010   0.000539  -0.043103   0.000131  -0.000081   0.000020
    16  O    0.000566   0.001980  -0.043457   0.001695  -0.000053  -0.000002
    17  H   -0.000012   0.000150   0.006507  -0.000201   0.000003   0.000000
               7          8          9         10         11         12
     1  C   -0.038540   0.000354   0.004645  -0.051533  -0.012142   0.436876
     2  C    0.348269   0.005393  -0.000148   0.005056   0.002767  -0.063553
     3  C   -0.033994  -0.050079   0.003516  -0.000054  -0.000223   0.004330
     4  C    0.006400   0.359881  -0.039815   0.003293  -0.000149   0.000094
     5  C   -0.000275  -0.040737   0.348573  -0.055386   0.008208   0.006859
     6  C    0.005581   0.004538  -0.029804   0.319017  -0.053117  -0.073625
     7  H    0.537576  -0.000135   0.000016  -0.000034  -0.000063   0.001062
     8  H   -0.000135   0.591812  -0.005594  -0.000060   0.000005   0.000001
     9  H    0.000016  -0.005594   0.569011  -0.001247  -0.000455  -0.000066
    10  O   -0.000034  -0.000060  -0.001247   8.190708   0.220629  -0.027145
    11  H   -0.000063   0.000005  -0.000455   0.220629   0.345573   0.060761
    12  O    0.001062   0.000001  -0.000066  -0.027145   0.060761   8.188839
    13  C   -0.013746  -0.007914  -0.000144   0.000000   0.000001  -0.000073
    14  H    0.000456   0.002503   0.000001   0.000000   0.000000   0.000001
    15  H    0.000457   0.002547   0.000001   0.000000   0.000000   0.000001
    16  O    0.012365   0.000068   0.000000   0.000000   0.000000   0.000000
    17  H   -0.000448  -0.000010   0.000000   0.000000   0.000000   0.000000
              13         14         15         16         17
     1  C    0.005486  -0.000013  -0.000010   0.000566  -0.000012
     2  C   -0.049849   0.000457   0.000539   0.001980   0.000150
     3  C    0.337399  -0.042673  -0.043103  -0.043457   0.006507
     4  C   -0.063479   0.000116   0.000131   0.001695  -0.000201
     5  C    0.005825  -0.000085  -0.000081  -0.000053   0.000003
     6  C   -0.000105   0.000021   0.000020  -0.000002   0.000000
     7  H   -0.013746   0.000456   0.000457   0.012365  -0.000448
     8  H   -0.007914   0.002503   0.002547   0.000068  -0.000010
     9  H   -0.000144   0.000001   0.000001   0.000000   0.000000
    10  O    0.000000   0.000000   0.000000   0.000000   0.000000
    11  H    0.000001   0.000000   0.000000   0.000000   0.000000
    12  O   -0.000073   0.000001   0.000001   0.000000   0.000000
    13  C    4.919437   0.357523   0.357769   0.254028  -0.021109
    14  H    0.357523   0.638820  -0.057745  -0.037169  -0.004013
    15  H    0.357769  -0.057745   0.638913  -0.037311  -0.003886
    16  O    0.254028  -0.037169  -0.037311   8.226579   0.236229
    17  H   -0.021109  -0.004013  -0.003886   0.236229   0.383750
          Atomic-Atomic Spin Densities.
               1          2          3          4          5          6
     1  C   -0.008778   0.032136  -0.001664  -0.004364   0.000824   0.036296
     2  C    0.032136   0.165535  -0.026772  -0.009940   0.001761   0.002943
     3  C   -0.001664  -0.026772  -0.062148   0.025667  -0.002198  -0.002600
     4  C   -0.004364  -0.009940   0.025667   0.374501  -0.024214  -0.013668
     5  C    0.000824   0.001761  -0.002198  -0.024214  -0.144959   0.024306
     6  C    0.036296   0.002943  -0.002600  -0.013668   0.024306   0.321465
     7  H   -0.000014   0.000910   0.000130   0.000022  -0.000040  -0.000014
     8  H   -0.000030   0.000031   0.000171   0.000258   0.000435  -0.000037
     9  H    0.000036  -0.000022   0.000011  -0.000369   0.001573  -0.000682
    10  O   -0.003222  -0.000138   0.000012   0.000440  -0.000739  -0.062340
    11  H    0.000555  -0.000042   0.000003  -0.000009  -0.000228   0.000616
    12  O   -0.060446  -0.006718   0.000236   0.000126  -0.000144  -0.010627
    13  C    0.000016   0.000391   0.000842  -0.002986   0.000097  -0.000017
    14  H    0.000001   0.000276   0.000748  -0.000908   0.000002   0.000008
    15  H    0.000001   0.000270   0.000754  -0.000897   0.000002   0.000008
    16  O   -0.000002  -0.000473   0.000673   0.000067  -0.000001   0.000000
    17  H    0.000000   0.000008  -0.000037  -0.000004   0.000000   0.000000
               7          8          9         10         11         12
     1  C   -0.000014  -0.000030   0.000036  -0.003222   0.000555  -0.060446
     2  C    0.000910   0.000031  -0.000022  -0.000138  -0.000042  -0.006718
     3  C    0.000130   0.000171   0.000011   0.000012   0.000003   0.000236
     4  C    0.000022   0.000258  -0.000369   0.000440  -0.000009   0.000126
     5  C   -0.000040   0.000435   0.001573  -0.000739  -0.000228  -0.000144
     6  C   -0.000014  -0.000037  -0.000682  -0.062340   0.000616  -0.010627
     7  H   -0.008692   0.000003  -0.000001   0.000000   0.000003  -0.000187
     8  H    0.000003  -0.017501   0.000134   0.000001   0.000000   0.000000
     9  H   -0.000001   0.000134   0.003996  -0.000029   0.000014   0.000001
    10  O    0.000000   0.000001  -0.000029   0.159378   0.000995   0.003180
    11  H    0.000003   0.000000   0.000014   0.000995  -0.005210  -0.002137
    12  O   -0.000187   0.000000   0.000001   0.003180  -0.002137   0.417773
    13  C    0.000147   0.000106   0.000000   0.000000   0.000000   0.000001
    14  H    0.000003  -0.000009   0.000000   0.000000   0.000000   0.000000
    15  H    0.000003  -0.000008   0.000000   0.000000   0.000000   0.000000
    16  O    0.000067  -0.000003   0.000000   0.000000   0.000000   0.000000
    17  H   -0.000006   0.000000   0.000000   0.000000   0.000000   0.000000
              13         14         15         16         17
     1  C    0.000016   0.000001   0.000001  -0.000002   0.000000
     2  C    0.000391   0.000276   0.000270  -0.000473   0.000008
     3  C    0.000842   0.000748   0.000754   0.000673  -0.000037
     4  C   -0.002986  -0.000908  -0.000897   0.000067  -0.000004
     5  C    0.000097   0.000002   0.000002  -0.000001   0.000000
     6  C   -0.000017   0.000008   0.000008   0.000000   0.000000
     7  H    0.000147   0.000003   0.000003   0.000067  -0.000006
     8  H    0.000106  -0.000009  -0.000008  -0.000003   0.000000
     9  H    0.000000   0.000000   0.000000   0.000000   0.000000
    10  O    0.000000   0.000000   0.000000   0.000000   0.000000
    11  H    0.000000   0.000000   0.000000   0.000000   0.000000
    12  O    0.000001   0.000000   0.000000   0.000000   0.000000
    13  C    0.004521   0.000536   0.000543  -0.000716   0.000006
    14  H    0.000536  -0.001205   0.000542  -0.000096  -0.000013
    15  H    0.000543   0.000542  -0.001246  -0.000088  -0.000009
    16  O   -0.000716  -0.000096  -0.000088   0.002546   0.000008
    17  H    0.000006  -0.000013  -0.000009   0.000008  -0.000073
 Mulliken charges and spin densities:
               1          2
     1  C    0.387356  -0.008655
     2  C   -0.223459   0.160156
     3  C    0.119012  -0.066172
     4  C   -0.172314   0.343723
     5  C   -0.165844  -0.143523
     6  C    0.310624   0.295658
     7  H    0.175055  -0.007665
     8  H    0.137426  -0.016449
     9  H    0.151512   0.004663
    10  O   -0.603244   0.097540
    11  H    0.428205  -0.005439
    12  O   -0.534362   0.341057
    13  C   -0.081049   0.003485
    14  H    0.141801  -0.000113
    15  H    0.141760  -0.000126
    16  O   -0.615519   0.001981
    17  H    0.403040  -0.000120
 Sum of Mulliken charges =   0.00000   1.00000
 Mulliken charges and spin densities with hydrogens summed into heavy atoms:
               1          2
     1  C    0.387356  -0.008655
     2  C   -0.048405   0.152490
     3  C    0.119012  -0.066172
     4  C   -0.034889   0.327274
     5  C   -0.014331  -0.138860
     6  C    0.310624   0.295658
    10  O   -0.175038   0.092100
    12  O   -0.534362   0.341057
    13  C    0.202512   0.003246
    16  O   -0.212479   0.001861
 Electronic spatial extent (au):  <R**2>=           1566.0978
 Charge=              0.0000 electrons
 Dipole moment (field-independent basis, Debye):
    X=             -3.3120    Y=              3.0766    Z=              0.0138  Tot=              4.5205
 Quadrupole moment (field-independent basis, Debye-Ang):
   XX=            -45.9966   YY=            -59.0208   ZZ=            -58.0943
   XY=             -1.3918   XZ=             -0.0550   YZ=             -0.0118
 Traceless Quadrupole moment (field-independent basis, Debye-Ang):
   XX=              8.3740   YY=             -4.6502   ZZ=             -3.7237
   XY=             -1.3918   XZ=             -0.0550   YZ=             -0.0118
 Octapole moment (field-independent basis, Debye-Ang**2):
  XXX=            -61.7600  YYY=             12.9636  ZZZ=              0.0019  XYY=             -6.8182
  XXY=             -6.1099  XXZ=              0.2031  XZZ=              1.5078  YZZ=             -4.6881
  YYZ=              0.0005  XYZ=              0.0456
 Hexadecapole moment (field-independent basis, Debye-Ang**3):
 XXXX=          -1022.0226 YYYY=           -495.2362 ZZZZ=            -60.6118 XXXY=            -16.6623
 XXXZ=             -0.7739 YYYX=             32.0258 YYYZ=             -0.0189 ZZZX=             -0.0177
 ZZZY=              0.0037 XXYY=           -314.5332 XXZZ=           -235.9593 YYZZ=            -96.3881
 XXYZ=             -0.1562 YYXZ=             -0.0341 ZZXY=             -3.5506
 N-N= 5.006695092960D+02 E-N=-2.161280473262D+03  KE= 4.922444228640D+02
                          Isotropic Fermi Contact Couplings
        Atom                 a.u.       MegaHertz       Gauss      10(-4) cm-1
     1  C(13)             -0.01440     -16.18708      -5.77595      -5.39943
     2  C(13)              0.01380      15.51826       5.53730       5.17633
     3  C(13)             -0.01230     -13.82860      -4.93439      -4.61272
     4  C(13)              0.03575      40.19423      14.34230      13.40735
     5  C(13)             -0.02219     -24.94473      -8.90090      -8.32067
     6  C(13)              0.02821      31.71313      11.31603      10.57836
     7  H(1)              -0.00263     -11.75607      -4.19486      -3.92140
     8  H(1)              -0.00521     -23.29078      -8.31073      -7.76897
     9  H(1)               0.00145       6.49394       2.31720       2.16615
    10  O(17)              0.02079     -12.60367      -4.49730      -4.20413
    11  H(1)              -0.00169      -7.57356      -2.70243      -2.52627
    12  O(17)              0.04608     -27.93314      -9.96724      -9.31749
    13  C(13)              0.00064       0.71714       0.25589       0.23921
    14  H(1)               0.00070       3.13117       1.11728       1.04445
    15  H(1)               0.00070       3.11226       1.11053       1.03814
    16  O(17)             -0.00011       0.06393       0.02281       0.02133
    17  H(1)              -0.00005      -0.21390      -0.07632      -0.07135
 --------------------------------------------------------
       Center         ----  Spin Dipole Couplings  ----
                      3XX-RR        3YY-RR        3ZZ-RR
 --------------------------------------------------------
     1   Atom       -0.016021     -0.000268      0.016289
     2   Atom       -0.074524     -0.078927      0.153451
     3   Atom        0.015551      0.020710     -0.036261
     4   Atom       -0.178376     -0.170769      0.349144
     5   Atom        0.055842      0.054104     -0.109946
     6   Atom       -0.166575     -0.167826      0.334401
     7   Atom        0.001839      0.002673     -0.004513
     8   Atom       -0.013217      0.016359     -0.003142
     9   Atom        0.002393      0.003118     -0.005511
    10   Atom       -0.241642     -0.236866      0.478508
    11   Atom       -0.005171      0.019146     -0.013975
    12   Atom       -0.646117     -0.652259      1.298376
    13   Atom        0.002590     -0.003701      0.001111
    14   Atom        0.003659     -0.001855     -0.001804
    15   Atom        0.003675     -0.001859     -0.001816
    16   Atom       -0.002567     -0.007435      0.010002
    17   Atom        0.002223     -0.001014     -0.001209
 --------------------------------------------------------
                        XY            XZ            YZ
 --------------------------------------------------------
     1   Atom       -0.016297      0.000008      0.000001
     2   Atom        0.002986      0.000094      0.000029
     3   Atom        0.000442     -0.000004     -0.000037
     4   Atom       -0.005767      0.000119      0.000245
     5   Atom       -0.006228     -0.000025     -0.000042
     6   Atom        0.002163      0.000102      0.000117
     7   Atom        0.011933     -0.000005     -0.000007
     8   Atom       -0.020661      0.000007      0.000000
     9   Atom       -0.004123      0.000000     -0.000002
    10   Atom       -0.000164      0.000143      0.000133
    11   Atom       -0.002594     -0.000002     -0.000005
    12   Atom        0.003226      0.000500      0.000294
    13   Atom        0.001563      0.000003     -0.000024
    14   Atom        0.000005     -0.001844      0.000485
    15   Atom       -0.000002      0.001836     -0.000488
    16   Atom        0.000221      0.000063      0.000021
    17   Atom        0.000424     -0.000004      0.000000
 --------------------------------------------------------


 ---------------------------------------------------------------------------------
              Anisotropic Spin Dipole Couplings in Principal Axis System
 ---------------------------------------------------------------------------------

       Atom             a.u.   MegaHertz   Gauss  10(-4) cm-1        Axes

              Baa    -0.0262    -3.522    -1.257    -1.175  0.8471  0.5314 -0.0002
     1 C(13)  Bbb     0.0100     1.336     0.477     0.446 -0.5314  0.8471  0.0005
              Bcc     0.0163     2.186     0.780     0.729  0.0004 -0.0003  1.0000
 
              Baa    -0.0804   -10.794    -3.851    -3.600 -0.4509  0.8926  0.0001
     2 C(13)  Bbb    -0.0730    -9.798    -3.496    -3.268  0.8926  0.4509 -0.0004
              Bcc     0.1535    20.592     7.348     6.869  0.0004  0.0001  1.0000
 
              Baa    -0.0363    -4.866    -1.736    -1.623  0.0001  0.0006  1.0000
     3 C(13)  Bbb     0.0155     2.082     0.743     0.694  0.9964 -0.0848  0.0000
              Bcc     0.0207     2.784     0.993     0.929  0.0848  0.9964 -0.0006
 
              Baa    -0.1815   -24.353    -8.690    -8.123  0.8805  0.4740 -0.0004
     4 C(13)  Bbb    -0.1677   -22.499    -8.028    -7.505 -0.4740  0.8805 -0.0003
              Bcc     0.3491    46.852    16.718    15.628  0.0002  0.0005  1.0000
 
              Baa    -0.1099   -14.754    -5.264    -4.921  0.0002  0.0003  1.0000
     5 C(13)  Bbb     0.0487     6.533     2.331     2.179  0.6564  0.7544 -0.0003
              Bcc     0.0613     8.221     2.933     2.742  0.7544 -0.6564  0.0001
 
              Baa    -0.1695   -22.739    -8.114    -7.585 -0.6010  0.7993 -0.0001
     6 C(13)  Bbb    -0.1649   -22.135    -7.898    -7.383  0.7993  0.6010 -0.0003
              Bcc     0.3344    44.873    16.012    14.968  0.0002  0.0002  1.0000
 
              Baa    -0.0097    -5.167    -1.844    -1.724  0.7193 -0.6947 -0.0003
     7 H(1)   Bbb    -0.0045    -2.408    -0.859    -0.803  0.0005  0.0001  1.0000
              Bcc     0.0142     7.575     2.703     2.527  0.6947  0.7193 -0.0004
 
              Baa    -0.0238   -12.718    -4.538    -4.242  0.8894  0.4572 -0.0003
     8 H(1)   Bbb    -0.0031    -1.676    -0.598    -0.559  0.0002  0.0002  1.0000
              Bcc     0.0270    14.394     5.136     4.801 -0.4572  0.8894 -0.0001
 
              Baa    -0.0055    -2.940    -1.049    -0.981  0.0001  0.0003  1.0000
     9 H(1)   Bbb    -0.0014    -0.738    -0.263    -0.246  0.7374  0.6754 -0.0003
              Bcc     0.0069     3.678     1.313     1.227 -0.6754  0.7374 -0.0001
 
              Baa    -0.2416    17.485     6.239     5.833  0.9994  0.0342 -0.0002
    10 O(17)  Bbb    -0.2369    17.139     6.116     5.717 -0.0342  0.9994 -0.0002
              Bcc     0.4785   -34.625   -12.355   -11.549  0.0002  0.0002  1.0000
 
              Baa    -0.0140    -7.456    -2.661    -2.487  0.0003  0.0002  1.0000
    11 H(1)   Bbb    -0.0054    -2.905    -1.037    -0.969  0.9945  0.1049 -0.0003
              Bcc     0.0194    10.361     3.697     3.456 -0.1049  0.9945 -0.0002
 
              Baa    -0.6536    47.297    16.877    15.777 -0.3940  0.9191  0.0000
    12 O(17)  Bbb    -0.6447    46.652    16.647    15.562  0.9191  0.3940 -0.0003
              Bcc     1.2984   -93.950   -33.524   -31.338  0.0003  0.0002  1.0000
 
              Baa    -0.0041    -0.546    -0.195    -0.182 -0.2286  0.9735  0.0045
    13 C(13)  Bbb     0.0011     0.149     0.053     0.050  0.0025 -0.0041  1.0000
              Bcc     0.0030     0.397     0.142     0.132  0.9735  0.2286 -0.0015
 
              Baa    -0.0026    -1.411    -0.503    -0.471  0.2421 -0.5090  0.8260
    14 H(1)   Bbb    -0.0016    -0.844    -0.301    -0.282  0.1685  0.8604  0.4809
              Bcc     0.0042     2.255     0.805     0.752  0.9555 -0.0227 -0.2941
 
              Baa    -0.0026    -1.413    -0.504    -0.471 -0.2397  0.5097  0.8263
    15 H(1)   Bbb    -0.0016    -0.846    -0.302    -0.282  0.1683  0.8600 -0.4817
              Bcc     0.0042     2.260     0.806     0.754  0.9561 -0.0236  0.2920
 
              Baa    -0.0074     0.539     0.192     0.180 -0.0453  0.9990 -0.0011
    16 O(17)  Bbb    -0.0026     0.185     0.066     0.062  0.9990  0.0453 -0.0051
              Bcc     0.0100    -0.724    -0.258    -0.241  0.0050  0.0013  1.0000
 
              Baa    -0.0012    -0.645    -0.230    -0.215  0.0015 -0.0032  1.0000
    17 H(1)   Bbb    -0.0011    -0.570    -0.203    -0.190 -0.1278  0.9918  0.0034
              Bcc     0.0023     1.215     0.434     0.405  0.9918  0.1278 -0.0011
 

 ---------------------------------------------------------------------------------

 No NMR shielding tensors so no spin-rotation constants.
 Leave Link  601 at Mon Dec 08 16:22:19 2025, MaxMem=   104857600 cpu:               1.0 elap:               0.2
 (Enter D:\Gaussian\G16W\l9999.exe)
 1|1|UNPC-PC-20250526LCFF|SP|UB3LYP|6-31G(d)|C7H7O3(2)|ADMINISTRATOR|08
 -Dec-2025|0||#P B3LYP/6-31G* SCF=conver=7 out=wfn||Generated by Multiw
 fn (http://sobereva.com/multiwfn)||0,2|C,0,0.98339904,-0.8879501,0.000
 27196|C,0,-0.45478097,-0.84157109,0.00072096|C,0,-1.11022096,0.3609949
 1,0.00053696|C,0,-0.37033095,1.58142991,-0.00014904|C,0,1.01656405,1.6
 038589,-0.00035004|C,0,1.69933405,0.39337189,-0.00012304|H,0,-0.998943
 97,-1.77584809,0.00119096|H,0,-0.91147494,2.52253791,-0.00048504|H,0,1
 .56899506,2.53544489,-0.00070904|O,0,3.02752805,0.31205188,-0.00038304
 |H,0,3.20588803,-0.65382012,-0.00028404|O,0,1.67862503,-1.92952011,0.0
 0026096|C,0,-2.61725096,0.44433192,0.00114196|H,0,-2.93759295,1.011595
 93,0.88879796|H,0,-2.93799895,1.01676392,-0.88306904|O,0,-3.17344097,-
 0.85826707,-0.00252104|H,0,-4.13084897,-0.77759006,0.00340496||Version
 =EM64W-G16RevA.03|State=2-A|HF=-496.5804437|S2=0.771448|S2-1=0.|S2A=0.
 75031|RMSD=8.733e-008|Dipole=-1.3030266,1.2104377,0.0054187|Quadrupole
 =6.2258472,-3.4573329,-2.7685144,-1.0348063,-0.0409101,-0.0087573|PG=C
 01 [X(C7H7O3)]||@

 Writing a WFN file to "N.wfn"


 Democracy is the recurrent suspicion that more than half of the people
 are right more than half of the time.
 -- E. B. White
 Job cpu time:       0 days  0 hours  0 minutes 32.0 seconds.
 Elapsed time:       0 days  0 hours  0 minutes 31.9 seconds.
 File lengths (MBytes):  RWF=     31 Int=      0 D2E=      0 Chk=      3 Scr=      1
 Normal termination of Gaussian 16 at Mon Dec 08 16:22:19 2025.
