 Generated by Multiwfn (http://sobereva.com/multiwfn)
GAUSSIAN             73 MOL ORBITALS    308 PRIMITIVES       17 NUCLEI
  C    1    (CENTRE  1)   1.85835486 -1.67798250  0.00051393  CHARGE =  6.0
  C    2    (CENTRE  2)  -0.85941148 -1.59033888  0.00136241  CHARGE =  6.0
  C    3    (CENTRE  3)  -2.09801355  0.68218151  0.00101471  CHARGE =  6.0
  C    4    (CENTRE  4)  -0.69982407  2.98846941 -0.00028165  CHARGE =  6.0
  C    5    (CENTRE  5)   1.92102764  3.03085406 -0.00066148  CHARGE =  6.0
  C    6    (CENTRE  6)   3.21127595  0.74336514 -0.00023251  CHARGE =  6.0
  H    7    (CENTRE  7)  -1.88773051 -3.35586653  0.00225059  CHARGE =  1.0
  H    8    (CENTRE  8)  -1.72243801  4.76690579 -0.00091659  CHARGE =  1.0
  H    9    (CENTRE  9)   2.96497095  4.79129645 -0.00133989  CHARGE =  1.0
  O   10    (CENTRE 10)   5.72119885  0.58969259 -0.00072384  CHARGE =  8.0
  H   11    (CENTRE 11)   6.05825036 -1.23554096 -0.00053676  CHARGE =  1.0
  O   12    (CENTRE 12)   3.17214157 -3.64626456  0.00049314  CHARGE =  8.0
  C   13    (CENTRE 13)  -4.94588751  0.83966563  0.00215799  CHARGE =  6.0
  H   14    (CENTRE 14)  -5.55124614  1.91163925  1.67958472  CHARGE =  1.0
  H   15    (CENTRE 15)  -5.55201337  1.92140534 -1.66875864  CHARGE =  1.0
  O   16    (CENTRE 16)  -5.99693430 -1.62188971 -0.00476408  CHARGE =  8.0
  H   17    (CENTRE 17)  -7.80617321 -1.46943226  0.00643444  CHARGE =  1.0
CENTRE ASSIGNMENTS    1  1  1  1  1  1  1  1  1  1  1  1  1  1  1  1  1  1  1  1
CENTRE ASSIGNMENTS    1  1  1  1  1  1  1  1  2  2  2  2  2  2  2  2  2  2  2  2
CENTRE ASSIGNMENTS    2  2  2  2  2  2  2  2  2  2  2  2  2  2  2  2  3  3  3  3
CENTRE ASSIGNMENTS    3  3  3  3  3  3  3  3  3  3  3  3  3  3  3  3  3  3  3  3
CENTRE ASSIGNMENTS    3  3  3  3  4  4  4  4  4  4  4  4  4  4  4  4  4  4  4  4
CENTRE ASSIGNMENTS    4  4  4  4  4  4  4  4  4  4  4  4  5  5  5  5  5  5  5  5
CENTRE ASSIGNMENTS    5  5  5  5  5  5  5  5  5  5  5  5  5  5  5  5  5  5  5  5
CENTRE ASSIGNMENTS    6  6  6  6  6  6  6  6  6  6  6  6  6  6  6  6  6  6  6  6
CENTRE ASSIGNMENTS    6  6  6  6  6  6  6  6  7  7  7  7  8  8  8  8  9  9  9  9
CENTRE ASSIGNMENTS   10 10 10 10 10 10 10 10 10 10 10 10 10 10 10 10 10 10 10 10
CENTRE ASSIGNMENTS   10 10 10 10 10 10 10 10 11 11 11 11 12 12 12 12 12 12 12 12
CENTRE ASSIGNMENTS   12 12 12 12 12 12 12 12 12 12 12 12 12 12 12 12 12 12 12 12
CENTRE ASSIGNMENTS   13 13 13 13 13 13 13 13 13 13 13 13 13 13 13 13 13 13 13 13
CENTRE ASSIGNMENTS   13 13 13 13 13 13 13 13 14 14 14 14 15 15 15 15 16 16 16 16
CENTRE ASSIGNMENTS   16 16 16 16 16 16 16 16 16 16 16 16 16 16 16 16 16 16 16 16
CENTRE ASSIGNMENTS   16 16 16 16 17 17 17 17
TYPE ASSIGNMENTS      1  1  1  1  1  1  1  1  1  2  2  2  3  3  3  4  4  4  1  2
TYPE ASSIGNMENTS      3  4  5  6  7  8  9 10  1  1  1  1  1  1  1  1  1  2  2  2
TYPE ASSIGNMENTS      3  3  3  4  4  4  1  2  3  4  5  6  7  8  9 10  1  1  1  1
TYPE ASSIGNMENTS      1  1  1  1  1  2  2  2  3  3  3  4  4  4  1  2  3  4  5  6
TYPE ASSIGNMENTS      7  8  9 10  1  1  1  1  1  1  1  1  1  2  2  2  3  3  3  4
TYPE ASSIGNMENTS      4  4  1  2  3  4  5  6  7  8  9 10  1  1  1  1  1  1  1  1
TYPE ASSIGNMENTS      1  2  2  2  3  3  3  4  4  4  1  2  3  4  5  6  7  8  9 10
TYPE ASSIGNMENTS      1  1  1  1  1  1  1  1  1  2  2  2  3  3  3  4  4  4  1  2
TYPE ASSIGNMENTS      3  4  5  6  7  8  9 10  1  1  1  1  1  1  1  1  1  1  1  1
TYPE ASSIGNMENTS      1  1  1  1  1  1  1  1  1  2  2  2  3  3  3  4  4  4  1  2
TYPE ASSIGNMENTS      3  4  5  6  7  8  9 10  1  1  1  1  1  1  1  1  1  1  1  1
TYPE ASSIGNMENTS      1  2  2  2  3  3  3  4  4  4  1  2  3  4  5  6  7  8  9 10
TYPE ASSIGNMENTS      1  1  1  1  1  1  1  1  1  2  2  2  3  3  3  4  4  4  1  2
TYPE ASSIGNMENTS      3  4  5  6  7  8  9 10  1  1  1  1  1  1  1  1  1  1  1  1
TYPE ASSIGNMENTS      1  1  1  1  1  2  2  2  3  3  3  4  4  4  1  2  3  4  5  6
TYPE ASSIGNMENTS      7  8  9 10  1  1  1  1
EXPONENTS  0.3047525D+04 0.4573695D+03 0.1039487D+03 0.2921016D+02 0.9286663D+01
EXPONENTS  0.3163927D+01 0.7868272D+01 0.1881289D+01 0.5442493D+00 0.7868272D+01
EXPONENTS  0.1881289D+01 0.5442493D+00 0.7868272D+01 0.1881289D+01 0.5442493D+00
EXPONENTS  0.7868272D+01 0.1881289D+01 0.5442493D+00 0.1687145D+00 0.1687145D+00
EXPONENTS  0.1687145D+00 0.1687145D+00 0.8000000D+00 0.8000000D+00 0.8000000D+00
EXPONENTS  0.8000000D+00 0.8000000D+00 0.8000000D+00 0.3047525D+04 0.4573695D+03
EXPONENTS  0.1039487D+03 0.2921016D+02 0.9286663D+01 0.3163927D+01 0.7868272D+01
EXPONENTS  0.1881289D+01 0.5442493D+00 0.7868272D+01 0.1881289D+01 0.5442493D+00
EXPONENTS  0.7868272D+01 0.1881289D+01 0.5442493D+00 0.7868272D+01 0.1881289D+01
EXPONENTS  0.5442493D+00 0.1687145D+00 0.1687145D+00 0.1687145D+00 0.1687145D+00
EXPONENTS  0.8000000D+00 0.8000000D+00 0.8000000D+00 0.8000000D+00 0.8000000D+00
EXPONENTS  0.8000000D+00 0.3047525D+04 0.4573695D+03 0.1039487D+03 0.2921016D+02
EXPONENTS  0.9286663D+01 0.3163927D+01 0.7868272D+01 0.1881289D+01 0.5442493D+00
EXPONENTS  0.7868272D+01 0.1881289D+01 0.5442493D+00 0.7868272D+01 0.1881289D+01
EXPONENTS  0.5442493D+00 0.7868272D+01 0.1881289D+01 0.5442493D+00 0.1687145D+00
EXPONENTS  0.1687145D+00 0.1687145D+00 0.1687145D+00 0.8000000D+00 0.8000000D+00
EXPONENTS  0.8000000D+00 0.8000000D+00 0.8000000D+00 0.8000000D+00 0.3047525D+04
EXPONENTS  0.4573695D+03 0.1039487D+03 0.2921016D+02 0.9286663D+01 0.3163927D+01
EXPONENTS  0.7868272D+01 0.1881289D+01 0.5442493D+00 0.7868272D+01 0.1881289D+01
EXPONENTS  0.5442493D+00 0.7868272D+01 0.1881289D+01 0.5442493D+00 0.7868272D+01
EXPONENTS  0.1881289D+01 0.5442493D+00 0.1687145D+00 0.1687145D+00 0.1687145D+00
EXPONENTS  0.1687145D+00 0.8000000D+00 0.8000000D+00 0.8000000D+00 0.8000000D+00
EXPONENTS  0.8000000D+00 0.8000000D+00 0.3047525D+04 0.4573695D+03 0.1039487D+03
EXPONENTS  0.2921016D+02 0.9286663D+01 0.3163927D+01 0.7868272D+01 0.1881289D+01
EXPONENTS  0.5442493D+00 0.7868272D+01 0.1881289D+01 0.5442493D+00 0.7868272D+01
EXPONENTS  0.1881289D+01 0.5442493D+00 0.7868272D+01 0.1881289D+01 0.5442493D+00
EXPONENTS  0.1687145D+00 0.1687145D+00 0.1687145D+00 0.1687145D+00 0.8000000D+00
EXPONENTS  0.8000000D+00 0.8000000D+00 0.8000000D+00 0.8000000D+00 0.8000000D+00
EXPONENTS  0.3047525D+04 0.4573695D+03 0.1039487D+03 0.2921016D+02 0.9286663D+01
EXPONENTS  0.3163927D+01 0.7868272D+01 0.1881289D+01 0.5442493D+00 0.7868272D+01
EXPONENTS  0.1881289D+01 0.5442493D+00 0.7868272D+01 0.1881289D+01 0.5442493D+00
EXPONENTS  0.7868272D+01 0.1881289D+01 0.5442493D+00 0.1687145D+00 0.1687145D+00
EXPONENTS  0.1687145D+00 0.1687145D+00 0.8000000D+00 0.8000000D+00 0.8000000D+00
EXPONENTS  0.8000000D+00 0.8000000D+00 0.8000000D+00 0.1873114D+02 0.2825394D+01
EXPONENTS  0.6401217D+00 0.1612778D+00 0.1873114D+02 0.2825394D+01 0.6401217D+00
EXPONENTS  0.1612778D+00 0.1873114D+02 0.2825394D+01 0.6401217D+00 0.1612778D+00
EXPONENTS  0.5484672D+04 0.8252349D+03 0.1880470D+03 0.5296450D+02 0.1689757D+02
EXPONENTS  0.5799635D+01 0.1553962D+02 0.3599934D+01 0.1013762D+01 0.1553962D+02
EXPONENTS  0.3599934D+01 0.1013762D+01 0.1553962D+02 0.3599934D+01 0.1013762D+01
EXPONENTS  0.1553962D+02 0.3599934D+01 0.1013762D+01 0.2700058D+00 0.2700058D+00
EXPONENTS  0.2700058D+00 0.2700058D+00 0.8000000D+00 0.8000000D+00 0.8000000D+00
EXPONENTS  0.8000000D+00 0.8000000D+00 0.8000000D+00 0.1873114D+02 0.2825394D+01
EXPONENTS  0.6401217D+00 0.1612778D+00 0.5484672D+04 0.8252349D+03 0.1880470D+03
EXPONENTS  0.5296450D+02 0.1689757D+02 0.5799635D+01 0.1553962D+02 0.3599934D+01
EXPONENTS  0.1013762D+01 0.1553962D+02 0.3599934D+01 0.1013762D+01 0.1553962D+02
EXPONENTS  0.3599934D+01 0.1013762D+01 0.1553962D+02 0.3599934D+01 0.1013762D+01
EXPONENTS  0.2700058D+00 0.2700058D+00 0.2700058D+00 0.2700058D+00 0.8000000D+00
EXPONENTS  0.8000000D+00 0.8000000D+00 0.8000000D+00 0.8000000D+00 0.8000000D+00
EXPONENTS  0.3047525D+04 0.4573695D+03 0.1039487D+03 0.2921016D+02 0.9286663D+01
EXPONENTS  0.3163927D+01 0.7868272D+01 0.1881289D+01 0.5442493D+00 0.7868272D+01
EXPONENTS  0.1881289D+01 0.5442493D+00 0.7868272D+01 0.1881289D+01 0.5442493D+00
EXPONENTS  0.7868272D+01 0.1881289D+01 0.5442493D+00 0.1687145D+00 0.1687145D+00
EXPONENTS  0.1687145D+00 0.1687145D+00 0.8000000D+00 0.8000000D+00 0.8000000D+00
EXPONENTS  0.8000000D+00 0.8000000D+00 0.8000000D+00 0.1873114D+02 0.2825394D+01
EXPONENTS  0.6401217D+00 0.1612778D+00 0.1873114D+02 0.2825394D+01 0.6401217D+00
EXPONENTS  0.1612778D+00 0.5484672D+04 0.8252349D+03 0.1880470D+03 0.5296450D+02
EXPONENTS  0.1689757D+02 0.5799635D+01 0.1553962D+02 0.3599934D+01 0.1013762D+01
EXPONENTS  0.1553962D+02 0.3599934D+01 0.1013762D+01 0.1553962D+02 0.3599934D+01
EXPONENTS  0.1013762D+01 0.1553962D+02 0.3599934D+01 0.1013762D+01 0.2700058D+00
EXPONENTS  0.2700058D+00 0.2700058D+00 0.2700058D+00 0.8000000D+00 0.8000000D+00
EXPONENTS  0.8000000D+00 0.8000000D+00 0.8000000D+00 0.8000000D+00 0.1873114D+02
EXPONENTS  0.2825394D+01 0.6401217D+00 0.1612778D+00
MO    1     MO 0.0        OCC NO =    1.0000000  ORB. ENERGY =  -19.197236
  0.28681824D-04  0.52912365D-04  0.85416963D-04  0.11118751D-03  0.94876500D-04
  0.32758576D-04 -0.13234067D-03 -0.60995692D-04  0.17103829D-03 -0.40284684D-04
 -0.30887741D-04 -0.15415147D-04 -0.84008373D-04 -0.64412292D-04 -0.32146248D-04
  0.33616399D-07  0.25774922D-07  0.12863493D-07 -0.43372032D-03  0.27625174D-03
 -0.44242551D-03 -0.30105222D-09 -0.30195986D-04  0.24637438D-04  0.80817993D-04
 -0.11538763D-03  0.95607008D-07  0.45529801D-07 -0.46117232D-05 -0.85077289D-05
 -0.13734112D-04 -0.17877733D-04 -0.15255102D-04 -0.52672203D-05  0.29015636D-04
  0.13373280D-04 -0.37500073D-04  0.10055327D-03  0.77097873D-04  0.38477242D-04
  0.54811034D-05  0.42025625D-05  0.20973732D-05 -0.42513744D-07 -0.32596843D-07
 -0.16268109D-07  0.47779184D-03  0.92088264D-04  0.20567741D-03 -0.85286797D-07
  0.42241591D-04  0.18772323D-04 -0.28266370D-05 -0.66066548D-05 -0.38278885D-07
 -0.35724420D-07  0.76794752D-05  0.14167132D-04  0.22870144D-04  0.29770132D-04
  0.25402908D-04  0.87710136D-05 -0.31922313D-04 -0.14712965D-04  0.41256690D-04
  0.40954912D-04  0.31401629D-04  0.15671614D-04  0.21553751D-04  0.16526049D-04
  0.82476569D-05 -0.73987320D-08 -0.56728785D-08 -0.28311639D-08 -0.26002403D-03
 -0.17733714D-03  0.71386748D-04  0.16656675D-07  0.21278236D-04 -0.40048196D-04
  0.36047668D-04  0.30947764D-04  0.29372215D-08  0.35248661D-07  0.46331162D-05
  0.85471946D-05  0.13797822D-04  0.17960665D-04  0.15325868D-04  0.52916539D-05
 -0.10984616D-04 -0.50627993D-05  0.14196618D-04  0.81087629D-04  0.62172851D-04
  0.31028610D-04 -0.28448645D-04 -0.21812617D-04 -0.10886024D-04  0.87837904D-08
  0.67348533D-08  0.33611638D-08  0.26361664D-03  0.82646252D-04 -0.55324304D-04
  0.12472995D-07  0.26856209D-04  0.11420685D-04  0.39756851D-04  0.49366066D-04
  0.98876497D-10 -0.23118484D-08  0.64338572D-05  0.11869210D-04  0.19160586D-04
  0.24941389D-04  0.21282533D-04  0.73483471D-05 -0.57164083D-04 -0.26346874D-04
  0.73879384D-04 -0.15419992D-04 -0.11823072D-04 -0.59005415D-05 -0.15553398D-05
 -0.11925359D-05 -0.59515900D-06  0.72176228D-08  0.55340154D-08  0.27618615D-08
 -0.36517064D-03  0.21053849D-03  0.23312868D-03 -0.10654866D-06 -0.50991009D-04
 -0.61498273D-04  0.28043440D-04 -0.14009589D-05  0.33191131D-07  0.62027601D-07
 -0.28765744D-04 -0.53067180D-04 -0.85666883D-04 -0.11151283D-03 -0.95154098D-04
 -0.32854423D-04 -0.80657290D-04 -0.37174871D-04  0.10424222D-03  0.55728190D-03
  0.42728841D-03  0.21324686D-03  0.21402066D-04  0.16409746D-04  0.81896135D-05
 -0.12153911D-06 -0.93188481D-07 -0.46507583D-07  0.14192313D-05 -0.82630306D-03
 -0.59314359D-04  0.17672397D-06 -0.23971213D-03 -0.54867515D-04 -0.12664899D-03
  0.11235500D-03  0.53698250D-07 -0.66717934D-07  0.11970381D-04  0.20304031D-04
  0.23115422D-04  0.51329468D-04  0.18781502D-05  0.31856983D-05  0.36268049D-05
  0.10027741D-04 -0.12707642D-04 -0.21554567D-04 -0.24539112D-04 -0.12891639D-03
  0.82558236D+00  0.15195123D+01  0.24588577D+01  0.32322372D+01  0.27722711D+01
  0.94788657D+00 -0.15788292D-01 -0.70447053D-02  0.20803109D-01 -0.21046603D-02
 -0.16215273D-02 -0.71193784D-03 -0.23859696D-02 -0.18382610D-02 -0.80709558D-03
  0.81528930D-06  0.62813646D-06  0.27578574D-06  0.40946886D-02 -0.39503146D-03
  0.76146925D-04  0.71374584D-07 -0.92290404D-02 -0.94260874D-02 -0.93167492D-02
 -0.11076270D-03 -0.21349342D-07  0.62438825D-07  0.82335837D-04  0.13965716D-03
  0.15899474D-03 -0.21965926D-03  0.29952719D-04  0.55128993D-04  0.89209116D-04
  0.11726788D-03  0.10057998D-03  0.34390003D-04 -0.18456835D-03 -0.82354037D-04
  0.24319257D-03 -0.12756361D-03 -0.98280885D-04 -0.43150602D-04  0.30077480D-04
  0.23173077D-04  0.10174229D-04  0.12041083D-07  0.92770049D-08  0.40731048D-08
 -0.57844631D-03  0.14936695D-03 -0.10638587D-03 -0.16248912D-07  0.20060077D-03
  0.15450885D-03  0.19394408D-03  0.10758211D-03 -0.21696331D-07 -0.12929564D-07
  0.29719346D-05  0.54826390D-05  0.88506794D-05  0.11520955D-04  0.98308516D-05
  0.33943568D-05 -0.12818475D-04 -0.59080232D-05  0.16566714D-04 -0.15634015D-04
 -0.11987171D-04 -0.59824385D-05  0.52601132D-05  0.40331212D-05  0.20128101D-05
 -0.17775875D-07 -0.13629413D-07 -0.68020325D-08 -0.10317540D-03 -0.33978893D-04
 -0.48801457D-05  0.68826315D-07 -0.63625160D-05  0.39590023D-05  0.84019406D-05
 -0.15091598D-04  0.26115112D-07  0.77519383D-08  0.23526458D-05  0.39905325D-05
  0.45430802D-05  0.37346420D-05  0.23672221D-05  0.40152567D-05  0.45712278D-05
  0.37981181D-05  0.11778611D-05  0.21678932D-05  0.35080605D-05  0.46114437D-05
  0.39552084D-05  0.13523529D-05  0.95958178D-05  0.42816352D-05 -0.12643726D-04
 -0.19307900D-04 -0.14875696D-04 -0.65312319D-05  0.35361707D-05  0.27244289D-05
  0.11961710D-05 -0.96491722D-09 -0.74341670D-09 -0.32639997D-09  0.20434559D-04
  0.11828379D-04  0.34288851D-05 -0.44621452D-08 -0.12499871D-04 -0.11719475D-04
 -0.14329206D-04  0.10615924D-04  0.10411990D-06 -0.29107606D-07  0.18121090D-05
  0.30736798D-05  0.34992758D-05 -0.24541359D-05
MO    2     MO 0.0        OCC NO =    1.0000000  ORB. ENERGY =  -19.160024
  0.99034174D-05  0.18269871D-04  0.29493237D-04  0.38391431D-04  0.32759478D-04
  0.11311061D-04 -0.43408273D-04 -0.20006833D-04  0.56101249D-04 -0.23849344D-04
 -0.18286164D-04 -0.91260774D-05 -0.34153143D-04 -0.26186463D-04 -0.13068881D-04
  0.26670877D-06  0.20449537D-06  0.10205752D-06 -0.33931299D-03  0.35486533D-03
  0.12994474D-03 -0.36350066D-06 -0.60062385D-04  0.19647222D-04  0.46555353D-04
  0.12952615D-04  0.22117870D-06  0.10732292D-06 -0.76287488D-05 -0.14073552D-04
 -0.22719076D-04 -0.29573487D-04 -0.25235110D-04 -0.87130771D-05  0.32707274D-04
  0.15074753D-04 -0.42271180D-04 -0.15194978D-03 -0.11650545D-03 -0.58144386D-04
  0.71028122D-04  0.54459859D-04  0.27179286D-04 -0.73638010D-06 -0.56460956D-06
 -0.28177974D-06  0.29028585D-03  0.40449877D-03 -0.18359980D-03  0.29739702D-06
  0.98566526D-04 -0.99023487D-04 -0.54997992D-05  0.72557998D-04 -0.32027848D-06
  0.20314077D-06 -0.16567768D-04 -0.30564296D-04 -0.49340251D-04 -0.64226346D-04
 -0.54804458D-04 -0.18922662D-04  0.35890219D-04  0.16541769D-04 -0.46384847D-04
  0.52973688D-04  0.40616864D-04  0.20270662D-04 -0.44596986D-04 -0.34194140D-04
 -0.17065272D-04  0.48891553D-07  0.37486942D-07  0.18708611D-07  0.51882318D-03
 -0.19226654D-03 -0.15045216D-03 -0.19771226D-06 -0.39833615D-04 -0.45958222D-04
 -0.64462191D-04 -0.11486570D-03 -0.51535864D-07 -0.52818155D-06  0.30015585D-05
  0.55372894D-05  0.89389019D-05  0.11635794D-04  0.99288444D-05  0.34281914D-05
 -0.65800239D-05 -0.30327270D-05  0.85040830D-05 -0.17018203D-04 -0.13048479D-04
 -0.65121054D-05 -0.34632110D-04 -0.26553705D-04 -0.13252160D-04  0.33893881D-06
  0.25987678D-06  0.12969673D-06  0.76499854D-04  0.44508680D-04 -0.25445745D-04
 -0.14926608D-07  0.66317055D-05  0.29726072D-04  0.13850704D-04 -0.17776543D-04
 -0.34767802D-07 -0.24745833D-06  0.22022570D-05  0.40627341D-05  0.65585126D-05
  0.85372347D-05  0.72848378D-05  0.25152794D-05 -0.12457548D-04 -0.57416723D-05
  0.16100248D-04  0.53069091D-05  0.40690013D-05  0.20307168D-05  0.30927695D-04
  0.23713395D-04  0.11834646D-04 -0.50981763D-07 -0.39089582D-07 -0.19508441D-07
 -0.19927438D-03 -0.16432517D-04  0.45141114D-04 -0.15131315D-07 -0.76767491D-05
 -0.82266077D-05  0.70943799D-05  0.94300813D-05 -0.99561773D-07  0.37704310D-07
 -0.10005276D-05 -0.18457781D-05 -0.29796582D-05 -0.38786296D-05 -0.33096417D-05
 -0.11427397D-05 -0.45826657D-05 -0.21121464D-05  0.59226790D-05  0.32905558D-04
  0.25229894D-04  0.12591486D-04 -0.23515596D-04 -0.18030268D-04 -0.89983672D-05
 -0.94973257D-07 -0.72819470D-07 -0.36342019D-07 -0.96785497D-04 -0.86328942D-04
  0.17724548D-03  0.79534547D-07 -0.14979975D-04 -0.33501002D-04  0.10160366D-05
 -0.99586081D-05 -0.19884228D-07 -0.16537471D-06  0.32385879D-04  0.54932580D-04
  0.62538801D-04 -0.11559691D-03  0.75810245D-05  0.12858852D-04  0.14639349D-04
  0.50543160D-05  0.55405554D-05  0.93978307D-05  0.10699098D-04  0.13309869D-05
 -0.12524589D-04 -0.23051929D-04 -0.37302373D-04 -0.49035013D-04 -0.42057046D-04
 -0.14380018D-04  0.29708042D-04  0.13255671D-04 -0.39144172D-04 -0.20503538D-04
 -0.15796870D-04 -0.69356770D-05  0.14322491D-05  0.11034707D-05  0.48448308D-06
  0.69402767D-07  0.53471090D-07  0.23476689D-07  0.12368600D-03 -0.30451654D-04
 -0.21976435D-04 -0.29828081D-07 -0.21044097D-04 -0.43042542D-04 -0.94187521D-05
  0.12902298D-04  0.62614312D-07 -0.39107784D-07 -0.52931307D-05 -0.89781514D-05
 -0.10221308D-04 -0.23918171D-05 -0.45387226D-06 -0.83536725D-06 -0.13517819D-05
 -0.17769551D-05 -0.15240841D-05 -0.52111024D-06  0.60626361D-05  0.27051364D-05
 -0.79883040D-05  0.36091006D-04  0.27806174D-04  0.12208408D-04  0.38494360D-04
  0.29657829D-04  0.13021384D-04 -0.23489194D-06 -0.18097157D-06 -0.79456269D-07
  0.17147145D-04 -0.79703856D-04 -0.33317241D-04  0.15589866D-06  0.38159741D-04
 -0.45170364D-04  0.23422863D-05 -0.58338163D-04 -0.74299732D-07  0.22117402D-06
  0.12721713D-04  0.23469076D-04  0.37886365D-04  0.49316791D-04  0.42082107D-04
  0.14529940D-04 -0.15199674D-03 -0.70055158D-04  0.19644198D-03 -0.17765184D-03
 -0.13621217D-03 -0.67979417D-04 -0.37229918D-03 -0.28545539D-03 -0.14246225D-03
 -0.19823767D-05 -0.15199607D-05 -0.75856692D-06 -0.64702246D-03 -0.89956775D-04
  0.20633832D-03  0.12309735D-05  0.25531925D-04  0.23596716D-03  0.34604235D-04
  0.27274045D-03  0.39492590D-06  0.13535932D-05  0.20409694D-04  0.34618704D-04
  0.39412171D-04  0.19940753D-05  0.20661439D-04  0.35045711D-04  0.39898303D-04
  0.24494394D-05  0.82568144D+00  0.15196946D+01  0.24591528D+01  0.32326251D+01
  0.27726038D+01  0.94800033D+00 -0.15982947D-01 -0.71315600D-02  0.21059592D-01
 -0.22190038D-02 -0.17096228D-02 -0.75061650D-03  0.26090449D-02  0.20101284D-02
  0.88255466D-03  0.24557703D-04  0.18920386D-04  0.83070687D-05  0.32755031D-02
  0.20813899D-03  0.10626608D-03  0.43738249D-07 -0.90736215D-02 -0.91047662D-02
 -0.90389259D-02  0.18514130D-04  0.17265175D-05 -0.11414369D-05  0.10847158D-03
  0.18398832D-03  0.20946420D-03 -0.19291999D-03
MO    3     MO 0.0        OCC NO =    1.0000000  ORB. ENERGY =  -19.141333
 -0.44277147D-04 -0.81682690D-04 -0.13186119D-03 -0.17164409D-03 -0.14646421D-03
 -0.50570572D-04 -0.82711931D-04 -0.38121853D-04  0.10689766D-03  0.13910615D-03
  0.10665777D-03  0.53229703D-04 -0.19224803D-03 -0.14740359D-03 -0.73564723D-04
  0.57710643D-08  0.44248861D-08  0.22083283D-08 -0.10932879D-03 -0.64335415D-03
  0.98236670D-03 -0.12623151D-08 -0.39847728D-03 -0.66131633D-03 -0.20544390D-03
  0.77320969D-03 -0.45061633D-07 -0.39212009D-07  0.14608060D-04  0.26949019D-04
  0.43504072D-04  0.56629375D-04  0.48321949D-04  0.16684408D-04 -0.84538672D-04
 -0.38963797D-04  0.10925855D-03 -0.41505616D-04 -0.31823874D-04 -0.15882344D-04
  0.61346757D-04  0.47036802D-04  0.23474661D-04 -0.11153641D-07 -0.85519047D-08
 -0.42679998D-08 -0.74548873D-03 -0.14292456D-03 -0.44481143D-03  0.16639836D-06
 -0.29130745D-04 -0.61889454D-04  0.52357273D-04  0.76619008D-04  0.17384471D-07
  0.44870254D-07 -0.38232839D-05 -0.70532123D-05 -0.11386072D-04 -0.14821282D-04
 -0.12647027D-04 -0.43667145D-05  0.24197070D-04  0.11152408D-04 -0.31272515D-04
  0.94144098D-04  0.72183723D-04  0.36024737D-04 -0.76471686D-04 -0.58633638D-04
 -0.29262295D-04 -0.12284381D-07 -0.94188841D-08 -0.47006833D-08  0.53786224D-03
  0.12964783D-03 -0.12209406D-03  0.28063358D-07 -0.11120300D-05  0.61619491D-04
  0.66558808D-05 -0.43867285D-04 -0.90232548D-08 -0.23856122D-07  0.10687802D-04
  0.19716908D-04  0.31829203D-04  0.41432165D-04  0.35354142D-04  0.12206936D-04
 -0.40965762D-04 -0.18881082D-04  0.52944525D-04 -0.64024931D-05 -0.49090256D-05
 -0.24499478D-05 -0.46626422D-04 -0.35750183D-04 -0.17841847D-04  0.10408395D-07
  0.79804969D-08  0.39828272D-08 -0.32902446D-03 -0.13655066D-03  0.11059725D-03
 -0.30093249D-07 -0.29871854D-04  0.23388559D-04  0.48671520D-04 -0.46636338D-04
  0.38782901D-07  0.38485261D-07 -0.23438882D-05 -0.43240160D-05 -0.69803025D-05
 -0.90862798D-05 -0.77533390D-05 -0.26770416D-05  0.19911302D-04  0.91771008D-05
 -0.25733549D-04  0.56347543D-04  0.43203722D-04  0.21561685D-04 -0.12416193D-03
 -0.95199496D-04 -0.47511221D-04  0.20101086D-07  0.15412238D-07  0.76917869D-08
  0.53966142D-03 -0.15898364D-03 -0.20182698D-03  0.95780096D-07  0.29538950D-04
  0.34167001D-04  0.10208482D-04 -0.17704177D-04 -0.12909854D-09 -0.44165312D-07
  0.26168304D-04  0.48275412D-04  0.77931483D-04  0.10144363D-03  0.86562037D-04
  0.29887791D-04 -0.11578970D-03 -0.53367367D-04  0.14964767D-03  0.64286559D-04
  0.49290856D-04  0.24599592D-04  0.74805349D-04  0.57355997D-04  0.28624662D-04
 -0.28369474D-07 -0.21751913D-07 -0.10855729D-07 -0.49388233D-03  0.62040637D-03
 -0.51171905D-04 -0.11298644D-06  0.11654379D-03 -0.78587144D-04  0.66452902D-04
  0.10142069D-04 -0.43614073D-07  0.77598813D-07 -0.24556378D-04 -0.41652265D-04
 -0.47419632D-04 -0.15472528D-03 -0.76862598D-05 -0.13037351D-04 -0.14842564D-04
 -0.45006869D-04  0.12091265D-04  0.20509073D-04  0.23348855D-04  0.62421156D-04
  0.73959895D-04  0.13612569D-03  0.22027706D-03  0.28956036D-03  0.24835424D-03
  0.84916532D-04 -0.17920419D-03 -0.79960561D-04  0.23612461D-03 -0.16376786D-03
 -0.12617431D-03 -0.55397316D-04  0.10190989D-03  0.78516078D-04  0.34472787D-04
  0.33838636D-07  0.26070845D-07  0.11446505D-07 -0.55845183D-03  0.23311711D-03
 -0.11104827D-03 -0.36135156D-07  0.77826639D-04  0.26403166D-03  0.18490966D-03
  0.87959531D-06  0.45862319D-07 -0.26763121D-07 -0.13025590D-04 -0.22093866D-04
 -0.25153085D-04 -0.11226419D-03  0.82553016D+00  0.15194162D+01  0.24587022D+01
  0.32320328D+01  0.27720958D+01  0.94782663D+00 -0.15658271D-01 -0.69866900D-02
  0.20631789D-01 -0.15946163D-02 -0.12285659D-02 -0.53940661D-03  0.27792441D-02
  0.21412577D-02  0.94012748D-03  0.68948297D-08  0.53120946D-08  0.23322956D-08
  0.46721782D-02 -0.35297011D-03  0.54990090D-03  0.21557056D-08 -0.94445028D-02
 -0.92399979D-02 -0.94952436D-02 -0.50307619D-03  0.55666099D-07  0.50010420D-07
  0.79735745D-05  0.14709688D-04  0.23745997D-04  0.30910233D-04  0.26375758D-04
  0.91069153D-05 -0.26799690D-04 -0.12351953D-04  0.34636164D-04 -0.50779014D-05
 -0.38934127D-05 -0.19430858D-05  0.25077230D-05  0.19227629D-05  0.95959346D-06
  0.23201193D-07  0.17789203D-07  0.88780590D-08 -0.46311811D-04 -0.18170446D-04
  0.13224250D-04 -0.63829699D-07 -0.27956540D-05  0.32995021D-04  0.29048802D-04
  0.33367040D-04  0.26321213D-07  0.93291204D-08  0.38475601D-05  0.65261902D-05
  0.74298368D-05  0.20928939D-05  0.38376239D-05  0.65093365D-05  0.74106495D-05
  0.19873853D-05 -0.16206313D-05 -0.29828268D-05 -0.48267768D-05 -0.63449332D-05
 -0.54420123D-05 -0.18607164D-05  0.19654545D-05  0.87698198D-06 -0.25897395D-05
  0.37961388D-04  0.29247203D-04  0.12841097D-04  0.11298674D-04  0.87050195D-05
  0.38219724D-05 -0.12781743D-06 -0.98476440D-07 -0.43236462D-07  0.19174400D-04
 -0.11894446D-04 -0.61423788D-06  0.83596665D-07 -0.91777833D-05 -0.80098468D-05
  0.62363982D-05 -0.11593962D-04 -0.17222774D-06 -0.46729766D-07 -0.33680400D-05
 -0.57128333D-05 -0.65038588D-05 -0.49412333D-05
MO    4     MO 0.0        OCC NO =    1.0000000  ORB. ENERGY =  -10.267842
  0.86052537D-02  0.15875013D-01  0.25627193D-01  0.33358991D-01  0.28465287D-01
  0.98283796D-02 -0.15227590D-04 -0.70183825D-05  0.19680277D-04 -0.13384930D-03
 -0.10262715D-03 -0.51218142D-04 -0.24390414D-03 -0.18701023D-03 -0.93331209D-04
  0.68344746D-07  0.52402417D-07  0.26152478D-07  0.17532721D-02 -0.40152805D-03
  0.98914613D-03 -0.82689768D-07 -0.65477189D-03 -0.53697370D-03 -0.52841489D-03
 -0.34588499D-03  0.22248702D-07  0.76143685D-07  0.34825109D-04  0.64245527D-04
  0.10371220D-03  0.13500247D-03  0.11519785D-03  0.39775050D-04 -0.53074455D-04
 -0.24461968D-04  0.68593911D-04 -0.16867816D-03 -0.12933172D-03 -0.64545590D-04
 -0.63712919D-04 -0.48851025D-04 -0.24380085D-04  0.60947276D-07  0.46730505D-07
  0.23321797D-07 -0.12194449D-02 -0.25431192D-03 -0.50733904D-03  0.23907330D-06
  0.65346852D-04 -0.16581837D-04  0.80055713D-05 -0.59415929D-05 -0.73831283D-08
  0.10553513D-06 -0.65589522D-04 -0.12099986D-03 -0.19533129D-03 -0.25426331D-03
 -0.21696334D-03 -0.74912227D-04  0.13030130D-03  0.60055751D-04 -0.16840259D-03
 -0.16901247D-03 -0.12958804D-03 -0.64673514D-04 -0.19063999D-05 -0.14617065D-05
 -0.72949399D-06  0.15086838D-07  0.11567630D-07  0.57730583D-08  0.93703248D-03
  0.65181640D-03 -0.84199724D-04 -0.15474628D-06 -0.47011753D-04  0.64323247D-04
 -0.13638201D-03 -0.17072975D-04 -0.65218539D-07 -0.79205777D-07  0.15502753D-04
  0.28599552D-04  0.46168545D-04  0.60097727D-04  0.51281500D-04  0.17706269D-04
 -0.43682336D-04 -0.20133149D-04  0.56455450D-04 -0.16463139D-03 -0.12622891D-03
 -0.62997073D-04  0.53601577D-04  0.41098290D-04  0.20510927D-04 -0.13053445D-07
 -0.10008554D-07 -0.49949697D-08 -0.12271148D-02 -0.33956393D-03  0.40835428D-03
 -0.11265373D-06  0.71747167D-04  0.20973165D-04  0.67367155D-06 -0.72050662D-04
 -0.14156989D-07  0.78864946D-07  0.21832408D-02  0.40276531D-02  0.65018809D-02
  0.84635170D-02  0.72219344D-02  0.24935604D-02  0.25623798D-03  0.11809985D-03
 -0.33116431D-03 -0.42552077D-04 -0.32626234D-04 -0.16282777D-04  0.37464124D-03
  0.28725114D-03  0.14335845D-03 -0.10639896D-06 -0.81579975D-07 -0.40714125D-07
  0.22992453D-02 -0.42287257D-03 -0.10188132D-02  0.35499055D-06 -0.40584536D-03
 -0.31469301D-03 -0.36613492D-03  0.27637291D-03 -0.71191192D-07 -0.54419773D-07
  0.53243109D+00  0.98223140D+00  0.15856260D+01  0.20640140D+01  0.17612269D+01
  0.60810931D+00 -0.20006043D-01 -0.92207670D-02  0.25855993D-01  0.12103187D-02
  0.92799563D-03  0.46313486D-03 -0.16906419D-04 -0.12962769D-04 -0.64693305D-05
 -0.31474406D-06 -0.24132578D-06 -0.12043848D-06 -0.33569780D-02  0.16330965D-02
 -0.16635396D-03 -0.21420542D-06 -0.95745707D-02 -0.10426841D-01 -0.10558539D-01
 -0.31630409D-03 -0.38045744D-06  0.20413117D-07 -0.25671036D-04 -0.43542936D-04
 -0.49572094D-04 -0.12026724D-03 -0.17275512D-04 -0.29302539D-04 -0.33359905D-04
 -0.98086553D-04  0.34528859D-04  0.58567479D-04  0.66677005D-04  0.32924924D-03
  0.11264035D-03  0.20731838D-03  0.33548027D-03  0.44099820D-03  0.37824159D-03
  0.12932722D-03 -0.70324224D-03 -0.31378532D-03  0.92661225D-03  0.13334883D-03
  0.10273808D-03  0.45107552D-04 -0.38367385D-04 -0.29560002D-04 -0.12978433D-04
  0.74377399D-07  0.57303776D-07  0.25159444D-07 -0.17532399D-02  0.78624705D-03
  0.16087205D-04 -0.21198163D-06 -0.39202778D-03  0.74727425D-03  0.10143229D-02
  0.12678916D-03  0.62833756D-06  0.78811080D-07  0.62873905D-04  0.10664604D-03
  0.12141275D-03 -0.80910024D-05 -0.77919120D-04 -0.14341278D-03 -0.23206894D-03
 -0.30506112D-03 -0.26164915D-03 -0.89462288D-04  0.27124424D-03  0.12102865D-03
 -0.35739923D-03  0.64211057D-04  0.49471158D-04  0.21720503D-04  0.61175405D-04
  0.47132352D-04  0.20693641D-04  0.14948536D-07  0.11517041D-07  0.50566013D-08
  0.80167830D-03 -0.13017336D-03  0.68714119D-04  0.19534170D-07 -0.24795778D-03
 -0.23380433D-03 -0.29573641D-03 -0.67339643D-07 -0.42431288D-07 -0.23143268D-07
 -0.14758880D-04 -0.27227252D-04 -0.43953227D-04 -0.57214042D-04 -0.48820846D-04
 -0.16856665D-04  0.38156740D-04  0.17586407D-04 -0.49314120D-04  0.71788872D-04
  0.55043153D-04  0.27470391D-04 -0.48728779D-05 -0.37362137D-05 -0.18646325D-05
  0.54128998D-09  0.41502683D-09  0.20712747D-09  0.35175258D-03  0.10493642D-03
 -0.21844540D-04 -0.14513074D-06  0.23888973D-04  0.62412820D-05 -0.25673999D-04
  0.13146678D-04 -0.32331206D-07  0.12991359D-06 -0.54049129D-05 -0.91677553D-05
 -0.10437165D-04 -0.73159015D-05 -0.54035711D-05 -0.91654793D-05 -0.10434574D-04
 -0.74074623D-05  0.10007269D-04  0.18418718D-04  0.29804962D-04  0.39179457D-04
  0.33603992D-04  0.11489776D-04 -0.31816497D-04 -0.14196459D-04  0.41922333D-04
  0.77998312D-05  0.60093494D-05  0.26384281D-05 -0.81042433D-05 -0.62438825D-05
 -0.27414007D-05  0.14960144D-06  0.11525984D-06  0.50605279D-07 -0.87093823D-04
 -0.14933248D-04 -0.21505170D-04 -0.11846592D-06  0.45444360D-04  0.26998269D-04
  0.35605506D-04 -0.15392824D-04 -0.61272946D-07 -0.41184782D-07  0.73317468D-06
  0.12436030D-05  0.14157981D-05  0.82466453D-05
MO    5     MO 0.0        OCC NO =    1.0000000  ORB. ENERGY =  -10.257797
  0.53252911D+00  0.98241222D+00  0.15859179D+01  0.20643939D+01  0.17615511D+01
  0.60822126D+00 -0.19935777D-01 -0.91883815D-02  0.25765181D-01  0.59048643D-03
  0.45274754D-03  0.22595276D-03 -0.52338939D-03 -0.40130179D-03 -0.20027772D-03
 -0.15773516D-08 -0.12094132D-08 -0.60358194D-09 -0.33832942D-02  0.11335386D-02
 -0.17726392D-02 -0.45210627D-07 -0.97845982D-02 -0.94711631D-02 -0.10366647D-01
 -0.10225323D-02 -0.12807174D-06 -0.66924512D-07  0.15154599D-02  0.27957277D-02
  0.45131713D-02  0.58748081D-02  0.50129844D-02  0.17308630D-02  0.28512464D-03
  0.13141368D-03 -0.36849769D-03 -0.33870499D-03 -0.25969750D-03 -0.12960725D-03
 -0.14957788D-03 -0.11468683D-03 -0.57236766D-04  0.99885577D-07  0.76585925D-07