Title Card Required                                                     
SP        UB3LYP                                                      6-311G(d,p)         
Number of atoms                            I               17
Info1-9                                    I   N=           9
          45          44           0           0           0         110
           1          18        -502
Full Title                                 C   N=           2
Title Card Required     
Route                                      C   N=           5
# ub3lyp/6-311g(d,p) geom=connectivity temperature=823.15   
Charge                                     I                0
Multiplicity                               I                2
Number of electrons                        I               73
Number of alpha electrons                  I               37
Number of beta electrons                   I               36
Number of basis functions                  I              222
Number of independent functions            I              222
Number of point charges in /Mol/           I                0
Number of translation vectors              I                0
Atomic numbers                             I   N=          17
           6           6           6           6           6           6
           1           1           1           8           1           8
           6           1           1           8           1
Nuclear charges                            R   N=          17
  6.00000000E+00  6.00000000E+00  6.00000000E+00  6.00000000E+00  6.00000000E+00
  6.00000000E+00  1.00000000E+00  1.00000000E+00  1.00000000E+00  8.00000000E+00
  1.00000000E+00  8.00000000E+00  6.00000000E+00  1.00000000E+00  1.00000000E+00
  8.00000000E+00  1.00000000E+00
Current cartesian coordinates              R   N=          51
  1.85835485E+00 -1.67798251E+00  5.13927846E-04 -8.59411471E-01 -1.59033888E+00
  1.36241488E-03 -2.09801355E+00  6.82181517E-01  1.01470527E-03 -6.99824066E-01
  2.98846941E+00 -2.81646853E-04  1.92102765E+00  3.03085406E+00 -6.61481804E-04
  3.21127594E+00  7.43365140E-01 -2.32513973E-04 -1.88773052E+00 -3.35586653E+00
  2.25058615E-03 -1.72243801E+00  4.76690579E+00 -9.16594830E-04  2.96497095E+00
  4.79129645E+00 -1.33989348E-03  5.72119884E+00  5.89692593E-01 -7.23842766E-04
  6.05825037E+00 -1.23554096E+00 -5.36759879E-04  3.17214157E+00 -3.64626456E+00
  4.93140859E-04 -4.94588751E+00  8.39665644E-01  2.15798957E-03 -5.55124614E+00
  1.91163925E+00  1.67958472E+00 -5.55201337E+00  1.92140535E+00 -1.66875864E+00
 -5.99693430E+00 -1.62188971E+00 -4.76407722E-03 -7.80617321E+00 -1.46943226E+00
  6.43443979E-03
Number of symbols in /Mol/                 I                0
Force Field                                I                0
Atom Types                                 C   N=          17
                                                            
                                                            
                                                            
                        
Int Atom Types                             I   N=          17
           0           0           0           0           0           0
           0           0           0           0           0           0
           0           0           0           0           0
MM charges                                 R   N=          17
  0.00000000E+00  0.00000000E+00  0.00000000E+00  0.00000000E+00  0.00000000E+00
  0.00000000E+00  0.00000000E+00  0.00000000E+00  0.00000000E+00  0.00000000E+00
  0.00000000E+00  0.00000000E+00  0.00000000E+00  0.00000000E+00  0.00000000E+00
  0.00000000E+00  0.00000000E+00
Integer atomic weights                     I   N=          17
          12          12          12          12          12          12
           1           1           1          16           1          16
          12           1           1          16           1
Real atomic weights                        R   N=          17
  1.20000000E+01  1.20000000E+01  1.20000000E+01  1.20000000E+01  1.20000000E+01
  1.20000000E+01  1.00782504E+00  1.00782504E+00  1.00782504E+00  1.59949146E+01
  1.00782504E+00  1.59949146E+01  1.20000000E+01  1.00782504E+00  1.00782504E+00
  1.59949146E+01  1.00782504E+00
Atom fragment info                         I   N=          17
           0           0           0           0           0           0
           0           0           0           0           0           0
           0           0           0           0           0
Atom residue num                           I   N=          17
           0           0           0           0           0           0
           0           0           0           0           0           0
           0           0           0           0           0
Nuclear spins                              I   N=          17
           0           0           0           0           0           0
           1           1           1           0           1           0
           0           1           1           0           1
Nuclear ZEff                               R   N=          17
 -3.60000000E+00 -3.60000000E+00 -3.60000000E+00 -3.60000000E+00 -3.60000000E+00
 -3.60000000E+00 -1.00000000E+00 -1.00000000E+00 -1.00000000E+00 -5.60000000E+00
 -1.00000000E+00 -5.60000000E+00 -3.60000000E+00 -1.00000000E+00 -1.00000000E+00
 -5.60000000E+00 -1.00000000E+00
Nuclear ZNuc                               R   N=          17
  6.00000000E+00  6.00000000E+00  6.00000000E+00  6.00000000E+00  6.00000000E+00
  6.00000000E+00  1.00000000E+00  1.00000000E+00  1.00000000E+00  8.00000000E+00
  1.00000000E+00  8.00000000E+00  6.00000000E+00  1.00000000E+00  1.00000000E+00
  8.00000000E+00  1.00000000E+00
Nuclear QMom                               R   N=          17
  0.00000000E+00  0.00000000E+00  0.00000000E+00  0.00000000E+00  0.00000000E+00
  0.00000000E+00  0.00000000E+00  0.00000000E+00  0.00000000E+00  0.00000000E+00
  0.00000000E+00  0.00000000E+00  0.00000000E+00  0.00000000E+00  0.00000000E+00
  0.00000000E+00  0.00000000E+00
Nuclear GFac                               R   N=          17
  0.00000000E+00  0.00000000E+00  0.00000000E+00  0.00000000E+00  0.00000000E+00
  0.00000000E+00  2.79284600E+00  2.79284600E+00  2.79284600E+00  0.00000000E+00
  2.79284600E+00  0.00000000E+00  0.00000000E+00  2.79284600E+00  2.79284600E+00
  0.00000000E+00  2.79284600E+00
MicOpt                                     I   N=          17
          -1          -1          -1          -1          -1          -1
          -1          -1          -1          -1          -1          -1
          -1          -1          -1          -1          -1
Number of residues                         I                0
Number of secondary structures             I                0
SymInf integers                            I   N=          26
           1           1           1           1           1           0
           0           0           0           0           0           0
           0           0           0           0           0           0
           0           0           0           0           0           0
           0           0
RotTr to input orientation                 R   N=          12
 -1.00000000E+00 -7.40004025E-09  0.00000000E+00  7.40004025E-09 -1.00000000E+00
  0.00000000E+00  0.00000000E+00  0.00000000E+00  1.00000000E+00  7.76599778E-08
 -1.81206615E-07  7.76599777E-08
Number of contracted shells                I               78
Number of primitive shells                 I              162
Pure/Cartesian d shells                    I                0
Pure/Cartesian f shells                    I                0
Highest angular momentum                   I                2
Largest degree of contraction              I                6
Shell types                                I   N=          78
           0          -1          -1          -1          -2           0
          -1          -1          -1          -2           0          -1
          -1          -1          -2           0          -1          -1
          -1          -2           0          -1          -1          -1
          -2           0          -1          -1          -1          -2
           0           0           0           1           0           0
           0           1           0           0           0           1
           0          -1          -1          -1          -2           0
           0           0           1           0          -1          -1
          -1          -2           0          -1          -1          -1
          -2           0           0           0           1           0
           0           0           1           0          -1          -1
          -1          -2           0           0           0           1
Number of primitives per shell             I   N=          78
           6           3           1           1           1           6
           3           1           1           1           6           3
           1           1           1           6           3           1
           1           1           6           3           1           1
           1           6           3           1           1           1
           3           1           1           1           3           1
           1           1           3           1           1           1
           6           3           1           1           1           3
           1           1           1           6           3           1
           1           1           6           3           1           1
           1           3           1           1           1           3
           1           1           1           6           3           1
           1           1           3           1           1           1
Shell to atom map                          I   N=          78
           1           1           1           1           1           2
           2           2           2           2           3           3
           3           3           3           4           4           4
           4           4           5           5           5           5
           5           6           6           6           6           6
           7           7           7           7           8           8
           8           8           9           9           9           9
          10          10          10          10          10          11
          11          11          11          12          12          12
          12          12          13          13          13          13
          13          14          14          14          14          15
          15          15          15          16          16          16
          16          16          17          17          17          17
Primitive exponents                        R   N=         162
  4.56324000E+03  6.82024000E+02  1.54973000E+02  4.44553000E+01  1.30290000E+01
  1.82773000E+00  2.09642000E+01  4.80331000E+00  1.45933000E+00  4.83456000E-01
  1.45585000E-01  6.26000000E-01  4.56324000E+03  6.82024000E+02  1.54973000E+02
  4.44553000E+01  1.30290000E+01  1.82773000E+00  2.09642000E+01  4.80331000E+00
  1.45933000E+00  4.83456000E-01  1.45585000E-01  6.26000000E-01  4.56324000E+03
  6.82024000E+02  1.54973000E+02  4.44553000E+01  1.30290000E+01  1.82773000E+00
  2.09642000E+01  4.80331000E+00  1.45933000E+00  4.83456000E-01  1.45585000E-01
  6.26000000E-01  4.56324000E+03  6.82024000E+02  1.54973000E+02  4.44553000E+01
  1.30290000E+01  1.82773000E+00  2.09642000E+01  4.80331000E+00  1.45933000E+00
  4.83456000E-01  1.45585000E-01  6.26000000E-01  4.56324000E+03  6.82024000E+02
  1.54973000E+02  4.44553000E+01  1.30290000E+01  1.82773000E+00  2.09642000E+01
  4.80331000E+00  1.45933000E+00  4.83456000E-01  1.45585000E-01  6.26000000E-01
  4.56324000E+03  6.82024000E+02  1.54973000E+02  4.44553000E+01  1.30290000E+01
  1.82773000E+00  2.09642000E+01  4.80331000E+00  1.45933000E+00  4.83456000E-01
  1.45585000E-01  6.26000000E-01  3.38650000E+01  5.09479000E+00  1.15879000E+00
  3.25840000E-01  1.02741000E-01  7.50000000E-01  3.38650000E+01  5.09479000E+00
  1.15879000E+00  3.25840000E-01  1.02741000E-01  7.50000000E-01  3.38650000E+01
  5.09479000E+00  1.15879000E+00  3.25840000E-01  1.02741000E-01  7.50000000E-01
  8.58850000E+03  1.29723000E+03  2.99296000E+02  8.73771000E+01  2.56789000E+01
  3.74004000E+00  4.21175000E+01  9.62837000E+00  2.85332000E+00  9.05661000E-01
  2.55611000E-01  1.29200000E+00  3.38650000E+01  5.09479000E+00  1.15879000E+00
  3.25840000E-01  1.02741000E-01  7.50000000E-01  8.58850000E+03  1.29723000E+03
  2.99296000E+02  8.73771000E+01  2.56789000E+01  3.74004000E+00  4.21175000E+01
  9.62837000E+00  2.85332000E+00  9.05661000E-01  2.55611000E-01  1.29200000E+00
  4.56324000E+03  6.82024000E+02  1.54973000E+02  4.44553000E+01  1.30290000E+01
  1.82773000E+00  2.09642000E+01  4.80331000E+00  1.45933000E+00  4.83456000E-01
  1.45585000E-01  6.26000000E-01  3.38650000E+01  5.09479000E+00  1.15879000E+00
  3.25840000E-01  1.02741000E-01  7.50000000E-01  3.38650000E+01  5.09479000E+00
  1.15879000E+00  3.25840000E-01  1.02741000E-01  7.50000000E-01  8.58850000E+03
  1.29723000E+03  2.99296000E+02  8.73771000E+01  2.56789000E+01  3.74004000E+00
  4.21175000E+01  9.62837000E+00  2.85332000E+00  9.05661000E-01  2.55611000E-01
  1.29200000E+00  3.38650000E+01  5.09479000E+00  1.15879000E+00  3.25840000E-01
  1.02741000E-01  7.50000000E-01
Contraction coefficients                   R   N=         162
  1.96665025E-03  1.52306019E-02  7.61269097E-02  2.60801033E-01  6.16462078E-01
  2.21006028E-01  1.14660081E-01  9.19999648E-01 -3.03068213E-03  1.00000000E+00
  1.00000000E+00  1.00000000E+00  1.96665025E-03  1.52306019E-02  7.61269097E-02
  2.60801033E-01  6.16462078E-01  2.21006028E-01  1.14660081E-01  9.19999648E-01
 -3.03068213E-03  1.00000000E+00  1.00000000E+00  1.00000000E+00  1.96665025E-03
  1.52306019E-02  7.61269097E-02  2.60801033E-01  6.16462078E-01  2.21006028E-01
  1.14660081E-01  9.19999648E-01 -3.03068213E-03  1.00000000E+00  1.00000000E+00
  1.00000000E+00  1.96665025E-03  1.52306019E-02  7.61269097E-02  2.60801033E-01
  6.16462078E-01  2.21006028E-01  1.14660081E-01  9.19999648E-01 -3.03068213E-03
  1.00000000E+00  1.00000000E+00  1.00000000E+00  1.96665025E-03  1.52306019E-02
  7.61269097E-02  2.60801033E-01  6.16462078E-01  2.21006028E-01  1.14660081E-01
  9.19999648E-01 -3.03068213E-03  1.00000000E+00  1.00000000E+00  1.00000000E+00
  1.96665025E-03  1.52306019E-02  7.61269097E-02  2.60801033E-01  6.16462078E-01
  2.21006028E-01  1.14660081E-01  9.19999648E-01 -3.03068213E-03  1.00000000E+00
  1.00000000E+00  1.00000000E+00  2.54938145E-02  1.90373109E-01  8.52161486E-01
  1.00000000E+00  1.00000000E+00  1.00000000E+00  2.54938145E-02  1.90373109E-01
  8.52161486E-01  1.00000000E+00  1.00000000E+00  1.00000000E+00  2.54938145E-02
  1.90373109E-01  8.52161486E-01  1.00000000E+00  1.00000000E+00  1.00000000E+00
  1.89515008E-03  1.43859006E-02  7.07320031E-02  2.40001011E-01  5.94797026E-01
  2.80802012E-01  1.13889012E-01  9.20811101E-01 -3.27447036E-03  1.00000000E+00
  1.00000000E+00  1.00000000E+00  2.54938145E-02  1.90373109E-01  8.52161486E-01
  1.00000000E+00  1.00000000E+00  1.00000000E+00  1.89515008E-03  1.43859006E-02
  7.07320031E-02  2.40001011E-01  5.94797026E-01  2.80802012E-01  1.13889012E-01
  9.20811101E-01 -3.27447036E-03  1.00000000E+00  1.00000000E+00  1.00000000E+00
  1.96665025E-03  1.52306019E-02  7.61269097E-02  2.60801033E-01  6.16462078E-01
  2.21006028E-01  1.14660081E-01  9.19999648E-01 -3.03068213E-03  1.00000000E+00
  1.00000000E+00  1.00000000E+00  2.54938145E-02  1.90373109E-01  8.52161486E-01
  1.00000000E+00  1.00000000E+00  1.00000000E+00  2.54938145E-02  1.90373109E-01
  8.52161486E-01  1.00000000E+00  1.00000000E+00  1.00000000E+00  1.89515008E-03
  1.43859006E-02  7.07320031E-02  2.40001011E-01  5.94797026E-01  2.80802012E-01
  1.13889012E-01  9.20811101E-01 -3.27447036E-03  1.00000000E+00  1.00000000E+00
  1.00000000E+00  2.54938145E-02  1.90373109E-01  8.52161486E-01  1.00000000E+00
  1.00000000E+00  1.00000000E+00
P(S=P) Contraction coefficients            R   N=         162
  0.00000000E+00  0.00000000E+00  0.00000000E+00  0.00000000E+00  0.00000000E+00
  0.00000000E+00  4.02486927E-02  2.37593957E-01  8.15853851E-01  1.00000000E+00
  1.00000000E+00  0.00000000E+00  0.00000000E+00  0.00000000E+00  0.00000000E+00
  0.00000000E+00  0.00000000E+00  0.00000000E+00  4.02486927E-02  2.37593957E-01
  8.15853851E-01  1.00000000E+00  1.00000000E+00  0.00000000E+00  0.00000000E+00
  0.00000000E+00  0.00000000E+00  0.00000000E+00  0.00000000E+00  0.00000000E+00
  4.02486927E-02  2.37593957E-01  8.15853851E-01  1.00000000E+00  1.00000000E+00
  0.00000000E+00  0.00000000E+00  0.00000000E+00  0.00000000E+00  0.00000000E+00
  0.00000000E+00  0.00000000E+00  4.02486927E-02  2.37593957E-01  8.15853851E-01
  1.00000000E+00  1.00000000E+00  0.00000000E+00  0.00000000E+00  0.00000000E+00
  0.00000000E+00  0.00000000E+00  0.00000000E+00  0.00000000E+00  4.02486927E-02
  2.37593957E-01  8.15853851E-01  1.00000000E+00  1.00000000E+00  0.00000000E+00
  0.00000000E+00  0.00000000E+00  0.00000000E+00  0.00000000E+00  0.00000000E+00
  0.00000000E+00  4.02486927E-02  2.37593957E-01  8.15853851E-01  1.00000000E+00
  1.00000000E+00  0.00000000E+00  0.00000000E+00  0.00000000E+00  0.00000000E+00
  0.00000000E+00  0.00000000E+00  0.00000000E+00  0.00000000E+00  0.00000000E+00
  0.00000000E+00  0.00000000E+00  0.00000000E+00  0.00000000E+00  0.00000000E+00
  0.00000000E+00  0.00000000E+00  0.00000000E+00  0.00000000E+00  0.00000000E+00
  0.00000000E+00  0.00000000E+00  0.00000000E+00  0.00000000E+00  0.00000000E+00
  0.00000000E+00  3.65113974E-02  2.37152983E-01  8.19701941E-01  1.00000000E+00
  1.00000000E+00  0.00000000E+00  0.00000000E+00  0.00000000E+00  0.00000000E+00
  0.00000000E+00  0.00000000E+00  0.00000000E+00  0.00000000E+00  0.00000000E+00
  0.00000000E+00  0.00000000E+00  0.00000000E+00  0.00000000E+00  3.65113974E-02
  2.37152983E-01  8.19701941E-01  1.00000000E+00  1.00000000E+00  0.00000000E+00
  0.00000000E+00  0.00000000E+00  0.00000000E+00  0.00000000E+00  0.00000000E+00
  0.00000000E+00  4.02486927E-02  2.37593957E-01  8.15853851E-01  1.00000000E+00
  1.00000000E+00  0.00000000E+00  0.00000000E+00  0.00000000E+00  0.00000000E+00
  0.00000000E+00  0.00000000E+00  0.00000000E+00  0.00000000E+00  0.00000000E+00
  0.00000000E+00  0.00000000E+00  0.00000000E+00  0.00000000E+00  0.00000000E+00
  0.00000000E+00  0.00000000E+00  0.00000000E+00  0.00000000E+00  0.00000000E+00
  3.65113974E-02  2.37152983E-01  8.19701941E-01  1.00000000E+00  1.00000000E+00
  0.00000000E+00  0.00000000E+00  0.00000000E+00  0.00000000E+00  0.00000000E+00
  0.00000000E+00  0.00000000E+00
Coordinates of each shell                  R   N=         234
  1.85835485E+00 -1.67798251E+00  5.13927846E-04  1.85835485E+00 -1.67798251E+00
  5.13927846E-04  1.85835485E+00 -1.67798251E+00  5.13927846E-04  1.85835485E+00
 -1.67798251E+00  5.13927846E-04  1.85835485E+00 -1.67798251E+00  5.13927846E-04
 -8.59411471E-01 -1.59033888E+00  1.36241488E-03 -8.59411471E-01 -1.59033888E+00
  1.36241488E-03 -8.59411471E-01 -1.59033888E+00  1.36241488E-03 -8.59411471E-01
 -1.59033888E+00  1.36241488E-03 -8.59411471E-01 -1.59033888E+00  1.36241488E-03
 -2.09801355E+00  6.82181517E-01  1.01470527E-03 -2.09801355E+00  6.82181517E-01
  1.01470527E-03 -2.09801355E+00  6.82181517E-01  1.01470527E-03 -2.09801355E+00
  6.82181517E-01  1.01470527E-03 -2.09801355E+00  6.82181517E-01  1.01470527E-03
 -6.99824066E-01  2.98846941E+00 -2.81646853E-04 -6.99824066E-01  2.98846941E+00
 -2.81646853E-04 -6.99824066E-01  2.98846941E+00 -2.81646853E-04 -6.99824066E-01
  2.98846941E+00 -2.81646853E-04 -6.99824066E-01  2.98846941E+00 -2.81646853E-04
  1.92102765E+00  3.03085406E+00 -6.61481804E-04  1.92102765E+00  3.03085406E+00
 -6.61481804E-04  1.92102765E+00  3.03085406E+00 -6.61481804E-04  1.92102765E+00
  3.03085406E+00 -6.61481804E-04  1.92102765E+00  3.03085406E+00 -6.61481804E-04
  3.21127594E+00  7.43365140E-01 -2.32513973E-04  3.21127594E+00  7.43365140E-01
 -2.32513973E-04  3.21127594E+00  7.43365140E-01 -2.32513973E-04  3.21127594E+00
  7.43365140E-01 -2.32513973E-04  3.21127594E+00  7.43365140E-01 -2.32513973E-04
 -1.88773052E+00 -3.35586653E+00  2.25058615E-03 -1.88773052E+00 -3.35586653E+00
  2.25058615E-03 -1.88773052E+00 -3.35586653E+00  2.25058615E-03 -1.88773052E+00
 -3.35586653E+00  2.25058615E-03 -1.72243801E+00  4.76690579E+00 -9.16594830E-04
 -1.72243801E+00  4.76690579E+00 -9.16594830E-04 -1.72243801E+00  4.76690579E+00
 -9.16594830E-04 -1.72243801E+00  4.76690579E+00 -9.16594830E-04  2.96497095E+00
  4.79129645E+00 -1.33989348E-03  2.96497095E+00  4.79129645E+00 -1.33989348E-03
  2.96497095E+00  4.79129645E+00 -1.33989348E-03  2.96497095E+00  4.79129645E+00
 -1.33989348E-03  5.72119884E+00  5.89692593E-01 -7.23842766E-04  5.72119884E+00
  5.89692593E-01 -7.23842766E-04  5.72119884E+00  5.89692593E-01 -7.23842766E-04
  5.72119884E+00  5.89692593E-01 -7.23842766E-04  5.72119884E+00  5.89692593E-01
 -7.23842766E-04  6.05825037E+00 -1.23554096E+00 -5.36759879E-04  6.05825037E+00
 -1.23554096E+00 -5.36759879E-04  6.05825037E+00 -1.23554096E+00 -5.36759879E-04
  6.05825037E+00 -1.23554096E+00 -5.36759879E-04  3.17214157E+00 -3.64626456E+00
  4.93140859E-04  3.17214157E+00 -3.64626456E+00  4.93140859E-04  3.17214157E+00
 -3.64626456E+00  4.93140859E-04  3.17214157E+00 -3.64626456E+00  4.93140859E-04
  3.17214157E+00 -3.64626456E+00  4.93140859E-04 -4.94588751E+00  8.39665644E-01
  2.15798957E-03 -4.94588751E+00  8.39665644E-01  2.15798957E-03 -4.94588751E+00
  8.39665644E-01  2.15798957E-03 -4.94588751E+00  8.39665644E-01  2.15798957E-03
 -4.94588751E+00  8.39665644E-01  2.15798957E-03 -5.55124614E+00  1.91163925E+00
  1.67958472E+00 -5.55124614E+00  1.91163925E+00  1.67958472E+00 -5.55124614E+00
  1.91163925E+00  1.67958472E+00 -5.55124614E+00  1.91163925E+00  1.67958472E+00
 -5.55201337E+00  1.92140535E+00 -1.66875864E+00 -5.55201337E+00  1.92140535E+00
 -1.66875864E+00 -5.55201337E+00  1.92140535E+00 -1.66875864E+00 -5.55201337E+00
  1.92140535E+00 -1.66875864E+00 -5.99693430E+00 -1.62188971E+00 -4.76407722E-03
 -5.99693430E+00 -1.62188971E+00 -4.76407722E-03 -5.99693430E+00 -1.62188971E+00
 -4.76407722E-03 -5.99693430E+00 -1.62188971E+00 -4.76407722E-03 -5.99693430E+00
 -1.62188971E+00 -4.76407722E-03 -7.80617321E+00 -1.46943226E+00  6.43443979E-03
 -7.80617321E+00 -1.46943226E+00  6.43443979E-03 -7.80617321E+00 -1.46943226E+00
  6.43443979E-03 -7.80617321E+00 -1.46943226E+00  6.43443979E-03
Num ILSW                                   I              100
ILSW                                       I   N=         100
           1           0           0           0           2           0
           0           0           0           0         402          -1
           5           0           0           0           0           0
           0           0           1           0           0           0
           1           0           0           0           0           0
           0           0      100000           0          -1           0
           0           0           0           0           0           0
           0           0           0           1           0           0
           0 -2000000000           1           0           0           0
           0           0           4          52           0           0
           0           0           5           0           0           0
           0           0           0           0           0           1
           0           0           0           0           0           0
           0           0           0           0           0           0
           0           0           0           0           0           0
           0           0           0           0           0           0
           0           0           0           0
Num RLSW                                   I               52
RLSW                                       R   N=          52
  8.00000000E-01  7.20000000E-01  1.00000000E+00  8.10000000E-01  2.00000000E-01
  0.00000000E+00  0.00000000E+00  1.00000000E+00  0.00000000E+00  0.00000000E+00
  0.00000000E+00  0.00000000E+00  1.00000000E+00  0.00000000E+00  0.00000000E+00
  0.00000000E+00  0.00000000E+00  1.00000000E+00  0.00000000E+00  0.00000000E+00
  0.00000000E+00  0.00000000E+00  1.00000000E+00  0.00000000E+00  0.00000000E+00
  0.00000000E+00  0.00000000E+00  1.00000000E+00  0.00000000E+00  0.00000000E+00
  0.00000000E+00  0.00000000E+00  1.00000000E+00  0.00000000E+00  0.00000000E+00
  0.00000000E+00  0.00000000E+00  0.00000000E+00  1.00000000E+00  1.00000000E+00
  0.00000000E+00  1.00000000E+00  0.00000000E+00  0.00000000E+00  0.00000000E+00
  0.00000000E+00  0.00000000E+00  0.00000000E+00  0.00000000E+00  0.00000000E+00
  0.00000000E+00  0.00000000E+00
MxBond                                     I                4
NBond                                      I   N=          17
           3           3           3           3           3           3
           1           1           1           2           1           1
           4           1           1           2           1
IBond                                      I   N=          68
           2           6          12           0           1           3
           7           0           2           4          13           0
           3           5           8           0           4           6
           9           0           1           5          10           0
           2           0           0           0           4           0
           0           0           5           0           0           0
           6          11           0           0          10           0
           0           0           1           0           0           0
           3          14          15          16          13           0
           0           0          13           0           0           0
          13          17           0           0          16           0
           0           0
RBond                                      R   N=          68
  1.50000000E+00  1.00000000E+00  2.00000000E+00  0.00000000E+00  1.50000000E+00
  2.00000000E+00  1.00000000E+00  0.00000000E+00  2.00000000E+00  1.50000000E+00
  1.00000000E+00  0.00000000E+00  1.50000000E+00  1.50000000E+00  1.00000000E+00
  0.00000000E+00  1.50000000E+00  1.50000000E+00  1.00000000E+00  0.00000000E+00
  1.00000000E+00  1.50000000E+00  1.50000000E+00  0.00000000E+00  1.00000000E+00
  0.00000000E+00  0.00000000E+00  0.00000000E+00  1.00000000E+00  0.00000000E+00
  0.00000000E+00  0.00000000E+00  1.00000000E+00  0.00000000E+00  0.00000000E+00
  0.00000000E+00  1.50000000E+00  1.00000000E+00  0.00000000E+00  0.00000000E+00
  1.00000000E+00  0.00000000E+00  0.00000000E+00  0.00000000E+00  2.00000000E+00
  0.00000000E+00  0.00000000E+00  0.00000000E+00  1.00000000E+00  1.00000000E+00
  1.00000000E+00  1.00000000E+00  1.00000000E+00  0.00000000E+00  0.00000000E+00
  0.00000000E+00  1.00000000E+00  0.00000000E+00  0.00000000E+00  0.00000000E+00
  1.00000000E+00  1.00000000E+00  0.00000000E+00  0.00000000E+00  1.00000000E+00
  0.00000000E+00  0.00000000E+00  0.00000000E+00
Virial Ratio                               R      2.003377750562661E+00
SCF Energy                                 R     -4.967250395114785E+02
Total Energy                               R     -4.967250395114785E+02
S**2                                       R      7.707938649939052E-01
S**2 after annihilation                    R      7.502912739221042E-01
RMS Density                                R      5.812104906632197E-09
Job Status                                 I                1
Nuclear derivative order                   I                0
External E-field                           R   N=          35
  0.00000000E+00  0.00000000E+00  0.00000000E+00  0.00000000E+00  0.00000000E+00
  0.00000000E+00  0.00000000E+00  0.00000000E+00  0.00000000E+00  0.00000000E+00
  0.00000000E+00  0.00000000E+00  0.00000000E+00  0.00000000E+00  0.00000000E+00
  0.00000000E+00  0.00000000E+00  0.00000000E+00  0.00000000E+00  0.00000000E+00
  0.00000000E+00  0.00000000E+00  0.00000000E+00  0.00000000E+00  0.00000000E+00
  0.00000000E+00  0.00000000E+00  0.00000000E+00  0.00000000E+00  0.00000000E+00
  0.00000000E+00  0.00000000E+00  0.00000000E+00  0.00000000E+00  0.00000000E+00
IOpCl                                      I                1
IROHF                                      I                0
Alpha Orbital Energies                     R   N=         222
 -1.91702803E+01 -1.91319299E+01 -1.91133137E+01 -1.02572452E+01 -1.02466246E+01
 -1.02403446E+01 -1.02061850E+01 -1.02006130E+01 -1.01895171E+01 -1.01806993E+01
 -1.09960488E+00 -1.04203850E+00 -1.03179615E+00 -8.69744436E-01 -7.82498755E-01
 -7.46031161E-01 -6.92923956E-01 -6.28837724E-01 -6.01137746E-01 -5.64961641E-01
 -5.39299969E-01 -5.01107436E-01 -4.77793241E-01 -4.77611450E-01 -4.59863483E-01
 -4.54533220E-01 -4.38284637E-01 -4.13747185E-01 -4.03617609E-01 -3.88813426E-01
 -3.67905528E-01 -3.56195462E-01 -3.50782507E-01 -2.94540727E-01 -2.75721776E-01
 -2.61306943E-01 -2.14253508E-01 -1.45508861E-02 -1.41933508E-02  2.22517571E-02
  4.45229455E-02  6.83787064E-02  7.33057012E-02  9.44577889E-02  1.06339729E-01
  1.23187955E-01  1.51965153E-01  1.67689757E-01  2.02877181E-01  2.13452452E-01
  2.23991989E-01  2.60976998E-01  2.89992975E-01  3.02325041E-01  3.22338915E-01
  3.55934794E-01  3.56812399E-01  3.75281872E-01  3.75590551E-01  3.77851808E-01
  3.89642211E-01  3.97193184E-01  4.04896944E-01  4.35571549E-01  4.50530145E-01
  4.63210555E-01  4.72749432E-01  4.96447026E-01  5.05801566E-01  5.08427539E-01