 Entering Link 1 = D:\Gaussian\G16W\l1.exe PID=     59940.
  
 Copyright (c) 1988,1990,1992,1993,1995,1998,2003,2009,2016,
            Gaussian, Inc.  All Rights Reserved.
  
 This is part of the Gaussian(R) 16 program.  It is based on
 the Gaussian(R) 09 system (copyright 2009, Gaussian, Inc.),
 the Gaussian(R) 03 system (copyright 2003, Gaussian, Inc.),
 the Gaussian(R) 98 system (copyright 1998, Gaussian, Inc.),
 the Gaussian(R) 94 system (copyright 1995, Gaussian, Inc.),
 the Gaussian 92(TM) system (copyright 1992, Gaussian, Inc.),
 the Gaussian 90(TM) system (copyright 1990, Gaussian, Inc.),
 the Gaussian 88(TM) system (copyright 1988, Gaussian, Inc.),
 the Gaussian 86(TM) system (copyright 1986, Carnegie Mellon
 University), and the Gaussian 82(TM) system (copyright 1983,
 Carnegie Mellon University). Gaussian is a federally registered
 trademark of Gaussian, Inc.
  
 This software contains proprietary and confidential information,
 including trade secrets, belonging to Gaussian, Inc.
  
 This software is provided under written license and may be
 used, copied, transmitted, or stored only in accord with that
 written license.
  
 The following legend is applicable only to US Government
 contracts under FAR:
  
                    RESTRICTED RIGHTS LEGEND
  
 Use, reproduction and disclosure by the US Government is
 subject to restrictions as set forth in subparagraphs (a)
 and (c) of the Commercial Computer Software - Restricted
 Rights clause in FAR 52.227-19.
  
 Gaussian, Inc.
 340 Quinnipiac St., Bldg. 40, Wallingford CT 06492
  
  
 ---------------------------------------------------------------
 Warning -- This program may not be used in any manner that
 competes with the business of Gaussian, Inc. or will provide
 assistance to any competitor of Gaussian, Inc.  The licensee
 of this program is prohibited from giving any competitor of
 Gaussian, Inc. access to this program.  By using this program,
 the user acknowledges that Gaussian, Inc. is engaged in the
 business of creating and licensing software in the field of
 computational chemistry and represents and warrants to the
 licensee that it is not a competitor of Gaussian, Inc. and that
 it will not use this program in any manner prohibited above.
 ---------------------------------------------------------------
  

 Cite this work as:
 Gaussian 16, Revision A.03,
 M. J. Frisch, G. W. Trucks, H. B. Schlegel, G. E. Scuseria, 
 M. A. Robb, J. R. Cheeseman, G. Scalmani, V. Barone, 
 G. A. Petersson, H. Nakatsuji, X. Li, M. Caricato, A. V. Marenich, 
 J. Bloino, B. G. Janesko, R. Gomperts, B. Mennucci, H. P. Hratchian, 
 J. V. Ortiz, A. F. Izmaylov, J. L. Sonnenberg, D. Williams-Young, 
 F. Ding, F. Lipparini, F. Egidi, J. Goings, B. Peng, A. Petrone, 
 T. Henderson, D. Ranasinghe, V. G. Zakrzewski, J. Gao, N. Rega, 
 G. Zheng, W. Liang, M. Hada, M. Ehara, K. Toyota, R. Fukuda, 
 J. Hasegawa, M. Ishida, T. Nakajima, Y. Honda, O. Kitao, H. Nakai, 
 T. Vreven, K. Throssell, J. A. Montgomery, Jr., J. E. Peralta, 
 F. Ogliaro, M. J. Bearpark, J. J. Heyd, E. N. Brothers, K. N. Kudin, 
 V. N. Staroverov, T. A. Keith, R. Kobayashi, J. Normand, 
 K. Raghavachari, A. P. Rendell, J. C. Burant, S. S. Iyengar, 
 J. Tomasi, M. Cossi, J. M. Millam, M. Klene, C. Adamo, R. Cammi, 
 J. W. Ochterski, R. L. Martin, K. Morokuma, O. Farkas, 
 J. B. Foresman, and D. J. Fox, Gaussian, Inc., Wallingford CT, 2016.
 
 ******************************************
 Gaussian 16:  EM64W-G16RevA.03 17-Dec-2016
                08-Dec-2025 
 ******************************************
 %nprocshared=14
 Will use up to   14 processors via shared memory.
 %mem=58371MB
 %chk=F:\2025-12\sjk\SJY\PR6\PR6.chk
 ---------------------------------------------------------
 # ub3lyp/6-311g(d,p) geom=connectivity temperature=823.15
 ---------------------------------------------------------
 1/38=1,57=2,112=823150,172=1/1;
 2/12=2,17=6,18=5,40=1/2;
 3/5=4,6=6,7=101,11=2,25=1,30=1,74=-5,116=2/1,2,3;
 4//1;
 5/5=2,38=5/2;
 6/7=2,8=2,9=2,10=2,28=1/1;
 99/5=1,9=1/99;
 -------------------
 Title Card Required
 -------------------
 Symbolic Z-matrix:
 Charge =  0 Multiplicity = 2
 C                    -0.9834    0.88795   0.00027 
 C                     0.45478   0.84157   0.00072 
 C                     1.11022  -0.361     0.00054 
 C                     0.37033  -1.58143  -0.00015 
 C                    -1.01656  -1.60386  -0.00035 
 C                    -1.69933  -0.39337  -0.00012 
 H                     0.99894   1.77585   0.00119 
 H                     0.91148  -2.52254  -0.00049 
 H                    -1.569    -2.53545  -0.00071 
 O                    -3.02753  -0.31205  -0.00038 
 H                    -3.20589   0.65382  -0.00028 
 O                    -1.67863   1.92952   0.00026 
 C                     2.61725  -0.44433   0.00114 
 H                     2.93759  -1.0116    0.8888 
 H                     2.938    -1.01676  -0.88307 
 O                     3.17344   0.85827  -0.00252 
 H                     4.13085   0.77759   0.00341 
 
                          Input orientation:                          
 ---------------------------------------------------------------------
 Center     Atomic      Atomic             Coordinates (Angstroms)
 Number     Number       Type             X           Y           Z
 ---------------------------------------------------------------------
      1          6           0       -0.983399    0.887950    0.000272
      2          6           0        0.454781    0.841571    0.000721
      3          6           0        1.110221   -0.360995    0.000537
      4          6           0        0.370331   -1.581430   -0.000149
      5          6           0       -1.016564   -1.603859   -0.000350
      6          6           0       -1.699334   -0.393372   -0.000123
      7          1           0        0.998944    1.775848    0.001191
      8          1           0        0.911475   -2.522538   -0.000485
      9          1           0       -1.568995   -2.535445   -0.000709
     10          8           0       -3.027528   -0.312052   -0.000383
     11          1           0       -3.205888    0.653820   -0.000284
     12          8           0       -1.678625    1.929520    0.000261
     13          6           0        2.617251   -0.444332    0.001142
     14          1           0        2.937593   -1.011596    0.888798
     15          1           0        2.937999   -1.016764   -0.883069
     16          8           0        3.173441    0.858267   -0.002521
     17          1           0        4.130849    0.777590    0.003405
 ---------------------------------------------------------------------
                    Distance matrix (angstroms):
                    1          2          3          4          5
     1  C    0.000000
     2  C    1.438928   0.000000
     3  C    2.437849   1.369586   0.000000
     4  C    2.816101   2.424472   1.427200   0.000000
     5  C    2.492030   2.853942   2.463316   1.387076   0.000000
     6  C    1.467770   2.483001   2.809742   2.386419   1.389767
     7  H    2.172107   1.081197   2.139739   3.415622   3.935060
     8  H    3.901535   3.394967   2.170661   1.085597   2.135721
     9  H    3.473119   3.936992   3.450570   2.161280   1.083066
    10  O    2.370331   3.668422   4.138039   3.627226   2.390134
    11  H    2.234787   3.665481   4.433807   4.217308   3.144877
    12  O    1.252281   2.394797   3.608895   4.065094   3.594870
    13  C    3.839226   2.515914   1.509333   2.518262   3.814330
    14  H    4.446564   3.222928   2.133443   2.775927   4.095939
    15  H    4.448099   3.225037   2.133440   2.773322   4.094196
    16  O    4.156947   2.718713   2.396557   3.716121   4.859857
    17  H    5.115440   3.676626   3.228092   4.439199   5.671611
                    6          7          8          9         10
     6  C    0.000000
     7  H    3.462112   0.000000
     8  H    3.368927   4.299276   0.000000
     9  H    2.146035   5.018123   2.480504   0.000000
    10  O    1.330681   4.535615   4.516857   2.659097   0.000000
    11  H    1.834752   4.351961   5.200185   3.584805   0.982202
    12  O    2.322984   2.681975   5.150674   4.466311   2.616139
    13  C    4.316886   2.747384   2.688608   4.679467   5.646329
    14  H    4.761667   3.509423   2.679351   4.839698   6.071464
    15  H    4.761625   3.512909   2.674530   4.837142   6.071513
    16  O    5.030958   2.360171   4.067719   5.831636   6.310441
    17  H    5.946612   3.287150   4.610339   6.592757   7.240835
                   11         12         13         14         15
    11  H    0.000000
    12  O    1.989961   0.000000
    13  C    5.925782   4.908128   0.000000
    14  H    6.427008   5.545190   1.101063   0.000000
    15  H    6.427870   5.547439   1.101084   1.771875   0.000000
    16  O    6.382605   4.968917   1.416377   2.084817   2.084835
    17  H    7.337782   5.922579   1.945271   2.325719   2.329900
                   16         17
    16  O    0.000000
    17  H    0.960819   0.000000
 Stoichiometry    C7H7O3(2)
 Framework group  C1[X(C7H7O3)]
 Deg. of freedom    45
 Full point group                 C1      NOp   1
 Largest Abelian subgroup         C1      NOp   1
 Largest concise Abelian subgroup C1      NOp   1
                         Standard orientation:                         
 ---------------------------------------------------------------------
 Center     Atomic      Atomic             Coordinates (Angstroms)
 Number     Number       Type             X           Y           Z
 ---------------------------------------------------------------------
      1          6           0        0.983399   -0.887950    0.000272
      2          6           0       -0.454781   -0.841571    0.000721
      3          6           0       -1.110221    0.360995    0.000537
      4          6           0       -0.370331    1.581430   -0.000149
      5          6           0        1.016564    1.603859   -0.000350
      6          6           0        1.699334    0.393372   -0.000123
      7          1           0       -0.998944   -1.775848    0.001191
      8          1           0       -0.911475    2.522538   -0.000485
      9          1           0        1.568995    2.535445   -0.000709
     10          8           0        3.027528    0.312052   -0.000383
     11          1           0        3.205888   -0.653820   -0.000284
     12          8           0        1.678625   -1.929520    0.000261
     13          6           0       -2.617251    0.444332    0.001142
     14          1           0       -2.937593    1.011596    0.888798
     15          1           0       -2.937999    1.016764   -0.883069
     16          8           0       -3.173441   -0.858267   -0.002521
     17          1           0       -4.130849   -0.777590    0.003405
 ---------------------------------------------------------------------
 Rotational constants (GHZ):           2.8364562           0.8975893           0.6847503
 Standard basis: 6-311G(d,p) (5D, 7F)
 There are   232 symmetry adapted cartesian basis functions of A   symmetry.
 There are   222 symmetry adapted basis functions of A   symmetry.
   222 basis functions,   376 primitive gaussians,   232 cartesian basis functions
    37 alpha electrons       36 beta electrons
       nuclear repulsion energy       500.6695097575 Hartrees.
 NAtoms=   17 NActive=   17 NUniq=   17 SFac= 1.00D+00 NAtFMM=   60 NAOKFM=F Big=F
 Integral buffers will be    131072 words long.
 Raffenetti 2 integral format.
 Two-electron integral symmetry is turned on.
 One-electron integrals computed using PRISM.
 NBasis=   222 RedAO= T EigKep=  2.22D-04  NBF=   222
 NBsUse=   222 1.00D-06 EigRej= -1.00D+00 NBFU=   222
 ExpMin= 1.03D-01 ExpMax= 8.59D+03 ExpMxC= 1.30D+03 IAcc=3 IRadAn=         5 AccDes= 0.00D+00
 Harris functional with IExCor=  402 and IRadAn=       5 diagonalized for initial guess.
 HarFok:  IExCor=  402 AccDes= 0.00D+00 IRadAn=         5 IDoV= 1 UseB2=F ITyADJ=14
 ICtDFT=  3500011 ScaDFX=  1.000000  1.000000  1.000000  1.000000
 FoFCou: FMM=F IPFlag=           0 FMFlag=      100000 FMFlg1=           0
         NFxFlg=           0 DoJE=T BraDBF=F KetDBF=T FulRan=T
         wScrn=  0.000000 ICntrl=       500 IOpCl=  0 I1Cent=   200000004 NGrid=           0
         NMat0=    1 NMatS0=      1 NMatT0=    0 NMatD0=    1 NMtDS0=    0 NMtDT0=    0
 Petite list used in FoFCou.
 Initial guess <Sx>= 0.0000 <Sy>= 0.0000 <Sz>= 0.5000 <S**2>= 0.7500 S= 0.5000
 Requested convergence on RMS density matrix=1.00D-08 within 128 cycles.
 Requested convergence on MAX density matrix=1.00D-06.
 Requested convergence on             energy=1.00D-06.
 No special actions if energy rises.
 Integral accuracy reduced to 1.0D-05 until final iterations.
 Initial convergence to 1.0D-05 achieved.  Increase integral accuracy.
 SCF Done:  E(UB3LYP) =  -496.725039511     A.U. after   19 cycles
            NFock= 19  Conv=0.58D-08     -V/T= 2.0034
 <Sx>= 0.0000 <Sy>= 0.0000 <Sz>= 0.5000 <S**2>= 0.7708 S= 0.5103
 <L.S>= 0.000000000000E+00
 Annihilation of the first spin contaminant:
 S**2 before annihilation     0.7708,   after     0.7503

 **********************************************************************

            Population analysis using the SCF density.

 **********************************************************************

 Orbital symmetries:
 Alpha Orbitals:
       Occupied  (A) (A) (A) (A) (A) (A) (A) (A) (A) (A) (A) (A)
                 (A) (A) (A) (A) (A) (A) (A) (A) (A) (A) (A) (A)
                 (A) (A) (A) (A) (A) (A) (A) (A) (A) (A) (A) (A)
                 (A)
       Virtual   (A) (A) (A) (A) (A) (A) (A) (A) (A) (A) (A) (A)
                 (A) (A) (A) (A) (A) (A) (A) (A) (A) (A) (A) (A)
                 (A) (A) (A) (A) (A) (A) (A) (A) (A) (A) (A) (A)
                 (A) (A) (A) (A) (A) (A) (A) (A) (A) (A) (A) (A)
                 (A) (A) (A) (A) (A) (A) (A) (A) (A) (A) (A) (A)
                 (A) (A) (A) (A) (A) (A) (A) (A) (A) (A) (A) (A)
                 (A) (A) (A) (A) (A) (A) (A) (A) (A) (A) (A) (A)
                 (A) (A) (A) (A) (A) (A) (A) (A) (A) (A) (A) (A)
                 (A) (A) (A) (A) (A) (A) (A) (A) (A) (A) (A) (A)
                 (A) (A) (A) (A) (A) (A) (A) (A) (A) (A) (A) (A)
                 (A) (A) (A) (A) (A) (A) (A) (A) (A) (A) (A) (A)
                 (A) (A) (A) (A) (A) (A) (A) (A) (A) (A) (A) (A)
                 (A) (A) (A) (A) (A) (A) (A) (A) (A) (A) (A) (A)
                 (A) (A) (A) (A) (A) (A) (A) (A) (A) (A) (A) (A)
                 (A) (A) (A) (A) (A) (A) (A) (A) (A) (A) (A) (A)
                 (A) (A) (A) (A) (A)
 Beta  Orbitals:
       Occupied  (A) (A) (A) (A) (A) (A) (A) (A) (A) (A) (A) (A)
                 (A) (A) (A) (A) (A) (A) (A) (A) (A) (A) (A) (A)
                 (A) (A) (A) (A) (A) (A) (A) (A) (A) (A) (A) (A)
       Virtual   (A) (A) (A) (A) (A) (A) (A) (A) (A) (A) (A) (A)
                 (A) (A) (A) (A) (A) (A) (A) (A) (A) (A) (A) (A)
                 (A) (A) (A) (A) (A) (A) (A) (A) (A) (A) (A) (A)
                 (A) (A) (A) (A) (A) (A) (A) (A) (A) (A) (A) (A)
                 (A) (A) (A) (A) (A) (A) (A) (A) (A) (A) (A) (A)
                 (A) (A) (A) (A) (A) (A) (A) (A) (A) (A) (A) (A)
                 (A) (A) (A) (A) (A) (A) (A) (A) (A) (A) (A) (A)
                 (A) (A) (A) (A) (A) (A) (A) (A) (A) (A) (A) (A)
                 (A) (A) (A) (A) (A) (A) (A) (A) (A) (A) (A) (A)
                 (A) (A) (A) (A) (A) (A) (A) (A) (A) (A) (A) (A)
                 (A) (A) (A) (A) (A) (A) (A) (A) (A) (A) (A) (A)
                 (A) (A) (A) (A) (A) (A) (A) (A) (A) (A) (A) (A)
                 (A) (A) (A) (A) (A) (A) (A) (A) (A) (A) (A) (A)
                 (A) (A) (A) (A) (A) (A) (A) (A) (A) (A) (A) (A)
                 (A) (A) (A) (A) (A) (A) (A) (A) (A) (A) (A) (A)
                 (A) (A) (A) (A) (A) (A)
 The electronic state is 2-A.
 Alpha  occ. eigenvalues --  -19.17028 -19.13193 -19.11331 -10.25725 -10.24662
 Alpha  occ. eigenvalues --  -10.24034 -10.20618 -10.20061 -10.18952 -10.18070
 Alpha  occ. eigenvalues --   -1.09960  -1.04204  -1.03180  -0.86974  -0.78250
 Alpha  occ. eigenvalues --   -0.74603  -0.69292  -0.62884  -0.60114  -0.56496
 Alpha  occ. eigenvalues --   -0.53930  -0.50111  -0.47779  -0.47761  -0.45986
 Alpha  occ. eigenvalues --   -0.45453  -0.43828  -0.41375  -0.40362  -0.38881
 Alpha  occ. eigenvalues --   -0.36791  -0.35620  -0.35078  -0.29454  -0.27572
 Alpha  occ. eigenvalues --   -0.26131  -0.21425
 Alpha virt. eigenvalues --   -0.01455  -0.01419   0.02225   0.04452   0.06838
 Alpha virt. eigenvalues --    0.07331   0.09446   0.10634   0.12319   0.15197
 Alpha virt. eigenvalues --    0.16769   0.20288   0.21345   0.22399   0.26098
 Alpha virt. eigenvalues --    0.28999   0.30233   0.32234   0.35593   0.35681
 Alpha virt. eigenvalues --    0.37528   0.37559   0.37785   0.38964   0.39719
 Alpha virt. eigenvalues --    0.40490   0.43557   0.45053   0.46321   0.47275
 Alpha virt. eigenvalues --    0.49645   0.50580   0.50843   0.51070   0.53999
 Alpha virt. eigenvalues --    0.54722   0.57042   0.59091   0.60422   0.61086
 Alpha virt. eigenvalues --    0.62238   0.62257   0.63442   0.66501   0.72835
 Alpha virt. eigenvalues --    0.74214   0.75582   0.76160   0.78907   0.81624
 Alpha virt. eigenvalues --    0.82586   0.84439   0.84830   0.84890   0.88970
 Alpha virt. eigenvalues --    0.90941   0.91087   0.95595   0.96756   0.97607
 Alpha virt. eigenvalues --    0.99109   1.00048   1.02213   1.04505   1.08417
 Alpha virt. eigenvalues --    1.10190   1.16653   1.19304   1.19869   1.23365
 Alpha virt. eigenvalues --    1.33881   1.34443   1.35769   1.36492   1.37328
 Alpha virt. eigenvalues --    1.38084   1.40379   1.45035   1.46621   1.48983
 Alpha virt. eigenvalues --    1.53227   1.54200   1.55325   1.55350   1.57101
 Alpha virt. eigenvalues --    1.58999   1.61417   1.63503   1.64251   1.64286
 Alpha virt. eigenvalues --    1.65649   1.69503   1.72504   1.75238   1.79417
 Alpha virt. eigenvalues --    1.81049   1.83781   1.87079   1.87241   1.88043
 Alpha virt. eigenvalues --    1.91637   1.91827   1.94691   1.98479   2.03145
 Alpha virt. eigenvalues --    2.04304   2.04940   2.09184   2.10327   2.14805
 Alpha virt. eigenvalues --    2.17673   2.21833   2.26273   2.30013   2.32973
 Alpha virt. eigenvalues --    2.37789   2.40780   2.44315   2.47779   2.48884
 Alpha virt. eigenvalues --    2.49452   2.53881   2.56063   2.58785   2.62821
 Alpha virt. eigenvalues --    2.64963   2.65271   2.67235   2.67243   2.70794
 Alpha virt. eigenvalues --    2.78559   2.79708   2.83387   2.87324   2.90580
 Alpha virt. eigenvalues --    2.94265   2.96087   2.97852   3.01286   3.07822
 Alpha virt. eigenvalues --    3.07987   3.09671   3.10852   3.14882   3.18180
 Alpha virt. eigenvalues --    3.19236   3.26513   3.30034   3.31814   3.36879
 Alpha virt. eigenvalues --    3.38345   3.46643   3.52967   3.57406   3.60220
 Alpha virt. eigenvalues --    3.63790   3.75590   3.80160   3.83039   3.91359
 Alpha virt. eigenvalues --    3.97852   3.99168   4.07824   4.12776   4.25345
 Alpha virt. eigenvalues --    4.76609   4.77424   4.84677   4.88496   5.05870
 Alpha virt. eigenvalues --    5.30078   5.34028   5.61607   5.64485   5.68962
 Alpha virt. eigenvalues --   23.48932  23.77870  23.78580  23.89106  23.94436
 Alpha virt. eigenvalues --   24.10299  24.14639  49.87595  49.89354  49.96785
  Beta  occ. eigenvalues --  -19.16706 -19.13185 -19.10423 -10.25297 -10.24689
  Beta  occ. eigenvalues --  -10.24027 -10.20164 -10.20116 -10.19120 -10.17878
  Beta  occ. eigenvalues --   -1.09247  -1.04188  -1.01637  -0.86383  -0.78025
  Beta  occ. eigenvalues --   -0.73686  -0.68711  -0.62425  -0.59852  -0.56192
  Beta  occ. eigenvalues --   -0.53713  -0.49965  -0.47605  -0.47527  -0.45678
  Beta  occ. eigenvalues --   -0.43306  -0.43249  -0.41070  -0.40069  -0.36569
  Beta  occ. eigenvalues --   -0.36149  -0.35497  -0.32795  -0.29207  -0.26707
  Beta  occ. eigenvalues --   -0.25014
  Beta virt. eigenvalues --   -0.13209   0.00192   0.00821   0.02236   0.04560
  Beta virt. eigenvalues --    0.06980   0.07355   0.09874   0.10723   0.12388
  Beta virt. eigenvalues --    0.16699   0.16826   0.20542   0.21589   0.22775
  Beta virt. eigenvalues --    0.26335   0.29130   0.30508   0.32536   0.35753
  Beta virt. eigenvalues --    0.36138   0.37640   0.38105   0.38162   0.39169
  Beta virt. eigenvalues --    0.40064   0.40829   0.44227   0.45208   0.46580
  Beta virt. eigenvalues --    0.48244   0.49807   0.50940   0.50948   0.51219
  Beta virt. eigenvalues --    0.54299   0.54968   0.57297   0.59357   0.60441
  Beta virt. eigenvalues --    0.61446   0.62409   0.62695   0.63605   0.66694
  Beta virt. eigenvalues --    0.73041   0.74370   0.75845   0.76428   0.79981
  Beta virt. eigenvalues --    0.82003   0.82818   0.84672   0.84920   0.85283
  Beta virt. eigenvalues --    0.89133   0.91326   0.92926   0.95734   0.97535
  Beta virt. eigenvalues --    0.97960   0.99310   1.00363   1.02578   1.04820
  Beta virt. eigenvalues --    1.08682   1.10992   1.17749   1.19504   1.20494
  Beta virt. eigenvalues --    1.23620   1.34096   1.34560   1.35840   1.36618
  Beta virt. eigenvalues --    1.37434   1.38375   1.40502   1.45184   1.47140
  Beta virt. eigenvalues --    1.49131   1.53765   1.54629   1.55492   1.55512
  Beta virt. eigenvalues --    1.57592   1.59274   1.61671   1.63581   1.64777
  Beta virt. eigenvalues --    1.65018   1.65874   1.69773   1.72753   1.75424
  Beta virt. eigenvalues --    1.79941   1.81235   1.84655   1.87048   1.87751
  Beta virt. eigenvalues --    1.88264   1.92034   1.92094   1.94768   1.98568
  Beta virt. eigenvalues --    2.03275   2.04633   2.05232   2.09424   2.10778
  Beta virt. eigenvalues --    2.14997   2.18131   2.22009   2.26991   2.30322
  Beta virt. eigenvalues --    2.33046   2.37845   2.41030   2.44593   2.47858
  Beta virt. eigenvalues --    2.48963   2.50409   2.53949   2.56296   2.59004
  Beta virt. eigenvalues --    2.62880   2.65503   2.66170   2.67322   2.68089
  Beta virt. eigenvalues --    2.70892   2.79693   2.79910   2.83958   2.87378
  Beta virt. eigenvalues --    2.92914   2.95208   2.96768   2.98698   3.02119
  Beta virt. eigenvalues --    3.08253   3.08683   3.09753   3.11107   3.16147
  Beta virt. eigenvalues --    3.18395   3.19274   3.26724   3.31957   3.32229
  Beta virt. eigenvalues --    3.37331   3.38657   3.46964   3.53294   3.57802
  Beta virt. eigenvalues --    3.60591   3.64436   3.75615   3.80462   3.83096
  Beta virt. eigenvalues --    3.91407   3.98242   3.99414   4.08335   4.13111
  Beta virt. eigenvalues --    4.25461   4.78010   4.78438   4.84737   4.91910
  Beta virt. eigenvalues --    5.06604   5.30105   5.34365   5.62184   5.64498
  Beta virt. eigenvalues --    5.69416  23.49103  23.77881  23.78779  23.89112
  Beta virt. eigenvalues --   23.94868  24.10383  24.14743  49.87934  49.89401
  Beta virt. eigenvalues --   49.97637
          Condensed to atoms (all electrons):
               1          2          3          4          5          6
     1  C    4.929039   0.292056  -0.011664  -0.043433  -0.000943   0.211133
     2  C    0.292056   5.159938   0.399848  -0.036798  -0.034151  -0.040124
     3  C   -0.011664   0.399848   5.423835   0.427654  -0.042072  -0.045042
     4  C   -0.043433  -0.036798   0.427654   4.890083   0.512890  -0.030502
     5  C   -0.000943  -0.034151  -0.042072   0.512890   4.928082   0.375676
     6  C    0.211133  -0.040124  -0.045042  -0.030502   0.375676   5.187638
     7  H   -0.040915   0.401315  -0.037400   0.008915  -0.002248   0.011488
     8  H   -0.000908   0.006687  -0.055247   0.418709  -0.035311   0.009657
     9  H    0.008587  -0.002353   0.008254  -0.037380   0.403752  -0.037903
    10  O   -0.074506   0.006596  -0.000848   0.004266  -0.055212   0.389652
    11  H   -0.018688   0.006497  -0.000913  -0.000303   0.009586  -0.068040
    12  O    0.570292  -0.074414   0.007508  -0.000592   0.009449  -0.102876
    13  C    0.007896  -0.046282   0.270241  -0.045992   0.004090  -0.001116
    14  H    0.000326   0.001150  -0.059801  -0.000501   0.000116  -0.000013
    15  H    0.000328   0.001246  -0.060342  -0.000461   0.000130  -0.000014
    16  O    0.001087   0.005416  -0.050031   0.002871  -0.000092   0.000006
    17  H   -0.000029  -0.000568   0.013757  -0.000527   0.000020   0.000002
               7          8          9         10         11         12
     1  C   -0.040915  -0.000908   0.008587  -0.074506  -0.018688   0.570292
     2  C    0.401315   0.006687  -0.002353   0.006596   0.006497  -0.074414
     3  C   -0.037400  -0.055247   0.008254  -0.000848  -0.000913   0.007508
     4  C    0.008915   0.418709  -0.037380   0.004266  -0.000303  -0.000592
     5  C   -0.002248  -0.035311   0.403752  -0.055212   0.009586   0.009449
     6  C    0.011488   0.009657  -0.037903   0.389652  -0.068040  -0.102876
     7  H    0.525509  -0.000219   0.000090  -0.000076  -0.000262   0.006932
     8  H   -0.000219   0.568418  -0.009117  -0.000126   0.000031   0.000002
     9  H    0.000090  -0.009117   0.554342   0.003241  -0.001121  -0.000197
    10  O   -0.000076  -0.000126   0.003241   7.740150   0.314324  -0.019779
    11  H   -0.000262   0.000031  -0.001121   0.314324   0.442322   0.057368
    12  O    0.006932   0.000002  -0.000197  -0.019779   0.057368   7.912248
    13  C   -0.013138  -0.004026  -0.000282   0.000000   0.000016  -0.000117
    14  H    0.001060   0.001434   0.000009   0.000000  -0.000001   0.000004
    15  H    0.001067   0.001463   0.000009   0.000000  -0.000001   0.000004
    16  O    0.018707   0.000095   0.000002   0.000000   0.000000  -0.000001
    17  H   -0.001179  -0.000026  -0.000001   0.000000   0.000000   0.000000
              13         14         15         16         17
     1  C    0.007896   0.000326   0.000328   0.001087  -0.000029
     2  C   -0.046282   0.001150   0.001246   0.005416  -0.000568
     3  C    0.270241  -0.059801  -0.060342  -0.050031   0.013757
     4  C   -0.045992  -0.000501  -0.000461   0.002871  -0.000527
     5  C    0.004090   0.000116   0.000130  -0.000092   0.000020
     6  C   -0.001116  -0.000013  -0.000014   0.000006   0.000002
     7  H   -0.013138   0.001060   0.001067   0.018707  -0.001179
     8  H   -0.004026   0.001434   0.001463   0.000095  -0.000026
     9  H   -0.000282   0.000009   0.000009   0.000002  -0.000001
    10  O    0.000000   0.000000   0.000000   0.000000   0.000000
    11  H    0.000016  -0.000001  -0.000001   0.000000   0.000000
    12  O   -0.000117   0.000004   0.000004  -0.000001   0.000000
    13  C    4.679220   0.407033   0.407359   0.285051  -0.035052
    14  H    0.407033   0.628780  -0.053146  -0.031622  -0.005525
    15  H    0.407359  -0.053146   0.628735  -0.031686  -0.005356
    16  O    0.285051  -0.031622  -0.031686   7.892120   0.307948
    17  H   -0.035052  -0.005525  -0.005356   0.307948   0.481965
          Atomic-Atomic Spin Densities.
               1          2          3          4          5          6
     1  C   -0.020498   0.032980  -0.002084  -0.003819   0.001022   0.042641
     2  C    0.032980   0.160069  -0.027844  -0.012126   0.002590   0.004208
     3  C   -0.002084  -0.027844  -0.061294   0.029444  -0.002176  -0.002706
     4  C   -0.003819  -0.012126   0.029444   0.374820  -0.024426  -0.018228
     5  C    0.001022   0.002590  -0.002176  -0.024426  -0.138956   0.025538
     6  C    0.042641   0.004208  -0.002706  -0.018228   0.025538   0.318550
     7  H    0.000326   0.002355  -0.000365  -0.000159  -0.000023  -0.000278
     8  H   -0.000018  -0.000183   0.000455   0.002742   0.000598  -0.000358
     9  H    0.000010  -0.000024  -0.000005  -0.000095   0.000497  -0.000249
    10  O   -0.002657  -0.000278   0.000037   0.000595  -0.000870  -0.064388
    11  H    0.000853  -0.000065   0.000006  -0.000021  -0.000412   0.000244
    12  O   -0.051858  -0.006911   0.000280   0.000234  -0.000342  -0.013584
    13  C   -0.000180   0.000439   0.002740  -0.002547   0.000156  -0.000049
    14  H   -0.000003   0.000393   0.000655  -0.001146  -0.000007   0.000021
    15  H   -0.000004   0.000384   0.000658  -0.001134  -0.000007   0.000020
    16  O   -0.000002  -0.000637   0.000646   0.000089  -0.000001  -0.000001
    17  H    0.000000   0.000008  -0.000043  -0.000011   0.000000   0.000000
               7          8          9         10         11         12
     1  C    0.000326  -0.000018   0.000010  -0.002657   0.000853  -0.051858
     2  C    0.002355  -0.000183  -0.000024  -0.000278  -0.000065  -0.006911
     3  C   -0.000365   0.000455  -0.000005   0.000037   0.000006   0.000280
     4  C   -0.000159   0.002742  -0.000095   0.000595  -0.000021   0.000234
     5  C   -0.000023   0.000598   0.000497  -0.000870  -0.000412  -0.000342
     6  C   -0.000278  -0.000358  -0.000249  -0.064388   0.000244  -0.013584
     7  H   -0.010677   0.000008  -0.000004   0.000001   0.000017  -0.000271
     8  H    0.000008  -0.022855   0.000303   0.000004   0.000000   0.000000
     9  H   -0.000004   0.000303   0.004717  -0.000037   0.000034   0.000005
    10  O    0.000001   0.000004  -0.000037   0.160373   0.001998   0.003506
    11  H    0.000017   0.000000   0.000034   0.001998  -0.005310  -0.001932
    12  O   -0.000271   0.000000   0.000005   0.003506  -0.001932   0.404454
    13  C    0.000364   0.000057   0.000000   0.000000  -0.000001   0.000003
    14  H    0.000005  -0.000002   0.000000   0.000000   0.000000  -0.000001
    15  H    0.000005  -0.000001   0.000000   0.000000   0.000000  -0.000001
    16  O    0.000064  -0.000004   0.000000   0.000000   0.000000   0.000000
    17  H   -0.000009  -0.000001   0.000000   0.000000   0.000000   0.000000
              13         14         15         16         17
     1  C   -0.000180  -0.000003  -0.000004  -0.000002   0.000000
     2  C    0.000439   0.000393   0.000384  -0.000637   0.000008
     3  C    0.002740   0.000655   0.000658   0.000646  -0.000043
     4  C   -0.002547  -0.001146  -0.001134   0.000089  -0.000011
     5  C    0.000156  -0.000007  -0.000007  -0.000001   0.000000
     6  C   -0.000049   0.000021   0.000020  -0.000001   0.000000
     7  H    0.000364   0.000005   0.000005   0.000064  -0.000009
     8  H    0.000057  -0.000002  -0.000001  -0.000004  -0.000001
     9  H    0.000000   0.000000   0.000000   0.000000   0.000000
    10  O    0.000000   0.000000   0.000000   0.000000   0.000000
    11  H   -0.000001   0.000000   0.000000   0.000000   0.000000
    12  O    0.000003  -0.000001  -0.000001   0.000000   0.000000
    13  C    0.001212   0.000383   0.000405  -0.000702   0.000019
    14  H    0.000383   0.000201   0.000484  -0.000094  -0.000016
    15  H    0.000405   0.000484   0.000145  -0.000089  -0.000013
    16  O   -0.000702  -0.000094  -0.000089   0.003008   0.000038
    17  H    0.000019  -0.000016  -0.000013   0.000038  -0.000090
 Mulliken charges and spin densities:
               1          2
     1  C    0.170344  -0.003292
     2  C   -0.046060   0.155357
     3  C   -0.187737  -0.061597
     4  C   -0.068899   0.344214
     5  C   -0.073765  -0.136818
     6  C    0.140379   0.291380
     7  H    0.120353  -0.008640
     8  H    0.098483  -0.019256
     9  H    0.110068   0.005152
    10  O   -0.307681   0.098283
    11  H    0.259182  -0.004588
    12  O   -0.365833   0.333582
    13  C    0.085100   0.002300
    14  H    0.110697   0.000872
    15  H    0.110668   0.000853
    16  O   -0.399870   0.002315
    17  H    0.244571  -0.000118
 Sum of Mulliken charges =   0.00000   1.00000
 Mulliken charges and spin densities with hydrogens summed into heavy atoms:
               1          2
     1  C    0.170344  -0.003292
     2  C    0.074294   0.146717
     3  C   -0.187737  -0.061597
     4  C    0.029583   0.324958
     5  C    0.036304  -0.131666
     6  C    0.140379   0.291380
    10  O   -0.048499   0.093695
    12  O   -0.365833   0.333582
    13  C    0.306465   0.004026
    16  O   -0.155299   0.002197
 Electronic spatial extent (au):  <R**2>=           1567.9724
 Charge=              0.0000 electrons
 Dipole moment (field-independent basis, Debye):
    X=             -3.3690    Y=              3.1910    Z=              0.0133  Tot=              4.6403
 Quadrupole moment (field-independent basis, Debye-Ang):
   XX=            -46.6027   YY=            -59.8966   ZZ=            -59.1338
   XY=             -1.4024   XZ=             -0.0540   YZ=             -0.0123
 Traceless Quadrupole moment (field-independent basis, Debye-Ang):
   XX=              8.6083   YY=             -4.6856   ZZ=             -3.9227
   XY=             -1.4024   XZ=             -0.0540   YZ=             -0.0123
 Octapole moment (field-independent basis, Debye-Ang**2):
  XXX=            -62.5713  YYY=             14.0370  ZZZ=              0.0015  XYY=             -7.2177
  XXY=             -5.3032  XXZ=              0.1994  XZZ=              1.1666  YZZ=             -4.8104
  YYZ=             -0.0013  XYZ=              0.0470
 Hexadecapole moment (field-independent basis, Debye-Ang**3):
 XXXX=          -1039.7997 YYYY=           -504.7030 ZZZZ=            -65.5695 XXXY=            -17.3072
 XXXZ=             -0.7636 YYYX=             33.1135 YYYZ=             -0.0230 ZZZX=             -0.0179
 ZZZY=              0.0056 XXYY=           -319.2078 XXZZ=           -238.8344 YYZZ=            -99.4563
 XXYZ=             -0.1617 YYXZ=             -0.0315 ZZXY=             -4.1184
 N-N= 5.006695097575D+02 E-N=-2.164253866658D+03  KE= 4.950528743865D+02
                          Isotropic Fermi Contact Couplings
        Atom                 a.u.       MegaHertz       Gauss      10(-4) cm-1
     1  C(13)             -0.02112     -23.74645      -8.47333      -7.92096
     2  C(13)              0.00478       5.37641       1.91844       1.79338
     3  C(13)             -0.01300     -14.61572      -5.21525      -4.87528
     4  C(13)              0.02023      22.73829       8.11359       7.58468
     5  C(13)             -0.02054     -23.09429      -8.24062      -7.70342
     6  C(13)              0.01423      16.00076       5.70947       5.33728
     7  H(1)              -0.00227     -10.14505      -3.62001      -3.38402
     8  H(1)              -0.00471     -21.05745      -7.51382      -7.02401
     9  H(1)               0.00126       5.63211       2.00968       1.87867
    10  O(17)              0.01353      -8.20266      -2.92691      -2.73611
    11  H(1)              -0.00167      -7.46104      -2.66229      -2.48874
    12  O(17)              0.02736     -16.58653      -5.91849      -5.53267
    13  C(13)              0.00030       0.33572       0.11979       0.11198
    14  H(1)               0.00086       3.85394       1.37518       1.28554
    15  H(1)               0.00086       3.83557       1.36863       1.27941
    16  O(17)             -0.00020       0.11963       0.04269       0.03991
    17  H(1)              -0.00006      -0.25753      -0.09189      -0.08590
 --------------------------------------------------------
       Center         ----  Spin Dipole Couplings  ----
                      3XX-RR        3YY-RR        3ZZ-RR
 --------------------------------------------------------
     1   Atom       -0.015517      0.001047      0.014470
     2   Atom       -0.076650     -0.081239      0.157889
     3   Atom        0.015026      0.020563     -0.035589
     4   Atom       -0.191691     -0.184111      0.375801
     5   Atom        0.058041      0.056196     -0.114237
     6   Atom       -0.176620     -0.178899      0.355519
     7   Atom        0.001586      0.002714     -0.004300
     8   Atom       -0.014331      0.016404     -0.002073
     9   Atom        0.002537      0.003234     -0.005770
    10   Atom       -0.267442     -0.261952      0.529394
    11   Atom       -0.005463      0.018721     -0.013258
    12   Atom       -0.695329     -0.702622      1.397951
    13   Atom        0.002144     -0.004206      0.002061
    14   Atom        0.003705     -0.001844     -0.001861
    15   Atom        0.003721     -0.001848     -0.001873
    16   Atom       -0.003968     -0.008654      0.012622
    17   Atom        0.002283     -0.001055     -0.001228
 --------------------------------------------------------
                        XY            XZ            YZ
 --------------------------------------------------------
     1   Atom       -0.016091      0.000007      0.000001
     2   Atom        0.003306      0.000099      0.000028
     3   Atom        0.000473     -0.000002     -0.000038
     4   Atom       -0.005930      0.000132      0.000260
     5   Atom       -0.006363     -0.000025     -0.000043
     6   Atom        0.002464      0.000107      0.000126
     7   Atom        0.011928     -0.000004     -0.000007
     8   Atom       -0.021579      0.000007      0.000002
     9   Atom       -0.004205      0.000000     -0.000002
    10   Atom       -0.000363      0.000159      0.000147
    11   Atom       -0.002935     -0.000002     -0.000005
    12   Atom        0.004122      0.000534      0.000315
    13   Atom        0.001723      0.000004     -0.000029
    14   Atom        0.000045     -0.001857      0.000535
    15   Atom        0.000038      0.001848     -0.000537
    16   Atom        0.000222      0.000077      0.000024
    17   Atom        0.000460     -0.000004      0.000000
 --------------------------------------------------------


 ---------------------------------------------------------------------------------
              Anisotropic Spin Dipole Couplings in Principal Axis System
 ---------------------------------------------------------------------------------

       Atom             a.u.   MegaHertz   Gauss  10(-4) cm-1        Axes

              Baa    -0.0253    -3.399    -1.213    -1.134  0.8537  0.5208 -0.0001
     1 C(13)  Bbb     0.0109     1.458     0.520     0.486 -0.5208  0.8537  0.0008
              Bcc     0.0145     1.942     0.693     0.648  0.0006 -0.0006  1.0000
 
              Baa    -0.0830   -11.134    -3.973    -3.714 -0.4636  0.8861  0.0001
     2 C(13)  Bbb    -0.0749   -10.054    -3.587    -3.354  0.8861  0.4636 -0.0004
              Bcc     0.1579    21.187     7.560     7.067  0.0004  0.0001  1.0000
 
              Baa    -0.0356    -4.776    -1.704    -1.593  0.0000  0.0007  1.0000
     3 C(13)  Bbb     0.0150     2.011     0.718     0.671  0.9964 -0.0845  0.0000
              Bcc     0.0206     2.765     0.987     0.922  0.0845  0.9964 -0.0007
 
              Baa    -0.1949   -26.159    -9.334    -8.726  0.8771  0.4804 -0.0004
     4 C(13)  Bbb    -0.1809   -24.270    -8.660    -8.096 -0.4804  0.8771 -0.0003
              Bcc     0.3758    50.429    17.994    16.821  0.0002  0.0005  1.0000
 
              Baa    -0.1142   -15.330    -5.470    -5.113  0.0002  0.0003  1.0000
     5 C(13)  Bbb     0.0507     6.802     2.427     2.269  0.6544  0.7561 -0.0003
              Bcc     0.0635     8.528     3.043     2.844  0.7561 -0.6544  0.0001
 
              Baa    -0.1805   -24.218    -8.642    -8.078 -0.5387  0.8425 -0.0001
     6 C(13)  Bbb    -0.1750   -23.489    -8.382    -7.835  0.8425  0.5387 -0.0003
              Bcc     0.3555    47.707    17.023    15.913  0.0002  0.0002  1.0000
 
              Baa    -0.0098    -5.224    -1.864    -1.743  0.7236 -0.6902 -0.0003
     7 H(1)   Bbb    -0.0043    -2.294    -0.819    -0.765  0.0005  0.0001  1.0000
              Bcc     0.0141     7.518     2.683     2.508  0.6902  0.7236 -0.0004
 
              Baa    -0.0255   -13.582    -4.846    -4.530  0.8888  0.4582 -0.0003
     8 H(1)   Bbb    -0.0021    -1.106    -0.395    -0.369  0.0002  0.0002  1.0000
              Bcc     0.0275    14.688     5.241     4.899 -0.4582  0.8888 -0.0001
 
              Baa    -0.0058    -3.079    -1.099    -1.027  0.0001  0.0003  1.0000
     9 H(1)   Bbb    -0.0013    -0.712    -0.254    -0.237  0.7357  0.6773 -0.0003
              Bcc     0.0071     3.791     1.353     1.264 -0.6773  0.7357 -0.0001
 
              Baa    -0.2675    19.354     6.906     6.456  0.9978  0.0658 -0.0002
    10 O(17)  Bbb    -0.2619    18.953     6.763     6.322 -0.0658  0.9978 -0.0002
              Bcc     0.5294   -38.307   -13.669   -12.778  0.0002  0.0002  1.0000
 
              Baa    -0.0133    -7.074    -2.524    -2.360  0.0003  0.0002  1.0000
    11 H(1)   Bbb    -0.0058    -3.102    -1.107    -1.035  0.9929  0.1188 -0.0003
              Bcc     0.0191    10.176     3.631     3.394 -0.1188  0.9929 -0.0001
 
              Baa    -0.7045    50.976    18.189    17.004 -0.4107  0.9118  0.0000
    12 O(17)  Bbb    -0.6935    50.179    17.905    16.738  0.9118  0.4107 -0.0003
              Bcc     1.3980  -101.155   -36.095   -33.742  0.0003  0.0002  1.0000
 
              Baa    -0.0046    -0.623    -0.222    -0.208 -0.2461  0.9692  0.0043
    13 C(13)  Bbb     0.0021     0.277     0.099     0.092  0.0073 -0.0026  1.0000
              Bcc     0.0026     0.346     0.124     0.116  0.9692  0.2461 -0.0064
 
              Baa    -0.0027    -1.459    -0.521    -0.487  0.2418 -0.5087  0.8263
    14 H(1)   Bbb    -0.0015    -0.819    -0.292    -0.273  0.1635  0.8607  0.4821
              Bcc     0.0043     2.278     0.813     0.760  0.9564 -0.0185 -0.2913
 
              Baa    -0.0027    -1.461    -0.521    -0.487 -0.2395  0.5090  0.8268
    15 H(1)   Bbb    -0.0015    -0.822    -0.293    -0.274  0.1632  0.8606 -0.4825
              Bcc     0.0043     2.283     0.815     0.762  0.9571 -0.0194  0.2892
 
              Baa    -0.0087     0.627     0.224     0.209 -0.0473  0.9989 -0.0009
    16 O(17)  Bbb    -0.0040     0.286     0.102     0.096  0.9989  0.0472 -0.0047
              Bcc     0.0126    -0.913    -0.326    -0.305  0.0047  0.0012  1.0000
 
              Baa    -0.0012    -0.655    -0.234    -0.219  0.0016 -0.0032  1.0000
    17 H(1)   Bbb    -0.0011    -0.596    -0.213    -0.199 -0.1340  0.9910  0.0034
              Bcc     0.0023     1.251     0.446     0.417  0.9910  0.1340 -0.0011
 

 ---------------------------------------------------------------------------------

 1|1|UNPC-PC-20250526LCFF|SP|UB3LYP|6-311G(d,p)|C7H7O3(2)|ADMINISTRATOR
 |08-Dec-2025|0||# ub3lyp/6-311g(d,p) geom=connectivity temperature=823
 .15||Title Card Required||0,2|C,0,-0.983399,0.88795,0.000272|C,0,0.454
 781,0.841571,0.000721|C,0,1.110221,-0.360995,0.000537|C,0,0.370331,-1.
 58143,-0.000149|C,0,-1.016564,-1.603859,-0.00035|C,0,-1.699334,-0.3933
 72,-0.000123|H,0,0.998944,1.775848,0.001191|H,0,0.911475,-2.522538,-0.
 000485|H,0,-1.568995,-2.535445,-0.000709|O,0,-3.027528,-0.312052,-0.00
 0383|H,0,-3.205888,0.65382,-0.000284|O,0,-1.678625,1.92952,0.000261|C,
 0,2.617251,-0.444332,0.001142|H,0,2.937593,-1.011596,0.888798|H,0,2.93
 7999,-1.016764,-0.883069|O,0,3.173441,0.858267,-0.002521|H,0,4.130849,
 0.77759,0.003405||Version=EM64W-G16RevA.03|State=2-A|HF=-496.7250395|S
 2=0.770794|S2-1=0.|S2A=0.750291|RMSD=5.812e-009|Dipole=1.3254531,-1.25
 54228,0.0052351|Quadrupole=6.4000674,-3.483624,-2.9164434,-1.0426406,0
 .0401339,0.0091368|PG=C01 [X(C7H7O3)]||@


 THERE IS NO SCIENCE WITHOUT FANCY, NOR ART WITHOUT FACTS.
     -- VLADIMIR NABAKOV
 Job cpu time:       0 days  0 hours  0 minutes 35.0 seconds.
 Elapsed time:       0 days  0 hours  0 minutes 34.6 seconds.
 File lengths (MBytes):  RWF=     52 Int=      0 D2E=      0 Chk=      5 Scr=      1
 Normal termination of Gaussian 16 at Mon Dec 08 16:17:05 2025.
