 Entering Gaussian System, Link 0=/public1/home/scg3027/software-scg3027/g16/g16
 Input=16.gjf
 Output=16.log
 Initial command:
 /public1/home/scg3027/software-scg3027/g16/l1.exe "/public1/home/scg3027/software-scg3027/test/tmp/Gau-205857.inp" -scrdir="/public1/home/scg3027/software-scg3027/test/tmp/"
 Entering Link 1 = /public1/home/scg3027/software-scg3027/g16/l1.exe PID=    205858.
  
 Copyright (c) 1988-2019, Gaussian, Inc.  All Rights Reserved.
  
 This is part of the Gaussian(R) 16 program.  It is based on
 the Gaussian(R) 09 system (copyright 2009, Gaussian, Inc.),
 the Gaussian(R) 03 system (copyright 2003, Gaussian, Inc.),
 the Gaussian(R) 98 system (copyright 1998, Gaussian, Inc.),
 the Gaussian(R) 94 system (copyright 1995, Gaussian, Inc.),
 the Gaussian 92(TM) system (copyright 1992, Gaussian, Inc.),
 the Gaussian 90(TM) system (copyright 1990, Gaussian, Inc.),
 the Gaussian 88(TM) system (copyright 1988, Gaussian, Inc.),
 the Gaussian 86(TM) system (copyright 1986, Carnegie Mellon
 University), and the Gaussian 82(TM) system (copyright 1983,
 Carnegie Mellon University). Gaussian is a federally registered
 trademark of Gaussian, Inc.
  
 This software contains proprietary and confidential information,
 including trade secrets, belonging to Gaussian, Inc.
  
 This software is provided under written license and may be
 used, copied, transmitted, or stored only in accord with that
 written license.
  
 The following legend is applicable only to US Government
 contracts under FAR:
  
                    RESTRICTED RIGHTS LEGEND
  
 Use, reproduction and disclosure by the US Government is
 subject to restrictions as set forth in subparagraphs (a)
 and (c) of the Commercial Computer Software - Restricted
 Rights clause in FAR 52.227-19.
  
 Gaussian, Inc.
 340 Quinnipiac St., Bldg. 40, Wallingford CT 06492
  
  
 ---------------------------------------------------------------
 Warning -- This program may not be used in any manner that
 competes with the business of Gaussian, Inc. or will provide
 assistance to any competitor of Gaussian, Inc.  The licensee
 of this program is prohibited from giving any competitor of
 Gaussian, Inc. access to this program.  By using this program,
 the user acknowledges that Gaussian, Inc. is engaged in the
 business of creating and licensing software in the field of
 computational chemistry and represents and warrants to the
 licensee that it is not a competitor of Gaussian, Inc. and that
 it will not use this program in any manner prohibited above.
 ---------------------------------------------------------------
  

 Cite this work as:
 Gaussian 16, Revision C.01,
 M. J. Frisch, G. W. Trucks, H. B. Schlegel, G. E. Scuseria, 
 M. A. Robb, J. R. Cheeseman, G. Scalmani, V. Barone, 
 G. A. Petersson, H. Nakatsuji, X. Li, M. Caricato, A. V. Marenich, 
 J. Bloino, B. G. Janesko, R. Gomperts, B. Mennucci, H. P. Hratchian, 
 J. V. Ortiz, A. F. Izmaylov, J. L. Sonnenberg, D. Williams-Young, 
 F. Ding, F. Lipparini, F. Egidi, J. Goings, B. Peng, A. Petrone, 
 T. Henderson, D. Ranasinghe, V. G. Zakrzewski, J. Gao, N. Rega, 
 G. Zheng, W. Liang, M. Hada, M. Ehara, K. Toyota, R. Fukuda, 
 J. Hasegawa, M. Ishida, T. Nakajima, Y. Honda, O. Kitao, H. Nakai, 
 T. Vreven, K. Throssell, J. A. Montgomery, Jr., J. E. Peralta, 
 F. Ogliaro, M. J. Bearpark, J. J. Heyd, E. N. Brothers, K. N. Kudin, 
 V. N. Staroverov, T. A. Keith, R. Kobayashi, J. Normand, 
 K. Raghavachari, A. P. Rendell, J. C. Burant, S. S. Iyengar, 
 J. Tomasi, M. Cossi, J. M. Millam, M. Klene, C. Adamo, R. Cammi, 
 J. W. Ochterski, R. L. Martin, K. Morokuma, O. Farkas, 
 J. B. Foresman, and D. J. Fox, Gaussian, Inc., Wallingford CT, 2019.
 
 ******************************************
 Gaussian 16:  ES64L-G16RevC.01  3-Jul-2019
                 8-Sep-2022 
 ******************************************
 %nprocshared=20
 Will use up to   20 processors via shared memory.
 %mem=58371MB
 %chk=16.chk
 ------------------------------------------------------------------
 # opt freq ub3lyp/6-311g(d,p) geom=connectivity temperature=823.15
 ------------------------------------------------------------------
 1/18=20,19=15,26=3,38=1,57=2,112=823150/1,3;
 2/9=110,12=2,17=6,18=5,40=1/2;
 3/5=4,6=6,7=101,11=2,25=1,30=1,71=1,74=-5,116=2/1,2,3;
 4//1;
 5/5=2,38=5/2;
 6/7=2,8=2,9=2,10=2,28=1/1;
 7//1,2,3,16;
 1/18=20,19=15,26=3/3(2);
 2/9=110/2;
 99//99;
 2/9=110/2;
 3/5=4,6=6,7=101,11=2,25=1,30=1,71=1,74=-5,116=2/1,2,3;
 4/5=5,16=3,69=1/1;
 5/5=2,38=5/2;
 7//1,2,3,16;
 1/18=20,19=15,26=3/3(-5);
 2/9=110/2;
 6/7=2,8=2,9=2,10=2,19=2,28=1/1;
 99/9=1/99;
 -------------------
 Title Card Required
 -------------------
 Symbolic Z-matrix:
 Charge =  0 Multiplicity = 2
 C                     0.76997  -0.68083   0.07893 
 C                    -0.54627  -1.04939   0.05762 
 C                    -1.546    -0.12654   0.0096 
 C                    -1.21022   1.37033  -0.02208 
 C                     0.08323   1.73251  -0.00114 
 C                     1.14622   0.6273    0.05319 
 H                    -0.79708  -2.08935   0.07923 
 H                    -1.98594   2.10636  -0.05987 
 H                     0.36482   2.76459  -0.0218 
 O                     2.5339    0.97178   0.07683 
 H                     2.56922  -1.38146  -0.3129 
 O                     1.77699  -1.69487   0.12953 
 C                    -3.01583  -0.58557  -0.01294 
 H                    -3.10823  -1.51216   0.51412 
 H                    -3.62805   0.15508   0.45773 
 H                    -3.33245  -0.71856  -1.02633 
 

 GradGradGradGradGradGradGradGradGradGradGradGradGradGradGradGradGradGrad
 Berny optimization.
 Initialization pass.
                           ----------------------------
                           !    Initial Parameters    !
                           ! (Angstroms and Degrees)  !
 --------------------------                            --------------------------
 ! Name  Definition              Value          Derivative Info.                !
 --------------------------------------------------------------------------------
 ! R1    R(1,2)                  1.367          estimate D2E/DX2                !
 ! R2    R(1,6)                  1.3614         estimate D2E/DX2                !
 ! R3    R(1,12)                 1.43           estimate D2E/DX2                !
 ! R4    R(2,3)                  1.3614         estimate D2E/DX2                !
 ! R5    R(2,7)                  1.07           estimate D2E/DX2                !
 ! R6    R(3,4)                  1.5344         estimate D2E/DX2                !
 ! R7    R(3,13)                 1.54           estimate D2E/DX2                !
 ! R8    R(4,5)                  1.3434         estimate D2E/DX2                !
 ! R9    R(4,8)                  1.07           estimate D2E/DX2                !
 ! R10   R(5,6)                  1.5344         estimate D2E/DX2                !
 ! R11   R(5,9)                  1.07           estimate D2E/DX2                !
 ! R12   R(6,10)                 1.43           estimate D2E/DX2                !
 ! R13   R(11,12)                0.96           estimate D2E/DX2                !
 ! R14   R(13,14)                1.07           estimate D2E/DX2                !
 ! R15   R(13,15)                1.07           estimate D2E/DX2                !
 ! R16   R(13,16)                1.07           estimate D2E/DX2                !
 ! A1    A(2,1,6)              121.6583         estimate D2E/DX2                !
 ! A2    A(2,1,12)             119.1709         estimate D2E/DX2                !
 ! A3    A(6,1,12)             119.1709         estimate D2E/DX2                !
 ! A4    A(1,2,3)              121.6583         estimate D2E/DX2                !
 ! A5    A(1,2,7)              119.1709         estimate D2E/DX2                !
 ! A6    A(3,2,7)              119.1709         estimate D2E/DX2                !
 ! A7    A(2,3,4)              120.0871         estimate D2E/DX2                !
 ! A8    A(2,3,13)             119.9564         estimate D2E/DX2                !
 ! A9    A(4,3,13)             119.9564         estimate D2E/DX2                !
 ! A10   A(3,4,5)              118.2546         estimate D2E/DX2                !
 ! A11   A(3,4,8)              120.8727         estimate D2E/DX2                !
 ! A12   A(5,4,8)              120.8727         estimate D2E/DX2                !
 ! A13   A(4,5,6)              118.2546         estimate D2E/DX2                !
 ! A14   A(4,5,9)              120.8727         estimate D2E/DX2                !
 ! A15   A(6,5,9)              120.8727         estimate D2E/DX2                !
 ! A16   A(1,6,5)              120.0871         estimate D2E/DX2                !
 ! A17   A(1,6,10)             119.9564         estimate D2E/DX2                !
 ! A18   A(5,6,10)             119.9564         estimate D2E/DX2                !
 ! A19   A(1,12,11)            109.4712         estimate D2E/DX2                !
 ! A20   A(3,13,14)            109.4712         estimate D2E/DX2                !
 ! A21   A(3,13,15)            109.4712         estimate D2E/DX2                !
 ! A22   A(3,13,16)            109.4712         estimate D2E/DX2                !
 ! A23   A(14,13,15)           109.4712         estimate D2E/DX2                !
 ! A24   A(14,13,16)           109.4712         estimate D2E/DX2                !
 ! A25   A(15,13,16)           109.4712         estimate D2E/DX2                !
 ! D1    D(6,1,2,3)              0.0002         estimate D2E/DX2                !
 ! D2    D(6,1,2,7)           -179.9998         estimate D2E/DX2                !
 ! D3    D(12,1,2,3)          -179.9998         estimate D2E/DX2                !
 ! D4    D(12,1,2,7)             0.0002         estimate D2E/DX2                !
 ! D5    D(2,1,6,5)             -0.0001         estimate D2E/DX2                !
 ! D6    D(2,1,6,10)           179.9999         estimate D2E/DX2                !
 ! D7    D(12,1,6,5)           179.9999         estimate D2E/DX2                !
 ! D8    D(12,1,6,10)           -0.0001         estimate D2E/DX2                !
 ! D9    D(2,1,12,11)          150.0            estimate D2E/DX2                !
 ! D10   D(6,1,12,11)          -30.0            estimate D2E/DX2                !
 ! D11   D(1,2,3,4)             -0.0003         estimate D2E/DX2                !
 ! D12   D(1,2,3,13)           179.9997         estimate D2E/DX2                !
 ! D13   D(7,2,3,4)            179.9998         estimate D2E/DX2                !
 ! D14   D(7,2,3,13)            -0.0002         estimate D2E/DX2                !
 ! D15   D(2,3,4,5)              0.0002         estimate D2E/DX2                !
 ! D16   D(2,3,4,8)           -179.9999         estimate D2E/DX2                !
 ! D17   D(13,3,4,5)          -179.9998         estimate D2E/DX2                !
 ! D18   D(13,3,4,8)             0.0001         estimate D2E/DX2                !
 ! D19   D(2,3,13,14)           30.0            estimate D2E/DX2                !
 ! D20   D(2,3,13,15)          150.0            estimate D2E/DX2                !
 ! D21   D(2,3,13,16)          -90.0            estimate D2E/DX2                !
 ! D22   D(4,3,13,14)         -150.0            estimate D2E/DX2                !
 ! D23   D(4,3,13,15)          -30.0            estimate D2E/DX2                !
 ! D24   D(4,3,13,16)           90.0            estimate D2E/DX2                !
 ! D25   D(3,4,5,6)             -0.0001         estimate D2E/DX2                !
 ! D26   D(3,4,5,9)           -180.0            estimate D2E/DX2                !
 ! D27   D(8,4,5,6)           -180.0            estimate D2E/DX2                !
 ! D28   D(8,4,5,9)              0.0001         estimate D2E/DX2                !
 ! D29   D(4,5,6,1)              0.0001         estimate D2E/DX2                !
 ! D30   D(4,5,6,10)          -180.0            estimate D2E/DX2                !
 ! D31   D(9,5,6,1)            180.0            estimate D2E/DX2                !
 ! D32   D(9,5,6,10)            -0.0001         estimate D2E/DX2                !
 --------------------------------------------------------------------------------
 Trust Radius=3.00D-01 FncErr=1.00D-07 GrdErr=1.00D-06 EigMax=2.50D+02 EigMin=1.00D-04
 Number of steps in this run=     83 maximum allowed number of steps=    100.
 GradGradGradGradGradGradGradGradGradGradGradGradGradGradGradGradGradGrad

                          Input orientation:                          
 ---------------------------------------------------------------------
 Center     Atomic      Atomic             Coordinates (Angstroms)
 Number     Number       Type             X           Y           Z
 ---------------------------------------------------------------------
      1          6           0        0.769974   -0.680835    0.078931
      2          6           0       -0.546266   -1.049390    0.057623
      3          6           0       -1.546004   -0.126538    0.009605
      4          6           0       -1.210225    1.370335   -0.022081
      5          6           0        0.083231    1.732510   -0.001140
      6          6           0        1.146217    0.627300    0.053194
      7          1           0       -0.797080   -2.089354    0.079227
      8          1           0       -1.985943    2.106360   -0.059866
      9          1           0        0.364816    2.764587   -0.021805
     10          8           0        2.533903    0.971781    0.076829
     11          1           0        2.569222   -1.381458   -0.312901
     12          8           0        1.776991   -1.694865    0.129529
     13          6           0       -3.015828   -0.585568   -0.012940
     14          1           0       -3.108231   -1.512159    0.514119
     15          1           0       -3.628049    0.155078    0.457730
     16          1           0       -3.332446   -0.718559   -1.026333
 ---------------------------------------------------------------------
                    Distance matrix (angstroms):
                    1          2          3          4          5
     1  C    0.000000
     2  C    1.367032   0.000000
     3  C    2.382395   1.361410   0.000000
     4  C    2.852839   2.510431   1.534399   0.000000
     5  C    2.510431   2.852839   2.471959   1.343368   0.000000
     6  C    1.361410   2.382395   2.796109   2.471959   1.534399
     7  H    2.107032   1.070000   2.101995   3.485743   3.922761
     8  H    3.922091   3.470624   2.276886   1.070000   2.103496
     9  H    3.470624   3.922091   3.465664   2.103496   1.070000
    10  O    2.417145   3.684148   4.225691   3.766580   2.567213
    11  H    1.970203   3.154968   4.314386   4.684140   3.996767
    12  O    1.430000   2.412329   3.676455   4.282744   3.825284
    13  C    3.788115   2.513732   1.540000   2.661925   3.870116
    14  H    3.990109   2.643144   2.148263   3.492665   4.580262
    15  H    4.492754   3.332898   2.148263   2.748261   4.058627
    16  H    4.248869   3.007858   2.148263   3.142582   4.327310
                    6          7          8          9         10
     6  C    0.000000
     7  H    3.340253   0.000000
     8  H    3.465664   4.363114   0.000000
     9  H    2.276886   4.992089   2.441471   0.000000
    10  O    1.430000   4.523937   4.662077   2.815816   0.000000
    11  H    2.488791   3.462206   5.742686   4.704661   2.385555
    12  O    2.407520   2.604609   5.352089   4.680155   2.772490
    13  C    4.335671   2.681924   2.882593   4.759451   5.764800
    14  H    4.784356   2.421510   3.831797   5.535326   6.180199
    15  H    4.814587   3.632509   2.602291   4.794003   6.227499
    16  H    4.799494   3.086977   3.275256   5.177947   6.203892
                   11         12         13         14         15
    11  H    0.000000
    12  O    0.960000   0.000000
    13  C    5.649443   4.921580   0.000000
    14  H    5.738861   4.903742   1.070000   0.000000
    15  H    6.431250   5.722277   1.070000   1.747303   0.000000
    16  H    5.981481   5.328746   1.070000   1.747303   1.747303
                   16
    16  H    0.000000
 Stoichiometry    C7H7O2(2)
 Framework group  C1[X(C7H7O2)]
 Deg. of freedom    42
 Full point group                 C1      NOp   1
 Largest Abelian subgroup         C1      NOp   1
 Largest concise Abelian subgroup C1      NOp   1
                         Standard orientation:                         
 ---------------------------------------------------------------------
 Center     Atomic      Atomic             Coordinates (Angstroms)
 Number     Number       Type             X           Y           Z
 ---------------------------------------------------------------------
      1          6           0       -0.764890   -0.729524   -0.016372
      2          6           0        0.564235   -1.049177   -0.011488
      3          6           0        1.529887   -0.089591    0.000672
      4          6           0        1.139650    1.394330    0.009276
      5          6           0       -0.166468    1.708450    0.004475
      6          6           0       -1.188688    0.564223   -0.009323
      7          1           0        0.852876   -2.079493   -0.017370
      8          1           0        1.888192    2.158852    0.018849
      9          1           0       -0.485580    2.729741    0.010122
     10          8           0       -2.588351    0.857162   -0.014784
     11          1           0       -2.530035   -1.487495    0.421169
     12          8           0       -1.734491   -1.780528   -0.029209
     13          6           0        3.015831   -0.493996    0.005798
     14          1           0        3.133319   -1.426980   -0.504728
     15          1           0        3.592101    0.258953   -0.490067
     16          1           0        3.354516   -0.594942    1.015750
 ---------------------------------------------------------------------
 Rotational constants (GHZ):           2.9682440           1.3214081           0.9201382
 Standard basis: 6-311G(d,p) (5D, 7F)
 There are   213 symmetry adapted cartesian basis functions of A   symmetry.
 There are   204 symmetry adapted basis functions of A   symmetry.
   204 basis functions,   344 primitive gaussians,   213 cartesian basis functions
    33 alpha electrons       32 beta electrons
       nuclear repulsion energy       409.0320386827 Hartrees.
 NAtoms=   16 NActive=   16 NUniq=   16 SFac= 1.00D+00 NAtFMM=   60 NAOKFM=F Big=F
 Integral buffers will be    131072 words long.
 Raffenetti 2 integral format.
 Two-electron integral symmetry is turned on.
 One-electron integrals computed using PRISM.
 NBasis=   204 RedAO= T EigKep=  2.28D-04  NBF=   204
 NBsUse=   204 1.00D-06 EigRej= -1.00D+00 NBFU=   204
 ExpMin= 1.03D-01 ExpMax= 8.59D+03 ExpMxC= 1.30D+03 IAcc=3 IRadAn=         5 AccDes= 0.00D+00
 Harris functional with IExCor=  402 and IRadAn=       5 diagonalized for initial guess.
 HarFok:  IExCor=  402 AccDes= 0.00D+00 IRadAn=         5 IDoV= 1 UseB2=F ITyADJ=14
 ICtDFT=  3500011 ScaDFX=  1.000000  1.000000  1.000000  1.000000
 FoFCou: FMM=F IPFlag=           0 FMFlag=      100000 FMFlg1=           0
         NFxFlg=           0 DoJE=T BraDBF=F KetDBF=T FulRan=T
         wScrn=  0.000000 ICntrl=       500 IOpCl=  0 I1Cent=   200000004 NGrid=           0
         NMat0=    1 NMatS0=      1 NMatT0=    0 NMatD0=    1 NMtDS0=    0 NMtDT0=    0
 Petite list used in FoFCou.
 Initial guess <Sx>= 0.0000 <Sy>= 0.0000 <Sz>= 0.5000 <S**2>= 0.7500 S= 0.5000
 Requested convergence on RMS density matrix=1.00D-08 within 128 cycles.
 Requested convergence on MAX density matrix=1.00D-06.
 Requested convergence on             energy=1.00D-06.
 No special actions if energy rises.
 Integral accuracy reduced to 1.0D-05 until final iterations.
 Initial convergence to 1.0D-05 achieved.  Increase integral accuracy.
 SCF Done:  E(UB3LYP) =  -421.442411619     A.U. after   24 cycles
            NFock= 24  Conv=0.38D-08     -V/T= 2.0045
 <Sx>= 0.0000 <Sy>= 0.0000 <Sz>= 0.5000 <S**2>= 0.7769 S= 0.5133
 <L.S>=  0.00000000000    
 Annihilation of the first spin contaminant:
 S**2 before annihilation     0.7769,   after     0.7504

 **********************************************************************

            Population analysis using the SCF Density.

 **********************************************************************

 Orbital symmetries:
 Alpha Orbitals:
       Occupied  (A) (A) (A) (A) (A) (A) (A) (A) (A) (A) (A) (A)
                 (A) (A) (A) (A) (A) (A) (A) (A) (A) (A) (A) (A)
                 (A) (A) (A) (A) (A) (A) (A) (A) (A)
       Virtual   (A) (A) (A) (A) (A) (A) (A) (A) (A) (A) (A) (A)
                 (A) (A) (A) (A) (A) (A) (A) (A) (A) (A) (A) (A)
                 (A) (A) (A) (A) (A) (A) (A) (A) (A) (A) (A) (A)
                 (A) (A) (A) (A) (A) (A) (A) (A) (A) (A) (A) (A)
                 (A) (A) (A) (A) (A) (A) (A) (A) (A) (A) (A) (A)
                 (A) (A) (A) (A) (A) (A) (A) (A) (A) (A) (A) (A)
                 (A) (A) (A) (A) (A) (A) (A) (A) (A) (A) (A) (A)
                 (A) (A) (A) (A) (A) (A) (A) (A) (A) (A) (A) (A)
                 (A) (A) (A) (A) (A) (A) (A) (A) (A) (A) (A) (A)
                 (A) (A) (A) (A) (A) (A) (A) (A) (A) (A) (A) (A)
                 (A) (A) (A) (A) (A) (A) (A) (A) (A) (A) (A) (A)
                 (A) (A) (A) (A) (A) (A) (A) (A) (A) (A) (A) (A)
                 (A) (A) (A) (A) (A) (A) (A) (A) (A) (A) (A) (A)
                 (A) (A) (A) (A) (A) (A) (A) (A) (A) (A) (A) (A)
                 (A) (A) (A)
 Beta  Orbitals:
       Occupied  (A) (A) (A) (A) (A) (A) (A) (A) (A) (A) (A) (A)
                 (A) (A) (A) (A) (A) (A) (A) (A) (A) (A) (A) (A)
                 (A) (A) (A) (A) (A) (A) (A) (A)
       Virtual   (A) (A) (A) (A) (A) (A) (A) (A) (A) (A) (A) (A)
                 (A) (A) (A) (A) (A) (A) (A) (A) (A) (A) (A) (A)
                 (A) (A) (A) (A) (A) (A) (A) (A) (A) (A) (A) (A)
                 (A) (A) (A) (A) (A) (A) (A) (A) (A) (A) (A) (A)
                 (A) (A) (A) (A) (A) (A) (A) (A) (A) (A) (A) (A)
                 (A) (A) (A) (A) (A) (A) (A) (A) (A) (A) (A) (A)
                 (A) (A) (A) (A) (A) (A) (A) (A) (A) (A) (A) (A)
                 (A) (A) (A) (A) (A) (A) (A) (A) (A) (A) (A) (A)
                 (A) (A) (A) (A) (A) (A) (A) (A) (A) (A) (A) (A)
                 (A) (A) (A) (A) (A) (A) (A) (A) (A) (A) (A) (A)
                 (A) (A) (A) (A) (A) (A) (A) (A) (A) (A) (A) (A)
                 (A) (A) (A) (A) (A) (A) (A) (A) (A) (A) (A) (A)
                 (A) (A) (A) (A) (A) (A) (A) (A) (A) (A) (A) (A)
                 (A) (A) (A) (A) (A) (A) (A) (A) (A) (A) (A) (A)
                 (A) (A) (A) (A)
 The electronic state is 2-A.
 Alpha  occ. eigenvalues --  -19.15257 -19.12891 -10.25900 -10.24942 -10.22808
 Alpha  occ. eigenvalues --  -10.20385 -10.20073 -10.18946 -10.18554  -1.05352
 Alpha  occ. eigenvalues --   -0.96952  -0.87469  -0.78333  -0.77853  -0.69819
 Alpha  occ. eigenvalues --   -0.62472  -0.61910  -0.53291  -0.51620  -0.48760
 Alpha  occ. eigenvalues --   -0.46963  -0.45524  -0.43647  -0.42611  -0.41413
 Alpha  occ. eigenvalues --   -0.39357  -0.38159  -0.36770  -0.35188  -0.33780
 Alpha  occ. eigenvalues --   -0.27798  -0.27646  -0.23437
 Alpha virt. eigenvalues --   -0.03176  -0.02181   0.03605   0.04936   0.06225
 Alpha virt. eigenvalues --    0.07483   0.09609   0.10929   0.12326   0.14359
 Alpha virt. eigenvalues --    0.14972   0.15893   0.19865   0.24336   0.25906
 Alpha virt. eigenvalues --    0.27164   0.30066   0.31371   0.32936   0.36004
 Alpha virt. eigenvalues --    0.36504   0.37467   0.38824   0.39732   0.41357
 Alpha virt. eigenvalues --    0.42619   0.43963   0.46377   0.47591   0.49135
 Alpha virt. eigenvalues --    0.50171   0.50504   0.53126   0.53718   0.55429
 Alpha virt. eigenvalues --    0.56844   0.59111   0.59821   0.61279   0.61956
 Alpha virt. eigenvalues --    0.62690   0.63593   0.65976   0.73181   0.73402
 Alpha virt. eigenvalues --    0.75145   0.76732   0.78311   0.81035   0.83672
 Alpha virt. eigenvalues --    0.84758   0.87995   0.89425   0.89970   0.92601
 Alpha virt. eigenvalues --    0.92686   0.94016   0.96306   1.01087   1.03019
 Alpha virt. eigenvalues --    1.05177   1.05963   1.07253   1.17577   1.19875
 Alpha virt. eigenvalues --    1.20321   1.30959   1.32688   1.33684   1.36256
 Alpha virt. eigenvalues --    1.41855   1.42841   1.44412   1.46276   1.47698
 Alpha virt. eigenvalues --    1.50929   1.52079   1.52681   1.54664   1.55614
 Alpha virt. eigenvalues --    1.56717   1.57818   1.60745   1.65356   1.66909
 Alpha virt. eigenvalues --    1.68027   1.69425   1.74362   1.76421   1.77735
 Alpha virt. eigenvalues --    1.82169   1.84505   1.86015   1.88201   1.89865
 Alpha virt. eigenvalues --    1.91298   1.95366   1.96778   1.98338   2.01694
 Alpha virt. eigenvalues --    2.05089   2.08621   2.11526   2.13465   2.22228
 Alpha virt. eigenvalues --    2.24636   2.27427   2.32632   2.33532   2.37792
 Alpha virt. eigenvalues --    2.42003   2.44938   2.45574   2.48140   2.49741
 Alpha virt. eigenvalues --    2.50174   2.53712   2.55384   2.62236   2.62740
 Alpha virt. eigenvalues --    2.63748   2.64811   2.65451   2.70381   2.74815
 Alpha virt. eigenvalues --    2.77786   2.80217   2.82153   2.83887   2.86544
 Alpha virt. eigenvalues --    2.87613   2.88810   2.93329   3.00969   3.01896
 Alpha virt. eigenvalues --    3.08010   3.09941   3.11364   3.14226   3.19181
 Alpha virt. eigenvalues --    3.24362   3.33914   3.39823   3.48022   3.53622
 Alpha virt. eigenvalues --    3.57651   3.63823   3.79070   3.81903   3.83626
 Alpha virt. eigenvalues --    3.95430   3.97819   4.04119   4.07533   4.24706
 Alpha virt. eigenvalues --    4.70775   4.76994   4.82988   4.94185   5.22207
 Alpha virt. eigenvalues --    5.38982   5.65206  23.37071  23.67189  23.78231
 Alpha virt. eigenvalues --   23.94292  24.05321  24.20203  24.21113  49.84312
 Alpha virt. eigenvalues --   49.90672
  Beta  occ. eigenvalues --  -19.15102 -19.11294 -10.25551 -10.25036 -10.22423
  Beta  occ. eigenvalues --  -10.20258 -10.20147 -10.19093 -10.18570  -1.04932
  Beta  occ. eigenvalues --   -0.93926  -0.86798  -0.78016  -0.77316  -0.69293
  Beta  occ. eigenvalues --   -0.62128  -0.61642  -0.52955  -0.51447  -0.48548
  Beta  occ. eigenvalues --   -0.46803  -0.44904  -0.43157  -0.41774  -0.40812
  Beta  occ. eigenvalues --   -0.38701  -0.37574  -0.36146  -0.33504  -0.29381
  Beta  occ. eigenvalues --   -0.27073  -0.26102
  Beta virt. eigenvalues --   -0.13707  -0.01713  -0.00413   0.03655   0.05184
  Beta virt. eigenvalues --    0.06253   0.07494   0.09887   0.11098   0.12414
  Beta virt. eigenvalues --    0.15221   0.15458   0.16255   0.20299   0.24468
  Beta virt. eigenvalues --    0.26182   0.27252   0.30294   0.31567   0.33140
  Beta virt. eigenvalues --    0.36101   0.36600   0.37825   0.38978   0.39927
  Beta virt. eigenvalues --    0.41608   0.42648   0.44205   0.46599   0.47992
  Beta virt. eigenvalues --    0.49307   0.50359   0.50722   0.53739   0.54044
  Beta virt. eigenvalues --    0.55648   0.56941   0.59255   0.59808   0.61359
  Beta virt. eigenvalues --    0.62022   0.63085   0.63868   0.66226   0.73384
  Beta virt. eigenvalues --    0.73827   0.75385   0.76998   0.78883   0.82112
  Beta virt. eigenvalues --    0.83826   0.85123   0.89550   0.90169   0.90755
  Beta virt. eigenvalues --    0.92919   0.93022   0.94380   0.97065   1.01432
  Beta virt. eigenvalues --    1.03287   1.05476   1.06343   1.07499   1.18248
  Beta virt. eigenvalues --    1.20264   1.20593   1.31113   1.33037   1.33994
  Beta virt. eigenvalues --    1.36320   1.42045   1.42921   1.44510   1.46513
  Beta virt. eigenvalues --    1.47882   1.51132   1.52356   1.52962   1.54956
  Beta virt. eigenvalues --    1.55939   1.56886   1.58701   1.61189   1.65749
  Beta virt. eigenvalues --    1.67112   1.68165   1.69911   1.74584   1.76581
  Beta virt. eigenvalues --    1.77834   1.82517   1.84830   1.86423   1.88390
  Beta virt. eigenvalues --    1.90202   1.91573   1.95510   1.96880   1.98585
  Beta virt. eigenvalues --    2.02014   2.05373   2.08880   2.11805   2.13547
  Beta virt. eigenvalues --    2.22302   2.25019   2.27555   2.32855   2.33753
  Beta virt. eigenvalues --    2.37882   2.42143   2.45117   2.45746   2.48427
  Beta virt. eigenvalues --    2.50053   2.50678   2.53852   2.55487   2.62324
  Beta virt. eigenvalues --    2.62750   2.64203   2.64880   2.66060   2.70891
  Beta virt. eigenvalues --    2.74945   2.78064   2.81337   2.82313   2.84707
  Beta virt. eigenvalues --    2.87995   2.90514   2.92963   2.93724   3.01654
  Beta virt. eigenvalues --    3.02511   3.09513   3.10330   3.12982   3.15944
  Beta virt. eigenvalues --    3.19678   3.24756   3.34360   3.40216   3.48076
  Beta virt. eigenvalues --    3.53816   3.57763   3.64484   3.79243   3.82051
  Beta virt. eigenvalues --    3.83658   3.95734   3.98545   4.04249   4.07754
  Beta virt. eigenvalues --    4.25060   4.71179   4.79825   4.87778   4.95479
  Beta virt. eigenvalues --    5.22577   5.40049   5.65412  23.37212  23.67235
  Beta virt. eigenvalues --   23.78453  23.94268  24.05519  24.20247  24.21138
  Beta virt. eigenvalues --   49.85382  49.91369
          Condensed to atoms (all electrons):
               1          2          3          4          5          6
     1  C    5.165879   0.368114  -0.021947  -0.047266   0.011344   0.109948
     2  C    0.368114   4.917623   0.500007  -0.035855  -0.046956   0.018122
     3  C   -0.021947   0.500007   5.145777   0.418492  -0.023621  -0.061766
     4  C   -0.047266  -0.035855   0.418492   4.976400   0.427219  -0.000890
     5  C    0.011344  -0.046956  -0.023621   0.427219   5.109180   0.267448
     6  C    0.109948   0.018122  -0.061766  -0.000890   0.267448   5.186740
     7  H   -0.032524   0.404232  -0.046930   0.007316  -0.002400   0.013134
     8  H   -0.001646   0.005919  -0.043463   0.410459  -0.027862   0.007201
     9  H    0.010715  -0.002238   0.008705  -0.043458   0.409427  -0.038987
    10  O   -0.099195   0.008310  -0.001220   0.007253  -0.062998   0.473993
    11  H   -0.046620   0.005684  -0.000187  -0.000459   0.002503  -0.008938
    12  O    0.376252  -0.055802   0.004543  -0.000510   0.005484  -0.086596
    13  C    0.008160  -0.054890   0.345238  -0.053786   0.005836  -0.000704
    14  H    0.000871  -0.005944  -0.035714   0.004563  -0.000211  -0.000122
    15  H   -0.000397   0.005363  -0.036560  -0.005827   0.000524   0.000025
    16  H   -0.000349  -0.003753  -0.033680  -0.000188  -0.000170   0.000040
               7          8          9         10         11         12
     1  C   -0.032524  -0.001646   0.010715  -0.099195  -0.046620   0.376252
     2  C    0.404232   0.005919  -0.002238   0.008310   0.005684  -0.055802
     3  C   -0.046930  -0.043463   0.008705  -0.001220  -0.000187   0.004543
     4  C    0.007316   0.410459  -0.043458   0.007253  -0.000459  -0.000510
     5  C   -0.002400  -0.027862   0.409427  -0.062998   0.002503   0.005484
     6  C    0.013134   0.007201  -0.038987   0.473993  -0.008938  -0.086596
     7  H    0.551658  -0.000234   0.000074  -0.000102  -0.000759   0.005957
     8  H   -0.000234   0.556405  -0.009562  -0.000122   0.000008   0.000009
     9  H    0.000074  -0.009562   0.538914   0.004457  -0.000070  -0.000023
    10  O   -0.000102  -0.000122   0.004457   8.035074   0.024507  -0.009118
    11  H   -0.000759   0.000008  -0.000070   0.024507   0.439070   0.320329
    12  O    0.005957   0.000009  -0.000023  -0.009118   0.320329   7.828422
    13  C   -0.009889  -0.003417  -0.000213  -0.000003   0.000024  -0.000093
    14  H    0.001978  -0.000157   0.000018  -0.000000   0.000003  -0.000019
    15  H    0.000272   0.001976  -0.000017  -0.000000  -0.000001   0.000002
    16  H    0.000596   0.000139   0.000015  -0.000000  -0.000001   0.000004
              13         14         15         16
     1  C    0.008160   0.000871  -0.000397  -0.000349
     2  C   -0.054890  -0.005944   0.005363  -0.003753
     3  C    0.345238  -0.035714  -0.036560  -0.033680
     4  C   -0.053786   0.004563  -0.005827  -0.000188
     5  C    0.005836  -0.000211   0.000524  -0.000170
     6  C   -0.000704  -0.000122   0.000025   0.000040
     7  H   -0.009889   0.001978   0.000272   0.000596
     8  H   -0.003417  -0.000157   0.001976   0.000139
     9  H   -0.000213   0.000018  -0.000017   0.000015
    10  O   -0.000003  -0.000000  -0.000000  -0.000000
    11  H    0.000024   0.000003  -0.000001  -0.000001
    12  O   -0.000093  -0.000019   0.000002   0.000004
    13  C    4.792735   0.411722   0.410909   0.401357
    14  H    0.411722   0.548565  -0.026330  -0.023619
    15  H    0.410909  -0.026330   0.551860  -0.024753
    16  H    0.401357  -0.023619  -0.024753   0.544363
          Atomic-Atomic Spin Densities.
               1          2          3          4          5          6
     1  C    0.243332  -0.003895  -0.013820  -0.001129   0.001731   0.051145
     2  C   -0.003895  -0.120880   0.006871  -0.000664   0.000307  -0.000123
     3  C   -0.013820   0.006871   0.294334   0.015660  -0.008788  -0.003013
     4  C   -0.001129  -0.000664   0.015660  -0.072236  -0.010268   0.000324
     5  C    0.001731   0.000307  -0.008788  -0.010268   0.107638   0.024247
     6  C    0.051145  -0.000123  -0.003013   0.000324   0.024247  -0.098205
     7  H   -0.000426   0.000605  -0.000198  -0.000017  -0.000023   0.000009
     8  H    0.000018   0.000040  -0.000099   0.000910  -0.000677   0.000005
     9  H   -0.000494   0.000055  -0.000121   0.000196   0.001592   0.000595
    10  O   -0.013150  -0.000225   0.000155   0.000032  -0.004121  -0.050751
    11  H   -0.001865  -0.000589   0.000040   0.000037  -0.000195  -0.000724
    12  O   -0.033439   0.001499   0.000270   0.000013  -0.000124   0.000407
    13  C   -0.000137   0.000804  -0.009856   0.000378   0.000016  -0.000010
    14  H    0.000138  -0.000233  -0.001788  -0.000060   0.000008   0.000004
    15  H    0.000046  -0.000200  -0.002022   0.000004   0.000043   0.000004
    16  H    0.000042   0.000342  -0.007968  -0.000453   0.000084   0.000028
               7          8          9         10         11         12
     1  C   -0.000426   0.000018  -0.000494  -0.013150  -0.001865  -0.033439
     2  C    0.000605   0.000040   0.000055  -0.000225  -0.000589   0.001499
     3  C   -0.000198  -0.000099  -0.000121   0.000155   0.000040   0.000270
     4  C   -0.000017   0.000910   0.000196   0.000032   0.000037   0.000013
     5  C   -0.000023  -0.000677   0.001592  -0.004121  -0.000195  -0.000124
     6  C    0.000009   0.000005   0.000595  -0.050751  -0.000724   0.000407
     7  H    0.004561   0.000002  -0.000003   0.000003   0.000010  -0.000046
     8  H    0.000002   0.001897   0.000218   0.000005  -0.000001  -0.000000
     9  H   -0.000003   0.000218  -0.008337  -0.000399   0.000009  -0.000001
    10  O    0.000003   0.000005  -0.000399   0.670221  -0.000916   0.002002
    11  H    0.000010  -0.000001   0.000009  -0.000916   0.002412   0.000754
    12  O   -0.000046  -0.000000  -0.000001   0.002002   0.000754   0.075582
    13  C    0.000094   0.000035  -0.000001   0.000000  -0.000001  -0.000000
    14  H   -0.000077  -0.000001  -0.000000  -0.000000   0.000002   0.000003
    15  H   -0.000007  -0.000037  -0.000000  -0.000000   0.000000   0.000000
    16  H    0.000018  -0.000012   0.000000  -0.000000  -0.000002  -0.000005
              13         14         15         16
     1  C   -0.000137   0.000138   0.000046   0.000042
     2  C    0.000804  -0.000233  -0.000200   0.000342
     3  C   -0.009856  -0.001788  -0.002022  -0.007968
     4  C    0.000378  -0.000060   0.000004  -0.000453
     5  C    0.000016   0.000008   0.000043   0.000084
     6  C   -0.000010   0.000004   0.000004   0.000028
     7  H    0.000094  -0.000077  -0.000007   0.000018
     8  H    0.000035  -0.000001  -0.000037  -0.000012
     9  H   -0.000001  -0.000000  -0.000000   0.000000
    10  O    0.000000  -0.000000  -0.000000  -0.000000
    11  H   -0.000001   0.000002   0.000000  -0.000002
    12  O   -0.000000   0.000003   0.000000  -0.000005
    13  C   -0.018171   0.001568   0.001893   0.004133
    14  H    0.001568   0.005633   0.001182  -0.002825
    15  H    0.001893   0.001182   0.005536  -0.002757
    16  H    0.004133  -0.002825  -0.002757   0.022929
 Mulliken charges and spin densities:
               1          2
     1  C    0.198660   0.228097
     2  C   -0.027934  -0.116284
     3  C   -0.117674   0.269657
     4  C   -0.063464  -0.067272
     5  C   -0.074749   0.111472
     6  C    0.121353  -0.076061
     7  H    0.107621   0.004504
     8  H    0.104350   0.002301
     9  H    0.122243  -0.006692
    10  O   -0.380835   0.602858
    11  H    0.264907  -0.001030
    12  O   -0.388841   0.046915
    13  C   -0.252986  -0.019257
    14  H    0.124395   0.003553
    15  H    0.122954   0.003684
    16  H    0.140001   0.013555
 Sum of Mulliken charges =  -0.00000   1.00000
 Mulliken charges and spin densities with hydrogens summed into heavy atoms:
               1          2
     1  C    0.198660   0.228097
     2  C    0.079687  -0.111780
     3  C   -0.117674   0.269657
     4  C    0.040886  -0.064971
     5  C    0.047494   0.104780
     6  C    0.121353  -0.076061
    10  O   -0.380835   0.602858
    12  O   -0.123934   0.045885
    13  C    0.134365   0.001536
 Electronic spatial extent (au):  <R**2>=           1221.9464
 Charge=             -0.0000 electrons
 Dipole moment (field-independent basis, Debye):
    X=              4.0055    Y=             -0.1479    Z=              0.7721  Tot=              4.0820
 Quadrupole moment (field-independent basis, Debye-Ang):
   XX=            -52.6329   YY=            -50.6588   ZZ=            -53.6706
   XY=              3.1472   XZ=             -2.0966   YZ=             -1.1457
 Traceless Quadrupole moment (field-independent basis, Debye-Ang):
   XX=             -0.3121   YY=              1.6620   ZZ=             -1.3498
   XY=              3.1472   XZ=             -2.0966   YZ=             -1.1457
 Octapole moment (field-independent basis, Debye-Ang**2):
  XXX=             10.9880  YYY=              8.6303  ZZZ=              1.0460  XYY=              5.0438
  XXY=            -17.1880  XXZ=              6.1717  XZZ=             -6.8690  YZZ=             -3.8069
  YYZ=              1.2800  XYZ=              3.2519
 Hexadecapole moment (field-independent basis, Debye-Ang**3):
 XXXX=          -1021.6109 YYYY=           -462.7171 ZZZZ=            -62.1346 XXXY=             62.9699
 XXXZ=            -15.7644 YYYX=             -2.2413 YYYZ=             -1.4903 ZZZX=              1.1271
 ZZZY=             -1.2892 XXYY=           -247.2708 XXZZ=           -176.0463 YYZZ=            -95.8446
 XXYZ=            -10.2121 YYXZ=             -7.1607 ZZXY=              1.2578
 N-N= 4.090320386827D+02 E-N=-1.802260303864D+03  KE= 4.195652027442D+02
                          Isotropic Fermi Contact Couplings
        Atom                 a.u.       MegaHertz       Gauss      10(-4) cm-1
     1  C(13)              0.01336      15.02259       5.36043       5.01100
     2  C(13)             -0.01635     -18.37631      -6.55712      -6.12968
     3  C(13)              0.02014      22.64534       8.08042       7.55367
     4  C(13)             -0.01135     -12.76211      -4.55384      -4.25698
     5  C(13)              0.00423       4.75153       1.69546       1.58494
     6  C(13)             -0.02978     -33.48093     -11.94683     -11.16804
     7  H(1)               0.00113       5.05565       1.80398       1.68638
     8  H(1)               0.00052       2.33859       0.83447       0.78007
     9  H(1)              -0.00167      -7.47088      -2.66580      -2.49202
    10  O(17)              0.03676     -22.28178      -7.95069      -7.43240
    11  H(1)               0.00062       2.78066       0.99221       0.92753
    12  O(17)              0.01183      -7.17208      -2.55918      -2.39235
    13  C(13)             -0.00714      -8.02521      -2.86359      -2.67692
    14  H(1)               0.00190       8.48828       3.02883       2.83138
    15  H(1)               0.00208       9.30280       3.31947       3.10308
    16  H(1)               0.00744      33.26800      11.87085      11.09701
 --------------------------------------------------------
       Center         ----  Spin Dipole Couplings  ----
                      3XX-RR        3YY-RR        3ZZ-RR
 --------------------------------------------------------
     1   Atom       -0.142558     -0.143215      0.285773
     2   Atom        0.058176      0.044676     -0.102852
     3   Atom       -0.147640     -0.155259      0.302899
     4   Atom        0.028712      0.024610     -0.053322
     5   Atom       -0.055596     -0.054039      0.109636
     6   Atom        0.027031      0.002564     -0.029595
     7   Atom        0.005708     -0.000751     -0.004957
     8   Atom       -0.000115      0.003440     -0.003325
     9   Atom       -0.005205      0.009382     -0.004178
    10   Atom       -1.191831     -1.214337      2.406168
    11   Atom        0.004155      0.003874     -0.008028
    12   Atom       -0.102399     -0.130050      0.232449
    13   Atom       -0.000459     -0.006282      0.006741
    14   Atom        0.001847      0.000708     -0.002556
    15   Atom        0.004742     -0.002105     -0.002637
    16   Atom        0.003551     -0.002985     -0.000566
 --------------------------------------------------------
                        XY            XZ            YZ
 --------------------------------------------------------
     1   Atom       -0.002609      0.012285     -0.001519
     2   Atom        0.001976      0.002974      0.001350
     3   Atom       -0.003279     -0.008232     -0.007705
     4   Atom        0.000055     -0.000814     -0.000088
     5   Atom        0.002290     -0.004263     -0.003902
     6   Atom       -0.010288     -0.000445      0.007409
     7   Atom        0.001631      0.000160     -0.000041
     8   Atom       -0.000881      0.000076      0.000140
     9   Atom        0.001212     -0.000098      0.000040
    10   Atom       -0.005077      0.010703      0.092054
    11   Atom       -0.003528     -0.005241     -0.002076
    12   Atom       -0.021725      0.109808     -0.048826
    13   Atom       -0.001865     -0.000616     -0.000390
    14   Atom       -0.003378     -0.000964      0.000667
    15   Atom        0.001179     -0.001170     -0.000082
    16   Atom       -0.001966      0.002658     -0.000714
 --------------------------------------------------------


 ---------------------------------------------------------------------------------
              Anisotropic Spin Dipole Couplings in Principal Axis System
 ---------------------------------------------------------------------------------

       Atom             a.u.   MegaHertz   Gauss  10(-4) cm-1        Axes

              Baa    -0.1456   -19.543    -6.973    -6.519  0.6852  0.7282 -0.0169
     1 C(13)  Bbb    -0.1405   -18.853    -6.727    -6.289  0.7278 -0.6854 -0.0234
              Bcc     0.2861    38.396    13.701    12.808  0.0287 -0.0037  0.9996
 
              Baa    -0.1029   -13.811    -4.928    -4.607 -0.0183 -0.0089  0.9998
     2 C(13)  Bbb     0.0444     5.958     2.126     1.987 -0.1432  0.9897  0.0062
              Bcc     0.0585     7.853     2.802     2.619  0.9895  0.1431  0.0194
 
              Baa    -0.1567   -21.027    -7.503    -7.014  0.3579  0.9335  0.0221
     3 C(13)  Bbb    -0.1465   -19.656    -7.014    -6.557  0.9336 -0.3582  0.0110
              Bcc     0.3032    40.683    14.517    13.571 -0.0181 -0.0167  0.9997
 
              Baa    -0.0533    -7.156    -2.554    -2.387  0.0099  0.0011  1.0000
     4 C(13)  Bbb     0.0246     3.302     1.178     1.102 -0.0137  0.9999 -0.0010
              Bcc     0.0287     3.854     1.375     1.286  0.9999  0.0137 -0.0099
 
              Baa    -0.0572    -7.682    -2.741    -2.562  0.8180 -0.5752  0.0075
     5 C(13)  Bbb    -0.0526    -7.058    -2.518    -2.354  0.5746  0.8177  0.0348
              Bcc     0.1098    14.740     5.259     4.917 -0.0261 -0.0242  0.9994
 
              Baa    -0.0313    -4.197    -1.498    -1.400 -0.0319 -0.2230  0.9743
     6 C(13)  Bbb     0.0003     0.047     0.017     0.016  0.3541  0.9090  0.2197
              Bcc     0.0309     4.150     1.481     1.384  0.9347 -0.3520 -0.0500
 
              Baa    -0.0050    -2.647    -0.944    -0.883 -0.0175  0.0166  0.9997
     7 H(1)   Bbb    -0.0011    -0.607    -0.217    -0.203 -0.2312  0.9727 -0.0202
              Bcc     0.0061     3.254     1.161     1.085  0.9727  0.2315  0.0132
 
              Baa    -0.0033    -1.777    -0.634    -0.593 -0.0303 -0.0245  0.9992
     8 H(1)   Bbb    -0.0003    -0.170    -0.060    -0.057  0.9733  0.2269  0.0351
              Bcc     0.0036     1.946     0.695     0.649 -0.2276  0.9736  0.0170
 
              Baa    -0.0053    -2.835    -1.012    -0.946  0.9927 -0.0821  0.0887
     9 H(1)   Bbb    -0.0042    -2.224    -0.794    -0.742 -0.0886  0.0050  0.9961
              Bcc     0.0095     5.059     1.805     1.688  0.0822  0.9966  0.0023
 
              Baa    -1.2178    88.118    31.443    29.393  0.2021  0.9790 -0.0255
    10 O(17)  Bbb    -1.1908    86.162    30.745    28.741  0.9794 -0.2021  0.0023
              Bcc     2.4085  -174.280   -62.187   -58.134  0.0029  0.0254  0.9997
 
              Baa    -0.0107    -5.700    -2.034    -1.901  0.3708  0.2185  0.9026
    11 H(1)   Bbb     0.0027     1.441     0.514     0.481  0.4888  0.7805 -0.3898
              Bcc     0.0080     4.259     1.520     1.421  0.7897 -0.5858 -0.1825
 
              Baa    -0.1430    10.345     3.691     3.451  0.6582  0.7467 -0.0954
    12 O(17)  Bbb    -0.1293     9.354     3.338     3.120  0.6964 -0.6521 -0.2995
              Bcc     0.2722   -19.698    -7.029    -6.571  0.2858 -0.1307  0.9493
 
              Baa    -0.0069    -0.919    -0.328    -0.307  0.2835  0.9581  0.0403
    13 C(13)  Bbb     0.0001     0.007     0.003     0.002  0.9556 -0.2857  0.0713
              Bcc     0.0068     0.912     0.325     0.304 -0.0799 -0.0183  0.9966
 
              Baa    -0.0028    -1.472    -0.525    -0.491  0.2318  0.0388  0.9720
    14 H(1)   Bbb    -0.0021    -1.135    -0.405    -0.379  0.6121  0.7708 -0.1768
              Bcc     0.0049     2.607     0.930     0.870  0.7560 -0.6359 -0.1549
 
              Baa    -0.0028    -1.513    -0.540    -0.505  0.1771 -0.1775  0.9681
    15 H(1)   Bbb    -0.0023    -1.216    -0.434    -0.406 -0.1295  0.9709  0.2017
              Bcc     0.0051     2.729     0.974     0.910  0.9756  0.1611 -0.1489
 
              Baa    -0.0035    -1.884    -0.672    -0.628  0.2717  0.9623 -0.0119
    16 H(1)   Bbb    -0.0018    -0.983    -0.351    -0.328 -0.4017  0.1247  0.9072
              Bcc     0.0054     2.866     1.023     0.956  0.8745 -0.2417  0.4205
 

 ---------------------------------------------------------------------------------

 Calling FoFJK, ICntrl=      2127 FMM=F ISym2X=0 I1Cent= 0 IOpClX= 1 NMat=1 NMatS=1 NMatT=0.
 ***** Axes restored to original set *****
 -------------------------------------------------------------------
 Center     Atomic                   Forces (Hartrees/Bohr)
 Number     Number              X              Y              Z
 -------------------------------------------------------------------
      1        6           0.056562675   -0.055506323   -0.001906531
      2        6          -0.013152940   -0.010707422    0.002648492
      3        6          -0.022763445    0.055897392    0.000064290
      4        6          -0.010810390   -0.064282911    0.000828220
      5        6           0.038525183   -0.045635335    0.002039852
      6        6           0.083914710    0.108977255   -0.000940737
      7        1          -0.000293349   -0.010540467    0.000204295
      8        1          -0.009999544    0.003018966   -0.000204092
      9        1           0.009750675    0.006034775    0.000190351
     10        8          -0.102837608   -0.026386733   -0.004054750
     11        1           0.004569041    0.012958634    0.003604940
     12        8          -0.046738179    0.017991037   -0.001959244
     13        6           0.034410193    0.014252955    0.003331192
     14        1          -0.003186607   -0.012797244    0.005860685
     15        1          -0.010783668    0.008800971    0.005124284
     16        1          -0.007166747   -0.002075549   -0.014831247
 -------------------------------------------------------------------
 Cartesian Forces:  Max     0.108977255 RMS     0.033359417

 GradGradGradGradGradGradGradGradGradGradGradGradGradGradGradGradGradGrad
 Berny optimization.
 FormGI is forming the generalized inverse of G from B-inverse, IUseBI=4.
 Internal  Forces:  Max     0.106218084 RMS     0.018476281
 Search for a local minimum.
 Step number   1 out of a maximum of   83
 All quantities printed in internal units (Hartrees-Bohrs-Radians)
 Mixed Optimization -- RFO/linear search
 Second derivative matrix not updated -- first step.
 ITU=  0
     Eigenvalues ---    0.00237   0.00929   0.00964   0.01240   0.01295
     Eigenvalues ---    0.01527   0.01902   0.01930   0.02388   0.02562
     Eigenvalues ---    0.02593   0.07243   0.07243   0.16000   0.16000
     Eigenvalues ---    0.16000   0.16000   0.16000   0.16000   0.16000
     Eigenvalues ---    0.22346   0.23442   0.24671   0.25000   0.25000
     Eigenvalues ---    0.25000   0.28519   0.28554   0.28839   0.37230
     Eigenvalues ---    0.37230   0.37230   0.37230   0.37230   0.37230
     Eigenvalues ---    0.40989   0.40989   0.48615   0.50253   0.52317
     Eigenvalues ---    0.55393   0.55473
 RFO step:  Lambda=-5.99993729D-02 EMin= 2.36824156D-03
 Linear search not attempted -- first point.
 Maximum step size (   0.300) exceeded in Quadratic search.
    -- Step size scaled by   0.796
 Iteration  1 RMS(Cart)=  0.05244351 RMS(Int)=  0.00127150
 Iteration  2 RMS(Cart)=  0.00131881 RMS(Int)=  0.00016326
 Iteration  3 RMS(Cart)=  0.00000199 RMS(Int)=  0.00016325
 Iteration  4 RMS(Cart)=  0.00000000 RMS(Int)=  0.00016325
 Variable       Old X    -DE/DX   Delta X   Delta X   Delta X     New X
                                 (Linear)    (Quad)   (Total)
    R1        2.58332   0.02677   0.00000   0.03924   0.03891   2.62223
    R2        2.57269   0.03559   0.00000   0.04994   0.04976   2.62245
    R3        2.70231  -0.05158   0.00000  -0.08738  -0.08738   2.61493
    R4        2.57269   0.01675   0.00000   0.02337   0.02321   2.59590
    R5        2.02201   0.01032   0.00000   0.01900   0.01900   2.04100
    R6        2.89959  -0.05138   0.00000  -0.11938  -0.11921   2.78039
    R7        2.91018  -0.01510   0.00000  -0.03482  -0.03482   2.87536
    R8        2.53860   0.02028   0.00000   0.02379   0.02412   2.56272
    R9        2.02201   0.00933   0.00000   0.01718   0.01718   2.03919
   R10        2.89959  -0.05580   0.00000  -0.12768  -0.12753   2.77207
   R11        2.02201   0.00838   0.00000   0.01544   0.01544   2.03744
   R12        2.70231  -0.10622   0.00000  -0.17992  -0.17992   2.52238
   R13        1.81414   0.00634   0.00000   0.00821   0.00821   1.82234
   R14        2.02201   0.01424   0.00000   0.02623   0.02623   2.04823
   R15        2.02201   0.01452   0.00000   0.02673   0.02673   2.04874
   R16        2.02201   0.01643   0.00000   0.03024   0.03024   2.05225
    A1        2.12334  -0.00390   0.00000  -0.00327  -0.00379   2.11955
    A2        2.07992  -0.00096   0.00000  -0.00583  -0.00558   2.07434
    A3        2.07992   0.00486   0.00000   0.00910   0.00934   2.08926
    A4        2.12334  -0.00734   0.00000  -0.01551  -0.01600   2.10734
    A5        2.07992   0.00146   0.00000  -0.00023   0.00001   2.07993
    A6        2.07992   0.00588   0.00000   0.01575   0.01599   2.09591
    A7        2.09592  -0.00404   0.00000  -0.01257  -0.01257   2.08335
    A8        2.09363   0.00719   0.00000   0.01956   0.01955   2.11319
    A9        2.09363  -0.00315   0.00000  -0.00699  -0.00700   2.08663
   A10        2.06393   0.01392   0.00000   0.03050   0.03103   2.09497
   A11        2.10963  -0.01171   0.00000  -0.03242  -0.03268   2.07694
   A12        2.10963  -0.00222   0.00000   0.00191   0.00165   2.11127
   A13        2.06393   0.00960   0.00000   0.02030   0.02081   2.08475
   A14        2.10963   0.00311   0.00000   0.01848   0.01822   2.12785
   A15        2.10963  -0.01271   0.00000  -0.03878  -0.03903   2.07059
   A16        2.09592  -0.00825   0.00000  -0.01945  -0.01950   2.07642
   A17        2.09363   0.00309   0.00000   0.00708   0.00707   2.10071
   A18        2.09363   0.00515   0.00000   0.01236   0.01235   2.10599
   A19        1.91063  -0.01531   0.00000  -0.05539  -0.05539   1.85524
   A20        1.91063   0.00217   0.00000   0.00835   0.00829   1.91893
   A21        1.91063   0.00335   0.00000   0.01244   0.01238   1.92301
   A22        1.91063   0.00195   0.00000   0.00629   0.00626   1.91690
   A23        1.91063  -0.00195   0.00000  -0.00550  -0.00558   1.90506
   A24        1.91063  -0.00238   0.00000  -0.00920  -0.00922   1.90141
   A25        1.91063  -0.00316   0.00000  -0.01238  -0.01241   1.89822
    D1        0.00000  -0.00019   0.00000  -0.00151  -0.00152  -0.00151
    D2       -3.14159   0.00004   0.00000   0.00025   0.00022  -3.14137
    D3       -3.14159  -0.00116   0.00000  -0.01049  -0.01046   3.13114
    D4        0.00000  -0.00093   0.00000  -0.00873  -0.00872  -0.00872
    D5       -0.00000   0.00008   0.00000   0.00033   0.00033   0.00033
    D6        3.14159   0.00125   0.00000   0.01290   0.01286  -3.12874
    D7        3.14159   0.00105   0.00000   0.00931   0.00935  -3.13225
    D8       -0.00000   0.00222   0.00000   0.02188   0.02187   0.02187
    D9        2.61799   0.00860   0.00000   0.09308   0.09309   2.71108
   D10       -0.52360   0.00766   0.00000   0.08432   0.08431  -0.43929
   D11       -0.00000   0.00010   0.00000   0.00105   0.00104   0.00104
   D12        3.14159  -0.00041   0.00000  -0.00483  -0.00486   3.13672
   D13        3.14159  -0.00013   0.00000  -0.00071  -0.00071   3.14088
   D14       -0.00000  -0.00064   0.00000  -0.00659  -0.00661  -0.00662
   D15        0.00000   0.00010   0.00000   0.00065   0.00064   0.00064
   D16       -3.14159  -0.00017   0.00000  -0.00169  -0.00169   3.13991
   D17       -3.14159   0.00061   0.00000   0.00653   0.00645  -3.13514
   D18        0.00000   0.00035   0.00000   0.00419   0.00413   0.00413
   D19        0.52360  -0.00041   0.00000  -0.00246  -0.00246   0.52114
   D20        2.61799   0.00059   0.00000   0.00353   0.00358   2.62157
   D21       -1.57080  -0.00003   0.00000  -0.00016  -0.00013  -1.57093
   D22       -2.61799  -0.00092   0.00000  -0.00833  -0.00838  -2.62637
   D23       -0.52360   0.00008   0.00000  -0.00234  -0.00234  -0.52594
   D24        1.57080  -0.00054   0.00000  -0.00603  -0.00605   1.56474
   D25       -0.00000  -0.00019   0.00000  -0.00173  -0.00179  -0.00179
   D26       -3.14159  -0.00035   0.00000  -0.00291  -0.00297   3.13862
   D27       -3.14159   0.00007   0.00000   0.00061   0.00058  -3.14101
   D28        0.00000  -0.00008   0.00000  -0.00058  -0.00060  -0.00060
   D29        0.00000   0.00012   0.00000   0.00134   0.00133   0.00133
   D30       -3.14159  -0.00106   0.00000  -0.01122  -0.01123   3.13037
   D31        3.14159   0.00027   0.00000   0.00252   0.00248  -3.13911
   D32       -0.00000  -0.00091   0.00000  -0.01004  -0.01008  -0.01008
         Item               Value     Threshold  Converged?
 Maximum Force            0.106218     0.000450     NO 
 RMS     Force            0.018476     0.000300     NO 
 Maximum Displacement     0.197003     0.001800     NO 
 RMS     Displacement     0.052640     0.001200     NO 
 Predicted change in Energy=-3.196828D-02
 GradGradGradGradGradGradGradGradGradGradGradGradGradGradGradGradGradGrad

                          Input orientation:                          
 ---------------------------------------------------------------------
 Center     Atomic      Atomic             Coordinates (Angstroms)
 Number     Number       Type             X           Y           Z
 ---------------------------------------------------------------------
      1          6           0        0.790160   -0.688609    0.068906
      2          6           0       -0.542909   -1.073548    0.053144
      3          6           0       -1.544561   -0.134345    0.012885
      4          6           0       -1.193494    1.294203   -0.014997
      5          6           0        0.108426    1.673574   -0.001648
      6          6           0        1.157617    0.649346    0.042964
      7          1           0       -0.787433   -2.125338    0.074585
      8          1           0       -1.985016    2.026893   -0.048174
      9          1           0        0.400007    2.711325   -0.023993
     10          8           0        2.446855    0.995071    0.044051
     11          1           0        2.561861   -1.277209   -0.260216
     12          8           0        1.767121   -1.667124    0.122293
     13          6           0       -3.008629   -0.548022   -0.010984
     14          1           0       -3.135624   -1.488770    0.512137
     15          1           0       -3.619247    0.209823    0.466703
     16          1           0       -3.340851   -0.668044   -1.037934
 ---------------------------------------------------------------------
                    Distance matrix (angstroms):
                    1          2          3          4          5
     1  C    0.000000
     2  C    1.387624   0.000000
     3  C    2.400265   1.373693   0.000000
     4  C    2.805969   2.456450   1.471317   0.000000
     5  C    2.459603   2.823813   2.449724   1.356133   0.000000
     6  C    1.387739   2.420797   2.813688   2.438631   1.466914
     7  H    2.133781   1.080053   2.130987   3.444731   3.903858
     8  H    3.884490   3.420917   2.206507   1.079093   2.123558
     9  H    3.423507   3.901321   3.446816   2.132501   1.078168
    10  O    2.362210   3.635651   4.148247   3.653095   2.435304
    11  H    1.895704   3.127182   4.271232   4.557958   3.846208
    12  O    1.383761   2.386075   3.650839   4.189695   3.731876
    13  C    3.802228   2.521917   1.521576   2.586217   3.827741
    14  H    4.030942   2.665568   2.148302   3.434338   4.559414
    15  H    4.517554   3.358858   2.151447   2.700406   4.032055
    16  H    4.276771   3.030407   2.148421   3.083497   4.295879
                    6          7          8          9         10
     6  C    0.000000
     7  H    3.388671   0.000000
     8  H    3.432504   4.323227   0.000000
     9  H    2.197775   4.981269   2.481404   0.000000
    10  O    1.334789   4.494275   4.551334   2.672030   0.000000
    11  H    2.403212   3.471194   5.624601   4.542886   2.295443
    12  O    2.396627   2.595763   5.268145   4.589250   2.748717
    13  C    4.335228   2.725611   2.771164   4.716175   5.669785
    14  H    4.819085   2.471977   3.741354   5.516242   6.128021
    15  H    4.815721   3.691328   2.497509   4.759485   6.131300
    16  H    4.810413   3.143461   3.174995   5.142201   6.118348
                   11         12         13         14         15
    11  H    0.000000
    12  O    0.964343   0.000000
    13  C    5.623538   4.906928   0.000000
    14  H    5.753488   4.921453   1.083878   0.000000
    15  H    6.398888   5.714413   1.084144   1.766685   0.000000
    16  H    5.984809   5.332511   1.086003   1.765908   1.764111
                   16
    16  H    0.000000
 Stoichiometry    C7H7O2(2)
 Framework group  C1[X(C7H7O2)]
 Deg. of freedom    42
 Full point group                 C1      NOp   1
 Largest Abelian subgroup         C1      NOp   1
 Largest concise Abelian subgroup C1      NOp   1
                         Standard orientation:                         
 ---------------------------------------------------------------------
 Center     Atomic      Atomic             Coordinates (Angstroms)
 Number     Number       Type             X           Y           Z
 ---------------------------------------------------------------------
      1          6           0       -0.783164   -0.740550   -0.012956
      2          6           0        0.565723   -1.066090   -0.007777
      3          6           0        1.525281   -0.083113   -0.001622
      4          6           0        1.111747    1.328891    0.000794
      5          6           0       -0.205746    1.650291   -0.002293
      6          6           0       -1.209088    0.580208   -0.010321
      7          1           0        0.856242   -2.106333   -0.010272
      8          1           0        1.870443    2.096212    0.007222
      9          1           0       -0.542639    2.674464    0.002067
     10          8           0       -2.512263    0.868829   -0.000611
     11          1           0       -2.522614   -1.399108    0.353531
     12          8           0       -1.716491   -1.761992   -0.031746
     13          6           0        3.006405   -0.431421    0.010427
     14          1           0        3.168021   -1.376900   -0.494292
     15          1           0        3.576570    0.341895   -0.491829
     16          1           0        3.357066   -0.514226    1.034919
 ---------------------------------------------------------------------
 Rotational constants (GHZ):           3.0765391           1.3482608           0.9434344
 Standard basis: 6-311G(d,p) (5D, 7F)
 There are   213 symmetry adapted cartesian basis functions of A   symmetry.
 There are   204 symmetry adapted basis functions of A   symmetry.
   204 basis functions,   344 primitive gaussians,   213 cartesian basis functions
    33 alpha electrons       32 beta electrons
       nuclear repulsion energy       414.3119202734 Hartrees.
 NAtoms=   16 NActive=   16 NUniq=   16 SFac= 1.00D+00 NAtFMM=   60 NAOKFM=F Big=F
 Integral buffers will be    131072 words long.
 Raffenetti 2 integral format.
 Two-electron integral symmetry is turned on.
 One-electron integrals computed using PRISM.
 NBasis=   204 RedAO= T EigKep=  2.19D-04  NBF=   204
 NBsUse=   204 1.00D-06 EigRej= -1.00D+00 NBFU=   204
 Initial guess from the checkpoint file:  "16.chk"
 B after Tr=     0.000000   -0.000000    0.000000
         Rot=    0.999998    0.000496    0.000060   -0.001934 Ang=   0.23 deg.
 Initial guess <Sx>= 0.0000 <Sy>= 0.0000 <Sz>= 0.5000 <S**2>= 0.7761 S= 0.5129
 ExpMin= 1.03D-01 ExpMax= 8.59D+03 ExpMxC= 1.30D+03 IAcc=3 IRadAn=         5 AccDes= 0.00D+00
 Harris functional with IExCor=  402 and IRadAn=       5 diagonalized for initial guess.
 HarFok:  IExCor=  402 AccDes= 0.00D+00 IRadAn=         5 IDoV= 1 UseB2=F ITyADJ=14
 ICtDFT=  3500011 ScaDFX=  1.000000  1.000000  1.000000  1.000000
 FoFCou: FMM=F IPFlag=           0 FMFlag=      100000 FMFlg1=           0
         NFxFlg=           0 DoJE=T BraDBF=F KetDBF=T FulRan=T
         wScrn=  0.000000 ICntrl=       500 IOpCl=  0 I1Cent=   200000004 NGrid=           0
         NMat0=    1 NMatS0=      1 NMatT0=    0 NMatD0=    1 NMtDS0=    0 NMtDT0=    0
 Petite list used in FoFCou.
 Requested convergence on RMS density matrix=1.00D-08 within 128 cycles.
 Requested convergence on MAX density matrix=1.00D-06.
 Requested convergence on             energy=1.00D-06.
 No special actions if energy rises.
 Integral accuracy reduced to 1.0D-05 until final iterations.
 Initial convergence to 1.0D-05 achieved.  Increase integral accuracy.
 SCF Done:  E(UB3LYP) =  -421.479558146     A.U. after   18 cycles
            NFock= 18  Conv=0.71D-08     -V/T= 2.0040
 <Sx>= 0.0000 <Sy>= 0.0000 <Sz>= 0.5000 <S**2>= 0.7746 S= 0.5122
 <L.S>=  0.00000000000    
 Annihilation of the first spin contaminant:
 S**2 before annihilation     0.7746,   after     0.7504
 Calling FoFJK, ICntrl=      2127 FMM=F ISym2X=0 I1Cent= 0 IOpClX= 1 NMat=1 NMatS=1 NMatT=0.
 ***** Axes restored to original set *****
 -------------------------------------------------------------------
 Center     Atomic                   Forces (Hartrees/Bohr)
 Number     Number              X              Y              Z
 -------------------------------------------------------------------
      1        6           0.013601316   -0.049428117    0.001022648
      2        6           0.001033864   -0.006787264    0.002734687
      3        6          -0.011486403    0.031893506    0.000780012
      4        6          -0.008263246   -0.029462928    0.000015155
      5        6           0.011971838   -0.017583904    0.000776287
      6        6           0.062060206    0.068926647   -0.002664273
      7        1           0.001157022   -0.003172841    0.000079594
      8        1          -0.003234302    0.001619014    0.000028374
      9        1           0.003885154    0.001848658    0.000132500
     10        8          -0.059298063   -0.020565172   -0.001799691
     11        1           0.006725821    0.006722783    0.006135515
     12        8          -0.025074083    0.013770899   -0.006758552
     13        6           0.017647885    0.005189397    0.001993065
     14        1          -0.002692057   -0.004594933    0.001145213
     15        1          -0.004344155    0.002523916    0.001241780
     16        1          -0.003690798   -0.000899661   -0.004862314
 -------------------------------------------------------------------
 Cartesian Forces:  Max     0.068926647 RMS     0.020024404

 GradGradGradGradGradGradGradGradGradGradGradGradGradGradGradGradGradGrad
 Berny optimization.
 Using GEDIIS/GDIIS optimizer.
 FormGI is forming the generalized inverse of G from B-inverse, IUseBI=4.
 Internal  Forces:  Max     0.062602494 RMS     0.010102674
 Search for a local minimum.
 Step number   2 out of a maximum of   83
 All quantities printed in internal units (Hartrees-Bohrs-Radians)
 Mixed Optimization -- RFO/linear search
 Update second derivatives using D2CorX and points    1    2
 DE= -3.71D-02 DEPred=-3.20D-02 R= 1.16D+00
 TightC=F SS=  1.41D+00  RLast= 3.27D-01 DXNew= 5.0454D-01 9.8144D-01
 Trust test= 1.16D+00 RLast= 3.27D-01 DXMaxT set to 5.05D-01
 ITU=  1  0
 Use linear search instead of GDIIS.
     Eigenvalues ---    0.00237   0.00935   0.00970   0.01254   0.01268
     Eigenvalues ---    0.01549   0.01905   0.01951   0.02389   0.02562
     Eigenvalues ---    0.02595   0.07113   0.07162   0.15769   0.16000
     Eigenvalues ---    0.16000   0.16000   0.16000   0.16000   0.16392
     Eigenvalues ---    0.21713   0.22419   0.23477   0.24773   0.24999
     Eigenvalues ---    0.25042   0.27365   0.28533   0.30137   0.32943
     Eigenvalues ---    0.37230   0.37230   0.37230   0.37230   0.37234
     Eigenvalues ---    0.38010   0.41072   0.48298   0.50307   0.53252
     Eigenvalues ---    0.55231   0.55691
 RFO step:  Lambda=-6.83031610D-03 EMin= 2.36829962D-03
 Quartic linear search produced a step of  0.75113.
 Iteration  1 RMS(Cart)=  0.05153920 RMS(Int)=  0.00366748
 Iteration  2 RMS(Cart)=  0.00374909 RMS(Int)=  0.00019922
 Iteration  3 RMS(Cart)=  0.00001356 RMS(Int)=  0.00019893
 Iteration  4 RMS(Cart)=  0.00000000 RMS(Int)=  0.00019893
 Variable       Old X    -DE/DX   Delta X   Delta X   Delta X     New X
                                 (Linear)    (Quad)   (Total)
    R1        2.62223   0.00471   0.02923  -0.02120   0.00764   2.62987
    R2        2.62245   0.03008   0.03737   0.05090   0.08809   2.71054
    R3        2.61493  -0.02747  -0.06563  -0.02192  -0.08755   2.52738
    R4        2.59590   0.01245   0.01743   0.01730   0.03452   2.63042
    R5        2.04100   0.00283   0.01427  -0.00775   0.00652   2.04752
    R6        2.78039  -0.02361  -0.08954  -0.00201  -0.09138   2.68900
    R7        2.87536  -0.00726  -0.02615  -0.00193  -0.02808   2.84728
    R8        2.56272   0.00961   0.01812   0.00356   0.02206   2.58478
    R9        2.03919   0.00347   0.01291  -0.00282   0.01008   2.04927
   R10        2.77207  -0.01900  -0.09579   0.03956  -0.05601   2.71605
   R11        2.03744   0.00283   0.01159  -0.00387   0.00772   2.04517
   R12        2.52238  -0.06260  -0.13515  -0.07038  -0.20553   2.31686
   R13        1.82234   0.00583   0.00617   0.00997   0.01613   1.83848
   R14        2.04823   0.00486   0.01970  -0.00634   0.01336   2.06160
   R15        2.04874   0.00476   0.02008  -0.00733   0.01274   2.06148
   R16        2.05225   0.00583   0.02272  -0.00626   0.01645   2.06870
    A1        2.11955  -0.00218  -0.00285  -0.00053  -0.00397   2.11558
    A2        2.07434   0.00526  -0.00419   0.03793   0.03401   2.10835
    A3        2.08926  -0.00308   0.00701  -0.03729  -0.03000   2.05926
    A4        2.10734  -0.00313  -0.01202   0.00157  -0.01107   2.09627
    A5        2.07993  -0.00032   0.00001  -0.00847  -0.00815   2.07178
    A6        2.09591   0.00345   0.01201   0.00689   0.01921   2.11512
    A7        2.08335   0.00071  -0.00944   0.01477   0.00527   2.08861
    A8        2.11319   0.00039   0.01469  -0.01889  -0.00417   2.10902
    A9        2.08663  -0.00110  -0.00526   0.00413  -0.00110   2.08553
   A10        2.09497   0.00607   0.02331  -0.00636   0.01750   2.11247
   A11        2.07694  -0.00407  -0.02455   0.01817  -0.00666   2.07028
   A12        2.11127  -0.00201   0.00124  -0.01181  -0.01085   2.10042
   A13        2.08475   0.00490   0.01563   0.00407   0.02031   2.10505
   A14        2.12785   0.00085   0.01369  -0.01044   0.00294   2.13079
   A15        2.07059  -0.00576  -0.02932   0.00637  -0.02326   2.04734
   A16        2.07642  -0.00637  -0.01464  -0.01353  -0.02816   2.04826
   A17        2.10071  -0.00244   0.00531  -0.02798  -0.02272   2.07799
   A18        2.10599   0.00880   0.00928   0.04170   0.05094   2.15693
   A19        1.85524  -0.00267  -0.04161   0.05522   0.01361   1.86885
   A20        1.91893   0.00263   0.00623   0.01629   0.02231   1.94124
   A21        1.92301   0.00196   0.00930   0.00233   0.01146   1.93448
   A22        1.91690   0.00172   0.00470   0.00707   0.01167   1.92856
   A23        1.90506  -0.00168  -0.00419  -0.00601  -0.01045   1.89460
   A24        1.90141  -0.00242  -0.00692  -0.01214  -0.01920   1.88221
   A25        1.89822  -0.00233  -0.00932  -0.00805  -0.01744   1.88079
    D1       -0.00151  -0.00031  -0.00114  -0.01009  -0.01126  -0.01277
    D2       -3.14137  -0.00009   0.00016  -0.00794  -0.00783   3.13398
    D3        3.13114  -0.00085  -0.00786   0.00395  -0.00378   3.12736
    D4       -0.00872  -0.00063  -0.00655   0.00609  -0.00035  -0.00907
    D5        0.00033   0.00028   0.00025   0.01671   0.01683   0.01716
    D6       -3.12874   0.00101   0.00966  -0.00100   0.00870  -3.12004
    D7       -3.13225   0.00079   0.00702   0.00218   0.00924  -3.12301
    D8        0.02187   0.00152   0.01643  -0.01553   0.00111   0.02298
    D9        2.71108   0.00865   0.06992   0.11987   0.18979   2.90087
   D10       -0.43929   0.00812   0.06333   0.13383   0.19716  -0.24213
   D11        0.00104   0.00010   0.00078  -0.00175  -0.00090   0.00014
   D12        3.13672  -0.00033  -0.00365   0.00125  -0.00235   3.13438
   D13        3.14088  -0.00013  -0.00053  -0.00393  -0.00444   3.13645
   D14       -0.00662  -0.00056  -0.00497  -0.00094  -0.00589  -0.01250
   D15        0.00064   0.00013   0.00048   0.00655   0.00710   0.00773
   D16        3.13991  -0.00010  -0.00127   0.00591   0.00473  -3.13855
   D17       -3.13514   0.00055   0.00485   0.00367   0.00854  -3.12660
   D18        0.00413   0.00032   0.00310   0.00303   0.00617   0.01030
   D19        0.52114  -0.00034  -0.00185  -0.00098  -0.00286   0.51828
   D20        2.62157   0.00050   0.00269   0.00345   0.00622   2.62779
   D21       -1.57093  -0.00007  -0.00010  -0.00059  -0.00071  -1.57164
   D22       -2.62637  -0.00076  -0.00629   0.00206  -0.00429  -2.63066
   D23       -0.52594   0.00007  -0.00176   0.00649   0.00480  -0.52115
   D24        1.56474  -0.00050  -0.00455   0.00245  -0.00214   1.56261
   D25       -0.00179  -0.00017  -0.00134   0.00020  -0.00107  -0.00286
   D26        3.13862  -0.00032  -0.00223  -0.00164  -0.00384   3.13479
   D27       -3.14101   0.00007   0.00044   0.00081   0.00133  -3.13968
   D28       -0.00060  -0.00008  -0.00045  -0.00103  -0.00144  -0.00204
   D29        0.00133  -0.00005   0.00100  -0.01160  -0.01061  -0.00927
   D30        3.13037  -0.00086  -0.00843   0.00565  -0.00265   3.12771
   D31       -3.13911   0.00010   0.00186  -0.00982  -0.00799   3.13608
   D32       -0.01008  -0.00072  -0.00757   0.00743  -0.00003  -0.01012
         Item               Value     Threshold  Converged?
 Maximum Force            0.062602     0.000450     NO 
 RMS     Force            0.010103     0.000300     NO 
 Maximum Displacement     0.233721     0.001800     NO 
 RMS     Displacement     0.051145     0.001200     NO 
 Predicted change in Energy=-1.778613D-02
 GradGradGradGradGradGradGradGradGradGradGradGradGradGradGradGradGradGrad

                          Input orientation:                          
 ---------------------------------------------------------------------
 Center     Atomic      Atomic             Coordinates (Angstroms)
 Number     Number       Type             X           Y           Z
 ---------------------------------------------------------------------
      1          6           0        0.795548   -0.716991    0.046177
      2          6           0       -0.543338   -1.096552    0.038401
      3          6           0       -1.543355   -0.128629    0.012988
      4          6           0       -1.189409    1.249489   -0.005151
      5          6           0        0.121164    1.641016   -0.007090
      6          6           0        1.176460    0.665458    0.012758
      7          1           0       -0.784980   -2.152594    0.057372
      8          1           0       -1.982208    1.989202   -0.021962
      9          1           0        0.409542    2.683953   -0.027005
     10          8           0        2.367784    0.954721   -0.002078
     11          1           0        2.598463   -1.181250   -0.136536
     12          8           0        1.767356   -1.634955    0.086868
     13          6           0       -2.997921   -0.521183   -0.005106
     14          1           0       -3.156886   -1.471640    0.506297
     15          1           0       -3.611364    0.240151    0.478728
     16          1           0       -3.352573   -0.630971   -1.034940
 ---------------------------------------------------------------------
                    Distance matrix (angstroms):
                    1          2          3          4          5
     1  C    0.000000
     2  C    1.391669   0.000000
     3  C    2.411999   1.391961   0.000000
     4  C    2.794589   2.433764   1.422960   0.000000
     5  C    2.453126   2.817429   2.429541   1.367808   0.000000
     6  C    1.434355   2.462324   2.833367   2.436955   1.437274
     7  H    2.135217   1.083502   2.161837   3.426608   3.900863
     8  H    3.878665   3.405270   2.163104   1.084430   2.132048
     9  H    3.423562   3.899292   3.424328   2.148211   1.082255
    10  O    2.295403   3.561459   4.058434   3.569387   2.349112
    11  H    1.870675   3.147807   4.276099   4.502636   3.757519
    12  O    1.337432   2.373086   3.638033   4.131700   3.667528
    13  C    3.798865   2.521491   1.506714   2.531007   3.795234
    14  H    4.050054   2.681465   2.156505   3.396628   4.549484
    15  H    4.530352   3.375418   2.151644   2.668102   4.016243
    16  H    4.287554   3.043128   2.150295   3.045631   4.276125
                    6          7          8          9         10
     6  C    0.000000
     7  H    3.433752   0.000000
     8  H    3.425009   4.312090   0.000000
     9  H    2.159645   4.982589   2.490616   0.000000
    10  O    1.226029   4.427060   4.471350   2.612581   0.000000
    11  H    2.335533   3.525449   5.572022   4.443329   2.152595
    12  O    2.376247   2.604465   5.215897   4.528752   2.659858
    13  C    4.339803   2.750003   2.708134   4.678053   5.564988
    14  H    4.856815   2.508221   3.692743   5.502070   6.055382
    15  H    4.829210   3.727092   2.442134   4.732401   6.040861
    16  H    4.826027   3.178210   3.125593   5.114505   6.025256
                   11         12         13         14         15
    11  H    0.000000
    12  O    0.972880   0.000000
    13  C    5.636708   4.894570   0.000000
    14  H    5.798414   4.944771   1.090949   0.000000
    15  H    6.400069   5.709659   1.090888   1.771309   0.000000
    16  H    6.043572   5.336676   1.094709   1.766473   1.765507
                   16
    16  H    0.000000
 Stoichiometry    C7H7O2(2)
 Framework group  C1[X(C7H7O2)]
 Deg. of freedom    42
 Full point group                 C1      NOp   1
 Largest Abelian subgroup         C1      NOp   1
 Largest concise Abelian subgroup C1      NOp   1
                         Standard orientation:                         
 ---------------------------------------------------------------------
 Center     Atomic      Atomic             Coordinates (Angstroms)
 Number     Number       Type             X           Y           Z
 ---------------------------------------------------------------------
      1          6           0       -0.797367   -0.756331   -0.010210
      2          6           0        0.554619   -1.086220   -0.003135
      3          6           0        1.518412   -0.081901   -0.003350
      4          6           0        1.114027    1.282369   -0.010658
      5          6           0       -0.210054    1.625451   -0.008434
      6          6           0       -1.228776    0.611586   -0.002159
      7          1           0        0.834904   -2.132841   -0.002423
      8          1           0        1.879109    2.050893   -0.013609
      9          1           0       -0.536554    2.657281   -0.007650
     10          8           0       -2.429851    0.857135    0.014269
     11          1           0       -2.580924   -1.282704    0.192969
     12          8           0       -1.734897   -1.710009   -0.026447
     13          6           0        2.986533   -0.420313    0.013581
     14          1           0        3.177617   -1.374461   -0.479633
     15          1           0        3.568850    0.353076   -0.489224
     16          1           0        3.350614   -0.496101    1.043188
 ---------------------------------------------------------------------
 Rotational constants (GHZ):           3.1750392           1.3710258           0.9634839
 Standard basis: 6-311G(d,p) (5D, 7F)
 There are   213 symmetry adapted cartesian basis functions of A   symmetry.
 There are   204 symmetry adapted basis functions of A   symmetry.
   204 basis functions,   344 primitive gaussians,   213 cartesian basis functions
    33 alpha electrons       32 beta electrons
       nuclear repulsion energy       419.1257533956 Hartrees.
 NAtoms=   16 NActive=   16 NUniq=   16 SFac= 1.00D+00 NAtFMM=   60 NAOKFM=F Big=F
 Integral buffers will be    131072 words long.
 Raffenetti 2 integral format.
 Two-electron integral symmetry is turned on.
 One-electron integrals computed using PRISM.
 NBasis=   204 RedAO= T EigKep=  2.23D-04  NBF=   204
 NBsUse=   204 1.00D-06 EigRej= -1.00D+00 NBFU=   204
 Initial guess from the checkpoint file:  "16.chk"
 B after Tr=     0.000000   -0.000000    0.000000
         Rot=    0.999994    0.000383    0.000066    0.003575 Ang=   0.41 deg.
 Initial guess <Sx>= 0.0000 <Sy>= 0.0000 <Sz>= 0.5000 <S**2>= 0.7740 S= 0.5119
 ExpMin= 1.03D-01 ExpMax= 8.59D+03 ExpMxC= 1.30D+03 IAcc=3 IRadAn=         5 AccDes= 0.00D+00
 Harris functional with IExCor=  402 and IRadAn=       5 diagonalized for initial guess.
 HarFok:  IExCor=  402 AccDes= 0.00D+00 IRadAn=         5 IDoV= 1 UseB2=F ITyADJ=14
 ICtDFT=  3500011 ScaDFX=  1.000000  1.000000  1.000000  1.000000
 FoFCou: FMM=F IPFlag=           0 FMFlag=      100000 FMFlg1=           0
[...]
     6          0.29368062         -2.01168287          1.20397438
     6          0.01565948         -0.04217050          2.93350808
     6         -0.34042999          2.47997627          2.04212071
     6         -0.41960670          3.04030129         -0.48065319
     6         -0.14139326          1.06949473         -2.33376440
     1          0.56608972         -3.94107367          1.83492370
     1         -0.55219417          3.97982083          3.42457961
     1         -0.68939155          4.95096615         -1.16435688
     8         -0.18271429          1.36204591         -4.68291405
     1          0.34553303         -2.37986101         -4.72275135
     8          0.47449394         -3.29319147         -3.11403896
     6          0.08490446         -0.53256876          5.73155170
     1          0.36716584         -2.53108610          6.14869333
     1          1.61255346          0.53578383          6.63054087
     1         -1.67891339          0.07087511          6.63049589

 Electric dipole moment (dipole orientation):
 (Debye = 10**-18 statcoulomb cm , SI units = C m)
                  (au)            (Debye)         (10**-30 SI)
   Tot        0.133450D+01      0.339196D+01      0.113144D+02
   x          0.000000D+00      0.000000D+00      0.000000D+00
   y          0.000000D+00      0.000000D+00      0.000000D+00
   z          0.133450D+01      0.339196D+01      0.113144D+02

 Dipole polarizability, Alpha (dipole orientation).
 (esu units = cm**3 , SI units = C**2 m**2 J**-1)
 Alpha(0;0):
               (au)            (10**-24 esu)      (10**-40 SI)
   iso        0.841022D+02      0.124627D+02      0.138666D+02
   aniso      0.709446D+02      0.105129D+02      0.116972D+02
   xx         0.415194D+02      0.615254D+01      0.684563D+01
   yx        -0.683108D+01     -0.101226D+01     -0.112629D+01
   yy         0.889409D+02      0.131797D+02      0.146644D+02
   zx        -0.854724D-01     -0.126657D-01     -0.140925D-01
   zy         0.614542D+00      0.910658D-01      0.101324D+00
   zz         0.121846D+03      0.180558D+02      0.200898D+02

 ----------------------------------------------------------------------
 Unable to Open any file for archive entry.
 1\1\GINC-G0101\Freq\UB3LYP\6-311G(d,p)\C7H7O2(2)\SCG3027\08-Sep-2022\0
 \\#N Geom=AllCheck Guess=TCheck SCRF=Check GenChk UB3LYP/6-311G(d,p) F
 req\\Title Card Required\\0,2\C,0.782961198,-0.7415074028,0.0577248321
 \C,-0.551643812,-1.1199113478,0.0692435195\C,-1.5458327095,-0.14403041
 22,0.0002492252\C,-1.180276798,1.2340193212,-0.0814958053\C,0.12737045
 31,1.6362236021,-0.0947232837\C,1.1868073285,0.6647598993,-0.025416898
 \H,-0.8044108204,-2.1719867502,0.1318898598\H,-1.9718664984,1.97448387
 39,-0.1341992085\H,0.4087457725,2.680521437,-0.1566461312\O,2.41397399
 47,0.9173924476,-0.0301080198\H,2.590328557,-1.0708203669,0.0940536363
 \O,1.7795555517,-1.622976383,0.1209136148\C,-3.0016035,-0.5204201006,0
 .010537986\H,-3.1387049076,-1.6004253683,0.0759828373\H,-3.5183732865,
 -0.0588560106,0.8586803156\H,-3.502748453,-0.1672403986,-0.8969660602\
 \Version=ES64L-G16RevC.01\State=2-A\HF=-421.496863\S2=0.769431\S2-1=0.
 \S2A=0.750254\RMSD=6.465e-09\RMSF=2.687e-06\ZeroPoint=0.1239759\Therma
 l=0.1728325\ETot=-421.3240305\HTot=-421.3214238\GTot=-421.5024908\Dipo
 le=-1.3304168,-0.1041949,-0.0053899\DipoleDeriv=1.0658217,-0.720364,0.
 0524728,-0.5866464,0.4738992,-0.024734,0.0442278,-0.0259212,0.159073,-
 0.5390514,0.471712,-0.0322431,0.0477034,-0.0177812,-0.0098048,-0.00609
 72,-0.0060504,-0.1833017,0.5734359,-0.0857214,0.0107124,0.1944429,0.33
 06902,-0.0209959,-0.0065469,-0.0234721,-0.0363368,-0.2011163,-0.135978
 1,0.0077766,-0.3520468,-0.0491791,-0.0082274,0.0211115,-0.0063203,-0.1
 313756,-0.0030145,-0.0032709,0.001366,0.1927013,0.1122687,-0.0135407,-
 0.0107209,-0.0152721,-0.1341001,0.8323974,0.0542574,0.002467,0.1615434
 ,0.069049,0.0081149,-0.0041515,0.0071622,0.1769129,0.0658415,-0.034495
 9,0.001436,-0.0427376,-0.0542812,0.0118454,0.0019457,0.011919,0.143207
 ,-0.0249002,0.0923882,-0.0070283,0.0824304,0.0036641,0.0082185,-0.0064
 21,0.0083131,0.1244916,0.0539461,-0.0520065,0.0024861,-0.0229181,-0.03
 33459,0.0102036,0.0006927,0.0099437,0.1347678,-1.0518774,-0.161296,0.0
 037334,-0.0790584,-0.4220308,0.0036559,-0.0013367,0.0029267,-0.3515628
 ,0.3929862,-0.0493465,0.0038372,-0.1728314,0.2979345,-0.0011941,0.0114
 502,-0.0000966,0.3035233,-0.9764452,0.6423598,-0.0454508,0.6097347,-0.
 788733,0.0344663,-0.0434393,0.034756,-0.3199548,-0.1606232,-0.0319079,
 -0.0004114,0.0793378,0.1160524,0.0001503,-0.0073115,-0.0008432,0.10706
 41,0.0295709,0.0236227,-0.0019222,-0.0761584,-0.1192379,0.0117437,0.00
 42423,0.0126282,0.0812199,-0.0296845,-0.0015771,0.0477264,-0.0116598,0
 .0326925,-0.0780795,0.0891723,-0.057864,-0.0277859,-0.0272869,-0.00837
 59,-0.0469581,-0.023837,0.0483384,0.0681778,-0.0868175,0.048191,-0.045
 8419\Polar=121.7434079,1.9013744,89.8166326,0.6025082,-3.021162,40.746
 6747\Quadrupole=0.6782995,0.4355498,-1.1138493,-2.0212264,0.1406263,-0
 .1140539\PG=C01 [X(C7H7O2)]\NImag=0\\0.77952957,-0.02587056,0.58531975
 ,0.00727624,-0.02779677,0.14007750,-0.28336543,-0.04436933,0.00072045,
 0.64034464,-0.10980033,-0.15674557,0.00526031,0.02146267,0.73134806,0.
 00475554,0.00583978,-0.05600309,0.00337372,-0.03812649,0.11245176,-0.0
 6387353,0.00916451,-0.00110156,-0.20512934,0.13032636,-0.00938394,0.62
 739824,0.06053842,0.04665160,-0.00254825,0.05163259,-0.22553625,0.0110
 8660,-0.02843208,0.59258670,-0.00426946,-0.00300277,-0.00321420,-0.004
 53110,0.01178371,-0.05395747,0.00585280,-0.02660934,0.16688144,-0.0199
 9506,-0.01829526,0.00094871,0.04455642,0.00974825,-0.00025017,-0.12291
 517,0.01237994,-0.00129597,0.74353278,-0.02375750,-0.02253542,0.001198
 55,0.03871420,-0.04681586,0.00353444,-0.05334306,-0.24675541,0.0108618
 9,-0.03111519,0.62546886,0.00128560,0.00124694,0.00024418,-0.00203705,
 0.00327819,0.00471248,0.00275824,0.01144488,-0.06363294,0.00742118,-0.
 03126806,0.12500646,0.02679364,0.02412527,-0.00130372,-0.03037186,0.01
 351196,-0.00112159,-0.00718302,-0.06751431,0.00407286,-0.37767712,-0.0
 5124433,0.00026219,0.69395132,0.02593107,-0.02762119,0.00230115,-0.003
 86269,-0.00170779,0.00020477,-0.03317532,-0.01482024,0.00081434,-0.096
 94364,-0.14548174,0.00500171,0.08152576,0.69174223,-0.00141484,0.00228
 462,0.00580716,-0.00005000,0.00035867,0.00214603,0.00195444,0.00051004
 ,0.00313610,0.00308167,0.00540658,-0.05077739,0.00010456,-0.03487886,0
 .11671364,-0.07194582,0.00231313,-0.00012034,-0.01685230,-0.02708598,0
 .00149670,0.01159308,0.01449844,-0.00075501,-0.05635191,0.00091685,-0.
 00056296,-0.13572299,0.06473655,-0.00460955,0.75345422,0.00114399,-0.1
 8209155,0.00665283,-0.03332434,0.00921100,-0.00069323,0.00587917,-0.02
 194613,0.00114773,0.01781198,0.03761973,-0.00211381,0.05763903,-0.2064
 6871,0.00916895,-0.01218352,0.54805199,-0.00004876,0.00666326,-0.07478
 667,0.00188150,-0.00063775,0.00281455,-0.00022261,0.00122483,-0.004253
 47,-0.00160507,-0.00226403,0.00091134,-0.00417167,0.00923134,-0.066701
 11,0.00597714,-0.02377955,0.16572905,-0.00232492,-0.03274095,0.0019550
 1,-0.07438432,-0.06497071,0.00364172,0.00878112,0.02050557,-0.00120401
 ,-0.00298813,0.00328254,-0.00028270,-0.00068399,-0.00025372,0.00001900
 ,-0.00402444,0.00314609,-0.00029378,0.07300453,-0.00023502,-0.00653783
 ,0.00070411,-0.06492810,-0.31829504,0.01701158,-0.00705479,-0.01717807
 ,0.00111664,0.00390380,-0.00022269,0.00042268,-0.00008950,0.00057115,-
 0.00010175,0.00011837,0.00215278,0.00031520,0.07021891,0.33811676,-0.0
 0004957,0.00041626,0.00488738,0.00363874,0.01701131,-0.03415434,0.0004
 9591,0.00136057,0.00186260,-0.00032090,0.00041715,0.00604022,0.0000088
 8,-0.00010322,-0.00105911,-0.00010721,0.00034199,0.00722421,-0.0038912
 9,-0.01878775,0.02452293,-0.00014801,-0.00053229,0.00004329,0.00022299
 ,-0.00211666,0.00009514,0.00768087,-0.00686725,0.00047517,-0.20273602,
 0.13656738,-0.00990098,-0.01889390,0.02304493,-0.00163674,-0.00212385,
 -0.00453920,0.00017083,0.00046874,-0.00027706,0.00001634,0.21528609,-0
 .00117726,0.00013503,-0.00010064,-0.00311143,-0.00452953,0.00051146,0.
 02395400,-0.01690923,0.00137081,0.13570082,-0.18628309,0.01045384,-0.0
 0818132,0.01017428,-0.00036871,-0.00265736,-0.00030827,0.00062370,0.00
 114219,-0.00090233,0.00009967,-0.14610485,0.19594279,0.00008314,-0.000
 09492,-0.00132104,0.00015650,0.00052024,0.00417944,-0.00142579,0.00109
 708,0.00178834,-0.00984839,0.01046219,-0.03706942,0.00028989,-0.000092
 11,0.00538028,0.00005486,0.00060696,0.01014664,-0.00007115,0.00008711,
 0.00054414,0.01070453,-0.01186449,0.02545149,-0.00409504,0.00207444,-0
 .00019977,-0.00026454,0.00039164,-0.00001757,-0.00526586,-0.00017052,-
 0.00011529,-0.00191028,-0.02964884,0.00177406,-0.07500089,-0.06860383,
 0.00387052,0.00965986,0.02321427,-0.00137871,0.00007463,-0.00007187,0.
 00001145,0.00100998,0.00032272,0.00003797,0.07340956,0.00369209,-0.000
 88256,0.00033449,0.00014533,0.00035583,-0.00008279,-0.00092675,0.00157
 479,0.00044589,0.00070564,-0.00280563,0.00044203,-0.06833856,-0.321368
 48,0.01710644,-0.00934822,-0.01706867,0.00119577,-0.00008721,-0.000097
 07,-0.00003908,-0.00032592,0.00075514,-0.00039016,0.07500595,0.3381787
 9,-0.00029958,0.00032010,0.00398688,-0.00000236,-0.00008059,-0.0010020
 4,-0.00006867,0.00045248,0.00890775,-0.00009810,0.00017342,0.00424879,
 0.00385381,0.01710408,-0.03524684,0.00063001,0.00148410,0.00357580,0.0
 0001240,-0.00003893,-0.00071561,0.00007807,-0.00038446,-0.00549889,-0.
 00418610,-0.01873485,0.02479492,-0.07069761,-0.05696286,0.00273393,0.0
 1871824,-0.00586596,0.00050703,-0.01079339,-0.00212168,0.00003611,0.01
 184059,0.01304986,-0.00073500,-0.08006575,0.01374007,-0.00167817,-0.47
 387995,-0.07989354,0.00120903,-0.00162002,-0.00074801,0.00004131,-0.00
 210348,-0.00011269,-0.00000048,0.00214225,-0.00011558,0.00005182,0.595
 93915,-0.04360380,-0.03427317,0.00277884,-0.00015840,-0.00752056,0.000
 60581,-0.00039909,-0.00400990,0.00024091,0.00517986,-0.00391419,0.0005
 3036,0.02596651,0.02344666,-0.00037805,-0.07642954,-0.10640064,0.00250
 389,-0.00229512,-0.00027089,-0.00006931,0.00147282,0.00062881,-0.00010
 282,-0.00296698,0.00271746,-0.00037321,0.11744499,0.11919937,0.0019105
 7,0.00266050,0.01691656,0.00015509,0.00055511,0.00229237,-0.00007069,0
 .00022536,-0.00006300,-0.00024935,0.00060031,0.00390241,-0.00243198,-0
 .00048651,0.01359142,0.00099500,0.00247325,-0.05494632,0.00013658,-0.0
 0005563,-0.00106078,-0.00009840,-0.00011684,-0.00124281,0.00022777,-0.
 00034798,-0.00288405,-0.00221178,-0.00452619,0.02916657,-0.05889785,-0
 .00428880,-0.00024916,0.00380736,0.00319242,-0.00020168,-0.00234901,0.
 00160016,-0.00013327,-0.00033846,-0.00023515,0.00001000,-0.00240437,-0
 .00065283,0.00001273,0.00040355,-0.00206499,0.00012755,-0.00001249,-0.
 00017573,0.00001405,-0.00002307,-0.00007188,0.00000554,0.00041599,-0.0
 0020271,0.00001745,-0.00331724,0.00109817,-0.00003898,0.35631483,0.017
 66779,0.02692853,-0.00156264,0.01074329,-0.00644675,0.00076056,-0.0009
 3135,0.00602696,-0.00028418,-0.00175357,-0.00148985,0.00008679,-0.0023
 4472,0.00036108,0.00000024,0.01431780,-0.00801773,0.00064466,-0.000202
 62,-0.00028945,-0.00000704,-0.00026986,-0.00012342,-0.00000377,0.00024
 775,0.00005729,-0.00001015,-0.00701868,0.01222844,-0.00122043,0.164396
 53,0.15415077,-0.00160300,-0.00175730,-0.00085782,-0.00066727,0.000693
 66,0.00429489,0.00002295,-0.00026176,0.00156869,0.00010362,0.00010024,
 0.00016382,0.00011703,0.00001519,0.00070239,-0.00088271,0.00049955,0.0
 0033951,0.00001570,-0.00000682,-0.00037420,0.00001773,-0.00000203,-0.0
 0014563,-0.00001033,-0.00001414,-0.00014200,0.00046154,-0.00114855,-0.
 00647994,-0.00715451,-0.00682368,0.02021398,-0.23276010,0.14264306,-0.
 01048263,-0.06381106,0.04104472,-0.00314291,0.00575442,-0.01814209,0.0
 0112193,0.00026349,0.00351810,-0.00020635,0.00445101,-0.00541382,0.000
 34893,-0.01407008,0.02187312,-0.00157490,0.00264114,0.00001409,0.00005
 705,0.00004292,0.00033446,-0.00001840,0.00000936,-0.00023843,0.0000120
 6,0.01489085,-0.02495095,0.00166478,-0.29362721,-0.19484269,0.00957304
 ,0.57796907,0.09435204,-0.22493897,0.01208979,0.00328443,0.01744260,-0
 .00072373,-0.00532754,-0.00205840,0.00041269,0.00317012,0.00076166,-0.
 00007631,-0.00781756,-0.00335501,0.00030722,0.03134002,-0.05451754,0.0
 0434436,0.00125253,0.00107782,-0.00029559,0.00036367,0.00017785,-0.000
 02106,0.00161476,-0.00111868,0.00010264,0.00813157,-0.00261860,0.00027
 394,-0.16274643,-0.18290920,0.00871230,0.03269348,0.45121851,-0.007505
 24,0.01251812,-0.04328129,-0.00081400,-0.00038943,0.00525044,0.0003316
 4,0.00029944,0.00538419,-0.00018503,-0.00007318,-0.00092650,0.00049725
 ,0.00032848,0.00273320,-0.00215875,0.00426050,0.01114680,-0.00001933,-
 0.00030658,-0.00387655,-0.00002012,-0.00002139,-0.00021577,-0.00010225
 ,0.00008622,0.00030749,-0.00037519,-0.00001936,0.00065197,0.00759399,0
 .00842774,-0.01867814,0.00275269,-0.02506703,0.04157969,0.00252025,0.0
 0225138,-0.00019112,-0.02997910,-0.00336117,-0.00013438,-0.20186942,-0
 .02793095,0.00053511,-0.01232632,-0.01044729,0.00050527,0.00440702,0.0
 0123199,-0.00006397,-0.00247449,0.00075832,-0.00005759,0.00138804,-0.0
 0165296,0.00015369,0.00069159,0.00114986,-0.00005434,0.00026791,0.0001
 8170,-0.00000787,0.00102008,0.00003728,0.00000470,0.00002109,0.0000562
 0,0.00000326,-0.00091724,-0.00037621,0.00001630,0.47943822,0.00067032,
 -0.00333078,0.00072995,0.02216017,0.00895049,0.00017059,-0.03667761,-0
 .09696504,0.00145594,-0.03587404,-0.00769454,0.00036224,0.00070478,-0.
 00589737,0.00055847,-0.00028697,-0.00102078,-0.00001680,0.00153734,0.0
 0054249,-0.00029440,-0.00068756,0.00142717,-0.00016717,-0.00134261,-0.
 00026405,-0.00000249,0.00080269,0.00071470,-0.00002289,0.00008092,-0.0
 0026081,-0.00002863,0.00178607,0.00053231,-0.00002551,-0.01196683,0.58
 101927,-0.00009311,0.00074345,0.00835769,-0.00170795,-0.00005615,0.008
 51123,0.00107560,0.00153416,-0.06815533,0.00207344,0.00058808,0.003328
 00,-0.00003132,0.00056353,0.00302394,0.00000698,-0.00000737,-0.0012509
 7,-0.00004314,-0.00032250,-0.00443030,0.00005905,-0.00015107,-0.001175
 79,0.00008621,0.00001096,-0.00011263,-0.00004272,-0.00002972,0.0002295
 8,0.00000176,-0.00002884,-0.00073417,-0.00011711,-0.00004455,-0.000135
 60,0.00035930,-0.00378600,0.52153816,0.00002565,0.00001792,0.00000052,
 0.00164753,-0.00160032,0.00011564,-0.00338894,-0.03361391,0.00205999,-
 0.00651897,0.00000373,-0.00007402,0.00031699,-0.00155520,0.00009522,0.
 00031225,-0.00021073,0.00001570,-0.00033023,0.00096245,-0.00006558,0.0
 0002989,-0.00009141,0.00000815,-0.00044474,-0.00009012,0.00000355,-0.0
 0015418,0.00023257,-0.00001575,-0.00000631,-0.00010561,0.00000623,0.00
 008474,0.00018090,-0.00000992,-0.05167013,-0.02671883,0.00160799,0.057
 45702,0.00003632,0.00017820,-0.00002061,0.00195189,0.00072107,-0.00004
 420,0.00020764,-0.00730302,0.00034641,-0.00183262,0.00063670,0.0000555
 2,0.00032459,-0.00017488,0.00003754,0.00021072,-0.00007523,0.00000700,
 -0.00036626,0.00077985,-0.00002815,0.00010949,0.00036700,-0.00003714,-
 0.00015016,-0.00002564,-0.00001308,-0.00018125,0.00014069,-0.00001007,
 0.00002758,-0.00007726,0.00000660,-0.00020078,0.00021716,-0.00001856,-
 0.03174681,-0.31019256,0.01596629,0.03342450,0.33574564,-0.00000061,-0
 .00002067,-0.00015862,-0.00010330,-0.00007553,-0.00027005,-0.00002810,
 0.00004535,-0.00172204,0.00003919,0.00007164,0.00179315,-0.00002078,0.
 00002083,0.00038619,-0.00001028,0.00000322,0.00000784,0.00001639,-0.00
 001649,0.00037555,-0.00000427,-0.00003890,-0.00024857,0.00000722,-0.00
 001254,-0.00021514,0.00000979,-0.00000641,0.00000382,-0.00000199,0.000
 00542,0.00002528,0.00001365,-0.00001520,-0.00005389,0.00191847,0.01601
 110,-0.04792451,-0.00195384,-0.01764040,0.04622035,-0.00036845,0.00014
 240,-0.00150344,-0.00256298,-0.00245919,-0.00013645,-0.01943627,0.0133
 3046,0.02380433,0.00179490,0.00180795,-0.00122802,-0.00095777,0.000090
 59,-0.00053801,0.00101379,0.00039105,0.00023240,-0.00000028,0.00004929
 ,0.00067870,0.00029290,-0.00052586,0.00045329,-0.00000531,-0.00002257,
 0.00010077,-0.00096207,-0.00031965,-0.00005846,0.00000567,0.00002860,0
 .00013731,-0.00046080,-0.00005875,-0.00001425,-0.09696255,0.04957552,0
 .09495972,0.00136783,-0.00114661,-0.00374736,0.11027986,0.00019829,-0.
 00012231,-0.00004766,-0.00020212,-0.00019165,-0.00008282,-0.00172364,0
 .00390036,0.00762162,-0.00141055,-0.00031063,-0.00015688,0.00089642,0.
 00032116,0.00004802,-0.00026323,0.00044231,0.00008793,-0.00008584,0.00
 026233,-0.00027621,0.00008968,-0.00025995,-0.00012553,0.00004382,-0.00
 000189,0.00003047,-0.00005248,-0.00003228,-0.00010607,0.00001907,-0.00
 006926,0.00002422,-0.00005756,0.00004417,-0.00000224,0.04745062,-0.093
 49238,-0.08536230,0.01471718,-0.01206319,-0.02546568,-0.05424637,0.097
 04658,-0.00014900,0.00011638,-0.00034729,-0.00052784,0.00039762,-0.000
 66427,-0.00047326,0.00176533,0.00237155,-0.00022425,-0.00075501,0.0010
 8140,0.00043586,0.00027499,0.00006070,-0.00049633,-0.00009829,0.000016
 49,-0.00005858,0.00002941,0.00012639,0.00012006,0.00038095,-0.00029757
 ,0.00003695,0.00000823,-0.00000336,0.00033704,0.00013127,-0.00003829,-
 0.00003656,-0.00000823,0.00005256,0.00002515,0.00000177,0.00005715,0.0
 9315204,-0.08620103,-0.19912288,-0.00251278,0.00125975,0.00243697,-0.1
 0201696,0.09497366,0.21660641,-0.00039729,0.00032795,0.00147358,-0.002
 57624,-0.00241769,0.00040320,-0.01900379,0.01030719,-0.02565419,0.0017
 6926,0.00193076,0.00101056,-0.00095832,0.00016008,0.00050422,0.0010091
 1,0.00035929,-0.00026107,0.00001063,-0.00003387,-0.00068154,0.00030235
 ,-0.00056999,-0.00037528,-0.00000286,-0.00003464,-0.00009729,-0.000957
 45,-0.00030867,0.00008088,0.00000753,0.00001114,-0.00014059,-0.0004604
 9,-0.00005703,0.00001221,-0.09355495,0.03623662,-0.09819469,0.00127160
 ,-0.00066824,0.00386582,0.00696152,-0.00537331,0.01238847,0.10657938,0
 .00021415,-0.00013375,0.00002656,-0.00013816,-0.00024004,0.00002768,-0
 .00154045,0.00274128,-0.00772230,-0.00137556,-0.00017791,0.00028989,0.
 00083598,0.00027886,-0.00005942,-0.00019706,0.00043743,-0.00014381,-0.
 00008275,0.00029019,0.00025381,0.00007267,-0.00029227,0.00012561,0.000
 03946,-0.00000664,-0.00002951,-0.00009642,-0.00003591,0.00010412,0.000
 02366,-0.00006934,-0.00000885,-0.00006077,0.00004432,0.00000278,0.0343
 6486,-0.07406813,0.07038201,0.01444687,-0.00887452,0.02713426,-0.00663
 687,0.00452662,-0.01227680,-0.03986960,0.07557982,0.00012209,-0.000136
 98,-0.00030731,0.00051488,-0.00049287,-0.00060194,0.00028303,-0.001626
 79,0.00309779,0.00040941,0.00094581,0.00097400,-0.00056128,-0.00029968
 ,0.00010340,0.00054244,0.00005315,0.00002632,0.00006720,-0.00005029,0.
 00008747,-0.00011968,-0.00039190,-0.00027484,-0.00004213,-0.00000849,-
 0.00000107,-0.00034427,-0.00013746,-0.00003950,0.00003310,0.00002356,0
 .00005079,-0.00002697,-0.00000124,0.00005681,-0.09613886,0.07125663,-0
 .22194643,0.00071890,0.00013310,-0.00065633,-0.01112356,0.00883947,-0.
 02233595,0.10566570,-0.07810604,0.24176678\\0.00000583,-0.00000031,-0.
 00000073,-0.00001038,0.00000254,0.,0.00000165,-0.00000573,0.00000021,0
 .00000604,0.00000237,0.00000240,-0.00000572,0.00000033,-0.00000059,0.0
 0000427,0.00000079,-0.00000044,0.00000194,-0.00000051,0.00000024,-0.00
 000040,-0.00000006,-0.00000099,0.00000124,-0.00000051,-0.00000029,-0.0
 0000168,-0.00000107,0.00000067,0.00000031,0.00000176,0.,-0.00000392,-0
 .00000219,-0.00000012,0.00000357,0.00000268,0.00000170,-0.00000092,-0.
 00000026,-0.00000057,-0.00000063,0.00000004,-0.00000058,-0.00000119,0.
 00000013,-0.00000092\\\@
 The archive entry for this job was punched.


 A MATHEMATICIAN IS A MACHINE FOR TURNING COFFEE INTO THEOREMS.
     -- QUOTED BY PAUL ERDOS
 Job cpu time:       0 days  0 hours 29 minutes 18.4 seconds.
 Elapsed time:       0 days  0 hours  1 minutes 28.9 seconds.
 File lengths (MBytes):  RWF=    143 Int=      0 D2E=      0 Chk=      6 Scr=      1
 Normal termination of Gaussian 16 at Thu Sep  8 11:42:49 2022.
