 Entering Link 1 = D:\Gaussian\G16W\l1.exe PID=     58304.
  
 Copyright (c) 1988,1990,1992,1993,1995,1998,2003,2009,2016,
            Gaussian, Inc.  All Rights Reserved.
  
 This is part of the Gaussian(R) 16 program.  It is based on
 the Gaussian(R) 09 system (copyright 2009, Gaussian, Inc.),
 the Gaussian(R) 03 system (copyright 2003, Gaussian, Inc.),
 the Gaussian(R) 98 system (copyright 1998, Gaussian, Inc.),
 the Gaussian(R) 94 system (copyright 1995, Gaussian, Inc.),
 the Gaussian 92(TM) system (copyright 1992, Gaussian, Inc.),
 the Gaussian 90(TM) system (copyright 1990, Gaussian, Inc.),
 the Gaussian 88(TM) system (copyright 1988, Gaussian, Inc.),
 the Gaussian 86(TM) system (copyright 1986, Carnegie Mellon
 University), and the Gaussian 82(TM) system (copyright 1983,
 Carnegie Mellon University). Gaussian is a federally registered
 trademark of Gaussian, Inc.
  
 This software contains proprietary and confidential information,
 including trade secrets, belonging to Gaussian, Inc.
  
 This software is provided under written license and may be
 used, copied, transmitted, or stored only in accord with that
 written license.
  
 The following legend is applicable only to US Government
 contracts under FAR:
  
                    RESTRICTED RIGHTS LEGEND
  
 Use, reproduction and disclosure by the US Government is
 subject to restrictions as set forth in subparagraphs (a)
 and (c) of the Commercial Computer Software - Restricted
 Rights clause in FAR 52.227-19.
  
 Gaussian, Inc.
 340 Quinnipiac St., Bldg. 40, Wallingford CT 06492
  
  
 ---------------------------------------------------------------
 Warning -- This program may not be used in any manner that
 competes with the business of Gaussian, Inc. or will provide
 assistance to any competitor of Gaussian, Inc.  The licensee
 of this program is prohibited from giving any competitor of
 Gaussian, Inc. access to this program.  By using this program,
 the user acknowledges that Gaussian, Inc. is engaged in the
 business of creating and licensing software in the field of
 computational chemistry and represents and warrants to the
 licensee that it is not a competitor of Gaussian, Inc. and that
 it will not use this program in any manner prohibited above.
 ---------------------------------------------------------------
  

 Cite this work as:
 Gaussian 16, Revision A.03,
 M. J. Frisch, G. W. Trucks, H. B. Schlegel, G. E. Scuseria, 
 M. A. Robb, J. R. Cheeseman, G. Scalmani, V. Barone, 
 G. A. Petersson, H. Nakatsuji, X. Li, M. Caricato, A. V. Marenich, 
 J. Bloino, B. G. Janesko, R. Gomperts, B. Mennucci, H. P. Hratchian, 
 J. V. Ortiz, A. F. Izmaylov, J. L. Sonnenberg, D. Williams-Young, 
 F. Ding, F. Lipparini, F. Egidi, J. Goings, B. Peng, A. Petrone, 
 T. Henderson, D. Ranasinghe, V. G. Zakrzewski, J. Gao, N. Rega, 
 G. Zheng, W. Liang, M. Hada, M. Ehara, K. Toyota, R. Fukuda, 
 J. Hasegawa, M. Ishida, T. Nakajima, Y. Honda, O. Kitao, H. Nakai, 
 T. Vreven, K. Throssell, J. A. Montgomery, Jr., J. E. Peralta, 
 F. Ogliaro, M. J. Bearpark, J. J. Heyd, E. N. Brothers, K. N. Kudin, 
 V. N. Staroverov, T. A. Keith, R. Kobayashi, J. Normand, 
 K. Raghavachari, A. P. Rendell, J. C. Burant, S. S. Iyengar, 
 J. Tomasi, M. Cossi, J. M. Millam, M. Klene, C. Adamo, R. Cammi, 
 J. W. Ochterski, R. L. Martin, K. Morokuma, O. Farkas, 
 J. B. Foresman, and D. J. Fox, Gaussian, Inc., Wallingford CT, 2016.
 
 ******************************************
 Gaussian 16:  EM64W-G16RevA.03 17-Dec-2016
                08-Dec-2025 
 ******************************************
 %nprocs=   4
 Will use up to    4 processors via shared memory.
 ------------------------------------
 #P B3LYP/6-31G* SCF=conver=7 out=wfn
 ------------------------------------
 1/38=1,172=1/1;
 2/12=2,17=6,18=5,40=1/2;
 3/5=1,6=6,7=1,11=2,25=1,30=1,74=-5/1,2,3;
 4//1;
 5/5=2,6=7,38=5/2;
 6/7=2,8=2,9=2,10=2,28=1/1;
 99/5=1,6=100,9=1/99;
 Leave Link    1 at Mon Dec 08 16:41:34 2025, MaxMem=           0 cpu:               0.0 elap:               0.1
 (Enter D:\Gaussian\G16W\l101.exe)
 ----------------------------------------------------
 Generated by Multiwfn (http://sobereva.com/multiwfn)
 ----------------------------------------------------
 Symbolic Z-matrix:
 Charge = -1 Multiplicity = 1
 C                    -0.77643  -0.77392   0. 
 C                     0.57187  -1.10038  -0.00001 
 C                     1.5275   -0.08436  -0.00001 
 C                     1.10878   1.28093  -0.00001 
 C                    -0.2135    1.63228   0.00001 
 C                    -1.2345    0.61812   0. 
 H                     0.86525  -2.14375  -0.00002 
 H                     1.87108   2.05331   0.00001 
 H                    -0.53516   2.66673   0.00002 
 O                    -2.47057   0.82288  -0.00001 
 H                    -2.5697   -1.17454   0.00001 
 O                    -1.73812  -1.69551   0.00001 
 C                     2.9968   -0.40405   0.00001 
 H                     3.17567  -1.47992  -0.00005 
 H                     3.48962   0.02383  -0.87948 
 H                     3.48956   0.02371   0.87958 
 
 ITRead=  0  0  0  0  0  0  0  0  0  0  0  0  0  0  0  0
 MicOpt= -1 -1 -1 -1 -1 -1 -1 -1 -1 -1 -1 -1 -1 -1 -1 -1
 NAtoms=     16 NQM=       16 NQMF=       0 NMMI=      0 NMMIF=      0
                NMic=       0 NMicF=      0.
                    Isotopes and Nuclear Properties:
 (Nuclear quadrupole moments (NQMom) in fm**2, nuclear magnetic moments (NMagM)
  in nuclear magnetons)

  Atom         1           2           3           4           5           6           7           8           9          10
 IAtWgt=          12          12          12          12          12          12           1           1           1          16
 AtmWgt=  12.0000000  12.0000000  12.0000000  12.0000000  12.0000000  12.0000000   1.0078250   1.0078250   1.0078250  15.9949146
 NucSpn=           0           0           0           0           0           0           1           1           1           0
 AtZEff=   0.0000000   0.0000000   0.0000000   0.0000000   0.0000000   0.0000000   0.0000000   0.0000000   0.0000000   0.0000000
 NQMom=    0.0000000   0.0000000   0.0000000   0.0000000   0.0000000   0.0000000   0.0000000   0.0000000   0.0000000   0.0000000
 NMagM=    0.0000000   0.0000000   0.0000000   0.0000000   0.0000000   0.0000000   2.7928460   2.7928460   2.7928460   0.0000000
 AtZNuc=   6.0000000   6.0000000   6.0000000   6.0000000   6.0000000   6.0000000   1.0000000   1.0000000   1.0000000   8.0000000

  Atom        11          12          13          14          15          16
 IAtWgt=           1          16          12           1           1           1
 AtmWgt=   1.0078250  15.9949146  12.0000000   1.0078250   1.0078250   1.0078250
 NucSpn=           1           0           0           1           1           1
 AtZEff=   0.0000000   0.0000000   0.0000000   0.0000000   0.0000000   0.0000000
 NQMom=    0.0000000   0.0000000   0.0000000   0.0000000   0.0000000   0.0000000
 NMagM=    2.7928460   0.0000000   0.0000000   2.7928460   2.7928460   2.7928460
 AtZNuc=   1.0000000   8.0000000   6.0000000   1.0000000   1.0000000   1.0000000
 Leave Link  101 at Mon Dec 08 16:41:34 2025, MaxMem=   104857600 cpu:               0.0 elap:               0.1
 (Enter D:\Gaussian\G16W\l202.exe)
                          Input orientation:                          
 ---------------------------------------------------------------------
 Center     Atomic      Atomic             Coordinates (Angstroms)
 Number     Number       Type             X           Y           Z
 ---------------------------------------------------------------------
      1          6           0       -0.776426   -0.773917    0.000003
      2          6           0        0.571874   -1.100380   -0.000011
      3          6           0        1.527500   -0.084360   -0.000012
      4          6           0        1.108781    1.280927   -0.000009
      5          6           0       -0.213504    1.632275    0.000007
      6          6           0       -1.234501    0.618117    0.000002
      7          1           0        0.865248   -2.143745   -0.000018
      8          1           0        1.871083    2.053310    0.000013
      9          1           0       -0.535164    2.666732    0.000024
     10          8           0       -2.470566    0.822879   -0.000007
     11          1           0       -2.569704   -1.174539    0.000005
     12          8           0       -1.738116   -1.695511    0.000009
     13          6           0        2.996800   -0.404049    0.000005
     14          1           0        3.175674   -1.479919   -0.000052
     15          1           0        3.489619    0.023827   -0.879477
     16          1           0        3.489562    0.023709    0.879581
 ---------------------------------------------------------------------
                    Distance matrix (angstroms):
                    1          2          3          4          5
     1  C    0.000000
     2  C    1.387260   0.000000
     3  C    2.404904   1.394818   0.000000
     4  C    2.788618   2.441084   1.428053   0.000000
     5  C    2.471162   2.843277   2.444981   1.368168   0.000000
     6  C    1.465466   2.493235   2.849934   2.435218   1.439080
     7  H    2.138112   1.083826   2.163249   3.433320   3.927090
     8  H    3.873308   3.410822   2.165106   1.085210   2.126681
     9  H    3.449097   3.926406   3.438472   2.150119   1.083313
    10  O    2.328061   3.599356   4.099709   3.608536   2.397801
    11  H    1.837483   3.142453   4.239761   4.422733   3.664681
    12  O    1.331985   2.385421   3.641436   4.118738   3.660410
    13  C    3.791311   2.522923   1.503677   2.530565   3.801666
    14  H    4.014665   2.631316   2.159644   3.448814   4.601334
    15  H    4.428207   3.248159   2.152922   2.832341   4.132035
    16  H    4.428151   3.248101   2.152917   2.832383   4.132049
                    6          7          8          9         10
     6  C    0.000000
     7  H    3.469413   0.000000
     8  H    3.421174   4.315898   0.000000
     9  H    2.164693   5.010174   2.483206   0.000000
    10  O    1.252910   4.464136   4.512635   2.673121   0.000000
    11  H    2.235259   3.569069   5.489954   4.346805   1.999877
    12  O    2.367805   2.641670   5.203842   4.525070   2.622741
    13  C    4.353014   2.751373   2.702934   4.680221   5.603342
    14  H    4.883789   2.403900   3.766386   5.564623   6.097779
    15  H    4.841898   3.515557   2.740796   4.894624   6.077479
    16  H    4.841875   3.515477   2.740875   4.894651   6.077456
                   11         12         13         14         15
    11  H    0.000000
    12  O    0.981300   0.000000
    13  C    5.619575   4.907882   0.000000
    14  H    5.753488   4.918517   1.090638   0.000000
    15  H    6.238987   5.573045   1.095188   1.770085   0.000000
    16  H    6.238923   5.572969   1.095192   1.770078   1.759058
                   16
    16  H    0.000000
 Stoichiometry    C7H7O2(1-)
 Framework group  C1[X(C7H7O2)]
 Deg. of freedom    42
 Full point group                 C1      NOp   1
 Largest Abelian subgroup         C1      NOp   1
 Largest concise Abelian subgroup C1      NOp   1
                         Standard orientation:                         
 ---------------------------------------------------------------------
 Center     Atomic      Atomic             Coordinates (Angstroms)
 Number     Number       Type             X           Y           Z
 ---------------------------------------------------------------------
      1          6           0       -0.776426   -0.773917    0.000003
      2          6           0        0.571874   -1.100380   -0.000011
      3          6           0        1.527500   -0.084360   -0.000012
      4          6           0        1.108781    1.280927   -0.000009
      5          6           0       -0.213504    1.632275    0.000007
      6          6           0       -1.234501    0.618117    0.000002
      7          1           0        0.865248   -2.143745   -0.000018
      8          1           0        1.871083    2.053310    0.000013
      9          1           0       -0.535164    2.666732    0.000024
     10          8           0       -2.470566    0.822879   -0.000007
     11          1           0       -2.569704   -1.174539    0.000005
     12          8           0       -1.738116   -1.695511    0.000009
     13          6           0        2.996800   -0.404049    0.000005
     14          1           0        3.175674   -1.479919   -0.000052
     15          1           0        3.489619    0.023827   -0.879477
     16          1           0        3.489562    0.023709    0.879581
 ---------------------------------------------------------------------
 Rotational constants (GHZ):           3.1981639           1.3541757           0.9569695
 Leave Link  202 at Mon Dec 08 16:41:35 2025, MaxMem=   104857600 cpu:               1.0 elap:               0.0
 (Enter D:\Gaussian\G16W\l301.exe)
 Standard basis: 6-31G(d) (6D, 7F)
 Ernie: Thresh=  0.10000D-02 Tol=  0.10000D-05 Strict=F.
 There are   149 symmetry adapted cartesian basis functions of A   symmetry.
 There are   149 symmetry adapted basis functions of A   symmetry.
   149 basis functions,   280 primitive gaussians,   149 cartesian basis functions
    33 alpha electrons       33 beta electrons
       nuclear repulsion energy       417.7750601576 Hartrees.
 IExCor=  402 DFT=T Ex+Corr=B3LYP ExCW=0 ScaHFX=  0.200000
 ScaDFX=  0.800000  0.720000  1.000000  0.810000 ScalE2=  1.000000  1.000000
 IRadAn=      5 IRanWt=     -1 IRanGd=            0 ICorTp=0 IEmpDi=  4
 NAtoms=   16 NActive=   16 NUniq=   16 SFac= 1.00D+00 NAtFMM=   60 NAOKFM=F Big=F
 Integral buffers will be    131072 words long.
 Raffenetti 2 integral format.
 Two-electron integral symmetry is turned on.
 Leave Link  301 at Mon Dec 08 16:41:35 2025, MaxMem=   104857600 cpu:               0.0 elap:               0.1
 (Enter D:\Gaussian\G16W\l302.exe)
 NPDir=0 NMtPBC=     1 NCelOv=     1 NCel=       1 NClECP=     1 NCelD=      1
         NCelK=      1 NCelE2=     1 NClLst=     1 CellRange=     0.0.
 One-electron integrals computed using PRISM.
 One-electron integral symmetry used in STVInt
 NBasis=   149 RedAO= T EigKep=  4.54D-04  NBF=   149
 NBsUse=   149 1.00D-06 EigRej= -1.00D+00 NBFU=   149
 Precomputing XC quadrature grid using
 IXCGrd= 4 IRadAn=           5 IRanWt=          -1 IRanGd=           0 AccXCQ= 0.00D+00.
 Generated NRdTot=       0 NPtTot=           0 NUsed=           0 NTot=          32
 NSgBfM=   149   149   149   149   149 MxSgAt=    16 MxSgA2=    16.
 Leave Link  302 at Mon Dec 08 16:41:35 2025, MaxMem=   104857600 cpu:               0.0 elap:               0.3
 (Enter D:\Gaussian\G16W\l303.exe)
 DipDrv:  MaxL=1.
 Leave Link  303 at Mon Dec 08 16:41:35 2025, MaxMem=   104857600 cpu:               0.0 elap:               0.1
 (Enter D:\Gaussian\G16W\l401.exe)
 ExpMin= 1.61D-01 ExpMax= 5.48D+03 ExpMxC= 8.25D+02 IAcc=3 IRadAn=         5 AccDes= 0.00D+00
 Harris functional with IExCor=  402 and IRadAn=       5 diagonalized for initial guess.
 HarFok:  IExCor=  402 AccDes= 0.00D+00 IRadAn=         5 IDoV= 1 UseB2=F ITyADJ=14
 ICtDFT=  3500011 ScaDFX=  1.000000  1.000000  1.000000  1.000000
 FoFCou: FMM=F IPFlag=           0 FMFlag=      100000 FMFlg1=           0
         NFxFlg=           0 DoJE=T BraDBF=F KetDBF=T FulRan=T
         wScrn=  0.000000 ICntrl=       500 IOpCl=  0 I1Cent=   200000004 NGrid=           0
         NMat0=    1 NMatS0=      1 NMatT0=    0 NMatD0=    1 NMtDS0=    0 NMtDT0=    0
 Petite list used in FoFCou.
 Harris En= -421.657714149439    
 JPrj=0 DoOrth=F DoCkMO=F.
 Leave Link  401 at Mon Dec 08 16:41:36 2025, MaxMem=   104857600 cpu:               1.0 elap:               0.9
 (Enter D:\Gaussian\G16W\l502.exe)
 Keep R1 ints in memory in canonical form, NReq=66347889.
 FoFCou: FMM=F IPFlag=           0 FMFlag=           0 FMFlg1=           0
         NFxFlg=           0 DoJE=F BraDBF=F KetDBF=F FulRan=T
         wScrn=  0.000000 ICntrl=       600 IOpCl=  0 I1Cent=           0 NGrid=           0
         NMat0=    1 NMatS0=  11175 NMatT0=    0 NMatD0=    1 NMtDS0=    0 NMtDT0=    0
 Symmetry not used in FoFCou.
 Two-electron integral symmetry not used.
 Closed shell SCF:
 Using DIIS extrapolation, IDIIS=  1040.
 NGot=   104857600 LenX=    42364643 LenY=    42342001
 Requested convergence on RMS density matrix=1.00D-07 within 128 cycles.
 Requested convergence on MAX density matrix=1.00D-05.
 Requested convergence on             energy=1.00D-05.
 No special actions if energy rises.
 Integral accuracy reduced to 1.0D-05 until final iterations.

 Cycle   1  Pass 0  IDiag  1:
 E= -421.101364788104    
 DIIS: error= 4.27D-02 at cycle   1 NSaved=   1.
 NSaved= 1 IEnMin= 1 EnMin= -421.101364788104     IErMin= 1 ErrMin= 4.27D-02
 ErrMax= 4.27D-02  0.00D+00 EMaxC= 1.00D-01 BMatC= 3.26D-01 BMatP= 3.26D-01
 IDIUse=3 WtCom= 5.73D-01 WtEn= 4.27D-01
 Coeff-Com:  0.100D+01
 Coeff-En:   0.100D+01
 Coeff:      0.100D+01
 Gap=     0.166 Goal=   None    Shift=    0.000
 GapD=    0.166 DampG=1.000 DampE=0.500 DampFc=0.5000 IDamp=-1.
 Damping current iteration by 5.00D-01
 RMSDP=1.20D-02 MaxDP=2.30D-01              OVMax= 2.84D-01

 Cycle   2  Pass 0  IDiag  1:
 E= -421.231393980481     Delta-E=       -0.130029192377 Rises=F Damp=T
 DIIS: error= 1.02D-02 at cycle   2 NSaved=   2.
 NSaved= 2 IEnMin= 2 EnMin= -421.231393980481     IErMin= 2 ErrMin= 1.02D-02
 ErrMax= 1.02D-02  0.00D+00 EMaxC= 1.00D-01 BMatC= 2.59D-02 BMatP= 3.26D-01
 IDIUse=3 WtCom= 8.98D-01 WtEn= 1.02D-01
 Coeff-Com:  0.123D+00 0.877D+00
 Coeff-En:   0.187D+00 0.813D+00
 Coeff:      0.129D+00 0.871D+00
 Gap=     0.226 Goal=   None    Shift=    0.000
 RMSDP=3.37D-03 MaxDP=7.45D-02 DE=-1.30D-01 OVMax= 2.19D-01

 Cycle   3  Pass 0  IDiag  1:
 E= -421.393447052858     Delta-E=       -0.162053072377 Rises=F Damp=F
 DIIS: error= 1.37D-02 at cycle   3 NSaved=   3.
 NSaved= 3 IEnMin= 3 EnMin= -421.393447052858     IErMin= 2 ErrMin= 1.02D-02
 ErrMax= 1.37D-02  0.00D+00 EMaxC= 1.00D-01 BMatC= 3.98D-02 BMatP= 2.59D-02
 IDIUse=2 WtCom= 0.00D+00 WtEn= 1.00D+00
 Coeff-En:   0.000D+00 0.000D+00 0.100D+01
 Coeff:      0.000D+00 0.000D+00 0.100D+01
 Gap=     0.166 Goal=   None    Shift=    0.000
 RMSDP=5.36D-03 MaxDP=1.44D-01 DE=-1.62D-01 OVMax= 2.91D-01

 Cycle   4  Pass 0  IDiag  1:
 E= -421.228336362423     Delta-E=        0.165110690435 Rises=F Damp=F
 DIIS: error= 3.51D-02 at cycle   4 NSaved=   4.
 NSaved= 4 IEnMin= 3 EnMin= -421.393447052858     IErMin= 2 ErrMin= 1.02D-02
 ErrMax= 3.51D-02  0.00D+00 EMaxC= 1.00D-01 BMatC= 2.33D-01 BMatP= 2.59D-02
 IDIUse=2 WtCom= 0.00D+00 WtEn= 1.00D+00
 Coeff-En:   0.000D+00 0.000D+00 0.799D+00 0.201D+00
 Coeff:      0.000D+00 0.000D+00 0.799D+00 0.201D+00
 Gap=     0.168 Goal=   None    Shift=    0.000
 RMSDP=3.01D-03 MaxDP=7.75D-02 DE= 1.65D-01 OVMax= 1.52D-01

 Cycle   5  Pass 0  IDiag  1:
 E= -421.413337198859     Delta-E=       -0.185000836436 Rises=F Damp=F
 DIIS: error= 9.02D-03 at cycle   5 NSaved=   5.
 NSaved= 5 IEnMin= 5 EnMin= -421.413337198859     IErMin= 5 ErrMin= 9.02D-03
 ErrMax= 9.02D-03  0.00D+00 EMaxC= 1.00D-01 BMatC= 1.71D-02 BMatP= 2.59D-02
 IDIUse=3 WtCom= 9.10D-01 WtEn= 9.02D-02
 Coeff-Com:  0.434D-03 0.168D-01 0.366D+00-0.281D-01 0.645D+00
 Coeff-En:   0.000D+00 0.000D+00 0.342D+00 0.000D+00 0.658D+00
 Coeff:      0.395D-03 0.152D-01 0.364D+00-0.256D-01 0.646D+00
 Gap=     0.174 Goal=   None    Shift=    0.000
 RMSDP=1.02D-03 MaxDP=2.43D-02 DE=-1.85D-01 OVMax= 5.35D-02

 Cycle   6  Pass 0  IDiag  1:
 E= -421.427724293841     Delta-E=       -0.014387094982 Rises=F Damp=F
 DIIS: error= 1.02D-03 at cycle   6 NSaved=   6.
 NSaved= 6 IEnMin= 6 EnMin= -421.427724293841     IErMin= 6 ErrMin= 1.02D-03
 ErrMax= 1.02D-03  0.00D+00 EMaxC= 1.00D-01 BMatC= 2.66D-04 BMatP= 1.71D-02
 IDIUse=3 WtCom= 9.90D-01 WtEn= 1.02D-02
 Coeff-Com: -0.394D-02 0.123D-01 0.155D+00-0.561D-01 0.434D+00 0.459D+00
 Coeff-En:   0.000D+00 0.000D+00 0.000D+00 0.000D+00 0.000D+00 0.100D+01
 Coeff:     -0.390D-02 0.122D-01 0.154D+00-0.555D-01 0.429D+00 0.464D+00
 Gap=     0.173 Goal=   None    Shift=    0.000
 RMSDP=1.39D-04 MaxDP=3.67D-03 DE=-1.44D-02 OVMax= 9.06D-03

 Cycle   7  Pass 0  IDiag  1:
 E= -421.428007371962     Delta-E=       -0.000283078121 Rises=F Damp=F
 DIIS: error= 1.54D-04 at cycle   7 NSaved=   7.
 NSaved= 7 IEnMin= 7 EnMin= -421.428007371962     IErMin= 7 ErrMin= 1.54D-04
 ErrMax= 1.54D-04  0.00D+00 EMaxC= 1.00D-01 BMatC= 6.73D-06 BMatP= 2.66D-04
 IDIUse=3 WtCom= 9.98D-01 WtEn= 1.54D-03
 Coeff-Com: -0.120D-02 0.290D-02 0.486D-01-0.206D-01 0.140D+00 0.188D+00
 Coeff-Com:  0.642D+00
 Coeff-En:   0.000D+00 0.000D+00 0.000D+00 0.000D+00 0.000D+00 0.000D+00
 Coeff-En:   0.100D+01
 Coeff:     -0.120D-02 0.290D-02 0.485D-01-0.205D-01 0.140D+00 0.188D+00
 Coeff:      0.643D+00
 Gap=     0.173 Goal=   None    Shift=    0.000
 RMSDP=2.53D-05 MaxDP=5.37D-04 DE=-2.83D-04 OVMax= 1.71D-03

 Cycle   8  Pass 0  IDiag  1:
 E= -421.428012745161     Delta-E=       -0.000005373199 Rises=F Damp=F
 DIIS: error= 8.04D-05 at cycle   8 NSaved=   8.
 NSaved= 8 IEnMin= 8 EnMin= -421.428012745161     IErMin= 8 ErrMin= 8.04D-05
 ErrMax= 8.04D-05  0.00D+00 EMaxC= 1.00D-01 BMatC= 1.63D-06 BMatP= 6.73D-06
 IDIUse=1 WtCom= 1.00D+00 WtEn= 0.00D+00
 Coeff-Com: -0.109D-04-0.581D-03 0.102D-01-0.417D-02 0.251D-01 0.498D-01
 Coeff-Com:  0.401D+00 0.519D+00
 Coeff:     -0.109D-04-0.581D-03 0.102D-01-0.417D-02 0.251D-01 0.498D-01
 Coeff:      0.401D+00 0.519D+00
 Gap=     0.173 Goal=   None    Shift=    0.000
 RMSDP=1.09D-05 MaxDP=2.60D-04 DE=-5.37D-06 OVMax= 5.16D-04

 Cycle   9  Pass 0  IDiag  1:
 E= -421.428014275155     Delta-E=       -0.000001529994 Rises=F Damp=F
 DIIS: error= 1.96D-05 at cycle   9 NSaved=   9.
 NSaved= 9 IEnMin= 9 EnMin= -421.428014275155     IErMin= 9 ErrMin= 1.96D-05
 ErrMax= 1.96D-05  0.00D+00 EMaxC= 1.00D-01 BMatC= 6.82D-08 BMatP= 1.63D-06
 IDIUse=1 WtCom= 1.00D+00 WtEn= 0.00D+00
 Coeff-Com:  0.663D-04-0.381D-03 0.175D-02-0.950D-03 0.349D-02 0.137D-01
 Coeff-Com:  0.168D+00 0.268D+00 0.546D+00
 Coeff:      0.663D-04-0.381D-03 0.175D-02-0.950D-03 0.349D-02 0.137D-01
 Coeff:      0.168D+00 0.268D+00 0.546D+00
 Gap=     0.173 Goal=   None    Shift=    0.000
 RMSDP=2.72D-06 MaxDP=5.62D-05 DE=-1.53D-06 OVMax= 1.57D-04

 Initial convergence to 1.0D-05 achieved.  Increase integral accuracy.
 Cycle  10  Pass 1  IDiag  1:
 E= -421.428005132142     Delta-E=        0.000009143013 Rises=F Damp=F
 DIIS: error= 7.10D-06 at cycle   1 NSaved=   1.
 NSaved= 1 IEnMin= 1 EnMin= -421.428005132142     IErMin= 1 ErrMin= 7.10D-06
 ErrMax= 7.10D-06  0.00D+00 EMaxC= 1.00D-01 BMatC= 1.05D-08 BMatP= 1.05D-08
 IDIUse=1 WtCom= 1.00D+00 WtEn= 0.00D+00
 Coeff-Com:  0.100D+01
 Coeff:      0.100D+01
 Gap=     0.173 Goal=   None    Shift=    0.000
 RMSDP=2.72D-06 MaxDP=5.62D-05 DE= 9.14D-06 OVMax= 1.50D-04

 Cycle  11  Pass 1  IDiag  1:
 E= -421.428005113137     Delta-E=        0.000000019005 Rises=F Damp=F
 DIIS: error= 1.39D-05 at cycle   2 NSaved=   2.
 NSaved= 2 IEnMin= 1 EnMin= -421.428005132142     IErMin= 1 ErrMin= 7.10D-06
 ErrMax= 1.39D-05  0.00D+00 EMaxC= 1.00D-01 BMatC= 2.85D-08 BMatP= 1.05D-08
 IDIUse=1 WtCom= 1.00D+00 WtEn= 0.00D+00
 Coeff-Com:  0.632D+00 0.368D+00
 Coeff:      0.632D+00 0.368D+00
 Gap=     0.173 Goal=   None    Shift=    0.000
 RMSDP=1.59D-06 MaxDP=2.54D-05 DE= 1.90D-08 OVMax= 1.03D-04

 Cycle  12  Pass 1  IDiag  1:
 E= -421.428005144541     Delta-E=       -0.000000031404 Rises=F Damp=F
 DIIS: error= 1.93D-06 at cycle   3 NSaved=   3.
 NSaved= 3 IEnMin= 3 EnMin= -421.428005144541     IErMin= 3 ErrMin= 1.93D-06
 ErrMax= 1.93D-06  0.00D+00 EMaxC= 1.00D-01 BMatC= 9.47D-10 BMatP= 1.05D-08
 IDIUse=1 WtCom= 1.00D+00 WtEn= 0.00D+00
 Coeff-Com:  0.240D+00 0.185D+00 0.575D+00
 Coeff:      0.240D+00 0.185D+00 0.575D+00
 Gap=     0.173 Goal=   None    Shift=    0.000
 RMSDP=3.53D-07 MaxDP=9.30D-06 DE=-3.14D-08 OVMax= 2.23D-05

 Cycle  13  Pass 1  IDiag  1:
 E= -421.428005145212     Delta-E=       -0.000000000672 Rises=F Damp=F
 DIIS: error= 1.07D-06 at cycle   4 NSaved=   4.
 NSaved= 4 IEnMin= 4 EnMin= -421.428005145212     IErMin= 4 ErrMin= 1.07D-06
 ErrMax= 1.07D-06  0.00D+00 EMaxC= 1.00D-01 BMatC= 3.13D-10 BMatP= 9.47D-10
 IDIUse=1 WtCom= 1.00D+00 WtEn= 0.00D+00
 Coeff-Com: -0.121D-02 0.300D-01 0.384D+00 0.587D+00
 Coeff:     -0.121D-02 0.300D-01 0.384D+00 0.587D+00
 Gap=     0.173 Goal=   None    Shift=    0.000
 RMSDP=1.53D-07 MaxDP=4.08D-06 DE=-6.72D-10 OVMax= 6.61D-06

 Cycle  14  Pass 1  IDiag  1:
 E= -421.428005145431     Delta-E=       -0.000000000219 Rises=F Damp=F
 DIIS: error= 3.20D-07 at cycle   5 NSaved=   5.
 NSaved= 5 IEnMin= 5 EnMin= -421.428005145431     IErMin= 5 ErrMin= 3.20D-07
 ErrMax= 3.20D-07  0.00D+00 EMaxC= 1.00D-01 BMatC= 2.57D-11 BMatP= 3.13D-10
 IDIUse=1 WtCom= 1.00D+00 WtEn= 0.00D+00
 Coeff-Com: -0.111D-01 0.105D-01 0.203D+00 0.360D+00 0.438D+00
 Coeff:     -0.111D-01 0.105D-01 0.203D+00 0.360D+00 0.438D+00
 Gap=     0.173 Goal=   None    Shift=    0.000
 RMSDP=4.62D-08 MaxDP=1.20D-06 DE=-2.19D-10 OVMax= 2.61D-06

 SCF Done:  E(RB3LYP) =  -421.428005145     A.U. after   14 cycles
            NFock= 14  Conv=0.46D-07     -V/T= 2.0084
 KE= 4.179158386613D+02 PE=-1.831237848465D+03 EE= 5.741189445006D+02
 Leave Link  502 at Mon Dec 08 16:41:47 2025, MaxMem=   104857600 cpu:              11.0 elap:              11.0
 (Enter D:\Gaussian\G16W\l601.exe)
 Copying SCF densities to generalized density rwf, IOpCl= 0 IROHF=0.

 **********************************************************************

            Population analysis using the SCF density.

 **********************************************************************

 Orbital symmetries:
       Occupied  (A) (A) (A) (A) (A) (A) (A) (A) (A) (A) (A) (A)
                 (A) (A) (A) (A) (A) (A) (A) (A) (A) (A) (A) (A)
                 (A) (A) (A) (A) (A) (A) (A) (A) (A)
       Virtual   (A) (A) (A) (A) (A) (A) (A) (A) (A) (A) (A) (A)
                 (A) (A) (A) (A) (A) (A) (A) (A) (A) (A) (A) (A)
                 (A) (A) (A) (A) (A) (A) (A) (A) (A) (A) (A) (A)
                 (A) (A) (A) (A) (A) (A) (A) (A) (A) (A) (A) (A)
                 (A) (A) (A) (A) (A) (A) (A) (A) (A) (A) (A) (A)
                 (A) (A) (A) (A) (A) (A) (A) (A) (A) (A) (A) (A)
                 (A) (A) (A) (A) (A) (A) (A) (A) (A) (A) (A) (A)
                 (A) (A) (A) (A) (A) (A) (A) (A) (A) (A) (A) (A)
                 (A) (A) (A) (A) (A) (A) (A) (A) (A) (A) (A) (A)
                 (A) (A) (A) (A) (A) (A) (A) (A)
 The electronic state is 1-A.
 Alpha  occ. eigenvalues --  -18.98280 -18.88550 -10.03588 -10.03545 -10.03176
 Alpha  occ. eigenvalues --   -9.99946  -9.99872  -9.99732  -9.98206  -0.87841
 Alpha  occ. eigenvalues --   -0.78237  -0.65217  -0.57634  -0.55072  -0.47854
 Alpha  occ. eigenvalues --   -0.41291  -0.40428  -0.33339  -0.30205  -0.28386
 Alpha  occ. eigenvalues --   -0.26908  -0.25913  -0.23767  -0.22355  -0.20813
 Alpha  occ. eigenvalues --   -0.19681  -0.17682  -0.15361  -0.14989  -0.11542
 Alpha  occ. eigenvalues --   -0.04803  -0.03529   0.02904
 Alpha virt. eigenvalues --    0.20200   0.21595   0.24443   0.27667   0.28622
 Alpha virt. eigenvalues --    0.29545   0.31350   0.32970   0.34306   0.38133
 Alpha virt. eigenvalues --    0.39556   0.44393   0.46436   0.50999   0.52240
 Alpha virt. eigenvalues --    0.55129   0.56375   0.65447   0.67785   0.68575
 Alpha virt. eigenvalues --    0.71846   0.72332   0.72967   0.76029   0.78158
 Alpha virt. eigenvalues --    0.79396   0.79749   0.83115   0.85175   0.85976
 Alpha virt. eigenvalues --    0.86950   0.88774   0.90144   0.90697   0.92559
 Alpha virt. eigenvalues --    0.96485   0.96908   1.01191   1.02283   1.02331
 Alpha virt. eigenvalues --    1.05238   1.07269   1.09581   1.12302   1.13102
 Alpha virt. eigenvalues --    1.15139   1.15970   1.18202   1.23470   1.24907
 Alpha virt. eigenvalues --    1.28780   1.30559   1.33443   1.37460   1.43583
 Alpha virt. eigenvalues --    1.43695   1.44763   1.48841   1.55045   1.58067
 Alpha virt. eigenvalues --    1.58713   1.62425   1.63875   1.65125   1.68448
 Alpha virt. eigenvalues --    1.85603   1.90301   1.90622   1.94056   1.99276
 Alpha virt. eigenvalues --    2.00975   2.02342   2.05689   2.06527   2.07196
 Alpha virt. eigenvalues --    2.11580   2.11719   2.15325   2.15465   2.17358
 Alpha virt. eigenvalues --    2.24256   2.28241   2.28963   2.32507   2.33821
 Alpha virt. eigenvalues --    2.42811   2.50279   2.50520   2.50566   2.52600
 Alpha virt. eigenvalues --    2.55497   2.56071   2.63538   2.64999   2.77617
 Alpha virt. eigenvalues --    2.81249   2.83105   2.87435   2.90939   2.95569
 Alpha virt. eigenvalues --    3.00979   3.04798   3.09610   3.13600   3.24736
 Alpha virt. eigenvalues --    3.44003   3.58598   4.06449   4.27162   4.28636
 Alpha virt. eigenvalues --    4.37950   4.38355   4.49921   4.57825   4.75276
 Alpha virt. eigenvalues --    5.14314
          Condensed to atoms (all electrons):
               1          2          3          4          5          6
     1  C    4.977084   0.447583  -0.006703  -0.049495  -0.039988   0.342466
     2  C    0.447583   5.142227   0.527209  -0.028661  -0.046459  -0.015980
     3  C   -0.006703   0.527209   4.711845   0.547391  -0.021987  -0.037255
     4  C   -0.049495  -0.028661   0.547391   5.055860   0.450376  -0.003036
     5  C   -0.039988  -0.046459  -0.021987   0.450376   5.259372   0.433902
     6  C    0.342466  -0.015980  -0.037255  -0.003036   0.433902   4.542011
     7  H   -0.041817   0.315880  -0.052376   0.006951  -0.000332   0.005474
     8  H   -0.000027   0.006603  -0.060111   0.332717  -0.046922   0.004316
     9  H    0.008533   0.000279   0.005099  -0.054435   0.312941  -0.034082
    10  O   -0.091583   0.008109   0.000012   0.005800  -0.083693   0.467208
    11  H   -0.072416   0.009434   0.000057  -0.000319   0.003479  -0.011012
    12  O    0.273699  -0.054975   0.002798   0.000328   0.005298  -0.055108
    13  C    0.008606  -0.054518   0.333052  -0.075383   0.006831   0.000469
    14  H   -0.000064  -0.003571  -0.025266   0.003775  -0.000147  -0.000008
    15  H   -0.000112   0.000532  -0.034845  -0.003135   0.000133   0.000025
    16  H   -0.000112   0.000531  -0.034848  -0.003135   0.000133   0.000025
               7          8          9         10         11         12
     1  C   -0.041817  -0.000027   0.008533  -0.091583  -0.072416   0.273699
     2  C    0.315880   0.006603   0.000279   0.008109   0.009434  -0.054975
     3  C   -0.052376  -0.060111   0.005099   0.000012   0.000057   0.002798
     4  C    0.006951   0.332717  -0.054435   0.005800  -0.000319   0.000328
     5  C   -0.000332  -0.046922   0.312941  -0.083693   0.003479   0.005298
     6  C    0.005474   0.004316  -0.034082   0.467208  -0.011012  -0.055108
     7  H    0.725871  -0.000244   0.000030  -0.000091  -0.000838  -0.000771
     8  H   -0.000244   0.744174  -0.009351  -0.000090   0.000003   0.000003
     9  H    0.000030  -0.009351   0.724905   0.002728  -0.000136  -0.000058
    10  O   -0.000091  -0.000090   0.002728   8.352440   0.079190  -0.030979
    11  H   -0.000838   0.000003  -0.000136   0.079190   0.410024   0.204672
    12  O   -0.000771   0.000003  -0.000058  -0.030979   0.204672   8.342947
    13  C   -0.014814  -0.012099  -0.000224  -0.000001   0.000005  -0.000081
    14  H    0.008754   0.000016   0.000004   0.000000   0.000000  -0.000001
    15  H    0.000170   0.002963  -0.000002   0.000000   0.000000   0.000001
    16  H    0.000170   0.002962  -0.000002   0.000000   0.000000   0.000001
              13         14         15         16
     1  C    0.008606  -0.000064  -0.000112  -0.000112
     2  C   -0.054518  -0.003571   0.000532   0.000531
     3  C    0.333052  -0.025266  -0.034845  -0.034848
     4  C   -0.075383   0.003775  -0.003135  -0.003135
     5  C    0.006831  -0.000147   0.000133   0.000133
     6  C    0.000469  -0.000008   0.000025   0.000025
     7  H   -0.014814   0.008754   0.000170   0.000170
     8  H   -0.012099   0.000016   0.002963   0.002962
     9  H   -0.000224   0.000004  -0.000002  -0.000002
    10  O   -0.000001   0.000000   0.000000   0.000000
    11  H    0.000005   0.000000   0.000000   0.000000
    12  O   -0.000081  -0.000001   0.000001   0.000001
    13  C    5.275802   0.351060   0.350459   0.350458
    14  H    0.351060   0.618342  -0.032746  -0.032749
    15  H    0.350459  -0.032746   0.656961  -0.050928
    16  H    0.350458  -0.032749  -0.050928   0.656971
 Mulliken charges:
               1
     1  C    0.244344
     2  C   -0.254222
     3  C    0.145927
     4  C   -0.185599
     5  C   -0.232938
     6  C    0.360585
     7  H    0.047985
     8  H    0.035088
     9  H    0.043772
    10  O   -0.709049
    11  H    0.377857
    12  O   -0.687773
    13  C   -0.519624
    14  H    0.112600
    15  H    0.110524
    16  H    0.110523
 Sum of Mulliken charges =  -1.00000
 Mulliken charges with hydrogens summed into heavy atoms:
               1
     1  C    0.244344
     2  C   -0.206236
     3  C    0.145927
     4  C   -0.150511
     5  C   -0.189166
     6  C    0.360585
    10  O   -0.709049
    12  O   -0.309916
    13  C   -0.185978
 Electronic spatial extent (au):  <R**2>=           1208.1850
 Charge=             -1.0000 electrons
 Dipole moment (field-independent basis, Debye):
    X=              3.7619    Y=             -0.9970    Z=              0.0000  Tot=              3.8918
 Quadrupole moment (field-independent basis, Debye-Ang):
   XX=            -73.0028   YY=            -62.5926   ZZ=            -56.6859
   XY=              3.2932   XZ=              0.0000   YZ=              0.0001
 Traceless Quadrupole moment (field-independent basis, Debye-Ang):
   XX=             -8.9090   YY=              1.5012   ZZ=              7.4079
   XY=              3.2932   XZ=              0.0000   YZ=              0.0001
 Octapole moment (field-independent basis, Debye-Ang**2):
  XXX=             -3.8408  YYY=              0.4521  ZZZ=              0.0001  XYY=              5.6108
  XXY=            -15.0480  XXZ=              0.0000  XZZ=             -7.5572  YZZ=             -2.6710
  YYZ=              0.0000  XYZ=             -0.0001
 Hexadecapole moment (field-independent basis, Debye-Ang**3):
 XXXX=          -1195.1848 YYYY=           -501.5768 ZZZZ=            -63.0431 XXXY=             65.9225
 XXXZ=             -0.0012 YYYX=             -9.9642 YYYZ=              0.0005 ZZZX=              0.0003
 ZZZY=             -0.0001 XXYY=           -278.8154 XXZZ=           -188.7988 YYZZ=            -96.0537
 XXYZ=              0.0001 YYXZ=             -0.0001 ZZXY=              2.5859
 N-N= 4.177750601576D+02 E-N=-1.831237829268D+03  KE= 4.179158386613D+02
 No NMR shielding tensors so no spin-rotation constants.
 Leave Link  601 at Mon Dec 08 16:41:47 2025, MaxMem=   104857600 cpu:               0.0 elap:               0.2
 (Enter D:\Gaussian\G16W\l9999.exe)
 1|1|UNPC-PC-20250526LCFF|SP|RB3LYP|6-31G(d)|C7H7O2(1-)|ADMINISTRATOR|0
 8-Dec-2025|0||#P B3LYP/6-31G* SCF=conver=7 out=wfn||Generated by Multi
 wfn (http://sobereva.com/multiwfn)||-1,1|C,0,-0.776426,-0.773917,0.000
 003|C,0,0.571874,-1.10038,-0.000011|C,0,1.5275,-0.08436,-0.000012|C,0,
 1.108781,1.280927,-0.000009|C,0,-0.213504,1.632275,0.000007|C,0,-1.234
 501,0.618117,0.000002|H,0,0.865248,-2.143745,-0.000018|H,0,1.871083,2.
 05331,0.000013|H,0,-0.535164,2.666732,0.000024|O,0,-2.470566,0.822879,
 -0.000007|H,0,-2.569704,-1.174539,0.000005|O,0,-1.738116,-1.695511,0.0
 00009|C,0,2.9968,-0.404049,0.000005|H,0,3.175674,-1.479919,-0.000052|H
 ,0,3.489619,0.023827,-0.879477|H,0,3.489562,0.023709,0.879581||Version
 =EM64W-G16RevA.03|State=1-A|HF=-421.4280051|RMSD=4.619e-008|Dipole=1.4
 800585,-0.3922306,0.000014|Quadrupole=-6.6236492,1.1160909,5.5075584,2
 .4484261,-0.0000233,0.0000659|PG=C01 [X(C7H7O2)]||@

 Writing a WFN file to "N+1.wfn"


 I do not feel obliged to believe that the same God who
 has endowed us with sense, reason, and intellect has
 intended us to forgo their use.
                   --Galileo Galilei
 Job cpu time:       0 days  0 hours  0 minutes 13.0 seconds.
 Elapsed time:       0 days  0 hours  0 minutes 12.8 seconds.
 File lengths (MBytes):  RWF=     15 Int=      0 D2E=      0 Chk=      2 Scr=      1
 Normal termination of Gaussian 16 at Mon Dec 08 16:41:47 2025.
