 Generated by Multiwfn (http://sobereva.com/multiwfn)
GAUSSIAN             33 MOL ORBITALS    280 PRIMITIVES       16 NUCLEI
  C    1    (CENTRE  1)  -1.46723279 -1.46249096  0.00000561  CHARGE =  6.0
  C    2    (CENTRE  2)   1.08068489 -2.07941684 -0.00002085  CHARGE =  6.0
  C    3    (CENTRE  3)   2.88655647 -0.15941745 -0.00002273  CHARGE =  6.0
  C    4    (CENTRE  4)   2.09529245  2.42060112 -0.00001707  CHARGE =  6.0
  C    5    (CENTRE  5)  -0.40346400  3.08455283  0.00001317  CHARGE =  6.0
  C    6    (CENTRE  6)  -2.33286887  1.16807213  0.00000372  CHARGE =  6.0
  H    7    (CENTRE  7)   1.63508123 -4.05109098 -0.00003407  CHARGE =  1.0
  H    8    (CENTRE  8)   3.53583458  3.88019334  0.00002451  CHARGE =  1.0
  H    9    (CENTRE  9)  -1.01131314  5.03939330  0.00004530  CHARGE =  1.0
  O   10    (CENTRE 10)  -4.66869315  1.55501643 -0.00001329  CHARGE =  8.0
  H   11    (CENTRE 11)  -4.85603714 -2.21955653  0.00000939  CHARGE =  1.0
  O   12    (CENTRE 12)  -3.28456366 -3.20405106  0.00001695  CHARGE =  8.0
  C   13    (CENTRE 13)   5.66313101 -0.76354235  0.00000939  CHARGE =  6.0
  H   14    (CENTRE 14)   6.00115371 -2.79664202 -0.00009832  CHARGE =  1.0
  H   15    (CENTRE 15)   6.59442402  0.04502603 -1.66197072  CHARGE =  1.0
  H   16    (CENTRE 16)   6.59431630  0.04480304  1.66216714  CHARGE =  1.0
CENTRE ASSIGNMENTS    1  1  1  1  1  1  1  1  1  1  1  1  1  1  1  1  1  1  1  1
CENTRE ASSIGNMENTS    1  1  1  1  1  1  1  1  2  2  2  2  2  2  2  2  2  2  2  2
CENTRE ASSIGNMENTS    2  2  2  2  2  2  2  2  2  2  2  2  2  2  2  2  3  3  3  3
CENTRE ASSIGNMENTS    3  3  3  3  3  3  3  3  3  3  3  3  3  3  3  3  3  3  3  3
CENTRE ASSIGNMENTS    3  3  3  3  4  4  4  4  4  4  4  4  4  4  4  4  4  4  4  4
CENTRE ASSIGNMENTS    4  4  4  4  4  4  4  4  4  4  4  4  5  5  5  5  5  5  5  5
CENTRE ASSIGNMENTS    5  5  5  5  5  5  5  5  5  5  5  5  5  5  5  5  5  5  5  5
CENTRE ASSIGNMENTS    6  6  6  6  6  6  6  6  6  6  6  6  6  6  6  6  6  6  6  6
CENTRE ASSIGNMENTS    6  6  6  6  6  6  6  6  7  7  7  7  8  8  8  8  9  9  9  9
CENTRE ASSIGNMENTS   10 10 10 10 10 10 10 10 10 10 10 10 10 10 10 10 10 10 10 10
CENTRE ASSIGNMENTS   10 10 10 10 10 10 10 10 11 11 11 11 12 12 12 12 12 12 12 12
CENTRE ASSIGNMENTS   12 12 12 12 12 12 12 12 12 12 12 12 12 12 12 12 12 12 12 12
CENTRE ASSIGNMENTS   13 13 13 13 13 13 13 13 13 13 13 13 13 13 13 13 13 13 13 13
CENTRE ASSIGNMENTS   13 13 13 13 13 13 13 13 14 14 14 14 15 15 15 15 16 16 16 16
TYPE ASSIGNMENTS      1  1  1  1  1  1  1  1  1  2  2  2  3  3  3  4  4  4  1  2
TYPE ASSIGNMENTS      3  4  5  6  7  8  9 10  1  1  1  1  1  1  1  1  1  2  2  2
TYPE ASSIGNMENTS      3  3  3  4  4  4  1  2  3  4  5  6  7  8  9 10  1  1  1  1
TYPE ASSIGNMENTS      1  1  1  1  1  2  2  2  3  3  3  4  4  4  1  2  3  4  5  6
TYPE ASSIGNMENTS      7  8  9 10  1  1  1  1  1  1  1  1  1  2  2  2  3  3  3  4
TYPE ASSIGNMENTS      4  4  1  2  3  4  5  6  7  8  9 10  1  1  1  1  1  1  1  1
TYPE ASSIGNMENTS      1  2  2  2  3  3  3  4  4  4  1  2  3  4  5  6  7  8  9 10
TYPE ASSIGNMENTS      1  1  1  1  1  1  1  1  1  2  2  2  3  3  3  4  4  4  1  2
TYPE ASSIGNMENTS      3  4  5  6  7  8  9 10  1  1  1  1  1  1  1  1  1  1  1  1
TYPE ASSIGNMENTS      1  1  1  1  1  1  1  1  1  2  2  2  3  3  3  4  4  4  1  2
TYPE ASSIGNMENTS      3  4  5  6  7  8  9 10  1  1  1  1  1  1  1  1  1  1  1  1
TYPE ASSIGNMENTS      1  2  2  2  3  3  3  4  4  4  1  2  3  4  5  6  7  8  9 10
TYPE ASSIGNMENTS      1  1  1  1  1  1  1  1  1  2  2  2  3  3  3  4  4  4  1  2
TYPE ASSIGNMENTS      3  4  5  6  7  8  9 10  1  1  1  1  1  1  1  1  1  1  1  1
EXPONENTS  0.3047525D+04 0.4573695D+03 0.1039487D+03 0.2921016D+02 0.9286663D+01
EXPONENTS  0.3163927D+01 0.7868272D+01 0.1881289D+01 0.5442493D+00 0.7868272D+01
EXPONENTS  0.1881289D+01 0.5442493D+00 0.7868272D+01 0.1881289D+01 0.5442493D+00
EXPONENTS  0.7868272D+01 0.1881289D+01 0.5442493D+00 0.1687145D+00 0.1687145D+00
EXPONENTS  0.1687145D+00 0.1687145D+00 0.8000000D+00 0.8000000D+00 0.8000000D+00
EXPONENTS  0.8000000D+00 0.8000000D+00 0.8000000D+00 0.3047525D+04 0.4573695D+03
EXPONENTS  0.1039487D+03 0.2921016D+02 0.9286663D+01 0.3163927D+01 0.7868272D+01
EXPONENTS  0.1881289D+01 0.5442493D+00 0.7868272D+01 0.1881289D+01 0.5442493D+00
EXPONENTS  0.7868272D+01 0.1881289D+01 0.5442493D+00 0.7868272D+01 0.1881289D+01
EXPONENTS  0.5442493D+00 0.1687145D+00 0.1687145D+00 0.1687145D+00 0.1687145D+00
EXPONENTS  0.8000000D+00 0.8000000D+00 0.8000000D+00 0.8000000D+00 0.8000000D+00
EXPONENTS  0.8000000D+00 0.3047525D+04 0.4573695D+03 0.1039487D+03 0.2921016D+02
EXPONENTS  0.9286663D+01 0.3163927D+01 0.7868272D+01 0.1881289D+01 0.5442493D+00
EXPONENTS  0.7868272D+01 0.1881289D+01 0.5442493D+00 0.7868272D+01 0.1881289D+01
EXPONENTS  0.5442493D+00 0.7868272D+01 0.1881289D+01 0.5442493D+00 0.1687145D+00
EXPONENTS  0.1687145D+00 0.1687145D+00 0.1687145D+00 0.8000000D+00 0.8000000D+00
EXPONENTS  0.8000000D+00 0.8000000D+00 0.8000000D+00 0.8000000D+00 0.3047525D+04
EXPONENTS  0.4573695D+03 0.1039487D+03 0.2921016D+02 0.9286663D+01 0.3163927D+01
EXPONENTS  0.7868272D+01 0.1881289D+01 0.5442493D+00 0.7868272D+01 0.1881289D+01
EXPONENTS  0.5442493D+00 0.7868272D+01 0.1881289D+01 0.5442493D+00 0.7868272D+01
EXPONENTS  0.1881289D+01 0.5442493D+00 0.1687145D+00 0.1687145D+00 0.1687145D+00
EXPONENTS  0.1687145D+00 0.8000000D+00 0.8000000D+00 0.8000000D+00 0.8000000D+00
EXPONENTS  0.8000000D+00 0.8000000D+00 0.3047525D+04 0.4573695D+03 0.1039487D+03
EXPONENTS  0.2921016D+02 0.9286663D+01 0.3163927D+01 0.7868272D+01 0.1881289D+01
EXPONENTS  0.5442493D+00 0.7868272D+01 0.1881289D+01 0.5442493D+00 0.7868272D+01
EXPONENTS  0.1881289D+01 0.5442493D+00 0.7868272D+01 0.1881289D+01 0.5442493D+00
EXPONENTS  0.1687145D+00 0.1687145D+00 0.1687145D+00 0.1687145D+00 0.8000000D+00
EXPONENTS  0.8000000D+00 0.8000000D+00 0.8000000D+00 0.8000000D+00 0.8000000D+00
EXPONENTS  0.3047525D+04 0.4573695D+03 0.1039487D+03 0.2921016D+02 0.9286663D+01
EXPONENTS  0.3163927D+01 0.7868272D+01 0.1881289D+01 0.5442493D+00 0.7868272D+01
EXPONENTS  0.1881289D+01 0.5442493D+00 0.7868272D+01 0.1881289D+01 0.5442493D+00
EXPONENTS  0.7868272D+01 0.1881289D+01 0.5442493D+00 0.1687145D+00 0.1687145D+00
EXPONENTS  0.1687145D+00 0.1687145D+00 0.8000000D+00 0.8000000D+00 0.8000000D+00
EXPONENTS  0.8000000D+00 0.8000000D+00 0.8000000D+00 0.1873114D+02 0.2825394D+01
EXPONENTS  0.6401217D+00 0.1612778D+00 0.1873114D+02 0.2825394D+01 0.6401217D+00
EXPONENTS  0.1612778D+00 0.1873114D+02 0.2825394D+01 0.6401217D+00 0.1612778D+00
EXPONENTS  0.5484672D+04 0.8252349D+03 0.1880470D+03 0.5296450D+02 0.1689757D+02
EXPONENTS  0.5799635D+01 0.1553962D+02 0.3599934D+01 0.1013762D+01 0.1553962D+02
EXPONENTS  0.3599934D+01 0.1013762D+01 0.1553962D+02 0.3599934D+01 0.1013762D+01
EXPONENTS  0.1553962D+02 0.3599934D+01 0.1013762D+01 0.2700058D+00 0.2700058D+00
EXPONENTS  0.2700058D+00 0.2700058D+00 0.8000000D+00 0.8000000D+00 0.8000000D+00
EXPONENTS  0.8000000D+00 0.8000000D+00 0.8000000D+00 0.1873114D+02 0.2825394D+01
EXPONENTS  0.6401217D+00 0.1612778D+00 0.5484672D+04 0.8252349D+03 0.1880470D+03
EXPONENTS  0.5296450D+02 0.1689757D+02 0.5799635D+01 0.1553962D+02 0.3599934D+01
EXPONENTS  0.1013762D+01 0.1553962D+02 0.3599934D+01 0.1013762D+01 0.1553962D+02
EXPONENTS  0.3599934D+01 0.1013762D+01 0.1553962D+02 0.3599934D+01 0.1013762D+01
EXPONENTS  0.2700058D+00 0.2700058D+00 0.2700058D+00 0.2700058D+00 0.8000000D+00
EXPONENTS  0.8000000D+00 0.8000000D+00 0.8000000D+00 0.8000000D+00 0.8000000D+00
EXPONENTS  0.3047525D+04 0.4573695D+03 0.1039487D+03 0.2921016D+02 0.9286663D+01
EXPONENTS  0.3163927D+01 0.7868272D+01 0.1881289D+01 0.5442493D+00 0.7868272D+01
EXPONENTS  0.1881289D+01 0.5442493D+00 0.7868272D+01 0.1881289D+01 0.5442493D+00
EXPONENTS  0.7868272D+01 0.1881289D+01 0.5442493D+00 0.1687145D+00 0.1687145D+00
EXPONENTS  0.1687145D+00 0.1687145D+00 0.8000000D+00 0.8000000D+00 0.8000000D+00
EXPONENTS  0.8000000D+00 0.8000000D+00 0.8000000D+00 0.1873114D+02 0.2825394D+01
EXPONENTS  0.6401217D+00 0.1612778D+00 0.1873114D+02 0.2825394D+01 0.6401217D+00
EXPONENTS  0.1612778D+00 0.1873114D+02 0.2825394D+01 0.6401217D+00 0.1612778D+00
MO    1     MO 0.0        OCC NO =    2.0000000  ORB. ENERGY =  -18.982798
 -0.28254503D-04 -0.52124041D-04 -0.84144364D-04 -0.10953096D-03 -0.93462967D-04
 -0.32270516D-04 -0.75357092D-04 -0.34732015D-04  0.97392195D-04 -0.35797577D-03
 -0.27447311D-03 -0.13698132D-03 -0.42000909D-03 -0.32203633D-03 -0.16071870D-03
  0.27314163D-08  0.20942768D-08  0.10451909D-08 -0.14372228D-04  0.50128670D-03
  0.62970991D-03 -0.35978362D-08 -0.17881462D-03 -0.90235239D-04 -0.12242180D-03
 -0.17244039D-03 -0.88518547D-09 -0.20618138D-09  0.64857957D-05  0.11965027D-04
  0.19315263D-04  0.25142733D-04  0.21454340D-04  0.74076680D-05 -0.58071887D-04
 -0.26765280D-04  0.75052638D-04  0.44097327D-05  0.33811033D-05  0.16874075D-05
  0.16725401D-04  0.12823977D-04  0.64000633D-05  0.55813142D-09  0.42793977D-09
  0.21357194D-09 -0.32898013D-03  0.22720374D-04 -0.29219729D-03 -0.15186610D-08
 -0.64813989D-04 -0.52656315D-04  0.29282255D-04  0.10757919D-04  0.16243251D-08
 -0.22593076D-08  0.15984342D-05  0.29487990D-05  0.47602760D-05  0.61964649D-05
  0.52874547D-05  0.18256311D-05  0.25074882D-05  0.11556990D-05 -0.32407006D-05
 -0.89788188D-04 -0.68843888D-04 -0.34357925D-04 -0.33039653D-04 -0.25332710D-04
 -0.12642798D-04  0.14314375D-08  0.10975355D-08  0.54774713D-09  0.29201360D-03
 -0.40862972D-04 -0.19629096D-04 -0.16217575D-09  0.84882105D-05  0.38396281D-04
  0.25316996D-04  0.15382306D-04  0.32747774D-08 -0.40994582D-09  0.87286537D-05
  0.16102662D-04  0.25994689D-04  0.33837361D-04  0.28873482D-04  0.99693193D-05
 -0.35140692D-04 -0.16196313D-04  0.45416152D-04  0.78863038D-05  0.60467175D-05
  0.30177358D-05 -0.42566789D-04 -0.32637514D-04 -0.16288407D-04 -0.37052317D-09
 -0.28409367D-09 -0.14178265D-09 -0.25331733D-03  0.99833335D-04  0.56025254D-04
 -0.71978737D-09 -0.20767256D-04  0.69416710D-05  0.41272399D-04  0.51620365D-04
  0.36941664D-08  0.16996413D-08 -0.21043158D-05 -0.38820517D-05 -0.62668352D-05
 -0.81575574D-05 -0.69608585D-05 -0.24034172D-05  0.17056082D-04  0.78611326D-05
 -0.22043436D-04 -0.76178256D-04 -0.58408655D-04 -0.29150013D-04 -0.78498580D-04
 -0.60187732D-04 -0.30037897D-04  0.44177223D-09  0.33872292D-09  0.16904648D-09
  0.38178919D-03  0.76076798D-04 -0.16753634D-03 -0.22719930D-08  0.27755127D-04
  0.22156604D-04  0.70967059D-05  0.20198342D-04 -0.20474335D-08  0.18394171D-08
  0.26803277D-04  0.49446812D-04  0.79822486D-04  0.10390516D-03  0.88662461D-04
  0.30613017D-04 -0.12475500D-03 -0.57499467D-04  0.16123451D-03 -0.34980303D-04
 -0.26820678D-04 -0.13385398D-04  0.87421609D-04  0.67029345D-04  0.33452341D-04
  0.37502225D-09  0.28754327D-09  0.14350425D-09 -0.38356244D-03 -0.47955050D-03
  0.10638580D-03 -0.88270075D-09  0.54265204D-04 -0.59742999D-04  0.75045093D-04
 -0.38433180D-04  0.10490944D-08 -0.91608946D-09 -0.11116865D-04 -0.18856307D-04
 -0.21467239D-04 -0.12203855D-03 -0.36565350D-05 -0.62021754D-05 -0.70609575D-05
 -0.28182936D-04  0.10080160D-04  0.17097859D-04  0.19465308D-04  0.40742435D-04
  0.38083124D-04  0.70093278D-04  0.11342416D-03  0.14909923D-03  0.12788154D-03
  0.43724871D-04 -0.17948372D-03 -0.80085288D-04  0.23649293D-03  0.11083092D-03
  0.85389249D-04  0.37490479D-04  0.74573678D-04  0.57454999D-04  0.25225839D-04
  0.20735027D-08  0.15975221D-08  0.70139824D-09 -0.55858184D-03 -0.17652830D-03
 -0.39282480D-04 -0.21362331D-08  0.11664014D-03  0.22936312D-03  0.19049786D-03
  0.33331339D-04 -0.26840095D-08  0.11868807D-09  0.80000942D-04  0.13569674D-03
  0.15448594D-03 -0.21725552D-03  0.82560201D+00  0.15195484D+01  0.24589162D+01
  0.32323141D+01  0.27723371D+01  0.94790912D+00 -0.15755116D-01 -0.70299019D-02
  0.20759395D-01 -0.39478219D-03 -0.30415840D-03 -0.13354192D-03  0.29473711D-02
  0.22707905D-02  0.99699935D-03 -0.21581974D-07 -0.16627747D-07 -0.73004767D-08
  0.40547154D-02  0.31928297D-03  0.24371439D-03 -0.15845581D-08 -0.92231109D-02
 -0.93135858D-02 -0.92978842D-02  0.19883458D-03 -0.93527110D-09 -0.38195476D-09
  0.67196170D-05  0.12396381D-04  0.20011603D-04  0.26049161D-04  0.22227796D-04
  0.76747239D-05 -0.23942292D-04 -0.11034981D-04  0.30943237D-04  0.10993237D-04
  0.84289171D-05  0.42066204D-05  0.12091706D-05  0.92711530D-06  0.46269551D-06
 -0.93848843D-09 -0.71957341D-09 -0.35911756D-09 -0.69709261D-04  0.23160591D-04
 -0.46804015D-05  0.68297941D-09 -0.25170530D-05  0.22023453D-04  0.22788260D-04
  0.98931152D-05 -0.20903249D-09  0.11867931D-08  0.24160218D-05  0.40980303D-05
  0.46654626D-05  0.50053663D-05  0.38285109D-05  0.64938791D-05  0.73930519D-05
  0.34404481D-05  0.38280221D-05  0.64930500D-05  0.73921079D-05  0.34406626D-05
MO    2     MO 0.0        OCC NO =    2.0000000  ORB. ENERGY =  -18.885497
  0.25271583D-04  0.46621136D-04  0.75260970D-04  0.97967420D-04  0.83595777D-04
  0.28863613D-04 -0.11154720D-03 -0.51412002D-04  0.14416462D-03  0.26956185D-05
  0.20668293D-05  0.10314927D-05 -0.85372956D-04 -0.65458568D-04 -0.32668413D-04
 -0.21136873D-10 -0.16206414D-10 -0.80881363D-11 -0.49777202D-03 -0.43077034D-03
 -0.40442008D-03  0.19056665D-08  0.91082002D-06  0.35842080D-04  0.65023046D-04
  0.19163765D-03  0.13222090D-08 -0.86437193D-09 -0.32505895D-05 -0.59967029D-05
 -0.96805379D-05 -0.12601184D-04 -0.10752613D-04 -0.37126189D-05  0.23432455D-04
  0.10799997D-04 -0.30284319D-04 -0.11252086D-03 -0.86273862D-04 -0.43056704D-04
  0.43247236D-04  0.33159238D-04  0.16548784D-04  0.12684931D-08  0.97260004D-09
  0.48539559D-09  0.54318873D-03 -0.39577468D-04  0.26191677D-03  0.20795733D-08
  0.41097737D-04  0.23713926D-04  0.53519708D-05  0.93340860D-06 -0.32347533D-08
  0.23907113D-08  0.10754300D-04  0.19839584D-04  0.32027240D-04  0.41689951D-04
  0.35574111D-04  0.12282886D-04 -0.44074006D-04 -0.20313669D-04  0.56961649D-04
 -0.43838353D-04 -0.33612469D-04 -0.16774978D-04  0.27033218D-04  0.20727357D-04
  0.10344404D-04 -0.10599102D-08 -0.81267194D-09 -0.40558025D-09 -0.35622356D-03
  0.21832066D-03  0.57780181D-05  0.14400328D-09  0.19155854D-04 -0.40005975D-04
  0.47748232D-04 -0.46717066D-04 -0.92863235D-09  0.33526541D-09 -0.14582153D-05
 -0.26901225D-05 -0.43426919D-05 -0.56528945D-05 -0.48236251D-05 -0.16654818D-05
  0.13810988D-04  0.63654718D-05 -0.17849447D-04 -0.11634000D-03 -0.89202131D-04
 -0.44518115D-04  0.86400009D-05  0.66246047D-05  0.33061420D-05  0.20495961D-08
  0.15715003D-08  0.78428878D-09  0.48317040D-03 -0.17670415D-03 -0.74582475D-04
  0.15976935D-08  0.36714140D-04  0.16743945D-04  0.16748269D-04 -0.78622124D-04
 -0.51320779D-08 -0.11783149D-08  0.12484231D-04  0.23030969D-04  0.37179124D-04
  0.48396173D-04  0.41296542D-04  0.14258704D-04 -0.72838775D-04 -0.33571325D-04
  0.94137499D-04  0.73776207D-04  0.56566916D-04  0.28230856D-04 -0.59739056D-05
 -0.45804119D-05 -0.22859466D-05 -0.19898750D-08 -0.15257099D-08 -0.76143618D-09
 -0.67226116D-03 -0.20461180D-03  0.38989670D-03  0.42801161D-08 -0.70037783D-04
 -0.45704025D-05  0.44017081D-04  0.45673772D-04  0.36357075D-08  0.40840612D-09
 -0.41337222D-04 -0.76259103D-04 -0.12310584D-03 -0.16024722D-03 -0.13673925D-03
 -0.47212776D-04 -0.81639798D-04 -0.37627708D-04  0.10551202D-03 -0.21306511D-03
 -0.16336481D-03 -0.81530489D-04  0.25287411D-04  0.19388783D-04  0.96763616D-05
 -0.11980352D-08 -0.91857739D-09 -0.45843450D-09 -0.10111973D-03  0.10853888D-02
 -0.20005504D-03  0.44198839D-08 -0.89016983D-03 -0.13391014D-03 -0.18902491D-03
  0.19458176D-03 -0.11307309D-07  0.14014729D-08  0.12996348D-04  0.22044266D-04
  0.25096618D-04  0.65598949D-04  0.39866051D-05  0.67620369D-05  0.76983400D-05
  0.30399113D-04 -0.23304187D-04 -0.39528311D-04 -0.45001585D-04 -0.15054002D-03
  0.82560423D+00  0.15195525D+01  0.24589228D+01  0.32323229D+01  0.27723445D+01
  0.94791168D+00 -0.15571582D-01 -0.69480098D-02  0.20517566D-01  0.29631124D-02
  0.22829184D-02  0.10023241D-02 -0.70355350D-03 -0.54205004D-03 -0.23798917D-03
  0.26523701D-07  0.20435081D-07  0.89721014D-08  0.44902711D-02  0.61305630D-03
 -0.10849396D-03  0.61305230D-08 -0.88717567D-02 -0.93776730D-02 -0.93804402D-02
 -0.16408967D-03  0.93603500D-08 -0.21607112D-08 -0.12056636D-04 -0.20450336D-04
 -0.23281985D-04 -0.10765964D-03  0.60739053D-04  0.11179228D-03  0.18090101D-03
  0.23779945D-03  0.20395920D-03  0.69737116D-04 -0.16567371D-03 -0.73923285D-04
  0.21829645D-03  0.17531168D-03  0.13506820D-03  0.59302215D-04  0.51970564D-04
  0.40040518D-04  0.17579944D-04 -0.13760044D-08 -0.10601372D-08 -0.46545735D-09
 -0.51749458D-03 -0.22564758D-03 -0.89240104D-04  0.10803038D-08  0.16371437D-03
  0.15108624D-03  0.17251824D-03 -0.17490846D-03  0.11694117D-08  0.16162078D-08
  0.54696455D-06  0.10090428D-05  0.16289079D-05  0.21203541D-05  0.18093020D-05
  0.62470851D-06 -0.46255191D-05 -0.21318975D-05  0.59780632D-05  0.24380494D-04
  0.18693417D-04  0.93293250D-05 -0.14955465D-04 -0.11466902D-04 -0.57227878D-05
  0.68666533D-09  0.52649142D-09  0.26275612D-09 -0.87528283D-04  0.25148145D-04
 -0.78818420D-05  0.79821417D-09 -0.70839223D-05 -0.31613822D-05 -0.62948678D-06
  0.14919516D-04 -0.90232970D-09  0.37414525D-09  0.18537364D-05  0.31442878D-05
  0.35796606D-05  0.20351668D-05  0.72039327D-06  0.12219233D-05  0.13911165D-05
  0.20174725D-05  0.72059470D-06  0.12222650D-05  0.13915055D-05  0.20164931D-05
MO    3     MO 0.0        OCC NO =    2.0000000  ORB. ENERGY =  -10.035878
 -0.13270464D-02 -0.24481415D-02 -0.39520595D-02 -0.51444072D-02 -0.43897320D-02
 -0.15156690D-02  0.12591704D-03  0.58035048D-04 -0.16273633D-03 -0.12057854D-04
 -0.92451978D-05 -0.46140017D-05  0.92171429D-05  0.70671205D-05  0.35269885D-05
  0.66204936D-08  0.50761746D-08  0.25333669D-08  0.31823410D-03  0.19631321D-03
  0.14062469D-03 -0.61602758D-08  0.31341080D-04 -0.19972317D-04 -0.56233930D-04
 -0.39231628D-04 -0.25786429D-08 -0.88043000D-09 -0.25496947D-04 -0.47036889D-04
 -0.75932123D-04 -0.98841063D-04 -0.84341258D-04 -0.29121010D-04  0.88677818D-05
  0.40871525D-05 -0.11460802D-04 -0.11008085D-03 -0.84403015D-04 -0.42123020D-04
  0.44058085D-04  0.33780945D-04  0.16859059D-04 -0.70322074D-08 -0.53918506D-08
 -0.26909113D-08 -0.30503151D-03  0.46738625D-04 -0.12171605D-03  0.24781436D-08
 -0.67560136D-04  0.71037729D-04 -0.52060876D-04  0.45233265D-04  0.60043876D-08
 -0.26542016D-08  0.17867552D-02  0.32962144D-02  0.53211120D-02  0.69265068D-02
  0.59104008D-02  0.20407194D-02  0.34628163D-04  0.15960089D-04 -0.44753755D-04
 -0.29888441D-03 -0.22916561D-03 -0.11436970D-03  0.11211295D-03  0.85961099D-04
  0.42900613D-04  0.44275674D-08  0.33947778D-08  0.16942321D-08  0.92078098D-03
  0.38037017D-03 -0.23219946D-03  0.22625113D-08 -0.38490129D-03 -0.22568939D-03
 -0.19069629D-03  0.15086354D-03  0.24948122D-08 -0.56683631D-09 -0.36718300D-05
 -0.67738093D-05 -0.10935029D-04 -0.14234158D-04 -0.12146033D-04 -0.41937333D-05
  0.19805121D-04  0.91281622D-05 -0.25596320D-04 -0.13470086D-03 -0.10328007D-03
 -0.51543995D-04  0.26563993D-04  0.20367585D-04  0.10164852D-04 -0.57255342D-08
 -0.43899765D-08 -0.21909059D-08 -0.19944384D-03  0.22748998D-03 -0.99518559D-04
  0.11040720D-08 -0.42255792D-04  0.13307901D-03 -0.44175366D-04  0.61624656D-04
  0.10750507D-07  0.15467227D-08 -0.23807808D-04 -0.43920758D-04 -0.70901721D-04
 -0.92292974D-04 -0.78753762D-04 -0.27191782D-04  0.74925699D-04  0.34533186D-04
 -0.96834659D-04 -0.13862307D-04 -0.10628738D-04 -0.53044851D-05  0.61949614D-05
  0.47499034D-05  0.23705347D-05  0.63915014D-08  0.49005979D-08  0.24457418D-08
  0.43228304D-03  0.17818194D-03 -0.13057613D-03 -0.65758222D-08  0.38641297D-04
 -0.12961987D-04 -0.83176745D-04 -0.51445383D-04 -0.41293920D-08  0.55052559D-08
 -0.24452013D-04 -0.45109189D-04 -0.72820218D-04 -0.94790287D-04 -0.80884724D-04
 -0.27927551D-04 -0.16100658D-04 -0.74207787D-05  0.20808638D-04 -0.77218447D-07
 -0.59206207D-07 -0.29548047D-07 -0.97018624D-05 -0.74387727D-05 -0.37124689D-05
 -0.81070014D-09 -0.62159345D-09 -0.31021870D-09 -0.18747222D-03 -0.13838536D-03
  0.61359578D-04  0.32069444D-08 -0.30875380D-04  0.13902002D-04 -0.21116259D-06
  0.25889958D-04 -0.56485218D-09 -0.86292276D-10 -0.93257319D-05 -0.15818206D-04
 -0.18008469D-04 -0.58376962D-04 -0.20311656D-04 -0.34452412D-04 -0.39222854D-04
 -0.88636812D-06  0.37507961D-06  0.63620601D-06  0.72429805D-06  0.55151807D-04
  0.88404268D-06  0.16271105D-05  0.26329719D-05  0.34611152D-05  0.29685784D-05
  0.10150074D-05 -0.42463069D-05 -0.18946939D-05  0.55950564D-05 -0.21397951D-04
 -0.16485968D-04 -0.72382278D-05  0.66799408D-05  0.51465343D-05  0.22596057D-05
  0.95060421D-09  0.73238930D-09  0.32155835D-09 -0.67068453D-04  0.45369771D-05
 -0.12502103D-04 -0.14813684D-08  0.26924663D-04  0.54130501D-05 -0.22099518D-04
 -0.23436380D-04 -0.16831577D-08  0.35013852D-10 -0.33514308D-05 -0.56846610D-05
 -0.64717856D-05  0.94589133D-05 -0.24591438D-04 -0.45261373D-04 -0.73241445D-04
 -0.96277930D-04 -0.82577021D-04 -0.28234486D-04  0.83697765D-04  0.37345780D-04
 -0.11028259D-03 -0.36864780D-04 -0.28402326D-04 -0.12470151D-04 -0.19601256D-04
 -0.15101711D-04 -0.66304645D-05 -0.54831752D-08 -0.42244909D-08 -0.18547791D-08
  0.23515962D-03  0.43289335D-04  0.49252096D-04  0.24727146D-08 -0.88309039D-04
 -0.73885934D-04 -0.97511756D-04  0.21685447D-04  0.25167732D-08  0.26031717D-08
  0.53255156D+00  0.98245363D+00  0.15859848D+01  0.20644809D+01  0.17616253D+01
  0.60824689D+00 -0.20037528D-01 -0.92352785D-02  0.25896685D-01  0.25555143D-03
  0.19594062D-03  0.97788104D-04  0.18252162D-04  0.13994600D-04  0.69842862D-05
  0.16892913D-07  0.12952414D-07  0.64641626D-08 -0.33954025D-02  0.18968149D-03
 -0.51101238D-04 -0.71226747D-08 -0.10304158D-01 -0.10103261D-01 -0.10117019D-01
  0.15315461D-04 -0.17897863D-07 -0.63061555D-08 -0.10448474D-04 -0.17722590D-04
 -0.20176542D-04  0.49548443D-03 -0.12354169D-05 -0.20955008D-05 -0.23856536D-05
  0.50655599D-03 -0.12326301D-05 -0.20907740D-05 -0.23802723D-05  0.50656300D-03
MO    4     MO 0.0        OCC NO =    2.0000000  ORB. ENERGY =  -10.035447
  0.53199760D+00  0.98143168D+00  0.15843350D+01  0.20623335D+01  0.17597929D+01
  0.60761420D+00 -0.19782359D-01 -0.91176711D-02  0.25566901D-01 -0.93210196D-03
 -0.71467667D-03 -0.35667374D-03 -0.11500396D-02 -0.88177746D-03 -0.44006875D-03
 -0.41881253D-08 -0.32111888D-08 -0.16026083D-08 -0.32390746D-02 -0.12262423D-02
 -0.10591645D-02  0.14039607D-07 -0.95621635D-02 -0.98181268D-02 -0.10523052D-01
  0.94671148D-03 -0.89999169D-08 -0.40715543D-08  0.39075440D-02  0.72086556D-02
  0.11637005D-01  0.15147923D-01  0.12925750D-01  0.44629510D-02  0.20337321D-03
  0.93734528D-04 -0.26284140D-03  0.36685693D-03  0.28128263D-03  0.14037975D-03
 -0.23836787D-03 -0.18276536D-03 -0.91212726D-04 -0.46072000D-08 -0.35325087D-08
 -0.17629694D-08  0.23014033D-02 -0.40142263D-03  0.97252889D-03  0.65814951D-08
 -0.53348291D-03 -0.28067763D-03 -0.40978878D-03 -0.99425102D-04  0.46087414D-08
  0.57684699D-08  0.43334486D-04  0.79943664D-04  0.12905386D-03  0.16798978D-03
  0.14334599D-03  0.49493924D-04 -0.63628046D-04 -0.29326108D-04  0.82233468D-04
  0.15578687D-03  0.11944749D-03  0.59612668D-04  0.36706754D-04  0.28144411D-04
  0.14046033D-04 -0.65103405D-08 -0.49917162D-08 -0.24912162D-08 -0.11998706D-02
  0.40856572D-03  0.10212713D-03  0.90534231D-09  0.31005344D-04  0.44567451D-04
  0.20750782D-04  0.24553978D-04 -0.80262897D-08  0.36010897D-08 -0.82388612D-04
 -0.15199090D-03 -0.24536044D-03 -0.31938639D-03 -0.27253299D-03 -0.94099092D-04
  0.12425073D-03  0.57267047D-04 -0.16058278D-03  0.66210754D-04  0.50766207D-04
  0.25335895D-04  0.81991460D-04  0.62865851D-04  0.31374466D-04  0.38182526D-09
  0.29275939D-09  0.14610745D-09  0.80483850D-03 -0.36661699D-03 -0.23148003D-03
  0.72965952D-09  0.11642848D-04 -0.22762976D-04 -0.13851500D-03 -0.61904092D-04
 -0.93735708D-08 -0.56470016D-08  0.95868599D-04  0.17685885D-03  0.28550502D-03
  0.37164270D-03  0.31712339D-03  0.10949508D-03 -0.24553928D-04 -0.11316883D-04
  0.31733721D-04  0.10179391D-03  0.78049111D-04  0.38951977D-04  0.18733528D-03
  0.14363681D-03  0.71684837D-04 -0.36092985D-08 -0.27673812D-08 -0.13811172D-08
 -0.10100545D-02 -0.19395088D-03  0.39227475D-03  0.77277522D-08  0.17091306D-04
  0.29503885D-04 -0.20331761D-04  0.62358301D-04  0.63833907D-08 -0.80449416D-08
  0.23619795D-01  0.43573910D-01  0.70341802D-01  0.91564125D-01  0.78131834D-01
  0.26977045D-01 -0.58060578D-03 -0.26760067D-03  0.75038022D-03 -0.11462907D-03
 -0.87890303D-04 -0.43863421D-04  0.26357166D-03  0.20209003D-03  0.10085709D-03
 -0.24237157D-08 -0.18583515D-08 -0.92744762D-09  0.15416315D-02  0.91811993D-03
 -0.39017386D-03 -0.11594529D-08 -0.68331578D-03 -0.10661075D-02 -0.81103660D-03
 -0.12923592D-03  0.36008173D-08  0.55092487D-08  0.30704897D-04  0.52081317D-04
  0.59292739D-04  0.30459277D-03  0.18004201D-04  0.30538532D-04  0.34767040D-04
  0.12944201D-03 -0.17568914D-04 -0.29800204D-04 -0.33926479D-04 -0.73289339D-04
 -0.77449077D-04 -0.14254765D-03 -0.23066900D-03 -0.30322085D-03 -0.26007076D-03
 -0.88922611D-04  0.25704105D-03  0.11469122D-03 -0.33868470D-03 -0.49733628D-05
 -0.38317079D-05 -0.16823261D-05 -0.96597308D-04 -0.74423018D-04 -0.32675714D-04
  0.75171157D-10  0.57915324D-10  0.25427947D-10  0.75781163D-03  0.12583618D-03
  0.58227171D-04  0.31080717D-08 -0.23920091D-03 -0.22912533D-03 -0.27320597D-03
 -0.13925898D-05  0.43855379D-08  0.12291224D-08  0.67013763D-04  0.11366803D-03
  0.12940703D-03 -0.11823978D-04  0.11859278D-03  0.21827402D-03  0.35320857D-03
  0.46430255D-03  0.39822960D-03  0.13616146D-03 -0.72928823D-03 -0.32540699D-03
  0.96093119D-03 -0.18228919D-03 -0.14044400D-03 -0.61662479D-04 -0.10610173D-03
 -0.81745662D-04 -0.35890749D-04  0.89050745D-08  0.68608798D-08  0.30122958D-08
 -0.18054922D-02 -0.54554154D-03 -0.62947272D-03  0.18040047D-09  0.13090173D-03
  0.16733106D-03  0.10624103D-02 -0.12634967D-02  0.60652350D-08  0.62287200D-08
  0.12866784D-02  0.23736705D-02  0.38318402D-02  0.49879173D-02  0.42561989D-02
  0.14695632D-02  0.19717401D-04  0.90877320D-05 -0.25482949D-04  0.56643812D-05
  0.43430882D-05  0.21675054D-05 -0.98064872D-05 -0.75189924D-05 -0.37525042D-05
  0.34475025D-08  0.26433262D-08  0.13192050D-08  0.72407757D-04 -0.49535196D-04
 -0.30758744D-04 -0.51743798D-09  0.18017159D-05 -0.90392252D-04 -0.10559890D-03
  0.57913802D-04  0.27122322D-08  0.49113940D-08 -0.12104564D-04 -0.20531631D-04
 -0.23374536D-04 -0.97735740D-05 -0.66823827D-05 -0.11334586D-04 -0.12904025D-04
  0.19756920D-05 -0.66823247D-05 -0.11334488D-04 -0.12903913D-04  0.19728271D-05
MO    5     MO 0.0        OCC NO =    2.0000000  ORB. ENERGY =  -10.031757
 -0.23884309D-01 -0.44061887D-01 -0.71129547D-01 -0.92589535D-01 -0.79006818D-01
 -0.27279156D-01  0.11866393D-02  0.54692096D-03 -0.15336235D-02  0.12805046D-03
  0.98180972D-04  0.48999186D-04 -0.24028594D-03 -0.18423602D-03 -0.91946684D-04
  0.27786763D-08  0.21305127D-08  0.10632752D-08  0.23194974D-02  0.81106493D-03
  0.10975098D-02 -0.67697596D-08 -0.13518844D-04 -0.16517691D-03  0.11923273D-03
  0.25273529D-03 -0.69060735D-08  0.65443551D-09 -0.16939292D-03 -0.31249686D-03
 -0.50446683D-03 -0.65666592D-03 -0.56033422D-03 -0.19346994D-03 -0.92446446D-04
 -0.42608482D-04  0.11947863D-03  0.13983291D-03  0.10721501D-03  0.53507803D-04
 -0.83187952D-04 -0.63783245D-04 -0.31832310D-04  0.26843355D-08  0.20581782D-08
  0.10271752D-08 -0.16013413D-02  0.15767330D-03 -0.76894781D-03 -0.57004931D-08
  0.12438580D-03 -0.10182022D-04  0.51141871D-04 -0.83866667D-06  0.13175558D-08
 -0.73697425D-08 -0.98841705D-04 -0.18234365D-03 -0.29435918D-03 -0.38316819D-03
 -0.32695811D-03 -0.11289078D-03  0.15188353D-03  0.70002981D-04 -0.19629567D-03
  0.13620654D-03  0.10443454D-03  0.52120154D-04 -0.46653968D-04 -0.35771303D-04
 -0.17852387D-04  0.63111161D-08  0.48389636D-08  0.24149820D-08  0.12316897D-02
 -0.71780298D-03  0.68766040D-04 -0.12022266D-08 -0.45976572D-04  0.49209674D-04
 -0.14725763D-03  0.63066872D-04  0.20406686D-08 -0.96689128D-09  0.51206335D-04
  0.94465689D-04  0.15249691D-03  0.19850567D-03  0.16938525D-03  0.58484655D-04
 -0.94197033D-04 -0.43415327D-04  0.12174111D-03  0.19824701D-03  0.15200323D-03
  0.75860267D-04 -0.10672000D-04 -0.81826129D-05 -0.40836973D-05 -0.12428515D-08
 -0.95293971D-09 -0.47558370D-09 -0.15831204D-02  0.58142316D-03  0.39161722D-03
 -0.33732012D-08  0.44056296D-04  0.23131044D-04  0.40521608D-04  0.35553030D-04
  0.10959411D-07  0.10537371D-07  0.19963168D-02  0.36828146D-02  0.59452047D-02
  0.77388901D-02  0.66036089D-02  0.22800675D-02  0.23635529D-03  0.10893594D-03
 -0.30546774D-03  0.82257175D-04  0.63069584D-04  0.31476143D-04  0.32545740D-03
  0.24954009D-03  0.12453800D-03  0.65473656D-08  0.50201047D-08  0.25053841D-08
  0.25839439D-02  0.29645460D-03 -0.12116844D-02 -0.14045895D-07 -0.49593973D-03
 -0.34338585D-03 -0.37198973D-03 -0.38978031D-03 -0.13644441D-07  0.45573033D-08
  0.53208131D+00  0.98158613D+00  0.15845844D+01  0.20626580D+01  0.17600698D+01
  0.60770981D+00 -0.19846103D-01 -0.91470510D-02  0.25649286D-01 -0.76987554D-03
 -0.59029173D-03 -0.29459694D-03  0.26253944D-05  0.20129859D-05  0.10046211D-05
 -0.69879571D-08 -0.53579222D-08 -0.26739787D-08 -0.33817656D-02 -0.20666196D-02
  0.40385859D-03 -0.49012438D-08 -0.90171647D-02 -0.10036218D-01 -0.10318650D-01
 -0.21496013D-03  0.17712307D-07 -0.20290661D-09 -0.33804999D-04 -0.57339676D-04
 -0.65279194D-04 -0.19209888D-03 -0.21467173D-04 -0.36412389D-04 -0.41454217D-04
 -0.14809018D-03  0.46038203D-04  0.78089506D-04  0.88902142D-04  0.36118348D-03
  0.12072261D-03  0.22219404D-03  0.35955190D-03  0.47264104D-03  0.40538147D-03
  0.13860681D-03 -0.86946250D-03 -0.38795248D-03  0.11456289D-02 -0.15220232D-03
 -0.11726368D-03 -0.51485074D-04  0.58363492D-04  0.44965924D-04  0.19742463D-04
  0.42542069D-08  0.32776371D-08  0.14390592D-08 -0.25493436D-02 -0.93283347D-03
  0.14342515D-03 -0.11112231D-07  0.10279278D-03  0.10145504D-02  0.11768364D-02