 Entering Link 1 = D:\Gaussian\G16W\l1.exe PID=     59688.
  
 Copyright (c) 1988,1990,1992,1993,1995,1998,2003,2009,2016,
            Gaussian, Inc.  All Rights Reserved.
  
 This is part of the Gaussian(R) 16 program.  It is based on
 the Gaussian(R) 09 system (copyright 2009, Gaussian, Inc.),
 the Gaussian(R) 03 system (copyright 2003, Gaussian, Inc.),
 the Gaussian(R) 98 system (copyright 1998, Gaussian, Inc.),
 the Gaussian(R) 94 system (copyright 1995, Gaussian, Inc.),
 the Gaussian 92(TM) system (copyright 1992, Gaussian, Inc.),
 the Gaussian 90(TM) system (copyright 1990, Gaussian, Inc.),
 the Gaussian 88(TM) system (copyright 1988, Gaussian, Inc.),
 the Gaussian 86(TM) system (copyright 1986, Carnegie Mellon
 University), and the Gaussian 82(TM) system (copyright 1983,
 Carnegie Mellon University). Gaussian is a federally registered
 trademark of Gaussian, Inc.
  
 This software contains proprietary and confidential information,
 including trade secrets, belonging to Gaussian, Inc.
  
 This software is provided under written license and may be
 used, copied, transmitted, or stored only in accord with that
 written license.
  
 The following legend is applicable only to US Government
 contracts under FAR:
  
                    RESTRICTED RIGHTS LEGEND
  
 Use, reproduction and disclosure by the US Government is
 subject to restrictions as set forth in subparagraphs (a)
 and (c) of the Commercial Computer Software - Restricted
 Rights clause in FAR 52.227-19.
  
 Gaussian, Inc.
 340 Quinnipiac St., Bldg. 40, Wallingford CT 06492
  
  
 ---------------------------------------------------------------
 Warning -- This program may not be used in any manner that
 competes with the business of Gaussian, Inc. or will provide
 assistance to any competitor of Gaussian, Inc.  The licensee
 of this program is prohibited from giving any competitor of
 Gaussian, Inc. access to this program.  By using this program,
 the user acknowledges that Gaussian, Inc. is engaged in the
 business of creating and licensing software in the field of
 computational chemistry and represents and warrants to the
 licensee that it is not a competitor of Gaussian, Inc. and that
 it will not use this program in any manner prohibited above.
 ---------------------------------------------------------------
  

 Cite this work as:
 Gaussian 16, Revision A.03,
 M. J. Frisch, G. W. Trucks, H. B. Schlegel, G. E. Scuseria, 
 M. A. Robb, J. R. Cheeseman, G. Scalmani, V. Barone, 
 G. A. Petersson, H. Nakatsuji, X. Li, M. Caricato, A. V. Marenich, 
 J. Bloino, B. G. Janesko, R. Gomperts, B. Mennucci, H. P. Hratchian, 
 J. V. Ortiz, A. F. Izmaylov, J. L. Sonnenberg, D. Williams-Young, 
 F. Ding, F. Lipparini, F. Egidi, J. Goings, B. Peng, A. Petrone, 
 T. Henderson, D. Ranasinghe, V. G. Zakrzewski, J. Gao, N. Rega, 
 G. Zheng, W. Liang, M. Hada, M. Ehara, K. Toyota, R. Fukuda, 
 J. Hasegawa, M. Ishida, T. Nakajima, Y. Honda, O. Kitao, H. Nakai, 
 T. Vreven, K. Throssell, J. A. Montgomery, Jr., J. E. Peralta, 
 F. Ogliaro, M. J. Bearpark, J. J. Heyd, E. N. Brothers, K. N. Kudin, 
 V. N. Staroverov, T. A. Keith, R. Kobayashi, J. Normand, 
 K. Raghavachari, A. P. Rendell, J. C. Burant, S. S. Iyengar, 
 J. Tomasi, M. Cossi, J. M. Millam, M. Klene, C. Adamo, R. Cammi, 
 J. W. Ochterski, R. L. Martin, K. Morokuma, O. Farkas, 
 J. B. Foresman, and D. J. Fox, Gaussian, Inc., Wallingford CT, 2016.
 
 ******************************************
 Gaussian 16:  EM64W-G16RevA.03 17-Dec-2016
                08-Dec-2025 
 ******************************************
 %nprocshared=14
 Will use up to   14 processors via shared memory.
 %nprocs=   4
 Will use up to    4 processors via shared memory.
 --------------------------------------
 #p b3lyp/6-31g(d) out=wfn scf=conver=7
 --------------------------------------
 1/38=1,172=1/1;
 2/12=2,17=6,18=5,40=1/2;
 3/5=1,6=6,7=1,11=2,25=1,30=1,74=-5/1,2,3;
 4//1;
 5/5=2,6=7,38=5/2;
 6/7=2,8=2,9=2,10=2,28=1/1;
 99/5=1,6=100,9=1/99;
 Leave Link    1 at Mon Dec 08 16:42:12 2025, MaxMem=           0 cpu:               0.0 elap:               0.2
 (Enter D:\Gaussian\G16W\l101.exe)
 ----------------------------------------------------
 Generated by Multiwfn (http://sobereva.com/multiwfn)
 ----------------------------------------------------
 Symbolic Z-matrix:
 Charge =  1 Multiplicity = 1
 C                    -0.77643  -0.77392   0. 
 C                     0.57187  -1.10038  -0.00001 
 C                     1.5275   -0.08436  -0.00001 
 C                     1.10878   1.28093  -0.00001 
 C                    -0.2135    1.63228   0.00001 
 C                    -1.2345    0.61812   0. 
 H                     0.86525  -2.14375  -0.00002 
 H                     1.87108   2.05331   0.00001 
 H                    -0.53516   2.66673   0.00002 
 O                    -2.47057   0.82288  -0.00001 
 H                    -2.5697   -1.17454   0.00001 
 O                    -1.73812  -1.69551   0.00001 
 C                     2.9968   -0.40405   0.00001 
 H                     3.17567  -1.47992  -0.00005 
 H                     3.48962   0.02383  -0.87948 
 H                     3.48956   0.02371   0.87958 
 
 ITRead=  0  0  0  0  0  0  0  0  0  0  0  0  0  0  0  0
 MicOpt= -1 -1 -1 -1 -1 -1 -1 -1 -1 -1 -1 -1 -1 -1 -1 -1
 NAtoms=     16 NQM=       16 NQMF=       0 NMMI=      0 NMMIF=      0
                NMic=       0 NMicF=      0.
                    Isotopes and Nuclear Properties:
 (Nuclear quadrupole moments (NQMom) in fm**2, nuclear magnetic moments (NMagM)
  in nuclear magnetons)

  Atom         1           2           3           4           5           6           7           8           9          10
 IAtWgt=          12          12          12          12          12          12           1           1           1          16
 AtmWgt=  12.0000000  12.0000000  12.0000000  12.0000000  12.0000000  12.0000000   1.0078250   1.0078250   1.0078250  15.9949146
 NucSpn=           0           0           0           0           0           0           1           1           1           0
 AtZEff=   0.0000000   0.0000000   0.0000000   0.0000000   0.0000000   0.0000000   0.0000000   0.0000000   0.0000000   0.0000000
 NQMom=    0.0000000   0.0000000   0.0000000   0.0000000   0.0000000   0.0000000   0.0000000   0.0000000   0.0000000   0.0000000
 NMagM=    0.0000000   0.0000000   0.0000000   0.0000000   0.0000000   0.0000000   2.7928460   2.7928460   2.7928460   0.0000000
 AtZNuc=   6.0000000   6.0000000   6.0000000   6.0000000   6.0000000   6.0000000   1.0000000   1.0000000   1.0000000   8.0000000

  Atom        11          12          13          14          15          16
 IAtWgt=           1          16          12           1           1           1
 AtmWgt=   1.0078250  15.9949146  12.0000000   1.0078250   1.0078250   1.0078250
 NucSpn=           1           0           0           1           1           1
 AtZEff=   0.0000000   0.0000000   0.0000000   0.0000000   0.0000000   0.0000000
 NQMom=    0.0000000   0.0000000   0.0000000   0.0000000   0.0000000   0.0000000
 NMagM=    2.7928460   0.0000000   0.0000000   2.7928460   2.7928460   2.7928460
 AtZNuc=   1.0000000   8.0000000   6.0000000   1.0000000   1.0000000   1.0000000
 Leave Link  101 at Mon Dec 08 16:42:12 2025, MaxMem=   104857600 cpu:               0.0 elap:               0.1
 (Enter D:\Gaussian\G16W\l202.exe)
                          Input orientation:                          
 ---------------------------------------------------------------------
 Center     Atomic      Atomic             Coordinates (Angstroms)
 Number     Number       Type             X           Y           Z
 ---------------------------------------------------------------------
      1          6           0       -0.776426   -0.773917    0.000003
      2          6           0        0.571874   -1.100380   -0.000011
      3          6           0        1.527500   -0.084360   -0.000012
      4          6           0        1.108781    1.280927   -0.000009
      5          6           0       -0.213504    1.632275    0.000007
      6          6           0       -1.234501    0.618117    0.000002
      7          1           0        0.865248   -2.143745   -0.000018
      8          1           0        1.871083    2.053310    0.000013
      9          1           0       -0.535164    2.666732    0.000024
     10          8           0       -2.470566    0.822879   -0.000007
     11          1           0       -2.569704   -1.174539    0.000005
     12          8           0       -1.738116   -1.695511    0.000009
     13          6           0        2.996800   -0.404049    0.000005
     14          1           0        3.175674   -1.479919   -0.000052
     15          1           0        3.489619    0.023827   -0.879477
     16          1           0        3.489562    0.023709    0.879581
 ---------------------------------------------------------------------
                    Distance matrix (angstroms):
                    1          2          3          4          5
     1  C    0.000000
     2  C    1.387260   0.000000
     3  C    2.404904   1.394818   0.000000
     4  C    2.788618   2.441084   1.428053   0.000000
     5  C    2.471162   2.843277   2.444981   1.368168   0.000000
     6  C    1.465466   2.493235   2.849934   2.435218   1.439080
     7  H    2.138112   1.083826   2.163249   3.433320   3.927090
     8  H    3.873308   3.410822   2.165106   1.085210   2.126681
     9  H    3.449097   3.926406   3.438472   2.150119   1.083313
    10  O    2.328061   3.599356   4.099709   3.608536   2.397801
    11  H    1.837483   3.142453   4.239761   4.422733   3.664681
    12  O    1.331985   2.385421   3.641436   4.118738   3.660410
    13  C    3.791311   2.522923   1.503677   2.530565   3.801666
    14  H    4.014665   2.631316   2.159644   3.448814   4.601334
    15  H    4.428207   3.248159   2.152922   2.832341   4.132035
    16  H    4.428151   3.248101   2.152917   2.832383   4.132049
                    6          7          8          9         10
     6  C    0.000000
     7  H    3.469413   0.000000
     8  H    3.421174   4.315898   0.000000
     9  H    2.164693   5.010174   2.483206   0.000000
    10  O    1.252910   4.464136   4.512635   2.673121   0.000000
    11  H    2.235259   3.569069   5.489954   4.346805   1.999877
    12  O    2.367805   2.641670   5.203842   4.525070   2.622741
    13  C    4.353014   2.751373   2.702934   4.680221   5.603342
    14  H    4.883789   2.403900   3.766386   5.564623   6.097779
    15  H    4.841898   3.515557   2.740796   4.894624   6.077479
    16  H    4.841875   3.515477   2.740875   4.894651   6.077456
                   11         12         13         14         15
    11  H    0.000000
    12  O    0.981300   0.000000
    13  C    5.619575   4.907882   0.000000
    14  H    5.753488   4.918517   1.090638   0.000000
    15  H    6.238987   5.573045   1.095188   1.770085   0.000000
    16  H    6.238923   5.572969   1.095192   1.770078   1.759058
                   16
    16  H    0.000000
 Stoichiometry    C7H7O2(1+)
 Framework group  C1[X(C7H7O2)]
 Deg. of freedom    42
 Full point group                 C1      NOp   1
 Largest Abelian subgroup         C1      NOp   1
 Largest concise Abelian subgroup C1      NOp   1
                         Standard orientation:                         
 ---------------------------------------------------------------------
 Center     Atomic      Atomic             Coordinates (Angstroms)
 Number     Number       Type             X           Y           Z
 ---------------------------------------------------------------------
      1          6           0       -0.776426   -0.773917    0.000003
      2          6           0        0.571874   -1.100380   -0.000011
      3          6           0        1.527500   -0.084360   -0.000012
      4          6           0        1.108781    1.280927   -0.000009
      5          6           0       -0.213504    1.632275    0.000007
      6          6           0       -1.234501    0.618117    0.000002
      7          1           0        0.865248   -2.143745   -0.000018
      8          1           0        1.871083    2.053310    0.000013
      9          1           0       -0.535164    2.666732    0.000024
     10          8           0       -2.470566    0.822879   -0.000007
     11          1           0       -2.569704   -1.174539    0.000005
     12          8           0       -1.738116   -1.695511    0.000009
     13          6           0        2.996800   -0.404049    0.000005
     14          1           0        3.175674   -1.479919   -0.000052
     15          1           0        3.489619    0.023827   -0.879477
     16          1           0        3.489562    0.023709    0.879581
 ---------------------------------------------------------------------
 Rotational constants (GHZ):           3.1981639           1.3541757           0.9569695
 Leave Link  202 at Mon Dec 08 16:42:12 2025, MaxMem=   104857600 cpu:               0.0 elap:               0.0
 (Enter D:\Gaussian\G16W\l301.exe)
 Standard basis: 6-31G(d) (6D, 7F)
 Ernie: Thresh=  0.10000D-02 Tol=  0.10000D-05 Strict=F.
 There are   149 symmetry adapted cartesian basis functions of A   symmetry.
 There are   149 symmetry adapted basis functions of A   symmetry.
   149 basis functions,   280 primitive gaussians,   149 cartesian basis functions
    32 alpha electrons       32 beta electrons
       nuclear repulsion energy       417.7750601576 Hartrees.
 IExCor=  402 DFT=T Ex+Corr=B3LYP ExCW=0 ScaHFX=  0.200000
 ScaDFX=  0.800000  0.720000  1.000000  0.810000 ScalE2=  1.000000  1.000000
 IRadAn=      5 IRanWt=     -1 IRanGd=            0 ICorTp=0 IEmpDi=  4
 NAtoms=   16 NActive=   16 NUniq=   16 SFac= 1.00D+00 NAtFMM=   60 NAOKFM=F Big=F
 Integral buffers will be    131072 words long.
 Raffenetti 2 integral format.
 Two-electron integral symmetry is turned on.
 Leave Link  301 at Mon Dec 08 16:42:12 2025, MaxMem=   104857600 cpu:               0.0 elap:               0.1
 (Enter D:\Gaussian\G16W\l302.exe)
 NPDir=0 NMtPBC=     1 NCelOv=     1 NCel=       1 NClECP=     1 NCelD=      1
         NCelK=      1 NCelE2=     1 NClLst=     1 CellRange=     0.0.
 One-electron integrals computed using PRISM.
 One-electron integral symmetry used in STVInt
 NBasis=   149 RedAO= T EigKep=  4.54D-04  NBF=   149
 NBsUse=   149 1.00D-06 EigRej= -1.00D+00 NBFU=   149
 Precomputing XC quadrature grid using
 IXCGrd= 4 IRadAn=           5 IRanWt=          -1 IRanGd=           0 AccXCQ= 0.00D+00.
 Generated NRdTot=       0 NPtTot=           0 NUsed=           0 NTot=          32
 NSgBfM=   149   149   149   149   149 MxSgAt=    16 MxSgA2=    16.
 Leave Link  302 at Mon Dec 08 16:42:13 2025, MaxMem=   104857600 cpu:               0.0 elap:               0.2
 (Enter D:\Gaussian\G16W\l303.exe)
 DipDrv:  MaxL=1.
 Leave Link  303 at Mon Dec 08 16:42:13 2025, MaxMem=   104857600 cpu:               0.0 elap:               0.1
 (Enter D:\Gaussian\G16W\l401.exe)
 ExpMin= 1.61D-01 ExpMax= 5.48D+03 ExpMxC= 8.25D+02 IAcc=3 IRadAn=         5 AccDes= 0.00D+00
 Harris functional with IExCor=  402 and IRadAn=       5 diagonalized for initial guess.
 HarFok:  IExCor=  402 AccDes= 0.00D+00 IRadAn=         5 IDoV= 1 UseB2=F ITyADJ=14
 ICtDFT=  3500011 ScaDFX=  1.000000  1.000000  1.000000  1.000000
 FoFCou: FMM=F IPFlag=           0 FMFlag=      100000 FMFlg1=           0
         NFxFlg=           0 DoJE=T BraDBF=F KetDBF=T FulRan=T
         wScrn=  0.000000 ICntrl=       500 IOpCl=  0 I1Cent=   200000004 NGrid=           0
         NMat0=    1 NMatS0=      1 NMatT0=    0 NMatD0=    1 NMtDS0=    0 NMtDT0=    0
 Petite list used in FoFCou.
 Harris En= -421.133795783562    
 JPrj=0 DoOrth=F DoCkMO=F.
 Leave Link  401 at Mon Dec 08 16:42:14 2025, MaxMem=   104857600 cpu:               1.0 elap:               0.9
 (Enter D:\Gaussian\G16W\l502.exe)
 Keep R1 ints in memory in canonical form, NReq=66347889.
 FoFCou: FMM=F IPFlag=           0 FMFlag=           0 FMFlg1=           0
         NFxFlg=           0 DoJE=F BraDBF=F KetDBF=F FulRan=T
         wScrn=  0.000000 ICntrl=       600 IOpCl=  0 I1Cent=           0 NGrid=           0
         NMat0=    1 NMatS0=  11175 NMatT0=    0 NMatD0=    1 NMtDS0=    0 NMtDT0=    0
 Symmetry not used in FoFCou.
 Two-electron integral symmetry not used.
 Closed shell SCF:
 Using DIIS extrapolation, IDIIS=  1040.
 NGot=   104857600 LenX=    42364643 LenY=    42342001
 Requested convergence on RMS density matrix=1.00D-07 within 128 cycles.
 Requested convergence on MAX density matrix=1.00D-05.
 Requested convergence on             energy=1.00D-05.
 No special actions if energy rises.
 Integral accuracy reduced to 1.0D-05 until final iterations.

 Cycle   1  Pass 0  IDiag  1:
 E= -420.935332095404    
 DIIS: error= 2.70D-02 at cycle   1 NSaved=   1.
 NSaved= 1 IEnMin= 1 EnMin= -420.935332095404     IErMin= 1 ErrMin= 2.70D-02
 ErrMax= 2.70D-02  0.00D+00 EMaxC= 1.00D-01 BMatC= 1.80D-01 BMatP= 1.80D-01
 IDIUse=3 WtCom= 7.30D-01 WtEn= 2.70D-01
 Coeff-Com:  0.100D+01
 Coeff-En:   0.100D+01
 Coeff:      0.100D+01
 Gap=     0.072 Goal=   None    Shift=    0.000
 GapD=    0.072 DampG=0.500 DampE=0.500 DampFc=0.2500 IDamp=-1.
 Damping current iteration by 2.50D-01
 RMSDP=6.48D-03 MaxDP=1.69D-01              OVMax= 3.11D-01

 Cycle   2  Pass 0  IDiag  1:
 E= -420.991431835958     Delta-E=       -0.056099740555 Rises=F Damp=T
 DIIS: error= 1.46D-02 at cycle   2 NSaved=   2.
 NSaved= 2 IEnMin= 2 EnMin= -420.991431835958     IErMin= 2 ErrMin= 1.46D-02
 ErrMax= 1.46D-02  0.00D+00 EMaxC= 1.00D-01 BMatC= 4.09D-02 BMatP= 1.80D-01
 IDIUse=3 WtCom= 8.54D-01 WtEn= 1.46D-01
 Coeff-Com: -0.531D+00 0.153D+01
 Coeff-En:   0.000D+00 0.100D+01
 Coeff:     -0.454D+00 0.145D+01
 Gap=     0.146 Goal=   None    Shift=    0.000
 RMSDP=2.44D-03 MaxDP=4.55D-02 DE=-5.61D-02 OVMax= 2.82D-01

 Cycle   3  Pass 0  IDiag  1:
 E= -421.063934004824     Delta-E=       -0.072502168866 Rises=F Damp=F
 DIIS: error= 1.62D-02 at cycle   3 NSaved=   3.
 NSaved= 3 IEnMin= 3 EnMin= -421.063934004824     IErMin= 2 ErrMin= 1.46D-02
 ErrMax= 1.62D-02  0.00D+00 EMaxC= 1.00D-01 BMatC= 3.82D-02 BMatP= 4.09D-02
 IDIUse=3 WtCom= 8.38D-01 WtEn= 1.62D-01
 Coeff-Com: -0.408D+00 0.972D+00 0.436D+00
 Coeff-En:   0.000D+00 0.000D+00 0.100D+01
 Coeff:     -0.342D+00 0.815D+00 0.527D+00
 Gap=     0.105 Goal=   None    Shift=    0.000
 RMSDP=1.87D-03 MaxDP=7.66D-02 DE=-7.25D-02 OVMax= 1.18D-01

 Cycle   4  Pass 0  IDiag  1:
 E= -421.083502294704     Delta-E=       -0.019568289880 Rises=F Damp=F
 DIIS: error= 1.14D-02 at cycle   4 NSaved=   4.
 NSaved= 4 IEnMin= 4 EnMin= -421.083502294704     IErMin= 4 ErrMin= 1.14D-02
 ErrMax= 1.14D-02  0.00D+00 EMaxC= 1.00D-01 BMatC= 1.72D-02 BMatP= 3.82D-02
 IDIUse=3 WtCom= 8.86D-01 WtEn= 1.14D-01
 Coeff-Com: -0.937D-01 0.241D+00 0.387D+00 0.466D+00
 Coeff-En:   0.000D+00 0.000D+00 0.345D+00 0.655D+00
 Coeff:     -0.830D-01 0.213D+00 0.382D+00 0.487D+00
 Gap=     0.096 Goal=   None    Shift=    0.000
 RMSDP=8.94D-04 MaxDP=3.66D-02 DE=-1.96D-02 OVMax= 5.44D-02

 Cycle   5  Pass 0  IDiag  1:
 E= -421.097009735577     Delta-E=       -0.013507440873 Rises=F Damp=F
 DIIS: error= 2.47D-03 at cycle   5 NSaved=   5.
 NSaved= 5 IEnMin= 5 EnMin= -421.097009735577     IErMin= 5 ErrMin= 2.47D-03
 ErrMax= 2.47D-03  0.00D+00 EMaxC= 1.00D-01 BMatC= 1.02D-03 BMatP= 1.72D-02
 IDIUse=3 WtCom= 9.75D-01 WtEn= 2.47D-02
 Coeff-Com: -0.721D-02 0.289D-01 0.192D+00 0.314D+00 0.472D+00
 Coeff-En:   0.000D+00 0.000D+00 0.000D+00 0.968D-02 0.990D+00
 Coeff:     -0.704D-02 0.282D-01 0.187D+00 0.307D+00 0.485D+00
 Gap=     0.098 Goal=   None    Shift=    0.000
 RMSDP=2.42D-04 MaxDP=6.03D-03 DE=-1.35D-02 OVMax= 1.83D-02

 Cycle   6  Pass 0  IDiag  1:
 E= -421.097901993553     Delta-E=       -0.000892257976 Rises=F Damp=F
 DIIS: error= 9.82D-04 at cycle   6 NSaved=   6.
 NSaved= 6 IEnMin= 6 EnMin= -421.097901993553     IErMin= 6 ErrMin= 9.82D-04
 ErrMax= 9.82D-04  0.00D+00 EMaxC= 1.00D-01 BMatC= 1.11D-04 BMatP= 1.02D-03
 IDIUse=3 WtCom= 9.90D-01 WtEn= 9.82D-03
 Coeff-Com:  0.347D-02-0.314D-02 0.780D-01 0.138D+00 0.304D+00 0.480D+00
 Coeff-En:   0.000D+00 0.000D+00 0.000D+00 0.000D+00 0.990D-01 0.901D+00
 Coeff:      0.344D-02-0.311D-02 0.773D-01 0.136D+00 0.302D+00 0.484D+00
 Gap=     0.099 Goal=   None    Shift=    0.000
 RMSDP=8.30D-05 MaxDP=2.61D-03 DE=-8.92D-04 OVMax= 7.34D-03

 Cycle   7  Pass 0  IDiag  1:
 E= -421.098005998848     Delta-E=       -0.000104005295 Rises=F Damp=F
 DIIS: error= 3.32D-04 at cycle   7 NSaved=   7.
 NSaved= 7 IEnMin= 7 EnMin= -421.098005998848     IErMin= 7 ErrMin= 3.32D-04
 ErrMax= 3.32D-04  0.00D+00 EMaxC= 1.00D-01 BMatC= 1.71D-05 BMatP= 1.11D-04
 IDIUse=3 WtCom= 9.97D-01 WtEn= 3.32D-03
 Coeff-Com:  0.975D-03-0.219D-02 0.211D-01 0.366D-01 0.124D+00 0.325D+00
 Coeff-Com:  0.494D+00
 Coeff-En:   0.000D+00 0.000D+00 0.000D+00 0.000D+00 0.000D+00 0.134D+00
 Coeff-En:   0.866D+00
 Coeff:      0.972D-03-0.219D-02 0.210D-01 0.365D-01 0.123D+00 0.325D+00
 Coeff:      0.496D+00
 Gap=     0.099 Goal=   None    Shift=    0.000
 RMSDP=3.17D-05 MaxDP=1.03D-03 DE=-1.04D-04 OVMax= 2.37D-03

 Cycle   8  Pass 0  IDiag  1:
 E= -421.098021444419     Delta-E=       -0.000015445570 Rises=F Damp=F
 DIIS: error= 1.20D-04 at cycle   8 NSaved=   8.
 NSaved= 8 IEnMin= 8 EnMin= -421.098021444419     IErMin= 8 ErrMin= 1.20D-04
 ErrMax= 1.20D-04  0.00D+00 EMaxC= 1.00D-01 BMatC= 2.23D-06 BMatP= 1.71D-05
 IDIUse=3 WtCom= 9.99D-01 WtEn= 1.20D-03
 Coeff-Com:  0.642D-03-0.187D-02 0.330D-02 0.492D-02 0.425D-01 0.151D+00
 Coeff-Com:  0.318D+00 0.482D+00
 Coeff-En:   0.000D+00 0.000D+00 0.000D+00 0.000D+00 0.000D+00 0.000D+00
 Coeff-En:   0.733D-01 0.927D+00
 Coeff:      0.642D-03-0.186D-02 0.329D-02 0.492D-02 0.425D-01 0.151D+00
 Coeff:      0.318D+00 0.482D+00
 Gap=     0.099 Goal=   None    Shift=    0.000
 RMSDP=1.11D-05 MaxDP=4.07D-04 DE=-1.54D-05 OVMax= 9.42D-04

 Cycle   9  Pass 0  IDiag  1:
 E= -421.098023436759     Delta-E=       -0.000001992340 Rises=F Damp=F
 DIIS: error= 2.37D-05 at cycle   9 NSaved=   9.
 NSaved= 9 IEnMin= 9 EnMin= -421.098023436759     IErMin= 9 ErrMin= 2.37D-05
 ErrMax= 2.37D-05  0.00D+00 EMaxC= 1.00D-01 BMatC= 1.71D-07 BMatP= 2.23D-06
 IDIUse=1 WtCom= 1.00D+00 WtEn= 0.00D+00
 Coeff-Com:  0.122D-03-0.498D-03-0.349D-03-0.206D-02 0.948D-02 0.451D-01
 Coeff-Com:  0.116D+00 0.266D+00 0.566D+00
 Coeff:      0.122D-03-0.498D-03-0.349D-03-0.206D-02 0.948D-02 0.451D-01
 Coeff:      0.116D+00 0.266D+00 0.566D+00
 Gap=     0.099 Goal=   None    Shift=    0.000
 RMSDP=3.15D-06 MaxDP=6.20D-05 DE=-1.99D-06 OVMax= 1.66D-04

 Initial convergence to 1.0D-05 achieved.  Increase integral accuracy.
 Cycle  10  Pass 1  IDiag  1:
 E= -421.098011555402     Delta-E=        0.000011881356 Rises=F Damp=F
 DIIS: error= 1.21D-05 at cycle   1 NSaved=   1.
 NSaved= 1 IEnMin= 1 EnMin= -421.098011555402     IErMin= 1 ErrMin= 1.21D-05
 ErrMax= 1.21D-05  0.00D+00 EMaxC= 1.00D-01 BMatC= 2.37D-08 BMatP= 2.37D-08
 IDIUse=1 WtCom= 1.00D+00 WtEn= 0.00D+00
 Coeff-Com:  0.100D+01
 Coeff:      0.100D+01
 Gap=     0.099 Goal=   None    Shift=    0.000
 RMSDP=3.15D-06 MaxDP=6.20D-05 DE= 1.19D-05 OVMax= 2.14D-04

 Cycle  11  Pass 1  IDiag  1:
 E= -421.098011499634     Delta-E=        0.000000055768 Rises=F Damp=F
 DIIS: error= 2.87D-05 at cycle   2 NSaved=   2.
 NSaved= 2 IEnMin= 1 EnMin= -421.098011555402     IErMin= 1 ErrMin= 1.21D-05
 ErrMax= 2.87D-05  0.00D+00 EMaxC= 1.00D-01 BMatC= 1.00D-07 BMatP= 2.37D-08
 IDIUse=1 WtCom= 1.00D+00 WtEn= 0.00D+00
 Coeff-Com:  0.681D+00 0.319D+00
 Coeff:      0.681D+00 0.319D+00
 Gap=     0.099 Goal=   None    Shift=    0.000
 RMSDP=1.85D-06 MaxDP=7.62D-05 DE= 5.58D-08 OVMax= 1.12D-04

 Cycle  12  Pass 1  IDiag  1:
 E= -421.098011582532     Delta-E=       -0.000000082898 Rises=F Damp=F
 DIIS: error= 4.59D-06 at cycle   3 NSaved=   3.
 NSaved= 3 IEnMin= 3 EnMin= -421.098011582532     IErMin= 3 ErrMin= 4.59D-06
 ErrMax= 4.59D-06  0.00D+00 EMaxC= 1.00D-01 BMatC= 3.34D-09 BMatP= 2.37D-08
 IDIUse=1 WtCom= 1.00D+00 WtEn= 0.00D+00
 Coeff-Com:  0.378D+00 0.195D+00 0.427D+00
 Coeff:      0.378D+00 0.195D+00 0.427D+00
 Gap=     0.099 Goal=   None    Shift=    0.000
 RMSDP=4.61D-07 MaxDP=1.74D-05 DE=-8.29D-08 OVMax= 2.62D-05

 Cycle  13  Pass 1  IDiag  1:
 E= -421.098011584972     Delta-E=       -0.000000002440 Rises=F Damp=F
 DIIS: error= 1.76D-06 at cycle   4 NSaved=   4.
 NSaved= 4 IEnMin= 4 EnMin= -421.098011584972     IErMin= 4 ErrMin= 1.76D-06
 ErrMax= 1.76D-06  0.00D+00 EMaxC= 1.00D-01 BMatC= 3.83D-10 BMatP= 3.34D-09
 IDIUse=1 WtCom= 1.00D+00 WtEn= 0.00D+00
 Coeff-Com:  0.581D-01 0.222D-01 0.228D+00 0.692D+00
 Coeff:      0.581D-01 0.222D-01 0.228D+00 0.692D+00
 Gap=     0.099 Goal=   None    Shift=    0.000
 RMSDP=2.64D-07 MaxDP=8.04D-06 DE=-2.44D-09 OVMax= 3.35D-05

 Cycle  14  Pass 1  IDiag  1:
 E= -421.098011585262     Delta-E=       -0.000000000290 Rises=F Damp=F
 DIIS: error= 1.40D-06 at cycle   5 NSaved=   5.
 NSaved= 5 IEnMin= 5 EnMin= -421.098011585262     IErMin= 5 ErrMin= 1.40D-06
 ErrMax= 1.40D-06  0.00D+00 EMaxC= 1.00D-01 BMatC= 2.65D-10 BMatP= 3.83D-10
 IDIUse=1 WtCom= 1.00D+00 WtEn= 0.00D+00
 Coeff-Com: -0.264D-01-0.229D-01 0.576D-01 0.534D+00 0.458D+00
 Coeff:     -0.264D-01-0.229D-01 0.576D-01 0.534D+00 0.458D+00
 Gap=     0.099 Goal=   None    Shift=    0.000
 RMSDP=1.04D-07 MaxDP=2.81D-06 DE=-2.90D-10 OVMax= 4.94D-06

 Cycle  15  Pass 1  IDiag  1:
 E= -421.098011585533     Delta-E=       -0.000000000270 Rises=F Damp=F
 DIIS: error= 2.31D-07 at cycle   6 NSaved=   6.
 NSaved= 6 IEnMin= 6 EnMin= -421.098011585533     IErMin= 6 ErrMin= 2.31D-07
 ErrMax= 2.31D-07  0.00D+00 EMaxC= 1.00D-01 BMatC= 1.67D-11 BMatP= 2.65D-10
 IDIUse=1 WtCom= 1.00D+00 WtEn= 0.00D+00
 Coeff-Com: -0.216D-01-0.178D-01-0.755D-02 0.248D+00 0.190D+00 0.609D+00
 Coeff:     -0.216D-01-0.178D-01-0.755D-02 0.248D+00 0.190D+00 0.609D+00
 Gap=     0.099 Goal=   None    Shift=    0.000
 RMSDP=3.35D-08 MaxDP=7.67D-07 DE=-2.70D-10 OVMax= 1.89D-06

 SCF Done:  E(RB3LYP) =  -421.098011586     A.U. after   15 cycles
            NFock= 15  Conv=0.33D-07     -V/T= 2.0093
 KE= 4.172120094387D+02 PE=-1.803308001750D+03 EE= 5.472229205682D+02
 Leave Link  502 at Mon Dec 08 16:42:26 2025, MaxMem=   104857600 cpu:              12.0 elap:              12.0
 (Enter D:\Gaussian\G16W\l601.exe)
 Copying SCF densities to generalized density rwf, IOpCl= 0 IROHF=0.

 **********************************************************************

            Population analysis using the SCF density.

 **********************************************************************

 Orbital symmetries:
       Occupied  (A) (A) (A) (A) (A) (A) (A) (A) (A) (A) (A) (A)
                 (A) (A) (A) (A) (A) (A) (A) (A) (A) (A) (A) (A)
                 (A) (A) (A) (A) (A) (A) (A) (A)
       Virtual   (A) (A) (A) (A) (A) (A) (A) (A) (A) (A) (A) (A)
                 (A) (A) (A) (A) (A) (A) (A) (A) (A) (A) (A) (A)
                 (A) (A) (A) (A) (A) (A) (A) (A) (A) (A) (A) (A)
                 (A) (A) (A) (A) (A) (A) (A) (A) (A) (A) (A) (A)
                 (A) (A) (A) (A) (A) (A) (A) (A) (A) (A) (A) (A)
                 (A) (A) (A) (A) (A) (A) (A) (A) (A) (A) (A) (A)
                 (A) (A) (A) (A) (A) (A) (A) (A) (A) (A) (A) (A)
                 (A) (A) (A) (A) (A) (A) (A) (A) (A) (A) (A) (A)
                 (A) (A) (A) (A) (A) (A) (A) (A) (A) (A) (A) (A)
                 (A) (A) (A) (A) (A) (A) (A) (A) (A)
 The electronic state is 1-A.
 Alpha  occ. eigenvalues --  -19.42381 -19.38775 -10.50798 -10.49995 -10.45810
 Alpha  occ. eigenvalues --  -10.41742 -10.41494 -10.40640 -10.37135  -1.31246
 Alpha  occ. eigenvalues --   -1.25186  -1.08013  -0.97718  -0.97030  -0.87935
 Alpha  occ. eigenvalues --   -0.83329  -0.82562  -0.74790  -0.71602  -0.69018
 Alpha  occ. eigenvalues --   -0.65922  -0.65646  -0.63867  -0.61593  -0.60910
 Alpha  occ. eigenvalues --   -0.59354  -0.58827  -0.57069  -0.56149  -0.52413
 Alpha  occ. eigenvalues --   -0.49101  -0.45915
 Alpha virt. eigenvalues --   -0.36053  -0.20786  -0.20105  -0.09296  -0.06653
 Alpha virt. eigenvalues --   -0.05859  -0.04337  -0.03415   0.00377   0.00641
 Alpha virt. eigenvalues --    0.02003   0.02314   0.04209   0.06774   0.10658
 Alpha virt. eigenvalues --    0.12674   0.14869   0.16901   0.26081   0.28961
 Alpha virt. eigenvalues --    0.29504   0.30094   0.34759   0.35005   0.36177
 Alpha virt. eigenvalues --    0.38503   0.38777   0.40602   0.43800   0.44240
 Alpha virt. eigenvalues --    0.45385   0.46162   0.51007   0.51723   0.51945
 Alpha virt. eigenvalues --    0.55134   0.57301   0.57656   0.64302   0.66365
 Alpha virt. eigenvalues --    0.69342   0.70205   0.71995   0.72921   0.73575
 Alpha virt. eigenvalues --    0.75562   0.76365   0.78336   0.78895   0.83089
 Alpha virt. eigenvalues --    0.84689   0.88466   0.91200   0.94141   0.98568
 Alpha virt. eigenvalues --    0.99717   1.04124   1.05919   1.10579   1.12582
 Alpha virt. eigenvalues --    1.16704   1.18825   1.19457   1.21777   1.23810
 Alpha virt. eigenvalues --    1.26194   1.44398   1.47427   1.48656   1.52389
 Alpha virt. eigenvalues --    1.57515   1.57550   1.59412   1.65400   1.65991
 Alpha virt. eigenvalues --    1.68705   1.70327   1.70682   1.71243   1.74392
 Alpha virt. eigenvalues --    1.75794   1.81352   1.86292   1.86348   1.91108
 Alpha virt. eigenvalues --    1.94331   2.03555   2.06422   2.08360   2.09624
 Alpha virt. eigenvalues --    2.13502   2.15829   2.16560   2.21408   2.22702
 Alpha virt. eigenvalues --    2.34591   2.38867   2.39051   2.42746   2.47713
 Alpha virt. eigenvalues --    2.53844   2.59208   2.62181   2.67077   2.70604
 Alpha virt. eigenvalues --    2.81703   2.99877   3.15508   3.63913   3.84214
 Alpha virt. eigenvalues --    3.86521   3.95385   3.99600   4.10063   4.14915
 Alpha virt. eigenvalues --    4.33613   4.70596
          Condensed to atoms (all electrons):
               1          2          3          4          5          6
     1  C    4.785404   0.435291   0.006980  -0.020142  -0.085727   0.267253
     2  C    0.435291   5.073635   0.527787  -0.051929  -0.023484  -0.050611
     3  C    0.006980   0.527787   4.659320   0.422869  -0.017405  -0.020508
     4  C   -0.020142  -0.051929   0.422869   4.983844   0.518809  -0.011666
     5  C   -0.085727  -0.023484  -0.017405   0.518809   5.082071   0.373159
     6  C    0.267253  -0.050611  -0.020508  -0.011666   0.373159   4.632492
     7  H   -0.027769   0.356171  -0.031615   0.004759  -0.000481   0.003928
     8  H   -0.000130   0.004620  -0.041522   0.366856  -0.026870   0.002986
     9  H    0.004712  -0.000014   0.003117  -0.027641   0.356493  -0.027978
    10  O   -0.061219   0.006161  -0.000282   0.004257  -0.058082   0.449993
    11  H   -0.038782   0.006637  -0.000085  -0.000212   0.002412  -0.011100
    12  O    0.347868  -0.050432   0.002161   0.000001   0.004475  -0.046401
    13  C    0.005831  -0.042785   0.364293  -0.058134   0.004722   0.000331
    14  H    0.000457  -0.002352  -0.031031   0.003592  -0.000144  -0.000006
    15  H   -0.000232   0.000551  -0.021754  -0.001695  -0.000036   0.000005
    16  H   -0.000232   0.000550  -0.021752  -0.001694  -0.000036   0.000005
               7          8          9         10         11         12
     1  C   -0.027769  -0.000130   0.004712  -0.061219  -0.038782   0.347868
     2  C    0.356171   0.004620  -0.000014   0.006161   0.006637  -0.050432
     3  C   -0.031615  -0.041522   0.003117  -0.000282  -0.000085   0.002161
     4  C    0.004759   0.366856  -0.027641   0.004257  -0.000212   0.000001
     5  C   -0.000481  -0.026870   0.356493  -0.058082   0.002412   0.004475
     6  C    0.003928   0.002986  -0.027978   0.449993  -0.011100  -0.046401
     7  H    0.467995  -0.000094   0.000010  -0.000046  -0.000267  -0.001541
     8  H   -0.000094   0.473257  -0.004134  -0.000045   0.000001   0.000002
     9  H    0.000010  -0.004134   0.452091  -0.000409  -0.000033  -0.000033
    10  O   -0.000046  -0.000045  -0.000409   8.026202   0.046504  -0.023106
    11  H   -0.000267   0.000001  -0.000033   0.046504   0.295962   0.225790
    12  O   -0.001541   0.000002  -0.000033  -0.023106   0.225790   8.044253
    13  C   -0.006643  -0.004825  -0.000108   0.000000   0.000003  -0.000049
    14  H    0.004042   0.000037   0.000001   0.000000   0.000000  -0.000001
    15  H    0.000115   0.001411   0.000000   0.000000   0.000000   0.000001
    16  H    0.000115   0.001411   0.000000   0.000000   0.000000   0.000001
              13         14         15         16
     1  C    0.005831   0.000457  -0.000232  -0.000232
     2  C   -0.042785  -0.002352   0.000551   0.000550
     3  C    0.364293  -0.031031  -0.021754  -0.021752
     4  C   -0.058134   0.003592  -0.001695  -0.001694
     5  C    0.004722  -0.000144  -0.000036  -0.000036
     6  C    0.000331  -0.000006   0.000005   0.000005
     7  H   -0.006643   0.004042   0.000115   0.000115
     8  H   -0.004825   0.000037   0.001411   0.001411
     9  H   -0.000108   0.000001   0.000000   0.000000
    10  O    0.000000   0.000000   0.000000   0.000000
    11  H    0.000003   0.000000   0.000000   0.000000
    12  O   -0.000049  -0.000001   0.000001   0.000001
    13  C    5.197349   0.373458   0.359796   0.359793
    14  H    0.373458   0.471051  -0.020753  -0.020753
    15  H    0.359796  -0.020753   0.460828  -0.019055
    16  H    0.359793  -0.020753  -0.019055   0.460826
 Mulliken charges:
               1
     1  C    0.380440
     2  C   -0.189796
     3  C    0.199428
     4  C   -0.131873
     5  C   -0.129874
     6  C    0.438118
     7  H    0.231322
     8  H    0.227040
     9  H    0.243926
    10  O   -0.389928
    11  H    0.473172
    12  O   -0.502989
    13  C   -0.553032
    14  H    0.222402
    15  H    0.240820
    16  H    0.240824
 Sum of Mulliken charges =   1.00000
 Mulliken charges with hydrogens summed into heavy atoms:
               1
     1  C    0.380440
     2  C    0.041526
     3  C    0.199428
     4  C    0.095167
     5  C    0.114052
     6  C    0.438118
    10  O   -0.389928
    12  O   -0.029817
    13  C    0.151015
 Electronic spatial extent (au):  <R**2>=           1153.0315
 Charge=              1.0000 electrons
 Dipole moment (field-independent basis, Debye):
    X=              3.1342    Y=              0.4012    Z=              0.0001  Tot=              3.1598
 Quadrupole moment (field-independent basis, Debye-Ang):
   XX=            -28.9447   YY=            -40.0251   ZZ=            -49.1281
   XY=              2.6481   XZ=              0.0001   YZ=              0.0001
 Traceless Quadrupole moment (field-independent basis, Debye-Ang):
   XX=             10.4213   YY=             -0.6591   ZZ=             -9.7621
   XY=              2.6481   XZ=              0.0001   YZ=              0.0001
 Octapole moment (field-independent basis, Debye-Ang**2):
  XXX=             20.2113  YYY=              9.5218  ZZZ=              0.0003  XYY=              2.9430
  XXY=            -14.2259  XXZ=              0.0005  XZZ=             -4.5285  YZZ=             -1.1676
  YYZ=              0.0000  XYZ=             -0.0001
 Hexadecapole moment (field-independent basis, Debye-Ang**3):
 XXXX=           -763.5669 YYYY=           -368.4073 ZZZZ=            -50.7561 XXXY=             45.2698
 XXXZ=              0.0009 YYYX=             -6.7315 YYYZ=              0.0010 ZZZX=              0.0010
 ZZZY=             -0.0001 XXYY=           -207.0217 XXZZ=           -154.4328 YYZZ=            -83.4409
 XXYZ=             -0.0003 YYXZ=             -0.0004 ZZXY=              2.5988
 N-N= 4.177750601576D+02 E-N=-1.803307979288D+03  KE= 4.172120094387D+02
 No NMR shielding tensors so no spin-rotation constants.
 Leave Link  601 at Mon Dec 08 16:42:26 2025, MaxMem=   104857600 cpu:               0.0 elap:               0.2
 (Enter D:\Gaussian\G16W\l9999.exe)
 1|1|UNPC-PC-20250526LCFF|SP|RB3LYP|6-31G(d)|C7H7O2(1+)|ADMINISTRATOR|0
 8-Dec-2025|0||#p b3lyp/6-31g(d) out=wfn scf=conver=7||Generated by Mul
 tiwfn (http://sobereva.com/multiwfn)||1,1|C,0,-0.776426,-0.773917,0.00
 0003|C,0,0.571874,-1.10038,-0.000011|C,0,1.5275,-0.08436,-0.000012|C,0
 ,1.108781,1.280927,-0.000009|C,0,-0.213504,1.632275,0.000007|C,0,-1.23
 4501,0.618117,0.000002|H,0,0.865248,-2.143745,-0.000018|H,0,1.871083,2
 .05331,0.000013|H,0,-0.535164,2.666732,0.000024|O,0,-2.470566,0.822879
 ,-0.000007|H,0,-2.569704,-1.174539,0.000005|O,0,-1.738116,-1.695511,0.
 000009|C,0,2.9968,-0.404049,0.000005|H,0,3.175674,-1.479919,-0.000052|
 H,0,3.489619,0.023827,-0.879477|H,0,3.489562,0.023709,0.879581||Versio
 n=EM64W-G16RevA.03|State=1-A|HF=-421.0980116|RMSD=3.347e-008|Dipole=1.
 2330838,0.1578379,0.0000257|Quadrupole=7.7479449,-0.4900416,-7.2579033
 ,1.9688039,0.0000582,0.0000681|PG=C01 [X(C7H7O2)]||@

 Writing a WFN file to "N-1.wfn"


 There are more things in heaven and earth, Horatio,
 than are dreamt of in your philosophy.
                   -- Hamlet, Act I, Scene 5
 Job cpu time:       0 days  0 hours  0 minutes 14.0 seconds.
 Elapsed time:       0 days  0 hours  0 minutes 13.9 seconds.
 File lengths (MBytes):  RWF=     15 Int=      0 D2E=      0 Chk=      2 Scr=      1
 Normal termination of Gaussian 16 at Mon Dec 08 16:42:26 2025.
