 Generated by Multiwfn (http://sobereva.com/multiwfn)
GAUSSIAN             32 MOL ORBITALS    280 PRIMITIVES       16 NUCLEI
  C    1    (CENTRE  1)  -1.46723279 -1.46249096  0.00000561  CHARGE =  6.0
  C    2    (CENTRE  2)   1.08068489 -2.07941684 -0.00002085  CHARGE =  6.0
  C    3    (CENTRE  3)   2.88655647 -0.15941745 -0.00002273  CHARGE =  6.0
  C    4    (CENTRE  4)   2.09529245  2.42060112 -0.00001707  CHARGE =  6.0
  C    5    (CENTRE  5)  -0.40346400  3.08455283  0.00001317  CHARGE =  6.0
  C    6    (CENTRE  6)  -2.33286887  1.16807213  0.00000372  CHARGE =  6.0
  H    7    (CENTRE  7)   1.63508123 -4.05109098 -0.00003407  CHARGE =  1.0
  H    8    (CENTRE  8)   3.53583458  3.88019334  0.00002451  CHARGE =  1.0
  H    9    (CENTRE  9)  -1.01131314  5.03939330  0.00004530  CHARGE =  1.0
  O   10    (CENTRE 10)  -4.66869315  1.55501643 -0.00001329  CHARGE =  8.0
  H   11    (CENTRE 11)  -4.85603714 -2.21955653  0.00000939  CHARGE =  1.0
  O   12    (CENTRE 12)  -3.28456366 -3.20405106  0.00001695  CHARGE =  8.0
  C   13    (CENTRE 13)   5.66313101 -0.76354235  0.00000939  CHARGE =  6.0
  H   14    (CENTRE 14)   6.00115371 -2.79664202 -0.00009832  CHARGE =  1.0
  H   15    (CENTRE 15)   6.59442402  0.04502603 -1.66197072  CHARGE =  1.0
  H   16    (CENTRE 16)   6.59431630  0.04480304  1.66216714  CHARGE =  1.0
CENTRE ASSIGNMENTS    1  1  1  1  1  1  1  1  1  1  1  1  1  1  1  1  1  1  1  1
CENTRE ASSIGNMENTS    1  1  1  1  1  1  1  1  2  2  2  2  2  2  2  2  2  2  2  2
CENTRE ASSIGNMENTS    2  2  2  2  2  2  2  2  2  2  2  2  2  2  2  2  3  3  3  3
CENTRE ASSIGNMENTS    3  3  3  3  3  3  3  3  3  3  3  3  3  3  3  3  3  3  3  3
CENTRE ASSIGNMENTS    3  3  3  3  4  4  4  4  4  4  4  4  4  4  4  4  4  4  4  4
CENTRE ASSIGNMENTS    4  4  4  4  4  4  4  4  4  4  4  4  5  5  5  5  5  5  5  5
CENTRE ASSIGNMENTS    5  5  5  5  5  5  5  5  5  5  5  5  5  5  5  5  5  5  5  5
CENTRE ASSIGNMENTS    6  6  6  6  6  6  6  6  6  6  6  6  6  6  6  6  6  6  6  6
CENTRE ASSIGNMENTS    6  6  6  6  6  6  6  6  7  7  7  7  8  8  8  8  9  9  9  9
CENTRE ASSIGNMENTS   10 10 10 10 10 10 10 10 10 10 10 10 10 10 10 10 10 10 10 10
CENTRE ASSIGNMENTS   10 10 10 10 10 10 10 10 11 11 11 11 12 12 12 12 12 12 12 12
CENTRE ASSIGNMENTS   12 12 12 12 12 12 12 12 12 12 12 12 12 12 12 12 12 12 12 12
CENTRE ASSIGNMENTS   13 13 13 13 13 13 13 13 13 13 13 13 13 13 13 13 13 13 13 13
CENTRE ASSIGNMENTS   13 13 13 13 13 13 13 13 14 14 14 14 15 15 15 15 16 16 16 16
TYPE ASSIGNMENTS      1  1  1  1  1  1  1  1  1  2  2  2  3  3  3  4  4  4  1  2
TYPE ASSIGNMENTS      3  4  5  6  7  8  9 10  1  1  1  1  1  1  1  1  1  2  2  2
TYPE ASSIGNMENTS      3  3  3  4  4  4  1  2  3  4  5  6  7  8  9 10  1  1  1  1
TYPE ASSIGNMENTS      1  1  1  1  1  2  2  2  3  3  3  4  4  4  1  2  3  4  5  6
TYPE ASSIGNMENTS      7  8  9 10  1  1  1  1  1  1  1  1  1  2  2  2  3  3  3  4
TYPE ASSIGNMENTS      4  4  1  2  3  4  5  6  7  8  9 10  1  1  1  1  1  1  1  1
TYPE ASSIGNMENTS      1  2  2  2  3  3  3  4  4  4  1  2  3  4  5  6  7  8  9 10
TYPE ASSIGNMENTS      1  1  1  1  1  1  1  1  1  2  2  2  3  3  3  4  4  4  1  2
TYPE ASSIGNMENTS      3  4  5  6  7  8  9 10  1  1  1  1  1  1  1  1  1  1  1  1
TYPE ASSIGNMENTS      1  1  1  1  1  1  1  1  1  2  2  2  3  3  3  4  4  4  1  2
TYPE ASSIGNMENTS      3  4  5  6  7  8  9 10  1  1  1  1  1  1  1  1  1  1  1  1
TYPE ASSIGNMENTS      1  2  2  2  3  3  3  4  4  4  1  2  3  4  5  6  7  8  9 10
TYPE ASSIGNMENTS      1  1  1  1  1  1  1  1  1  2  2  2  3  3  3  4  4  4  1  2
TYPE ASSIGNMENTS      3  4  5  6  7  8  9 10  1  1  1  1  1  1  1  1  1  1  1  1
EXPONENTS  0.3047525D+04 0.4573695D+03 0.1039487D+03 0.2921016D+02 0.9286663D+01
EXPONENTS  0.3163927D+01 0.7868272D+01 0.1881289D+01 0.5442493D+00 0.7868272D+01
EXPONENTS  0.1881289D+01 0.5442493D+00 0.7868272D+01 0.1881289D+01 0.5442493D+00
EXPONENTS  0.7868272D+01 0.1881289D+01 0.5442493D+00 0.1687145D+00 0.1687145D+00
EXPONENTS  0.1687145D+00 0.1687145D+00 0.8000000D+00 0.8000000D+00 0.8000000D+00
EXPONENTS  0.8000000D+00 0.8000000D+00 0.8000000D+00 0.3047525D+04 0.4573695D+03
EXPONENTS  0.1039487D+03 0.2921016D+02 0.9286663D+01 0.3163927D+01 0.7868272D+01
EXPONENTS  0.1881289D+01 0.5442493D+00 0.7868272D+01 0.1881289D+01 0.5442493D+00
EXPONENTS  0.7868272D+01 0.1881289D+01 0.5442493D+00 0.7868272D+01 0.1881289D+01
EXPONENTS  0.5442493D+00 0.1687145D+00 0.1687145D+00 0.1687145D+00 0.1687145D+00
EXPONENTS  0.8000000D+00 0.8000000D+00 0.8000000D+00 0.8000000D+00 0.8000000D+00
EXPONENTS  0.8000000D+00 0.3047525D+04 0.4573695D+03 0.1039487D+03 0.2921016D+02
EXPONENTS  0.9286663D+01 0.3163927D+01 0.7868272D+01 0.1881289D+01 0.5442493D+00
EXPONENTS  0.7868272D+01 0.1881289D+01 0.5442493D+00 0.7868272D+01 0.1881289D+01
EXPONENTS  0.5442493D+00 0.7868272D+01 0.1881289D+01 0.5442493D+00 0.1687145D+00
EXPONENTS  0.1687145D+00 0.1687145D+00 0.1687145D+00 0.8000000D+00 0.8000000D+00
EXPONENTS  0.8000000D+00 0.8000000D+00 0.8000000D+00 0.8000000D+00 0.3047525D+04
EXPONENTS  0.4573695D+03 0.1039487D+03 0.2921016D+02 0.9286663D+01 0.3163927D+01
EXPONENTS  0.7868272D+01 0.1881289D+01 0.5442493D+00 0.7868272D+01 0.1881289D+01
EXPONENTS  0.5442493D+00 0.7868272D+01 0.1881289D+01 0.5442493D+00 0.7868272D+01
EXPONENTS  0.1881289D+01 0.5442493D+00 0.1687145D+00 0.1687145D+00 0.1687145D+00
EXPONENTS  0.1687145D+00 0.8000000D+00 0.8000000D+00 0.8000000D+00 0.8000000D+00
EXPONENTS  0.8000000D+00 0.8000000D+00 0.3047525D+04 0.4573695D+03 0.1039487D+03
EXPONENTS  0.2921016D+02 0.9286663D+01 0.3163927D+01 0.7868272D+01 0.1881289D+01
EXPONENTS  0.5442493D+00 0.7868272D+01 0.1881289D+01 0.5442493D+00 0.7868272D+01
EXPONENTS  0.1881289D+01 0.5442493D+00 0.7868272D+01 0.1881289D+01 0.5442493D+00
EXPONENTS  0.1687145D+00 0.1687145D+00 0.1687145D+00 0.1687145D+00 0.8000000D+00
EXPONENTS  0.8000000D+00 0.8000000D+00 0.8000000D+00 0.8000000D+00 0.8000000D+00
EXPONENTS  0.3047525D+04 0.4573695D+03 0.1039487D+03 0.2921016D+02 0.9286663D+01
EXPONENTS  0.3163927D+01 0.7868272D+01 0.1881289D+01 0.5442493D+00 0.7868272D+01
EXPONENTS  0.1881289D+01 0.5442493D+00 0.7868272D+01 0.1881289D+01 0.5442493D+00
EXPONENTS  0.7868272D+01 0.1881289D+01 0.5442493D+00 0.1687145D+00 0.1687145D+00
EXPONENTS  0.1687145D+00 0.1687145D+00 0.8000000D+00 0.8000000D+00 0.8000000D+00
EXPONENTS  0.8000000D+00 0.8000000D+00 0.8000000D+00 0.1873114D+02 0.2825394D+01
EXPONENTS  0.6401217D+00 0.1612778D+00 0.1873114D+02 0.2825394D+01 0.6401217D+00
EXPONENTS  0.1612778D+00 0.1873114D+02 0.2825394D+01 0.6401217D+00 0.1612778D+00
EXPONENTS  0.5484672D+04 0.8252349D+03 0.1880470D+03 0.5296450D+02 0.1689757D+02
EXPONENTS  0.5799635D+01 0.1553962D+02 0.3599934D+01 0.1013762D+01 0.1553962D+02
EXPONENTS  0.3599934D+01 0.1013762D+01 0.1553962D+02 0.3599934D+01 0.1013762D+01
EXPONENTS  0.1553962D+02 0.3599934D+01 0.1013762D+01 0.2700058D+00 0.2700058D+00
EXPONENTS  0.2700058D+00 0.2700058D+00 0.8000000D+00 0.8000000D+00 0.8000000D+00
EXPONENTS  0.8000000D+00 0.8000000D+00 0.8000000D+00 0.1873114D+02 0.2825394D+01
EXPONENTS  0.6401217D+00 0.1612778D+00 0.5484672D+04 0.8252349D+03 0.1880470D+03
EXPONENTS  0.5296450D+02 0.1689757D+02 0.5799635D+01 0.1553962D+02 0.3599934D+01
EXPONENTS  0.1013762D+01 0.1553962D+02 0.3599934D+01 0.1013762D+01 0.1553962D+02
EXPONENTS  0.3599934D+01 0.1013762D+01 0.1553962D+02 0.3599934D+01 0.1013762D+01
EXPONENTS  0.2700058D+00 0.2700058D+00 0.2700058D+00 0.2700058D+00 0.8000000D+00
EXPONENTS  0.8000000D+00 0.8000000D+00 0.8000000D+00 0.8000000D+00 0.8000000D+00
EXPONENTS  0.3047525D+04 0.4573695D+03 0.1039487D+03 0.2921016D+02 0.9286663D+01
EXPONENTS  0.3163927D+01 0.7868272D+01 0.1881289D+01 0.5442493D+00 0.7868272D+01
EXPONENTS  0.1881289D+01 0.5442493D+00 0.7868272D+01 0.1881289D+01 0.5442493D+00
EXPONENTS  0.7868272D+01 0.1881289D+01 0.5442493D+00 0.1687145D+00 0.1687145D+00
EXPONENTS  0.1687145D+00 0.1687145D+00 0.8000000D+00 0.8000000D+00 0.8000000D+00
EXPONENTS  0.8000000D+00 0.8000000D+00 0.8000000D+00 0.1873114D+02 0.2825394D+01
EXPONENTS  0.6401217D+00 0.1612778D+00 0.1873114D+02 0.2825394D+01 0.6401217D+00
EXPONENTS  0.1612778D+00 0.1873114D+02 0.2825394D+01 0.6401217D+00 0.1612778D+00
MO    1     MO 0.0        OCC NO =    2.0000000  ORB. ENERGY =  -19.423811
 -0.28539992D-04 -0.52650712D-04 -0.84994575D-04 -0.11063768D-03 -0.94407334D-04
 -0.32596584D-04 -0.83237463D-04 -0.38364071D-04  0.10757686D-03 -0.34955199D-03
 -0.26801429D-03 -0.13375792D-03 -0.41397004D-03 -0.31740597D-03 -0.15840782D-03
  0.26370994D-08  0.20219605D-08  0.10091000D-08 -0.34148394D-05  0.49320876D-03
  0.63296999D-03 -0.34711996D-08 -0.20386301D-03 -0.10879201D-03 -0.12341888D-03
 -0.21334968D-03 -0.56665880D-09 -0.13914467D-10  0.63266821D-05  0.11671493D-04
  0.18841409D-04  0.24525916D-04  0.20928008D-04  0.72259384D-05 -0.57001472D-04
 -0.26271926D-04  0.73669224D-04  0.36709915D-05  0.28146834D-05  0.14047243D-05
  0.18681940D-04  0.14324126D-04  0.71487430D-05  0.57849861D-09  0.44355604D-09
  0.22136555D-09 -0.32458553D-03  0.20179030D-04 -0.29258005D-03 -0.15073814D-08
 -0.64088238D-04 -0.49992248D-04  0.27449286D-04  0.43900912D-05  0.16036999D-08
 -0.21939769D-08  0.15644832D-05  0.28861659D-05  0.46591667D-05  0.60648507D-05
  0.51751481D-05  0.17868543D-05  0.25017952D-05  0.11530751D-05 -0.32333429D-05
 -0.89697643D-04 -0.68774464D-04 -0.34323277D-04 -0.32874435D-04 -0.25206031D-04
 -0.12579576D-04  0.14640658D-08  0.11225528D-08  0.56023250D-09  0.29403976D-03
 -0.42041201D-04 -0.19475924D-04 -0.18665113D-09  0.74811890D-05  0.39526823D-04
  0.24936691D-04  0.15702024D-04  0.32780356D-08 -0.41001584D-09  0.88592625D-05
  0.16343609D-04  0.26383653D-04  0.34343677D-04  0.29305522D-04  0.10118492D-04
 -0.35691684D-04 -0.16450265D-04  0.46128259D-04  0.85056832D-05  0.65216184D-05
  0.32547446D-05 -0.43167525D-04 -0.33098121D-04 -0.16518282D-04 -0.39396401D-09
 -0.30206661D-09 -0.15075241D-09 -0.25681693D-03  0.10129157D-03  0.57502149D-04
 -0.70864839D-09 -0.20980100D-04  0.69718690D-05  0.41682183D-04  0.52069296D-04
  0.37259188D-08  0.17239768D-08 -0.24490557D-05 -0.45180296D-05 -0.72935007D-05
 -0.94939708D-05 -0.81012225D-05 -0.27971574D-05  0.18368040D-04  0.84658129D-05
 -0.23739023D-04 -0.77024132D-04 -0.59057219D-04 -0.29473691D-04 -0.78364376D-04
 -0.60084833D-04 -0.29986543D-04  0.47701508D-09  0.36574491D-09  0.18253234D-09
  0.38814804D-03  0.76005982D-04 -0.17080521D-03 -0.23097599D-08  0.28239215D-04
  0.21641038D-04  0.55982546D-05  0.21872380D-04 -0.21075020D-08  0.18652071D-08
  0.26801019D-04  0.49442646D-04  0.79815761D-04  0.10389641D-03  0.88654991D-04
  0.30610438D-04 -0.12497605D-03 -0.57601347D-04  0.16152019D-03 -0.32463524D-04
 -0.24890971D-04 -0.12422339D-04  0.93186622D-04  0.71449592D-04  0.35658354D-04
  0.37626036D-09  0.28849258D-09  0.14397802D-09 -0.39572730D-03 -0.48142169D-03
  0.10754886D-03 -0.91838142D-09  0.54982708D-04 -0.62915923D-04  0.74314755D-04
 -0.40822855D-04  0.97886903D-09 -0.85686073D-09 -0.11405576D-04 -0.19346016D-04
 -0.22024756D-04 -0.12223555D-03 -0.38025548D-05 -0.64498527D-05 -0.73429293D-05
 -0.28734836D-04  0.10188163D-04  0.17281053D-04  0.19673868D-04  0.41640702D-04
 -0.27882310D-05 -0.51318335D-05 -0.83042753D-05 -0.10916202D-04 -0.93627633D-05
 -0.32012878D-05 -0.17676202D-03 -0.78870871D-04  0.23290674D-03  0.10694353D-03
  0.82394222D-04  0.36175502D-04  0.78653707D-04  0.60598441D-04  0.26605980D-04
  0.19772717D-08  0.15233813D-08  0.66884643D-09 -0.55510685D-03 -0.17477843D-03
 -0.39855835D-04 -0.20926859D-08  0.11532169D-03  0.22670581D-03  0.18645718D-03
  0.32623495D-04 -0.26461928D-08  0.73646074D-10  0.81661341D-04  0.13851309D-03
  0.15769226D-03 -0.21630069D-03  0.82561766D+00  0.15195772D+01  0.24589628D+01
  0.32323754D+01  0.27723896D+01  0.94792709D+00 -0.15740329D-01 -0.70233039D-02
  0.20739911D-01 -0.25642913D-03 -0.19756482D-03 -0.86741599D-04  0.33770775D-02
  0.26018561D-02  0.11423550D-02 -0.14500577D-07 -0.11171913D-07 -0.49050714D-08
  0.40237381D-02  0.31582245D-03  0.22395882D-03 -0.18682098D-08 -0.91823414D-02
 -0.92761470D-02 -0.92727667D-02  0.21243787D-03 -0.12896464D-08 -0.55659667D-09
  0.66614502D-05  0.12289075D-04  0.19838377D-04  0.25823673D-04  0.22035387D-04
  0.76082895D-05 -0.23692260D-04 -0.10919741D-04  0.30620093D-04  0.11021443D-04
  0.84505436D-05  0.42174135D-05  0.14285150D-05  0.10952947D-05  0.54662883D-06
 -0.97185219D-09 -0.74515462D-09 -0.37188438D-09 -0.68925528D-04  0.22702715D-04
 -0.47305533D-05  0.70442389D-09 -0.21565744D-05  0.21983511D-04  0.22401591D-04
  0.98569132D-05 -0.17465146D-09  0.12476481D-08  0.23099581D-05  0.39181261D-05
  0.44606481D-05  0.51501346D-05  0.38426053D-05  0.65177859D-05  0.74202689D-05
  0.34679702D-05  0.38421066D-05  0.65169400D-05  0.74193058D-05  0.34681488D-05
MO    2     MO 0.0        OCC NO =    2.0000000  ORB. ENERGY =  -19.387752
  0.25243740D-04  0.46569771D-04  0.75178050D-04  0.97859483D-04  0.83503674D-04
  0.28831812D-04 -0.11075140D-03 -0.51045219D-04  0.14313612D-03  0.58773039D-05
  0.45063439D-05  0.22489814D-05 -0.87854808D-04 -0.67361494D-04 -0.33618107D-04
 -0.46291717D-10 -0.35493552D-10 -0.17713770D-10 -0.50331997D-03 -0.43554830D-03
 -0.40382880D-03  0.19680505D-08  0.47379483D-06  0.38054777D-04  0.64776190D-04
  0.19461404D-03  0.14105739D-08 -0.82636700D-09 -0.34203318D-05 -0.63098443D-05
 -0.10186045D-04 -0.13259204D-04 -0.11314103D-04 -0.39064879D-05  0.24140085D-04
  0.11126143D-04 -0.31198867D-04 -0.11336125D-03 -0.86918214D-04 -0.43378280D-04
  0.43853878D-04  0.33624372D-04  0.16780918D-04  0.12403401D-08  0.95101412D-09
  0.47462270D-09  0.55054792D-03 -0.42191707D-04  0.26339209D-03  0.21148937D-08
  0.42055047D-04  0.23095215D-04  0.47285703D-05  0.13110593D-05 -0.32542781D-08
  0.24095269D-08  0.10909551D-04  0.20125991D-04  0.32489589D-04  0.42291792D-04
  0.36087663D-04  0.12460203D-04 -0.44662882D-04 -0.20585081D-04  0.57722717D-04
 -0.44677316D-04 -0.34255732D-04 -0.17096011D-04  0.27465818D-04  0.21059047D-04
  0.10509940D-04 -0.10498564D-08 -0.80496328D-09 -0.40173309D-09 -0.35910079D-03
  0.22048610D-03  0.48298683D-05  0.13889863D-09  0.19577625D-04 -0.40301347D-04
  0.48255817D-04 -0.47036578D-04 -0.93989758D-09  0.34522116D-09 -0.15573186D-05
 -0.28729488D-05 -0.46378301D-05 -0.60370768D-05 -0.51514485D-05 -0.17786714D-05
  0.14128276D-04  0.65117096D-05 -0.18259513D-04 -0.11727667D-03 -0.89920311D-04
 -0.44876537D-04  0.87333758D-05  0.66961986D-05  0.33418724D-05  0.20636517D-08
  0.15822772D-08  0.78966722D-09  0.48838068D-03 -0.17849598D-03 -0.75517876D-04
  0.16104443D-08  0.37242420D-04  0.16772177D-04  0.16252321D-04 -0.80649118D-04
 -0.51841145D-08 -0.12000064D-08  0.12530855D-04  0.23116980D-04  0.37317974D-04
  0.48576914D-04  0.41450768D-04  0.14311954D-04 -0.72392060D-04 -0.33365434D-04
  0.93560160D-04  0.75508715D-04  0.57895293D-04  0.28893809D-04 -0.72482971D-05
 -0.55575345D-05 -0.27735992D-05 -0.20017097D-08 -0.15347840D-08 -0.76596478D-09
 -0.67844132D-03 -0.20604519D-03  0.39206886D-03  0.43418578D-08 -0.71976197D-04
  0.69479358D-06  0.43755412D-04  0.48453674D-04  0.36670295D-08  0.31727365D-09
 -0.42178406D-04 -0.77810923D-04 -0.12561096D-03 -0.16350814D-03 -0.13952179D-03
 -0.48173523D-04 -0.87420010D-04 -0.40291803D-04  0.11298242D-03 -0.18732136D-03
 -0.14362614D-03 -0.71679510D-04  0.20233193D-04  0.15513529D-04  0.77423381D-05
 -0.97933087D-09 -0.75088880D-09 -0.37474614D-09 -0.92713471D-04  0.10879506D-02
 -0.19929335D-03  0.43275166D-08 -0.94489580D-03 -0.13879097D-03 -0.18936928D-03
  0.20949849D-03 -0.12145787D-07  0.15418471D-08  0.12976630D-04  0.22010820D-04
  0.25058541D-04  0.65915255D-04  0.40357502D-05  0.68453963D-05  0.77932417D-05
  0.30838355D-04 -0.23672592D-04 -0.40153197D-04 -0.45712995D-04 -0.15104697D-03
  0.82562606D+00  0.15195927D+01  0.24589878D+01  0.32324083D+01  0.27724178D+01
  0.94793675D+00 -0.15531838D-01 -0.69302758D-02  0.20465197D-01  0.33270006D-02
  0.25632746D-02  0.11254156D-02 -0.79790454D-03 -0.61474243D-03 -0.26990504D-03
  0.22761772D-07  0.17536718D-07  0.76995638D-08  0.44724491D-02  0.60371115D-03
 -0.10613842D-03  0.63453485D-08 -0.88106342D-02 -0.93378304D-02 -0.93691502D-02
 -0.17130405D-03  0.10454770D-07 -0.22656619D-08 -0.11940878D-04 -0.20253989D-04
 -0.23058451D-04 -0.10798312D-03  0.10081347D-03  0.18555061D-03  0.30025591D-03
  0.39469480D-03  0.33852743D-03  0.11574828D-03 -0.16626733D-03 -0.74188157D-04
  0.21907862D-03  0.17382049D-03  0.13391932D-03  0.58797793D-04  0.49659945D-04
  0.38260311D-04  0.16798337D-04 -0.13058599D-08 -0.10060946D-08 -0.44172973D-09
 -0.51799778D-03 -0.22535525D-03 -0.89584986D-04  0.10519993D-08  0.16278810D-03
  0.14971434D-03  0.17011265D-03 -0.17538679D-03  0.11755310D-08  0.15894404D-08
  0.49455303D-06  0.91235377D-06  0.14728219D-05  0.19171765D-05  0.16359301D-05
  0.56484736D-06 -0.45168953D-05 -0.20818329D-05  0.58376768D-05  0.25024726D-04
  0.19187373D-04  0.95758438D-05 -0.15135890D-04 -0.11605241D-04 -0.57918284D-05
  0.67610760D-09  0.51839643D-09  0.25871615D-09 -0.88349350D-04  0.25299626D-04
 -0.77895195D-05  0.82220889D-09 -0.73199146D-05 -0.33194424D-05 -0.96078595D-06
  0.14892951D-04 -0.91101044D-09  0.37746843D-09  0.18382549D-05  0.31180282D-05
  0.35497649D-05  0.22534952D-05  0.73125924D-06  0.12403541D-05  0.14120993D-05
  0.20076640D-05  0.73146122D-06  0.12406967D-05  0.14124893D-05  0.20066586D-05
MO    3     MO 0.0        OCC NO =    2.0000000  ORB. ENERGY =  -10.507977
  0.53245458D+00  0.98227472D+00  0.15856960D+01  0.20641050D+01  0.17613045D+01
  0.60813613D+00 -0.19745114D-01 -0.91005048D-02  0.25518765D-01 -0.90684493D-03
 -0.69531117D-03 -0.34700901D-03 -0.54194487D-03 -0.41552895D-03 -0.20737807D-03
  0.32873047D-08  0.25204968D-08  0.12579045D-08 -0.33100681D-02 -0.12076635D-02
 -0.11454720D-02  0.13357784D-07 -0.95807402D-02 -0.97657955D-02 -0.10510654D-01
  0.83450264D-03 -0.88971466D-08 -0.30519062D-08  0.13828109D-02  0.25510161D-02
  0.41181310D-02  0.53605829D-02  0.45741951D-02  0.15793597D-02  0.30458412D-03
  0.14038254D-03 -0.39364730D-03  0.32836977D-03  0.25177311D-03  0.12565243D-03
 -0.24043320D-03 -0.18434893D-03 -0.92003037D-04 -0.44707172D-08 -0.34278624D-08
 -0.17107436D-08  0.23406955D-02 -0.36871891D-03  0.10210359D-02  0.65549522D-08
 -0.44273096D-03 -0.22730642D-03 -0.35815777D-03 -0.91560402D-04  0.44973229D-08
  0.59085857D-08  0.48597720D-04  0.89653304D-04  0.14472823D-03  0.18839315D-03
  0.16075622D-03  0.55505259D-04 -0.70010426D-04 -0.32267741D-04  0.90482115D-04
  0.15915314D-03  0.12202853D-03  0.60900790D-04  0.37337563D-04  0.28628075D-04
  0.14287416D-04 -0.67099523D-08 -0.51447659D-08 -0.25675987D-08 -0.12619196D-02
  0.43535912D-03  0.12774717D-03  0.10352075D-08  0.32347660D-04  0.37491219D-04
  0.28433462D-04  0.10341947D-04 -0.81258179D-08  0.36875873D-08 -0.49213325D-04
 -0.90788976D-04 -0.14656156D-03 -0.19077960D-03 -0.16279258D-03 -0.56208365D-04
  0.12428357D-03  0.57282186D-04 -0.16062523D-03  0.71805960D-04  0.55056256D-04
  0.27476930D-04  0.82616723D-04  0.63345263D-04  0.31613726D-04  0.22528359D-09
  0.17273317D-09  0.86205956D-10  0.82014899D-03 -0.38454410D-03 -0.23386734D-03
  0.82015453D-09  0.55013398D-05 -0.25341481D-04 -0.14092207D-03 -0.62454064D-04
 -0.96932410D-08 -0.58863609D-08  0.17434608D-04  0.32163447D-04  0.51921777D-04
  0.67586726D-04  0.57671876D-04  0.19912713D-04 -0.22683902D-04 -0.10454990D-04
  0.29316883D-04  0.95385874D-04  0.73135838D-04  0.36499909D-04  0.18729837D-03
  0.14360851D-03  0.71670710D-04 -0.36843398D-08 -0.28249181D-08 -0.14098321D-08
 -0.10554574D-02 -0.19864927D-03  0.40520543D-03  0.78527163D-08  0.33557320D-04
  0.41621249D-04 -0.20013738D-04  0.69708485D-04  0.68001154D-08 -0.80906910D-08
  0.10458821D-01  0.19294483D-01  0.31147278D-01  0.40544502D-01  0.34596697D-01
  0.11945408D-01 -0.10736235D-03 -0.49483209D-04  0.13875608D-03 -0.10159286D-03
 -0.77894958D-04 -0.38875043D-04  0.29366862D-03  0.22516647D-03  0.11237385D-03
 -0.23529560D-08 -0.18040974D-08 -0.90037104D-09  0.16619474D-02  0.94970283D-03
 -0.41356759D-03 -0.75736304D-09 -0.47654494D-03 -0.90431647D-03 -0.56255152D-03
 -0.57025493D-04  0.30890284D-08  0.57122569D-08  0.36276707D-04  0.61532162D-04
  0.70052191D-04  0.31463376D-03  0.19289104D-04  0.32717971D-04  0.37248253D-04
  0.13400148D-03 -0.17230256D-04 -0.29225775D-04 -0.33272512D-04 -0.74919900D-04
 -0.79593049D-04 -0.14649370D-03 -0.23705446D-03 -0.31161472D-03 -0.26727013D-03
 -0.91384198D-04  0.27527354D-03  0.12282652D-03 -0.36270835D-03 -0.64653013D-05
 -0.49811661D-05 -0.21870002D-05 -0.89398201D-04 -0.68876494D-04 -0.30240491D-04
 -0.28743712D-09 -0.22145480D-09 -0.97230587D-10  0.79668405D-03  0.14667948D-03
  0.54760638D-04  0.31076266D-08 -0.22964014D-03 -0.24720962D-03 -0.30309345D-03
 -0.45532162D-05  0.47297973D-08  0.12664846D-08  0.64272570D-04  0.10901844D-03
  0.12411365D-03 -0.10208746D-04  0.11708106D-03  0.21549165D-03  0.34870617D-03
  0.45838403D-03  0.39315332D-03  0.13442580D-03 -0.71547198D-03 -0.31924220D-03
  0.94272651D-03 -0.12050840D-03 -0.92845228D-04 -0.40764056D-04 -0.75782583D-04
 -0.58386395D-04 -0.25634772D-04  0.82722124D-08  0.63732937D-08  0.27982192D-08
 -0.17987317D-02 -0.53200299D-03 -0.58967657D-03  0.18709827D-09  0.18129157D-03
  0.21141424D-03  0.10419315D-02 -0.11173513D-02  0.47513920D-08  0.48671582D-08
 -0.23520272D-04 -0.43390309D-04 -0.70045412D-04 -0.91178314D-04 -0.77802620D-04
 -0.26863375D-04  0.68280353D-04  0.31470352D-04 -0.88246153D-04  0.31325812D-05
  0.24018645D-05  0.11986987D-05 -0.11910575D-04 -0.91322733D-05 -0.45576444D-05
  0.37259978D-08  0.28568588D-08  0.14257728D-08  0.75411839D-04 -0.48096416D-04
 -0.35733544D-04 -0.66804496D-09  0.28620237D-04 -0.66774588D-04 -0.79891468D-04
  0.65468546D-04  0.27466661D-08  0.53263634D-08 -0.11967591D-04 -0.20299300D-04
 -0.23110035D-04 -0.14566934D-04 -0.67093159D-05 -0.11380270D-04 -0.12956035D-04
  0.14321504D-05 -0.67092662D-05 -0.11380185D-04 -0.12955939D-04  0.14293324D-05
MO    4     MO 0.0        OCC NO =    2.0000000  ORB. ENERGY =  -10.499952
 -0.10725709D-01 -0.19786840D-01 -0.31942094D-01 -0.41579116D-01 -0.35479535D-01
 -0.12250231D-01  0.68570076D-03  0.31603885D-03 -0.88620593D-03  0.11014995D-03
  0.84455995D-04  0.42149461D-04 -0.28996076D-03 -0.22232352D-03 -0.11095502D-03
  0.26025097D-08  0.19954394D-08  0.99586411D-09  0.22344762D-02  0.76202405D-03
  0.10591380D-02 -0.63002934D-08 -0.25157064D-03 -0.44052270D-03 -0.14347843D-03
  0.29907138D-03 -0.70546954D-08  0.56618321D-09 -0.11278928D-04 -0.20807419D-04
 -0.33589626D-04 -0.43723713D-04 -0.37309523D-04 -0.12882082D-04 -0.85397879D-04
 -0.39359804D-04  0.11036900D-03  0.14683117D-03  0.11258083D-03  0.56185725D-04
 -0.94018226D-04 -0.72087212D-04 -0.35976571D-04  0.25848569D-08  0.19819044D-08
  0.98910918D-09 -0.15191792D-02  0.14502532D-03 -0.72894669D-03 -0.54445784D-08
  0.11138092D-03 -0.16570271D-04  0.35301149D-04 -0.25488601D-05  0.12648546D-08
 -0.71678493D-08 -0.72523760D-04 -0.13379218D-03 -0.21598206D-03 -0.28114446D-03
 -0.23990108D-03 -0.82832078D-04  0.14840438D-03  0.68399441D-04 -0.19179917D-03
  0.14403701D-03  0.11043844D-03  0.55116523D-04 -0.42581425D-04 -0.32648736D-04
 -0.16294008D-04  0.59806038D-08  0.45855476D-08  0.22885097D-08  0.11840152D-02
 -0.70128246D-03  0.72581374D-04 -0.11437881D-08 -0.47725502D-04  0.49993142D-04
 -0.14660977D-03  0.60886553D-04  0.18415964D-08 -0.84423359D-09  0.36005198D-04
  0.66422560D-04  0.10722661D-03  0.13957718D-03  0.11910146D-03  0.41122873D-04
 -0.91222031D-04 -0.42044151D-04  0.11789619D-03  0.20163989D-03  0.15460468D-03
  0.77158569D-04 -0.89993260D-05 -0.69001124D-05 -0.34436397D-05 -0.13897534D-08
 -0.10655747D-08 -0.53179648D-09 -0.15648963D-02  0.57340038D-03  0.38003359D-03
 -0.34279782D-08  0.41457360D-04  0.20682053D-04  0.39195480D-04  0.41167889D-04
  0.10891681D-07  0.10114794D-07  0.11000542D-02  0.20293853D-02  0.32760571D-02
  0.42644529D-02  0.36388654D-02  0.12564128D-02  0.27077886D-03  0.12480173D-03
 -0.34995707D-03  0.64368685D-04  0.49353825D-04  0.24631018D-04  0.31439386D-03
  0.24105727D-03  0.12030447D-03  0.62565376D-08  0.47971162D-08  0.23940972D-08
  0.25346621D-02  0.30575198D-03 -0.11952176D-02 -0.13814959D-07 -0.44927213D-03
 -0.30971353D-03 -0.35381551D-03 -0.35392426D-03 -0.13243692D-07  0.44858804D-08
  0.53248591D+00  0.98233252D+00  0.15857893D+01  0.20642265D+01  0.17614082D+01
  0.60817191D+00 -0.19936935D-01 -0.91889152D-02  0.25766677D-01 -0.66779116D-03
 -0.51201991D-03 -0.25553382D-03 -0.23175323D-03 -0.17769368D-03 -0.88681599D-04
 -0.56851808D-08 -0.43590360D-08 -0.21754645D-08 -0.33310605D-02 -0.20248467D-02
  0.42069002D-03 -0.48983152D-08 -0.91569933D-02 -0.10151942D-01 -0.10443242D-01
 -0.24449779D-03  0.18697392D-07 -0.28257111D-09 -0.32113465D-04 -0.54470515D-04
 -0.62012756D-04 -0.17871718D-03 -0.20623695D-04 -0.34981690D-04 -0.39825418D-04
 -0.14364758D-03  0.47648504D-04  0.80820882D-04  0.92011717D-04  0.35872968D-03
  0.11310346D-03  0.20817075D-03  0.33685956D-03  0.44281132D-03  0.37979670D-03
  0.12985894D-03 -0.85066187D-03 -0.37956367D-03  0.11208566D-02 -0.98001903D-04
 -0.75505183D-04 -0.33150842D-04  0.59976673D-04  0.46208793D-04  0.20288149D-04
  0.46909390D-08  0.36141156D-08  0.15867914D-08 -0.24937081D-02 -0.90715362D-03
  0.13345450D-03 -0.10823071D-07  0.13757312D-03  0.98297570D-03  0.11563900D-02
  0.34946356D-03 -0.20990074D-07  0.34575671D-08  0.31604534D-05  0.53607271D-05
  0.61029984D-05  0.35499488D-04 -0.84337848D-04 -0.15522666D-03 -0.25118604D-03
 -0.33019108D-03 -0.28320297D-03 -0.96831906D-04  0.31274840D-03  0.13954773D-03
 -0.41208631D-03 -0.15298135D-03 -0.11786389D-03 -0.51748594D-04  0.39448821D-04
  0.30393190D-04  0.13344247D-04 -0.43078105D-08 -0.33189358D-08 -0.14571916D-08
  0.91355758D-03  0.24238117D-03  0.92681304D-04  0.39077028D-09 -0.24771557D-03
 -0.26092603D-03 -0.33624000D-03  0.14383099D-03 -0.86133614D-09  0.29187813D-09
  0.77054241D-06  0.14215003D-05  0.22947422D-05  0.29870725D-05  0.25488744D-05
  0.88006508D-06  0.10273541D-04  0.47350658D-05 -0.13277619D-04 -0.78738887D-04
 -0.60371984D-04 -0.30129851D-04  0.44024034D-04  0.33754837D-04  0.16846029D-04
 -0.26651062D-08 -0.20434344D-08 -0.10198170D-08  0.27877869D-03 -0.81909556D-04
  0.10390411D-04 -0.22466911D-08  0.20388353D-04  0.17373727D-04  0.41023821D-05
 -0.16625599D-04  0.30703301D-08  0.13751071D-08 -0.62570820D-05 -0.10613195D-04
 -0.12082748D-04 -0.12891781D-04 -0.18412734D-05 -0.31231481D-05 -0.35555938D-05
 -0.24942124D-05 -0.18421959D-05 -0.31247130D-05 -0.35573753D-05 -0.24919066D-05
MO    5     MO 0.0        OCC NO =    2.0000000  ORB. ENERGY =  -10.458102
 -0.21643806D-04 -0.39928596D-04 -0.64457135D-04 -0.83904038D-04 -0.71595468D-04
 -0.24720194D-04 -0.33160077D-04 -0.15283449D-04  0.42856387D-04 -0.79260512D-05
 -0.60771933D-05 -0.30329454D-05  0.85885225D-05  0.65851343D-05  0.32864435D-05
 -0.34780699D-08 -0.26667634D-08 -0.13309018D-08 -0.70083421D-03 -0.31967442D-03
 -0.15629015D-03  0.45448141D-08  0.97279940D-04  0.33125638D-04  0.38204446D-04
 -0.11088812D-04  0.97270336D-09  0.21101824D-08  0.27313489D-02  0.50388055D-02
  0.81341944D-02  0.10588304D-01  0.90350191D-02  0.31195750D-02  0.16351270D-03
  0.75362855D-04 -0.21132531D-03 -0.27407215D-03 -0.21014114D-03 -0.10487516D-03
 -0.39969234D-03 -0.30645874D-03 -0.15294439D-03  0.90495852D-09  0.69386479D-09
  0.34628716D-09  0.17231438D-02  0.45199569D-04  0.62540821D-03  0.28566505D-08
 -0.44685653D-03 -0.44059293D-03 -0.29671727D-03 -0.27112497D-03 -0.52794465D-09
  0.57257877D-08  0.53253068D+00  0.98241512D+00  0.15859226D+01  0.20644000D+01
  0.17615563D+01  0.60822305D+00 -0.19720020D-01 -0.90889390D-02  0.25486334D-01
 -0.44146739D-03 -0.33848919D-03 -0.16892983D-03  0.19320464D-03  0.14813706D-03
  0.73930776D-04  0.49625265D-08  0.38049506D-08  0.18989370D-08 -0.36487593D-02
  0.55117652D-03 -0.48884238D-04 -0.33082017D-08 -0.10090911D-01 -0.99250307D-02
 -0.10364900D-01  0.12586450D-03  0.96816356D-08  0.70531965D-09  0.26861824D-02
  0.49554820D-02  0.79996845D-02  0.10413212D-01  0.88856130D-02  0.30679886D-02
  0.10165779D-03  0.46853984D-04 -0.13138346D-03 -0.73052655D-04 -0.56012142D-04
 -0.27953985D-04  0.45215076D-03  0.34668052D-03  0.17301788D-03  0.30532545D-08
  0.23410419D-08  0.11683440D-08  0.14466840D-02 -0.20899938D-03 -0.51555402D-03
  0.36436171D-10 -0.34913770D-03 -0.63331962D-03 -0.27885972D-03  0.27796934D-03
 -0.39098791D-08 -0.84240515D-08  0.41799550D-04  0.77112008D-04  0.12448269D-03
  0.16203948D-03  0.13826858D-03  0.47740817D-04 -0.38404822D-04 -0.17700747D-04
  0.49634743D-04 -0.28106437D-04 -0.21550233D-04 -0.10755077D-04  0.29950308D-04
  0.22963997D-04  0.11460644D-04 -0.27914910D-08 -0.21403382D-08 -0.10681788D-08
 -0.72918734D-03 -0.77970804D-04  0.33039013D-03  0.53284995D-08  0.91685541D-04
  0.42993937D-04  0.31590666D-04 -0.39187359D-04 -0.64703059D-09 -0.54888057D-08
  0.86523068D-05  0.15961817D-04  0.25767321D-04  0.33541396D-04  0.28620934D-04
  0.98821207D-05  0.90792135D-04  0.41846012D-04 -0.11734059D-03 -0.39650210D-04
 -0.30401266D-04 -0.15172362D-04 -0.37534380D-05 -0.28778982D-05 -0.14362729D-05
 -0.10635211D-08 -0.81544054D-09 -0.40696198D-09  0.49256807D-03  0.36574938D-03
 -0.22892051D-05 -0.12640944D-10 -0.49443750D-04 -0.36956717D-04 -0.98935461D-04
  0.12683005D-04  0.11372455D-08  0.27147464D-09  0.64038726D-06  0.10862180D-05
  0.12366208D-05  0.11740369D-03  0.32675034D-05  0.55423043D-05  0.63097175D-05
  0.96938645D-04 -0.13543968D-04 -0.22973134D-04 -0.26154101D-04 -0.73951036D-04
 -0.25473478D-04 -0.46884798D-04 -0.75868453D-04 -0.99731204D-04 -0.85538875D-04
 -0.29247194D-04  0.86073277D-04  0.38405729D-04 -0.11341263D-03  0.19370577D-05
  0.14923985D-05  0.65524334D-06 -0.19001765D-04 -0.14639836D-04 -0.64276764D-05
  0.64550867D-09  0.49732963D-09  0.21835450D-09  0.29635433D-03  0.50755270D-04
 -0.99465029D-05  0.91301603D-09 -0.87365435D-04 -0.97371344D-04 -0.77436419D-04