 Entering Link 1 = D:\Gaussian\G16W\l1.exe PID=     55176.
  
 Copyright (c) 1988,1990,1992,1993,1995,1998,2003,2009,2016,
            Gaussian, Inc.  All Rights Reserved.
  
 This is part of the Gaussian(R) 16 program.  It is based on
 the Gaussian(R) 09 system (copyright 2009, Gaussian, Inc.),
 the Gaussian(R) 03 system (copyright 2003, Gaussian, Inc.),
 the Gaussian(R) 98 system (copyright 1998, Gaussian, Inc.),
 the Gaussian(R) 94 system (copyright 1995, Gaussian, Inc.),
 the Gaussian 92(TM) system (copyright 1992, Gaussian, Inc.),
 the Gaussian 90(TM) system (copyright 1990, Gaussian, Inc.),
 the Gaussian 88(TM) system (copyright 1988, Gaussian, Inc.),
 the Gaussian 86(TM) system (copyright 1986, Carnegie Mellon
 University), and the Gaussian 82(TM) system (copyright 1983,
 Carnegie Mellon University). Gaussian is a federally registered
 trademark of Gaussian, Inc.
  
 This software contains proprietary and confidential information,
 including trade secrets, belonging to Gaussian, Inc.
  
 This software is provided under written license and may be
 used, copied, transmitted, or stored only in accord with that
 written license.
  
 The following legend is applicable only to US Government
 contracts under FAR:
  
                    RESTRICTED RIGHTS LEGEND
  
 Use, reproduction and disclosure by the US Government is
 subject to restrictions as set forth in subparagraphs (a)
 and (c) of the Commercial Computer Software - Restricted
 Rights clause in FAR 52.227-19.
  
 Gaussian, Inc.
 340 Quinnipiac St., Bldg. 40, Wallingford CT 06492
  
  
 ---------------------------------------------------------------
 Warning -- This program may not be used in any manner that
 competes with the business of Gaussian, Inc. or will provide
 assistance to any competitor of Gaussian, Inc.  The licensee
 of this program is prohibited from giving any competitor of
 Gaussian, Inc. access to this program.  By using this program,
 the user acknowledges that Gaussian, Inc. is engaged in the
 business of creating and licensing software in the field of
 computational chemistry and represents and warrants to the
 licensee that it is not a competitor of Gaussian, Inc. and that
 it will not use this program in any manner prohibited above.
 ---------------------------------------------------------------
  

 Cite this work as:
 Gaussian 16, Revision A.03,
 M. J. Frisch, G. W. Trucks, H. B. Schlegel, G. E. Scuseria, 
 M. A. Robb, J. R. Cheeseman, G. Scalmani, V. Barone, 
 G. A. Petersson, H. Nakatsuji, X. Li, M. Caricato, A. V. Marenich, 
 J. Bloino, B. G. Janesko, R. Gomperts, B. Mennucci, H. P. Hratchian, 
 J. V. Ortiz, A. F. Izmaylov, J. L. Sonnenberg, D. Williams-Young, 
 F. Ding, F. Lipparini, F. Egidi, J. Goings, B. Peng, A. Petrone, 
 T. Henderson, D. Ranasinghe, V. G. Zakrzewski, J. Gao, N. Rega, 
 G. Zheng, W. Liang, M. Hada, M. Ehara, K. Toyota, R. Fukuda, 
 J. Hasegawa, M. Ishida, T. Nakajima, Y. Honda, O. Kitao, H. Nakai, 
 T. Vreven, K. Throssell, J. A. Montgomery, Jr., J. E. Peralta, 
 F. Ogliaro, M. J. Bearpark, J. J. Heyd, E. N. Brothers, K. N. Kudin, 
 V. N. Staroverov, T. A. Keith, R. Kobayashi, J. Normand, 
 K. Raghavachari, A. P. Rendell, J. C. Burant, S. S. Iyengar, 
 J. Tomasi, M. Cossi, J. M. Millam, M. Klene, C. Adamo, R. Cammi, 
 J. W. Ochterski, R. L. Martin, K. Morokuma, O. Farkas, 
 J. B. Foresman, and D. J. Fox, Gaussian, Inc., Wallingford CT, 2016.
 
 ******************************************
 Gaussian 16:  EM64W-G16RevA.03 17-Dec-2016
                08-Dec-2025 
 ******************************************
 %nprocshared=14
 Will use up to   14 processors via shared memory.
 %nprocs=   4
 Will use up to    4 processors via shared memory.
 --------------------------------------
 #p b3lyp/6-31g(d) out=wfn scf=conver=7
 --------------------------------------
 1/38=1,172=1/1;
 2/12=2,17=6,18=5,40=1/2;
 3/5=1,6=6,7=1,11=2,25=1,30=1,74=-5/1,2,3;
 4//1;
 5/5=2,6=7,38=5/2;
 6/7=2,8=2,9=2,10=2,28=1/1;
 99/5=1,6=100,9=1/99;
 Leave Link    1 at Mon Dec 08 16:40:56 2025, MaxMem=           0 cpu:               1.0 elap:               0.2
 (Enter D:\Gaussian\G16W\l101.exe)
 ----------------------------------------------------
 Generated by Multiwfn (http://sobereva.com/multiwfn)
 ----------------------------------------------------
 Symbolic Z-matrix:
 Charge =  0 Multiplicity = 2
 C                    -0.77643  -0.77392   0. 
 C                     0.57187  -1.10038  -0.00001 
 C                     1.5275   -0.08436  -0.00001 
 C                     1.10878   1.28093  -0.00001 
 C                    -0.2135    1.63228   0.00001 
 C                    -1.2345    0.61812   0. 
 H                     0.86525  -2.14375  -0.00002 
 H                     1.87108   2.05331   0.00001 
 H                    -0.53516   2.66673   0.00002 
 O                    -2.47057   0.82288  -0.00001 
 H                    -2.5697   -1.17454   0.00001 
 O                    -1.73812  -1.69551   0.00001 
 C                     2.9968   -0.40405   0.00001 
 H                     3.17567  -1.47992  -0.00005 
 H                     3.48962   0.02383  -0.87948 
 H                     3.48956   0.02371   0.87958 
 
 ITRead=  0  0  0  0  0  0  0  0  0  0  0  0  0  0  0  0
 MicOpt= -1 -1 -1 -1 -1 -1 -1 -1 -1 -1 -1 -1 -1 -1 -1 -1
 NAtoms=     16 NQM=       16 NQMF=       0 NMMI=      0 NMMIF=      0
                NMic=       0 NMicF=      0.
                    Isotopes and Nuclear Properties:
 (Nuclear quadrupole moments (NQMom) in fm**2, nuclear magnetic moments (NMagM)
  in nuclear magnetons)

  Atom         1           2           3           4           5           6           7           8           9          10
 IAtWgt=          12          12          12          12          12          12           1           1           1          16
 AtmWgt=  12.0000000  12.0000000  12.0000000  12.0000000  12.0000000  12.0000000   1.0078250   1.0078250   1.0078250  15.9949146
 NucSpn=           0           0           0           0           0           0           1           1           1           0
 AtZEff=   0.0000000   0.0000000   0.0000000   0.0000000   0.0000000   0.0000000   0.0000000   0.0000000   0.0000000   0.0000000
 NQMom=    0.0000000   0.0000000   0.0000000   0.0000000   0.0000000   0.0000000   0.0000000   0.0000000   0.0000000   0.0000000
 NMagM=    0.0000000   0.0000000   0.0000000   0.0000000   0.0000000   0.0000000   2.7928460   2.7928460   2.7928460   0.0000000
 AtZNuc=   6.0000000   6.0000000   6.0000000   6.0000000   6.0000000   6.0000000   1.0000000   1.0000000   1.0000000   8.0000000

  Atom        11          12          13          14          15          16
 IAtWgt=           1          16          12           1           1           1
 AtmWgt=   1.0078250  15.9949146  12.0000000   1.0078250   1.0078250   1.0078250
 NucSpn=           1           0           0           1           1           1
 AtZEff=   0.0000000   0.0000000   0.0000000   0.0000000   0.0000000   0.0000000
 NQMom=    0.0000000   0.0000000   0.0000000   0.0000000   0.0000000   0.0000000
 NMagM=    2.7928460   0.0000000   0.0000000   2.7928460   2.7928460   2.7928460
 AtZNuc=   1.0000000   8.0000000   6.0000000   1.0000000   1.0000000   1.0000000
 Leave Link  101 at Mon Dec 08 16:40:56 2025, MaxMem=   104857600 cpu:               0.0 elap:               0.1
 (Enter D:\Gaussian\G16W\l202.exe)
                          Input orientation:                          
 ---------------------------------------------------------------------
 Center     Atomic      Atomic             Coordinates (Angstroms)
 Number     Number       Type             X           Y           Z
 ---------------------------------------------------------------------
      1          6           0       -0.776426   -0.773917    0.000003
      2          6           0        0.571874   -1.100380   -0.000011
      3          6           0        1.527500   -0.084360   -0.000012
      4          6           0        1.108781    1.280927   -0.000009
      5          6           0       -0.213504    1.632275    0.000007
      6          6           0       -1.234501    0.618117    0.000002
      7          1           0        0.865248   -2.143745   -0.000018
      8          1           0        1.871083    2.053310    0.000013
      9          1           0       -0.535164    2.666732    0.000024
     10          8           0       -2.470566    0.822879   -0.000007
     11          1           0       -2.569704   -1.174539    0.000005
     12          8           0       -1.738116   -1.695511    0.000009
     13          6           0        2.996800   -0.404049    0.000005
     14          1           0        3.175674   -1.479919   -0.000052
     15          1           0        3.489619    0.023827   -0.879477
     16          1           0        3.489562    0.023709    0.879581
 ---------------------------------------------------------------------
                    Distance matrix (angstroms):
                    1          2          3          4          5
     1  C    0.000000
     2  C    1.387260   0.000000
     3  C    2.404904   1.394818   0.000000
     4  C    2.788618   2.441084   1.428053   0.000000
     5  C    2.471162   2.843277   2.444981   1.368168   0.000000
     6  C    1.465466   2.493235   2.849934   2.435218   1.439080
     7  H    2.138112   1.083826   2.163249   3.433320   3.927090
     8  H    3.873308   3.410822   2.165106   1.085210   2.126681
     9  H    3.449097   3.926406   3.438472   2.150119   1.083313
    10  O    2.328061   3.599356   4.099709   3.608536   2.397801
    11  H    1.837483   3.142453   4.239761   4.422733   3.664681
    12  O    1.331985   2.385421   3.641436   4.118738   3.660410
    13  C    3.791311   2.522923   1.503677   2.530565   3.801666
    14  H    4.014665   2.631316   2.159644   3.448814   4.601334
    15  H    4.428207   3.248159   2.152922   2.832341   4.132035
    16  H    4.428151   3.248101   2.152917   2.832383   4.132049
                    6          7          8          9         10
     6  C    0.000000
     7  H    3.469413   0.000000
     8  H    3.421174   4.315898   0.000000
     9  H    2.164693   5.010174   2.483206   0.000000
    10  O    1.252910   4.464136   4.512635   2.673121   0.000000
    11  H    2.235259   3.569069   5.489954   4.346805   1.999877
    12  O    2.367805   2.641670   5.203842   4.525070   2.622741
    13  C    4.353014   2.751373   2.702934   4.680221   5.603342
    14  H    4.883789   2.403900   3.766386   5.564623   6.097779
    15  H    4.841898   3.515557   2.740796   4.894624   6.077479
    16  H    4.841875   3.515477   2.740875   4.894651   6.077456
                   11         12         13         14         15
    11  H    0.000000
    12  O    0.981300   0.000000
    13  C    5.619575   4.907882   0.000000
    14  H    5.753488   4.918517   1.090638   0.000000
    15  H    6.238987   5.573045   1.095188   1.770085   0.000000
    16  H    6.238923   5.572969   1.095192   1.770078   1.759058
                   16
    16  H    0.000000
 Stoichiometry    C7H7O2(2)
 Framework group  C1[X(C7H7O2)]
 Deg. of freedom    42
 Full point group                 C1      NOp   1
 Largest Abelian subgroup         C1      NOp   1
 Largest concise Abelian subgroup C1      NOp   1
                         Standard orientation:                         
 ---------------------------------------------------------------------
 Center     Atomic      Atomic             Coordinates (Angstroms)
 Number     Number       Type             X           Y           Z
 ---------------------------------------------------------------------
      1          6           0       -0.776426   -0.773917    0.000003
      2          6           0        0.571874   -1.100380   -0.000011
      3          6           0        1.527500   -0.084360   -0.000012
      4          6           0        1.108781    1.280927   -0.000009
      5          6           0       -0.213504    1.632275    0.000007
      6          6           0       -1.234501    0.618117    0.000002
      7          1           0        0.865248   -2.143745   -0.000018
      8          1           0        1.871083    2.053310    0.000013
      9          1           0       -0.535164    2.666732    0.000024
     10          8           0       -2.470566    0.822879   -0.000007
     11          1           0       -2.569704   -1.174539    0.000005
     12          8           0       -1.738116   -1.695511    0.000009
     13          6           0        2.996800   -0.404049    0.000005
     14          1           0        3.175674   -1.479919   -0.000052
     15          1           0        3.489619    0.023827   -0.879477
     16          1           0        3.489562    0.023709    0.879581
 ---------------------------------------------------------------------
 Rotational constants (GHZ):           3.1981639           1.3541757           0.9569695
 Leave Link  202 at Mon Dec 08 16:40:56 2025, MaxMem=   104857600 cpu:               0.0 elap:               0.0
 (Enter D:\Gaussian\G16W\l301.exe)
 Standard basis: 6-31G(d) (6D, 7F)
 Ernie: Thresh=  0.10000D-02 Tol=  0.10000D-05 Strict=F.
 There are   149 symmetry adapted cartesian basis functions of A   symmetry.
 There are   149 symmetry adapted basis functions of A   symmetry.
   149 basis functions,   280 primitive gaussians,   149 cartesian basis functions
    33 alpha electrons       32 beta electrons
       nuclear repulsion energy       417.7750601576 Hartrees.
 IExCor=  402 DFT=T Ex+Corr=B3LYP ExCW=0 ScaHFX=  0.200000
 ScaDFX=  0.800000  0.720000  1.000000  0.810000 ScalE2=  1.000000  1.000000
 IRadAn=      5 IRanWt=     -1 IRanGd=            0 ICorTp=0 IEmpDi=  4
 NAtoms=   16 NActive=   16 NUniq=   16 SFac= 1.00D+00 NAtFMM=   60 NAOKFM=F Big=F
 Integral buffers will be    131072 words long.
 Raffenetti 2 integral format.
 Two-electron integral symmetry is turned on.
 Leave Link  301 at Mon Dec 08 16:40:56 2025, MaxMem=   104857600 cpu:               0.0 elap:               0.1
 (Enter D:\Gaussian\G16W\l302.exe)
 NPDir=0 NMtPBC=     1 NCelOv=     1 NCel=       1 NClECP=     1 NCelD=      1
         NCelK=      1 NCelE2=     1 NClLst=     1 CellRange=     0.0.
 One-electron integrals computed using PRISM.
 One-electron integral symmetry used in STVInt
 NBasis=   149 RedAO= T EigKep=  4.54D-04  NBF=   149
 NBsUse=   149 1.00D-06 EigRej= -1.00D+00 NBFU=   149
 Precomputing XC quadrature grid using
 IXCGrd= 4 IRadAn=           5 IRanWt=          -1 IRanGd=           0 AccXCQ= 0.00D+00.
 Generated NRdTot=       0 NPtTot=           0 NUsed=           0 NTot=          32
 NSgBfM=   149   149   149   149   149 MxSgAt=    16 MxSgA2=    16.
 Leave Link  302 at Mon Dec 08 16:40:56 2025, MaxMem=   104857600 cpu:               0.0 elap:               0.2
 (Enter D:\Gaussian\G16W\l303.exe)
 DipDrv:  MaxL=1.
 Leave Link  303 at Mon Dec 08 16:40:56 2025, MaxMem=   104857600 cpu:               0.0 elap:               0.1
 (Enter D:\Gaussian\G16W\l401.exe)
 ExpMin= 1.61D-01 ExpMax= 5.48D+03 ExpMxC= 8.25D+02 IAcc=3 IRadAn=         5 AccDes= 0.00D+00
 Harris functional with IExCor=  402 and IRadAn=       5 diagonalized for initial guess.
 HarFok:  IExCor=  402 AccDes= 0.00D+00 IRadAn=         5 IDoV= 1 UseB2=F ITyADJ=14
 ICtDFT=  3500011 ScaDFX=  1.000000  1.000000  1.000000  1.000000
 FoFCou: FMM=F IPFlag=           0 FMFlag=      100000 FMFlg1=           0
         NFxFlg=           0 DoJE=T BraDBF=F KetDBF=T FulRan=T
         wScrn=  0.000000 ICntrl=       500 IOpCl=  0 I1Cent=   200000004 NGrid=           0
         NMat0=    1 NMatS0=      1 NMatT0=    0 NMatD0=    1 NMtDS0=    0 NMtDT0=    0
 Petite list used in FoFCou.
 Harris En= -421.395754966501    
 JPrj=0 DoOrth=F DoCkMO=F.
 Initial guess <Sx>= 0.0000 <Sy>= 0.0000 <Sz>= 0.5000 <S**2>= 0.7500 S= 0.5000
 Leave Link  401 at Mon Dec 08 16:40:57 2025, MaxMem=   104857600 cpu:               1.0 elap:               0.9
 (Enter D:\Gaussian\G16W\l502.exe)
 Integral symmetry usage will be decided dynamically.
 UHF open shell SCF:
 Using DIIS extrapolation, IDIIS=  1040.
 NGot=   104857600 LenX=   104810543 LenY=   104787901
 Requested convergence on RMS density matrix=1.00D-07 within 128 cycles.
 Requested convergence on MAX density matrix=1.00D-05.
 Requested convergence on             energy=1.00D-05.
 No special actions if energy rises.
 Fock matrices will be formed incrementally for  20 cycles.
 Integral accuracy reduced to 1.0D-05 until final iterations.

 Cycle   1  Pass 0  IDiag  1:
 FoFJK:  IHMeth= 1 ICntrl=       0 DoSepK=F KAlg= 0 I1Cent=           0 FoldK=F
 IRaf= 940000000 NMat=       1 IRICut=       1 DoRegI=T DoRafI=F ISym2E= 0 IDoP0=0 IntGTp=1.
 FoFCou: FMM=F IPFlag=           0 FMFlag=      100000 FMFlg1=           0
         NFxFlg=           0 DoJE=F BraDBF=F KetDBF=F FulRan=T
         wScrn=  0.000000 ICntrl=         0 IOpCl=  1 I1Cent=           0 NGrid=           0
         NMat0=    1 NMatS0=      1 NMatT0=    0 NMatD0=    1 NMtDS0=    0 NMtDT0=    0
 Symmetry not used in FoFCou.
 E= -421.162463132003    
 DIIS: error= 3.50D-02 at cycle   1 NSaved=   1.
 NSaved= 1 IEnMin= 1 EnMin= -421.162463132003     IErMin= 1 ErrMin= 3.50D-02
 ErrMax= 3.50D-02  0.00D+00 EMaxC= 1.00D-01 BMatC= 9.18D-01 BMatP= 9.18D-01
 IDIUse=3 WtCom= 6.50D-01 WtEn= 3.50D-01
 Coeff-Com:  0.100D+01
 Coeff-En:   0.100D+01
 Coeff:      0.100D+01
 Gap=     0.184 Goal=   None    Shift=    0.000
 Gap=     0.102 Goal=   None    Shift=    0.000
 GapD=    0.102 DampG=1.000 DampE=0.500 DampFc=0.5000 IDamp=-1.
 Damping current iteration by 5.00D-01
 RMSDP=7.57D-03 MaxDP=1.98D-01              OVMax= 2.84D-01

 Cycle   2  Pass 0  IDiag  1:
 RMSU=  3.75D-03    CP:  9.82D-01
 E= -421.244090423476     Delta-E=       -0.081627291473 Rises=F Damp=T
 DIIS: error= 9.44D-03 at cycle   2 NSaved=   2.
 NSaved= 2 IEnMin= 2 EnMin= -421.244090423476     IErMin= 2 ErrMin= 9.44D-03
 ErrMax= 9.44D-03  0.00D+00 EMaxC= 1.00D-01 BMatC= 1.08D-01 BMatP= 9.18D-01
 IDIUse=3 WtCom= 9.06D-01 WtEn= 9.44D-02
 Coeff-Com:  0.150D+00 0.850D+00
 Coeff-En:   0.221D+00 0.779D+00
 Coeff:      0.157D+00 0.843D+00
 Gap=     0.220 Goal=   None    Shift=    0.000
 Gap=     0.154 Goal=   None    Shift=    0.000
 RMSDP=2.52D-03 MaxDP=6.34D-02 DE=-8.16D-02 OVMax= 2.14D-01

 Cycle   3  Pass 0  IDiag  1:
 RMSU=  2.27D-03    CP:  9.71D-01  7.19D-01
 E= -421.348083737673     Delta-E=       -0.103993314197 Rises=F Damp=F
 DIIS: error= 1.80D-02 at cycle   3 NSaved=   3.
 NSaved= 3 IEnMin= 3 EnMin= -421.348083737673     IErMin= 2 ErrMin= 9.44D-03
 ErrMax= 1.80D-02  0.00D+00 EMaxC= 1.00D-01 BMatC= 1.47D-01 BMatP= 1.08D-01
 IDIUse=2 WtCom= 0.00D+00 WtEn= 1.00D+00
 Coeff-En:   0.000D+00 0.000D+00 0.100D+01
 Coeff:      0.000D+00 0.000D+00 0.100D+01
 Gap=     0.191 Goal=   None    Shift=    0.000
 Gap=     0.142 Goal=   None    Shift=    0.000
 RMSDP=4.42D-03 MaxDP=1.58D-01 DE=-1.04D-01 OVMax= 2.75D-01

 Cycle   4  Pass 0  IDiag  1:
 RMSU=  2.18D-03    CP:  9.80D-01  1.28D+00 -4.10D-01
 E= -421.197763278312     Delta-E=        0.150320459361 Rises=F Damp=F
 DIIS: error= 3.88D-02 at cycle   4 NSaved=   4.
 NSaved= 4 IEnMin= 3 EnMin= -421.348083737673     IErMin= 2 ErrMin= 9.44D-03
 ErrMax= 3.88D-02  0.00D+00 EMaxC= 1.00D-01 BMatC= 8.70D-01 BMatP= 1.08D-01
 IDIUse=2 WtCom= 0.00D+00 WtEn= 1.00D+00
 Coeff-En:   0.000D+00 0.000D+00 0.795D+00 0.205D+00
 Coeff:      0.000D+00 0.000D+00 0.795D+00 0.205D+00
 Gap=     0.191 Goal=   None    Shift=    0.000
 Gap=     0.118 Goal=   None    Shift=    0.000
 RMSDP=2.50D-03 MaxDP=7.76D-02 DE= 1.50D-01 OVMax= 1.16D-01

 Cycle   5  Pass 0  IDiag  1:
 RMSU=  4.40D-04    CP:  9.77D-01  9.08D-01  3.25D-01  4.82D-01
 E= -421.367554197979     Delta-E=       -0.169790919667 Rises=F Damp=F
 DIIS: error= 1.02D-02 at cycle   5 NSaved=   5.
 NSaved= 5 IEnMin= 5 EnMin= -421.367554197979     IErMin= 2 ErrMin= 9.44D-03
 ErrMax= 1.02D-02  0.00D+00 EMaxC= 1.00D-01 BMatC= 6.35D-02 BMatP= 1.08D-01
 IDIUse=3 WtCom= 8.98D-01 WtEn= 1.02D-01
 Coeff-Com:  0.209D-02 0.469D-02 0.349D+00-0.438D-01 0.688D+00
 Coeff-En:   0.000D+00 0.000D+00 0.333D+00 0.000D+00 0.667D+00
 Coeff:      0.188D-02 0.421D-02 0.348D+00-0.393D-01 0.686D+00
 Gap=     0.195 Goal=   None    Shift=    0.000
 Gap=     0.133 Goal=   None    Shift=    0.000
 RMSDP=8.39D-04 MaxDP=2.33D-02 DE=-1.70D-01 OVMax= 3.95D-02

 Cycle   6  Pass 0  IDiag  1:
 RMSU=  1.85D-04    CP:  9.75D-01  8.19D-01  6.06D-01  3.19D-01  6.67D-01
 E= -421.380729626656     Delta-E=       -0.013175428677 Rises=F Damp=F
 DIIS: error= 1.31D-03 at cycle   6 NSaved=   6.
 NSaved= 6 IEnMin= 6 EnMin= -421.380729626656     IErMin= 6 ErrMin= 1.31D-03
 ErrMax= 1.31D-03  0.00D+00 EMaxC= 1.00D-01 BMatC= 8.88D-04 BMatP= 6.35D-02
 IDIUse=3 WtCom= 9.87D-01 WtEn= 1.31D-02
 Coeff-Com: -0.444D-02 0.738D-02 0.139D+00-0.687D-01 0.449D+00 0.477D+00
 Coeff-En:   0.000D+00 0.000D+00 0.000D+00 0.000D+00 0.000D+00 0.100D+01
 Coeff:     -0.438D-02 0.728D-02 0.138D+00-0.678D-01 0.443D+00 0.484D+00
 Gap=     0.194 Goal=   None    Shift=    0.000
 Gap=     0.123 Goal=   None    Shift=    0.000
 RMSDP=1.23D-04 MaxDP=3.71D-03 DE=-1.32D-02 OVMax= 8.44D-03

 Cycle   7  Pass 0  IDiag  1:
 RMSU=  7.78D-05    CP:  9.75D-01  8.24D-01  5.99D-01  3.07D-01  8.44D-01
                    CP:  7.58D-01
 E= -421.380992636884     Delta-E=       -0.000263010228 Rises=F Damp=F
 DIIS: error= 5.05D-04 at cycle   7 NSaved=   7.
 NSaved= 7 IEnMin= 7 EnMin= -421.380992636884     IErMin= 7 ErrMin= 5.05D-04
 ErrMax= 5.05D-04  0.00D+00 EMaxC= 1.00D-01 BMatC= 1.33D-04 BMatP= 8.88D-04
 IDIUse=3 WtCom= 9.95D-01 WtEn= 5.05D-03
 Coeff-Com: -0.166D-02 0.293D-02 0.114D-01-0.291D-01 0.945D-01 0.193D+00
 Coeff-Com:  0.729D+00
 Coeff-En:   0.000D+00 0.000D+00 0.000D+00 0.000D+00 0.000D+00 0.000D+00
 Coeff-En:   0.100D+01
 Coeff:     -0.165D-02 0.291D-02 0.113D-01-0.289D-01 0.940D-01 0.192D+00
 Coeff:      0.730D+00
 Gap=     0.195 Goal=   None    Shift=    0.000
 Gap=     0.124 Goal=   None    Shift=    0.000
 RMSDP=5.75D-05 MaxDP=2.13D-03 DE=-2.63D-04 OVMax= 4.93D-03

 Cycle   8  Pass 0  IDiag  1:
 RMSU=  4.10D-05    CP:  9.75D-01  8.19D-01  6.07D-01  3.08D-01  8.86D-01
                    CP:  8.96D-01  1.08D+00
 E= -421.381041616722     Delta-E=       -0.000048979839 Rises=F Damp=F
 DIIS: error= 3.03D-04 at cycle   8 NSaved=   8.
 NSaved= 8 IEnMin= 8 EnMin= -421.381041616722     IErMin= 8 ErrMin= 3.03D-04
 ErrMax= 3.03D-04  0.00D+00 EMaxC= 1.00D-01 BMatC= 4.06D-05 BMatP= 1.33D-04
 IDIUse=3 WtCom= 9.97D-01 WtEn= 3.03D-03
 Coeff-Com:  0.247D-02-0.758D-02-0.563D-01 0.186D-01-0.169D+00-0.143D+00
 Coeff-Com:  0.411D+00 0.944D+00
 Coeff-En:   0.000D+00 0.000D+00 0.000D+00 0.000D+00 0.000D+00 0.000D+00
 Coeff-En:   0.000D+00 0.100D+01
 Coeff:      0.246D-02-0.756D-02-0.562D-01 0.186D-01-0.169D+00-0.142D+00
 Coeff:      0.409D+00 0.945D+00
 Gap=     0.195 Goal=   None    Shift=    0.000
 Gap=     0.124 Goal=   None    Shift=    0.000
 RMSDP=5.80D-05 MaxDP=2.05D-03 DE=-4.90D-05 OVMax= 4.69D-03

 Cycle   9  Pass 0  IDiag  1:
 RMSU=  1.87D-05    CP:  9.75D-01  8.16D-01  6.16D-01  3.06D-01  9.29D-01
                    CP:  1.03D+00  1.54D+00  1.33D+00
 E= -421.381068040216     Delta-E=       -0.000026423494 Rises=F Damp=F
 DIIS: error= 9.86D-05 at cycle   9 NSaved=   9.
 NSaved= 9 IEnMin= 9 EnMin= -421.381068040216     IErMin= 9 ErrMin= 9.86D-05
 ErrMax= 9.86D-05  0.00D+00 EMaxC= 1.00D-01 BMatC= 4.10D-06 BMatP= 4.06D-05
 IDIUse=1 WtCom= 1.00D+00 WtEn= 0.00D+00
 Coeff-Com:  0.936D-03-0.268D-02-0.246D-01 0.110D-01-0.783D-01-0.792D-01
 Coeff-Com:  0.451D-01 0.346D+00 0.782D+00
 Coeff:      0.936D-03-0.268D-02-0.246D-01 0.110D-01-0.783D-01-0.792D-01
 Coeff:      0.451D-01 0.346D+00 0.782D+00
 Gap=     0.196 Goal=   None    Shift=    0.000
 Gap=     0.124 Goal=   None    Shift=    0.000
 RMSDP=1.83D-05 MaxDP=7.27D-04 DE=-2.64D-05 OVMax= 2.40D-03

 Cycle  10  Pass 0  IDiag  1:
 RMSU=  1.02D-05    CP:  9.75D-01  8.16D-01  6.16D-01  3.07D-01  9.38D-01
                    CP:  1.08D+00  1.66D+00  1.48D+00  9.92D-01
 E= -421.381070870574     Delta-E=       -0.000002830358 Rises=F Damp=F
 DIIS: error= 5.45D-05 at cycle  10 NSaved=  10.
 NSaved=10 IEnMin=10 EnMin= -421.381070870574     IErMin=10 ErrMin= 5.45D-05
 ErrMax= 5.45D-05  0.00D+00 EMaxC= 1.00D-01 BMatC= 1.78D-06 BMatP= 4.10D-06
 IDIUse=1 WtCom= 1.00D+00 WtEn= 0.00D+00
 Coeff-Com: -0.187D-03 0.880D-03-0.146D-02 0.128D-02-0.373D-02-0.107D-01
 Coeff-Com: -0.603D-01-0.311D-01 0.450D+00 0.656D+00
 Coeff:     -0.187D-03 0.880D-03-0.146D-02 0.128D-02-0.373D-02-0.107D-01
 Coeff:     -0.603D-01-0.311D-01 0.450D+00 0.656D+00
 Gap=     0.196 Goal=   None    Shift=    0.000
 Gap=     0.124 Goal=   None    Shift=    0.000
 RMSDP=7.81D-06 MaxDP=3.06D-04 DE=-2.83D-06 OVMax= 8.66D-04

 Initial convergence to 1.0D-05 achieved.  Increase integral accuracy.
 Cycle  11  Pass 1  IDiag  1:
 E= -421.381060852406     Delta-E=        0.000010018169 Rises=F Damp=F
 DIIS: error= 2.86D-05 at cycle   1 NSaved=   1.
 NSaved= 1 IEnMin= 1 EnMin= -421.381060852406     IErMin= 1 ErrMin= 2.86D-05
 ErrMax= 2.86D-05  0.00D+00 EMaxC= 1.00D-01 BMatC= 1.91D-07 BMatP= 1.91D-07
 IDIUse=1 WtCom= 1.00D+00 WtEn= 0.00D+00
 Coeff-Com:  0.100D+01
 Coeff:      0.100D+01
 Gap=     0.196 Goal=   None    Shift=    0.000
 Gap=     0.124 Goal=   None    Shift=    0.000
 RMSDP=7.81D-06 MaxDP=3.06D-04 DE= 1.00D-05 OVMax= 3.69D-04

 Cycle  12  Pass 1  IDiag  1:
 RMSU=  5.79D-06    CP:  1.00D+00
 E= -421.381060971700     Delta-E=       -0.000000119295 Rises=F Damp=F
 DIIS: error= 2.27D-05 at cycle   2 NSaved=   2.
 NSaved= 2 IEnMin= 2 EnMin= -421.381060971700     IErMin= 2 ErrMin= 2.27D-05
 ErrMax= 2.27D-05  0.00D+00 EMaxC= 1.00D-01 BMatC= 1.99D-07 BMatP= 1.91D-07
 IDIUse=1 WtCom= 1.00D+00 WtEn= 0.00D+00
 Coeff-Com:  0.509D+00 0.491D+00
 Coeff:      0.509D+00 0.491D+00
 Gap=     0.196 Goal=   None    Shift=    0.000
 Gap=     0.124 Goal=   None    Shift=    0.000
 RMSDP=2.22D-06 MaxDP=8.97D-05 DE=-1.19D-07 OVMax= 1.73D-04

 Cycle  13  Pass 1  IDiag  1:
 RMSU=  2.21D-06    CP:  1.00D+00  9.69D-01
 E= -421.381061036080     Delta-E=       -0.000000064380 Rises=F Damp=F
 DIIS: error= 1.49D-05 at cycle   3 NSaved=   3.
 NSaved= 3 IEnMin= 3 EnMin= -421.381061036080     IErMin= 3 ErrMin= 1.49D-05
 ErrMax= 1.49D-05  0.00D+00 EMaxC= 1.00D-01 BMatC= 5.44D-08 BMatP= 1.91D-07
 IDIUse=1 WtCom= 1.00D+00 WtEn= 0.00D+00
 Coeff-Com: -0.130D+00 0.283D+00 0.848D+00
 Coeff:     -0.130D+00 0.283D+00 0.848D+00
 Gap=     0.196 Goal=   None    Shift=    0.000
 Gap=     0.124 Goal=   None    Shift=    0.000
 RMSDP=1.85D-06 MaxDP=7.86D-05 DE=-6.44D-08 OVMax= 1.87D-04

 Cycle  14  Pass 1  IDiag  1:
 RMSU=  1.58D-06    CP:  1.00D+00  1.13D+00  1.03D+00
 E= -421.381061074111     Delta-E=       -0.000000038031 Rises=F Damp=F
 DIIS: error= 5.96D-06 at cycle   4 NSaved=   4.
 NSaved= 4 IEnMin= 4 EnMin= -421.381061074111     IErMin= 4 ErrMin= 5.96D-06
 ErrMax= 5.96D-06  0.00D+00 EMaxC= 1.00D-01 BMatC= 2.46D-08 BMatP= 5.44D-08
 IDIUse=1 WtCom= 1.00D+00 WtEn= 0.00D+00
 Coeff-Com: -0.257D+00 0.622D-01 0.576D+00 0.619D+00
 Coeff:     -0.257D+00 0.622D-01 0.576D+00 0.619D+00
 Gap=     0.196 Goal=   None    Shift=    0.000
 Gap=     0.124 Goal=   None    Shift=    0.000
 RMSDP=1.23D-06 MaxDP=5.21D-05 DE=-3.80D-08 OVMax= 1.55D-04

 Cycle  15  Pass 1  IDiag  1:
 RMSU=  8.53D-07    CP:  1.00D+00  1.23D+00  1.30D+00  1.19D+00
 E= -421.381061089493     Delta-E=       -0.000000015382 Rises=F Damp=F
 DIIS: error= 3.38D-06 at cycle   5 NSaved=   5.
 NSaved= 5 IEnMin= 5 EnMin= -421.381061089493     IErMin= 5 ErrMin= 3.38D-06
 ErrMax= 3.38D-06  0.00D+00 EMaxC= 1.00D-01 BMatC= 5.87D-09 BMatP= 2.46D-08
 IDIUse=1 WtCom= 1.00D+00 WtEn= 0.00D+00
 Coeff-Com: -0.680D-01-0.735D-01-0.111D+00 0.350D+00 0.902D+00
 Coeff:     -0.680D-01-0.735D-01-0.111D+00 0.350D+00 0.902D+00
 Gap=     0.196 Goal=   None    Shift=    0.000
 Gap=     0.124 Goal=   None    Shift=    0.000
 RMSDP=8.71D-07 MaxDP=3.89D-05 DE=-1.54D-08 OVMax= 9.51D-05

 Cycle  16  Pass 1  IDiag  1:
 RMSU=  2.83D-07    CP:  1.00D+00  1.29D+00  1.43D+00  1.62D+00  1.05D+00
 E= -421.381061094109     Delta-E=       -0.000000004616 Rises=F Damp=F
 DIIS: error= 1.50D-06 at cycle   6 NSaved=   6.
 NSaved= 6 IEnMin= 6 EnMin= -421.381061094109     IErMin= 6 ErrMin= 1.50D-06
 ErrMax= 1.50D-06  0.00D+00 EMaxC= 1.00D-01 BMatC= 1.63D-09 BMatP= 5.87D-09
 IDIUse=1 WtCom= 1.00D+00 WtEn= 0.00D+00
 Coeff-Com:  0.679D-03-0.562D-01-0.172D+00 0.119D+00 0.563D+00 0.546D+00
 Coeff:      0.679D-03-0.562D-01-0.172D+00 0.119D+00 0.563D+00 0.546D+00
 Gap=     0.196 Goal=   None    Shift=    0.000
 Gap=     0.124 Goal=   None    Shift=    0.000
 RMSDP=2.54D-07 MaxDP=1.02D-05 DE=-4.62D-09 OVMax= 3.34D-05

 Cycle  17  Pass 1  IDiag  1:
 RMSU=  1.17D-07    CP:  1.00D+00  1.31D+00  1.46D+00  1.71D+00  1.15D+00
                    CP:  7.17D-01
 E= -421.381061094760     Delta-E=       -0.000000000651 Rises=F Damp=F
 DIIS: error= 6.12D-07 at cycle   7 NSaved=   7.
 NSaved= 7 IEnMin= 7 EnMin= -421.381061094760     IErMin= 7 ErrMin= 6.12D-07
 ErrMax= 6.12D-07  0.00D+00 EMaxC= 1.00D-01 BMatC= 1.58D-10 BMatP= 1.63D-09
 IDIUse=1 WtCom= 1.00D+00 WtEn= 0.00D+00
 Coeff-Com:  0.915D-02-0.131D-01-0.572D-01 0.276D-02 0.106D+00 0.249D+00
 Coeff-Com:  0.704D+00
 Coeff:      0.915D-02-0.131D-01-0.572D-01 0.276D-02 0.106D+00 0.249D+00
 Coeff:      0.704D+00
 Gap=     0.196 Goal=   None    Shift=    0.000
 Gap=     0.124 Goal=   None    Shift=    0.000
 RMSDP=8.88D-08 MaxDP=3.33D-06 DE=-6.51D-10 OVMax= 8.81D-06

 SCF Done:  E(UB3LYP) =  -421.381061095     A.U. after   17 cycles
            NFock= 17  Conv=0.89D-07     -V/T= 2.0090
 <Sx>= 0.0000 <Sy>= 0.0000 <Sz>= 0.5000 <S**2>= 0.7699 S= 0.5099
 <L.S>= 0.000000000000E+00
 KE= 4.176095655091D+02 PE=-1.817455968615D+03 EE= 5.606902818539D+02
 Annihilation of the first spin contaminant:
 S**2 before annihilation     0.7699,   after     0.7503
 Leave Link  502 at Mon Dec 08 16:41:23 2025, MaxMem=   104857600 cpu:              26.0 elap:              26.1
 (Enter D:\Gaussian\G16W\l601.exe)
 Copying SCF densities to generalized density rwf, IOpCl= 1 IROHF=0.

 **********************************************************************

            Population analysis using the SCF density.

 **********************************************************************

 Orbital symmetries:
 Alpha Orbitals:
       Occupied  (A) (A) (A) (A) (A) (A) (A) (A) (A) (A) (A) (A)
                 (A) (A) (A) (A) (A) (A) (A) (A) (A) (A) (A) (A)
                 (A) (A) (A) (A) (A) (A) (A) (A) (A)
       Virtual   (A) (A) (A) (A) (A) (A) (A) (A) (A) (A) (A) (A)
                 (A) (A) (A) (A) (A) (A) (A) (A) (A) (A) (A) (A)
                 (A) (A) (A) (A) (A) (A) (A) (A) (A) (A) (A) (A)
                 (A) (A) (A) (A) (A) (A) (A) (A) (A) (A) (A) (A)
                 (A) (A) (A) (A) (A) (A) (A) (A) (A) (A) (A) (A)
                 (A) (A) (A) (A) (A) (A) (A) (A) (A) (A) (A) (A)
                 (A) (A) (A) (A) (A) (A) (A) (A) (A) (A) (A) (A)
                 (A) (A) (A) (A) (A) (A) (A) (A) (A) (A) (A) (A)
                 (A) (A) (A) (A) (A) (A) (A) (A) (A) (A) (A) (A)
                 (A) (A) (A) (A) (A) (A) (A) (A)
 Beta  Orbitals:
       Occupied  (A) (A) (A) (A) (A) (A) (A) (A) (A) (A) (A) (A)
                 (A) (A) (A) (A) (A) (A) (A) (A) (A) (A) (A) (A)
                 (A) (A) (A) (A) (A) (A) (A) (A)
       Virtual   (A) (A) (A) (A) (A) (A) (A) (A) (A) (A) (A) (A)
                 (A) (A) (A) (A) (A) (A) (A) (A) (A) (A) (A) (A)
                 (A) (A) (A) (A) (A) (A) (A) (A) (A) (A) (A) (A)
                 (A) (A) (A) (A) (A) (A) (A) (A) (A) (A) (A) (A)
                 (A) (A) (A) (A) (A) (A) (A) (A) (A) (A) (A) (A)
                 (A) (A) (A) (A) (A) (A) (A) (A) (A) (A) (A) (A)
                 (A) (A) (A) (A) (A) (A) (A) (A) (A) (A) (A) (A)
                 (A) (A) (A) (A) (A) (A) (A) (A) (A) (A) (A) (A)
                 (A) (A) (A) (A) (A) (A) (A) (A) (A) (A) (A) (A)
                 (A) (A) (A) (A) (A) (A) (A) (A) (A)
 The electronic state is 2-A.
 Alpha  occ. eigenvalues --  -19.19675 -19.14351 -10.26845 -10.25918 -10.22775
 Alpha  occ. eigenvalues --  -10.20565 -10.20259 -10.19957 -10.19887  -1.09287
 Alpha  occ. eigenvalues --   -1.02651  -0.86553  -0.77374  -0.75944  -0.68133
 Alpha  occ. eigenvalues --   -0.62150  -0.61468  -0.53924  -0.50657  -0.48488
 Alpha  occ. eigenvalues --   -0.45748  -0.45285  -0.43293  -0.42838  -0.41616
 Alpha  occ. eigenvalues --   -0.39526  -0.38239  -0.38202  -0.35892  -0.33345
 Alpha  occ. eigenvalues --   -0.26922  -0.25746  -0.20491
 Alpha virt. eigenvalues --   -0.00931  -0.00110   0.08951   0.10648   0.11840
 Alpha virt. eigenvalues --    0.12861   0.13688   0.16988   0.17499   0.18351
 Alpha virt. eigenvalues --    0.21483   0.23900   0.26453   0.30949   0.32437
 Alpha virt. eigenvalues --    0.35316   0.36212   0.45760   0.48340   0.49458
 Alpha virt. eigenvalues --    0.51239   0.53329   0.53587   0.56124   0.58296
 Alpha virt. eigenvalues --    0.59012   0.60157   0.63479   0.65212   0.65510
 Alpha virt. eigenvalues --    0.66749   0.69095   0.70399   0.71477   0.73713
 Alpha virt. eigenvalues --    0.76811   0.76860   0.82643   0.84421   0.86340
 Alpha virt. eigenvalues --    0.87452   0.90233   0.92001   0.92560   0.94247
 Alpha virt. eigenvalues --    0.95837   0.96002   0.98237   1.02600   1.03962
 Alpha virt. eigenvalues --    1.08494   1.10765   1.13805   1.18001   1.21494
 Alpha virt. eigenvalues --    1.23715   1.25396   1.29679   1.34050   1.37038
 Alpha virt. eigenvalues --    1.38696   1.41348   1.43008   1.43034   1.47182
 Alpha virt. eigenvalues --    1.64792   1.69002   1.69783   1.73251   1.78164
 Alpha virt. eigenvalues --    1.78910   1.80222   1.85800   1.86380   1.88189
 Alpha virt. eigenvalues --    1.90557   1.91176   1.93182   1.94703   1.96299
 Alpha virt. eigenvalues --    2.02113   2.07210   2.07305   2.12158   2.13571
 Alpha virt. eigenvalues --    2.23567   2.28054   2.29213   2.30878   2.32163
 Alpha virt. eigenvalues --    2.35750   2.36097   2.42817   2.43274   2.55937
 Alpha virt. eigenvalues --    2.60032   2.60779   2.64593   2.69281   2.74771
 Alpha virt. eigenvalues --    2.80073   2.83495   2.88400   2.92085   3.02955
 Alpha virt. eigenvalues --    3.22047   3.37156   3.85070   4.05651   4.07661
 Alpha virt. eigenvalues --    4.16990   4.19230   4.29560   4.36246   4.54288
 Alpha virt. eigenvalues --    4.92393
  Beta  occ. eigenvalues --  -19.19404 -19.13442 -10.26462 -10.25923 -10.22337
  Beta  occ. eigenvalues --  -10.20605 -10.20058 -10.20047 -10.19980  -1.08632
  Beta  occ. eigenvalues --   -1.01039  -0.85922  -0.76799  -0.75518  -0.67549
  Beta  occ. eigenvalues --   -0.61742  -0.61086  -0.53541  -0.50368  -0.48230
  Beta  occ. eigenvalues --   -0.45514  -0.43810  -0.42444  -0.41938  -0.41216
  Beta  occ. eigenvalues --   -0.39306  -0.37978  -0.35593  -0.35531  -0.31030
  Beta  occ. eigenvalues --   -0.26028  -0.24761
  Beta virt. eigenvalues --   -0.12320   0.00830   0.02296   0.09022   0.10843
  Beta virt. eigenvalues --    0.11943   0.12888   0.14801   0.16971   0.17640
  Beta virt. eigenvalues --    0.19281   0.22071   0.24366   0.26847   0.31267
  Beta virt. eigenvalues --    0.32870   0.35577   0.36384   0.46098   0.48721
  Beta virt. eigenvalues --    0.50011   0.51589   0.53848   0.53886   0.56348
  Beta virt. eigenvalues --    0.58843   0.59276   0.60241   0.63932   0.65428
  Beta virt. eigenvalues --    0.65945   0.67011   0.69239   0.71523   0.71679
  Beta virt. eigenvalues --    0.74043   0.77230   0.77560   0.82743   0.84334
  Beta virt. eigenvalues --    0.86589   0.87590   0.90327   0.92248   0.94149
  Beta virt. eigenvalues --    0.94458   0.96110   0.96240   0.98570   1.04142
  Beta virt. eigenvalues --    1.05125   1.08926   1.11081   1.14056   1.18133
  Beta virt. eigenvalues --    1.22384   1.23889   1.25688   1.30089   1.34876
  Beta virt. eigenvalues --    1.37904   1.39154   1.42167   1.43322   1.43988
  Beta virt. eigenvalues --    1.47587   1.65386   1.69345   1.70446   1.73684
  Beta virt. eigenvalues --    1.78766   1.80607   1.80658   1.86262   1.86956
  Beta virt. eigenvalues --    1.88251   1.91073   1.91592   1.93944   1.94959
  Beta virt. eigenvalues --    1.96721   2.03324   2.07834   2.08169   2.12987
  Beta virt. eigenvalues --    2.14051   2.23640   2.29079   2.29862   2.31388
  Beta virt. eigenvalues --    2.32179   2.35844   2.36913   2.43611   2.44014
  Beta virt. eigenvalues --    2.56766   2.60400   2.61786   2.65729   2.69688
  Beta virt. eigenvalues --    2.75072   2.80465   2.83760   2.88637   2.92499
  Beta virt. eigenvalues --    3.03584   3.22232   3.37313   3.85828   4.06024
  Beta virt. eigenvalues --    4.08053   4.17263   4.19504   4.30034   4.36648
  Beta virt. eigenvalues --    4.54820   4.92953
          Condensed to atoms (all electrons):
               1          2          3          4          5          6
     1  C    4.850402   0.440708  -0.001222  -0.033312  -0.066835   0.328266
     2  C    0.440708   5.092687   0.538948  -0.039677  -0.035181  -0.036270
     3  C   -0.001222   0.538948   4.662559   0.487937  -0.017990  -0.028404
     4  C   -0.033312  -0.039677   0.487937   5.006451   0.492567  -0.010743
     5  C   -0.066835  -0.035181  -0.017990   0.492567   5.137058   0.408270
     6  C    0.328266  -0.036270  -0.028404  -0.010743   0.408270   4.605766
     7  H   -0.033875   0.344866  -0.040651   0.005795  -0.000448   0.004725
     8  H   -0.000062   0.005522  -0.049238   0.359091  -0.036205   0.003517
     9  H    0.006243   0.000100   0.003885  -0.038913   0.344487  -0.030870
    10  O   -0.074789   0.007059  -0.000154   0.004922  -0.068006   0.442787
    11  H   -0.052963   0.007775  -0.000036  -0.000264   0.002914  -0.011871
    12  O    0.313970  -0.051178   0.002455   0.000156   0.004928  -0.052629
    13  C    0.007011  -0.047429   0.354302  -0.066193   0.005807   0.000435
    14  H    0.000264  -0.002671  -0.029751   0.003642  -0.000150  -0.000006
    15  H   -0.000192   0.000412  -0.027387  -0.002171   0.000007   0.000015
    16  H   -0.000192   0.000411  -0.027387  -0.002171   0.000007   0.000015
               7          8          9         10         11         12
     1  C   -0.033875  -0.000062   0.006243  -0.074789  -0.052963   0.313970
     2  C    0.344866   0.005522   0.000100   0.007059   0.007775  -0.051178
     3  C   -0.040651  -0.049238   0.003885  -0.000154  -0.000036   0.002455
     4  C    0.005795   0.359091  -0.038913   0.004922  -0.000264   0.000156
     5  C   -0.000448  -0.036205   0.344487  -0.068006   0.002914   0.004928
     6  C    0.004725   0.003517  -0.030870   0.442787  -0.011871  -0.052629
     7  H    0.580155  -0.000155   0.000018  -0.000065  -0.000482  -0.000992
     8  H   -0.000155   0.590971  -0.006111  -0.000064   0.000001   0.000002
     9  H    0.000018  -0.006111   0.568881   0.001060  -0.000069  -0.000045
    10  O   -0.000065  -0.000064   0.001060   8.187781   0.059126  -0.026110
    11  H   -0.000482   0.000001  -0.000069   0.059126   0.345816   0.222300
    12  O   -0.000992   0.000002  -0.000045  -0.026110   0.222300   8.193892
    13  C   -0.009843  -0.007609  -0.000159   0.000000   0.000004  -0.000065
    14  H    0.005916   0.000028   0.000002   0.000000   0.000000  -0.000001
    15  H    0.000138   0.002056  -0.000001   0.000000   0.000000   0.000001
    16  H    0.000138   0.002055  -0.000001   0.000000   0.000000   0.000001
              13         14         15         16
     1  C    0.007011   0.000264  -0.000192  -0.000192
     2  C   -0.047429  -0.002671   0.000412   0.000411
     3  C    0.354302  -0.029751  -0.027387  -0.027387
     4  C   -0.066193   0.003642  -0.002171  -0.002171
     5  C    0.005807  -0.000150   0.000007   0.000007
     6  C    0.000435  -0.000006   0.000015   0.000015
     7  H   -0.009843   0.005916   0.000138   0.000138
     8  H   -0.007609   0.000028   0.002056   0.002055
     9  H   -0.000159   0.000002  -0.000001  -0.000001
    10  O    0.000000   0.000000   0.000000   0.000000
    11  H    0.000004   0.000000   0.000000   0.000000
    12  O   -0.000065  -0.000001   0.000001   0.000001
    13  C    5.204164   0.367560   0.363452   0.363451
    14  H    0.367560   0.540835  -0.026331  -0.026332
    15  H    0.363452  -0.026331   0.548032  -0.031350
    16  H    0.363451  -0.026332  -0.031350   0.548034
          Atomic-Atomic Spin Densities.
               1          2          3          4          5          6
     1  C    0.291181   0.017855  -0.011757  -0.002973   0.003110   0.037508
     2  C    0.017855  -0.153313  -0.011579  -0.001188   0.001658   0.000550
     3  C   -0.011757  -0.011579   0.340837   0.035173  -0.010263  -0.003975
     4  C   -0.002973  -0.001188   0.035173  -0.041663  -0.033380  -0.002495
     5  C    0.003110   0.001658  -0.010263  -0.033380   0.180573   0.034933
     6  C    0.037508   0.000550  -0.003975  -0.002495   0.034933   0.001632
     7  H   -0.000445   0.001525  -0.000453  -0.000016  -0.000028   0.000054
     8  H   -0.000014  -0.000003  -0.000919   0.001383  -0.000180   0.000014
     9  H   -0.000028  -0.000043   0.000020   0.000515   0.001219  -0.000329
    10  O   -0.010123  -0.000098   0.000108   0.000299  -0.007410  -0.063586
    11  H    0.000734  -0.000231  -0.000010   0.000003  -0.000047   0.000474
    12  O   -0.056523   0.000047   0.000357   0.000019  -0.000155  -0.003286
    13  C   -0.000068   0.000553  -0.007059  -0.000443   0.000051  -0.000016
    14  H    0.000007   0.000320  -0.000671  -0.000030  -0.000003   0.000001
    15  H    0.000032   0.000157  -0.006562  -0.000763   0.000074   0.000007
    16  H    0.000032   0.000157  -0.006563  -0.000764   0.000074   0.000007
               7          8          9         10         11         12
     1  C   -0.000445  -0.000014  -0.000028  -0.010123   0.000734  -0.056523
     2  C    0.001525  -0.000003  -0.000043  -0.000098  -0.000231   0.000047
     3  C   -0.000453  -0.000919   0.000020   0.000108  -0.000010   0.000357
     4  C   -0.000016   0.001383   0.000515   0.000299   0.000003   0.000019
     5  C   -0.000028  -0.000180   0.001219  -0.007410  -0.000047  -0.000155
     6  C    0.000054   0.000014  -0.000329  -0.063586   0.000474  -0.003286
     7  H    0.003948   0.000001  -0.000001   0.000001   0.000015  -0.000035
     8  H    0.000001   0.000144   0.000142   0.000001   0.000000   0.000000
     9  H   -0.000001   0.000142  -0.010021  -0.000184   0.000003   0.000000
    10  O    0.000001   0.000001  -0.000184   0.429629  -0.002149   0.003031
    11  H    0.000015   0.000000   0.000003  -0.002149  -0.004984   0.001065
    12  O   -0.000035   0.000000   0.000000   0.003031   0.001065   0.142697
    13  C    0.000208   0.000242   0.000001   0.000000   0.000000   0.000000
    14  H   -0.000047  -0.000001   0.000000   0.000000   0.000000   0.000000
    15  H    0.000000  -0.000022   0.000000   0.000000   0.000000   0.000000
    16  H    0.000000  -0.000022   0.000000   0.000000   0.000000   0.000000
              13         14         15         16
     1  C   -0.000068   0.000007   0.000032   0.000032
     2  C    0.000553   0.000320   0.000157   0.000157
     3  C   -0.007059  -0.000671  -0.006562  -0.006563
     4  C   -0.000443  -0.000030  -0.000763  -0.000764
     5  C    0.000051  -0.000003   0.000074   0.000074
     6  C   -0.000016   0.000001   0.000007   0.000007
     7  H    0.000208  -0.000047   0.000000   0.000000
     8  H    0.000242  -0.000001  -0.000022  -0.000022
     9  H    0.000001   0.000000   0.000000   0.000000
    10  O    0.000000   0.000000   0.000000   0.000000
    11  H    0.000000   0.000000   0.000000   0.000000
    12  O    0.000000   0.000000   0.000000   0.000000
    13  C   -0.026484   0.001104   0.004195   0.004195
    14  H    0.001104   0.000019  -0.000196  -0.000197
    15  H    0.004195  -0.000196   0.021979  -0.004978
    16  H    0.004195  -0.000197  -0.004978   0.021984
 Mulliken charges and spin densities:
               1          2
     1  C    0.316577   0.268530
     2  C   -0.226081  -0.143634
     3  C    0.172135   0.316683
     4  C   -0.167116  -0.046323
     5  C   -0.171229   0.170226
     6  C    0.376998   0.001493
     7  H    0.144762   0.004727
     8  H    0.136200   0.000765
     9  H    0.151492  -0.008705
    10  O   -0.533546   0.349517
    11  H    0.427747  -0.005128
    12  O   -0.606685   0.087215
    13  C   -0.534887  -0.023520
    14  H    0.166996   0.000305
    15  H    0.173318   0.013923
    16  H    0.173320   0.013926
 Sum of Mulliken charges =   0.00000   1.00000
 Mulliken charges and spin densities with hydrogens summed into heavy atoms:
               1          2
     1  C    0.316577   0.268530
     2  C   -0.081319  -0.138907
     3  C    0.172135   0.316683
     4  C   -0.030916  -0.045558
     5  C   -0.019737   0.161521
     6  C    0.376998   0.001493
    10  O   -0.533546   0.349517
    12  O   -0.178938   0.082087
    13  C   -0.021253   0.004634
 Electronic spatial extent (au):  <R**2>=           1180.2234
 Charge=              0.0000 electrons
 Dipole moment (field-independent basis, Debye):
    X=              3.3034    Y=             -0.0685    Z=              0.0000  Tot=              3.3041
 Quadrupole moment (field-independent basis, Debye-Ang):
   XX=            -50.9168   YY=            -50.9551   ZZ=            -52.8000
   XY=              2.6586   XZ=              0.0000   YZ=              0.0001
 Traceless Quadrupole moment (field-independent basis, Debye-Ang):
   XX=              0.6405   YY=              0.6022   ZZ=             -1.2427
   XY=              2.6586   XZ=              0.0000   YZ=              0.0001
 Octapole moment (field-independent basis, Debye-Ang**2):
  XXX=              5.9689  YYY=              6.1220  ZZZ=              0.0002  XYY=              4.4397
  XXY=            -13.7326  XXZ=              0.0003  XZZ=             -6.1193  YZZ=             -1.7360
  YYZ=              0.0000  XYZ=             -0.0001
 Hexadecapole moment (field-independent basis, Debye-Ang**3):
 XXXX=           -977.8378 YYYY=           -431.5438 ZZZZ=            -56.6301 XXXY=             54.6740
 XXXZ=             -0.0002 YYYX=             -9.5570 YYYZ=              0.0008 ZZZX=              0.0006
 ZZZY=             -0.0001 XXYY=           -242.4210 XXZZ=           -171.2254 YYZZ=            -89.3057
 XXYZ=             -0.0001 YYXZ=             -0.0002 ZZXY=              2.4104
 N-N= 4.177750601576D+02 E-N=-1.817455949594D+03  KE= 4.176095655091D+02
                          Isotropic Fermi Contact Couplings
        Atom                 a.u.       MegaHertz       Gauss      10(-4) cm-1
     1  C(13)              0.02537      28.52323      10.17780       9.51433
     2  C(13)             -0.02190     -24.61488      -8.78320      -8.21064
     3  C(13)              0.03427      38.53003      13.74847      12.85223
     4  C(13)             -0.01056     -11.87527      -4.23739      -3.96116
     5  C(13)              0.01441      16.20008       5.78059       5.40376
     6  C(13)             -0.01344     -15.11141      -5.39213      -5.04062
     7  H(1)               0.00147       6.58018       2.34797       2.19491
     8  H(1)               0.00018       0.78996       0.28188       0.26350
     9  H(1)              -0.00282     -12.61019      -4.49963      -4.20631
    10  O(17)              0.04759     -28.84730     -10.29343      -9.62242
    11  H(1)              -0.00152      -6.80592      -2.42852      -2.27021
    12  O(17)              0.01847     -11.19607      -3.99503      -3.73461
    13  C(13)             -0.00885      -9.94628      -3.54908      -3.31772
    14  H(1)               0.00012       0.52816       0.18846       0.17618
    15  H(1)               0.00792      35.38862      12.62754      11.80437
    16  H(1)               0.00792      35.39544      12.62997      11.80665
 --------------------------------------------------------
       Center         ----  Spin Dipole Couplings  ----
                      3XX-RR        3YY-RR        3ZZ-RR
 --------------------------------------------------------
     1   Atom       -0.154184     -0.148432      0.302616
     2   Atom        0.061646      0.050980     -0.112626
     3   Atom       -0.162802     -0.171110      0.333912
     4   Atom        0.007870      0.006663     -0.014533
     5   Atom       -0.086565     -0.081323      0.167887
     6   Atom        0.003825     -0.031465      0.027640
     7   Atom        0.006768     -0.001493     -0.005274
     8   Atom       -0.001132      0.005815     -0.004683
     9   Atom       -0.010349      0.014996     -0.004647
    10   Atom       -0.671408     -0.663766      1.335174
    11   Atom        0.008917      0.004287     -0.013204
    12   Atom       -0.214401     -0.213717      0.428118
    13   Atom        0.000967     -0.007021      0.006054
    14   Atom        0.001715      0.000872     -0.002587
    15   Atom        0.005326     -0.003369     -0.001957
    16   Atom        0.005326     -0.003370     -0.001956
 --------------------------------------------------------
                        XY            XZ            YZ
 --------------------------------------------------------
     1   Atom        0.000509      0.000005     -0.000002
     2   Atom        0.001157     -0.000001      0.000001
     3   Atom       -0.003509     -0.000003      0.000002
     4   Atom       -0.003199      0.000000     -0.000001
     5   Atom        0.002245      0.000003     -0.000004
     6   Atom       -0.006241      0.000000      0.000000
     7   Atom        0.000443      0.000000      0.000000
     8   Atom        0.002444      0.000000      0.000000
     9   Atom       -0.001828      0.000000      0.000000
    10   Atom        0.003093     -0.000023      0.000000
    11   Atom       -0.010168      0.000000      0.000000
    12   Atom       -0.002147      0.000004      0.000002
    13   Atom       -0.003319      0.000000      0.000000
    14   Atom       -0.004193      0.000000      0.000000
    15   Atom        0.000097     -0.003307     -0.000900
    16   Atom        0.000097      0.003307      0.000900
 --------------------------------------------------------


 ---------------------------------------------------------------------------------
              Anisotropic Spin Dipole Couplings in Principal Axis System
 ---------------------------------------------------------------------------------

       Atom             a.u.   MegaHertz   Gauss  10(-4) cm-1        Axes

              Baa    -0.1542   -20.696    -7.385    -6.903  0.9962 -0.0874  0.0000
     1 C(13)  Bbb    -0.1484   -19.912    -7.105    -6.642  0.0874  0.9962  0.0000
              Bcc     0.3026    40.608    14.490    13.545  0.0000  0.0000  1.0000
 
              Baa    -0.1126   -15.113    -5.393    -5.041  0.0000  0.0000  1.0000
     2 C(13)  Bbb     0.0509     6.824     2.435     2.276 -0.1066  0.9943  0.0000
              Bcc     0.0618     8.289     2.958     2.765  0.9943  0.1066  0.0000
 
              Baa    -0.1724   -23.134    -8.255    -7.717  0.3436  0.9391  0.0000
     3 C(13)  Bbb    -0.1615   -21.674    -7.734    -7.230  0.9391 -0.3436  0.0000
              Bcc     0.3339    44.808    15.989    14.946  0.0000  0.0000  1.0000
 
              Baa    -0.0145    -1.950    -0.696    -0.651  0.0000  0.0000  1.0000
     4 C(13)  Bbb     0.0040     0.538     0.192     0.180  0.6383  0.7698  0.0000
              Bcc     0.0105     1.412     0.504     0.471  0.7698 -0.6383  0.0000
 
              Baa    -0.0874   -11.728    -4.185    -3.912  0.9379 -0.3468  0.0000
     5 C(13)  Bbb    -0.0805   -10.801    -3.854    -3.603  0.3468  0.9379  0.0000
              Bcc     0.1679    22.529     8.039     7.515  0.0000  0.0000  1.0000
 
              Baa    -0.0325    -4.366    -1.558    -1.456  0.1692  0.9856  0.0000
     6 C(13)  Bbb     0.0049     0.657     0.234     0.219  0.9856 -0.1692  0.0000
              Bcc     0.0276     3.709     1.323     1.237  0.0000  0.0000  1.0000
 
              Baa    -0.0053    -2.814    -1.004    -0.939  0.0000  0.0000  1.0000
     7 H(1)   Bbb    -0.0015    -0.809    -0.289    -0.270 -0.0534  0.9986  0.0000
              Bcc     0.0068     3.624     1.293     1.209  0.9986  0.0534  0.0000
 
              Baa    -0.0047    -2.498    -0.892    -0.833  0.0000  0.0000  1.0000
     8 H(1)   Bbb    -0.0019    -1.017    -0.363    -0.339  0.9534 -0.3018  0.0000
              Bcc     0.0066     3.515     1.254     1.173  0.3018  0.9534  0.0000
 
              Baa    -0.0105    -5.592    -1.995    -1.865  0.9974  0.0716  0.0000
     9 H(1)   Bbb    -0.0046    -2.479    -0.885    -0.827  0.0000  0.0000  1.0000
              Bcc     0.0151     8.071     2.880     2.692 -0.0716  0.9974  0.0000
 
              Baa    -0.6725    48.662    17.364    16.232  0.9427 -0.3337  0.0000
    10 O(17)  Bbb    -0.6627    47.950    17.110    15.995  0.3337  0.9427  0.0000
              Bcc     1.3352   -96.612   -34.474   -32.226  0.0000  0.0000  1.0000
 
              Baa    -0.0132    -7.045    -2.514    -2.350  0.0000  0.0000  1.0000
    11 H(1)   Bbb    -0.0038    -2.041    -0.728    -0.681  0.6237  0.7817  0.0000
              Bcc     0.0170     9.087     3.242     3.031  0.7817 -0.6237  0.0000
 
              Baa    -0.2162    15.646     5.583     5.219  0.7607  0.6491  0.0000
    12 O(17)  Bbb    -0.2119    15.332     5.471     5.114 -0.6491  0.7607  0.0000
              Bcc     0.4281   -30.978   -11.054   -10.333  0.0000  0.0000  1.0000
 
              Baa    -0.0082    -1.103    -0.394    -0.368  0.3398  0.9405  0.0000
    13 C(13)  Bbb     0.0022     0.291     0.104     0.097  0.9405 -0.3398  0.0000
              Bcc     0.0061     0.812     0.290     0.271  0.0000  0.0000  1.0000
 
              Baa    -0.0029    -1.558    -0.556    -0.520  0.6708  0.7416  0.0001
    14 H(1)   Bbb    -0.0026    -1.380    -0.492    -0.460 -0.0001 -0.0001  1.0000
              Bcc     0.0055     2.938     1.049     0.980  0.7416 -0.6708  0.0000
 
              Baa    -0.0041    -2.197    -0.784    -0.733  0.2158  0.7391  0.6381
    15 H(1)   Bbb    -0.0025    -1.336    -0.477    -0.446  0.2951 -0.6723  0.6789
              Bcc     0.0066     3.533     1.261     1.178  0.9308  0.0418 -0.3632
 
              Baa    -0.0041    -2.197    -0.784    -0.733  0.2159  0.7392 -0.6380
    16 H(1)   Bbb    -0.0025    -1.336    -0.477    -0.445 -0.2951  0.6722  0.6790
              Bcc     0.0066     3.533     1.261     1.178  0.9307  0.0417  0.3633
 

 ---------------------------------------------------------------------------------

 No NMR shielding tensors so no spin-rotation constants.
 Leave Link  601 at Mon Dec 08 16:41:23 2025, MaxMem=   104857600 cpu:               0.0 elap:               0.2
 (Enter D:\Gaussian\G16W\l9999.exe)
 1|1|UNPC-PC-20250526LCFF|SP|UB3LYP|6-31G(d)|C7H7O2(2)|ADMINISTRATOR|08
 -Dec-2025|0||#p b3lyp/6-31g(d) out=wfn scf=conver=7||Generated by Mult
 iwfn (http://sobereva.com/multiwfn)||0,2|C,0,-0.776426,-0.773917,0.000
 003|C,0,0.571874,-1.10038,-0.000011|C,0,1.5275,-0.08436,-0.000012|C,0,
 1.108781,1.280927,-0.000009|C,0,-0.213504,1.632275,0.000007|C,0,-1.234
 501,0.618117,0.000002|H,0,0.865248,-2.143745,-0.000018|H,0,1.871083,2.
 05331,0.000013|H,0,-0.535164,2.666732,0.000024|O,0,-2.470566,0.822879,
 -0.000007|H,0,-2.569704,-1.174539,0.000005|O,0,-1.738116,-1.695511,0.0
 00009|C,0,2.9968,-0.404049,0.000005|H,0,3.175674,-1.479919,-0.000052|H
 ,0,3.489619,0.023827,-0.879477|H,0,3.489562,0.023709,0.879581||Version
 =EM64W-G16RevA.03|State=2-A|HF=-421.3810611|S2=0.76988|S2-1=0.|S2A=0.7
 50266|RMSD=8.882e-008|Dipole=1.2996521,-0.0269507,0.0000191|Quadrupole
 =0.4761831,0.4477515,-0.9239346,1.9765875,0.0000163,0.0000702|PG=C01 [
 X(C7H7O2)]||@

 Writing a WFN file to "N.wfn"


 If fifty million people say a stupid thing,
 it is still a stupid thing.
                   -- Anatole France
 Job cpu time:       0 days  0 hours  0 minutes 29.0 seconds.
 Elapsed time:       0 days  0 hours  0 minutes 28.0 seconds.
 File lengths (MBytes):  RWF=     27 Int=      0 D2E=      0 Chk=      3 Scr=      1
 Normal termination of Gaussian 16 at Mon Dec 08 16:41:24 2025.
