 Generated by Multiwfn (http://sobereva.com/multiwfn)
GAUSSIAN             65 MOL ORBITALS    280 PRIMITIVES       16 NUCLEI
  C    1    (CENTRE  1)  -1.46723279 -1.46249096  0.00000561  CHARGE =  6.0
  C    2    (CENTRE  2)   1.08068489 -2.07941684 -0.00002085  CHARGE =  6.0
  C    3    (CENTRE  3)   2.88655647 -0.15941745 -0.00002273  CHARGE =  6.0
  C    4    (CENTRE  4)   2.09529245  2.42060112 -0.00001707  CHARGE =  6.0
  C    5    (CENTRE  5)  -0.40346400  3.08455283  0.00001317  CHARGE =  6.0
  C    6    (CENTRE  6)  -2.33286887  1.16807213  0.00000372  CHARGE =  6.0
  H    7    (CENTRE  7)   1.63508123 -4.05109098 -0.00003407  CHARGE =  1.0
  H    8    (CENTRE  8)   3.53583458  3.88019334  0.00002451  CHARGE =  1.0
  H    9    (CENTRE  9)  -1.01131314  5.03939330  0.00004530  CHARGE =  1.0
  O   10    (CENTRE 10)  -4.66869315  1.55501643 -0.00001329  CHARGE =  8.0
  H   11    (CENTRE 11)  -4.85603714 -2.21955653  0.00000939  CHARGE =  1.0
  O   12    (CENTRE 12)  -3.28456366 -3.20405106  0.00001695  CHARGE =  8.0
  C   13    (CENTRE 13)   5.66313101 -0.76354235  0.00000939  CHARGE =  6.0
  H   14    (CENTRE 14)   6.00115371 -2.79664202 -0.00009832  CHARGE =  1.0
  H   15    (CENTRE 15)   6.59442402  0.04502603 -1.66197072  CHARGE =  1.0
  H   16    (CENTRE 16)   6.59431630  0.04480304  1.66216714  CHARGE =  1.0
CENTRE ASSIGNMENTS    1  1  1  1  1  1  1  1  1  1  1  1  1  1  1  1  1  1  1  1
CENTRE ASSIGNMENTS    1  1  1  1  1  1  1  1  2  2  2  2  2  2  2  2  2  2  2  2
CENTRE ASSIGNMENTS    2  2  2  2  2  2  2  2  2  2  2  2  2  2  2  2  3  3  3  3
CENTRE ASSIGNMENTS    3  3  3  3  3  3  3  3  3  3  3  3  3  3  3  3  3  3  3  3
CENTRE ASSIGNMENTS    3  3  3  3  4  4  4  4  4  4  4  4  4  4  4  4  4  4  4  4
CENTRE ASSIGNMENTS    4  4  4  4  4  4  4  4  4  4  4  4  5  5  5  5  5  5  5  5
CENTRE ASSIGNMENTS    5  5  5  5  5  5  5  5  5  5  5  5  5  5  5  5  5  5  5  5
CENTRE ASSIGNMENTS    6  6  6  6  6  6  6  6  6  6  6  6  6  6  6  6  6  6  6  6
CENTRE ASSIGNMENTS    6  6  6  6  6  6  6  6  7  7  7  7  8  8  8  8  9  9  9  9
CENTRE ASSIGNMENTS   10 10 10 10 10 10 10 10 10 10 10 10 10 10 10 10 10 10 10 10
CENTRE ASSIGNMENTS   10 10 10 10 10 10 10 10 11 11 11 11 12 12 12 12 12 12 12 12
CENTRE ASSIGNMENTS   12 12 12 12 12 12 12 12 12 12 12 12 12 12 12 12 12 12 12 12
CENTRE ASSIGNMENTS   13 13 13 13 13 13 13 13 13 13 13 13 13 13 13 13 13 13 13 13
CENTRE ASSIGNMENTS   13 13 13 13 13 13 13 13 14 14 14 14 15 15 15 15 16 16 16 16
TYPE ASSIGNMENTS      1  1  1  1  1  1  1  1  1  2  2  2  3  3  3  4  4  4  1  2
TYPE ASSIGNMENTS      3  4  5  6  7  8  9 10  1  1  1  1  1  1  1  1  1  2  2  2
TYPE ASSIGNMENTS      3  3  3  4  4  4  1  2  3  4  5  6  7  8  9 10  1  1  1  1
TYPE ASSIGNMENTS      1  1  1  1  1  2  2  2  3  3  3  4  4  4  1  2  3  4  5  6
TYPE ASSIGNMENTS      7  8  9 10  1  1  1  1  1  1  1  1  1  2  2  2  3  3  3  4
TYPE ASSIGNMENTS      4  4  1  2  3  4  5  6  7  8  9 10  1  1  1  1  1  1  1  1
TYPE ASSIGNMENTS      1  2  2  2  3  3  3  4  4  4  1  2  3  4  5  6  7  8  9 10
TYPE ASSIGNMENTS      1  1  1  1  1  1  1  1  1  2  2  2  3  3  3  4  4  4  1  2
TYPE ASSIGNMENTS      3  4  5  6  7  8  9 10  1  1  1  1  1  1  1  1  1  1  1  1
TYPE ASSIGNMENTS      1  1  1  1  1  1  1  1  1  2  2  2  3  3  3  4  4  4  1  2
TYPE ASSIGNMENTS      3  4  5  6  7  8  9 10  1  1  1  1  1  1  1  1  1  1  1  1
TYPE ASSIGNMENTS      1  2  2  2  3  3  3  4  4  4  1  2  3  4  5  6  7  8  9 10
TYPE ASSIGNMENTS      1  1  1  1  1  1  1  1  1  2  2  2  3  3  3  4  4  4  1  2
TYPE ASSIGNMENTS      3  4  5  6  7  8  9 10  1  1  1  1  1  1  1  1  1  1  1  1
EXPONENTS  0.3047525D+04 0.4573695D+03 0.1039487D+03 0.2921016D+02 0.9286663D+01
EXPONENTS  0.3163927D+01 0.7868272D+01 0.1881289D+01 0.5442493D+00 0.7868272D+01
EXPONENTS  0.1881289D+01 0.5442493D+00 0.7868272D+01 0.1881289D+01 0.5442493D+00
EXPONENTS  0.7868272D+01 0.1881289D+01 0.5442493D+00 0.1687145D+00 0.1687145D+00
EXPONENTS  0.1687145D+00 0.1687145D+00 0.8000000D+00 0.8000000D+00 0.8000000D+00
EXPONENTS  0.8000000D+00 0.8000000D+00 0.8000000D+00 0.3047525D+04 0.4573695D+03
EXPONENTS  0.1039487D+03 0.2921016D+02 0.9286663D+01 0.3163927D+01 0.7868272D+01
EXPONENTS  0.1881289D+01 0.5442493D+00 0.7868272D+01 0.1881289D+01 0.5442493D+00
EXPONENTS  0.7868272D+01 0.1881289D+01 0.5442493D+00 0.7868272D+01 0.1881289D+01
EXPONENTS  0.5442493D+00 0.1687145D+00 0.1687145D+00 0.1687145D+00 0.1687145D+00
EXPONENTS  0.8000000D+00 0.8000000D+00 0.8000000D+00 0.8000000D+00 0.8000000D+00
EXPONENTS  0.8000000D+00 0.3047525D+04 0.4573695D+03 0.1039487D+03 0.2921016D+02
EXPONENTS  0.9286663D+01 0.3163927D+01 0.7868272D+01 0.1881289D+01 0.5442493D+00
EXPONENTS  0.7868272D+01 0.1881289D+01 0.5442493D+00 0.7868272D+01 0.1881289D+01
EXPONENTS  0.5442493D+00 0.7868272D+01 0.1881289D+01 0.5442493D+00 0.1687145D+00
EXPONENTS  0.1687145D+00 0.1687145D+00 0.1687145D+00 0.8000000D+00 0.8000000D+00
EXPONENTS  0.8000000D+00 0.8000000D+00 0.8000000D+00 0.8000000D+00 0.3047525D+04
EXPONENTS  0.4573695D+03 0.1039487D+03 0.2921016D+02 0.9286663D+01 0.3163927D+01
EXPONENTS  0.7868272D+01 0.1881289D+01 0.5442493D+00 0.7868272D+01 0.1881289D+01
EXPONENTS  0.5442493D+00 0.7868272D+01 0.1881289D+01 0.5442493D+00 0.7868272D+01
EXPONENTS  0.1881289D+01 0.5442493D+00 0.1687145D+00 0.1687145D+00 0.1687145D+00
EXPONENTS  0.1687145D+00 0.8000000D+00 0.8000000D+00 0.8000000D+00 0.8000000D+00
EXPONENTS  0.8000000D+00 0.8000000D+00 0.3047525D+04 0.4573695D+03 0.1039487D+03
EXPONENTS  0.2921016D+02 0.9286663D+01 0.3163927D+01 0.7868272D+01 0.1881289D+01
EXPONENTS  0.5442493D+00 0.7868272D+01 0.1881289D+01 0.5442493D+00 0.7868272D+01
EXPONENTS  0.1881289D+01 0.5442493D+00 0.7868272D+01 0.1881289D+01 0.5442493D+00
EXPONENTS  0.1687145D+00 0.1687145D+00 0.1687145D+00 0.1687145D+00 0.8000000D+00
EXPONENTS  0.8000000D+00 0.8000000D+00 0.8000000D+00 0.8000000D+00 0.8000000D+00
EXPONENTS  0.3047525D+04 0.4573695D+03 0.1039487D+03 0.2921016D+02 0.9286663D+01
EXPONENTS  0.3163927D+01 0.7868272D+01 0.1881289D+01 0.5442493D+00 0.7868272D+01
EXPONENTS  0.1881289D+01 0.5442493D+00 0.7868272D+01 0.1881289D+01 0.5442493D+00
EXPONENTS  0.7868272D+01 0.1881289D+01 0.5442493D+00 0.1687145D+00 0.1687145D+00
EXPONENTS  0.1687145D+00 0.1687145D+00 0.8000000D+00 0.8000000D+00 0.8000000D+00
EXPONENTS  0.8000000D+00 0.8000000D+00 0.8000000D+00 0.1873114D+02 0.2825394D+01
EXPONENTS  0.6401217D+00 0.1612778D+00 0.1873114D+02 0.2825394D+01 0.6401217D+00
EXPONENTS  0.1612778D+00 0.1873114D+02 0.2825394D+01 0.6401217D+00 0.1612778D+00
EXPONENTS  0.5484672D+04 0.8252349D+03 0.1880470D+03 0.5296450D+02 0.1689757D+02
EXPONENTS  0.5799635D+01 0.1553962D+02 0.3599934D+01 0.1013762D+01 0.1553962D+02
EXPONENTS  0.3599934D+01 0.1013762D+01 0.1553962D+02 0.3599934D+01 0.1013762D+01
EXPONENTS  0.1553962D+02 0.3599934D+01 0.1013762D+01 0.2700058D+00 0.2700058D+00
EXPONENTS  0.2700058D+00 0.2700058D+00 0.8000000D+00 0.8000000D+00 0.8000000D+00
EXPONENTS  0.8000000D+00 0.8000000D+00 0.8000000D+00 0.1873114D+02 0.2825394D+01
EXPONENTS  0.6401217D+00 0.1612778D+00 0.5484672D+04 0.8252349D+03 0.1880470D+03
EXPONENTS  0.5296450D+02 0.1689757D+02 0.5799635D+01 0.1553962D+02 0.3599934D+01
EXPONENTS  0.1013762D+01 0.1553962D+02 0.3599934D+01 0.1013762D+01 0.1553962D+02
EXPONENTS  0.3599934D+01 0.1013762D+01 0.1553962D+02 0.3599934D+01 0.1013762D+01
EXPONENTS  0.2700058D+00 0.2700058D+00 0.2700058D+00 0.2700058D+00 0.8000000D+00
EXPONENTS  0.8000000D+00 0.8000000D+00 0.8000000D+00 0.8000000D+00 0.8000000D+00
EXPONENTS  0.3047525D+04 0.4573695D+03 0.1039487D+03 0.2921016D+02 0.9286663D+01
EXPONENTS  0.3163927D+01 0.7868272D+01 0.1881289D+01 0.5442493D+00 0.7868272D+01
EXPONENTS  0.1881289D+01 0.5442493D+00 0.7868272D+01 0.1881289D+01 0.5442493D+00
EXPONENTS  0.7868272D+01 0.1881289D+01 0.5442493D+00 0.1687145D+00 0.1687145D+00
EXPONENTS  0.1687145D+00 0.1687145D+00 0.8000000D+00 0.8000000D+00 0.8000000D+00
EXPONENTS  0.8000000D+00 0.8000000D+00 0.8000000D+00 0.1873114D+02 0.2825394D+01
EXPONENTS  0.6401217D+00 0.1612778D+00 0.1873114D+02 0.2825394D+01 0.6401217D+00
EXPONENTS  0.1612778D+00 0.1873114D+02 0.2825394D+01 0.6401217D+00 0.1612778D+00
MO    1     MO 0.0        OCC NO =    1.0000000  ORB. ENERGY =  -19.196747
 -0.28601539D-04 -0.52764255D-04 -0.85177868D-04 -0.11087627D-03 -0.94610926D-04
 -0.32666879D-04 -0.79935380D-04 -0.36842143D-04  0.10330922D-03 -0.36176409D-03
 -0.27737776D-03 -0.13843094D-03 -0.42521052D-03 -0.32602446D-03 -0.16270905D-03
  0.27104465D-08  0.20781985D-08  0.10371667D-08 -0.87056504D-05  0.50832728D-03
  0.64105664D-03 -0.36085833D-08 -0.18795708D-03 -0.96757129D-04 -0.12575627D-03
 -0.18971034D-03 -0.81512293D-09 -0.10632333D-09  0.65816248D-05  0.12141813D-04
  0.19600650D-04  0.25514223D-04  0.21771333D-04  0.75171180D-05 -0.58868556D-04
 -0.27132464D-04  0.76082260D-04  0.58262295D-05  0.44671833D-05  0.22294375D-05
  0.18149033D-04  0.13915527D-04  0.69448235D-05  0.55562415D-09  0.42601736D-09
  0.21261252D-09 -0.33750764D-03  0.21579558D-04 -0.29976077D-03 -0.15497804D-08
 -0.65981746D-04 -0.53054404D-04  0.29191117D-04  0.89395352D-05  0.16804527D-08
 -0.22970266D-08  0.14633070D-05  0.26995157D-05  0.43578553D-05  0.56726328D-05
  0.48404678D-05  0.16712972D-05  0.32271995D-05  0.14874133D-05 -0.41708621D-05
 -0.91265854D-04 -0.69976868D-04 -0.34923362D-04 -0.33400849D-04 -0.25609652D-04
 -0.12781011D-04  0.14910754D-08  0.11432620D-08  0.57056787D-09  0.30201570D-03
 -0.44242345D-04 -0.20658868D-04 -0.18517622D-09  0.85549683D-05  0.39465752D-04
  0.25064323D-04  0.16330617D-04  0.33207518D-08 -0.43155390D-09  0.89688579D-05
  0.16545792D-04  0.26710038D-04  0.34768533D-04  0.29668052D-04  0.10243665D-04
 -0.36103183D-04 -0.16639924D-04  0.46660083D-04  0.82595315D-05  0.63328849D-05
  0.31605534D-05 -0.43628737D-04 -0.33451749D-04 -0.16694767D-04 -0.39276219D-09
 -0.30114514D-09 -0.15029253D-09 -0.26038022D-03  0.10306260D-03  0.58627310D-04
 -0.71673302D-09 -0.21103021D-04  0.70451785D-05  0.42209228D-04  0.52521138D-04
  0.37866969D-08  0.17610864D-08 -0.24153356D-05 -0.44558226D-05 -0.71930793D-05
 -0.93632520D-05 -0.79896799D-05 -0.27586445D-05  0.18492788D-04  0.85233090D-05
 -0.23900248D-04 -0.77847983D-04 -0.59688896D-04 -0.29788942D-04 -0.80176007D-04
 -0.61473877D-04 -0.30679773D-04  0.46850514D-09  0.35922003D-09  0.17927597D-09
  0.39544113D-03  0.76376467D-04 -0.17333019D-03 -0.23468884D-08  0.28467438D-04
  0.22612762D-04  0.60419449D-05  0.21532233D-04 -0.21202255D-08  0.19144340D-08
  0.27225781D-04  0.50226249D-04  0.81080740D-04  0.10554303D-03  0.90060060D-04
  0.31095574D-04 -0.12677456D-03 -0.58430281D-04  0.16384461D-03 -0.33493458D-04
 -0.25680659D-04 -0.12816449D-04  0.92529133D-04  0.70945470D-04  0.35406762D-04
  0.39007278D-09  0.29908307D-09  0.14926341D-09 -0.39656223D-03 -0.49081757D-03
  0.10598296D-03 -0.92010236D-09  0.54990764D-04 -0.61312993D-04  0.75610482D-04
 -0.39182750D-04  0.10221484D-08 -0.91435320D-09 -0.11629890D-04 -0.19726495D-04
 -0.22457918D-04 -0.12482177D-03 -0.39068618D-05 -0.66267771D-05 -0.75443515D-05
 -0.29355712D-04  0.10220125D-04  0.17335266D-04  0.19735587D-04  0.42053574D-04
  0.28247647D-04  0.51990751D-04  0.84130849D-04  0.11059236D-03  0.94854421D-04
  0.32432337D-04 -0.18164994D-03 -0.81051849D-04  0.23934720D-03  0.11024555D-03
  0.84938251D-04  0.37292467D-04  0.77725046D-04  0.59882958D-04  0.26291844D-04
  0.20361853D-08  0.15687710D-08  0.68877498D-09 -0.56802057D-03 -0.17854957D-03
 -0.39455295D-04 -0.21553014D-08  0.11877117D-03  0.23230934D-03  0.19161642D-03
  0.34086876D-04 -0.26976802D-08  0.10797257D-09  0.82209490D-04  0.13944286D-03
  0.15875076D-03 -0.21903995D-03  0.82558556D+00  0.15195181D+01  0.24588672D+01
  0.32322498D+01  0.27722818D+01  0.94789024D+00 -0.15785939D-01 -0.70436552D-02
  0.20800008D-01 -0.34063772D-03 -0.26244300D-03 -0.11522661D-03  0.31634922D-02
  0.24373002D-02  0.10701061D-02 -0.17798660D-07 -0.13712908D-07 -0.60207052D-08
  0.40818554D-02  0.32190656D-03  0.23775813D-03 -0.17396518D-08 -0.92725465D-02
 -0.93647001D-02 -0.93122045D-02  0.20289594D-03 -0.58044518D-09 -0.20888334D-09
  0.67998670D-05  0.12544427D-04  0.20250594D-04  0.26360257D-04  0.22493255D-04
  0.77663804D-05 -0.24224794D-04 -0.11165185D-04  0.31308345D-04  0.11244479D-04
  0.86215531D-05  0.43027593D-05  0.13375750D-05  0.10255677D-05  0.51183015D-06
 -0.99309042D-09 -0.76143874D-09 -0.38001130D-09 -0.69949552D-04  0.23172315D-04
 -0.44578595D-05  0.71351852D-09 -0.25799312D-05  0.22442149D-04  0.22985007D-04
  0.97000572D-05 -0.20055573D-09  0.12032514D-08  0.24023025D-05  0.40747598D-05
  0.46389700D-05  0.53629001D-05  0.38860546D-05  0.65914841D-05  0.75041717D-05
  0.34617185D-05  0.38855555D-05  0.65906375D-05  0.75032078D-05  0.34619114D-05
MO    2     MO 0.0        OCC NO =    1.0000000  ORB. ENERGY =  -19.143514
  0.26730446D-04  0.49312454D-04  0.79605591D-04  0.10362283D-03  0.88421545D-04
  0.30529835D-04 -0.11736323D-03 -0.54092607D-04  0.15168132D-03  0.82391058D-05
  0.63172237D-05  0.31527374D-05 -0.91983748D-04 -0.70527304D-04 -0.35198068D-04
 -0.64692471D-10 -0.49602084D-10 -0.24754916D-10 -0.53409405D-03 -0.47318878D-03
 -0.42310649D-03  0.21406679D-08  0.25012773D-05  0.38648910D-04  0.68589126D-04
  0.19519807D-03  0.15768627D-08 -0.96370150D-09 -0.40132789D-05 -0.74037160D-05
 -0.11951893D-04 -0.15557814D-04 -0.13275511D-04 -0.45837148D-05  0.27450626D-04
  0.12651968D-04 -0.35477440D-04 -0.12002954D-03 -0.92031035D-04 -0.45929936D-04
  0.46978413D-04  0.36020067D-04  0.17976538D-04  0.12848305D-08  0.98512650D-09
  0.49164717D-09  0.59688212D-03 -0.50396927D-04  0.28150436D-03  0.23320455D-08
  0.44038926D-04  0.25630520D-04  0.34703351D-05 -0.46166558D-06 -0.35214988D-08
  0.26221137D-08  0.11626353D-04  0.21448352D-04  0.34624290D-04  0.45070538D-04
  0.38458772D-04  0.13278890D-04 -0.47734380D-04 -0.22000732D-04  0.61692349D-04
 -0.46972228D-04 -0.36015325D-04 -0.17974172D-04  0.29246906D-04  0.22424673D-04
  0.11191483D-04 -0.11595189D-08 -0.88904556D-09 -0.44369604D-09 -0.38564959D-03
  0.23639534D-03  0.26429941D-05  0.12398330D-09  0.19979871D-04 -0.42466995D-04
  0.51063295D-04 -0.48975770D-04 -0.10195663D-08  0.39680039D-09 -0.20889296D-05
 -0.38536673D-05 -0.62210139D-05 -0.80979116D-05 -0.69099627D-05 -0.23858441D-05
  0.17093890D-04  0.78785581D-05 -0.22092299D-04 -0.12384461D-03 -0.94956196D-04
 -0.47389797D-04  0.89197796D-05  0.68391212D-05  0.34132008D-05  0.21801655D-08
  0.16716127D-08  0.83425187D-09  0.52762436D-03 -0.19262181D-03 -0.83459372D-04
  0.17115719D-08  0.40157939D-04  0.17548114D-04  0.15618528D-04 -0.82323591D-04
 -0.55445854D-08 -0.13750976D-08  0.13530545D-04  0.24961214D-04  0.40295139D-04
  0.52452298D-04  0.44757641D-04  0.15453738D-04 -0.78696746D-04 -0.36271258D-04
  0.10170839D-03  0.82926710D-04  0.63582941D-04  0.31732344D-04 -0.43166542D-05
 -0.33097366D-05 -0.16517905D-05 -0.21164468D-08 -0.16227572D-08 -0.80986956D-09
 -0.73058251D-03 -0.21922796D-03  0.42064049D-03  0.46685135D-08 -0.73872078D-04
 -0.83087743D-05  0.47854097D-04  0.47846168D-04  0.39718445D-08  0.28356158D-09
 -0.43610441D-04 -0.80452748D-04 -0.12987568D-03 -0.16905955D-03 -0.14425882D-03
 -0.49809103D-04 -0.86274667D-04 -0.39763915D-04  0.11150217D-03 -0.23598941D-03
 -0.18094171D-03 -0.90302596D-04  0.26629516D-04  0.20417824D-04  0.10189925D-04
 -0.11847273D-08 -0.90837373D-09 -0.45334215D-09 -0.10075533D-03  0.11559395D-02
 -0.20231450D-03  0.46121172D-08 -0.91888882D-03 -0.13993134D-03 -0.20248326D-03
  0.20374699D-03 -0.11937200D-07  0.15324548D-08  0.13573543D-04  0.23023298D-04
  0.26211212D-04  0.70664613D-04  0.43464725D-05  0.73724400D-05  0.83932624D-05
  0.34094563D-04 -0.25243019D-04 -0.42816937D-04 -0.48745570D-04 -0.16172997D-03
  0.82552987D+00  0.15194157D+01  0.24587013D+01  0.32320317D+01  0.27720948D+01
  0.94782630D+00 -0.15664824D-01 -0.69896138D-02  0.20640423D-01  0.31183194D-02
  0.24024970D-02  0.10548256D-02 -0.72669399D-03 -0.55987854D-03 -0.24581684D-03
  0.23046531D-07  0.17756110D-07  0.77958886D-08  0.46634658D-02  0.64035688D-03
 -0.11516662D-03  0.66179755D-08 -0.90874741D-02 -0.95991594D-02 -0.94906767D-02
 -0.16675198D-03  0.71138416D-08 -0.21702429D-08 -0.11776691D-04 -0.19975497D-04
 -0.22741398D-04 -0.11093995D-03  0.74928080D-04  0.13790767D-03  0.22316063D-03
  0.29335090D-03  0.25160536D-03  0.86028147D-04 -0.17889610D-03 -0.79823093D-04
  0.23571866D-03  0.18142006D-03  0.13977438D-03  0.61368480D-04  0.53806903D-04
  0.41455318D-04  0.18201118D-04 -0.13689320D-08 -0.10546883D-08 -0.46306497D-09
 -0.55944303D-03 -0.23542528D-03 -0.97952120D-04  0.11152389D-08  0.17860933D-03
  0.16316771D-03  0.18455974D-03 -0.18251529D-03  0.11719183D-08  0.16443867D-08
  0.41241133D-06  0.76081838D-06  0.12281968D-05  0.15987472D-05  0.13642139D-05
  0.47103028D-06 -0.44310592D-05 -0.20422711D-05  0.57267414D-05  0.27150473D-04
  0.20817260D-04  0.10389272D-04 -0.16159489D-04 -0.12390071D-04 -0.61835138D-05
  0.70931194D-09  0.54385541D-09  0.27142197D-09 -0.94271420D-04  0.26864142D-04
 -0.78956758D-05  0.91061454D-09 -0.77720410D-05 -0.38144309D-05 -0.16236101D-05
  0.15308473D-04 -0.96797793D-09  0.38352209D-09  0.19025735D-05  0.32271247D-05
  0.36739674D-05  0.28302731D-05  0.75216716D-06  0.12758179D-05  0.14524736D-05
  0.20422215D-05  0.75238383D-06  0.12761854D-05  0.14528920D-05  0.20411124D-05
MO    3     MO 0.0        OCC NO =    1.0000000  ORB. ENERGY =  -10.268454
  0.53242279D+00  0.98221609D+00  0.15856013D+01  0.20639818D+01  0.17611994D+01
  0.60809983D+00 -0.19990206D-01 -0.92134675D-02  0.25835525D-01 -0.85115075D-03
 -0.65260841D-03 -0.32569733D-03 -0.85162524D-03 -0.65297222D-03 -0.32587890D-03
  0.29801090D-09  0.22849585D-09  0.11403544D-09 -0.33572518D-02 -0.12236030D-02
 -0.11095877D-02  0.13814169D-07 -0.98548678D-02 -0.10080688D-01 -0.10545422D-01
  0.86462386D-03 -0.32753198D-08 -0.50006866D-08  0.20860692D-02  0.38483903D-02
  0.62124951D-02  0.80868228D-02  0.69005005D-02  0.23825770D-02  0.27712658D-03
  0.12772739D-03 -0.35816093D-03  0.32599527D-03  0.24995250D-03  0.12474381D-03
 -0.23048719D-03 -0.17672295D-03 -0.88197140D-04 -0.44329500D-08 -0.33989049D-08
 -0.16962918D-08  0.23578572D-02 -0.39662550D-03  0.10056966D-02  0.67121859D-08
 -0.45903030D-03 -0.23866471D-03 -0.37920842D-03 -0.10080849D-03  0.42155660D-08
  0.60157089D-08  0.26578188D-04  0.49031566D-04  0.79152151D-04  0.10303258D-03
  0.87917889D-04  0.30355934D-04 -0.70410499D-04 -0.32452134D-04  0.90999173D-04
  0.15589548D-03  0.11953077D-03  0.59654229D-04  0.39130698D-04  0.30002937D-04
  0.14973568D-04 -0.67529598D-08 -0.51777412D-08 -0.25840558D-08 -0.12507909D-02
  0.43480109D-03  0.11003293D-03  0.94339529D-09  0.29832241D-04  0.38847723D-04
  0.26718638D-04  0.14768751D-04 -0.81116537D-08  0.36542218D-08 -0.63953052D-04
 -0.11798089D-03 -0.19045774D-03 -0.24791939D-03 -0.21155007D-03 -0.73043154D-04
  0.12635077D-03  0.58234953D-04 -0.16329689D-03  0.64335875D-04  0.49328668D-04
  0.24618463D-04  0.81691875D-04  0.62636148D-04  0.31259828D-04  0.35566816D-09
  0.27270379D-09  0.13609830D-09  0.84853108D-03 -0.38781232D-03 -0.23978568D-03
  0.87726658D-09  0.99573992D-05 -0.23826667D-04 -0.14082688D-03 -0.64777241D-04
 -0.98295261D-08 -0.59135248D-08  0.34206901D-04  0.63105054D-04  0.10187112D-03
  0.13260593D-03  0.11315288D-03  0.39068972D-04 -0.29864461D-04 -0.13764503D-04
  0.38597103D-04  0.99952701D-04  0.76637391D-04  0.38247429D-04  0.18249659D-03
  0.13992681D-03  0.69833286D-04 -0.37650353D-08 -0.28867903D-08 -0.14407107D-08
 -0.10736062D-02 -0.20848440D-03  0.42165434D-03  0.80734182D-08  0.28708944D-04
  0.36784710D-04 -0.13127666D-04  0.70192592D-04  0.68634621D-08 -0.81659211D-08
  0.94828171D-02  0.17493946D-01  0.28240653D-01  0.36760939D-01  0.31368176D-01
  0.10830677D-01 -0.55210909D-04 -0.25446658D-04  0.71355084D-04 -0.94550214D-04
 -0.72495107D-04 -0.36180139D-04  0.25682112D-03  0.19691414D-03  0.98273958D-04
 -0.23672551D-08 -0.18150610D-08 -0.90584266D-09  0.16638778D-02  0.96507986D-03
 -0.42156689D-03 -0.89363631D-09 -0.44339241D-03 -0.80333598D-03 -0.54067746D-03
 -0.10827215D-03  0.31456615D-08  0.52590686D-08  0.33029476D-04  0.56024243D-04
  0.63781620D-04  0.31129984D-03  0.18876436D-04  0.32018009D-04  0.36451371D-04
  0.13451810D-03 -0.18905753D-04 -0.32067736D-04 -0.36507984D-04 -0.82340899D-04
 -0.79384151D-04 -0.14610922D-03 -0.23643229D-03 -0.31079686D-03 -0.26656867D-03
 -0.91144354D-04  0.27548550D-03  0.12292109D-03 -0.36298764D-03 -0.59547616D-05
 -0.45878228D-05 -0.20143013D-05 -0.10011847D-03 -0.77135882D-04 -0.33866807D-04
  0.19974615D-09  0.15389364D-09  0.67567596D-10  0.80876194D-03  0.14718820D-03
  0.60004017D-04  0.32456109D-08 -0.23788378D-03 -0.25154577D-03 -0.30197243D-03
 -0.22973312D-05  0.47917370D-08  0.12614155D-08  0.63599152D-04  0.10787620D-03
  0.12281324D-03 -0.94436460D-05  0.11570880D-03  0.21296596D-03  0.34461913D-03
  0.45301149D-03  0.38854532D-03  0.13285025D-03 -0.71259204D-03 -0.31795718D-03
  0.93893181D-03 -0.12181338D-03 -0.93850642D-04 -0.41205487D-04 -0.59979021D-04
 -0.46210602D-04 -0.20288943D-04  0.84981757D-08  0.65473863D-08  0.28746552D-08
 -0.17726707D-02 -0.52486850D-03 -0.59570924D-03  0.48696929D-10  0.16686425D-03
  0.19848761D-03  0.10263472D-02 -0.11513056D-02  0.48703897D-08  0.52842859D-08
 -0.27312161D-04 -0.50385603D-04 -0.81337986D-04 -0.10587789D-03 -0.90345796D-04
 -0.31194232D-04  0.69185532D-04  0.31887548D-04 -0.89416014D-04  0.65730333D-05
  0.50397850D-05  0.25152059D-05 -0.11738114D-04 -0.90000412D-05 -0.44916513D-05
  0.35343191D-08  0.27098917D-08  0.13524259D-08  0.72505895D-04 -0.47730030D-04
 -0.32701655D-04 -0.45465210D-09  0.27746594D-04 -0.66515940D-04 -0.81250667D-04
  0.60960255D-04  0.27197643D-08  0.50988766D-08 -0.12033579D-04 -0.20411227D-04
 -0.23237460D-04 -0.11635943D-04 -0.66399202D-05 -0.11262561D-04 -0.12822028D-04
  0.10248264D-05 -0.66398539D-05 -0.11262449D-04 -0.12821900D-04  0.10218361D-05
MO    4     MO 0.0        OCC NO =    1.0000000  ORB. ENERGY =  -10.259176
 -0.97504889D-02 -0.17987748D-01 -0.29037803D-01 -0.37798591D-01 -0.32253606D-01
 -0.11136395D-01  0.66318323D-03  0.30566054D-03 -0.85710407D-03  0.10221094D-03
  0.78368862D-04  0.39111555D-04 -0.27301606D-03 -0.20933140D-03 -0.10447104D-03
  0.25267684D-08  0.19373658D-08  0.96688129D-09  0.22305501D-02  0.76656274D-03
  0.10682834D-02 -0.63154313D-08 -0.26133650D-03 -0.41857984D-03 -0.15827182D-03
  0.27584579D-03 -0.71600742D-08  0.49212613D-09 -0.22100882D-04 -0.40771811D-04
 -0.65818345D-04 -0.85675929D-04 -0.73107425D-04 -0.25242237D-04 -0.87719689D-04
 -0.40429925D-04  0.11336973D-03  0.14886949D-03  0.11414368D-03  0.56965697D-04
 -0.89536397D-04 -0.68650830D-04 -0.34261576D-04  0.25362288D-08  0.19446194D-08
  0.97050136D-09 -0.15278914D-02  0.14315782D-03 -0.73947665D-03 -0.54559411D-08
  0.10866592D-03 -0.18221087D-04  0.38836994D-04 -0.44166916D-05  0.14098678D-08
 -0.71666046D-08 -0.10334252D-03 -0.19064677D-03 -0.30776300D-03 -0.40061598D-03
 -0.34184634D-03 -0.11803133D-03  0.15022132D-03  0.69236869D-04 -0.19414741D-03
  0.13983556D-03  0.10721704D-03  0.53508815D-04 -0.44343679D-04 -0.33999921D-04
 -0.16968343D-04  0.61320975D-08  0.47017034D-08  0.23464795D-08  0.11962219D-02
 -0.70417179D-03  0.70578866D-04 -0.11860629D-08 -0.44663842D-04  0.51253467D-04
 -0.14635994D-03  0.63148239D-04  0.18309983D-08 -0.86810087D-09  0.37835252D-04
  0.69798652D-04  0.11267667D-03  0.14667154D-03  0.12515509D-03  0.43213046D-04
 -0.90961637D-04 -0.41924135D-04  0.11755965D-03  0.19928001D-03  0.15279528D-03
  0.76255551D-04 -0.93821911D-05 -0.71936691D-05 -0.35901450D-05 -0.12898469D-08
 -0.98897278D-09 -0.49356673D-09 -0.15582308D-02  0.57103589D-03  0.38415835D-03
 -0.33382279D-08  0.43921405D-04  0.21776759D-04  0.37993171D-04  0.36441444D-04
  0.10765289D-07  0.10271655D-07  0.17656399D-02  0.32572609D-02  0.52582291D-02
  0.68446519D-02  0.58405539D-02  0.20166029D-02  0.24503214D-03  0.11293509D-03
 -0.31668178D-03  0.76681677D-04  0.58794647D-04  0.29342649D-04  0.32144520D-03
  0.24646379D-03  0.12300271D-03  0.63383166D-08  0.48598191D-08  0.24253903D-08
  0.25445765D-02  0.29320583D-03 -0.11968644D-02 -0.13795335D-07 -0.47927067D-03
 -0.33143975D-03 -0.36602011D-03 -0.36962644D-03 -0.13230264D-07  0.44045539D-08
  0.53250521D+00  0.98236813D+00  0.15858468D+01  0.20643013D+01  0.17614720D+01
  0.60819396D+00 -0.19933116D-01 -0.91871551D-02  0.25761742D-01 -0.76625842D-03
 -0.58751835D-03 -0.29321283D-03 -0.41321293D-04 -0.31682547D-04 -0.15811811D-04
 -0.64329465D-08 -0.49323754D-08 -0.24616010D-08 -0.33384146D-02 -0.20293591D-02
  0.40186451D-03 -0.49472293D-08 -0.91271728D-02 -0.10160601D-01 -0.10391751D-01
 -0.22393290D-03  0.17657401D-07  0.35579126D-09 -0.32978340D-04 -0.55937506D-04
 -0.63682874D-04 -0.18287230D-03 -0.21011986D-04 -0.35640305D-04 -0.40575227D-04
 -0.14455937D-03  0.45978385D-04  0.77988043D-04  0.88786630D-04  0.35810193D-03
  0.11761124D-03  0.21646746D-03  0.35028522D-03  0.46045972D-03  0.39493363D-03
  0.13503452D-03 -0.86107411D-03 -0.38420959D-03  0.11345761D-02 -0.12413278D-03
 -0.95637618D-04 -0.41990065D-04  0.54541054D-04  0.42020942D-04  0.18449457D-04
  0.43961192D-08  0.33869728D-08  0.14870635D-08 -0.25143519D-02 -0.92441668D-03
  0.14198285D-03 -0.10942879D-07  0.10296422D-03  0.10047347D-02  0.11625569D-02
  0.36367211D-03 -0.21547201D-07  0.34786482D-08  0.40388839D-05  0.68507115D-05
  0.77992929D-05  0.35772813D-04 -0.84289688D-04 -0.15513802D-03 -0.25104260D-03
 -0.33000253D-03 -0.28304125D-03 -0.96776611D-04  0.31240886D-03  0.13939623D-03
 -0.41163892D-03 -0.15400822D-03 -0.11865503D-03 -0.52095948D-04  0.45657926D-04
  0.35176971D-04  0.15444585D-04 -0.43172474D-08 -0.33262064D-08 -0.14603838D-08
  0.91925739D-03  0.24553489D-03  0.89958507D-04  0.37830742D-09 -0.24841532D-03
 -0.26462143D-03 -0.33373351D-03  0.14499280D-03 -0.84984620D-09  0.27621361D-09
  0.21724863D-05  0.40078131D-05  0.64698530D-05  0.84218262D-05  0.71863596D-05
  0.24812773D-05  0.10059127D-04  0.46362423D-05 -0.13000507D-04 -0.77769372D-04
 -0.59628622D-04 -0.29758861D-04  0.42998208D-04  0.32968299D-04  0.16453492D-04
 -0.27737784D-08 -0.21267573D-08 -0.10614010D-08  0.27806136D-03 -0.81664018D-04
  0.11556640D-04 -0.21672578D-08  0.19449250D-04  0.17455085D-04  0.42205367D-05
 -0.17272975D-04  0.30116825D-08  0.12432669D-08 -0.61348838D-05 -0.10405924D-04
 -0.11846777D-04 -0.11947963D-04 -0.18610670D-05 -0.31567220D-05 -0.35938164D-05
 -0.26220288D-05 -0.18619707D-05 -0.31582547D-05 -0.35955614D-05 -0.26197881D-05
MO    5     MO 0.0        OCC NO =    1.0000000  ORB. ENERGY =  -10.227753
 -0.12045311D-04 -0.22221248D-04 -0.35871983D-04 -0.46694664D-04 -0.39844641D-04
 -0.13757397D-04 -0.37483279D-04 -0.17276009D-04  0.48443733D-04 -0.55539432D-05
 -0.42584113D-05 -0.21252457D-05  0.14035308D-04  0.10761384D-04  0.53706848D-05
 -0.36356187D-08 -0.27875618D-08 -0.13911887D-08 -0.66978757D-03 -0.30920486D-03
 -0.17594508D-03  0.43175668D-08  0.95505408D-04  0.31331955D-04  0.39997621D-04
 -0.63528385D-05  0.89069441D-09  0.21335219D-08  0.49550980D-02  0.91411883D-02
  0.14756712D-01  0.19208855D-01  0.16390951D-01  0.56594014D-02  0.82036840D-04
  0.37810704D-04 -0.10602516D-03 -0.25550155D-03 -0.19590238D-03 -0.97769017D-04
 -0.36579126D-03 -0.28046554D-03 -0.13997196D-03  0.89980192D-09  0.68991104D-09
  0.34431396D-09  0.16879945D-02  0.80425916D-04  0.61283425D-03  0.27452749D-08
 -0.45944637D-03 -0.44690547D-03 -0.34425586D-03 -0.21802050D-03 -0.50425235D-09
  0.57437864D-08  0.53242837D+00  0.98222638D+00  0.15856179D+01  0.20640034D+01
  0.17612179D+01  0.60810620D+00 -0.20023491D-01 -0.92288085D-02  0.25878542D-01
 -0.10938591D-03 -0.83870179D-04 -0.41857097D-04  0.24818875D-04  0.19029539D-04
  0.94970736D-05  0.81883270D-08  0.62782898D-08  0.31333066D-08 -0.36826386D-02
  0.48116138D-03 -0.11845403D-04 -0.37367000D-08 -0.10438150D-01 -0.10320938D-01
 -0.10422665D-01  0.12000023D-03  0.61311349D-08  0.30214189D-08  0.51944241D-02
  0.95826982D-02  0.15469446D-01  0.20136623D-01  0.17182616D-01  0.59327446D-02
  0.16825230D-04  0.77547331D-05 -0.21745081D-04 -0.64951361D-04 -0.49800584D-04
 -0.24853981D-04  0.40558965D-03  0.31098042D-03  0.15520102D-03  0.29947065D-08
  0.22961510D-08  0.11459403D-08  0.14000040D-02 -0.19033983D-03 -0.51135622D-03
  0.14462406D-09 -0.38349653D-03 -0.60067654D-03 -0.32510282D-03  0.22729219D-03
 -0.39511530D-08 -0.77968828D-08  0.60697673D-04  0.11197535D-03  0.18076294D-03
  0.23529964D-03  0.20078161D-03  0.69325065D-04 -0.44137628D-04 -0.20342992D-04
  0.57043874D-04 -0.27050390D-04 -0.20740523D-04 -0.10350975D-04  0.22360976D-04
  0.17144978D-04  0.85565458D-05 -0.29839425D-08 -0.22878978D-08 -0.11418214D-08
 -0.71147832D-03 -0.71670671D-04  0.33622775D-03  0.51874149D-08  0.82121926D-04
  0.38780871D-04  0.35534073D-04 -0.42930953D-04 -0.61087789D-09 -0.53284175D-08
  0.40493420D-04  0.74702453D-04  0.12059292D-03  0.15697615D-03  0.13394804D-03
  0.46249038D-04  0.90146777D-04  0.41548567D-04 -0.11650652D-03 -0.33860303D-04
 -0.25961933D-04 -0.12956824D-04 -0.43553669D-05 -0.33394191D-05 -0.16666042D-05
 -0.13069978D-08 -0.10021230D-08 -0.50012962D-09  0.51036087D-03  0.36312907D-03
 -0.58919081D-05  0.96424936D-10 -0.40262813D-04 -0.31914324D-04 -0.97948103D-04
  0.12090277D-04  0.11882046D-08  0.25516334D-09 -0.24354176D-05 -0.41309292D-05
 -0.47029169D-05  0.11119422D-03  0.17349251D-05  0.29427614D-05  0.33502298D-05
  0.94185322D-04 -0.14810303D-04 -0.25121078D-04 -0.28599459D-04 -0.77968431D-04
 -0.24801093D-04 -0.45647251D-04 -0.73865869D-04 -0.97098753D-04 -0.83281036D-04
 -0.28475201D-04  0.83202598D-04  0.37124837D-04 -0.10963014D-03 -0.16006457D-06
 -0.12332112D-06 -0.54144616D-07 -0.18163552D-04 -0.13994038D-04 -0.61441362D-05
  0.80414154D-09  0.61954770D-09  0.27201481D-09  0.28687710D-03  0.47104576D-04
 -0.90207552D-05  0.83853690D-09 -0.88435556D-04 -0.92904651D-04 -0.74581877D-04