 Entering Link 1 = D:\Gaussian\G16W\l1.exe PID=     57260.
  
 Copyright (c) 1988,1990,1992,1993,1995,1998,2003,2009,2016,
            Gaussian, Inc.  All Rights Reserved.
  
 This is part of the Gaussian(R) 16 program.  It is based on
 the Gaussian(R) 09 system (copyright 2009, Gaussian, Inc.),
 the Gaussian(R) 03 system (copyright 2003, Gaussian, Inc.),
 the Gaussian(R) 98 system (copyright 1998, Gaussian, Inc.),
 the Gaussian(R) 94 system (copyright 1995, Gaussian, Inc.),
 the Gaussian 92(TM) system (copyright 1992, Gaussian, Inc.),
 the Gaussian 90(TM) system (copyright 1990, Gaussian, Inc.),
 the Gaussian 88(TM) system (copyright 1988, Gaussian, Inc.),
 the Gaussian 86(TM) system (copyright 1986, Carnegie Mellon
 University), and the Gaussian 82(TM) system (copyright 1983,
 Carnegie Mellon University). Gaussian is a federally registered
 trademark of Gaussian, Inc.
  
 This software contains proprietary and confidential information,
 including trade secrets, belonging to Gaussian, Inc.
  
 This software is provided under written license and may be
 used, copied, transmitted, or stored only in accord with that
 written license.
  
 The following legend is applicable only to US Government
 contracts under FAR:
  
                    RESTRICTED RIGHTS LEGEND
  
 Use, reproduction and disclosure by the US Government is
 subject to restrictions as set forth in subparagraphs (a)
 and (c) of the Commercial Computer Software - Restricted
 Rights clause in FAR 52.227-19.
  
 Gaussian, Inc.
 340 Quinnipiac St., Bldg. 40, Wallingford CT 06492
  
  
 ---------------------------------------------------------------
 Warning -- This program may not be used in any manner that
 competes with the business of Gaussian, Inc. or will provide
 assistance to any competitor of Gaussian, Inc.  The licensee
 of this program is prohibited from giving any competitor of
 Gaussian, Inc. access to this program.  By using this program,
 the user acknowledges that Gaussian, Inc. is engaged in the
 business of creating and licensing software in the field of
 computational chemistry and represents and warrants to the
 licensee that it is not a competitor of Gaussian, Inc. and that
 it will not use this program in any manner prohibited above.
 ---------------------------------------------------------------
  

 Cite this work as:
 Gaussian 16, Revision A.03,
 M. J. Frisch, G. W. Trucks, H. B. Schlegel, G. E. Scuseria, 
 M. A. Robb, J. R. Cheeseman, G. Scalmani, V. Barone, 
 G. A. Petersson, H. Nakatsuji, X. Li, M. Caricato, A. V. Marenich, 
 J. Bloino, B. G. Janesko, R. Gomperts, B. Mennucci, H. P. Hratchian, 
 J. V. Ortiz, A. F. Izmaylov, J. L. Sonnenberg, D. Williams-Young, 
 F. Ding, F. Lipparini, F. Egidi, J. Goings, B. Peng, A. Petrone, 
 T. Henderson, D. Ranasinghe, V. G. Zakrzewski, J. Gao, N. Rega, 
 G. Zheng, W. Liang, M. Hada, M. Ehara, K. Toyota, R. Fukuda, 
 J. Hasegawa, M. Ishida, T. Nakajima, Y. Honda, O. Kitao, H. Nakai, 
 T. Vreven, K. Throssell, J. A. Montgomery, Jr., J. E. Peralta, 
 F. Ogliaro, M. J. Bearpark, J. J. Heyd, E. N. Brothers, K. N. Kudin, 
 V. N. Staroverov, T. A. Keith, R. Kobayashi, J. Normand, 
 K. Raghavachari, A. P. Rendell, J. C. Burant, S. S. Iyengar, 
 J. Tomasi, M. Cossi, J. M. Millam, M. Klene, C. Adamo, R. Cammi, 
 J. W. Ochterski, R. L. Martin, K. Morokuma, O. Farkas, 
 J. B. Foresman, and D. J. Fox, Gaussian, Inc., Wallingford CT, 2016.
 
 ******************************************
 Gaussian 16:  EM64W-G16RevA.03 17-Dec-2016
                08-Dec-2025 
 ******************************************
 %nprocshared=14
 Will use up to   14 processors via shared memory.
 %mem=58371MB
 %chk=F:\2025-12\sjk\SJY\PR9\PR9.chk
 ---------------------------------------------------------
 # ub3lyp/6-311g(d,p) geom=connectivity temperature=823.15
 ---------------------------------------------------------
 1/38=1,57=2,112=823150,172=1/1;
 2/12=2,17=6,18=5,40=1/2;
 3/5=4,6=6,7=101,11=2,25=1,30=1,74=-5,116=2/1,2,3;
 4//1;
 5/5=2,38=5/2;
 6/7=2,8=2,9=2,10=2,28=1/1;
 99/5=1,9=1/99;
 -------------------
 Title Card Required
 -------------------
 Symbolic Z-matrix:
 Charge =  0 Multiplicity = 2
 C                    -0.77643  -0.77392   0. 
 C                     0.57187  -1.10038  -0.00001 
 C                     1.5275   -0.08436  -0.00001 
 C                     1.10878   1.28093  -0.00001 
 C                    -0.2135    1.63228   0.00001 
 C                    -1.2345    0.61812   0. 
 H                     0.86525  -2.14375  -0.00002 
 H                     1.87108   2.05331   0.00001 
 H                    -0.53516   2.66673   0.00002 
 O                    -2.47057   0.82288  -0.00001 
 H                    -2.5697   -1.17454   0.00001 
 O                    -1.73812  -1.69551   0.00001 
 C                     2.9968   -0.40405   0.00001 
 H                     3.17567  -1.47992  -0.00005 
 H                     3.48962   0.02383  -0.87948 
 H                     3.48956   0.02371   0.87958 
 
                          Input orientation:                          
 ---------------------------------------------------------------------
 Center     Atomic      Atomic             Coordinates (Angstroms)
 Number     Number       Type             X           Y           Z
 ---------------------------------------------------------------------
      1          6           0       -0.776426   -0.773917    0.000003
      2          6           0        0.571874   -1.100380   -0.000011
      3          6           0        1.527500   -0.084360   -0.000012
      4          6           0        1.108781    1.280927   -0.000009
      5          6           0       -0.213504    1.632275    0.000007
      6          6           0       -1.234501    0.618117    0.000002
      7          1           0        0.865248   -2.143745   -0.000018
      8          1           0        1.871083    2.053310    0.000013
      9          1           0       -0.535164    2.666732    0.000024
     10          8           0       -2.470566    0.822879   -0.000007
     11          1           0       -2.569704   -1.174539    0.000005
     12          8           0       -1.738116   -1.695511    0.000009
     13          6           0        2.996800   -0.404049    0.000005
     14          1           0        3.175674   -1.479919   -0.000052
     15          1           0        3.489619    0.023827   -0.879477
     16          1           0        3.489562    0.023709    0.879581
 ---------------------------------------------------------------------
                    Distance matrix (angstroms):
                    1          2          3          4          5
     1  C    0.000000
     2  C    1.387260   0.000000
     3  C    2.404904   1.394818   0.000000
     4  C    2.788618   2.441084   1.428053   0.000000
     5  C    2.471162   2.843277   2.444981   1.368168   0.000000
     6  C    1.465466   2.493235   2.849934   2.435218   1.439080
     7  H    2.138112   1.083826   2.163249   3.433320   3.927090
     8  H    3.873308   3.410822   2.165106   1.085210   2.126681
     9  H    3.449097   3.926406   3.438472   2.150119   1.083313
    10  O    2.328061   3.599356   4.099709   3.608536   2.397801
    11  H    1.837483   3.142453   4.239761   4.422733   3.664681
    12  O    1.331985   2.385421   3.641436   4.118738   3.660410
    13  C    3.791311   2.522923   1.503677   2.530565   3.801666
    14  H    4.014665   2.631316   2.159644   3.448814   4.601334
    15  H    4.428207   3.248159   2.152922   2.832341   4.132035
    16  H    4.428151   3.248101   2.152917   2.832383   4.132049
                    6          7          8          9         10
     6  C    0.000000
     7  H    3.469413   0.000000
     8  H    3.421174   4.315898   0.000000
     9  H    2.164693   5.010174   2.483206   0.000000
    10  O    1.252910   4.464136   4.512635   2.673121   0.000000
    11  H    2.235259   3.569069   5.489954   4.346805   1.999877
    12  O    2.367805   2.641670   5.203842   4.525070   2.622741
    13  C    4.353014   2.751373   2.702934   4.680221   5.603342
    14  H    4.883789   2.403900   3.766386   5.564623   6.097779
    15  H    4.841898   3.515557   2.740796   4.894624   6.077479
    16  H    4.841875   3.515477   2.740875   4.894651   6.077456
                   11         12         13         14         15
    11  H    0.000000
    12  O    0.981300   0.000000
    13  C    5.619575   4.907882   0.000000
    14  H    5.753488   4.918517   1.090638   0.000000
    15  H    6.238987   5.573045   1.095188   1.770085   0.000000
    16  H    6.238923   5.572969   1.095192   1.770078   1.759058
                   16
    16  H    0.000000
 Stoichiometry    C7H7O2(2)
 Framework group  C1[X(C7H7O2)]
 Deg. of freedom    42
 Full point group                 C1      NOp   1
 Largest Abelian subgroup         C1      NOp   1
 Largest concise Abelian subgroup C1      NOp   1
                         Standard orientation:                         
 ---------------------------------------------------------------------
 Center     Atomic      Atomic             Coordinates (Angstroms)
 Number     Number       Type             X           Y           Z
 ---------------------------------------------------------------------
      1          6           0       -0.776426   -0.773917    0.000003
      2          6           0        0.571874   -1.100380   -0.000011
      3          6           0        1.527500   -0.084360   -0.000012
      4          6           0        1.108781    1.280927   -0.000009
      5          6           0       -0.213504    1.632275    0.000007
      6          6           0       -1.234501    0.618117    0.000002
      7          1           0        0.865248   -2.143745   -0.000018
      8          1           0        1.871083    2.053310    0.000013
      9          1           0       -0.535164    2.666732    0.000024
     10          8           0       -2.470566    0.822879   -0.000007
     11          1           0       -2.569704   -1.174539    0.000005
     12          8           0       -1.738116   -1.695511    0.000009
     13          6           0        2.996800   -0.404049    0.000005
     14          1           0        3.175674   -1.479919   -0.000052
     15          1           0        3.489619    0.023827   -0.879477
     16          1           0        3.489562    0.023709    0.879581
 ---------------------------------------------------------------------
 Rotational constants (GHZ):           3.1981639           1.3541757           0.9569695
 Standard basis: 6-311G(d,p) (5D, 7F)
 There are   213 symmetry adapted cartesian basis functions of A   symmetry.
 There are   204 symmetry adapted basis functions of A   symmetry.
   204 basis functions,   344 primitive gaussians,   213 cartesian basis functions
    33 alpha electrons       32 beta electrons
       nuclear repulsion energy       417.7750601576 Hartrees.
 NAtoms=   16 NActive=   16 NUniq=   16 SFac= 1.00D+00 NAtFMM=   60 NAOKFM=F Big=F
 Integral buffers will be    131072 words long.
 Raffenetti 2 integral format.
 Two-electron integral symmetry is turned on.
 One-electron integrals computed using PRISM.
 NBasis=   204 RedAO= T EigKep=  2.32D-04  NBF=   204
 NBsUse=   204 1.00D-06 EigRej= -1.00D+00 NBFU=   204
 ExpMin= 1.03D-01 ExpMax= 8.59D+03 ExpMxC= 1.30D+03 IAcc=3 IRadAn=         5 AccDes= 0.00D+00
 Harris functional with IExCor=  402 and IRadAn=       5 diagonalized for initial guess.
 HarFok:  IExCor=  402 AccDes= 0.00D+00 IRadAn=         5 IDoV= 1 UseB2=F ITyADJ=14
 ICtDFT=  3500011 ScaDFX=  1.000000  1.000000  1.000000  1.000000
 FoFCou: FMM=F IPFlag=           0 FMFlag=      100000 FMFlg1=           0
         NFxFlg=           0 DoJE=T BraDBF=F KetDBF=T FulRan=T
         wScrn=  0.000000 ICntrl=       500 IOpCl=  0 I1Cent=   200000004 NGrid=           0
         NMat0=    1 NMatS0=      1 NMatT0=    0 NMatD0=    1 NMtDS0=    0 NMtDT0=    0
 Petite list used in FoFCou.
 Initial guess <Sx>= 0.0000 <Sy>= 0.0000 <Sz>= 0.5000 <S**2>= 0.7500 S= 0.5000
 Requested convergence on RMS density matrix=1.00D-08 within 128 cycles.
 Requested convergence on MAX density matrix=1.00D-06.
 Requested convergence on             energy=1.00D-06.
 No special actions if energy rises.
 Integral accuracy reduced to 1.0D-05 until final iterations.
 Initial convergence to 1.0D-05 achieved.  Increase integral accuracy.
 SCF Done:  E(UB3LYP) =  -421.496863045     A.U. after   20 cycles
            NFock= 20  Conv=0.46D-08     -V/T= 2.0037
 <Sx>= 0.0000 <Sy>= 0.0000 <Sz>= 0.5000 <S**2>= 0.7694 S= 0.5097
 <L.S>= 0.000000000000E+00
 Annihilation of the first spin contaminant:
 S**2 before annihilation     0.7694,   after     0.7503

 **********************************************************************

            Population analysis using the SCF density.

 **********************************************************************

 Orbital symmetries:
 Alpha Orbitals:
       Occupied  (A) (A) (A) (A) (A) (A) (A) (A) (A) (A) (A) (A)
                 (A) (A) (A) (A) (A) (A) (A) (A) (A) (A) (A) (A)
                 (A) (A) (A) (A) (A) (A) (A) (A) (A)
       Virtual   (A) (A) (A) (A) (A) (A) (A) (A) (A) (A) (A) (A)
                 (A) (A) (A) (A) (A) (A) (A) (A) (A) (A) (A) (A)
                 (A) (A) (A) (A) (A) (A) (A) (A) (A) (A) (A) (A)
                 (A) (A) (A) (A) (A) (A) (A) (A) (A) (A) (A) (A)
                 (A) (A) (A) (A) (A) (A) (A) (A) (A) (A) (A) (A)
                 (A) (A) (A) (A) (A) (A) (A) (A) (A) (A) (A) (A)
                 (A) (A) (A) (A) (A) (A) (A) (A) (A) (A) (A) (A)
                 (A) (A) (A) (A) (A) (A) (A) (A) (A) (A) (A) (A)
                 (A) (A) (A) (A) (A) (A) (A) (A) (A) (A) (A) (A)
                 (A) (A) (A) (A) (A) (A) (A) (A) (A) (A) (A) (A)
                 (A) (A) (A) (A) (A) (A) (A) (A) (A) (A) (A) (A)
                 (A) (A) (A) (A) (A) (A) (A) (A) (A) (A) (A) (A)
                 (A) (A) (A) (A) (A) (A) (A) (A) (A) (A) (A) (A)
                 (A) (A) (A) (A) (A) (A) (A) (A) (A) (A) (A) (A)
                 (A) (A) (A)
 Beta  Orbitals:
       Occupied  (A) (A) (A) (A) (A) (A) (A) (A) (A) (A) (A) (A)
                 (A) (A) (A) (A) (A) (A) (A) (A) (A) (A) (A) (A)
                 (A) (A) (A) (A) (A) (A) (A) (A)
       Virtual   (A) (A) (A) (A) (A) (A) (A) (A) (A) (A) (A) (A)
                 (A) (A) (A) (A) (A) (A) (A) (A) (A) (A) (A) (A)
                 (A) (A) (A) (A) (A) (A) (A) (A) (A) (A) (A) (A)
                 (A) (A) (A) (A) (A) (A) (A) (A) (A) (A) (A) (A)
                 (A) (A) (A) (A) (A) (A) (A) (A) (A) (A) (A) (A)
                 (A) (A) (A) (A) (A) (A) (A) (A) (A) (A) (A) (A)
                 (A) (A) (A) (A) (A) (A) (A) (A) (A) (A) (A) (A)
                 (A) (A) (A) (A) (A) (A) (A) (A) (A) (A) (A) (A)
                 (A) (A) (A) (A) (A) (A) (A) (A) (A) (A) (A) (A)
                 (A) (A) (A) (A) (A) (A) (A) (A) (A) (A) (A) (A)
                 (A) (A) (A) (A) (A) (A) (A) (A) (A) (A) (A) (A)
                 (A) (A) (A) (A) (A) (A) (A) (A) (A) (A) (A) (A)
                 (A) (A) (A) (A) (A) (A) (A) (A) (A) (A) (A) (A)
                 (A) (A) (A) (A) (A) (A) (A) (A) (A) (A) (A) (A)
                 (A) (A) (A) (A)
 The electronic state is 2-A.
 Alpha  occ. eigenvalues --  -19.16994 -19.11579 -10.25818 -10.24808 -10.21663
 Alpha  occ. eigenvalues --  -10.19315 -10.19067 -10.18682 -10.18649  -1.09939
 Alpha  occ. eigenvalues --   -1.03386  -0.87302  -0.78032  -0.76629  -0.68750
 Alpha  occ. eigenvalues --   -0.62841  -0.62187  -0.54657  -0.51519  -0.49229
 Alpha  occ. eigenvalues --   -0.46357  -0.46086  -0.43894  -0.43628  -0.42277
 Alpha  occ. eigenvalues --   -0.40269  -0.39091  -0.38918  -0.36667  -0.34181
 Alpha  occ. eigenvalues --   -0.27818  -0.26613  -0.21350
 Alpha virt. eigenvalues --   -0.02144  -0.01267   0.03826   0.06312   0.06598
 Alpha virt. eigenvalues --    0.07576   0.10068   0.11186   0.12631   0.15088
 Alpha virt. eigenvalues --    0.17691   0.20721   0.23907   0.26348   0.27002
 Alpha virt. eigenvalues --    0.27663   0.28680   0.31368   0.33933   0.35987
 Alpha virt. eigenvalues --    0.37159   0.37335   0.39590   0.40264   0.42345
 Alpha virt. eigenvalues --    0.43320   0.44526   0.47186   0.47556   0.50081
 Alpha virt. eigenvalues --    0.50646   0.50790   0.53562   0.53832   0.55988
 Alpha virt. eigenvalues --    0.56251   0.57808   0.59653   0.61502   0.61929
 Alpha virt. eigenvalues --    0.62867   0.63959   0.66723   0.73950   0.74326
 Alpha virt. eigenvalues --    0.75682   0.77740   0.79265   0.79340   0.84301
 Alpha virt. eigenvalues --    0.87593   0.88323   0.89031   0.90509   0.93357
 Alpha virt. eigenvalues --    0.94245   0.96489   0.97031   0.98749   1.04088
 Alpha virt. eigenvalues --    1.05299   1.07786   1.09263   1.15781   1.20184
 Alpha virt. eigenvalues --    1.21591   1.31734   1.33101   1.35424   1.38021
 Alpha virt. eigenvalues --    1.38370   1.43396   1.43689   1.44588   1.47730
 Alpha virt. eigenvalues --    1.51503   1.52518   1.53816   1.55346   1.55482
 Alpha virt. eigenvalues --    1.57180   1.60794   1.61675   1.64233   1.64339
 Alpha virt. eigenvalues --    1.66420   1.70081   1.74611   1.77455   1.80772
 Alpha virt. eigenvalues --    1.82479   1.84312   1.86902   1.88936   1.88946
 Alpha virt. eigenvalues --    1.90640   1.95350   1.98334   1.99952   2.04410
 Alpha virt. eigenvalues --    2.08180   2.08446   2.10310   2.13334   2.22112
 Alpha virt. eigenvalues --    2.22581   2.29778   2.32609   2.33085   2.34963
 Alpha virt. eigenvalues --    2.42550   2.43708   2.45332   2.49226   2.51266
 Alpha virt. eigenvalues --    2.52216   2.55420   2.59281   2.60607   2.62998
 Alpha virt. eigenvalues --    2.64565   2.64842   2.65082   2.69500   2.80179
 Alpha virt. eigenvalues --    2.81575   2.83368   2.84398   2.90128   2.90391
 Alpha virt. eigenvalues --    2.94220   2.97302   3.01223   3.07481   3.07980
 Alpha virt. eigenvalues --    3.11925   3.14834   3.16751   3.26976   3.29691
 Alpha virt. eigenvalues --    3.36823   3.38418   3.46785   3.52398   3.56927
 Alpha virt. eigenvalues --    3.57548   3.64041   3.76207   3.80021   3.80850
 Alpha virt. eigenvalues --    3.97120   3.99723   4.06614   4.09351   4.29408
 Alpha virt. eigenvalues --    4.76645   4.77268   4.88216   5.05281   5.33683
 Alpha virt. eigenvalues --    5.61007   5.69148  23.48621  23.79641  23.87393
 Alpha virt. eigenvalues --   23.89484  23.93955  24.09465  24.15567  49.87847
 Alpha virt. eigenvalues --   49.96334
  Beta  occ. eigenvalues --  -19.16711 -19.10638 -10.25435 -10.24819 -10.21216
  Beta  occ. eigenvalues --  -10.19349 -10.18854 -10.18820 -10.18703  -1.09290
  Beta  occ. eigenvalues --   -1.01798  -0.86665  -0.77457  -0.76184  -0.68165
  Beta  occ. eigenvalues --   -0.62426  -0.61802  -0.54268  -0.51230  -0.48967
  Beta  occ. eigenvalues --   -0.46113  -0.44479  -0.43184  -0.42658  -0.41922
  Beta  occ. eigenvalues --   -0.40054  -0.38694  -0.36403  -0.36367  -0.31886
  Beta  occ. eigenvalues --   -0.26933  -0.25644
  Beta virt. eigenvalues --   -0.13241  -0.00434   0.01102   0.03841   0.06375
  Beta virt. eigenvalues --    0.06773   0.07594   0.10577   0.11247   0.12643
  Beta virt. eigenvalues --    0.16506   0.18114   0.21154   0.24159   0.26634
  Beta virt. eigenvalues --    0.27203   0.27836   0.28897   0.31543   0.34138
  Beta virt. eigenvalues --    0.36154   0.37713   0.37805   0.39765   0.40636
  Beta virt. eigenvalues --    0.42948   0.43637   0.44621   0.47577   0.47762
  Beta virt. eigenvalues --    0.50330   0.51007   0.51142   0.54024   0.54531
  Beta virt. eigenvalues --    0.56136   0.56609   0.58036   0.59637   0.61682
  Beta virt. eigenvalues --    0.62425   0.62907   0.64176   0.67032   0.74160
  Beta virt. eigenvalues --    0.74641   0.75834   0.78127   0.79607   0.80688
  Beta virt. eigenvalues --    0.84479   0.87800   0.88492   0.89185   0.92285
  Beta virt. eigenvalues --    0.94047   0.94476   0.96829   0.97931   0.99022
  Beta virt. eigenvalues --    1.04366   1.05669   1.08072   1.09764   1.16781
  Beta virt. eigenvalues --    1.20798   1.21885   1.31919   1.33597   1.35668
  Beta virt. eigenvalues --    1.38314   1.38509   1.43572   1.43928   1.44934
  Beta virt. eigenvalues --    1.47960   1.51706   1.53197   1.54320   1.55430
  Beta virt. eigenvalues --    1.55806   1.57599   1.61053   1.61946   1.64773
  Beta virt. eigenvalues --    1.65062   1.66591   1.70464   1.74860   1.77622
  Beta virt. eigenvalues --    1.80799   1.83197   1.84878   1.87313   1.89246
  Beta virt. eigenvalues --    1.89522   1.90801   1.95592   1.98491   2.00218
  Beta virt. eigenvalues --    2.04770   2.08390   2.08899   2.10782   2.13697
  Beta virt. eigenvalues --    2.22178   2.23211   2.30035   2.32719   2.33571
  Beta virt. eigenvalues --    2.35055   2.42811   2.43911   2.45469   2.50223
  Beta virt. eigenvalues --    2.51614   2.52312   2.55752   2.59447   2.60775
  Beta virt. eigenvalues --    2.63039   2.64709   2.65154   2.65989   2.69878
  Beta virt. eigenvalues --    2.80811   2.81695   2.84576   2.84780   2.90547
  Beta virt. eigenvalues --    2.92542   2.96047   2.97918   3.02247   3.07721
  Beta virt. eigenvalues --    3.08766   3.12408   3.16001   3.16997   3.27245
  Beta virt. eigenvalues --    3.31959   3.37143   3.39032   3.46959   3.52690
  Beta virt. eigenvalues --    3.57150   3.57865   3.64741   3.76385   3.80208
  Beta virt. eigenvalues --    3.81022   3.97309   4.00110   4.06945   4.09731
  Beta virt. eigenvalues --    4.29853   4.77862   4.78392   4.91710   5.06043
  Beta virt. eigenvalues --    5.34001   5.61608   5.69571  23.48830  23.79827
  Beta virt. eigenvalues --   23.87664  23.89517  23.94132  24.09477  24.15658
  Beta virt. eigenvalues --   49.88205  49.97200
          Condensed to atoms (all electrons):
               1          2          3          4          5          6
     1  C    5.163286   0.388287  -0.021896  -0.043292  -0.034375   0.203738
     2  C    0.388287   4.944539   0.497709  -0.043275  -0.040061  -0.001446
     3  C   -0.021896   0.497709   5.103900   0.439881  -0.033673  -0.046420
     4  C   -0.043292  -0.043275   0.439881   4.938259   0.453198  -0.016994
     5  C   -0.034375  -0.040061  -0.033673   0.453198   5.110782   0.335661
     6  C    0.203738  -0.001446  -0.046420  -0.016994   0.335661   4.903366
     7  H   -0.031301   0.399446  -0.039439   0.007799  -0.002368   0.009290
     8  H   -0.002018   0.007341  -0.054040   0.417487  -0.028813   0.007722
     9  H    0.012206  -0.002320   0.008955  -0.037858   0.397229  -0.040619
    10  O   -0.105490   0.009884  -0.001121   0.007423  -0.075195   0.574796
    11  H   -0.067920   0.009288  -0.000146  -0.000973   0.006421  -0.017917
    12  O    0.388296  -0.054542   0.003449  -0.000307   0.005806  -0.075414
    13  C    0.008225  -0.057334   0.359250  -0.058001   0.004944  -0.000412
    14  H    0.000823  -0.007025  -0.033673   0.006418  -0.000261  -0.000079
    15  H   -0.000389   0.001194  -0.037410  -0.004171   0.000277   0.000034
    16  H   -0.000389   0.001192  -0.037410  -0.004170   0.000277   0.000034
               7          8          9         10         11         12
     1  C   -0.031301  -0.002018   0.012206  -0.105490  -0.067920   0.388296
     2  C    0.399446   0.007341  -0.002320   0.009884   0.009288  -0.054542
     3  C   -0.039439  -0.054040   0.008955  -0.001121  -0.000146   0.003449
     4  C    0.007799   0.417487  -0.037858   0.007423  -0.000973  -0.000307
     5  C   -0.002368  -0.028813   0.397229  -0.075195   0.006421   0.005806
     6  C    0.009290   0.007722  -0.040619   0.574796  -0.017917  -0.075414
     7  H    0.559433  -0.000347   0.000106  -0.000188  -0.001175   0.003836
     8  H   -0.000347   0.569154  -0.010253  -0.000161   0.000022   0.000013
     9  H    0.000106  -0.010253   0.553423   0.007214  -0.000274  -0.000117
    10  O   -0.000188  -0.000161   0.007214   7.910959   0.056110  -0.018579
    11  H   -0.001175   0.000022  -0.000274   0.056110   0.442692   0.315176
    12  O    0.003836   0.000013  -0.000117  -0.018579   0.315176   7.743739
    13  C   -0.009773  -0.005152  -0.000209  -0.000003   0.000027  -0.000085
    14  H    0.002809  -0.000023   0.000016   0.000000   0.000002  -0.000018
    15  H    0.000210   0.001089   0.000001   0.000000  -0.000001   0.000003
    16  H    0.000210   0.001089   0.000001   0.000000  -0.000001   0.000003
              13         14         15         16
     1  C    0.008225   0.000823  -0.000389  -0.000389
     2  C   -0.057334  -0.007025   0.001194   0.001192
     3  C    0.359250  -0.033673  -0.037410  -0.037410
     4  C   -0.058001   0.006418  -0.004171  -0.004170
     5  C    0.004944  -0.000261   0.000277   0.000277
     6  C   -0.000412  -0.000079   0.000034   0.000034
     7  H   -0.009773   0.002809   0.000210   0.000210
     8  H   -0.005152  -0.000023   0.001089   0.001089
     9  H   -0.000209   0.000016   0.000001   0.000001
    10  O   -0.000003   0.000000   0.000000   0.000000
    11  H    0.000027   0.000002  -0.000001  -0.000001
    12  O   -0.000085  -0.000018   0.000003   0.000003
    13  C    4.802655   0.409054   0.401643   0.401640
    14  H    0.409054   0.556975  -0.025265  -0.025265
    15  H    0.401643  -0.025265   0.560390  -0.029379
    16  H    0.401640  -0.025265  -0.029379   0.560393
          Atomic-Atomic Spin Densities.
               1          2          3          4          5          6
     1  C    0.285529   0.017749  -0.016595  -0.002945   0.004241   0.043869
     2  C    0.017749  -0.143392  -0.013748  -0.000778   0.001950   0.001353
     3  C   -0.016595  -0.013748   0.347000   0.039049  -0.013349  -0.004337
     4  C   -0.002945  -0.000778   0.039049  -0.034439  -0.036435  -0.002253
     5  C    0.004241   0.001950  -0.013349  -0.036435   0.181356   0.035408
     6  C    0.043869   0.001353  -0.004337  -0.002253   0.035408  -0.009122
     7  H   -0.000234   0.000343   0.000084   0.000017  -0.000039   0.000035
     8  H    0.000005   0.000014  -0.000047   0.000816  -0.000336  -0.000042
     9  H   -0.000358  -0.000022  -0.000218   0.000485   0.002728  -0.000176
    10  O   -0.013097  -0.000311   0.000229   0.000357  -0.007874  -0.055039
    11  H    0.000428  -0.000404  -0.000030   0.000012  -0.000091   0.000759
    12  O   -0.057841   0.000023   0.000491   0.000037  -0.000280  -0.002757
    13  C   -0.000145   0.001267  -0.013400  -0.000276   0.000187  -0.000039
    14  H    0.000015   0.000258  -0.000617  -0.000053  -0.000006   0.000005
    15  H    0.000085   0.000205  -0.007251  -0.001022   0.000168   0.000021
    16  H    0.000085   0.000205  -0.007253  -0.001022   0.000168   0.000021
               7          8          9         10         11         12
     1  C   -0.000234   0.000005  -0.000358  -0.013097   0.000428  -0.057841
     2  C    0.000343   0.000014  -0.000022  -0.000311  -0.000404   0.000023
     3  C    0.000084  -0.000047  -0.000218   0.000229  -0.000030   0.000491
     4  C    0.000017   0.000816   0.000485   0.000357   0.000012   0.000037
     5  C   -0.000039  -0.000336   0.002728  -0.007874  -0.000091  -0.000280
     6  C    0.000035  -0.000042  -0.000176  -0.055039   0.000759  -0.002757
     7  H    0.004994   0.000005  -0.000004   0.000004   0.000036  -0.000028
     8  H    0.000005  -0.000358   0.000329   0.000004  -0.000001   0.000000
     9  H   -0.000004   0.000329  -0.012635  -0.000270   0.000019   0.000002
    10  O    0.000004   0.000004  -0.000270   0.418685  -0.001980   0.003341
    11  H    0.000036  -0.000001   0.000019  -0.001980  -0.005004   0.001928
    12  O   -0.000028   0.000000   0.000002   0.003341   0.001928   0.141602
    13  C    0.000062   0.000135  -0.000002   0.000000   0.000000   0.000001
    14  H   -0.000042   0.000000  -0.000001   0.000000   0.000000   0.000000
    15  H   -0.000004  -0.000048   0.000001   0.000000   0.000000  -0.000001
    16  H   -0.000004  -0.000048   0.000001   0.000000   0.000000  -0.000001
              13         14         15         16
     1  C   -0.000145   0.000015   0.000085   0.000085
     2  C    0.001267   0.000258   0.000205   0.000205
     3  C   -0.013400  -0.000617  -0.007251  -0.007253
     4  C   -0.000276  -0.000053  -0.001022  -0.001022
     5  C    0.000187  -0.000006   0.000168   0.000168
     6  C   -0.000039   0.000005   0.000021   0.000021
     7  H    0.000062  -0.000042  -0.000004  -0.000004
     8  H    0.000135   0.000000  -0.000048  -0.000048
     9  H   -0.000002  -0.000001   0.000001   0.000001
    10  O    0.000000   0.000000   0.000000   0.000000
    11  H    0.000000   0.000000   0.000000   0.000000
    12  O    0.000001   0.000000  -0.000001  -0.000001
    13  C   -0.022168   0.001011   0.004880   0.004880
    14  H    0.001011   0.000018  -0.000147  -0.000148
    15  H    0.004880  -0.000147   0.023190  -0.005587
    16  H    0.004880  -0.000148  -0.005587   0.023197
 Mulliken charges and spin densities:
               1          2
     1  C    0.142209   0.260792
     2  C   -0.052877  -0.135288
     3  C   -0.107916   0.310008
     4  C   -0.061422  -0.038449
     5  C   -0.099850   0.167796
     6  C    0.164661   0.007707
     7  H    0.101453   0.005224
     8  H    0.096889   0.000429
     9  H    0.112499  -0.010122
    10  O   -0.365649   0.344048
    11  H    0.258669  -0.004330
    12  O   -0.311259   0.086516
    13  C   -0.256468  -0.023605
    14  H    0.115510   0.000293
    15  H    0.131774   0.014490
    16  H    0.131776   0.014493
 Sum of Mulliken charges =   0.00000   1.00000
 Mulliken charges and spin densities with hydrogens summed into heavy atoms:
               1          2
     1  C    0.142209   0.260792
     2  C    0.048576  -0.130065
     3  C   -0.107916   0.310008
     4  C    0.035468  -0.038020
     5  C    0.012649   0.157674
     6  C    0.164661   0.007707
    10  O   -0.365649   0.344048
    12  O   -0.052589   0.082186
    13  C    0.122593   0.005670
 Electronic spatial extent (au):  <R**2>=           1182.1447
 Charge=              0.0000 electrons
 Dipole moment (field-independent basis, Debye):
    X=              3.3894    Y=             -0.1324    Z=              0.0001  Tot=              3.3920
 Quadrupole moment (field-independent basis, Debye-Ang):
   XX=            -51.7174   YY=            -51.6107   ZZ=            -53.9280
   XY=              2.7292   XZ=              0.0000   YZ=              0.0001
 Traceless Quadrupole moment (field-independent basis, Debye-Ang):
   XX=              0.7013   YY=              0.8080   ZZ=             -1.5093
   XY=              2.7292   XZ=              0.0000   YZ=              0.0001
 Octapole moment (field-independent basis, Debye-Ang**2):
  XXX=              7.1113  YYY=              5.8050  ZZZ=              0.0003  XYY=              4.6926
  XXY=            -14.1773  XXZ=              0.0003  XZZ=             -6.4725  YZZ=             -1.9813
  YYZ=              0.0000  XYZ=             -0.0001
 Hexadecapole moment (field-independent basis, Debye-Ang**3):
 XXXX=           -995.5597 YYYY=           -437.9810 ZZZZ=            -61.9517 XXXY=             55.7487
 XXXZ=             -0.0002 YYYX=             -9.3576 YYYZ=              0.0009 ZZZX=              0.0007
 ZZZY=             -0.0001 XXYY=           -247.0496 XXZZ=           -175.1517 YYZZ=            -92.4739
 XXYZ=             -0.0001 YYXZ=             -0.0003 ZZXY=              2.8307
 N-N= 4.177750601576D+02 E-N=-1.819897252232D+03  KE= 4.199577189233D+02
                          Isotropic Fermi Contact Couplings
        Atom                 a.u.       MegaHertz       Gauss      10(-4) cm-1
     1  C(13)              0.01248      14.03083       5.00655       4.68018
     2  C(13)             -0.01970     -22.14232      -7.90093      -7.38588
     3  C(13)              0.02001      22.49558       8.02698       7.50372
     4  C(13)             -0.01192     -13.40565      -4.78347      -4.47164
     5  C(13)              0.00504       5.66949       2.02301       1.89114
     6  C(13)             -0.02070     -23.27124      -8.30376      -7.76245
     7  H(1)               0.00129       5.77751       2.06156       1.92717
     8  H(1)               0.00009       0.38029       0.13570       0.12685
     9  H(1)              -0.00248     -11.07428      -3.95158      -3.69398
    10  O(17)              0.02858     -17.32321      -6.18135      -5.77840
    11  H(1)              -0.00147      -6.58835      -2.35089      -2.19764
    12  O(17)              0.01181      -7.16154      -2.55541      -2.38883
    13  C(13)             -0.00976     -10.96729      -3.91340      -3.65829
    14  H(1)               0.00011       0.47877       0.17084       0.15970
    15  H(1)               0.00792      35.39536      12.62994      11.80662
    16  H(1)               0.00792      35.40211      12.63235      11.80887
 --------------------------------------------------------
       Center         ----  Spin Dipole Couplings  ----
                      3XX-RR        3YY-RR        3ZZ-RR
 --------------------------------------------------------
     1   Atom       -0.162524     -0.155967      0.318491
     2   Atom        0.064609      0.053981     -0.118590
     3   Atom       -0.174756     -0.183305      0.358060
     4   Atom        0.006372      0.005075     -0.011447
     5   Atom       -0.091931     -0.086026      0.177957
     6   Atom        0.004242     -0.031045      0.026803
     7   Atom        0.006959     -0.001464     -0.005495
     8   Atom       -0.001321      0.005990     -0.004670
     9   Atom       -0.010743      0.015114     -0.004371
    10   Atom       -0.728385     -0.718487      1.446873
    11   Atom        0.008681      0.003809     -0.012490
    12   Atom       -0.233738     -0.233248      0.466986
    13   Atom        0.000996     -0.008011      0.007015
    14   Atom        0.001583      0.000946     -0.002529
    15   Atom        0.005173     -0.003036     -0.002137
    16   Atom        0.005172     -0.003036     -0.002136
 --------------------------------------------------------
                        XY            XZ            YZ
 --------------------------------------------------------
     1   Atom        0.000969      0.000006     -0.000002
     2   Atom        0.001234     -0.000002      0.000001
     3   Atom       -0.003566     -0.000004      0.000003
     4   Atom       -0.003321      0.000000     -0.000001
     5   Atom        0.002306      0.000004     -0.000004
     6   Atom       -0.006519      0.000000      0.000001
     7   Atom        0.000573      0.000000      0.000000
     8   Atom        0.002750      0.000000      0.000000
     9   Atom       -0.002121      0.000000      0.000000
    10   Atom        0.003641     -0.000025      0.000000
    11   Atom       -0.009854      0.000000      0.000000
    12   Atom       -0.002447      0.000005      0.000002
    13   Atom       -0.003640      0.000000      0.000000
    14   Atom       -0.004104      0.000000      0.000000
    15   Atom       -0.000083     -0.003094     -0.000932
    16   Atom       -0.000084      0.003094      0.000932
 --------------------------------------------------------


 ---------------------------------------------------------------------------------
              Anisotropic Spin Dipole Couplings in Principal Axis System
 ---------------------------------------------------------------------------------

       Atom             a.u.   MegaHertz   Gauss  10(-4) cm-1        Axes

              Baa    -0.1627   -21.828    -7.789    -7.281  0.9897 -0.1432  0.0000
     1 C(13)  Bbb    -0.1558   -20.910    -7.461    -6.975  0.1432  0.9897  0.0000
              Bcc     0.3185    42.738    15.250    14.256  0.0000  0.0000  1.0000
 
              Baa    -0.1186   -15.914    -5.678    -5.308  0.0000  0.0000  1.0000
     2 C(13)  Bbb     0.0538     7.225     2.578     2.410 -0.1138  0.9935  0.0000
              Bcc     0.0648     8.689     3.100     2.898  0.9935  0.1138  0.0000
 
              Baa    -0.1846   -24.771    -8.839    -8.263  0.3406  0.9402  0.0000
     3 C(13)  Bbb    -0.1735   -23.277    -8.306    -7.764  0.9402 -0.3406  0.0000
              Bcc     0.3581    48.048    17.145    16.027  0.0000  0.0000  1.0000
 
              Baa    -0.0114    -1.536    -0.548    -0.512  0.0000  0.0001  1.0000
     4 C(13)  Bbb     0.0023     0.314     0.112     0.105  0.6358  0.7719  0.0000
              Bcc     0.0091     1.222     0.436     0.408  0.7719 -0.6358  0.0000
 
              Baa    -0.0927   -12.443    -4.440    -4.150  0.9455 -0.3255  0.0000
     5 C(13)  Bbb    -0.0852   -11.437    -4.081    -3.815  0.3255  0.9455  0.0000
              Bcc     0.1780    23.880     8.521     7.966  0.0000  0.0000  1.0000
 
              Baa    -0.0322    -4.322    -1.542    -1.442  0.1760  0.9844  0.0000
     6 C(13)  Bbb     0.0054     0.726     0.259     0.242  0.9844 -0.1760  0.0000
              Bcc     0.0268     3.597     1.283     1.200  0.0000  0.0000  1.0000
 
              Baa    -0.0055    -2.932    -1.046    -0.978  0.0000  0.0000  1.0000
     7 H(1)   Bbb    -0.0015    -0.802    -0.286    -0.267 -0.0675  0.9977  0.0000
              Bcc     0.0070     3.734     1.332     1.245  0.9977  0.0675  0.0000
 
              Baa    -0.0047    -2.491    -0.889    -0.831  0.0000  0.0000  1.0000
     8 H(1)   Bbb    -0.0022    -1.195    -0.426    -0.399  0.9484 -0.3169  0.0000
              Bcc     0.0069     3.687     1.315     1.230  0.3169  0.9484  0.0000
 
              Baa    -0.0109    -5.824    -2.078    -1.943  0.9967  0.0812  0.0000
     9 H(1)   Bbb    -0.0044    -2.332    -0.832    -0.778  0.0000  0.0000  1.0000
              Bcc     0.0153     8.156     2.910     2.721 -0.0812  0.9967  0.0000
 
              Baa    -0.7296    52.792    18.837    17.609  0.9501 -0.3119  0.0000
    10 O(17)  Bbb    -0.7173    51.903    18.520    17.313  0.3119  0.9501  0.0000
              Bcc     1.4469  -104.695   -37.358   -34.922  0.0000  0.0000  1.0000
 
              Baa    -0.0125    -6.664    -2.378    -2.223  0.0000  0.0000  1.0000
    11 H(1)   Bbb    -0.0039    -2.084    -0.744    -0.695  0.6164  0.7874  0.0000
              Bcc     0.0164     8.748     3.121     2.918  0.7874 -0.6164  0.0000
 
              Baa    -0.2360    17.073     6.092     5.695  0.7415  0.6709  0.0000
    12 O(17)  Bbb    -0.2310    16.717     5.965     5.576 -0.6709  0.7415  0.0000
              Bcc     0.4670   -33.791   -12.057   -11.271  0.0000  0.0000  1.0000
 
              Baa    -0.0093    -1.248    -0.445    -0.416  0.3334  0.9428  0.0000
    13 C(13)  Bbb     0.0023     0.306     0.109     0.102  0.9428 -0.3334  0.0000
              Bcc     0.0070     0.941     0.336     0.314  0.0000  0.0000  1.0000
 
              Baa    -0.0029    -1.522    -0.543    -0.508  0.6792  0.7339  0.0002
    14 H(1)   Bbb    -0.0025    -1.349    -0.482    -0.450 -0.0001 -0.0001  1.0000
              Bcc     0.0054     2.871     1.024     0.958  0.7339 -0.6792  0.0000
 
              Baa    -0.0041    -2.170    -0.774    -0.724  0.2436  0.6612  0.7096
    15 H(1)   Bbb    -0.0022    -1.198    -0.427    -0.400 -0.2475  0.7498 -0.6137
              Bcc     0.0063     3.368     1.202     1.123  0.9378  0.0262 -0.3462
 
              Baa    -0.0041    -2.170    -0.774    -0.724 -0.2436 -0.6613  0.7095
    16 H(1)   Bbb    -0.0022    -1.198    -0.427    -0.400 -0.2475  0.7497  0.6138
              Bcc     0.0063     3.368     1.202     1.123  0.9378  0.0261  0.3463
 

 ---------------------------------------------------------------------------------

 1|1|UNPC-PC-20250526LCFF|SP|UB3LYP|6-311G(d,p)|C7H7O2(2)|ADMINISTRATOR
 |08-Dec-2025|0||# ub3lyp/6-311g(d,p) geom=connectivity temperature=823
 .15||Title Card Required||0,2|C,0,-0.776426,-0.773917,0.000003|C,0,0.5
 71874,-1.10038,-0.000011|C,0,1.5275,-0.08436,-0.000012|C,0,1.108781,1.
 280927,-0.000009|C,0,-0.213504,1.632275,0.000007|C,0,-1.234501,0.61811
 7,0.000002|H,0,0.865248,-2.143745,-0.000018|H,0,1.871083,2.05331,0.000
 013|H,0,-0.535164,2.666732,0.000024|O,0,-2.470566,0.822879,-0.000007|H
 ,0,-2.569704,-1.174539,0.000005|O,0,-1.738116,-1.695511,0.000009|C,0,2
 .9968,-0.404049,0.000005|H,0,3.175674,-1.479919,-0.000052|H,0,3.489619
 ,0.023827,-0.879477|H,0,3.489562,0.023709,0.879581||Version=EM64W-G16R
 evA.03|State=2-A|HF=-421.496863|S2=0.769431|S2-1=0.|S2A=0.750254|RMSD=
 4.629e-009|Dipole=1.3334836,-0.0520976,0.0000204|Quadrupole=0.5213972,
 0.6007389,-1.1221362,2.0291189,0.0000182,0.0000765|PG=C01 [X(C7H7O2)]|
 |@


 My opinions may have changed, but not the fact that I am right.
                       -- Ashleigh Brilliant
 Job cpu time:       0 days  0 hours  0 minutes 32.0 seconds.
 Elapsed time:       0 days  0 hours  0 minutes 31.5 seconds.
 File lengths (MBytes):  RWF=     45 Int=      0 D2E=      0 Chk=      4 Scr=      1
 Normal termination of Gaussian 16 at Mon Dec 08 16:39:42 2025.
