Title Card Required                                                     
SP        UB3LYP                                                      6-311G(d,p)         
Number of atoms                            I               16
Info1-9                                    I   N=           9
          43          42           0           0           0         110
           1          18        -502
Full Title                                 C   N=           2
Title Card Required     
Route                                      C   N=           5
# ub3lyp/6-311g(d,p) geom=connectivity temperature=823.15   
Charge                                     I                0
Multiplicity                               I                2
Number of electrons                        I               65
Number of alpha electrons                  I               33
Number of beta electrons                   I               32
Number of basis functions                  I              204
Number of independent functions            I              204
Number of point charges in /Mol/           I                0
Number of translation vectors              I                0
Atomic numbers                             I   N=          16
           6           6           6           6           6           6
           1           1           1           8           1           8
           6           1           1           1
Nuclear charges                            R   N=          16
  6.00000000E+00  6.00000000E+00  6.00000000E+00  6.00000000E+00  6.00000000E+00
  6.00000000E+00  1.00000000E+00  1.00000000E+00  1.00000000E+00  8.00000000E+00
  1.00000000E+00  8.00000000E+00  6.00000000E+00  1.00000000E+00  1.00000000E+00
  1.00000000E+00
Current cartesian coordinates              R   N=          48
 -1.46723250E+00 -1.46249117E+00  5.66917837E-06  1.08068524E+00 -2.07941683E+00
 -2.07869874E-05  2.88655666E+00 -1.59417296E-01 -2.26767135E-05  2.09529242E+00
  2.42060122E+00 -1.70075351E-05 -4.03464086E-01  3.08455271E+00  1.32280829E-05
 -2.33286879E+00  1.16807184E+00  3.77945225E-06  1.63508175E+00 -4.05109093E+00
 -3.40150702E-05  3.53583443E+00  3.88019355E+00  2.45664396E-05 -1.01131339E+00
  5.03939313E+00  4.53534270E-05 -4.66869311E+00  1.55501594E+00 -1.32280829E-05
 -4.85603678E+00 -2.21955703E+00  9.44863062E-06 -3.28456321E+00 -3.20405143E+00
  1.70075351E-05  5.66313125E+00 -7.63541951E-01  9.44863062E-06  6.00115412E+00
 -2.79664160E+00 -9.82657585E-05  6.59442419E+00  4.50265044E-02 -1.66197066E+00
  6.59431647E+00  4.48035167E-02  1.66216719E+00
Number of symbols in /Mol/                 I                0
Force Field                                I                0
Atom Types                                 C   N=          16
                                                            
                                                            
                                                            
            
Int Atom Types                             I   N=          16
           0           0           0           0           0           0
           0           0           0           0           0           0
           0           0           0           0
MM charges                                 R   N=          16
  0.00000000E+00  0.00000000E+00  0.00000000E+00  0.00000000E+00  0.00000000E+00
  0.00000000E+00  0.00000000E+00  0.00000000E+00  0.00000000E+00  0.00000000E+00
  0.00000000E+00  0.00000000E+00  0.00000000E+00  0.00000000E+00  0.00000000E+00
  0.00000000E+00
Integer atomic weights                     I   N=          16
          12          12          12          12          12          12
           1           1           1          16           1          16
          12           1           1           1
Real atomic weights                        R   N=          16
  1.20000000E+01  1.20000000E+01  1.20000000E+01  1.20000000E+01  1.20000000E+01
  1.20000000E+01  1.00782504E+00  1.00782504E+00  1.00782504E+00  1.59949146E+01
  1.00782504E+00  1.59949146E+01  1.20000000E+01  1.00782504E+00  1.00782504E+00
  1.00782504E+00
Atom fragment info                         I   N=          16
           0           0           0           0           0           0
           0           0           0           0           0           0
           0           0           0           0
Atom residue num                           I   N=          16
           0           0           0           0           0           0
           0           0           0           0           0           0
           0           0           0           0
Nuclear spins                              I   N=          16
           0           0           0           0           0           0
           1           1           1           0           1           0
           0           1           1           1
Nuclear ZEff                               R   N=          16
 -3.60000000E+00 -3.60000000E+00 -3.60000000E+00 -3.60000000E+00 -3.60000000E+00
 -3.60000000E+00 -1.00000000E+00 -1.00000000E+00 -1.00000000E+00 -5.60000000E+00
 -1.00000000E+00 -5.60000000E+00 -3.60000000E+00 -1.00000000E+00 -1.00000000E+00
 -1.00000000E+00
Nuclear ZNuc                               R   N=          16
  6.00000000E+00  6.00000000E+00  6.00000000E+00  6.00000000E+00  6.00000000E+00
  6.00000000E+00  1.00000000E+00  1.00000000E+00  1.00000000E+00  8.00000000E+00
  1.00000000E+00  8.00000000E+00  6.00000000E+00  1.00000000E+00  1.00000000E+00
  1.00000000E+00
Nuclear QMom                               R   N=          16
  0.00000000E+00  0.00000000E+00  0.00000000E+00  0.00000000E+00  0.00000000E+00
  0.00000000E+00  0.00000000E+00  0.00000000E+00  0.00000000E+00  0.00000000E+00
  0.00000000E+00  0.00000000E+00  0.00000000E+00  0.00000000E+00  0.00000000E+00
  0.00000000E+00
Nuclear GFac                               R   N=          16
  0.00000000E+00  0.00000000E+00  0.00000000E+00  0.00000000E+00  0.00000000E+00
  0.00000000E+00  2.79284600E+00  2.79284600E+00  2.79284600E+00  0.00000000E+00
  2.79284600E+00  0.00000000E+00  0.00000000E+00  2.79284600E+00  2.79284600E+00
  2.79284600E+00
MicOpt                                     I   N=          16
          -1          -1          -1          -1          -1          -1
          -1          -1          -1          -1          -1          -1
          -1          -1          -1          -1
Number of residues                         I                0
Number of secondary structures             I                0
SymInf integers                            I   N=          26
           1           1           1           1           1           0
           0           0           0           0           0           0
           0           0           0           0           0           0
           0           0           0           0           0           0
           0           0
RotTr to input orientation                 R   N=          12
  1.00000000E+00  8.50718834E-08  0.00000000E+00 -8.50718834E-08  1.00000000E+00
  0.00000000E+00  0.00000000E+00  0.00000000E+00  1.00000000E+00  1.74436258E-07
 -8.72181288E-08  5.81454192E-08
Number of contracted shells                I               73
Number of primitive shells                 I              150
Pure/Cartesian d shells                    I                0
Pure/Cartesian f shells                    I                0
Highest angular momentum                   I                2
Largest degree of contraction              I                6
Shell types                                I   N=          73
           0          -1          -1          -1          -2           0
          -1          -1          -1          -2           0          -1
          -1          -1          -2           0          -1          -1
          -1          -2           0          -1          -1          -1
          -2           0          -1          -1          -1          -2
           0           0           0           1           0           0
           0           1           0           0           0           1
           0          -1          -1          -1          -2           0
           0           0           1           0          -1          -1
          -1          -2           0          -1          -1          -1
          -2           0           0           0           1           0
           0           0           1           0           0           0
           1
Number of primitives per shell             I   N=          73
           6           3           1           1           1           6
           3           1           1           1           6           3
           1           1           1           6           3           1
           1           1           6           3           1           1
           1           6           3           1           1           1
           3           1           1           1           3           1
           1           1           3           1           1           1
           6           3           1           1           1           3
           1           1           1           6           3           1
           1           1           6           3           1           1
           1           3           1           1           1           3
           1           1           1           3           1           1
           1
Shell to atom map                          I   N=          73
           1           1           1           1           1           2
           2           2           2           2           3           3
           3           3           3           4           4           4
           4           4           5           5           5           5
           5           6           6           6           6           6
           7           7           7           7           8           8
           8           8           9           9           9           9
          10          10          10          10          10          11
          11          11          11          12          12          12
          12          12          13          13          13          13
          13          14          14          14          14          15
          15          15          15          16          16          16
          16
Primitive exponents                        R   N=         150
  4.56324000E+03  6.82024000E+02  1.54973000E+02  4.44553000E+01  1.30290000E+01
  1.82773000E+00  2.09642000E+01  4.80331000E+00  1.45933000E+00  4.83456000E-01
  1.45585000E-01  6.26000000E-01  4.56324000E+03  6.82024000E+02  1.54973000E+02
  4.44553000E+01  1.30290000E+01  1.82773000E+00  2.09642000E+01  4.80331000E+00
  1.45933000E+00  4.83456000E-01  1.45585000E-01  6.26000000E-01  4.56324000E+03
  6.82024000E+02  1.54973000E+02  4.44553000E+01  1.30290000E+01  1.82773000E+00
  2.09642000E+01  4.80331000E+00  1.45933000E+00  4.83456000E-01  1.45585000E-01
  6.26000000E-01  4.56324000E+03  6.82024000E+02  1.54973000E+02  4.44553000E+01
  1.30290000E+01  1.82773000E+00  2.09642000E+01  4.80331000E+00  1.45933000E+00
  4.83456000E-01  1.45585000E-01  6.26000000E-01  4.56324000E+03  6.82024000E+02
  1.54973000E+02  4.44553000E+01  1.30290000E+01  1.82773000E+00  2.09642000E+01
  4.80331000E+00  1.45933000E+00  4.83456000E-01  1.45585000E-01  6.26000000E-01
  4.56324000E+03  6.82024000E+02  1.54973000E+02  4.44553000E+01  1.30290000E+01
  1.82773000E+00  2.09642000E+01  4.80331000E+00  1.45933000E+00  4.83456000E-01
  1.45585000E-01  6.26000000E-01  3.38650000E+01  5.09479000E+00  1.15879000E+00
  3.25840000E-01  1.02741000E-01  7.50000000E-01  3.38650000E+01  5.09479000E+00
  1.15879000E+00  3.25840000E-01  1.02741000E-01  7.50000000E-01  3.38650000E+01
  5.09479000E+00  1.15879000E+00  3.25840000E-01  1.02741000E-01  7.50000000E-01
  8.58850000E+03  1.29723000E+03  2.99296000E+02  8.73771000E+01  2.56789000E+01
  3.74004000E+00  4.21175000E+01  9.62837000E+00  2.85332000E+00  9.05661000E-01
  2.55611000E-01  1.29200000E+00  3.38650000E+01  5.09479000E+00  1.15879000E+00
  3.25840000E-01  1.02741000E-01  7.50000000E-01  8.58850000E+03  1.29723000E+03
  2.99296000E+02  8.73771000E+01  2.56789000E+01  3.74004000E+00  4.21175000E+01
  9.62837000E+00  2.85332000E+00  9.05661000E-01  2.55611000E-01  1.29200000E+00
  4.56324000E+03  6.82024000E+02  1.54973000E+02  4.44553000E+01  1.30290000E+01
  1.82773000E+00  2.09642000E+01  4.80331000E+00  1.45933000E+00  4.83456000E-01
  1.45585000E-01  6.26000000E-01  3.38650000E+01  5.09479000E+00  1.15879000E+00
  3.25840000E-01  1.02741000E-01  7.50000000E-01  3.38650000E+01  5.09479000E+00
  1.15879000E+00  3.25840000E-01  1.02741000E-01  7.50000000E-01  3.38650000E+01
  5.09479000E+00  1.15879000E+00  3.25840000E-01  1.02741000E-01  7.50000000E-01
Contraction coefficients                   R   N=         150
  1.96665025E-03  1.52306019E-02  7.61269097E-02  2.60801033E-01  6.16462078E-01
  2.21006028E-01  1.14660081E-01  9.19999648E-01 -3.03068213E-03  1.00000000E+00
  1.00000000E+00  1.00000000E+00  1.96665025E-03  1.52306019E-02  7.61269097E-02
  2.60801033E-01  6.16462078E-01  2.21006028E-01  1.14660081E-01  9.19999648E-01
 -3.03068213E-03  1.00000000E+00  1.00000000E+00  1.00000000E+00  1.96665025E-03
  1.52306019E-02  7.61269097E-02  2.60801033E-01  6.16462078E-01  2.21006028E-01
  1.14660081E-01  9.19999648E-01 -3.03068213E-03  1.00000000E+00  1.00000000E+00
  1.00000000E+00  1.96665025E-03  1.52306019E-02  7.61269097E-02  2.60801033E-01
  6.16462078E-01  2.21006028E-01  1.14660081E-01  9.19999648E-01 -3.03068213E-03
  1.00000000E+00  1.00000000E+00  1.00000000E+00  1.96665025E-03  1.52306019E-02
  7.61269097E-02  2.60801033E-01  6.16462078E-01  2.21006028E-01  1.14660081E-01
  9.19999648E-01 -3.03068213E-03  1.00000000E+00  1.00000000E+00  1.00000000E+00
  1.96665025E-03  1.52306019E-02  7.61269097E-02  2.60801033E-01  6.16462078E-01
  2.21006028E-01  1.14660081E-01  9.19999648E-01 -3.03068213E-03  1.00000000E+00
  1.00000000E+00  1.00000000E+00  2.54938145E-02  1.90373109E-01  8.52161486E-01
  1.00000000E+00  1.00000000E+00  1.00000000E+00  2.54938145E-02  1.90373109E-01
  8.52161486E-01  1.00000000E+00  1.00000000E+00  1.00000000E+00  2.54938145E-02
  1.90373109E-01  8.52161486E-01  1.00000000E+00  1.00000000E+00  1.00000000E+00
  1.89515008E-03  1.43859006E-02  7.07320031E-02  2.40001011E-01  5.94797026E-01
  2.80802012E-01  1.13889012E-01  9.20811101E-01 -3.27447036E-03  1.00000000E+00
  1.00000000E+00  1.00000000E+00  2.54938145E-02  1.90373109E-01  8.52161486E-01
  1.00000000E+00  1.00000000E+00  1.00000000E+00  1.89515008E-03  1.43859006E-02
  7.07320031E-02  2.40001011E-01  5.94797026E-01  2.80802012E-01  1.13889012E-01
  9.20811101E-01 -3.27447036E-03  1.00000000E+00  1.00000000E+00  1.00000000E+00
  1.96665025E-03  1.52306019E-02  7.61269097E-02  2.60801033E-01  6.16462078E-01
  2.21006028E-01  1.14660081E-01  9.19999648E-01 -3.03068213E-03  1.00000000E+00
  1.00000000E+00  1.00000000E+00  2.54938145E-02  1.90373109E-01  8.52161486E-01
  1.00000000E+00  1.00000000E+00  1.00000000E+00  2.54938145E-02  1.90373109E-01
  8.52161486E-01  1.00000000E+00  1.00000000E+00  1.00000000E+00  2.54938145E-02
  1.90373109E-01  8.52161486E-01  1.00000000E+00  1.00000000E+00  1.00000000E+00
P(S=P) Contraction coefficients            R   N=         150
  0.00000000E+00  0.00000000E+00  0.00000000E+00  0.00000000E+00  0.00000000E+00
  0.00000000E+00  4.02486927E-02  2.37593957E-01  8.15853851E-01  1.00000000E+00
  1.00000000E+00  0.00000000E+00  0.00000000E+00  0.00000000E+00  0.00000000E+00
  0.00000000E+00  0.00000000E+00  0.00000000E+00  4.02486927E-02  2.37593957E-01
  8.15853851E-01  1.00000000E+00  1.00000000E+00  0.00000000E+00  0.00000000E+00
  0.00000000E+00  0.00000000E+00  0.00000000E+00  0.00000000E+00  0.00000000E+00
  4.02486927E-02  2.37593957E-01  8.15853851E-01  1.00000000E+00  1.00000000E+00
  0.00000000E+00  0.00000000E+00  0.00000000E+00  0.00000000E+00  0.00000000E+00
  0.00000000E+00  0.00000000E+00  4.02486927E-02  2.37593957E-01  8.15853851E-01
  1.00000000E+00  1.00000000E+00  0.00000000E+00  0.00000000E+00  0.00000000E+00
  0.00000000E+00  0.00000000E+00  0.00000000E+00  0.00000000E+00  4.02486927E-02
  2.37593957E-01  8.15853851E-01  1.00000000E+00  1.00000000E+00  0.00000000E+00
  0.00000000E+00  0.00000000E+00  0.00000000E+00  0.00000000E+00  0.00000000E+00
  0.00000000E+00  4.02486927E-02  2.37593957E-01  8.15853851E-01  1.00000000E+00
  1.00000000E+00  0.00000000E+00  0.00000000E+00  0.00000000E+00  0.00000000E+00
  0.00000000E+00  0.00000000E+00  0.00000000E+00  0.00000000E+00  0.00000000E+00
  0.00000000E+00  0.00000000E+00  0.00000000E+00  0.00000000E+00  0.00000000E+00
  0.00000000E+00  0.00000000E+00  0.00000000E+00  0.00000000E+00  0.00000000E+00
  0.00000000E+00  0.00000000E+00  0.00000000E+00  0.00000000E+00  0.00000000E+00
  0.00000000E+00  3.65113974E-02  2.37152983E-01  8.19701941E-01  1.00000000E+00
  1.00000000E+00  0.00000000E+00  0.00000000E+00  0.00000000E+00  0.00000000E+00
  0.00000000E+00  0.00000000E+00  0.00000000E+00  0.00000000E+00  0.00000000E+00
  0.00000000E+00  0.00000000E+00  0.00000000E+00  0.00000000E+00  3.65113974E-02
  2.37152983E-01  8.19701941E-01  1.00000000E+00  1.00000000E+00  0.00000000E+00
  0.00000000E+00  0.00000000E+00  0.00000000E+00  0.00000000E+00  0.00000000E+00
  0.00000000E+00  4.02486927E-02  2.37593957E-01  8.15853851E-01  1.00000000E+00
  1.00000000E+00  0.00000000E+00  0.00000000E+00  0.00000000E+00  0.00000000E+00
  0.00000000E+00  0.00000000E+00  0.00000000E+00  0.00000000E+00  0.00000000E+00
  0.00000000E+00  0.00000000E+00  0.00000000E+00  0.00000000E+00  0.00000000E+00
  0.00000000E+00  0.00000000E+00  0.00000000E+00  0.00000000E+00  0.00000000E+00
Coordinates of each shell                  R   N=         219
 -1.46723279E+00 -1.46249096E+00  5.61103295E-06 -1.46723279E+00 -1.46249096E+00
  5.61103295E-06 -1.46723279E+00 -1.46249096E+00  5.61103295E-06 -1.46723279E+00
 -1.46249096E+00  5.61103295E-06 -1.46723279E+00 -1.46249096E+00  5.61103295E-06
  1.08068489E+00 -2.07941684E+00 -2.08451328E-05  1.08068489E+00 -2.07941684E+00
 -2.08451328E-05  1.08068489E+00 -2.07941684E+00 -2.08451328E-05  1.08068489E+00
 -2.07941684E+00 -2.08451328E-05  1.08068489E+00 -2.07941684E+00 -2.08451328E-05
  2.88655647E+00 -1.59417454E-01 -2.27348589E-05  2.88655647E+00 -1.59417454E-01
 -2.27348589E-05  2.88655647E+00 -1.59417454E-01 -2.27348589E-05  2.88655647E+00
 -1.59417454E-01 -2.27348589E-05  2.88655647E+00 -1.59417454E-01 -2.27348589E-05
  2.09529245E+00  2.42060112E+00 -1.70656805E-05  2.09529245E+00  2.42060112E+00
 -1.70656805E-05  2.09529245E+00  2.42060112E+00 -1.70656805E-05  2.09529245E+00
  2.42060112E+00 -1.70656805E-05  2.09529245E+00  2.42060112E+00 -1.70656805E-05
 -4.03463999E-01  3.08455283E+00  1.31699375E-05 -4.03463999E-01  3.08455283E+00
  1.31699375E-05 -4.03463999E-01  3.08455283E+00  1.31699375E-05 -4.03463999E-01
  3.08455283E+00  1.31699375E-05 -4.03463999E-01  3.08455283E+00  1.31699375E-05
 -2.33286887E+00  1.16807213E+00  3.72130683E-06 -2.33286887E+00  1.16807213E+00
  3.72130683E-06 -2.33286887E+00  1.16807213E+00  3.72130683E-06 -2.33286887E+00
  1.16807213E+00  3.72130683E-06 -2.33286887E+00  1.16807213E+00  3.72130683E-06
  1.63508123E+00 -4.05109098E+00 -3.40732157E-05  1.63508123E+00 -4.05109098E+00
 -3.40732157E-05  1.63508123E+00 -4.05109098E+00 -3.40732157E-05  1.63508123E+00
 -4.05109098E+00 -3.40732157E-05  3.53583458E+00  3.88019334E+00  2.45082942E-05
  3.53583458E+00  3.88019334E+00  2.45082942E-05  3.53583458E+00  3.88019334E+00
  2.45082942E-05  3.53583458E+00  3.88019334E+00  2.45082942E-05 -1.01131314E+00
  5.03939330E+00  4.52952816E-05 -1.01131314E+00  5.03939330E+00  4.52952816E-05
 -1.01131314E+00  5.03939330E+00  4.52952816E-05 -1.01131314E+00  5.03939330E+00
  4.52952816E-05 -4.66869315E+00  1.55501643E+00 -1.32862283E-05 -4.66869315E+00
  1.55501643E+00 -1.32862283E-05 -4.66869315E+00  1.55501643E+00 -1.32862283E-05
 -4.66869315E+00  1.55501643E+00 -1.32862283E-05 -4.66869315E+00  1.55501643E+00
 -1.32862283E-05 -4.85603714E+00 -2.21955653E+00  9.39048520E-06 -4.85603714E+00
 -2.21955653E+00  9.39048520E-06 -4.85603714E+00 -2.21955653E+00  9.39048520E-06
 -4.85603714E+00 -2.21955653E+00  9.39048520E-06 -3.28456366E+00 -3.20405106E+00
  1.69493897E-05 -3.28456366E+00 -3.20405106E+00  1.69493897E-05 -3.28456366E+00
 -3.20405106E+00  1.69493897E-05 -3.28456366E+00 -3.20405106E+00  1.69493897E-05
 -3.28456366E+00 -3.20405106E+00  1.69493897E-05  5.66313101E+00 -7.63542345E-01
  9.39048520E-06  5.66313101E+00 -7.63542345E-01  9.39048520E-06  5.66313101E+00
 -7.63542345E-01  9.39048520E-06  5.66313101E+00 -7.63542345E-01  9.39048520E-06
  5.66313101E+00 -7.63542345E-01  9.39048520E-06  6.00115371E+00 -2.79664202E+00
 -9.83239039E-05  6.00115371E+00 -2.79664202E+00 -9.83239039E-05  6.00115371E+00
 -2.79664202E+00 -9.83239039E-05  6.00115371E+00 -2.79664202E+00 -9.83239039E-05
  6.59442402E+00  4.50260306E-02 -1.66197072E+00  6.59442402E+00  4.50260306E-02
 -1.66197072E+00  6.59442402E+00  4.50260306E-02 -1.66197072E+00  6.59442402E+00
  4.50260306E-02 -1.66197072E+00  6.59431630E+00  4.48030429E-02  1.66216714E+00
  6.59431630E+00  4.48030429E-02  1.66216714E+00  6.59431630E+00  4.48030429E-02
  1.66216714E+00  6.59431630E+00  4.48030429E-02  1.66216714E+00
Num ILSW                                   I              100
ILSW                                       I   N=         100
           1           0           0           0           2           0
           0           0           0           0         402          -1
           5           0           0           0           0           0
           0           0           1           0           0           0
           1           0           0           0           0           0
           0           0      100000           0          -1           0
           0           0           0           0           0           0
           0           0           0           1           0           0
           0 -2000000000           1           0           0           0
           0           0           4          52           0           0
           0           0           5           0           0           0
           0           0           0           0           0           1
           0           0           0           0           0           0
           0           0           0           0           0           0
           0           0           0           0           0           0
           0           0           0           0           0           0
           0           0           0           0
Num RLSW                                   I               52
RLSW                                       R   N=          52
  8.00000000E-01  7.20000000E-01  1.00000000E+00  8.10000000E-01  2.00000000E-01
  0.00000000E+00  0.00000000E+00  1.00000000E+00  0.00000000E+00  0.00000000E+00
  0.00000000E+00  0.00000000E+00  1.00000000E+00  0.00000000E+00  0.00000000E+00
  0.00000000E+00  0.00000000E+00  1.00000000E+00  0.00000000E+00  0.00000000E+00
  0.00000000E+00  0.00000000E+00  1.00000000E+00  0.00000000E+00  0.00000000E+00
  0.00000000E+00  0.00000000E+00  1.00000000E+00  0.00000000E+00  0.00000000E+00
  0.00000000E+00  0.00000000E+00  1.00000000E+00  0.00000000E+00  0.00000000E+00
  0.00000000E+00  0.00000000E+00  0.00000000E+00  1.00000000E+00  1.00000000E+00
  0.00000000E+00  1.00000000E+00  0.00000000E+00  0.00000000E+00  0.00000000E+00
  0.00000000E+00  0.00000000E+00  0.00000000E+00  0.00000000E+00  0.00000000E+00
  0.00000000E+00  0.00000000E+00
MxBond                                     I                4
NBond                                      I   N=          16
           3           3           3           3           3           3
           1           1           1           1           1           2
           4           1           1           1
IBond                                      I   N=          64
           2           6          12           0           1           3
           7           0           2           4          13           0
           3           5           8           0           4           6
           9           0           1           5          10           0
           2           0           0           0           4           0
           0           0           5           0           0           0
           6           0           0           0          12           0
           0           0           1          11           0           0
           3          14          15          16          13           0
           0           0          13           0           0           0
          13           0           0           0
RBond                                      R   N=          64
  1.50000000E+00  1.00000000E+00  1.50000000E+00  0.00000000E+00  1.50000000E+00
  1.50000000E+00  1.00000000E+00  0.00000000E+00  1.50000000E+00  1.50000000E+00
  1.00000000E+00  0.00000000E+00  1.50000000E+00  2.00000000E+00  1.00000000E+00
  0.00000000E+00  2.00000000E+00  1.50000000E+00  1.00000000E+00  0.00000000E+00
  1.00000000E+00  1.50000000E+00  2.00000000E+00  0.00000000E+00  1.00000000E+00
  0.00000000E+00  0.00000000E+00  0.00000000E+00  1.00000000E+00  0.00000000E+00
  0.00000000E+00  0.00000000E+00  1.00000000E+00  0.00000000E+00  0.00000000E+00
  0.00000000E+00  2.00000000E+00  0.00000000E+00  0.00000000E+00  0.00000000E+00
  1.00000000E+00  0.00000000E+00  0.00000000E+00  0.00000000E+00  1.50000000E+00
  1.00000000E+00  0.00000000E+00  0.00000000E+00  1.00000000E+00  1.00000000E+00
  1.00000000E+00  1.00000000E+00  1.00000000E+00  0.00000000E+00  0.00000000E+00
  0.00000000E+00  1.00000000E+00  0.00000000E+00  0.00000000E+00  0.00000000E+00
  1.00000000E+00  0.00000000E+00  0.00000000E+00  0.00000000E+00
Virial Ratio                               R      2.003664997814584E+00
SCF Energy                                 R     -4.214968630453469E+02
Total Energy                               R     -4.214968630453469E+02
S**2                                       R      7.694309103812529E-01
S**2 after annihilation                    R      7.502539796009602E-01
RMS Density                                R      4.629361621911942E-09
Job Status                                 I                1
Nuclear derivative order                   I                0
External E-field                           R   N=          35
  0.00000000E+00  0.00000000E+00  0.00000000E+00  0.00000000E+00  0.00000000E+00
  0.00000000E+00  0.00000000E+00  0.00000000E+00  0.00000000E+00  0.00000000E+00
  0.00000000E+00  0.00000000E+00  0.00000000E+00  0.00000000E+00  0.00000000E+00
  0.00000000E+00  0.00000000E+00  0.00000000E+00  0.00000000E+00  0.00000000E+00
  0.00000000E+00  0.00000000E+00  0.00000000E+00  0.00000000E+00  0.00000000E+00
  0.00000000E+00  0.00000000E+00  0.00000000E+00  0.00000000E+00  0.00000000E+00
  0.00000000E+00  0.00000000E+00  0.00000000E+00  0.00000000E+00  0.00000000E+00
IOpCl                                      I                1
IROHF                                      I                0
Alpha Orbital Energies                     R   N=         204
 -1.91699423E+01 -1.91157919E+01 -1.02581809E+01 -1.02480808E+01 -1.02166313E+01
 -1.01931471E+01 -1.01906659E+01 -1.01868182E+01 -1.01864925E+01 -1.09939286E+00
 -1.03386459E+00 -8.73024123E-01 -7.80315308E-01 -7.66289389E-01 -6.87500265E-01
 -6.28409262E-01 -6.21865149E-01 -5.46569168E-01 -5.15187637E-01 -4.92289609E-01
 -4.63573793E-01 -4.60862911E-01 -4.38939893E-01 -4.36284630E-01 -4.22773545E-01
 -4.02687144E-01 -3.90905467E-01 -3.89180538E-01 -3.66668073E-01 -3.41807386E-01
 -2.78180588E-01 -2.66134272E-01 -2.13504411E-01 -2.14395115E-02 -1.26743097E-02
  3.82623733E-02  6.31192189E-02  6.59793995E-02  7.57626327E-02  1.00681552E-01
  1.11861572E-01  1.26313792E-01  1.50880065E-01  1.76909128E-01  2.07205737E-01
  2.39071313E-01  2.63476481E-01  2.70023737E-01  2.76631975E-01  2.86797686E-01
  3.13678594E-01  3.39325438E-01  3.59869345E-01  3.71590701E-01  3.73351911E-01
  3.95902761E-01  4.02635884E-01  4.23454272E-01  4.33200448E-01  4.45263223E-01
  4.71859524E-01  4.75555170E-01  5.00813658E-01  5.06457510E-01  5.07904964E-01
  5.35621068E-01  5.38323871E-01  5.59882658E-01  5.62511848E-01  5.78079438E-01
  5.96528212E-01  6.15017094E-01  6.19285360E-01  6.28665362E-01  6.39585682E-01
  6.67229844E-01  7.39496656E-01  7.43263001E-01  7.56817500E-01  7.77403117E-01
  7.92649482E-01  7.93399218E-01  8.43006357E-01  8.75931376E-01  8.83227643E-01
  8.90307680E-01  9.05088014E-01  9.33572204E-01  9.42453952E-01  9.64885676E-01
  9.70310557E-01  9.87489244E-01  1.04087859E+00  1.05299053E+00  1.07785920E+00
  1.09263239E+00  1.15781148E+00  1.20184326E+00  1.21591396E+00  1.31733815E+00
  1.33100964E+00  1.35424397E+00  1.38020924E+00  1.38370017E+00  1.43395515E+00
  1.43688691E+00  1.44587700E+00  1.47729799E+00  1.51502847E+00  1.52518040E+00
  1.53816122E+00  1.55345610E+00  1.55481577E+00  1.57180499E+00  1.60793725E+00
  1.61674606E+00  1.64233482E+00  1.64338740E+00  1.66420257E+00  1.70080699E+00
  1.74611049E+00  1.77454717E+00  1.80771518E+00  1.82478781E+00  1.84311810E+00
  1.86902375E+00  1.88936483E+00  1.88946162E+00  1.90639915E+00  1.95350407E+00
  1.98334231E+00  1.99952458E+00  2.04410068E+00  2.08179900E+00  2.08445575E+00
  2.10310428E+00  2.13334206E+00  2.22112158E+00  2.22581152E+00  2.29777949E+00
  2.32608970E+00  2.33084886E+00  2.34962756E+00  2.42549764E+00  2.43708050E+00
  2.45332165E+00  2.49225835E+00  2.51266261E+00  2.52215775E+00  2.55420095E+00
  2.59281229E+00  2.60607282E+00  2.62997607E+00  2.64564693E+00  2.64842473E+00