 Entering Gaussian System, Link 0=g09
 Input=SR-13-ts-SR-14.gjf
 Output=SR-13-ts-SR-14.log
 Initial command:
 /home/t1000003974/apps//g09/l1.exe "/home/t1000003974/tmp/Gau-4599.inp" -scrdir="/home/t1000003974/tmp/"
 Entering Link 1 = /home/t1000003974/apps//g09/l1.exe PID=      4600.
  
 Copyright (c) 1988,1990,1992,1993,1995,1998,2003,2009,2015,
            Gaussian, Inc.  All Rights Reserved.
  
 This is part of the Gaussian(R) 09 program.  It is based on
 the Gaussian(R) 03 system (copyright 2003, Gaussian, Inc.),
 the Gaussian(R) 98 system (copyright 1998, Gaussian, Inc.),
 the Gaussian(R) 94 system (copyright 1995, Gaussian, Inc.),
 the Gaussian 92(TM) system (copyright 1992, Gaussian, Inc.),
 the Gaussian 90(TM) system (copyright 1990, Gaussian, Inc.),
 the Gaussian 88(TM) system (copyright 1988, Gaussian, Inc.),
 the Gaussian 86(TM) system (copyright 1986, Carnegie Mellon
 University), and the Gaussian 82(TM) system (copyright 1983,
 Carnegie Mellon University). Gaussian is a federally registered
 trademark of Gaussian, Inc.
  
 This software contains proprietary and confidential information,
 including trade secrets, belonging to Gaussian, Inc.
  
 This software is provided under written license and may be
 used, copied, transmitted, or stored only in accord with that
 written license.
  
 The following legend is applicable only to US Government
 contracts under FAR:
  
                    RESTRICTED RIGHTS LEGEND
  
 Use, reproduction and disclosure by the US Government is
 subject to restrictions as set forth in subparagraphs (a)
 and (c) of the Commercial Computer Software - Restricted
 Rights clause in FAR 52.227-19.
  
 Gaussian, Inc.
 340 Quinnipiac St., Bldg. 40, Wallingford CT 06492
  
  
 ---------------------------------------------------------------
 Warning -- This program may not be used in any manner that
 competes with the business of Gaussian, Inc. or will provide
 assistance to any competitor of Gaussian, Inc.  The licensee
 of this program is prohibited from giving any competitor of
 Gaussian, Inc. access to this program.  By using this program,
 the user acknowledges that Gaussian, Inc. is engaged in the
 business of creating and licensing software in the field of
 computational chemistry and represents and warrants to the
 licensee that it is not a competitor of Gaussian, Inc. and that
 it will not use this program in any manner prohibited above.
 ---------------------------------------------------------------
  

 Cite this work as:
 Gaussian 09, Revision E.01,
 M. J. Frisch, G. W. Trucks, H. B. Schlegel, G. E. Scuseria, 
 M. A. Robb, J. R. Cheeseman, G. Scalmani, V. Barone, B. Mennucci, 
 G. A. Petersson, H. Nakatsuji, M. Caricato, X. Li, H. P. Hratchian, 
 A. F. Izmaylov, J. Bloino, G. Zheng, J. L. Sonnenberg, M. Hada, 
 M. Ehara, K. Toyota, R. Fukuda, J. Hasegawa, M. Ishida, T. Nakajima, 
 Y. Honda, O. Kitao, H. Nakai, T. Vreven, J. A. Montgomery, Jr., 
 J. E. Peralta, F. Ogliaro, M. Bearpark, J. J. Heyd, E. Brothers, 
 K. N. Kudin, V. N. Staroverov, T. Keith, R. Kobayashi, J. Normand, 
 K. Raghavachari, A. Rendell, J. C. Burant, S. S. Iyengar, J. Tomasi, 
 M. Cossi, N. Rega, J. M. Millam, M. Klene, J. E. Knox, J. B. Cross, 
 V. Bakken, C. Adamo, J. Jaramillo, R. Gomperts, R. E. Stratmann, 
 O. Yazyev, A. J. Austin, R. Cammi, C. Pomelli, J. W. Ochterski, 
 R. L. Martin, K. Morokuma, V. G. Zakrzewski, G. A. Voth, 
 P. Salvador, J. J. Dannenberg, S. Dapprich, A. D. Daniels, 
 O. Farkas, J. B. Foresman, J. V. Ortiz, J. Cioslowski, 
 and D. J. Fox, Gaussian, Inc., Wallingford CT, 2013.
 
 ******************************************
 Gaussian 09:  ES64L-G09RevE.01 30-Nov-2015
                 9-Sep-2022 
 ******************************************
 %nprocshared=20
 Will use up to   20 processors via shared memory.
 %mem=58339MB
 %chk=SR-13-ts-SR-14.chk
 ----------------------------------------------------------------------
 # opt=(calcfc,ts,noeigentest) freq ub3lyp/6-311g(d,p) geom=connectivit
 y temperature=823.15
 ----------------------------------------------------------------------
 1/5=1,10=4,11=1,14=-1,18=20,26=3,38=1,57=2,112=823150/1,3;
 2/9=110,12=2,17=6,18=5,40=1/2;
 3/5=4,6=6,7=101,11=2,16=1,25=1,30=1,71=2,74=-5,116=2,140=1/1,2,3;
 4//1;
 5/5=2,38=5/2;
 8/6=4,10=90,11=11/1;
 11/6=1,8=1,9=11,15=111,16=1/1,2,10;
 10/6=1,13=1/2;
 6/7=2,8=2,9=2,10=2,28=1/1;
 7/10=1,18=20,25=1/1,2,3,16;
 1/5=1,10=4,11=1,14=-1,18=20,26=3/3(2);
 2/9=110/2;
 99//99;
 2/9=110/2;
 3/5=4,6=6,7=101,11=2,16=1,25=1,30=1,71=1,74=-5,116=2/1,2,3;
 4/5=5,16=3,69=1/1;
 5/5=2,38=5/2;
 7//1,2,3,16;
 1/5=1,11=1,14=-1,18=20,26=3/3(-5);
 2/9=110/2;
 6/7=2,8=2,9=2,10=2,19=2,28=1/1;
 99/9=1/99;
 -------------------
 Title Card Required
 -------------------
 Symbolic Z-matrix:
 Charge =  0 Multiplicity = 2
 C                     1.52084   1.21903   0.20818 
 C                     0.23222   1.75749   0.16576 
 C                    -0.85534   0.93487  -0.06303 
 C                    -0.65555  -0.47512  -0.17647 
 C                     0.66915  -0.98212  -0.24791 
 C                     1.75395  -0.15213  -0.01983 
 H                     0.80145  -2.03771  -0.45645 
 O                    -1.76542  -1.24462  -0.58338 
 O                    -2.11474   1.43727  -0.16036 
 H                     0.06492   2.82208   0.27804 
 C                    -1.83853  -1.4622    0.80369 
 H                    -1.47973  -2.41986   1.16042 
 H                    -2.6675    0.73746  -0.53788 
 H                    -2.59571  -0.90953   1.34776 
 H                     2.74957  -0.54409  -0.01675 
 C                     2.71625   2.15752   0.4568 
 H                     2.96256   2.66929  -0.45002 
 H                     2.45825   2.87172   1.21063 
 H                     3.55853   1.58363   0.78255 
 

 GradGradGradGradGradGradGradGradGradGradGradGradGradGradGradGradGradGrad
 Berny optimization.
 Initialization pass.
                           ----------------------------
                           !    Initial Parameters    !
                           ! (Angstroms and Degrees)  !
 --------------------------                            --------------------------
 ! Name  Definition              Value          Derivative Info.                !
 --------------------------------------------------------------------------------
 ! R1    R(1,2)                  1.3972         calculate D2E/DX2 analytically  !
 ! R2    R(1,6)                  1.4094         calculate D2E/DX2 analytically  !
 ! R3    R(1,16)                 1.54           calculate D2E/DX2 analytically  !
 ! R4    R(2,3)                  1.3827         calculate D2E/DX2 analytically  !
 ! R5    R(2,10)                 1.0835         calculate D2E/DX2 analytically  !
 ! R6    R(3,4)                  1.4286         calculate D2E/DX2 analytically  !
 ! R7    R(3,9)                  1.3594         calculate D2E/DX2 analytically  !
 ! R8    R(4,5)                  1.4202         calculate D2E/DX2 analytically  !
 ! R9    R(4,8)                  1.4105         calculate D2E/DX2 analytically  !
 ! R10   R(5,6)                  1.3848         calculate D2E/DX2 analytically  !
 ! R11   R(5,7)                  1.0841         calculate D2E/DX2 analytically  !
 ! R12   R(6,15)                 1.07           calculate D2E/DX2 analytically  !
 ! R13   R(8,11)                 1.4059         calculate D2E/DX2 analytically  !
 ! R14   R(9,13)                 0.9684         calculate D2E/DX2 analytically  !
 ! R15   R(11,12)                1.0831         calculate D2E/DX2 analytically  !
 ! R16   R(11,14)                1.0839         calculate D2E/DX2 analytically  !
 ! R17   R(16,17)                1.07           calculate D2E/DX2 analytically  !
 ! R18   R(16,18)                1.07           calculate D2E/DX2 analytically  !
 ! R19   R(16,19)                1.07           calculate D2E/DX2 analytically  !
 ! A1    A(2,1,6)              121.5032         calculate D2E/DX2 analytically  !
 ! A2    A(2,1,16)             119.0749         calculate D2E/DX2 analytically  !
 ! A3    A(6,1,16)             119.3802         calculate D2E/DX2 analytically  !
 ! A4    A(1,2,3)              120.0768         calculate D2E/DX2 analytically  !
 ! A5    A(1,2,10)             121.192          calculate D2E/DX2 analytically  !
 ! A6    A(3,2,10)             118.7023         calculate D2E/DX2 analytically  !
 ! A7    A(2,3,4)              119.3626         calculate D2E/DX2 analytically  !
 ! A8    A(2,3,9)              121.3772         calculate D2E/DX2 analytically  !
 ! A9    A(4,3,9)              119.2511         calculate D2E/DX2 analytically  !
 ! A10   A(3,4,5)              119.1294         calculate D2E/DX2 analytically  !
 ! A11   A(3,4,8)              116.8281         calculate D2E/DX2 analytically  !
 ! A12   A(5,4,8)              121.6467         calculate D2E/DX2 analytically  !
 ! A13   A(4,5,6)              120.5595         calculate D2E/DX2 analytically  !
 ! A14   A(4,5,7)              118.1065         calculate D2E/DX2 analytically  !
 ! A15   A(6,5,7)              121.3104         calculate D2E/DX2 analytically  !
 ! A16   A(1,6,5)              118.6963         calculate D2E/DX2 analytically  !
 ! A17   A(1,6,15)             120.6519         calculate D2E/DX2 analytically  !
 ! A18   A(5,6,15)             120.6519         calculate D2E/DX2 analytically  !
 ! A19   A(4,8,11)              80.8358         calculate D2E/DX2 analytically  !
 ! A20   A(3,9,13)             106.8368         calculate D2E/DX2 analytically  !
 ! A21   A(8,11,12)            116.3954         calculate D2E/DX2 analytically  !
 ! A22   A(8,11,14)            116.9136         calculate D2E/DX2 analytically  !
 ! A23   A(12,11,14)           121.1268         calculate D2E/DX2 analytically  !
 ! A24   A(1,16,17)            109.4712         calculate D2E/DX2 analytically  !
 ! A25   A(1,16,18)            109.4712         calculate D2E/DX2 analytically  !
 ! A26   A(1,16,19)            109.4712         calculate D2E/DX2 analytically  !
 ! A27   A(17,16,18)           109.4713         calculate D2E/DX2 analytically  !
 ! A28   A(17,16,19)           109.4712         calculate D2E/DX2 analytically  !
 ! A29   A(18,16,19)           109.4712         calculate D2E/DX2 analytically  !
 ! D1    D(6,1,2,3)              2.0277         calculate D2E/DX2 analytically  !
 ! D2    D(6,1,2,10)          -175.993          calculate D2E/DX2 analytically  !
 ! D3    D(16,1,2,3)           179.6635         calculate D2E/DX2 analytically  !
 ! D4    D(16,1,2,10)            1.6427         calculate D2E/DX2 analytically  !
 ! D5    D(2,1,6,5)             -2.0788         calculate D2E/DX2 analytically  !
 ! D6    D(2,1,6,15)           177.9212         calculate D2E/DX2 analytically  !
 ! D7    D(16,1,6,5)          -179.7075         calculate D2E/DX2 analytically  !
 ! D8    D(16,1,6,15)            0.2925         calculate D2E/DX2 analytically  !
 ! D9    D(2,1,16,17)          -78.8225         calculate D2E/DX2 analytically  !
 ! D10   D(2,1,16,18)           41.1776         calculate D2E/DX2 analytically  !
 ! D11   D(2,1,16,19)          161.1776         calculate D2E/DX2 analytically  !
 ! D12   D(6,1,16,17)           98.8643         calculate D2E/DX2 analytically  !
 ! D13   D(6,1,16,18)         -141.1357         calculate D2E/DX2 analytically  !
 ! D14   D(6,1,16,19)          -21.1357         calculate D2E/DX2 analytically  !
 ! D15   D(1,2,3,4)              3.6459         calculate D2E/DX2 analytically  !
 ! D16   D(1,2,3,9)           -177.4594         calculate D2E/DX2 analytically  !
 ! D17   D(10,2,3,4)          -178.2843         calculate D2E/DX2 analytically  !
 ! D18   D(10,2,3,9)             0.6103         calculate D2E/DX2 analytically  !
 ! D19   D(2,3,4,5)             -9.1402         calculate D2E/DX2 analytically  !
 ! D20   D(2,3,4,8)           -171.8742         calculate D2E/DX2 analytically  !
 ! D21   D(9,3,4,5)            171.9413         calculate D2E/DX2 analytically  !
 ! D22   D(9,3,4,8)              9.2074         calculate D2E/DX2 analytically  !
 ! D23   D(2,3,9,13)           165.9129         calculate D2E/DX2 analytically  !
 ! D24   D(4,3,9,13)           -15.1912         calculate D2E/DX2 analytically  !
 ! D25   D(3,4,5,6)              9.1726         calculate D2E/DX2 analytically  !
 ! D26   D(3,4,5,7)           -172.5717         calculate D2E/DX2 analytically  !
 ! D27   D(8,4,5,6)            171.0455         calculate D2E/DX2 analytically  !
 ! D28   D(8,4,5,7)            -10.6988         calculate D2E/DX2 analytically  !
 ! D29   D(3,4,8,11)           -99.0789         calculate D2E/DX2 analytically  !
 ! D30   D(5,4,8,11)            98.6526         calculate D2E/DX2 analytically  !
 ! D31   D(4,5,6,1)             -3.5957         calculate D2E/DX2 analytically  !
 ! D32   D(4,5,6,15)           176.4043         calculate D2E/DX2 analytically  !
 ! D33   D(7,5,6,1)            178.2052         calculate D2E/DX2 analytically  !
 ! D34   D(7,5,6,15)            -1.7948         calculate D2E/DX2 analytically  !
 ! D35   D(4,8,11,12)         -102.9045         calculate D2E/DX2 analytically  !
 ! D36   D(4,8,11,14)          103.0512         calculate D2E/DX2 analytically  !
 ! D37   D(8,11,12,14)        -152.8765         calculate D2E/DX2 analytically  !
 --------------------------------------------------------------------------------
 Trust Radius=3.00D-01 FncErr=1.00D-07 GrdErr=1.00D-06
 Number of steps in this run=     95 maximum allowed number of steps=    114.
 Search for a saddle point of order  1.
 GradGradGradGradGradGradGradGradGradGradGradGradGradGradGradGradGradGrad

                          Input orientation:                          
 ---------------------------------------------------------------------
 Center     Atomic      Atomic             Coordinates (Angstroms)
 Number     Number       Type             X           Y           Z
 ---------------------------------------------------------------------
      1          6           0        1.520836    1.219032    0.208178
      2          6           0        0.232217    1.757488    0.165755
      3          6           0       -0.855341    0.934874   -0.063030
      4          6           0       -0.655553   -0.475116   -0.176473
      5          6           0        0.669148   -0.982117   -0.247905
      6          6           0        1.753951   -0.152129   -0.019825
      7          1           0        0.801451   -2.037709   -0.456445
      8          8           0       -1.765419   -1.244615   -0.583378
      9          8           0       -2.114744    1.437270   -0.160361
     10          1           0        0.064917    2.822084    0.278038
     11          6           0       -1.838525   -1.462202    0.803685
     12          1           0       -1.479728   -2.419859    1.160424
     13          1           0       -2.667501    0.737457   -0.537883
     14          1           0       -2.595708   -0.909528    1.347760
     15          1           0        2.749569   -0.544093   -0.016752
     16          6           0        2.716252    2.157523    0.456804
     17          1           0        2.962561    2.669286   -0.450020
     18          1           0        2.458246    2.871723    1.210628
     19          1           0        3.558531    1.583628    0.782552
 ---------------------------------------------------------------------
                    Distance matrix (angstroms):
                    1          2          3          4          5
     1  C    0.000000
     2  C    1.397238   0.000000
     3  C    2.408426   1.382685   0.000000
     4  C    2.784737   2.426886   1.428585   0.000000
     5  C    2.403839   2.804899   2.456237   1.420206   0.000000
     6  C    1.409401   2.448827   2.826985   2.436097   1.384810
     7  H    3.400823   3.887760   3.425782   2.154749   1.084098
     8  O    4.182773   3.682984   2.418507   1.410497   2.471551
     9  O    3.660723   2.391049   1.359401   2.405560   3.689329
    10  H    2.166646   1.083495   2.127149   3.405464   3.887629
    11  C    4.339234   3.880893   2.731999   1.826053   2.761294
    12  H    4.811620   4.622808   3.625042   2.499717   2.944174
    13  H    4.281435   3.153400   1.883715   2.376738   3.764870
    14  H    4.772353   4.062914   2.901900   2.505235   3.634653
    15  H    2.160784   3.415793   3.896776   3.409563   2.138562
    16  C    1.540000   2.532818   3.810692   4.324453   3.813737
    17  H    2.148263   2.943694   4.211214   4.801337   4.316635
    18  H    2.148263   2.699719   4.043940   4.777146   4.492246
    19  H    2.148263   3.387481   4.540721   4.787134   3.999177
                    6          7          8          9         10
     6  C    0.000000
     7  H    2.157152   0.000000
     8  O    3.727879   2.689597   0.000000
     9  O    4.184823   4.546134   2.737422   0.000000
    10  H    3.433293   4.969863   4.542049   2.619318   0.000000
    11  C    3.911565   2.981377   1.405928   3.067999   4.717468
    12  H    4.122168   2.822070   2.122184   4.126156   5.535567
    13  H    4.539712   4.443175   2.178172   0.968401   3.532351
    14  H    4.622064   4.008570   2.128604   2.830762   4.706183
    15  H    1.070000   2.493869   4.604010   5.254328   4.315716
    16  C    2.547095   4.701113   5.722054   4.923229   2.739193
    17  H    3.099385   5.179405   6.139234   5.232666   2.991614
    18  H    3.339720   5.443035   6.164580   4.984928   2.569088
    19  H    2.629290   4.717063   6.181356   5.752960   3.740808
                   11         12         13         14         15
    11  C    0.000000
    12  H    1.083100   0.000000
    13  H    2.706567   3.776731   0.000000
    14  H    1.083878   1.887222   2.504668   0.000000
    15  H    4.750436   4.774012   5.590938   5.528781   0.000000
    16  C    5.828270   6.249300   5.656040   6.198187   2.743009
    17  H    6.456887   6.944556   5.952922   6.850860   3.249445
    18  H    6.116433   6.596287   5.821139   6.313408   3.641309
    19  H    6.197236   6.446297   6.420516   6.664078   2.412572
                   16         17         18         19
    16  C    0.000000
    17  H    1.070000   0.000000
    18  H    1.070000   1.747303   0.000000
    19  H    1.070000   1.747303   1.747303   0.000000
 Stoichiometry    C8H9O2(2)
 Framework group  C1[X(C8H9O2)]
 Deg. of freedom    51
 Full point group                 C1      NOp   1
 Largest Abelian subgroup         C1      NOp   1
 Largest concise Abelian subgroup C1      NOp   1
                         Standard orientation:                         
 ---------------------------------------------------------------------
 Center     Atomic      Atomic             Coordinates (Angstroms)
 Number     Number       Type             X           Y           Z
 ---------------------------------------------------------------------
      1          6           0        1.812178   -0.037871    0.050027
      2          6           0        0.975492    1.081155    0.053390
      3          6           0       -0.389986    0.925885   -0.098863
      4          6           0       -0.940623   -0.389806   -0.180175
      5          6           0       -0.063334   -1.500222   -0.299863
      6          6           0        1.303480   -1.337203   -0.148399
      7          1           0       -0.497350   -2.476562   -0.483328
      8          8           0       -2.308298   -0.488184   -0.510764
      9          8           0       -1.222949    1.998947   -0.150656
     10          1           0        1.378595    2.082949    0.142157
     11          6           0       -2.403816   -0.636891    0.884010
     12          1           0       -2.561681   -1.643536    1.251229
     13          1           0       -2.074677    1.677213   -0.480577
     14          1           0       -2.743534    0.224660    1.447138
     15          1           0        1.960475   -2.181105   -0.181363
     16          6           0        3.330331    0.162322    0.213527
     17          1           0        3.751072    0.476699   -0.718699
     18          1           0        3.513517    0.909243    0.957470
     19          1           0        3.781226   -0.759883    0.515409
 ---------------------------------------------------------------------
 Rotational constants (GHZ):      2.6277435      1.0466451      0.8012648
 Standard basis: 6-311G(d,p) (5D, 7F)
 There are   244 symmetry adapted cartesian basis functions of A   symmetry.
 There are   234 symmetry adapted basis functions of A   symmetry.
   234 basis functions,   392 primitive gaussians,   244 cartesian basis functions
    37 alpha electrons       36 beta electrons
       nuclear repulsion energy       512.6900062683 Hartrees.
 NAtoms=   19 NActive=   19 NUniq=   19 SFac= 1.00D+00 NAtFMM=   60 NAOKFM=F Big=F
 Integral buffers will be    131072 words long.
 Raffenetti 2 integral format.
 Two-electron integral symmetry is turned on.
 One-electron integrals computed using PRISM.
 NBasis=   234 RedAO= T EigKep=  2.06D-04  NBF=   234
 NBsUse=   234 1.00D-06 EigRej= -1.00D+00 NBFU=   234
 ExpMin= 1.03D-01 ExpMax= 8.59D+03 ExpMxC= 1.30D+03 IAcc=1 IRadAn=         1 AccDes= 0.00D+00
 Harris functional with IExCor=  402 and IRadAn=       1 diagonalized for initial guess.
 HarFok:  IExCor=  402 AccDes= 0.00D+00 IRadAn=         1 IDoV= 1 UseB2=F ITyADJ=14
 ICtDFT=  3500011 ScaDFX=  1.000000  1.000000  1.000000  1.000000
 FoFCou: FMM=F IPFlag=           0 FMFlag=      100000 FMFlg1=           0
         NFxFlg=           0 DoJE=T BraDBF=F KetDBF=T FulRan=T
         wScrn=  0.000000 ICntrl=     500 IOpCl=  0 I1Cent=   200000004 NGrid=           0
         NMat0=    1 NMatS0=      1 NMatT0=    0 NMatD0=    1 NMtDS0=    0 NMtDT0=    0
 Petite list used in FoFCou.
 Initial guess <Sx>= 0.0000 <Sy>= 0.0000 <Sz>= 0.5000 <S**2>= 0.7500 S= 0.5000
 Keep R1 and R2 ints in memory in canonical form, NReq=763559320.
 Requested convergence on RMS density matrix=1.00D-08 within 128 cycles.
 Requested convergence on MAX density matrix=1.00D-06.
 Requested convergence on             energy=1.00D-06.
 No special actions if energy rises.
 Integral accuracy reduced to 1.0D-05 until final iterations.
 Initial convergence to 1.0D-05 achieved.  Increase integral accuracy.
 SCF Done:  E(UB3LYP) =  -460.733286770     A.U. after   19 cycles
            NFock= 19  Conv=0.77D-08     -V/T= 2.0036
 <Sx>= 0.0000 <Sy>= 0.0000 <Sz>= 0.5000 <S**2>= 0.7801 S= 0.5149
 <L.S>= 0.000000000000E+00
 Annihilation of the first spin contaminant:
 S**2 before annihilation     0.7801,   after     0.7506
 DoSCS=F DFT=T ScalE2(SS,OS)=  1.000000  1.000000
 Range of M.O.s used for correlation:     1   234
 NBasis=   234 NAE=    37 NBE=    36 NFC=     0 NFV=     0
 NROrb=    234 NOA=    37 NOB=    36 NVA=   197 NVB=   198

 **** Warning!!: The largest alpha MO coefficient is  0.13159396D+02


 **** Warning!!: The largest beta MO coefficient is  0.12911825D+02

 Symmetrizing basis deriv contribution to polar:
 IMax=3 JMax=2 DiffMx= 0.00D+00
 G2DrvN: will do    20 centers at a time, making    1 passes.
 Calling FoFCou, ICntrl=  3107 FMM=F I1Cent=   0 AccDes= 0.00D+00.
 End of G2Drv F.D. properties file   721 does not exist.
 End of G2Drv F.D. properties file   722 does not exist.
 End of G2Drv F.D. properties file   788 does not exist.
          IDoAtm=1111111111111111111
          Differentiating once with respect to nuclear coordinates.
 Keep R1 and R2 ints in memory in canonical form, NReq=763362241.
          There are    60 degrees of freedom in the 1st order CPHF.  IDoFFX=6 NUNeed=     0.
     54 vectors produced by pass  0 Test12= 2.40D-14 1.67D-09 XBig12= 3.89D-01 2.46D-01.
 AX will form    54 AO Fock derivatives at one time.
     54 vectors produced by pass  1 Test12= 2.40D-14 1.67D-09 XBig12= 9.03D-02 7.90D-02.
     54 vectors produced by pass  2 Test12= 2.40D-14 1.67D-09 XBig12= 1.39D-03 9.81D-03.
     54 vectors produced by pass  3 Test12= 2.40D-14 1.67D-09 XBig12= 1.46D-05 7.17D-04.
     54 vectors produced by pass  4 Test12= 2.40D-14 1.67D-09 XBig12= 9.60D-08 3.41D-05.
     54 vectors produced by pass  5 Test12= 2.40D-14 1.67D-09 XBig12= 5.09D-10 2.17D-06.
     44 vectors produced by pass  6 Test12= 2.40D-14 1.67D-09 XBig12= 3.35D-12 1.43D-07.
     12 vectors produced by pass  7 Test12= 2.40D-14 1.67D-09 XBig12= 1.44D-14 9.50D-09.
 InvSVY:  IOpt=1 It=  1 EMax= 6.66D-16
 Solved reduced A of dimension   380 with    60 vectors.
 End of Minotr F.D. properties file   721 does not exist.
 End of Minotr F.D. properties file   722 does not exist.
 End of Minotr F.D. properties file   788 does not exist.

 **********************************************************************

            Population analysis using the SCF density.

 **********************************************************************

 Orbital symmetries:
 Alpha Orbitals:
       Occupied  (A) (A) (A) (A) (A) (A) (A) (A) (A) (A) (A) (A)
                 (A) (A) (A) (A) (A) (A) (A) (A) (A) (A) (A) (A)
                 (A) (A) (A) (A) (A) (A) (A) (A) (A) (A) (A) (A)
                 (A)
       Virtual   (A) (A) (A) (A) (A) (A) (A) (A) (A) (A) (A) (A)
                 (A) (A) (A) (A) (A) (A) (A) (A) (A) (A) (A) (A)
                 (A) (A) (A) (A) (A) (A) (A) (A) (A) (A) (A) (A)
                 (A) (A) (A) (A) (A) (A) (A) (A) (A) (A) (A) (A)
                 (A) (A) (A) (A) (A) (A) (A) (A) (A) (A) (A) (A)
                 (A) (A) (A) (A) (A) (A) (A) (A) (A) (A) (A) (A)
                 (A) (A) (A) (A) (A) (A) (A) (A) (A) (A) (A) (A)
                 (A) (A) (A) (A) (A) (A) (A) (A) (A) (A) (A) (A)
                 (A) (A) (A) (A) (A) (A) (A) (A) (A) (A) (A) (A)
                 (A) (A) (A) (A) (A) (A) (A) (A) (A) (A) (A) (A)
                 (A) (A) (A) (A) (A) (A) (A) (A) (A) (A) (A) (A)
                 (A) (A) (A) (A) (A) (A) (A) (A) (A) (A) (A) (A)
                 (A) (A) (A) (A) (A) (A) (A) (A) (A) (A) (A) (A)
                 (A) (A) (A) (A) (A) (A) (A) (A) (A) (A) (A) (A)
                 (A) (A) (A) (A) (A) (A) (A) (A) (A) (A) (A) (A)
                 (A) (A) (A) (A) (A) (A) (A) (A) (A) (A) (A) (A)
                 (A) (A) (A) (A) (A)
 Beta  Orbitals:
       Occupied  (A) (A) (A) (A) (A) (A) (A) (A) (A) (A) (A) (A)
                 (A) (A) (A) (A) (A) (A) (A) (A) (A) (A) (A) (A)
                 (A) (A) (A) (A) (A) (A) (A) (A) (A) (A) (A) (A)
       Virtual   (A) (A) (A) (A) (A) (A) (A) (A) (A) (A) (A) (A)
                 (A) (A) (A) (A) (A) (A) (A) (A) (A) (A) (A) (A)
                 (A) (A) (A) (A) (A) (A) (A) (A) (A) (A) (A) (A)
                 (A) (A) (A) (A) (A) (A) (A) (A) (A) (A) (A) (A)
                 (A) (A) (A) (A) (A) (A) (A) (A) (A) (A) (A) (A)
                 (A) (A) (A) (A) (A) (A) (A) (A) (A) (A) (A) (A)
                 (A) (A) (A) (A) (A) (A) (A) (A) (A) (A) (A) (A)
                 (A) (A) (A) (A) (A) (A) (A) (A) (A) (A) (A) (A)
                 (A) (A) (A) (A) (A) (A) (A) (A) (A) (A) (A) (A)
                 (A) (A) (A) (A) (A) (A) (A) (A) (A) (A) (A) (A)
                 (A) (A) (A) (A) (A) (A) (A) (A) (A) (A) (A) (A)
                 (A) (A) (A) (A) (A) (A) (A) (A) (A) (A) (A) (A)
                 (A) (A) (A) (A) (A) (A) (A) (A) (A) (A) (A) (A)
                 (A) (A) (A) (A) (A) (A) (A) (A) (A) (A) (A) (A)
                 (A) (A) (A) (A) (A) (A) (A) (A) (A) (A) (A) (A)
                 (A) (A) (A) (A) (A) (A) (A) (A) (A) (A) (A) (A)
                 (A) (A) (A) (A) (A) (A)
 The electronic state is 2-A.
 Alpha  occ. eigenvalues --  -19.16085 -19.15481 -10.24956 -10.24093 -10.23399
 Alpha  occ. eigenvalues --  -10.18694 -10.18078 -10.17114 -10.16954 -10.16252
 Alpha  occ. eigenvalues --   -1.10231  -1.06572  -0.85917  -0.76950  -0.75371
 Alpha  occ. eigenvalues --   -0.68948  -0.66849  -0.62197  -0.61399  -0.54480
 Alpha  occ. eigenvalues --   -0.51823  -0.49834  -0.47972  -0.46071  -0.45181
 Alpha  occ. eigenvalues --   -0.43568  -0.43177  -0.41609  -0.40509  -0.38381
 Alpha  occ. eigenvalues --   -0.37306  -0.35043  -0.34138  -0.30329  -0.27881
 Alpha  occ. eigenvalues --   -0.24652  -0.16720
 Alpha virt. eigenvalues --   -0.00917   0.01375   0.04402   0.04855   0.06217
 Alpha virt. eigenvalues --    0.08021   0.09249   0.10252   0.11312   0.12611
 Alpha virt. eigenvalues --    0.14479   0.14682   0.16969   0.18021   0.20769
 Alpha virt. eigenvalues --    0.23072   0.25456   0.27947   0.29029   0.30802
 Alpha virt. eigenvalues --    0.32154   0.32903   0.34925   0.36030   0.37162
 Alpha virt. eigenvalues --    0.38879   0.39081   0.40308   0.41097   0.43950
 Alpha virt. eigenvalues --    0.44964   0.45567   0.46594   0.47469   0.48852
 Alpha virt. eigenvalues --    0.49252   0.51344   0.54260   0.55534   0.55727
 Alpha virt. eigenvalues --    0.57048   0.58424   0.58784   0.61192   0.61369
 Alpha virt. eigenvalues --    0.62167   0.62338   0.62672   0.65210   0.66593
 Alpha virt. eigenvalues --    0.68782   0.73581   0.76310   0.76815   0.77829
 Alpha virt. eigenvalues --    0.78283   0.80352   0.81457   0.87173   0.87836
 Alpha virt. eigenvalues --    0.88969   0.91233   0.93203   0.96238   0.97559
 Alpha virt. eigenvalues --    0.99699   1.02317   1.03888   1.05533   1.06831
 Alpha virt. eigenvalues --    1.10885   1.12989   1.16343   1.17828   1.20872
 Alpha virt. eigenvalues --    1.24678   1.32268   1.34023   1.35035   1.38186
 Alpha virt. eigenvalues --    1.42868   1.44709   1.45779   1.46464   1.46560
 Alpha virt. eigenvalues --    1.48687   1.49305   1.50346   1.53577   1.54935
 Alpha virt. eigenvalues --    1.55385   1.57493   1.58592   1.60118   1.61324
 Alpha virt. eigenvalues --    1.63069   1.64449   1.64762   1.68706   1.69574
 Alpha virt. eigenvalues --    1.71025   1.75347   1.77779   1.78763   1.81050
 Alpha virt. eigenvalues --    1.84285   1.86809   1.88124   1.91063   1.92314
 Alpha virt. eigenvalues --    1.94272   1.95683   1.96608   1.98531   1.99685
 Alpha virt. eigenvalues --    2.01438   2.03392   2.07866   2.08026   2.11990
 Alpha virt. eigenvalues --    2.15564   2.16414   2.23705   2.24248   2.30436
 Alpha virt. eigenvalues --    2.34378   2.36574   2.39257   2.40967   2.44900
 Alpha virt. eigenvalues --    2.47657   2.49572   2.50667   2.52730   2.53530
 Alpha virt. eigenvalues --    2.55372   2.57388   2.59028   2.60115   2.63963
 Alpha virt. eigenvalues --    2.65004   2.65622   2.67904   2.68159   2.70809
 Alpha virt. eigenvalues --    2.72750   2.75745   2.81098   2.84919   2.85611
 Alpha virt. eigenvalues --    2.87165   2.88248   2.90652   3.00278   3.04903
 Alpha virt. eigenvalues --    3.08681   3.10992   3.14030   3.16221   3.18454
 Alpha virt. eigenvalues --    3.23196   3.25394   3.29974   3.32790   3.38687
 Alpha virt. eigenvalues --    3.41585   3.50205   3.57670   3.59315   3.60493
 Alpha virt. eigenvalues --    3.70118   3.80549   3.82921   3.84366   3.86220
 Alpha virt. eigenvalues --    3.99705   4.09841   4.11338   4.25556   4.29683
 Alpha virt. eigenvalues --    4.79194   4.83214   4.95398   5.31647   5.39543
 Alpha virt. eigenvalues --    5.59571   5.70217  23.47260  23.74229  23.86242
 Alpha virt. eigenvalues --   23.88158  23.95634  24.01083  24.10488  24.16269
 Alpha virt. eigenvalues --   49.88082  49.92189
  Beta  occ. eigenvalues --  -19.15931 -19.15369 -10.25169 -10.23774 -10.22353
  Beta  occ. eigenvalues --  -10.18316 -10.17726 -10.17263 -10.17104 -10.16272
  Beta  occ. eigenvalues --   -1.09772  -1.06252  -0.85550  -0.76533  -0.75088
  Beta  occ. eigenvalues --   -0.68785  -0.64945  -0.61943  -0.61108  -0.53962
  Beta  occ. eigenvalues --   -0.51411  -0.49470  -0.47438  -0.45585  -0.44858
  Beta  occ. eigenvalues --   -0.43230  -0.42733  -0.41275  -0.40002  -0.38218
  Beta  occ. eigenvalues --   -0.37179  -0.34729  -0.33351  -0.30102  -0.25877
  Beta  occ. eigenvalues --   -0.23789
  Beta virt. eigenvalues --   -0.07535   0.00173   0.03141   0.04591   0.04928
  Beta virt. eigenvalues --    0.06410   0.08368   0.09285   0.10465   0.11598
  Beta virt. eigenvalues --    0.12777   0.14525   0.15040   0.17465   0.18456
  Beta virt. eigenvalues --    0.21192   0.23447   0.25598   0.28250   0.29230
  Beta virt. eigenvalues --    0.31167   0.32669   0.33326   0.34983   0.36936
  Beta virt. eigenvalues --    0.37592   0.39303   0.39702   0.41064   0.41712
  Beta virt. eigenvalues --    0.44086   0.45667   0.45925   0.46838   0.47851
  Beta virt. eigenvalues --    0.49141   0.49391   0.51481   0.54719   0.56139
  Beta virt. eigenvalues --    0.56329   0.57329   0.58786   0.59189   0.61342
  Beta virt. eigenvalues --    0.61761   0.62295   0.62405   0.62962   0.65514
  Beta virt. eigenvalues --    0.66953   0.69231   0.74058   0.76581   0.77133
  Beta virt. eigenvalues --    0.78088   0.78685   0.80716   0.81615   0.87366
  Beta virt. eigenvalues --    0.87957   0.89160   0.91397   0.93362   0.96414
  Beta virt. eigenvalues --    0.97846   0.99997   1.02673   1.04138   1.06046
  Beta virt. eigenvalues --    1.07319   1.11087   1.13253   1.17274   1.18244
  Beta virt. eigenvalues --    1.21375   1.25369   1.32461   1.34198   1.35363
  Beta virt. eigenvalues --    1.38470   1.42976   1.45329   1.46616   1.46666
  Beta virt. eigenvalues --    1.46858   1.49061   1.49638   1.50635   1.54186
  Beta virt. eigenvalues --    1.55297   1.56135   1.57842   1.58809   1.60517
  Beta virt. eigenvalues --    1.61843   1.63401   1.64949   1.65213   1.68917
  Beta virt. eigenvalues --    1.69892   1.71095   1.75790   1.77977   1.79024
  Beta virt. eigenvalues --    1.81240   1.84911   1.87276   1.88509   1.91296
  Beta virt. eigenvalues --    1.92773   1.94665   1.95930   1.97682   1.99016
  Beta virt. eigenvalues --    2.00733   2.01907   2.03641   2.08079   2.08396
  Beta virt. eigenvalues --    2.12167   2.15789   2.16887   2.23731   2.24594
  Beta virt. eigenvalues --    2.30639   2.34500   2.36871   2.39437   2.41176
  Beta virt. eigenvalues --    2.45073   2.47860   2.49809   2.50842   2.53033
  Beta virt. eigenvalues --    2.53842   2.55597   2.57545   2.59385   2.60266
  Beta virt. eigenvalues --    2.64107   2.65086   2.66071   2.68300   2.68465
  Beta virt. eigenvalues --    2.71580   2.74031   2.76245   2.81211   2.85111
  Beta virt. eigenvalues --    2.86447   2.87445   2.88743   2.91261   3.00549
  Beta virt. eigenvalues --    3.05541   3.09035   3.11324   3.14211   3.16699
  Beta virt. eigenvalues --    3.19191   3.23459   3.25678   3.30524   3.33027
  Beta virt. eigenvalues --    3.38956   3.41727   3.50365   3.57998   3.59491
  Beta virt. eigenvalues --    3.60542   3.71420   3.80804   3.83171   3.84506
  Beta virt. eigenvalues --    3.86253   3.99838   4.10005   4.11531   4.26009
  Beta virt. eigenvalues --    4.30085   4.79508   4.83689   4.95535   5.31872
  Beta virt. eigenvalues --    5.39964   5.59934   5.70420  23.47387  23.75125
  Beta virt. eigenvalues --   23.86467  23.88424  23.95660  24.01234  24.10520
  Beta virt. eigenvalues --   24.16332  49.88217  49.92317
          Condensed to atoms (all electrons):
               1          2          3          4          5          6
     1  C    5.109367   0.509910  -0.052805  -0.051045  -0.051564   0.506512
     2  C    0.509910   4.871245   0.511459  -0.057709  -0.041572  -0.051059
     3  C   -0.052805   0.511459   4.832202   0.289348   0.031377  -0.044594
     4  C   -0.051045  -0.057709   0.289348   5.463821   0.383368  -0.039585
     5  C   -0.051564  -0.041572   0.031377   0.383368   4.932661   0.472435
     6  C    0.506512  -0.051059  -0.044594  -0.039585   0.472435   4.879386
     7  H    0.008980  -0.000872   0.006302  -0.051830   0.415783  -0.035565
     8  O   -0.000250   0.006477  -0.052124   0.188620  -0.036293   0.006606
     9  O    0.003880  -0.049625   0.380712  -0.089970   0.004841  -0.000276
    10  H   -0.048990   0.398496  -0.032101   0.014267  -0.001739   0.007019
    11  C    0.001067  -0.004902  -0.052351  -0.016195  -0.036960  -0.002782
    12  H   -0.000038   0.000270   0.001155   0.000582   0.002638  -0.001121
    13  H   -0.000172   0.007385  -0.047520  -0.020208   0.001701  -0.000409
    14  H   -0.000118  -0.001592  -0.001174  -0.003424   0.001971   0.000579
    15  H   -0.048626   0.006735  -0.000679   0.009378  -0.032292   0.414807
    16  C    0.354593  -0.055797   0.006209   0.000016   0.006521  -0.056151
    17  H   -0.037855  -0.002063  -0.000430   0.000163  -0.000394  -0.000809
    18  H   -0.038273  -0.006472   0.000961  -0.000165  -0.000198   0.003959
    19  H   -0.036353   0.006249  -0.000389   0.000003   0.000591  -0.007388
               7          8          9         10         11         12
     1  C    0.008980  -0.000250   0.003880  -0.048990   0.001067  -0.000038
     2  C   -0.000872   0.006477  -0.049625   0.398496  -0.004902   0.000270
     3  C    0.006302  -0.052124   0.380712  -0.032101  -0.052351   0.001155
     4  C   -0.051830   0.188620  -0.089970   0.014267  -0.016195   0.000582
     5  C    0.415783  -0.036293   0.004841  -0.001739  -0.036960   0.002638
     6  C   -0.035565   0.006606  -0.000276   0.007019  -0.002782  -0.001121
     7  H    0.573557   0.000449  -0.000082   0.000094   0.002310  -0.001420
     8  O    0.000449   8.048441  -0.009542  -0.000194   0.207027  -0.029888
     9  O   -0.000082  -0.009542   7.775035   0.004235   0.007038   0.000156
    10  H    0.000094  -0.000194   0.004235   0.571354  -0.000003  -0.000012
    11  C    0.002310   0.207027   0.007038  -0.000003   5.238914   0.390114
    12  H   -0.001420  -0.029888   0.000156  -0.000012   0.390114   0.549413
    13  H   -0.000038   0.031461   0.323867  -0.000885  -0.004317   0.000976
    14  H    0.000286  -0.035140   0.008133   0.000031   0.389590  -0.041087
    15  H   -0.008643  -0.000127   0.000010  -0.000293  -0.000039   0.000029
    16  C   -0.000347   0.000000  -0.000081  -0.007838  -0.000004   0.000000
    17  H    0.000022  -0.000000  -0.000003   0.000940   0.000008  -0.000000
    18  H    0.000019  -0.000000  -0.000005   0.000994  -0.000015   0.000001
    19  H   -0.000013   0.000000   0.000002   0.000216  -0.000004   0.000000
              13         14         15         16         17         18
     1  C   -0.000172  -0.000118  -0.048626   0.354593  -0.037855  -0.038273
     2  C    0.007385  -0.001592   0.006735  -0.055797  -0.002063  -0.006472
     3  C   -0.047520  -0.001174  -0.000679   0.006209  -0.000430   0.000961
     4  C   -0.020208  -0.003424   0.009378   0.000016   0.000163  -0.000165
     5  C    0.001701   0.001971  -0.032292   0.006521  -0.000394  -0.000198
     6  C   -0.000409   0.000579   0.414807  -0.056151  -0.000809   0.003959
     7  H   -0.000038   0.000286  -0.008643  -0.000347   0.000022   0.000019
     8  O    0.031461  -0.035140  -0.000127   0.000000  -0.000000  -0.000000
     9  O    0.323867   0.008133   0.000010  -0.000081  -0.000003  -0.000005
    10  H   -0.000885   0.000031  -0.000293  -0.007838   0.000940   0.000994
    11  C   -0.004317   0.389590  -0.000039  -0.000004   0.000008  -0.000015
    12  H    0.000976  -0.041087   0.000029   0.000000  -0.000000   0.000001
    13  H    0.460077  -0.005889   0.000003   0.000024  -0.000002   0.000004
    14  H   -0.005889   0.562011  -0.000013   0.000003  -0.000000  -0.000000
    15  H    0.000003  -0.000013   0.576278  -0.008022   0.000423   0.000022
    16  C    0.000024   0.000003  -0.008022   4.796371   0.401106   0.411212
    17  H   -0.000002  -0.000000   0.000423   0.401106   0.565635  -0.028605
    18  H    0.000004  -0.000000   0.000022   0.411212  -0.028605   0.566066
    19  H   -0.000002   0.000000   0.002576   0.411602  -0.026409  -0.027041
              19
     1  C   -0.036353
     2  C    0.006249
     3  C   -0.000389
     4  C    0.000003
     5  C    0.000591
     6  C   -0.007388
     7  H   -0.000013
     8  O    0.000000
     9  O    0.000002
    10  H    0.000216
    11  C   -0.000004
    12  H    0.000000
    13  H   -0.000002
    14  H    0.000000
    15  H    0.002576
    16  C    0.411602
    17  H   -0.026409
    18  H   -0.027041
    19  H    0.568106
          Atomic-Atomic Spin Densities.
               1          2          3          4          5          6
     1  C    0.310751  -0.012521  -0.015730  -0.002092  -0.017844   0.018643
     2  C   -0.012521  -0.125351   0.015801   0.004184   0.002136   0.000016
     3  C   -0.015730   0.015801   0.229999   0.020260   0.007781  -0.000218
     4  C   -0.002092   0.004184   0.020260  -0.137046   0.014259   0.002611
     5  C   -0.017844   0.002136   0.007781   0.014259   0.287146  -0.014647
     6  C    0.018643   0.000016  -0.000218   0.002611  -0.014647  -0.125791
     7  H   -0.000292   0.000026  -0.000236  -0.001925   0.001910   0.000641
     8  O    0.000106   0.000062   0.001540   0.044240  -0.000766   0.000205
     9  O    0.000360  -0.000101  -0.031703  -0.000145  -0.000238   0.000012
    10  H   -0.000434  -0.000433   0.000488  -0.000054   0.000055  -0.000087
    11  C    0.001692  -0.001935  -0.033205  -0.102083  -0.031741  -0.000754
    12  H   -0.000070   0.000039   0.000561   0.004094   0.002408   0.000052
    13  H   -0.000011  -0.000043  -0.001084   0.000524   0.000006   0.000007
    14  H   -0.000034   0.000117   0.001501   0.002713   0.000385   0.000003
    15  H   -0.000024   0.000051   0.000018  -0.000046  -0.000014  -0.000454
    16  C   -0.006907   0.001219  -0.000180  -0.000030  -0.000086   0.000338
    17  H   -0.008278   0.000842   0.000263  -0.000012   0.000304  -0.000624
    18  H   -0.004388  -0.000074   0.000022   0.000037  -0.000028   0.000032
    19  H   -0.001582  -0.000113  -0.000001   0.000011  -0.000019   0.000214
               7          8          9         10         11         12
     1  C   -0.000292   0.000106   0.000360  -0.000434   0.001692  -0.000070
     2  C    0.000026   0.000062  -0.000101  -0.000433  -0.001935   0.000039
     3  C   -0.000236   0.001540  -0.031703   0.000488  -0.033205   0.000561
     4  C   -0.001925   0.044240  -0.000145  -0.000054  -0.102083   0.004094
     5  C    0.001910  -0.000766  -0.000238   0.000055  -0.031741   0.002408
     6  C    0.000641   0.000205   0.000012  -0.000087  -0.000754   0.000052
     7  H   -0.016526  -0.000570   0.000001   0.000002   0.003604  -0.000441
     8  O   -0.000570   0.076611  -0.000270  -0.000015  -0.089623   0.001718
     9  O    0.000001  -0.000270   0.056974  -0.000088   0.004525  -0.000075
    10  H    0.000002  -0.000015  -0.000088   0.005638   0.000118  -0.000002
    11  C    0.003604  -0.089623   0.004525   0.000118   0.937242  -0.012351
    12  H   -0.000441   0.001718  -0.000075  -0.000002  -0.012351  -0.022828
    13  H   -0.000004  -0.000055   0.000624  -0.000007  -0.000458  -0.000017
    14  H   -0.000063   0.001474  -0.000566  -0.000007  -0.009741   0.003374
    15  H    0.000251  -0.000006  -0.000000  -0.000000   0.000042  -0.000004
    16  C   -0.000006   0.000001   0.000002   0.000140  -0.000014   0.000001
    17  H    0.000014  -0.000001  -0.000005   0.000170   0.000013  -0.000000
    18  H   -0.000006   0.000001   0.000001  -0.000255  -0.000022   0.000001
    19  H   -0.000009   0.000000   0.000000  -0.000018  -0.000007   0.000000
              13         14         15         16         17         18
     1  C   -0.000011  -0.000034  -0.000024  -0.006907  -0.008278  -0.004388
     2  C   -0.000043   0.000117   0.000051   0.001219   0.000842  -0.000074
     3  C   -0.001084   0.001501   0.000018  -0.000180   0.000263   0.000022
     4  C    0.000524   0.002713  -0.000046  -0.000030  -0.000012   0.000037
     5  C    0.000006   0.000385  -0.000014  -0.000086   0.000304  -0.000028
     6  C    0.000007   0.000003  -0.000454   0.000338  -0.000624   0.000032
     7  H   -0.000004  -0.000063   0.000251  -0.000006   0.000014  -0.000006
     8  O   -0.000055   0.001474  -0.000006   0.000001  -0.000001   0.000001
     9  O    0.000624  -0.000566  -0.000000   0.000002  -0.000005   0.000001
    10  H   -0.000007  -0.000007  -0.000000   0.000140   0.000170  -0.000255
    11  C   -0.000458  -0.009741   0.000042  -0.000014   0.000013  -0.000022
    12  H   -0.000017   0.003374  -0.000004   0.000001  -0.000000   0.000001
    13  H   -0.000459   0.000058   0.000000  -0.000000  -0.000000   0.000000
    14  H    0.000058  -0.022004  -0.000000   0.000000  -0.000000   0.000001
    15  H    0.000000  -0.000000   0.005531   0.000061   0.000031  -0.000024
    16  C   -0.000000   0.000000   0.000061  -0.020531   0.001170   0.002824
    17  H   -0.000000  -0.000000   0.000031   0.001170   0.025396  -0.004815
    18  H    0.000000   0.000001  -0.000024   0.002824  -0.004815   0.010843
    19  H    0.000000   0.000000  -0.000059   0.001873  -0.002000   0.001140
              19
     1  C   -0.001582
     2  C   -0.000113
     3  C   -0.000001
     4  C    0.000011
     5  C   -0.000019
     6  C    0.000214
     7  H   -0.000009
     8  O    0.000000
     9  O    0.000000
    10  H   -0.000018
    11  C   -0.000007
    12  H    0.000000
    13  H    0.000000
    14  H    0.000000
    15  H   -0.000059
    16  C    0.001873
    17  H   -0.002000
    18  H    0.001140
    19  H    0.002139
 Mulliken charges and spin densities:
               1          2
     1  C   -0.128220   0.261344
     2  C   -0.046564  -0.116079
     3  C    0.224443   0.195876
     4  C   -0.019434  -0.150500
     5  C   -0.052873   0.251008
     6  C   -0.051565  -0.119802
     7  H    0.091010  -0.013629
     8  O   -0.325521   0.034653
     9  O   -0.358325   0.029308
    10  H    0.094410   0.005211
    11  C   -0.118494   0.665303
    12  H    0.128232  -0.023540
    13  H    0.253943  -0.000919
    14  H    0.125834  -0.022787
    15  H    0.088477   0.005353
    16  C   -0.259418  -0.020126
    17  H    0.128274   0.012467
    18  H    0.117538   0.005289
    19  H    0.108253   0.001570
 Sum of Mulliken charges =  -0.00000   1.00000
 Mulliken charges and spin densities with hydrogens summed into heavy atoms:
               1          2
     1  C   -0.128220   0.261344
     2  C    0.047846  -0.110868
     3  C    0.224443   0.195876
     4  C   -0.019434  -0.150500
     5  C    0.038136   0.237379
     6  C    0.036912  -0.114448
     8  O   -0.325521   0.034653
     9  O   -0.104381   0.028389
    11  C    0.135571   0.618975
    16  C    0.094647  -0.000800
 APT charges:
               1
     1  C    0.025280
     2  C   -0.448119
     3  C   -0.207602
     4  C   -0.070311
     5  C   -0.555711
     6  C   -0.463728
     7  H    0.502379
     8  O   -0.129826
     9  O   -0.372687
    10  H    0.472600
    11  C   -0.791912
    12  H    0.486598
    13  H    0.544122
    14  H    0.389562
    15  H    0.563064
    16  C   -1.196552
    17  H    0.424707
    18  H    0.377262
    19  H    0.450876
 Sum of APT charges =  -0.00000
 APT charges with hydrogens summed into heavy atoms:
               1
     1  C    0.025280
     2  C    0.024481
     3  C   -0.207602
     4  C   -0.070311
     5  C   -0.053332
     6  C    0.099336
     8  O   -0.129826
     9  O    0.171435
    11  C    0.084248
    16  C    0.056292
 Electronic spatial extent (au):  <R**2>=           1460.4868
 Charge=             -0.0000 electrons
 Dipole moment (field-independent basis, Debye):
    X=              0.3318    Y=             -0.7860    Z=              0.7333  Tot=              1.1250
 Quadrupole moment (field-independent basis, Debye-Ang):
   XX=            -53.8655   YY=            -57.8246   ZZ=            -61.0096
   XY=             -0.5828   XZ=             -2.1487   YZ=             -0.9299
 Traceless Quadrupole moment (field-independent basis, Debye-Ang):
   XX=              3.7011   YY=             -0.2581   ZZ=             -3.4431
   XY=             -0.5828   XZ=             -2.1487   YZ=             -0.9299
 Octapole moment (field-independent basis, Debye-Ang**2):
  XXX=            -10.3085  YYY=             -8.9893  ZZZ=             -1.5855  XYY=             -2.4987
  XXY=              8.7797  XXZ=              6.6629  XZZ=             -8.1243  YZZ=              4.3924
  YYZ=             -1.0427  XYZ=              4.6917
 Hexadecapole moment (field-independent basis, Debye-Ang**3):
 XXXX=          -1291.8918 YYYY=           -494.8257 ZZZZ=           -129.0189 XXXY=            -36.6653
 XXXZ=            -11.6578 YYYX=              5.5745 YYYZ=              1.0568 ZZZX=              2.6577
 ZZZY=             -2.5367 XXYY=           -275.0149 XXZZ=           -235.1558 YYZZ=           -106.4971
 XXYZ=            -11.3818 YYXZ=              3.6179 ZZXY=             -1.3342
 N-N= 5.126900062683D+02 E-N=-2.100710176827D+03  KE= 4.590874442970D+02
  Exact polarizability:   0.000   0.000   0.000   0.000   0.000   0.000
 Approx polarizability: 221.446   3.573 160.775 -13.421   2.594  89.943
                          Isotropic Fermi Contact Couplings
        Atom                 a.u.       MegaHertz       Gauss      10(-4) cm-1
     1  C(13)              0.01951      21.93769       7.82791       7.31762
     2  C(13)             -0.01652     -18.57037      -6.62637      -6.19441
     3  C(13)              0.01724      19.38334       6.91646       6.46559
     4  C(13)             -0.00839      -9.43108      -3.36524      -3.14587
     5  C(13)              0.01879      21.12387       7.53752       7.04616
     6  C(13)             -0.01687     -18.96132      -6.76587      -6.32482
     7  H(1)              -0.00350     -15.64343      -5.58197      -5.21809
     8  O(17)              0.00145      -0.87729      -0.31304      -0.29263
     9  O(17)              0.00545      -3.30400      -1.17895      -1.10210
    10  H(1)               0.00127       5.68813       2.02967       1.89736
    11  C(13)              0.12292     138.18443      49.30764      46.09336
    12  H(1)              -0.00789     -35.28790     -12.59160     -11.77078
    13  H(1)              -0.00027      -1.19040      -0.42476      -0.39707
    14  H(1)              -0.00694     -31.01457     -11.06677     -10.34535
    15  H(1)               0.00127       5.66590       2.02173       1.88994
    16  C(13)             -0.00745      -8.37769      -2.98937      -2.79450
    17  H(1)               0.00642      28.70801      10.24373       9.57596
    18  H(1)               0.00283      12.63468       4.50837       4.21447
    19  H(1)               0.00092       4.09548       1.46137       1.36611
 --------------------------------------------------------
       Center         ----  Spin Dipole Couplings  ----
                      3XX-RR        3YY-RR        3ZZ-RR
 --------------------------------------------------------
     1   Atom       -0.138915     -0.151013      0.289928
     2   Atom        0.055339      0.047287     -0.102626
     3   Atom       -0.119605     -0.124290      0.243895
     4   Atom        0.077158      0.062321     -0.139479
     5   Atom       -0.134513     -0.131433      0.265946
     6   Atom        0.053053      0.046338     -0.099391
     7   Atom       -0.011917      0.012919     -0.001001
     8   Atom        0.323089     -0.137499     -0.185590
     9   Atom       -0.081227     -0.094801      0.176028
    10   Atom        0.005750     -0.001689     -0.004061
    11   Atom        0.769214     -0.389378     -0.379836
    12   Atom       -0.001995      0.039239     -0.037244
    13   Atom        0.004695     -0.000257     -0.004438
    14   Atom        0.003304      0.018205     -0.021510
    15   Atom        0.002818      0.001173     -0.003991
    16   Atom        0.001350     -0.004429      0.003079
    17   Atom        0.003970     -0.002513     -0.001458
    18   Atom        0.002536     -0.000725     -0.001810
    19   Atom        0.004125     -0.002063     -0.002062
 --------------------------------------------------------
                        XY            XZ            YZ
 --------------------------------------------------------
     1   Atom        0.006527     -0.043529     -0.044430
     2   Atom       -0.003361      0.012387      0.007526
     3   Atom        0.005390     -0.053199     -0.029342
     4   Atom       -0.003132      0.024168      0.020816
     5   Atom        0.007171     -0.053328     -0.050507
     6   Atom        0.003227      0.012273      0.016411
     7   Atom        0.009601     -0.001420      0.006415
     8   Atom        0.018674      0.148386      0.014616
     9   Atom        0.010365     -0.063978     -0.023981
    10   Atom       -0.001652      0.000494     -0.000043
    11   Atom        0.077782      0.179974      0.013154
    12   Atom        0.014758      0.001717     -0.029433
    13   Atom        0.002943      0.002430     -0.004378
    14   Atom       -0.016913     -0.007630      0.041698
    15   Atom        0.003518      0.000483      0.001145
    16   Atom        0.001459     -0.000447     -0.001109
    17   Atom        0.001847     -0.001559     -0.000685
    18   Atom        0.002731      0.001669      0.001019
    19   Atom       -0.001956      0.000869     -0.000144
 --------------------------------------------------------


 ---------------------------------------------------------------------------------
              Anisotropic Spin Dipole Couplings in Principal Axis System
 ---------------------------------------------------------------------------------

       Atom             a.u.   MegaHertz   Gauss  10(-4) cm-1        Axes

              Baa    -0.1558   -20.910    -7.461    -6.975 -0.1698  0.9821  0.0813
     1 C(13)  Bbb    -0.1430   -19.183    -6.845    -6.399  0.9804  0.1600  0.1150
              Bcc     0.2988    40.093    14.306    13.374 -0.0999 -0.0992  0.9900
 
              Baa    -0.1040   -13.954    -4.979    -4.655 -0.0785 -0.0513  0.9956
     2 C(13)  Bbb     0.0469     6.290     2.245     2.098  0.2765  0.9584  0.0711
              Bcc     0.0571     7.664     2.735     2.556  0.9578 -0.2808  0.0610
 
              Baa    -0.1281   -17.195    -6.136    -5.736  0.7878 -0.6125  0.0643
     3 C(13)  Bbb    -0.1257   -16.872    -6.020    -5.628  0.5994  0.7865  0.1487
              Bcc     0.2539    34.067    12.156    11.364 -0.1417 -0.0786  0.9868
 
              Baa    -0.1443   -19.362    -6.909    -6.458 -0.1094 -0.1013  0.9888
     4 C(13)  Bbb     0.0644     8.644     3.084     2.883  0.0423  0.9934  0.1064
              Bcc     0.0799    10.717     3.824     3.575  0.9931 -0.0535  0.1043
 
              Baa    -0.1416   -18.998    -6.779    -6.337  0.9836 -0.1424  0.1111
     5 C(13)  Bbb    -0.1377   -18.477    -6.593    -6.163  0.1264  0.9821  0.1396
              Bcc     0.2793    37.474    13.372    12.500 -0.1290 -0.1233  0.9840
 
              Baa    -0.1021   -13.704    -4.890    -4.571 -0.0762 -0.1079  0.9912
     6 C(13)  Bbb     0.0457     6.128     2.187     2.044 -0.4796  0.8755  0.0585
              Bcc     0.0565     7.576     2.703     2.527  0.8742  0.4710  0.1184
 
              Baa    -0.0160    -8.551    -3.051    -2.852  0.9055 -0.3527  0.2361
     7 H(1)   Bbb    -0.0019    -0.997    -0.356    -0.333 -0.3182 -0.1958  0.9276
              Bcc     0.0179     9.548     3.407     3.185  0.2809  0.9150  0.2895
 
              Baa    -0.2267    16.402     5.853     5.471 -0.2559 -0.1039  0.9611
     8 O(17)  Bbb    -0.1375     9.948     3.550     3.318 -0.0690  0.9936  0.0891
              Bcc     0.3642   -26.350    -9.402    -8.790  0.9642  0.0435  0.2614
 
              Baa    -0.1013     7.329     2.615     2.445 -0.6712  0.7357 -0.0912
     9 O(17)  Bbb    -0.0921     6.662     2.377     2.222  0.7050  0.6715  0.2283
              Bcc     0.1934   -13.991    -4.992    -4.667 -0.2292 -0.0889  0.9693
 
              Baa    -0.0041    -2.180    -0.778    -0.727 -0.0533 -0.0187  0.9984
    10 H(1)   Bbb    -0.0020    -1.087    -0.388    -0.363  0.2057  0.9782  0.0293
              Bcc     0.0061     3.268     1.166     1.090  0.9772 -0.2069  0.0483
 
              Baa    -0.4075   -54.681   -19.511   -18.239 -0.1443 -0.0955  0.9849
    11 C(13)  Bbb    -0.3945   -52.936   -18.889   -17.657 -0.0795  0.9932  0.0847
              Bcc     0.8020   107.616    38.400    35.897  0.9863  0.0661  0.1509
 
              Baa    -0.0482   -25.705    -9.172    -8.574 -0.1424  0.3374  0.9305
    12 H(1)   Bbb    -0.0044    -2.348    -0.838    -0.783  0.9602 -0.1813  0.2126
              Bcc     0.0526    28.053    10.010     9.357  0.2404  0.9238 -0.2981
 
              Baa    -0.0082    -4.390    -1.566    -1.464 -0.2726  0.5386  0.7972
    13 H(1)   Bbb     0.0021     1.144     0.408     0.382 -0.2869  0.7454 -0.6017
              Bcc     0.0061     3.245     1.158     1.083  0.9183  0.3928  0.0487
 
              Baa    -0.0480   -25.598    -9.134    -8.539 -0.0540 -0.5421  0.8385
    14 H(1)   Bbb    -0.0036    -1.902    -0.679    -0.635  0.9328  0.2723  0.2362
              Bcc     0.0515    27.500     9.813     9.173 -0.3564  0.7949  0.4910
 
              Baa    -0.0042    -2.266    -0.808    -0.756  0.0528 -0.2390  0.9696
    15 H(1)   Bbb    -0.0015    -0.792    -0.283    -0.264 -0.6324  0.7434  0.2177
              Bcc     0.0057     3.057     1.091     1.020  0.7729  0.6246  0.1119
 
              Baa    -0.0049    -0.657    -0.234    -0.219 -0.2175  0.9684  0.1225
    16 C(13)  Bbb     0.0014     0.192     0.069     0.064  0.9197  0.1613  0.3580
              Bcc     0.0035     0.465     0.166     0.155 -0.3270 -0.1905  0.9256
 
              Baa    -0.0031    -1.632    -0.582    -0.544 -0.2046  0.9560  0.2100
    17 H(1)   Bbb    -0.0018    -0.985    -0.351    -0.329  0.2984 -0.1434  0.9436
              Bcc     0.0049     2.617     0.934     0.873  0.9323  0.2557 -0.2559
 
              Baa    -0.0024    -1.293    -0.461    -0.431 -0.0468 -0.4576  0.8879
    18 H(1)   Bbb    -0.0023    -1.202    -0.429    -0.401 -0.5537  0.7517  0.3582
              Bcc     0.0047     2.494     0.890     0.832  0.8314  0.4749  0.2886
 
              Baa    -0.0027    -1.415    -0.505    -0.472  0.2959  0.9322 -0.2084
    19 H(1)   Bbb    -0.0022    -1.148    -0.409    -0.383 -0.0606  0.2361  0.9698
              Bcc     0.0048     2.563     0.914     0.855  0.9533 -0.2743  0.1264
 

 ---------------------------------------------------------------------------------

 Calling FoFJK, ICntrl=    100147 FMM=F ISym2X=0 I1Cent= 0 IOpClX= 1 NMat=1 NMatS=1 NMatT=0.
 ***** Axes restored to original set *****
 -------------------------------------------------------------------
 Center     Atomic                   Forces (Hartrees/Bohr)
 Number     Number              X              Y              Z
 -------------------------------------------------------------------
      1        6           0.024366580    0.009050562    0.004485496
      2        6          -0.005306693   -0.004602432   -0.001680985
      3        6           0.000986756    0.001651324   -0.000432583
      4        6           0.001338270   -0.001352916   -0.001340889
      5        6           0.002012613   -0.003915201   -0.001007906
      6        6          -0.023813162    0.008891720    0.000996907
      7        1          -0.000596235   -0.000120715    0.000184465
      8        8           0.000076317    0.000268617    0.000025904
      9        8           0.001244896   -0.000473364    0.000076413
     10        1           0.000260815    0.000304967    0.000254495
     11        6          -0.000730042   -0.000772715    0.000899257
     12        1          -0.000140310   -0.000089005   -0.000021183
     13        1          -0.000124037   -0.000282279    0.000118071
     14        1          -0.000104105   -0.000127281    0.000008679
     15        1           0.008550608   -0.002965691   -0.000693387
     16        6          -0.026309949   -0.021567602   -0.003582150
     17        1           0.006021882    0.009616167   -0.012417895
     18        1          -0.000797647    0.011665947    0.009940160
     19        1           0.013063443   -0.005180103    0.004187130
 -------------------------------------------------------------------
 Cartesian Forces:  Max     0.026309949 RMS     0.007740799
 FormGI is forming the generalized inverse of G from B-inverse, IUseBI=4.

 GradGradGradGradGradGradGradGradGradGradGradGradGradGradGradGradGradGrad
 Berny optimization.
 Internal  Forces:  Max     0.016516846 RMS     0.003872198
 Search for a saddle point.
 Step number   1 out of a maximum of   95
 All quantities printed in internal units (Hartrees-Bohrs-Radians)
 Swapping is turned off.
 Second derivative matrix not updated -- analytic derivatives used.
 ITU=  0
     Eigenvalues ---   -0.34370  -0.00015   0.01142   0.01503   0.01603
     Eigenvalues ---    0.01824   0.01884   0.01975   0.02152   0.02445
     Eigenvalues ---    0.02581   0.02894   0.02988   0.04207   0.05829
     Eigenvalues ---    0.05955   0.07171   0.09939   0.10722   0.10874
     Eigenvalues ---    0.11732   0.12386   0.14233   0.14683   0.16069
     Eigenvalues ---    0.16548   0.17963   0.18196   0.18655   0.19453
     Eigenvalues ---    0.20788   0.22372   0.27897   0.30265   0.31792
     Eigenvalues ---    0.32749   0.35485   0.35692   0.35863   0.36451
     Eigenvalues ---    0.37886   0.38123   0.38402   0.38772   0.39150
     Eigenvalues ---    0.40277   0.43040   0.45104   0.46654   0.50585
     Eigenvalues ---    0.51592
 Eigenvectors required to have negative eigenvalues:
                          A19       R8        R6        D28       R13
   1                   -0.94243   0.17016   0.15559  -0.07141  -0.06951
                          D22       D27       D30       D20       R4
   1                    0.06931  -0.06649   0.06231   0.06017  -0.05697
 RFO step:  Lambda0=2.661522036D-05 Lambda=-5.04996082D-03.
 Linear search not attempted -- option 19 set.
 Iteration  1 RMS(Cart)=  0.07000350 RMS(Int)=  0.03007379
 Iteration  2 RMS(Cart)=  0.03951146 RMS(Int)=  0.00191897
 Iteration  3 RMS(Cart)=  0.00198259 RMS(Int)=  0.00014700
 Iteration  4 RMS(Cart)=  0.00000404 RMS(Int)=  0.00014696
 Iteration  5 RMS(Cart)=  0.00000000 RMS(Int)=  0.00014696
 Variable       Old X    -DE/DX   Delta X   Delta X   Delta X     New X
                                 (Linear)    (Quad)   (Total)
    R1        2.64040   0.00333   0.00000   0.01844   0.01847   2.65886
    R2        2.66338  -0.00244   0.00000  -0.00971  -0.00959   2.65379
    R3        2.91018  -0.00986   0.00000  -0.06385  -0.06385   2.84633
    R4        2.61290   0.00037   0.00000  -0.00745  -0.00753   2.60537
    R5        2.04751   0.00029   0.00000   0.00217   0.00217   2.04968
    R6        2.69964   0.00061   0.00000   0.00692   0.00681   2.70645
    R7        2.56890  -0.00133   0.00000  -0.00123  -0.00123   2.56767
    R8        2.68380  -0.00310   0.00000  -0.00699  -0.00701   2.67679
    R9        2.66545   0.00082   0.00000  -0.00052  -0.00052   2.66493
   R10        2.61691  -0.00010   0.00000  -0.00087  -0.00079   2.61612
   R11        2.04865   0.00001   0.00000  -0.00151  -0.00151   2.04714
   R12        2.02201   0.00904   0.00000   0.02573   0.02573   2.04774
   R13        2.65682   0.00110   0.00000   0.00153   0.00153   2.65834
   R14        1.83001   0.00023   0.00000   0.00038   0.00038   1.83040
   R15        2.04676   0.00003   0.00000   0.00012   0.00012   2.04688
   R16        2.04823   0.00001   0.00000   0.00012   0.00012   2.04835
   R17        2.02201   0.01652   0.00000   0.04481   0.04481   2.06682
   R18        2.02201   0.01498   0.00000   0.04265   0.04265   2.06466
   R19        2.02201   0.01433   0.00000   0.03765   0.03765   2.05966
    A1        2.12063  -0.00916   0.00000  -0.04745  -0.04730   2.07333
    A2        2.07825   0.00367   0.00000   0.01320   0.01313   2.09138
    A3        2.08358   0.00548   0.00000   0.03422   0.03415   2.11772
    A4        2.09574   0.00234   0.00000   0.01483   0.01478   2.11051
    A5        2.11520  -0.00150   0.00000  -0.00735  -0.00733   2.10787
    A6        2.07175  -0.00084   0.00000  -0.00752  -0.00749   2.06425
    A7        2.08327   0.00218   0.00000   0.01142   0.01123   2.09450
    A8        2.11843  -0.00066   0.00000  -0.00374  -0.00364   2.11479
    A9        2.08132  -0.00153   0.00000  -0.00768  -0.00758   2.07374
   A10        2.07920  -0.00209   0.00000  -0.01087  -0.01099   2.06821
   A11        2.03904   0.00096   0.00000   0.00006   0.00013   2.03917
   A12        2.12314   0.00107   0.00000   0.00935   0.00940   2.13254
   A13        2.10416  -0.00244   0.00000  -0.01556  -0.01549   2.08867
   A14        2.06135   0.00062   0.00000   0.01010   0.01007   2.07141
   A15        2.11727   0.00183   0.00000   0.00543   0.00540   2.12267
   A16        2.07164   0.00914   0.00000   0.04761   0.04777   2.11941
   A17        2.10577  -0.00481   0.00000  -0.02339  -0.02353   2.08224
   A18        2.10577  -0.00434   0.00000  -0.02422  -0.02436   2.08141
   A19        1.41085   0.00353   0.00000  -0.00208  -0.00208   1.40877
   A20        1.86465  -0.00013   0.00000  -0.00041  -0.00041   1.86425
   A21        2.03148  -0.00005   0.00000  -0.00115  -0.00115   2.03033
   A22        2.04053   0.00007   0.00000  -0.00050  -0.00051   2.04002
   A23        2.11406  -0.00010   0.00000  -0.00130  -0.00131   2.11275
   A24        1.91063   0.00310   0.00000   0.03148   0.03101   1.94165
   A25        1.91063   0.00343   0.00000   0.03061   0.03013   1.94076
   A26        1.91063   0.00313   0.00000   0.03240   0.03180   1.94243
   A27        1.91063  -0.00354   0.00000  -0.04037  -0.04071   1.86992
   A28        1.91063  -0.00322   0.00000  -0.02879  -0.02933   1.88130
   A29        1.91063  -0.00289   0.00000  -0.02533  -0.02590   1.88473
    D1        0.03539  -0.00013   0.00000  -0.00145  -0.00142   0.03397
    D2       -3.07166  -0.00015   0.00000   0.00004   0.00006  -3.07159
    D3        3.13572  -0.00029   0.00000  -0.00137  -0.00136   3.13436
    D4        0.02867  -0.00031   0.00000   0.00012   0.00013   0.02880
    D5       -0.03628   0.00015   0.00000   0.00244   0.00243  -0.03385
    D6        3.10531  -0.00038   0.00000  -0.01462  -0.01466   3.09065
    D7       -3.13649   0.00036   0.00000   0.00286   0.00289  -3.13360
    D8        0.00511  -0.00018   0.00000  -0.01420  -0.01420  -0.00910
    D9       -1.37571   0.00037   0.00000   0.31232   0.31240  -1.06331
   D10        0.71868   0.00002   0.00000   0.30089   0.30081   1.01949
   D11        2.81308   0.00050   0.00000   0.30846   0.30848   3.12156
   D12        1.72551  -0.00014   0.00000   0.31044   0.31051   2.03602
   D13       -2.46328  -0.00048   0.00000   0.29901   0.29891  -2.16437
   D14       -0.36889  -0.00001   0.00000   0.30658   0.30659  -0.06230
   D15        0.06363   0.00001   0.00000  -0.00022  -0.00019   0.06345
   D16       -3.09725  -0.00014   0.00000  -0.00007  -0.00006  -3.09731
   D17       -3.11165   0.00002   0.00000  -0.00168  -0.00165  -3.11330
   D18        0.01065  -0.00013   0.00000  -0.00153  -0.00152   0.00913
   D19       -0.15953  -0.00012   0.00000  -0.00002  -0.00000  -0.15953
   D20       -2.99977  -0.00012   0.00000   0.00336   0.00332  -2.99645
   D21        3.00094   0.00002   0.00000  -0.00020  -0.00016   3.00078
   D22        0.16070   0.00001   0.00000   0.00318   0.00316   0.16386
   D23        2.89573   0.00026   0.00000   0.00443   0.00444   2.90017
   D24       -0.26514   0.00015   0.00000   0.00479   0.00477  -0.26036
   D25        0.16009  -0.00015   0.00000  -0.00079  -0.00083   0.15926
   D26       -3.01194  -0.00009   0.00000  -0.00159  -0.00163  -3.01357
   D27        2.98531  -0.00020   0.00000  -0.00623  -0.00626   2.97905
   D28       -0.18673  -0.00014   0.00000  -0.00703  -0.00706  -0.19378
   D29       -1.72925  -0.00051   0.00000  -0.00385  -0.00386  -1.73312
   D30        1.72181   0.00006   0.00000   0.00341   0.00343   1.72524
   D31       -0.06276  -0.00011   0.00000  -0.00172  -0.00177  -0.06453
   D32        3.07884   0.00042   0.00000   0.01534   0.01531   3.09415
   D33        3.11027  -0.00015   0.00000  -0.00097  -0.00102   3.10925
   D34       -0.03133   0.00038   0.00000   0.01609   0.01607  -0.01526
   D35       -1.79602  -0.00010   0.00000  -0.00200  -0.00200  -1.79802
   D36        1.79858   0.00010   0.00000   0.00478   0.00478   1.80336
   D37       -2.66820   0.00016   0.00000   0.00686   0.00686  -2.66134
         Item               Value     Threshold  Converged?
 Maximum Force            0.016517     0.000450     NO 
 RMS     Force            0.003872     0.000300     NO 
 Maximum Displacement     0.521003     0.001800     NO 
 RMS     Displacement     0.106485     0.001200     NO 
 Predicted change in Energy=-2.712782D-03
 GradGradGradGradGradGradGradGradGradGradGradGradGradGradGradGradGradGrad

                          Input orientation:                          
 ---------------------------------------------------------------------
 Center     Atomic      Atomic             Coordinates (Angstroms)
 Number     Number       Type             X           Y           Z
 ---------------------------------------------------------------------
      1          6           0        1.542916    1.227476    0.214810
      2          6           0        0.238453    1.749336    0.139224
      3          6           0       -0.842732    0.924253   -0.086812
      4          6           0       -0.656701   -0.493319   -0.170767
      5          6           0        0.665318   -1.000102   -0.214308
      6          6           0        1.733257   -0.149388    0.014456
      7          1           0        0.810960   -2.057637   -0.398556
      8          8           0       -1.768223   -1.258065   -0.581136
      9          8           0       -2.098255    1.428554   -0.211506
     10          1           0        0.061729    2.816098    0.224337
     11          6           0       -1.860664   -1.451305    0.809193
     12          1           0       -1.517271   -2.407295    1.185238
     13          1           0       -2.649089    0.721341   -0.578419
     14          1           0       -2.622232   -0.885267    1.333162
     15          1           0        2.739020   -0.552604    0.023491
     16          6           0        2.707284    2.152671    0.453415
     17          1           0        2.798066    2.890584   -0.348740
     18          1           0        2.587171    2.705997    1.387822
     19          1           0        3.646152    1.601666    0.506849
 ---------------------------------------------------------------------
                    Distance matrix (angstroms):
                    1          2          3          4          5
     1  C    0.000000
     2  C    1.407009   0.000000
     3  C    2.423683   1.378701   0.000000
     4  C    2.819241   2.434522   1.432190   0.000000
     5  C    2.432370   2.804748   2.448186   1.416495   0.000000
     6  C    1.404323   2.419743   2.792612   2.421672   1.384392
     7  H    3.421102   3.887160   3.423967   2.157083   1.083300
     8  O    4.216051   3.686480   2.421447   1.410220   2.474516
     9  O    3.671554   2.384559   1.358752   2.402777   3.679092
    10  H    2.172033   1.084645   2.119892   3.409471   3.888459
    11  C    4.371901   3.885776   2.735377   1.824167   2.762557
    12  H    4.849539   4.631878   3.629370   2.498526   2.950019
    13  H    4.296312   3.147966   1.883023   2.368795   3.752498
    14  H    4.802380   4.068187   2.908146   2.505741   3.635359
    15  H    2.153126   3.400758   3.875851   3.401790   2.134723
    16  C    1.506211   2.521214   3.795191   4.325189   3.815161
    17  H    2.158453   2.844674   4.146140   4.839203   4.438933
    18  H    2.156954   2.826777   4.136834   4.815343   4.471634
    19  H    2.156132   3.430650   4.578362   4.833494   4.021770
                    6          7          8          9         10
     6  C    0.000000
     7  H    2.159311   0.000000
     8  O    3.720787   2.706443   0.000000
     9  O    4.149873   4.544453   2.731936   0.000000
    10  H    3.410595   4.970174   4.538317   2.603991   0.000000
    11  C    3.904211   2.993973   1.406735   3.064615   4.716819
    12  H    4.127324   2.837486   2.122212   4.123369   5.540794
    13  H    4.507175   4.441510   2.166560   0.968604   3.518659
    14  H    4.609858   4.019964   2.129049   2.830957   4.704598
    15  H    1.083616   2.482068   4.602009   5.232537   4.307711
    16  C    2.537890   4.695592   5.721327   4.905066   2.737074
    17  H    3.241475   5.332538   6.173839   5.111783   2.796695
    18  H    3.281543   5.388718   6.209673   5.113016   2.782746
    19  H    2.639660   4.716838   6.219102   5.791736   3.795094
                   11         12         13         14         15
    11  C    0.000000
    12  H    1.083165   0.000000
    13  H    2.695825   3.765616   0.000000
    14  H    1.083941   1.886635   2.497209   0.000000
    15  H    4.752061   4.785974   5.569287   5.528918   0.000000
    16  C    5.829354   6.259051   5.639515   6.197319   2.739407
    17  H    6.472756   7.003052   5.867697   6.816559   3.463753
    18  H    6.115653   6.559972   5.934929   6.327562   3.535949
    19  H    6.303734   6.572131   6.448475   6.794135   2.386923
                   16         17         18         19
    16  C    0.000000
    17  H    1.093715   0.000000
    18  H    1.092572   1.759033   0.000000
    19  H    1.089923   1.764254   1.765531   0.000000
 Stoichiometry    C8H9O2(2)
 Framework group  C1[X(C8H9O2)]
 Deg. of freedom    51
 Full point group                 C1      NOp   1
 Largest Abelian subgroup         C1      NOp   1
 Largest concise Abelian subgroup C1      NOp   1
                         Standard orientation:                         
 ---------------------------------------------------------------------
 Center     Atomic      Atomic             Coordinates (Angstroms)
 Number     Number       Type             X           Y           Z
 ---------------------------------------------------------------------
      1          6           0        1.838095   -0.046279    0.053204
      2          6           0        0.981918    1.070249    0.052399
      3          6           0       -0.380092    0.918556   -0.098381
      4          6           0       -0.950115   -0.392835   -0.178976
      5          6           0       -0.078082   -1.502691   -0.298299
      6          6           0        1.285830   -1.322265   -0.144248
      7          1           0       -0.504498   -2.481777   -0.480226
      8          8           0       -2.317980   -0.473027   -0.512492
      9          8           0       -1.206127    1.996100   -0.151020
     10          1           0        1.380650    2.075375    0.137193
     11          6           0       -2.415428   -0.623185    0.882806
     12          1           0       -2.587878   -1.628637    1.246912
     13          1           0       -2.061273    1.677964   -0.476148
     14          1           0       -2.748730    0.240487    1.446640
     15          1           0        1.942666   -2.182751   -0.192766
     16          6           0        3.323341    0.148676    0.210395
     17          1           0        3.731908    0.754526   -0.603381
     18          1           0        3.557383    0.664515    1.144657
     19          1           0        3.849837   -0.805647    0.211815
 ---------------------------------------------------------------------
 Rotational constants (GHZ):      2.6485860      1.0428242      0.8008466
 Standard basis: 6-311G(d,p) (5D, 7F)
 There are   244 symmetry adapted cartesian basis functions of A   symmetry.
 There are   234 symmetry adapted basis functions of A   symmetry.
   234 basis functions,   392 primitive gaussians,   244 cartesian basis functions
    37 alpha electrons       36 beta electrons
       nuclear repulsion energy       512.7270841880 Hartrees.
 NAtoms=   19 NActive=   19 NUniq=   19 SFac= 1.00D+00 NAtFMM=   60 NAOKFM=F Big=F
 Integral buffers will be    131072 words long.
 Raffenetti 2 integral format.
 Two-electron integral symmetry is turned on.
 One-electron integrals computed using PRISM.
 NBasis=   234 RedAO= T EigKep=  1.98D-04  NBF=   234
 NBsUse=   234 1.00D-06 EigRej= -1.00D+00 NBFU=   234
 Initial guess from the checkpoint file:  "SR-13-ts-SR-14.chk"
 B after Tr=     0.000000   -0.000000    0.000000
         Rot=    0.999990   -0.003873   -0.000178    0.002292 Ang=  -0.52 deg.
 Initial guess <Sx>= 0.0000 <Sy>= 0.0000 <Sz>= 0.5000 <S**2>= 0.7801 S= 0.5149
 ExpMin= 1.03D-01 ExpMax= 8.59D+03 ExpMxC= 1.30D+03 IAcc=1 IRadAn=         1 AccDes= 0.00D+00
 Harris functional with IExCor=  402 and IRadAn=       1 diagonalized for initial guess.
 HarFok:  IExCor=  402 AccDes= 0.00D+00 IRadAn=         1 IDoV= 1 UseB2=F ITyADJ=14
 ICtDFT=  3500011 ScaDFX=  1.000000  1.000000  1.000000  1.000000
 FoFCou: FMM=F IPFlag=           0 FMFlag=      100000 FMFlg1=           0
         NFxFlg=           0 DoJE=T BraDBF=F KetDBF=T FulRan=T
         wScrn=  0.000000 ICntrl=     500 IOpCl=  0 I1Cent=   200000004 NGrid=           0
         NMat0=    1 NMatS0=      1 NMatT0=    0 NMatD0=    1 NMtDS0=    0 NMtDT0=    0
 Petite list used in FoFCou.
 Keep R1 and R2 ints in memory in canonical form, NReq=763559320.
 Requested convergence on RMS density matrix=1.00D-08 within 128 cycles.
 Requested convergence on MAX density matrix=1.00D-06.
 Requested convergence on             energy=1.00D-06.
 No special actions if energy rises.
 Integral accuracy reduced to 1.0D-05 until final iterations.
 Initial convergence to 1.0D-05 achieved.  Increase integral accuracy.
 SCF Done:  E(UB3LYP) =  -460.735981076     A.U. after   15 cycles
            NFock= 15  Conv=0.80D-08     -V/T= 2.0037
 <Sx>= 0.0000 <Sy>= 0.0000 <Sz>= 0.5000 <S**2>= 0.7804 S= 0.5151
 <L.S>= 0.000000000000E+00
 Annihilation of the first spin contaminant:
 S**2 before annihilation     0.7804,   after     0.7506
 Calling FoFJK, ICntrl=      2127 FMM=F ISym2X=0 I1Cent= 0 IOpClX= 1 NMat=1 NMatS=1 NMatT=0.
 ***** Axes restored to original set *****
 -------------------------------------------------------------------
 Center     Atomic                   Forces (Hartrees/Bohr)
 Number     Number              X              Y              Z
 -------------------------------------------------------------------
      1        6          -0.000583173    0.000092551   -0.000382091
      2        6           0.000047587    0.000101739   -0.000061846
      3        6          -0.000252134   -0.000258805   -0.000009376
      4        6          -0.000254518    0.000094149    0.000042424
      5        6           0.000500290   -0.000108544   -0.000012835
      6        6          -0.000988404   -0.000038397    0.000286516
      7        1           0.000003904   -0.000015910    0.000036561
      8        8           0.000010472    0.000045045   -0.000062685
      9        8          -0.000000216    0.000031882   -0.000032704
     10        1           0.000005053   -0.000044172   -0.000049154
     11        6           0.000042519   -0.000020062    0.000044368
     12        1          -0.000033934   -0.000015774   -0.000019439
     13        1          -0.000017061    0.000004278    0.000019876
     14        1          -0.000015600   -0.000013584   -0.000020006
     15        1           0.000601480   -0.000208268   -0.000226154
     16        6          -0.000410752   -0.000840292   -0.000265718
     17        1           0.000094514    0.000805929   -0.000659609
     18        1           0.000207531    0.000779271    0.001183777
     19        1           0.001042440   -0.000391036    0.000188095
 -------------------------------------------------------------------
 Cartesian Forces:  Max     0.001183777 RMS     0.000371895

 GradGradGradGradGradGradGradGradGradGradGradGradGradGradGradGradGradGrad
 Berny optimization.
 FormGI is forming the generalized inverse of G from B-inverse, IUseBI=4.
 Internal  Forces:  Max     0.001379785 RMS     0.000287177
 Search for a saddle point.
 Step number   2 out of a maximum of   95
 All quantities printed in internal units (Hartrees-Bohrs-Radians)
[...]
 3711309,0.11003157,0.04883171,0.03343736,-0.06624598,-0.00510051,-0.03
 750713,-0.00212748,-0.00322425,0.01021029,0.03660752,0.01093819,-0.211
 34995,0.08676372,-0.05287642,0.61993347,-0.01289289,-0.05026861,-0.008
 67135,-0.01688049,-0.00308591,-0.00204753,0.03546343,0.00099444,0.0018
 4006,0.09131318,-0.15411187,-0.00109741,0.02044759,0.71986507,0.000944
 71,-0.01397902,0.00421254,-0.00739896,0.00056293,-0.00087786,0.0020131
 7,0.01100358,0.00107674,0.00404115,-0.02239525,-0.05032185,0.03246114,
 0.09283898,0.13502358,-0.12684933,0.06819732,0.00216663,0.01096201,0.0
 3446076,0.00392968,-0.00536056,-0.01380681,-0.00262998,-0.05776155,-0.
 00666228,0.00628971,-0.25686502,-0.13489391,-0.03590115,0.72348977,-0.
 00594956,-0.27256709,-0.02874751,0.07278613,-0.01572931,0.00392835,-0.
 02075109,-0.03984248,-0.01016986,-0.05015046,0.03435387,0.02311506,-0.
 06893133,-0.20292990,-0.02782471,-0.02356469,0.61758840,-0.00590333,-0
 .02246012,-0.06460059,0.00745999,0.00114599,0.00698609,-0.00230747,-0.
 00543896,-0.00173706,-0.01191120,0.00311258,0.00924883,-0.02615302,-0.
 03268708,-0.05923405,0.04749210,0.06489986,0.13433128,-0.00352874,-0.0
 0269838,-0.00118544,-0.00093672,0.00001924,-0.00012846,-0.00521816,-0.
 00024287,0.00001784,-0.00092856,0.02968181,0.00394510,-0.06306904,0.03
 916549,0.00534564,0.00885901,-0.02413707,-0.00340942,0.06085964,-0.003
 37902,0.00048897,-0.00162576,-0.00000889,0.00050551,0.00028852,0.00172
 991,0.00102293,-0.00092987,-0.00161940,-0.00853345,-0.00173293,0.04041
 374,-0.32579023,-0.04403332,0.00528203,-0.01327919,-0.00175382,-0.0422
 6280,0.34499758,-0.00132419,-0.00105130,0.00650804,0.00004051,0.000318
 40,-0.00089692,-0.00047236,-0.00007309,0.00462390,0.00001233,-0.000532
 59,0.00123062,0.00406854,-0.04323315,-0.03683228,0.00154395,-0.0041486
 7,0.00256090,-0.00521250,0.04790368,0.02851574,0.00309682,0.00104475,0
 .00100576,-0.00220441,-0.00217188,-0.00198384,-0.01403288,-0.00090054,
 -0.00471629,-0.19094196,-0.08849803,-0.01341619,-0.02055106,-0.0321622
 0,-0.01914946,-0.00599081,0.00384348,-0.00248675,0.00298526,0.00000947
 ,0.00212002,0.22584852,0.00323644,0.00056928,0.00083958,0.00039079,-0.
 00775055,-0.00148628,-0.02970235,-0.02206482,-0.02036579,-0.08121047,-
 0.12967554,-0.01411684,0.00468558,0.00670967,0.00512382,-0.00049242,-0
 .00139883,-0.00192419,-0.00144839,0.00129402,0.00090257,0.08872235,0.1
 8095627,0.00352662,0.00631195,0.00096265,-0.00833762,-0.00038498,0.001
 22835,-0.00314352,0.02593287,-0.00024516,-0.11609407,-0.08832373,0.005
 41112,0.02893722,0.00051588,0.00039696,-0.00535432,-0.01296581,-0.0002
 0002,-0.00066887,0.00096702,-0.00101690,0.02016840,0.00579831,0.331347
 10,0.00512018,-0.00499010,-0.00099637,-0.05236135,0.01002893,-0.009289
 11,-0.26877313,0.09643760,-0.02571099,-0.02638678,0.02172598,-0.007401
 19,0.00120781,-0.00017294,0.00210877,-0.00382978,0.00229591,-0.0002287
 4,-0.00054065,0.00012971,-0.00007640,0.00674368,-0.00956653,0.00780720
 ,0.50839777,0.00115908,-0.00797880,-0.00076305,-0.02724058,0.02064764,
 -0.00219271,0.05062877,-0.13558012,-0.00735398,0.04159497,-0.02468941,
 0.00751759,-0.00465121,-0.00692478,-0.00165246,0.00189738,0.00314369,0
 .00049237,0.00190096,-0.00044718,-0.00002009,0.00497243,-0.00276027,-0
 .00053364,0.08250983,0.44680340,-0.00108178,-0.00192341,0.00524799,-0.
 01088489,0.00446520,0.00516977,-0.04134156,0.00282670,-0.04805652,-0.0
 0391718,0.00109216,0.00536183,-0.00009027,-0.00013177,0.00486767,0.000
 26152,0.00028341,-0.00076323,-0.00030193,0.00003504,-0.00023510,0.0027
 8185,-0.00012385,0.00180370,0.14347168,0.13019923,0.10266705,0.0006416
 3,0.02787145,0.00188750,-0.06428305,0.04304116,-0.00135477,0.00786045,
 -0.02587380,-0.00099835,-0.00357100,-0.00074415,-0.00133385,-0.0006765
 3,-0.00051455,-0.00006705,-0.00512270,0.00139303,-0.00106818,0.0000876
 0,0.00001841,0.00007053,-0.00076259,-0.00214015,0.00001206,0.00191967,
 0.00117769,0.00117038,0.06240788,-0.00004286,-0.00799461,-0.00061025,0
 .04137813,-0.32637330,-0.01433244,0.00631073,-0.01761253,-0.00043873,-
 0.00273284,0.00066993,-0.00077974,-0.00030189,0.00050579,0.00006229,0.
 00192392,0.00151475,0.00021120,-0.00000746,-0.00009522,-0.00000706,-0.
 00057900,-0.00109460,-0.00005648,0.00054582,0.00155886,0.00053469,-0.0
 4624830,0.34771175,0.00181940,0.00204556,0.00228522,-0.00360949,-0.013
 48478,-0.03496135,0.00186436,-0.00376836,0.00520738,-0.00059907,-0.001
 51690,0.00637935,-0.00083683,-0.00036126,-0.00098763,-0.00119120,0.000
 41904,0.00540518,0.00002805,0.00008629,-0.00045044,-0.00022705,0.00029
 477,0.00021313,0.00108606,0.00044353,-0.00412963,0.00162180,0.01570983
 ,0.02465077,-0.00911824,-0.00758846,-0.00319519,0.01625434,0.00393084,
 0.00416452,-0.00671227,-0.04490562,0.00316936,0.04968141,0.04490623,-0
 .08071107,-0.05444884,0.00033300,0.01565491,0.00990336,0.01744286,0.00
 608189,0.00038961,-0.00038982,-0.00135379,-0.00823758,0.03972102,0.072
 54198,-0.00177329,0.00376991,0.00066499,0.00030875,0.00023251,-0.00007
 666,0.24357514,-0.00925121,-0.00231206,-0.00252667,0.01673224,0.002089
 61,0.00403111,-0.01265078,-0.04247099,0.01275466,0.04398285,0.02157385
 ,-0.06113176,-0.03016142,0.00865393,0.00237642,0.00678066,0.00822281,0
 .00340015,0.00079441,-0.00056038,-0.00094781,0.04492565,-0.04001619,0.
 06432826,-0.00211147,0.00261108,-0.00173224,0.00025816,0.00022311,-0.0
 0042626,-0.29352983,0.44543166,0.00815489,0.00056818,0.00142768,-0.010
 41787,-0.00497082,-0.00244830,0.00386104,0.01570964,-0.00198031,0.0118
 0082,0.01051658,0.03297999,0.01505534,-0.00875524,-0.00569291,-0.00537
 221,-0.00261352,-0.00164216,0.00082128,0.00011835,0.00044701,-0.008579
 45,0.00355578,-0.28611735,-0.00541808,-0.00256093,-0.00198613,-0.00079
 761,-0.00042755,-0.00030413,-0.08052238,-0.04733147,0.43431176,-0.0008
 8489,0.00077087,0.00005952,0.00115900,0.00004872,0.00029799,-0.0012079
 7,0.00020614,-0.00016547,0.00277061,-0.00619069,0.00409609,0.00056765,
 0.00058391,0.00039812,-0.00019246,-0.00093099,-0.00041737,-0.00032398,
 0.00013837,0.00032265,0.00002113,-0.00159619,0.00014317,0.00095546,-0.
 00009837,-0.00042567,0.00002259,0.00000535,0.00006191,-0.05922035,0.09
 279495,-0.02272913,0.05831784,-0.00058474,0.00043177,0.00010382,0.0007
 0541,0.00015297,0.00011831,0.00065425,-0.00088769,-0.00030094,0.003365
 79,-0.00158986,0.00209126,0.00020775,0.00036338,0.00006899,-0.00033296
 ,-0.00059906,-0.00037220,-0.00011698,0.00030526,0.00015000,-0.00641884
 ,0.00673123,0.00266653,-0.00086472,0.00009441,0.00026020,0.00002338,0.
 00000735,0.00000629,0.10630355,-0.27456886,0.09144645,-0.10129589,0.27
 536944,-0.00000967,0.00001076,0.00004661,-0.00029226,0.00012722,0.0000
 2198,0.00060562,0.00102555,0.00092069,-0.00456366,-0.00436490,-0.00364
 262,0.00055196,0.00063512,0.00048566,0.00017577,-0.00041430,0.00000214
 ,0.00015328,-0.00004988,-0.00020971,-0.00424601,0.03343396,-0.02451716
 ,0.00013748,0.00010461,0.00084083,0.00009237,0.00006948,-0.00010273,-0
 .02160337,0.08237681,-0.07504769,0.02552882,-0.10098162,0.09382090,-0.
 00075548,-0.00169164,-0.00033190,-0.00377423,0.00526323,-0.00087909,-0
 .04028651,-0.03087011,-0.01718252,-0.00144940,-0.00147419,-0.00067479,
 -0.00064201,-0.00099303,0.00004279,0.00041920,0.00010838,0.00005647,0.
 00029520,-0.00006635,-0.00003637,0.00092559,-0.00137618,0.00109414,-0.
 17162832,-0.15644591,-0.08839382,0.00013750,0.00003845,-0.00006565,0.0
 0111815,0.00025097,-0.00147927,-0.00018153,-0.00003758,0.00040048,0.21
 587016,-0.00086126,0.00131639,-0.00037452,0.00532645,-0.00067046,0.000
 19052,0.00339649,0.01539458,0.00602394,0.00786563,-0.00179664,0.003822
 91,-0.00009896,-0.00050160,-0.00108481,0.00012916,-0.00086826,-0.00003
 591,0.00021590,-0.00000012,0.00008321,-0.00460892,0.00422925,-0.005218
 17,-0.19915162,-0.29737378,-0.13571934,0.00007189,-0.00002058,0.000158
 51,0.00120985,-0.00068575,0.00665267,-0.00041584,0.00023630,-0.0010943
 0,0.18691245,0.28151202,0.00035270,-0.00022666,0.00165844,0.00015205,-
 0.00000388,0.00156806,-0.00360491,-0.00369192,-0.00332951,0.00042575,-
 0.00019912,0.00126495,-0.00016175,-0.00080966,-0.00067040,-0.00028110,
 0.00028017,-0.00004992,0.00022343,-0.00006493,0.00004255,0.00128617,-0
 .00083512,-0.00277805,-0.10449776,-0.12408789,-0.07109551,0.00000079,0
 .00003802,-0.00057922,-0.00214282,0.00225723,0.00042676,0.00051824,-0.
 00039692,-0.00087078,0.10674461,0.12680458,0.07593973,-0.00023929,-0.0
 0030653,-0.00009491,-0.00000611,0.00034159,-0.00024683,-0.00216358,0.0
 0010945,0.00088348,-0.00167591,0.00415413,0.00409084,-0.00093748,-0.00
 033313,-0.00032787,0.00043020,0.00040197,0.00026703,0.00005767,-0.0000
 0552,-0.00007312,0.00502081,-0.00900460,0.00010169,0.00200765,0.000242
 13,-0.00130694,-0.00000094,-0.00006954,0.00007869,-0.18258631,0.140339
 96,0.09619501,-0.00170326,-0.00153366,0.00304288,0.00030312,0.00006524
 ,0.00080432,0.18158809,-0.00046270,0.00013956,0.00005223,0.00041119,0.
 00042632,-0.00000820,-0.00244610,0.00051154,0.00031679,-0.00300529,0.0
 0238141,0.00424788,0.00004401,-0.00028933,-0.00015183,0.00002292,-0.00
 018301,0.00001360,-0.00013419,0.00010901,0.00015450,-0.00602132,0.0038
 6631,0.00180769,0.00199330,-0.00000698,-0.00029307,-0.00000234,-0.0000
 5063,0.00003163,0.12783147,-0.12872530,-0.06167320,0.01605717,-0.00602
 507,-0.01090091,0.00008730,-0.00039477,0.00085887,-0.13428022,0.128367
 04,-0.00000217,0.00014092,-0.00000518,-0.00043514,0.00034280,-0.000130
 31,0.00162445,0.00004679,0.00054928,-0.00604374,-0.00285727,-0.0031965
 6,0.00122756,0.00046697,0.00112286,-0.00007726,-0.00055249,0.00007635,
 -0.00002519,-0.00000363,-0.00017276,0.02719773,-0.01063705,-0.02633901
 ,-0.00092748,0.00008092,0.00066637,0.00008588,0.00004313,0.00002037,0.
 08781019,-0.05767198,-0.09470480,-0.00762582,0.00518729,0.00825499,0.0
 0052002,-0.00025580,-0.00140059,-0.10336874,0.06562904,0.11533593,-0.0
 0308000,-0.00023125,-0.00039862,0.00170816,0.00064209,0.00000051,0.000
 39812,-0.00038880,0.00005612,0.00001374,-0.00355014,-0.00138408,-0.019
 24101,0.01070411,0.00010623,-0.29376328,0.09569206,-0.00710309,0.00085
 671,-0.00028869,0.00045719,-0.00177363,0.00005970,0.00013197,-0.000095
 28,0.00014083,-0.00001883,-0.00010553,0.00006466,-0.00008447,0.0001484
 0,0.00012311,-0.00050513,-0.00004917,-0.00003338,0.00004309,0.00005702
 ,-0.00012605,0.00004764,-0.00000199,-0.00000618,0.00008541,0.31311315,
 0.02883358,-0.00725126,0.00107214,-0.00022846,-0.00549274,-0.00142914,
 -0.00092648,-0.00069893,-0.00013733,-0.00232767,-0.00209845,-0.0013600
 7,-0.01967846,0.01027861,0.00000438,0.09491423,-0.09520313,-0.00169051
 ,0.00040597,0.00072117,0.00083106,-0.00170693,0.00010165,-0.00007352,0
 .00018792,0.00027221,0.00012648,0.00148658,-0.00037426,0.00017639,0.00
 037102,0.00021854,-0.00057694,-0.00000444,0.00000458,0.00004734,0.0000
 3339,-0.00010241,-0.00000443,0.00002500,0.00001132,0.00006837,-0.10181
 731,0.09844061,0.00350930,0.00010316,0.00247157,-0.00025615,-0.0016074
 7,0.00507956,-0.00014509,-0.00090336,-0.00071236,-0.00135076,-0.000398
 76,0.00740955,-0.00353986,0.00241091,0.00218240,-0.00730763,-0.0030386
 0,-0.03426198,0.00041843,0.00082331,-0.00433293,0.00020760,-0.00054220
 ,0.00042568,-0.00023458,0.00022469,-0.00054391,0.00023764,-0.00014947,
 0.00050745,-0.00031528,0.00025283,-0.00023082,0.00000355,0.00000008,-0
 .00000115,0.00002937,0.00009683,-0.00000965,0.00006288,0.00002471,-0.0
 0007637,0.00839406,0.00236348,0.02535009,-0.16119449,-0.05893937,-0.02
 034110,-0.03040644,-0.02051189,-0.00719894,-0.00086933,0.00559934,-0.0
 0051604,-0.00180836,-0.00154745,0.00174485,0.00132363,0.00266166,0.000
 62935,0.00368481,-0.00387164,-0.00003937,0.00048573,0.00052686,-0.0000
 4311,-0.00020605,-0.00034824,-0.00056453,-0.00058201,-0.00130579,-0.00
 034548,0.00145302,-0.00126961,0.00047342,0.00127437,0.00098054,-0.0009
 7534,0.00006758,0.00003001,-0.00000284,-0.00039564,0.00017021,0.000059
 89,0.00008235,0.00006699,-0.00001553,0.00074159,0.00196499,0.00004931,
 0.52383037,-0.05423097,-0.13272942,-0.01598755,0.00237858,0.00996274,0
 .00164866,0.00428292,0.00116084,0.00113369,-0.00131247,-0.00265213,0.0
 0181006,0.00326119,-0.00285931,-0.00137210,-0.02736416,-0.02192606,-0.
 00761916,-0.00091053,-0.00052586,-0.00015864,-0.00053830,0.00004720,-0
 .00091926,0.00145450,0.00048481,0.00018549,0.00098219,0.00058991,-0.00
 036979,0.00128316,0.00105685,-0.00058516,0.00003541,0.00004156,-0.0000
 2012,0.00027744,-0.00015480,-0.00000367,-0.00003042,-0.00002939,-0.000
 01640,-0.00129037,0.00110033,0.00074324,-0.04669136,0.53408847,-0.0159
 6630,-0.01362848,-0.06961452,-0.00346654,-0.00129780,0.00250495,0.0004
 4816,0.00060050,0.00491330,-0.00062508,-0.00102435,-0.00027910,-0.0001
 2209,-0.00025124,0.00571068,-0.00266622,-0.00311546,0.00387955,0.00006
 955,0.00006475,0.00024831,-0.00005047,0.00004667,-0.00103131,0.0002666
 6,0.00010988,0.00032901,0.00009736,0.00018864,-0.00261712,0.00047811,0
 .00046824,0.00035384,-0.00006925,-0.00004189,-0.00000603,0.00018821,-0
 .00006237,-0.00006577,-0.00010469,-0.00011995,-0.00000699,0.00019520,0
 .00037260,-0.00346955,-0.01256311,-0.00995356,0.52084558,0.00226950,-0
 .02251438,0.01353952,0.00079361,-0.00092327,-0.00038212,0.00037938,0.0
 0028694,-0.00006977,0.00012465,-0.00032942,0.00023047,0.00027724,-0.00
 066985,-0.00081540,-0.00312282,-0.00062845,-0.00024482,-0.00021669,-0.
 00014194,-0.00011888,0.00001275,0.00016420,-0.00018488,0.00008795,0.00
 009499,-0.00004637,-0.00034418,0.00047439,0.00003016,-0.00011666,-0.00
 006281,0.00025073,-0.00003140,-0.00001079,-0.00001129,0.00002000,-0.00
 007454,0.00003488,-0.00004794,-0.00005033,-0.00001263,0.00016159,-0.00
 028558,0.00011083,-0.05035202,0.02004301,-0.01121870,0.05194127,0.0002
 9293,-0.01852504,0.00795224,0.00292060,0.00105953,-0.00054686,-0.00037
 469,-0.00094483,-0.00081451,0.00051093,0.00065162,-0.00036929,0.000123
 95,-0.00047262,-0.00076557,-0.00344828,-0.00085505,0.00047438,-0.00021
 371,-0.00017345,-0.00008431,-0.00011252,0.00010031,0.00014242,-0.00025
 058,0.00022842,-0.00001625,-0.00056705,0.00051993,0.00067495,-0.000351
 08,-0.00029947,0.00032924,-0.00002838,-0.00001007,0.00000361,0.0000415
 1,-0.00005811,0.00005158,-0.00003837,-0.00003234,0.00000187,-0.0001187
 3,0.00022547,0.00042825,0.01989954,-0.22794010,0.11761061,-0.01835717,
 0.25020301,0.00033611,-0.00839973,0.00386602,-0.00032106,0.00008743,0.
 00060358,0.00025124,0.00022965,0.00006935,0.00016825,-0.00027874,0.000
 02509,-0.00039567,-0.00055867,-0.00034142,-0.00076254,-0.00056308,-0.0
 0004956,-0.00006302,-0.00005988,-0.00003329,-0.00003742,-0.00005086,0.
 00010086,0.00010556,-0.00006883,-0.00001756,0.00035659,-0.00002650,0.0
 0003597,0.00004031,0.00006280,-0.00017685,0.00002769,0.00001214,-0.000
 00131,-0.00001974,0.00001450,-0.00000679,0.00001974,0.00002469,0.00000
 360,-0.00009889,0.00002786,0.00013554,-0.01094801,0.11868652,-0.118716
 47,0.01510217,-0.12826688,0.12756678,-0.00250771,-0.00911815,-0.024958
 44,-0.00042917,-0.00104393,0.00046623,0.00019076,0.00025898,0.00105034
 ,0.00071666,-0.00046493,-0.00049518,-0.00140589,-0.00067520,0.00033117
 ,-0.00037601,0.00187292,-0.00006482,-0.00008942,-0.00007274,0.00005891
 ,-0.00003416,0.00006394,-0.00013102,0.00000821,0.00003312,-0.00000497,
 -0.00019874,0.00036057,-0.00056263,-0.00027452,-0.00010542,0.00048398,
 -0.00005779,-0.00003591,-0.00000240,0.00005538,-0.00007174,-0.00001028
 ,-0.00011119,-0.00009058,-0.00001082,0.00017053,-0.00011075,-0.0001464
 4,-0.04485569,-0.00108081,-0.00881955,-0.00052569,-0.00065843,-0.00359
 150,0.04829585,-0.00372536,-0.00769099,-0.01938433,0.00247268,0.000474
 67,0.00042380,-0.00072726,-0.00165995,0.00015594,0.00031447,0.00087976
 ,-0.00068270,-0.00024725,-0.00031404,0.00108364,-0.00180640,-0.0005779
 6,0.00010324,-0.00007408,-0.00009168,-0.00004899,0.00009522,0.00010182
 ,0.00005746,-0.00007826,0.00018219,0.00000980,0.00005641,0.00016416,-0
 .00021054,-0.00052247,-0.00042640,0.00053930,-0.00007489,-0.00005561,-
 0.00000463,0.00005204,-0.00005394,0.00000823,-0.00006746,-0.00006149,-
 0.00000349,0.00008441,0.00002618,-0.00068797,-0.00025563,-0.05865696,-
 0.06259347,0.00034855,0.00749203,0.02728731,0.00485590,0.06436501,-0.0
 0348990,-0.00345990,-0.00161401,0.00125476,-0.00029358,0.00091645,-0.0
 0058258,-0.00104782,0.00009549,0.00085515,0.00070560,-0.00077491,-0.00
 084585,-0.00027936,-0.00001034,-0.00022239,0.00122180,-0.00003362,-0.0
 0005073,-0.00004256,0.00003372,0.00012171,0.00011312,0.00026463,-0.000
 16091,0.00012533,-0.00000664,-0.00010980,0.00008013,-0.00043582,-0.000
 64864,-0.00048091,0.00042367,-0.00003306,-0.00002208,0.00000196,0.0000
 2757,-0.00002208,0.00000227,-0.00004001,-0.00002928,0.,-0.00001377,0.0
 0009222,-0.00020756,-0.00521283,-0.06008987,-0.28227684,0.00018375,-0.
 00389426,-0.01756021,0.00858764,0.06854732,0.30803287,-0.02229322,0.01
 171983,0.00495364,-0.00277762,-0.00440874,-0.00016879,-0.00020258,0.00
 119441,-0.00030996,0.00038342,0.00010028,-0.00011852,-0.00026349,-0.00
 048417,-0.00041727,0.00148597,0.00307853,-0.00001990,-0.00002446,-0.00
 001332,0.00001611,0.00008057,-0.00015849,0.00001437,-0.00047780,-0.000
 38022,-0.00019072,0.00022617,-0.00008303,0.00018920,-0.00016549,-0.000
 09056,0.00017341,-0.00002905,-0.00002468,-0.00000024,-0.00008819,0.000
 04566,0.00004815,-0.00001589,-0.00001511,-0.00000671,0.00074087,-0.001
 13661,0.00027280,-0.24227341,0.09945100,0.05392876,-0.00131056,0.00072
 954,-0.00016982,0.00142859,-0.00070063,0.00037990,0.26557617,-0.018276
 37,0.00929482,0.00547464,-0.00249051,-0.00266888,-0.00087279,-0.000534
 50,0.00101124,-0.00042329,-0.00000879,-0.00013699,0.00015326,-0.000111
 07,0.00017730,0.00013405,-0.00123646,0.00113582,0.00012858,0.00006269,
 0.00005230,-0.00003774,0.00010515,0.00005378,-0.00005279,-0.00012328,-
 0.00026538,-0.00007846,-0.00029001,0.00015019,0.00009110,-0.00004815,-
 0.00001604,0.00005863,-0.00000522,-0.00000201,-0.00000380,-0.00011018,
 -0.00000732,0.00002552,-0.00001000,-0.00001419,-0.00001001,0.00033993,
 -0.00017949,-0.00014369,0.10284086,-0.10105868,-0.02737331,0.02263646,
 -0.01116923,-0.00815973,0.00608315,-0.00409679,-0.00122383,-0.10882370
 ,0.10773954,-0.00737973,0.00312974,-0.00001302,-0.00066860,-0.00082217
 ,0.00089912,-0.00071291,-0.00035726,0.00025085,-0.00004720,0.00029911,
 -0.00007033,0.00010659,0.00017577,-0.00011036,-0.00009337,0.00000632,0
 .00008185,0.00002297,0.00000962,-0.00003045,0.00000369,-0.00002639,0.0
 0009077,-0.00004180,-0.00006456,-0.00012001,0.00009672,-0.00010919,-0.
 00013676,-0.00003705,-0.00005941,-0.00003929,0.00000802,0.00000429,0.0
 0000341,-0.00004050,0.00001962,-0.00004660,0.00001654,0.00001480,0.000
 00280,0.00008945,0.00008958,0.00028443,0.05580942,-0.02711238,-0.06070
 152,-0.01637764,0.00708878,0.00449667,0.02781978,-0.01459991,-0.006851
 11,-0.05857439,0.03231365,0.06200953\\0.00000312,0.00000581,-0.0000023
 6,-0.00000115,0.00000022,-0.00000303,-0.00000123,-0.00000185,0.0000007
 2,-0.00000010,-0.00000163,0.00000413,0.00000092,-0.00000035,0.00000235
 ,0.00000057,0.00000086,-0.00000205,0.00000113,-0.00000080,0.00000483,-
 0.00000008,-0.00000370,0.00000850,-0.00000199,-0.00000324,0.00000275,-
 0.00000228,-0.00000029,-0.00000498,0.00000303,-0.00000045,0.00000899,0
 .00000476,0.00000081,0.00001057,-0.00000206,-0.00000464,0.00000560,0.0
 0000357,0.00000007,0.00000931,0.00000068,0.00000181,-0.00000262,-0.000
 00530,-0.00000313,-0.00001049,-0.00000397,0.00000144,-0.00001241,0.000
 00098,0.00000544,-0.00000955,-0.00000060,0.00000362,-0.00001025\\\@


 OLD HORSE! OLD HORSE! WHAT BROUGHT YOU HERE?
 FROM SACARAP' TO PORTLAND PIER
 I'VE CARTED STONE THIS MANY A YEAR;
 TILL, KILLED BY BLOWS AND SORE ABUSE,
 THEY SALTED ME DOWN FOR SAILORS' USE.
 THE SAILORS THEY DO ME DESPISE;
 THEY TURN ME OVER AND DAMN MY EYES;
 CUT OFF MY MEAT, AND SCRAPE MY BONES,
 AND PITCH ME OVER TO DAVY JONES.

    SAILORS' COMPLAINT ABOUT THE BEEF
    SERVED ON SHIPBOARD, CIRCA 1835.
 Job cpu time:       0 days  0 hours 37 minutes  7.5 seconds.
 File lengths (MBytes):  RWF=    318 Int=      0 D2E=      0 Chk=      8 Scr=      2
 Normal termination of Gaussian 09 at Fri Sep  9 23:04:36 2022.
