 Entering Gaussian System, Link 0=g09
 Input=SR-14-ts-SR-15.gjf
 Output=SR-14-ts-SR-15.log
 Initial command:
 /home/t1000003974/apps//g09/l1.exe "/home/t1000003974/tmp/Gau-4773.inp" -scrdir="/home/t1000003974/tmp/"
 Entering Link 1 = /home/t1000003974/apps//g09/l1.exe PID=      4774.
  
 Copyright (c) 1988,1990,1992,1993,1995,1998,2003,2009,2015,
            Gaussian, Inc.  All Rights Reserved.
  
 This is part of the Gaussian(R) 09 program.  It is based on
 the Gaussian(R) 03 system (copyright 2003, Gaussian, Inc.),
 the Gaussian(R) 98 system (copyright 1998, Gaussian, Inc.),
 the Gaussian(R) 94 system (copyright 1995, Gaussian, Inc.),
 the Gaussian 92(TM) system (copyright 1992, Gaussian, Inc.),
 the Gaussian 90(TM) system (copyright 1990, Gaussian, Inc.),
 the Gaussian 88(TM) system (copyright 1988, Gaussian, Inc.),
 the Gaussian 86(TM) system (copyright 1986, Carnegie Mellon
 University), and the Gaussian 82(TM) system (copyright 1983,
 Carnegie Mellon University). Gaussian is a federally registered
 trademark of Gaussian, Inc.
  
 This software contains proprietary and confidential information,
 including trade secrets, belonging to Gaussian, Inc.
  
 This software is provided under written license and may be
 used, copied, transmitted, or stored only in accord with that
 written license.
  
 The following legend is applicable only to US Government
 contracts under FAR:
  
                    RESTRICTED RIGHTS LEGEND
  
 Use, reproduction and disclosure by the US Government is
 subject to restrictions as set forth in subparagraphs (a)
 and (c) of the Commercial Computer Software - Restricted
 Rights clause in FAR 52.227-19.
  
 Gaussian, Inc.
 340 Quinnipiac St., Bldg. 40, Wallingford CT 06492
  
  
 ---------------------------------------------------------------
 Warning -- This program may not be used in any manner that
 competes with the business of Gaussian, Inc. or will provide
 assistance to any competitor of Gaussian, Inc.  The licensee
 of this program is prohibited from giving any competitor of
 Gaussian, Inc. access to this program.  By using this program,
 the user acknowledges that Gaussian, Inc. is engaged in the
 business of creating and licensing software in the field of
 computational chemistry and represents and warrants to the
 licensee that it is not a competitor of Gaussian, Inc. and that
 it will not use this program in any manner prohibited above.
 ---------------------------------------------------------------
  

 Cite this work as:
 Gaussian 09, Revision E.01,
 M. J. Frisch, G. W. Trucks, H. B. Schlegel, G. E. Scuseria, 
 M. A. Robb, J. R. Cheeseman, G. Scalmani, V. Barone, B. Mennucci, 
 G. A. Petersson, H. Nakatsuji, M. Caricato, X. Li, H. P. Hratchian, 
 A. F. Izmaylov, J. Bloino, G. Zheng, J. L. Sonnenberg, M. Hada, 
 M. Ehara, K. Toyota, R. Fukuda, J. Hasegawa, M. Ishida, T. Nakajima, 
 Y. Honda, O. Kitao, H. Nakai, T. Vreven, J. A. Montgomery, Jr., 
 J. E. Peralta, F. Ogliaro, M. Bearpark, J. J. Heyd, E. Brothers, 
 K. N. Kudin, V. N. Staroverov, T. Keith, R. Kobayashi, J. Normand, 
 K. Raghavachari, A. Rendell, J. C. Burant, S. S. Iyengar, J. Tomasi, 
 M. Cossi, N. Rega, J. M. Millam, M. Klene, J. E. Knox, J. B. Cross, 
 V. Bakken, C. Adamo, J. Jaramillo, R. Gomperts, R. E. Stratmann, 
 O. Yazyev, A. J. Austin, R. Cammi, C. Pomelli, J. W. Ochterski, 
 R. L. Martin, K. Morokuma, V. G. Zakrzewski, G. A. Voth, 
 P. Salvador, J. J. Dannenberg, S. Dapprich, A. D. Daniels, 
 O. Farkas, J. B. Foresman, J. V. Ortiz, J. Cioslowski, 
 and D. J. Fox, Gaussian, Inc., Wallingford CT, 2013.
 
 ******************************************
 Gaussian 09:  ES64L-G09RevE.01 30-Nov-2015
                 9-Sep-2022 
 ******************************************
 %nprocshared=20
 Will use up to   20 processors via shared memory.
 %mem=58339MB
 %chk=SR-14-ts-SR-15.chk
 ----------------------------------------------------------------------
 # opt=(calcfc,ts,noeigentest) freq ub3lyp/6-311g(d,p) geom=connectivit
 y temperature=823.15
 ----------------------------------------------------------------------
 1/5=1,10=4,11=1,14=-1,18=20,26=3,38=1,57=2,112=823150/1,3;
 2/9=110,12=2,17=6,18=5,40=1/2;
 3/5=4,6=6,7=101,11=2,16=1,25=1,30=1,71=2,74=-5,116=2,140=1/1,2,3;
 4//1;
 5/5=2,38=5/2;
 8/6=4,10=90,11=11/1;
 11/6=1,8=1,9=11,15=111,16=1/1,2,10;
 10/6=1,13=1/2;
 6/7=2,8=2,9=2,10=2,28=1/1;
 7/10=1,18=20,25=1/1,2,3,16;
 1/5=1,10=4,11=1,14=-1,18=20,26=3/3(2);
 2/9=110/2;
 99//99;
 2/9=110/2;
 3/5=4,6=6,7=101,11=2,16=1,25=1,30=1,71=1,74=-5,116=2/1,2,3;
 4/5=5,16=3,69=1/1;
 5/5=2,38=5/2;
 7//1,2,3,16;
 1/5=1,11=1,14=-1,18=20,26=3/3(-5);
 2/9=110/2;
 6/7=2,8=2,9=2,10=2,19=2,28=1/1;
 99/9=1/99;
 -------------------
 Title Card Required
 -------------------
 Symbolic Z-matrix:
 Charge =  0 Multiplicity = 2
 C                    -1.52807   1.2392   -0.04273 
 C                    -0.23175   1.76661  -0.05539 
 C                     0.85811   0.9251   -0.06069 
 C                     0.67367  -0.51839  -0.13154 
 C                    -0.68105  -1.01617  -0.02824 
 C                    -1.75573  -0.1628    0.00118 
 H                    -0.82243  -2.09085  -0.0169 
 O                     1.81399  -1.22795   0.79662 
 O                     2.12204   1.40507   0.02713 
 H                    -0.06111   2.83578  -0.01739 
 C                     1.77808  -1.38686  -0.60262 
 H                     1.50919  -2.38175  -0.96134 
 H                     2.64226   0.70459   0.45527 
 H                     2.59305  -0.92716  -1.16543 
 H                    -2.75231  -0.54835   0.05648 
 C                    -2.73176   2.19944  -0.01698 
 H                    -2.90271   2.53026   0.98614 
 H                    -2.52757   3.04416  -0.64121 
 H                    -3.60134   1.69109  -0.37797 
 

 GradGradGradGradGradGradGradGradGradGradGradGradGradGradGradGradGradGrad
 Berny optimization.
 Initialization pass.
                           ----------------------------
                           !    Initial Parameters    !
                           ! (Angstroms and Degrees)  !
 --------------------------                            --------------------------
 ! Name  Definition              Value          Derivative Info.                !
 --------------------------------------------------------------------------------
 ! R1    R(1,2)                  1.3996         calculate D2E/DX2 analytically  !
 ! R2    R(1,6)                  1.421          calculate D2E/DX2 analytically  !
 ! R3    R(1,16)                 1.54           calculate D2E/DX2 analytically  !
 ! R4    R(2,3)                  1.3769         calculate D2E/DX2 analytically  !
 ! R5    R(2,10)                 1.0834         calculate D2E/DX2 analytically  !
 ! R6    R(3,4)                  1.4569         calculate D2E/DX2 analytically  !
 ! R7    R(3,9)                  1.3549         calculate D2E/DX2 analytically  !
 ! R8    R(4,5)                  1.447          calculate D2E/DX2 analytically  !
 ! R9    R(4,11)                 1.4818         calculate D2E/DX2 analytically  !
 ! R10   R(5,6)                  1.3726         calculate D2E/DX2 analytically  !
 ! R11   R(5,7)                  1.084          calculate D2E/DX2 analytically  !
 ! R12   R(6,15)                 1.07           calculate D2E/DX2 analytically  !
 ! R13   R(8,11)                 1.4087         calculate D2E/DX2 analytically  !
 ! R14   R(9,13)                 0.9719         calculate D2E/DX2 analytically  !
 ! R15   R(11,12)                1.0912         calculate D2E/DX2 analytically  !
 ! R16   R(11,14)                1.0919         calculate D2E/DX2 analytically  !
 ! R17   R(16,17)                1.07           calculate D2E/DX2 analytically  !
 ! R18   R(16,18)                1.07           calculate D2E/DX2 analytically  !
 ! R19   R(16,19)                1.07           calculate D2E/DX2 analytically  !
 ! A1    A(2,1,6)              121.3626         calculate D2E/DX2 analytically  !
 ! A2    A(2,1,16)             119.2842         calculate D2E/DX2 analytically  !
 ! A3    A(6,1,16)             119.3041         calculate D2E/DX2 analytically  !
 ! A4    A(1,2,3)              120.189          calculate D2E/DX2 analytically  !
 ! A5    A(1,2,10)             121.1627         calculate D2E/DX2 analytically  !
 ! A6    A(3,2,10)             118.5944         calculate D2E/DX2 analytically  !
 ! A7    A(2,3,4)              120.3641         calculate D2E/DX2 analytically  !
 ! A8    A(2,3,9)              121.4421         calculate D2E/DX2 analytically  !
 ! A9    A(4,3,9)              118.1797         calculate D2E/DX2 analytically  !
 ! A10   A(3,4,5)              117.1217         calculate D2E/DX2 analytically  !
 ! A11   A(3,4,11)             120.1171         calculate D2E/DX2 analytically  !
 ! A12   A(5,4,11)             121.2556         calculate D2E/DX2 analytically  !
 ! A13   A(4,5,6)              121.3781         calculate D2E/DX2 analytically  !
 ! A14   A(4,5,7)              117.6397         calculate D2E/DX2 analytically  !
 ! A15   A(6,5,7)              120.9329         calculate D2E/DX2 analytically  !
 ! A16   A(1,6,5)              119.1629         calculate D2E/DX2 analytically  !
 ! A17   A(1,6,15)             120.4185         calculate D2E/DX2 analytically  !
 ! A18   A(5,6,15)             120.4185         calculate D2E/DX2 analytically  !
 ! A19   A(3,9,13)             105.8166         calculate D2E/DX2 analytically  !
 ! A20   A(4,11,8)              68.7228         calculate D2E/DX2 analytically  !
 ! A21   A(4,11,12)            117.0773         calculate D2E/DX2 analytically  !
 ! A22   A(4,11,14)            118.2548         calculate D2E/DX2 analytically  !
 ! A23   A(8,11,12)            115.8269         calculate D2E/DX2 analytically  !
 ! A24   A(8,11,14)            116.453          calculate D2E/DX2 analytically  !
 ! A25   A(12,11,14)           113.4719         calculate D2E/DX2 analytically  !
 ! A26   A(1,16,17)            109.4712         calculate D2E/DX2 analytically  !
 ! A27   A(1,16,18)            109.4712         calculate D2E/DX2 analytically  !
 ! A28   A(1,16,19)            109.4712         calculate D2E/DX2 analytically  !
 ! A29   A(17,16,18)           109.4713         calculate D2E/DX2 analytically  !
 ! A30   A(17,16,19)           109.4712         calculate D2E/DX2 analytically  !
 ! A31   A(18,16,19)           109.4712         calculate D2E/DX2 analytically  !
 ! D1    D(6,1,2,3)              1.7116         calculate D2E/DX2 analytically  !
 ! D2    D(6,1,2,10)          -175.5788         calculate D2E/DX2 analytically  !
 ! D3    D(16,1,2,3)           179.1455         calculate D2E/DX2 analytically  !
 ! D4    D(16,1,2,10)            1.855          calculate D2E/DX2 analytically  !
 ! D5    D(2,1,6,5)             -2.8686         calculate D2E/DX2 analytically  !
 ! D6    D(2,1,6,15)           177.1314         calculate D2E/DX2 analytically  !
 ! D7    D(16,1,6,5)           179.6981         calculate D2E/DX2 analytically  !
 ! D8    D(16,1,6,15)           -0.3019         calculate D2E/DX2 analytically  !
 ! D9    D(2,1,16,17)          -81.3906         calculate D2E/DX2 analytically  !
 ! D10   D(2,1,16,18)           38.6095         calculate D2E/DX2 analytically  !
 ! D11   D(2,1,16,19)          158.6094         calculate D2E/DX2 analytically  !
 ! D12   D(6,1,16,17)           96.0967         calculate D2E/DX2 analytically  !
 ! D13   D(6,1,16,18)         -143.9033         calculate D2E/DX2 analytically  !
 ! D14   D(6,1,16,19)          -23.9033         calculate D2E/DX2 analytically  !
 ! D15   D(1,2,3,4)              3.5726         calculate D2E/DX2 analytically  !
 ! D16   D(1,2,3,9)           -175.0362         calculate D2E/DX2 analytically  !
 ! D17   D(10,2,3,4)          -179.068          calculate D2E/DX2 analytically  !
 ! D18   D(10,2,3,9)             2.3231         calculate D2E/DX2 analytically  !
 ! D19   D(2,3,4,5)             -7.4196         calculate D2E/DX2 analytically  !
 ! D20   D(2,3,4,11)           158.7621         calculate D2E/DX2 analytically  !
 ! D21   D(9,3,4,5)            171.234          calculate D2E/DX2 analytically  !
 ! D22   D(9,3,4,11)           -22.5844         calculate D2E/DX2 analytically  !
 ! D23   D(2,3,9,13)           151.3347         calculate D2E/DX2 analytically  !
 ! D24   D(4,3,9,13)           -27.3036         calculate D2E/DX2 analytically  !
 ! D25   D(3,4,5,6)              6.3052         calculate D2E/DX2 analytically  !
 ! D26   D(3,4,5,7)           -176.2234         calculate D2E/DX2 analytically  !
 ! D27   D(11,4,5,6)          -159.7092         calculate D2E/DX2 analytically  !
 ! D28   D(11,4,5,7)            17.7622         calculate D2E/DX2 analytically  !
 ! D29   D(3,4,11,8)            91.336          calculate D2E/DX2 analytically  !
 ! D30   D(3,4,11,12)         -159.6385         calculate D2E/DX2 analytically  !
 ! D31   D(3,4,11,14)          -18.1408         calculate D2E/DX2 analytically  !
 ! D32   D(5,4,11,8)          -103.0631         calculate D2E/DX2 analytically  !
 ! D33   D(5,4,11,12)            5.9624         calculate D2E/DX2 analytically  !
 ! D34   D(5,4,11,14)          147.4601         calculate D2E/DX2 analytically  !
 ! D35   D(4,5,6,1)             -1.332          calculate D2E/DX2 analytically  !
 ! D36   D(4,5,6,15)           178.668          calculate D2E/DX2 analytically  !
 ! D37   D(7,5,6,1)           -178.7205         calculate D2E/DX2 analytically  !
 ! D38   D(7,5,6,15)             1.2795         calculate D2E/DX2 analytically  !
 --------------------------------------------------------------------------------
 Trust Radius=3.00D-01 FncErr=1.00D-07 GrdErr=1.00D-06
 Number of steps in this run=     98 maximum allowed number of steps=    114.
 Search for a saddle point of order  1.
 GradGradGradGradGradGradGradGradGradGradGradGradGradGradGradGradGradGrad

                          Input orientation:                          
 ---------------------------------------------------------------------
 Center     Atomic      Atomic             Coordinates (Angstroms)
 Number     Number       Type             X           Y           Z
 ---------------------------------------------------------------------
      1          6           0       -1.528072    1.239201   -0.042734
      2          6           0       -0.231749    1.766608   -0.055392
      3          6           0        0.858106    0.925098   -0.060690
      4          6           0        0.673673   -0.518392   -0.131536
      5          6           0       -0.681050   -1.016168   -0.028236
      6          6           0       -1.755726   -0.162796    0.001180
      7          1           0       -0.822430   -2.090855   -0.016898
      8          8           0        1.813991   -1.227948    0.796623
      9          8           0        2.122040    1.405074    0.027131
     10          1           0       -0.061111    2.835783   -0.017390
     11          6           0        1.778076   -1.386855   -0.602620
     12          1           0        1.509193   -2.381750   -0.961344
     13          1           0        2.642257    0.704589    0.455267
     14          1           0        2.593050   -0.927161   -1.165435
     15          1           0       -2.752314   -0.548352    0.056479
     16          6           0       -2.731763    2.199443   -0.016978
     17          1           0       -2.902708    2.530261    0.986136
     18          1           0       -2.527569    3.044157   -0.641208
     19          1           0       -3.601342    1.691093   -0.377966
 ---------------------------------------------------------------------
                    Distance matrix (angstroms):
                    1          2          3          4          5
     1  C    0.000000
     2  C    1.399561   0.000000
     3  C    2.406830   1.376935   0.000000
     4  C    2.818634   2.459027   1.456948   0.000000
     5  C    2.409221   2.818945   2.477613   1.446971   0.000000
     6  C    1.421038   2.459330   2.831865   2.458870   1.372602
     7  H    3.404096   3.902615   3.452838   2.173501   1.084006
     8  O    4.238010   3.725365   2.506852   1.632567   2.636375
     9  O    3.654547   2.382822   1.354850   2.413020   3.704429
    10  H    2.168338   1.083373   2.120743   3.435612   3.901534
    11  C    4.259138   3.779310   2.546598   1.481841   2.552377
    12  H    4.814573   4.589172   3.488601   2.204264   2.744571
    13  H    4.233847   3.106214   1.870302   2.390678   3.773480
    14  H    4.789283   4.058088   2.767915   2.218118   3.467113
    15  H    2.168861   3.424150   3.901272   3.431273   2.125127
    16  C    1.540000   2.537497   3.809596   4.358526   3.813883
    17  H    2.148263   2.966811   4.220914   4.830525   4.306027
    18  H    2.148263   2.691858   4.036113   4.816583   4.502400
    19  H    2.148263   3.385840   4.535867   4.818537   3.997459
                    6          7          8          9         10
     6  C    0.000000
     7  H    2.142144   0.000000
     8  O    3.809220   2.890872   0.000000
     9  O    4.182817   4.570926   2.760402   0.000000
    10  H    3.444349   4.985115   4.548905   2.610567   0.000000
    11  C    3.788225   2.757049   1.408695   2.882666   4.642820
    12  H    4.063238   2.532403   2.124761   3.961401   5.529878
    13  H    4.505642   4.476774   2.130082   0.971908   3.474707
    14  H    4.566957   3.786664   2.132388   2.661463   4.745769
    15  H    1.070000   2.471670   4.675555   5.251292   4.324396
    16  C    2.556003   4.695978   5.750899   4.918574   2.745416
    17  H    3.088407   5.166076   6.033846   5.237731   3.029040
    18  H    3.360499   5.446615   6.258385   4.975152   2.552643
    19  H    2.643285   4.707000   6.263089   5.744824   3.738123
                   11         12         13         14         15
    11  C    0.000000
    12  H    1.091236   0.000000
    13  H    2.498014   3.579959   0.000000
    14  H    1.091907   1.825439   2.300370   0.000000
    15  H    4.654239   4.749501   5.552503   5.496316   0.000000
    16  C    5.791645   6.313863   5.598008   6.280783   2.748854
    17  H    6.306955   6.883705   5.861871   6.840057   3.219431
    18  H    6.178506   6.770406   5.779528   6.501302   3.666524
    19  H    6.201804   6.560941   6.375735   6.770956   2.434071
                   16         17         18         19
    16  C    0.000000
    17  H    1.070000   0.000000
    18  H    1.070000   1.747303   0.000000
    19  H    1.070000   1.747303   1.747303   0.000000
 Stoichiometry    C8H9O2(2)
 Framework group  C1[X(C8H9O2)]
 Deg. of freedom    51
 Full point group                 C1      NOp   1
 Largest Abelian subgroup         C1      NOp   1
 Largest concise Abelian subgroup C1      NOp   1
                         Standard orientation:                         
 ---------------------------------------------------------------------
 Center     Atomic      Atomic             Coordinates (Angstroms)
 Number     Number       Type             X           Y           Z
 ---------------------------------------------------------------------
      1          6           0       -1.820533   -0.026587   -0.019384
      2          6           0       -0.972491    1.086103   -0.058328
      3          6           0        0.393757    0.915300   -0.070350
      4          6           0        0.968287   -0.422624   -0.121067
      5          6           0        0.055544   -1.537836    0.009047
      6          6           0       -1.303490   -1.348668    0.044807
      7          1           0        0.480243   -2.534834    0.035421
      8          8           0        2.317614   -0.437231    0.797832
      9          8           0        1.238744    1.972513   -0.007768
     10          1           0       -1.368839    2.094119   -0.035757
     11          6           0        2.357416   -0.617690   -0.598689
     12          1           0        2.629097   -1.617494   -0.941296
     13          1           0        2.045898    1.641507    0.420652
     14          1           0        2.821440    0.182093   -1.179457
     15          1           0       -1.965240   -2.186118    0.120067
     16          6           0       -3.345020    0.188968    0.013427
     17          1           0       -3.653193    0.405137    1.015026
     18          1           0       -3.603119    1.008754   -0.623939
     19          1           0       -3.837967   -0.697217   -0.328008
 ---------------------------------------------------------------------
 Rotational constants (GHZ):      2.6832627      1.0502769      0.7995507
 Standard basis: 6-311G(d,p) (5D, 7F)
 There are   244 symmetry adapted cartesian basis functions of A   symmetry.
 There are   234 symmetry adapted basis functions of A   symmetry.
   234 basis functions,   392 primitive gaussians,   244 cartesian basis functions
    37 alpha electrons       36 beta electrons
       nuclear repulsion energy       513.0910850047 Hartrees.
 NAtoms=   19 NActive=   19 NUniq=   19 SFac= 1.00D+00 NAtFMM=   60 NAOKFM=F Big=F
 Integral buffers will be    131072 words long.
 Raffenetti 2 integral format.
 Two-electron integral symmetry is turned on.
 One-electron integrals computed using PRISM.
 NBasis=   234 RedAO= T EigKep=  2.00D-04  NBF=   234
 NBsUse=   234 1.00D-06 EigRej= -1.00D+00 NBFU=   234
 ExpMin= 1.03D-01 ExpMax= 8.59D+03 ExpMxC= 1.30D+03 IAcc=1 IRadAn=         1 AccDes= 0.00D+00
 Harris functional with IExCor=  402 and IRadAn=       1 diagonalized for initial guess.
 HarFok:  IExCor=  402 AccDes= 0.00D+00 IRadAn=         1 IDoV= 1 UseB2=F ITyADJ=14
 ICtDFT=  3500011 ScaDFX=  1.000000  1.000000  1.000000  1.000000
 FoFCou: FMM=F IPFlag=           0 FMFlag=      100000 FMFlg1=           0
         NFxFlg=           0 DoJE=T BraDBF=F KetDBF=T FulRan=T
         wScrn=  0.000000 ICntrl=     500 IOpCl=  0 I1Cent=   200000004 NGrid=           0
         NMat0=    1 NMatS0=      1 NMatT0=    0 NMatD0=    1 NMtDS0=    0 NMtDT0=    0
 Petite list used in FoFCou.
 Initial guess <Sx>= 0.0000 <Sy>= 0.0000 <Sz>= 0.5000 <S**2>= 0.7500 S= 0.5000
 Keep R1 and R2 ints in memory in canonical form, NReq=763559320.
 Requested convergence on RMS density matrix=1.00D-08 within 128 cycles.
 Requested convergence on MAX density matrix=1.00D-06.
 Requested convergence on             energy=1.00D-06.
 No special actions if energy rises.
 Integral accuracy reduced to 1.0D-05 until final iterations.
 Initial convergence to 1.0D-05 achieved.  Increase integral accuracy.
 SCF Done:  E(UB3LYP) =  -460.747486362     A.U. after   19 cycles
            NFock= 19  Conv=0.52D-08     -V/T= 2.0036
 <Sx>= 0.0000 <Sy>= 0.0000 <Sz>= 0.5000 <S**2>= 0.7804 S= 0.5151
 <L.S>= 0.000000000000E+00
 Annihilation of the first spin contaminant:
 S**2 before annihilation     0.7804,   after     0.7507
 DoSCS=F DFT=T ScalE2(SS,OS)=  1.000000  1.000000
 Range of M.O.s used for correlation:     1   234
 NBasis=   234 NAE=    37 NBE=    36 NFC=     0 NFV=     0
 NROrb=    234 NOA=    37 NOB=    36 NVA=   197 NVB=   198

 **** Warning!!: The largest alpha MO coefficient is  0.15206581D+02


 **** Warning!!: The largest beta MO coefficient is  0.15130381D+02

 Symmetrizing basis deriv contribution to polar:
 IMax=3 JMax=2 DiffMx= 0.00D+00
 G2DrvN: will do    20 centers at a time, making    1 passes.
 Calling FoFCou, ICntrl=  3107 FMM=F I1Cent=   0 AccDes= 0.00D+00.
 End of G2Drv F.D. properties file   721 does not exist.
 End of G2Drv F.D. properties file   722 does not exist.
 End of G2Drv F.D. properties file   788 does not exist.
          IDoAtm=1111111111111111111
          Differentiating once with respect to nuclear coordinates.
 Keep R1 and R2 ints in memory in canonical form, NReq=763362241.
          There are    60 degrees of freedom in the 1st order CPHF.  IDoFFX=6 NUNeed=     0.
     54 vectors produced by pass  0 Test12= 2.40D-14 1.67D-09 XBig12= 3.57D-01 2.74D-01.
 AX will form    54 AO Fock derivatives at one time.
     54 vectors produced by pass  1 Test12= 2.40D-14 1.67D-09 XBig12= 7.38D-02 6.08D-02.
     54 vectors produced by pass  2 Test12= 2.40D-14 1.67D-09 XBig12= 1.60D-03 1.04D-02.
     54 vectors produced by pass  3 Test12= 2.40D-14 1.67D-09 XBig12= 1.74D-05 6.96D-04.
     54 vectors produced by pass  4 Test12= 2.40D-14 1.67D-09 XBig12= 1.27D-07 3.88D-05.
     54 vectors produced by pass  5 Test12= 2.40D-14 1.67D-09 XBig12= 7.43D-10 2.50D-06.
     44 vectors produced by pass  6 Test12= 2.40D-14 1.67D-09 XBig12= 3.44D-12 1.40D-07.
     11 vectors produced by pass  7 Test12= 2.40D-14 1.67D-09 XBig12= 1.67D-14 1.14D-08.
 InvSVY:  IOpt=1 It=  1 EMax= 7.77D-16
 Solved reduced A of dimension   379 with    60 vectors.
 End of Minotr F.D. properties file   721 does not exist.
 End of Minotr F.D. properties file   722 does not exist.
 End of Minotr F.D. properties file   788 does not exist.

 **********************************************************************

            Population analysis using the SCF density.

 **********************************************************************

 Orbital symmetries:
 Alpha Orbitals:
       Occupied  (A) (A) (A) (A) (A) (A) (A) (A) (A) (A) (A) (A)
                 (A) (A) (A) (A) (A) (A) (A) (A) (A) (A) (A) (A)
                 (A) (A) (A) (A) (A) (A) (A) (A) (A) (A) (A) (A)
                 (A)
       Virtual   (A) (A) (A) (A) (A) (A) (A) (A) (A) (A) (A) (A)
                 (A) (A) (A) (A) (A) (A) (A) (A) (A) (A) (A) (A)
                 (A) (A) (A) (A) (A) (A) (A) (A) (A) (A) (A) (A)
                 (A) (A) (A) (A) (A) (A) (A) (A) (A) (A) (A) (A)
                 (A) (A) (A) (A) (A) (A) (A) (A) (A) (A) (A) (A)
                 (A) (A) (A) (A) (A) (A) (A) (A) (A) (A) (A) (A)
                 (A) (A) (A) (A) (A) (A) (A) (A) (A) (A) (A) (A)
                 (A) (A) (A) (A) (A) (A) (A) (A) (A) (A) (A) (A)
                 (A) (A) (A) (A) (A) (A) (A) (A) (A) (A) (A) (A)
                 (A) (A) (A) (A) (A) (A) (A) (A) (A) (A) (A) (A)
                 (A) (A) (A) (A) (A) (A) (A) (A) (A) (A) (A) (A)
                 (A) (A) (A) (A) (A) (A) (A) (A) (A) (A) (A) (A)
                 (A) (A) (A) (A) (A) (A) (A) (A) (A) (A) (A) (A)
                 (A) (A) (A) (A) (A) (A) (A) (A) (A) (A) (A) (A)
                 (A) (A) (A) (A) (A) (A) (A) (A) (A) (A) (A) (A)
                 (A) (A) (A) (A) (A) (A) (A) (A) (A) (A) (A) (A)
                 (A) (A) (A) (A) (A)
 Beta  Orbitals:
       Occupied  (A) (A) (A) (A) (A) (A) (A) (A) (A) (A) (A) (A)
                 (A) (A) (A) (A) (A) (A) (A) (A) (A) (A) (A) (A)
                 (A) (A) (A) (A) (A) (A) (A) (A) (A) (A) (A) (A)
       Virtual   (A) (A) (A) (A) (A) (A) (A) (A) (A) (A) (A) (A)
                 (A) (A) (A) (A) (A) (A) (A) (A) (A) (A) (A) (A)
                 (A) (A) (A) (A) (A) (A) (A) (A) (A) (A) (A) (A)
                 (A) (A) (A) (A) (A) (A) (A) (A) (A) (A) (A) (A)
                 (A) (A) (A) (A) (A) (A) (A) (A) (A) (A) (A) (A)
                 (A) (A) (A) (A) (A) (A) (A) (A) (A) (A) (A) (A)
                 (A) (A) (A) (A) (A) (A) (A) (A) (A) (A) (A) (A)
                 (A) (A) (A) (A) (A) (A) (A) (A) (A) (A) (A) (A)
                 (A) (A) (A) (A) (A) (A) (A) (A) (A) (A) (A) (A)
                 (A) (A) (A) (A) (A) (A) (A) (A) (A) (A) (A) (A)
                 (A) (A) (A) (A) (A) (A) (A) (A) (A) (A) (A) (A)
                 (A) (A) (A) (A) (A) (A) (A) (A) (A) (A) (A) (A)
                 (A) (A) (A) (A) (A) (A) (A) (A) (A) (A) (A) (A)
                 (A) (A) (A) (A) (A) (A) (A) (A) (A) (A) (A) (A)
                 (A) (A) (A) (A) (A) (A) (A) (A) (A) (A) (A) (A)
                 (A) (A) (A) (A) (A) (A) (A) (A) (A) (A) (A) (A)
                 (A) (A) (A) (A) (A) (A)
 The electronic state is 2-A.
 Alpha  occ. eigenvalues --  -19.15474 -19.13404 -10.24703 -10.24194 -10.23237
 Alpha  occ. eigenvalues --  -10.19498 -10.18523 -10.17780 -10.17240 -10.16707
 Alpha  occ. eigenvalues --   -1.08153  -1.04462  -0.86225  -0.77623  -0.75747
 Alpha  occ. eigenvalues --   -0.70416  -0.65906  -0.62202  -0.61514  -0.54694
 Alpha  occ. eigenvalues --   -0.52076  -0.50254  -0.46614  -0.44788  -0.44421
 Alpha  occ. eigenvalues --   -0.44029  -0.42782  -0.40679  -0.39771  -0.38525
 Alpha  occ. eigenvalues --   -0.37148  -0.36196  -0.34156  -0.31205  -0.28633
 Alpha  occ. eigenvalues --   -0.25565  -0.17602
 Alpha virt. eigenvalues --   -0.01136   0.02125   0.04739   0.04839   0.06032
 Alpha virt. eigenvalues --    0.08331   0.08759   0.09893   0.11749   0.11957
 Alpha virt. eigenvalues --    0.12787   0.14280   0.16464   0.18258   0.21097
 Alpha virt. eigenvalues --    0.23040   0.24613   0.26625   0.29822   0.30736
 Alpha virt. eigenvalues --    0.32263   0.33744   0.34573   0.37230   0.37641
 Alpha virt. eigenvalues --    0.38753   0.38968   0.40875   0.43630   0.43887
 Alpha virt. eigenvalues --    0.44870   0.45298   0.46522   0.47073   0.49250
 Alpha virt. eigenvalues --    0.50468   0.52401   0.52605   0.54672   0.55861
 Alpha virt. eigenvalues --    0.56145   0.58159   0.59090   0.59537   0.61145
 Alpha virt. eigenvalues --    0.61915   0.63039   0.63601   0.64625   0.66966
 Alpha virt. eigenvalues --    0.69950   0.74587   0.75710   0.76592   0.78314
 Alpha virt. eigenvalues --    0.78505   0.81223   0.81493   0.86077   0.86876
 Alpha virt. eigenvalues --    0.90023   0.92241   0.94653   0.96200   0.98821
 Alpha virt. eigenvalues --    0.99416   1.01446   1.04488   1.05824   1.07897
 Alpha virt. eigenvalues --    1.10361   1.12872   1.16353   1.19845   1.23212
 Alpha virt. eigenvalues --    1.26804   1.33667   1.34242   1.35164   1.39694
 Alpha virt. eigenvalues --    1.40283   1.40792   1.45704   1.45799   1.46356
 Alpha virt. eigenvalues --    1.48952   1.49846   1.51060   1.53976   1.54977
 Alpha virt. eigenvalues --    1.55872   1.56599   1.58103   1.59632   1.60765
 Alpha virt. eigenvalues --    1.65271   1.65652   1.67042   1.68725   1.70925
 Alpha virt. eigenvalues --    1.71748   1.74353   1.77687   1.78753   1.79635
 Alpha virt. eigenvalues --    1.83581   1.85402   1.87413   1.90327   1.91260
 Alpha virt. eigenvalues --    1.92261   1.95697   1.97454   1.99596   2.00847
 Alpha virt. eigenvalues --    2.02420   2.05028   2.08838   2.10951   2.16264
 Alpha virt. eigenvalues --    2.18243   2.22957   2.24476   2.28693   2.30311
 Alpha virt. eigenvalues --    2.33895   2.36425   2.39478   2.40469   2.44906
 Alpha virt. eigenvalues --    2.47609   2.48140   2.52497   2.53027   2.54381
 Alpha virt. eigenvalues --    2.55145   2.57669   2.60200   2.63115   2.65352
 Alpha virt. eigenvalues --    2.66882   2.68290   2.69560   2.70961   2.71352
 Alpha virt. eigenvalues --    2.75440   2.80158   2.81098   2.83304   2.85582
 Alpha virt. eigenvalues --    2.86210   2.88699   2.99559   3.01554   3.04353
 Alpha virt. eigenvalues --    3.05556   3.07162   3.08669   3.12525   3.15716
 Alpha virt. eigenvalues --    3.19486   3.26630   3.29575   3.36528   3.42199
 Alpha virt. eigenvalues --    3.49151   3.50476   3.58672   3.59311   3.59914
 Alpha virt. eigenvalues --    3.71197   3.79530   3.83688   3.85680   3.88477
 Alpha virt. eigenvalues --    3.99639   4.09978   4.11361   4.27202   4.42408
 Alpha virt. eigenvalues --    4.77681   4.85658   4.93776   5.10308   5.33130
 Alpha virt. eigenvalues --    5.46550   5.68612  23.50880  23.81724  23.83622
 Alpha virt. eigenvalues --   23.86645  23.91061  23.99555  24.11485  24.16899
 Alpha virt. eigenvalues --   49.86749  49.90881
  Beta  occ. eigenvalues --  -19.15300 -19.12621 -10.24317 -10.24250 -10.23071
  Beta  occ. eigenvalues --  -10.18920 -10.18091 -10.17949 -10.17443 -10.16736
  Beta  occ. eigenvalues --   -1.07601  -1.03205  -0.85582  -0.76876  -0.75335
  Beta  occ. eigenvalues --   -0.70021  -0.65301  -0.61776  -0.61143  -0.54103
  Beta  occ. eigenvalues --   -0.51669  -0.49851  -0.46154  -0.44395  -0.44122
  Beta  occ. eigenvalues --   -0.43248  -0.42057  -0.40201  -0.38975  -0.38089
  Beta  occ. eigenvalues --   -0.36784  -0.35217  -0.33524  -0.29327  -0.27935
  Beta  occ. eigenvalues --   -0.24545
  Beta virt. eigenvalues --   -0.09486   0.00477   0.03770   0.04862   0.05116
  Beta virt. eigenvalues --    0.06258   0.08449   0.08834   0.10103   0.11967
  Beta virt. eigenvalues --    0.12230   0.12951   0.14411   0.17440   0.18864
  Beta virt. eigenvalues --    0.21464   0.23394   0.24886   0.26964   0.29937
  Beta virt. eigenvalues --    0.30821   0.32645   0.33976   0.34845   0.37525
  Beta virt. eigenvalues --    0.37911   0.38943   0.39641   0.41211   0.43862
  Beta virt. eigenvalues --    0.44148   0.45381   0.45703   0.46916   0.47504
  Beta virt. eigenvalues --    0.49362   0.50708   0.52608   0.53435   0.55206
  Beta virt. eigenvalues --    0.56278   0.56638   0.58327   0.59183   0.59761
  Beta virt. eigenvalues --    0.61174   0.61964   0.63178   0.63759   0.65057
  Beta virt. eigenvalues --    0.67357   0.70469   0.74905   0.76359   0.77072
  Beta virt. eigenvalues --    0.78593   0.78825   0.81439   0.81886   0.86253
  Beta virt. eigenvalues --    0.87121   0.90336   0.92495   0.95013   0.96732
  Beta virt. eigenvalues --    0.99011   0.99759   1.01861   1.05079   1.06277
  Beta virt. eigenvalues --    1.08483   1.10893   1.13138   1.17090   1.20264
  Beta virt. eigenvalues --    1.23490   1.27321   1.33825   1.34575   1.35665
  Beta virt. eigenvalues --    1.39923   1.40606   1.41140   1.45864   1.46182
  Beta virt. eigenvalues --    1.46499   1.49240   1.50216   1.51351   1.54301
  Beta virt. eigenvalues --    1.55347   1.55994   1.57032   1.58517   1.60068
  Beta virt. eigenvalues --    1.61143   1.65457   1.65957   1.67269   1.68966
  Beta virt. eigenvalues --    1.71210   1.72107   1.74666   1.78008   1.79144
  Beta virt. eigenvalues --    1.79956   1.83881   1.85843   1.87818   1.90811
  Beta virt. eigenvalues --    1.91716   1.92663   1.95973   1.97825   1.99810
  Beta virt. eigenvalues --    2.01194   2.02773   2.05369   2.09197   2.11289
  Beta virt. eigenvalues --    2.16795   2.18427   2.23062   2.24754   2.29168
  Beta virt. eigenvalues --    2.30624   2.34040   2.36863   2.39597   2.40692
  Beta virt. eigenvalues --    2.45056   2.47871   2.48314   2.52669   2.53249
  Beta virt. eigenvalues --    2.54931   2.55540   2.57854   2.60462   2.63220
  Beta virt. eigenvalues --    2.65440   2.67494   2.68569   2.70083   2.71114
  Beta virt. eigenvalues --    2.71527   2.75798   2.80486   2.81583   2.84550
  Beta virt. eigenvalues --    2.85824   2.86859   2.89161   3.00764   3.02372
  Beta virt. eigenvalues --    3.05591   3.06744   3.07564   3.09165   3.12831
  Beta virt. eigenvalues --    3.16263   3.20201   3.27006   3.29863   3.36804
  Beta virt. eigenvalues --    3.42419   3.49363   3.50939   3.58902   3.59441
  Beta virt. eigenvalues --    3.61221   3.71394   3.79758   3.83902   3.85726
  Beta virt. eigenvalues --    3.89171   3.99836   4.10206   4.11743   4.27725
  Beta virt. eigenvalues --    4.43070   4.78257   4.86377   4.94418   5.12869
  Beta virt. eigenvalues --    5.33506   5.47149   5.68858  23.51133  23.81947
  Beta virt. eigenvalues --   23.83787  23.86809  23.91274  23.99713  24.11515
  Beta virt. eigenvalues --   24.16991  49.87431  49.91155
          Condensed to atoms (all electrons):
               1          2          3          4          5          6
     1  C    5.158497   0.487944  -0.053744  -0.050444  -0.054856   0.482564
     2  C    0.487944   4.839139   0.555638  -0.057206  -0.036619  -0.053598
     3  C   -0.053744   0.555638   4.838933   0.224748   0.023656  -0.043899
     4  C   -0.050444  -0.057206   0.224748   5.648116   0.341080  -0.037889
     5  C   -0.054856  -0.036619   0.023656   0.341080   4.894089   0.539983
     6  C    0.482564  -0.053598  -0.043899  -0.037889   0.539983   4.829355
     7  H    0.008849  -0.000416   0.004487  -0.047205   0.420335  -0.036417
     8  O    0.000459   0.000939  -0.011720   0.021085   0.002800   0.000764
     9  O    0.004339  -0.050735   0.373762  -0.082991   0.004812  -0.000246
    10  H   -0.049881   0.401480  -0.035136   0.015118  -0.001661   0.006959
    11  C    0.000353   0.002490  -0.078683   0.255942  -0.054735   0.004186
    12  H   -0.000008   0.000163   0.009203  -0.015027  -0.009608  -0.000821
    13  H   -0.000130   0.006954  -0.037274  -0.027205  -0.000122  -0.000062
    14  H   -0.000230  -0.000773  -0.018561  -0.020494   0.007355   0.000328
    15  H   -0.049945   0.006283  -0.000532   0.009987  -0.034832   0.418307
    16  C    0.354317  -0.052778   0.005750   0.000270   0.005927  -0.055858
    17  H   -0.038508  -0.002314  -0.000117  -0.000047  -0.000204  -0.001111
    18  H   -0.037638  -0.006095   0.000766  -0.000069  -0.000277   0.004636
    19  H   -0.036987   0.006219  -0.000450   0.000067   0.000609  -0.006844
               7          8          9         10         11         12
     1  C    0.008849   0.000459   0.004339  -0.049881   0.000353  -0.000008
     2  C   -0.000416   0.000939  -0.050735   0.401480   0.002490   0.000163
     3  C    0.004487  -0.011720   0.373762  -0.035136  -0.078683   0.009203
     4  C   -0.047205   0.021085  -0.082991   0.015118   0.255942  -0.015027
     5  C    0.420335   0.002800   0.004812  -0.001661  -0.054735  -0.009608
     6  C   -0.036417   0.000764  -0.000246   0.006959   0.004186  -0.000821
     7  H    0.575952   0.002786  -0.000075   0.000085  -0.006030   0.000350
     8  O    0.002786   8.236929  -0.013795  -0.000104   0.144481  -0.024484
     9  O   -0.000075  -0.013795   7.779383   0.004880   0.005769   0.000001
    10  H    0.000085  -0.000104   0.004880   0.569051  -0.000401  -0.000001
    11  C   -0.006030   0.144481   0.005769  -0.000401   4.875515   0.383031
    12  H    0.000350  -0.024484   0.000001  -0.000001   0.383031   0.600543
    13  H   -0.000076   0.043988   0.317383  -0.000791  -0.003521   0.001920
    14  H    0.000340  -0.036097   0.012977  -0.000001   0.390794  -0.054429
    15  H   -0.008976  -0.000046   0.000009  -0.000257  -0.000315   0.000013
    16  C   -0.000354   0.000001  -0.000093  -0.007573   0.000015  -0.000000
    17  H    0.000012  -0.000002  -0.000001   0.000574   0.000003  -0.000000
    18  H    0.000022   0.000001  -0.000005   0.001414  -0.000005   0.000000
    19  H   -0.000010   0.000000   0.000002   0.000238  -0.000001   0.000000
              13         14         15         16         17         18
     1  C   -0.000130  -0.000230  -0.049945   0.354317  -0.038508  -0.037638
     2  C    0.006954  -0.000773   0.006283  -0.052778  -0.002314  -0.006095
     3  C   -0.037274  -0.018561  -0.000532   0.005750  -0.000117   0.000766
     4  C   -0.027205  -0.020494   0.009987   0.000270  -0.000047  -0.000069
     5  C   -0.000122   0.007355  -0.034832   0.005927  -0.000204  -0.000277
     6  C   -0.000062   0.000328   0.418307  -0.055858  -0.001111   0.004636
     7  H   -0.000076   0.000340  -0.008976  -0.000354   0.000012   0.000022
     8  O    0.043988  -0.036097  -0.000046   0.000001  -0.000002   0.000001
     9  O    0.317383   0.012977   0.000009  -0.000093  -0.000001  -0.000005
    10  H   -0.000791  -0.000001  -0.000257  -0.007573   0.000574   0.001414
    11  C   -0.003521   0.390794  -0.000315   0.000015   0.000003  -0.000005
    12  H    0.001920  -0.054429   0.000013  -0.000000  -0.000000   0.000000
    13  H    0.457184  -0.012147   0.000000   0.000018  -0.000002   0.000004
    14  H   -0.012147   0.622867  -0.000000   0.000002  -0.000000  -0.000000
    15  H    0.000000  -0.000000   0.573171  -0.007096   0.000182   0.000088
    16  C    0.000018   0.000002  -0.007096   4.793173   0.402495   0.409926
    17  H   -0.000002  -0.000000   0.000182   0.402495   0.561728  -0.027891
    18  H    0.000004  -0.000000   0.000088   0.409926  -0.027891   0.563232
    19  H   -0.000002   0.000000   0.002692   0.411119  -0.026652  -0.026680
              19
     1  C   -0.036987
     2  C    0.006219
     3  C   -0.000450
     4  C    0.000067
     5  C    0.000609
     6  C   -0.006844
     7  H   -0.000010
     8  O    0.000000
     9  O    0.000002
    10  H    0.000238
    11  C   -0.000001
    12  H    0.000000
    13  H   -0.000002
    14  H    0.000000
    15  H    0.002692
    16  C    0.411119
    17  H   -0.026652
    18  H   -0.026680
    19  H    0.565915
          Atomic-Atomic Spin Densities.
               1          2          3          4          5          6
     1  C    0.469615  -0.019826  -0.021696  -0.002683  -0.023850   0.027932
     2  C   -0.019826  -0.170212   0.022724   0.002107   0.002554   0.000764
     3  C   -0.021696   0.022724   0.328955   0.019720   0.010584  -0.000737
     4  C   -0.002683   0.002107   0.019720  -0.110045   0.012303   0.000126
     5  C   -0.023850   0.002554   0.010584   0.012303   0.362712  -0.023194
     6  C    0.027932   0.000764  -0.000737   0.000126  -0.023194  -0.148852
     7  H   -0.000298  -0.000081  -0.000181  -0.000541   0.003378   0.000932
     8  O    0.000458  -0.000720  -0.009306  -0.046294  -0.007493  -0.000033
     9  O    0.000531  -0.000311  -0.045296   0.000952  -0.000276   0.000006
    10  H   -0.000265  -0.000103   0.000090   0.000046  -0.000026  -0.000033
    11  C    0.000442   0.000404  -0.015019   0.055468  -0.015957   0.000878
    12  H   -0.000029  -0.000024   0.000381  -0.001983   0.001975  -0.000058
    13  H    0.000014  -0.000373  -0.002843   0.000338   0.000056   0.000009
    14  H   -0.000000   0.000005   0.001012  -0.001906   0.000323  -0.000037
    15  H   -0.000289   0.000015  -0.000019   0.000016  -0.000274   0.000032
    16  C   -0.010660   0.001947  -0.000224  -0.000059   0.000040   0.000172
    17  H   -0.012958   0.001042   0.000295  -0.000037   0.000240  -0.001007
    18  H   -0.005443  -0.000002   0.000117   0.000045   0.000055   0.000040
    19  H   -0.002697  -0.000128   0.000007   0.000020   0.000061   0.000313
               7          8          9         10         11         12
     1  C   -0.000298   0.000458   0.000531  -0.000265   0.000442  -0.000029
     2  C   -0.000081  -0.000720  -0.000311  -0.000103   0.000404  -0.000024
     3  C   -0.000181  -0.009306  -0.045296   0.000090  -0.015019   0.000381
     4  C   -0.000541  -0.046294   0.000952   0.000046   0.055468  -0.001983
     5  C    0.003378  -0.007493  -0.000276  -0.000026  -0.015957   0.001975
     6  C    0.000932  -0.000033   0.000006  -0.000033   0.000878  -0.000058
     7  H   -0.022256   0.000679   0.000002  -0.000002  -0.000798   0.000243
     8  O    0.000679   0.381787   0.001036   0.000012  -0.075798   0.002835
     9  O    0.000002   0.001036   0.087278  -0.000011   0.002486  -0.000062
    10  H   -0.000002   0.000012  -0.000011   0.006791  -0.000019   0.000001
    11  C   -0.000798  -0.075798   0.002486  -0.000019   0.130147  -0.004031
    12  H    0.000243   0.002835  -0.000062   0.000001  -0.004031  -0.001533
    13  H    0.000009   0.000213   0.001429   0.000010  -0.002176  -0.000006
    14  H    0.000009   0.002177  -0.000594   0.000001  -0.001043   0.001572
    15  H    0.000373   0.000026   0.000000   0.000001  -0.000057   0.000005
    16  C    0.000011  -0.000000   0.000001   0.000235   0.000001   0.000000
    17  H   -0.000007  -0.000004  -0.000009  -0.000087   0.000009  -0.000000
    18  H    0.000002   0.000001   0.000003   0.000010  -0.000008   0.000000
    19  H    0.000006   0.000001   0.000000   0.000005  -0.000004   0.000000
              13         14         15         16         17         18
     1  C    0.000014  -0.000000  -0.000289  -0.010660  -0.012958  -0.005443
     2  C   -0.000373   0.000005   0.000015   0.001947   0.001042  -0.000002
     3  C   -0.002843   0.001012  -0.000019  -0.000224   0.000295   0.000117
     4  C    0.000338  -0.001906   0.000016  -0.000059  -0.000037   0.000045
     5  C    0.000056   0.000323  -0.000274   0.000040   0.000240   0.000055
     6  C    0.000009  -0.000037   0.000032   0.000172  -0.001007   0.000040
     7  H    0.000009   0.000009   0.000373   0.000011  -0.000007   0.000002
     8  O    0.000213   0.002177   0.000026  -0.000000  -0.000004   0.000001
     9  O    0.001429  -0.000594   0.000000   0.000001  -0.000009   0.000003
    10  H    0.000010   0.000001   0.000001   0.000235  -0.000087   0.000010
    11  C   -0.002176  -0.001043  -0.000057   0.000001   0.000009  -0.000008
    12  H   -0.000006   0.001572   0.000005   0.000000  -0.000000   0.000000
    13  H    0.002484   0.000495   0.000000  -0.000000  -0.000001   0.000001
    14  H    0.000495  -0.001751   0.000001  -0.000000  -0.000000   0.000000
    15  H    0.000000   0.000001   0.006117   0.000209  -0.000200   0.000052
    16  C   -0.000000  -0.000000   0.000209  -0.031462   0.004496   0.002576
    17  H   -0.000001  -0.000000  -0.000200   0.004496   0.037934  -0.006726
    18  H    0.000001   0.000000   0.000052   0.002576  -0.006726   0.014967
    19  H    0.000000   0.000000   0.000107   0.002449  -0.003588   0.002012
              19
     1  C   -0.002697
     2  C   -0.000128
     3  C    0.000007
     4  C    0.000020
     5  C    0.000061
     6  C    0.000313
     7  H    0.000006
     8  O    0.000001
     9  O    0.000000
    10  H    0.000005
    11  C   -0.000004
    12  H    0.000000
    13  H    0.000000
    14  H    0.000000
    15  H    0.000107
    16  C    0.002449
    17  H   -0.003588
    18  H    0.002012
    19  H    0.004787
 Mulliken charges and spin densities:
               1          2
     1  C   -0.124951   0.398297
     2  C   -0.046715  -0.160219
     3  C    0.243174   0.288566
     4  C   -0.177836  -0.072406
     5  C   -0.047732   0.323212
     6  C   -0.050335  -0.142748
     7  H    0.086342  -0.018523
     8  O   -0.367986   0.249576
     9  O   -0.355375   0.047166
    10  H    0.096005   0.006656
    11  C    0.081112   0.074924
    12  H    0.109154  -0.000715
    13  H    0.253880  -0.000342
    14  H    0.108067   0.000263
    15  H    0.091267   0.006113
    16  C   -0.259261  -0.030268
    17  H    0.131856   0.019393
    18  H    0.118570   0.007702
    19  H    0.110765   0.003353
 Sum of Mulliken charges =  -0.00000   1.00000
 Mulliken charges and spin densities with hydrogens summed into heavy atoms:
               1          2
     1  C   -0.124951   0.398297
     2  C    0.049290  -0.153564
     3  C    0.243174   0.288566
     4  C   -0.177836  -0.072406
     5  C    0.038610   0.304690
     6  C    0.040932  -0.136635
     8  O   -0.367986   0.249576
     9  O   -0.101495   0.046824
    11  C    0.298332   0.074472
    16  C    0.101930   0.000180
 APT charges:
               1
     1  C    0.030856
     2  C   -0.439048
     3  C   -0.223321
     4  C    0.061436
     5  C   -0.617171
     6  C   -0.454846
     7  H    0.505440
     8  O   -0.315614
     9  O   -0.343307
    10  H    0.475226
    11  C   -0.725741
    12  H    0.481451
    13  H    0.521533
    14  H    0.408387
    15  H    0.567904
    16  C   -1.198003
    17  H    0.404573
    18  H    0.397685
    19  H    0.462558
 Sum of APT charges =  -0.00000
 APT charges with hydrogens summed into heavy atoms:
               1
     1  C    0.030856
     2  C    0.036178
     3  C   -0.223321
     4  C    0.061436
     5  C   -0.111731
     6  C    0.113058
     8  O   -0.315614
     9  O    0.178227
    11  C    0.164098
    16  C    0.066814
 Electronic spatial extent (au):  <R**2>=           1455.5890
 Charge=              0.0000 electrons
 Dipole moment (field-independent basis, Debye):
    X=             -0.9204    Y=             -0.8615    Z=             -1.2632  Tot=              1.7847
 Quadrupole moment (field-independent basis, Debye-Ang):
   XX=            -53.2813   YY=            -57.7101   ZZ=            -62.0596
   XY=              0.1871   XZ=             -4.1415   YZ=              2.0092
 Traceless Quadrupole moment (field-independent basis, Debye-Ang):
   XX=              4.4024   YY=             -0.0264   ZZ=             -4.3760
   XY=              0.1871   XZ=             -4.1415   YZ=              2.0092
 Octapole moment (field-independent basis, Debye-Ang**2):
  XXX=             10.8909  YYY=             -8.3290  ZZZ=              2.4405  XYY=              1.5173
  XXY=              6.6606  XXZ=             -8.5453  XZZ=              4.6724  YZZ=              5.0246
  YYZ=              1.8524  XYZ=              5.7518
 Hexadecapole moment (field-independent basis, Debye-Ang**3):
 XXXX=          -1270.5855 YYYY=           -492.9353 ZZZZ=           -113.6192 XXXY=             29.1370
 XXXZ=            -20.0624 YYYX=             -5.7348 YYYZ=              2.5484 ZZZX=              0.3370
 ZZZY=              1.0026 XXYY=           -276.3009 XXZZ=           -240.3922 YYZZ=           -106.6298
 XXYZ=             12.0538 YYXZ=              4.2339 ZZXY=              2.9752
 N-N= 5.130910850047D+02 E-N=-2.101637166444D+03  KE= 4.590966341447D+02
  Exact polarizability:   0.000   0.000   0.000   0.000   0.000   0.000
 Approx polarizability: 212.807  -0.196 154.119   4.442  -1.646  87.241
                          Isotropic Fermi Contact Couplings
        Atom                 a.u.       MegaHertz       Gauss      10(-4) cm-1
     1  C(13)              0.02891      32.50349      11.59805      10.84200
     2  C(13)             -0.02291     -25.75599      -9.19038      -8.59127
     3  C(13)              0.01979      22.24518       7.93763       7.42019
     4  C(13)             -0.00751      -8.43745      -3.01069      -2.81443
     5  C(13)              0.02005      22.54019       8.04290       7.51860
     6  C(13)             -0.02176     -24.46030      -8.72804      -8.15908
     7  H(1)              -0.00436     -19.47985      -6.95089      -6.49778
     8  O(17)              0.03478     -21.08632      -7.52412      -7.03364
     9  O(17)              0.00974      -5.90654      -2.10760      -1.97021
    10  H(1)               0.00161       7.21619       2.57492       2.40706
    11  C(13)              0.02604      29.27917      10.44754       9.76648
    12  H(1)              -0.00048      -2.12790      -0.75929      -0.70979
    13  H(1)               0.00094       4.21195       1.50293       1.40495
    14  H(1)               0.00056       2.49632       0.89075       0.83268
    15  H(1)               0.00139       6.22023       2.21953       2.07484
    16  C(13)             -0.01127     -12.67116      -4.52139      -4.22664
    17  H(1)               0.01028      45.92817      16.38831      15.31999
    18  H(1)               0.00391      17.48821       6.24023       5.83344
    19  H(1)               0.00184       8.24225       2.94104       2.74932
 --------------------------------------------------------
       Center         ----  Spin Dipole Couplings  ----
                      3XX-RR        3YY-RR        3ZZ-RR
 --------------------------------------------------------
     1   Atom       -0.221861     -0.234462      0.456323
     2   Atom        0.076649      0.063867     -0.140516
     3   Atom       -0.183239     -0.177253      0.360492
     4   Atom        0.077649      0.023125     -0.100773
     5   Atom       -0.181025     -0.169713      0.350738
     6   Atom        0.059789      0.054471     -0.114260
     7   Atom       -0.016668      0.019727     -0.003059
     8   Atom        1.052268     -0.582699     -0.469569
     9   Atom       -0.115829     -0.151846      0.267674
    10   Atom        0.007311     -0.001365     -0.005947
    11   Atom        0.126364     -0.071145     -0.055218
    12   Atom        0.000083      0.004195     -0.004278
    13   Atom        0.009302     -0.000221     -0.009081
    14   Atom        0.000495     -0.001060      0.000565
    15   Atom        0.001697      0.004077     -0.005775
    16   Atom        0.001111     -0.007351      0.006240
    17   Atom        0.005137     -0.004013     -0.001124
    18   Atom        0.003738     -0.000455     -0.003284
    19   Atom        0.006307     -0.002912     -0.003395
 --------------------------------------------------------
                        XY            XZ            YZ
 --------------------------------------------------------
     1   Atom       -0.001863      0.017601      0.040181
     2   Atom        0.005492      0.002089      0.000332
     3   Atom        0.001598     -0.010687     -0.026223
     4   Atom       -0.007268     -0.015309     -0.001367
     5   Atom       -0.001201      0.002262      0.010935
     6   Atom       -0.007580     -0.009313     -0.008508
     7   Atom       -0.013590      0.002365     -0.001708
     8   Atom        0.021292      0.462954      0.007841
     9   Atom       -0.000458     -0.119387     -0.015533
    10   Atom        0.002559      0.000256     -0.000689
    11   Atom       -0.007210      0.027233      0.001507
    12   Atom       -0.005289     -0.003576      0.008265
    13   Atom       -0.003802      0.005860     -0.001613
    14   Atom        0.002782     -0.006161     -0.007863
    15   Atom       -0.003762     -0.000108     -0.000186
    16   Atom       -0.002052      0.000258      0.001377
    17   Atom       -0.002403     -0.003410      0.001184
    18   Atom       -0.004394      0.001706     -0.000972
    19   Atom        0.002800      0.000867     -0.000096
 --------------------------------------------------------


 ---------------------------------------------------------------------------------
              Anisotropic Spin Dipole Couplings in Principal Axis System
 ---------------------------------------------------------------------------------

       Atom             a.u.   MegaHertz   Gauss  10(-4) cm-1        Axes

              Baa    -0.2373   -31.849   -11.365   -10.624  0.1879  0.9803 -0.0615
     1 C(13)  Bbb    -0.2218   -29.758   -10.618    -9.926  0.9818 -0.1891 -0.0143
              Bcc     0.4591    61.607    21.983    20.550  0.0256  0.0577  0.9980
 
              Baa    -0.1405   -18.859    -6.729    -6.291 -0.0096 -0.0014  1.0000
     2 C(13)  Bbb     0.0618     8.297     2.961     2.768 -0.3473  0.9377 -0.0020
              Bcc     0.0787    10.561     3.769     3.523  0.9377  0.3473  0.0095
 
              Baa    -0.1837   -24.648    -8.795    -8.222  0.9786 -0.2054  0.0093
     3 C(13)  Bbb    -0.1783   -23.927    -8.538    -7.981  0.2047  0.9775  0.0516
              Bcc     0.3620    48.574    17.333    16.203 -0.0197 -0.0486  0.9986
 
              Baa    -0.1021   -13.702    -4.889    -4.570  0.0855  0.0158  0.9962
     4 C(13)  Bbb     0.0223     2.987     1.066     0.996  0.1229  0.9921 -0.0263
              Bcc     0.0798    10.715     3.823     3.574  0.9887 -0.1247 -0.0829
 
              Baa    -0.1812   -24.312    -8.675    -8.110  0.9939  0.1104 -0.0065
     5 C(13)  Bbb    -0.1698   -22.786    -8.131    -7.601 -0.1105  0.9937 -0.0204
              Bcc     0.3510    47.098    16.806    15.710  0.0042  0.0210  0.9998
 
              Baa    -0.1152   -15.462    -5.517    -5.158  0.0553  0.0525  0.9971
     6 C(13)  Bbb     0.0500     6.712     2.395     2.239  0.5659  0.8211 -0.0746
              Bcc     0.0652     8.750     3.122     2.919  0.8226 -0.5684 -0.0157
 
              Baa    -0.0213   -11.387    -4.063    -3.798  0.9464  0.3093 -0.0935
     7 H(1)   Bbb    -0.0031    -1.656    -0.591    -0.552  0.0617  0.1110  0.9919
              Bcc     0.0244    13.043     4.654     4.351 -0.3171  0.9445 -0.0859
 
              Baa    -0.5995    43.382    15.480    14.471 -0.2670 -0.1083  0.9576
     8 O(17)  Bbb    -0.5828    42.170    15.047    14.067 -0.0415  0.9940  0.1009
              Bcc     1.1823   -85.552   -30.527   -28.537  0.9628  0.0128  0.2699
 
              Baa    -0.1560    11.288     4.028     3.765  0.5840  0.7883  0.1935
     9 O(17)  Bbb    -0.1463    10.585     3.777     3.531  0.7640 -0.6144  0.1973
              Bcc     0.3023   -21.873    -7.805    -7.296 -0.2744 -0.0326  0.9611
 
              Baa    -0.0061    -3.244    -1.158    -1.082 -0.0517  0.1718  0.9838
    10 H(1)   Bbb    -0.0019    -1.030    -0.367    -0.343 -0.2579  0.9494 -0.1793
              Bcc     0.0080     4.274     1.525     1.426  0.9648  0.2630  0.0047
 
              Baa    -0.0719    -9.647    -3.442    -3.218  0.0616  0.9800 -0.1893
    11 C(13)  Bbb    -0.0587    -7.878    -2.811    -2.628 -0.1353  0.1961  0.9712
              Bcc     0.1306    17.525     6.253     5.846  0.9889 -0.0343  0.1447
 
              Baa    -0.0093    -4.984    -1.778    -1.662  0.0406 -0.5091  0.8597
    12 H(1)   Bbb    -0.0032    -1.695    -0.605    -0.565  0.8888  0.4115  0.2017
              Bcc     0.0125     6.679     2.383     2.228 -0.4565  0.7560  0.4692
 
              Baa    -0.0108    -5.770    -2.059    -1.925 -0.2708  0.0492  0.9614
    13 H(1)   Bbb    -0.0015    -0.820    -0.293    -0.274  0.3118  0.9493  0.0392
              Bcc     0.0124     6.590     2.351     2.198  0.9108 -0.3104  0.2724
 
              Baa    -0.0088    -4.685    -1.672    -1.563  0.2900  0.6296  0.7208
    14 H(1)   Bbb    -0.0027    -1.450    -0.518    -0.484  0.8087 -0.5639  0.1671
              Bcc     0.0115     6.136     2.189     2.047 -0.5117 -0.5345  0.6727
 
              Baa    -0.0058    -3.086    -1.101    -1.029  0.0296  0.0302  0.9991
    15 H(1)   Bbb    -0.0011    -0.560    -0.200    -0.187  0.8063  0.5901 -0.0417
              Bcc     0.0068     3.646     1.301     1.216 -0.5908  0.8068 -0.0069
 
              Baa    -0.0080    -1.068    -0.381    -0.356  0.2222  0.9700 -0.0981
    16 C(13)  Bbb     0.0016     0.212     0.076     0.071  0.9749 -0.2222  0.0116
              Bcc     0.0064     0.856     0.305     0.286  0.0106  0.0982  0.9951
 
              Baa    -0.0047    -2.484    -0.886    -0.828  0.1883  0.9715 -0.1441
    17 H(1)   Bbb    -0.0026    -1.396    -0.498    -0.466  0.4160  0.0540  0.9078
              Bcc     0.0073     3.879     1.384     1.294  0.8897 -0.2308 -0.3940
 
              Baa    -0.0037    -1.963    -0.700    -0.655 -0.2570 -0.0593  0.9646
    18 H(1)   Bbb    -0.0032    -1.713    -0.611    -0.571  0.4928  0.8506  0.1836
              Bcc     0.0069     3.675     1.311     1.226  0.8313 -0.5225  0.1894
 
              Baa    -0.0039    -2.093    -0.747    -0.698 -0.2613  0.7780  0.5714
    19 H(1)   Bbb    -0.0032    -1.723    -0.615    -0.575  0.0928 -0.5689  0.8171
              Bcc     0.0072     3.816     1.362     1.273  0.9608  0.2665  0.0765
 

 ---------------------------------------------------------------------------------

 Calling FoFJK, ICntrl=    100147 FMM=F ISym2X=0 I1Cent= 0 IOpClX= 1 NMat=1 NMatS=1 NMatT=0.
 ***** Axes restored to original set *****
 -------------------------------------------------------------------
 Center     Atomic                   Forces (Hartrees/Bohr)
 Number     Number              X              Y              Z
 -------------------------------------------------------------------
      1        6          -0.026885191    0.008872244   -0.000536120
      2        6           0.006757403   -0.005525523   -0.000056035
      3        6          -0.002103573    0.001187607    0.000754919
      4        6          -0.000920703    0.000324021   -0.001292234
      5        6          -0.001919190   -0.004800103    0.000103109
      6        6           0.023672900    0.010531234   -0.000058053
      7        1           0.000513250   -0.000106496   -0.000044092
      8        8           0.001331685   -0.000999136    0.001153120
      9        8          -0.000082885   -0.000257009   -0.000249445
     10        1          -0.000290122    0.000327375   -0.000108823
     11        6          -0.000351259    0.000044519    0.000300033
     12        1           0.000049808   -0.000061095   -0.000044215
     13        1          -0.000044802   -0.000053113   -0.000093130
     14        1          -0.000010663   -0.000020647   -0.000046675
     15        1          -0.008953557   -0.002685720   -0.000143540
     16        6           0.027363214   -0.022642124   -0.002918514
     17        1          -0.005038911    0.007103087    0.014689961
     18        1           0.000413267    0.013343207   -0.007473894
     19        1          -0.013500672   -0.004582329   -0.003936373
 -------------------------------------------------------------------
 Cartesian Forces:  Max     0.027363214 RMS     0.008047938
 FormGI is forming the generalized inverse of G from B-inverse, IUseBI=4.

 GradGradGradGradGradGradGradGradGradGradGradGradGradGradGradGradGradGrad
 Berny optimization.
 Internal  Forces:  Max     0.016770668 RMS     0.003888718
 Search for a saddle point.
 Step number   1 out of a maximum of   98
 All quantities printed in internal units (Hartrees-Bohrs-Radians)
 Swapping is turned off.
 Second derivative matrix not updated -- analytic derivatives used.
 ITU=  0
     Eigenvalues ---   -0.06330  -0.00010   0.01041   0.01368   0.01543
     Eigenvalues ---    0.01818   0.01896   0.02006   0.02198   0.02345
     Eigenvalues ---    0.02615   0.02839   0.04604   0.05805   0.05918
     Eigenvalues ---    0.07709   0.10842   0.11051   0.11391   0.11890
     Eigenvalues ---    0.12338   0.12911   0.14133   0.14169   0.14502
     Eigenvalues ---    0.17409   0.17919   0.18125   0.18777   0.19190
     Eigenvalues ---    0.20239   0.22717   0.27416   0.29618   0.30940
     Eigenvalues ---    0.31352   0.33114   0.35455   0.35657   0.35882
     Eigenvalues ---    0.36854   0.37882   0.38119   0.38199   0.38776
     Eigenvalues ---    0.38934   0.42001   0.45532   0.50105   0.50944
     Eigenvalues ---    0.52085
 Eigenvectors required to have negative eigenvalues:
                          A20       D31       D29       D33       D27
   1                    0.64389  -0.38740  -0.24503   0.22589  -0.20733
                          D28       D20       D22       R8        R6
   1                   -0.19919   0.19875   0.19439  -0.18472  -0.18410
 RFO step:  Lambda0=6.616379618D-05 Lambda=-5.31823842D-03.
 Linear search not attempted -- option 19 set.
 Iteration  1 RMS(Cart)=  0.06900205 RMS(Int)=  0.02965885
 Iteration  2 RMS(Cart)=  0.03888115 RMS(Int)=  0.00188293
 Iteration  3 RMS(Cart)=  0.00194415 RMS(Int)=  0.00015166
 Iteration  4 RMS(Cart)=  0.00000398 RMS(Int)=  0.00015163
 Iteration  5 RMS(Cart)=  0.00000000 RMS(Int)=  0.00015163
 Variable       Old X    -DE/DX   Delta X   Delta X   Delta X     New X
                                 (Linear)    (Quad)   (Total)
    R1        2.64479   0.00438   0.00000   0.02339   0.02341   2.66820
    R2        2.68537  -0.00414   0.00000  -0.01449  -0.01438   2.67099
    R3        2.91018  -0.01144   0.00000  -0.07048  -0.07048   2.83970
    R4        2.60203  -0.00037   0.00000  -0.01098  -0.01107   2.59096
    R5        2.04728   0.00027   0.00000   0.00220   0.00220   2.04947
    R6        2.75323  -0.00013   0.00000   0.00566   0.00555   2.75878
    R7        2.56030  -0.00025   0.00000   0.00190   0.00190   2.56220
    R8        2.73438  -0.00227   0.00000  -0.00288  -0.00290   2.73148
    R9        2.80027   0.00093   0.00000  -0.00043  -0.00043   2.79985
   R10        2.59384   0.00055   0.00000   0.00062   0.00071   2.59456
   R11        2.04847   0.00004   0.00000  -0.00154  -0.00154   2.04694
   R12        2.02201   0.00930   0.00000   0.02640   0.02640   2.04841
   R13        2.66205   0.00107   0.00000   0.00232   0.00232   2.66437
   R14        1.83664  -0.00003   0.00000  -0.00046  -0.00046   1.83618
   R15        2.06214   0.00006   0.00000  -0.00026  -0.00026   2.06188
   R16        2.06341   0.00001   0.00000  -0.00042  -0.00042   2.06298
   R17        2.02201   0.01677   0.00000   0.04595   0.04595   2.06796
   R18        2.02201   0.01497   0.00000   0.04290   0.04290   2.06491
   R19        2.02201   0.01448   0.00000   0.03740   0.03740   2.05941
    A1        2.11818  -0.00906   0.00000  -0.04802  -0.04788   2.07030
    A2        2.08190   0.00384   0.00000   0.01171   0.01164   2.09354
    A3        2.08225   0.00521   0.00000   0.03614   0.03607   2.11832
    A4        2.09769   0.00282   0.00000   0.01686   0.01679   2.11449
    A5        2.11469  -0.00175   0.00000  -0.00930  -0.00927   2.10542
    A6        2.06986  -0.00107   0.00000  -0.00764  -0.00761   2.06226
    A7        2.10075   0.00176   0.00000   0.01019   0.00999   2.11074
    A8        2.11956  -0.00049   0.00000  -0.00269  -0.00260   2.11697
    A9        2.06262  -0.00126   0.00000  -0.00737  -0.00727   2.05535
   A10        2.04416  -0.00191   0.00000  -0.01070  -0.01083   2.03333
   A11        2.09644   0.00132   0.00000   0.00321   0.00325   2.09969
   A12        2.11631   0.00059   0.00000   0.00503   0.00507   2.12137
   A13        2.11845  -0.00250   0.00000  -0.01578  -0.01571   2.10274
   A14        2.05320   0.00071   0.00000   0.00940   0.00936   2.06256
   A15        2.11068   0.00179   0.00000   0.00629   0.00625   2.11693
   A16        2.07979   0.00889   0.00000   0.04745   0.04764   2.12743
   A17        2.10170  -0.00518   0.00000  -0.02654  -0.02666   2.07504
   A18        2.10170  -0.00371   0.00000  -0.02091  -0.02103   2.08067
   A19        1.84685  -0.00011   0.00000  -0.00004  -0.00004   1.84681
   A20        1.19944   0.00380   0.00000  -0.00757  -0.00757   1.19187
   A21        2.04338   0.00006   0.00000   0.00173   0.00172   2.04511
   A22        2.06393  -0.00008   0.00000   0.00167   0.00166   2.06559
   A23        2.02156  -0.00111   0.00000  -0.00040  -0.00040   2.02116
   A24        2.03249  -0.00100   0.00000  -0.00026  -0.00026   2.03223
   A25        1.98046  -0.00039   0.00000   0.00148   0.00147   1.98193
   A26        1.91063   0.00312   0.00000   0.03097   0.03052   1.94116
   A27        1.91063   0.00314   0.00000   0.02904   0.02855   1.93918
   A28        1.91063   0.00308   0.00000   0.03466   0.03401   1.94465
   A29        1.91063  -0.00348   0.00000  -0.04297  -0.04324   1.86740
   A30        1.91063  -0.00326   0.00000  -0.02957  -0.03014   1.88049
   A31        1.91063  -0.00260   0.00000  -0.02213  -0.02278   1.88785
    D1        0.02987  -0.00017   0.00000  -0.00149  -0.00153   0.02835
    D2       -3.06443  -0.00016   0.00000   0.00072   0.00070  -3.06373
    D3        3.12668  -0.00028   0.00000  -0.00480  -0.00475   3.12193
    D4        0.03238  -0.00026   0.00000  -0.00259  -0.00252   0.02985
    D5       -0.05007   0.00009   0.00000   0.00073   0.00072  -0.04934
    D6        3.09153   0.00032   0.00000   0.01154   0.01151   3.10304
    D7        3.13632   0.00022   0.00000   0.00465   0.00465   3.14097
    D8       -0.00527   0.00045   0.00000   0.01546   0.01543   0.01016
    D9       -1.42053   0.00032   0.00000   0.31578   0.31594  -1.10459
   D10        0.67386  -0.00011   0.00000   0.29990   0.29980   0.97366
   D11        2.76826   0.00052   0.00000   0.31180   0.31188   3.08013
   D12        1.67720  -0.00015   0.00000   0.31037   0.31044   1.98764
   D13       -2.51159  -0.00058   0.00000   0.29449   0.29430  -2.21729
   D14       -0.41719   0.00005   0.00000   0.30639   0.30637  -0.11082
   D15        0.06235   0.00006   0.00000   0.00071   0.00077   0.06312
   D16       -3.05496  -0.00013   0.00000  -0.00564  -0.00561  -3.06056
   D17       -3.12533   0.00002   0.00000  -0.00151  -0.00147  -3.12680
   D18        0.04055  -0.00017   0.00000  -0.00785  -0.00784   0.03270
   D19       -0.12950  -0.00006   0.00000  -0.00025  -0.00025  -0.12974
   D20        2.77092  -0.00002   0.00000  -0.01066  -0.01062   2.76030
   D21        2.98860   0.00013   0.00000   0.00594   0.00596   2.99456
   D22       -0.39417   0.00017   0.00000  -0.00446  -0.00441  -0.39859
   D23        2.64129   0.00019   0.00000   0.00237   0.00235   2.64364
   D24       -0.47654  -0.00003   0.00000  -0.00408  -0.00406  -0.48059
   D25        0.11005  -0.00010   0.00000  -0.00113  -0.00111   0.10893
   D26       -3.07568  -0.00003   0.00000  -0.00340  -0.00341  -3.07908
   D27       -2.78745  -0.00024   0.00000   0.00971   0.00970  -2.77775
   D28        0.31001  -0.00018   0.00000   0.00744   0.00741   0.31742
   D29        1.59411   0.00028   0.00000   0.00821   0.00825   1.60237
   D30       -2.78622   0.00054   0.00000   0.00427   0.00430  -2.78191
   D31       -0.31662  -0.00022   0.00000   0.01216   0.01220  -0.30442
   D32       -1.79879  -0.00002   0.00000  -0.00484  -0.00489  -1.80368
   D33        0.10406   0.00024   0.00000  -0.00879  -0.00883   0.09523
   D34        2.57367  -0.00052   0.00000  -0.00090  -0.00094   2.57273
   D35       -0.02325   0.00009   0.00000   0.00070   0.00067  -0.02258
   D36        3.11834  -0.00014   0.00000  -0.01011  -0.01015   3.10819
   D37       -3.11926   0.00005   0.00000   0.00300   0.00298  -3.11628
   D38        0.02233  -0.00018   0.00000  -0.00782  -0.00784   0.01449
         Item               Value     Threshold  Converged?
 Maximum Force            0.016771     0.000450     NO 
 RMS     Force            0.003889     0.000300     NO 
 Maximum Displacement     0.530166     0.001800     NO 
 RMS     Displacement     0.104989     0.001200     NO 
 Predicted change in Energy=-2.765804D-03
 GradGradGradGradGradGradGradGradGradGradGradGradGradGradGradGradGradGrad

                          Input orientation:                          
 ---------------------------------------------------------------------
 Center     Atomic      Atomic             Coordinates (Angstroms)
 Number     Number       Type             X           Y           Z
 ---------------------------------------------------------------------
      1          6           0       -1.551365    1.246677   -0.046082
      2          6           0       -0.234341    1.755328   -0.028238
      3          6           0        0.850089    0.916370   -0.031195
      4          6           0        0.679699   -0.530037   -0.131875
      5          6           0       -0.675904   -1.026383   -0.059314
      6          6           0       -1.736200   -0.154543   -0.032077
      7          1           0       -0.829344   -2.098582   -0.071671
      8          8           0        1.803650   -1.251710    0.791965
      9          8           0        2.112912    1.397354    0.079610
     10          1           0       -0.055171    2.823125    0.034397
     11          6           0        1.792569   -1.382279   -0.611858
     12          1           0        1.533914   -2.370646   -0.994903
     13          1           0        2.629049    0.691207    0.502797
     14          1           0        2.614382   -0.906868   -1.150730
     15          1           0       -2.745411   -0.549463   -0.009095
     16          6           0       -2.720504    2.190272   -0.016743
     17          1           0       -2.741548    2.766055    0.913611
     18          1           0       -2.665683    2.910345   -0.836796
     19          1           0       -3.666240    1.654807   -0.097414
 ---------------------------------------------------------------------
                    Distance matrix (angstroms):
                    1          2          3          4          5
     1  C    0.000000
     2  C    1.411949   0.000000
     3  C    2.424110   1.371076   0.000000
     4  C    2.853370   2.463555   1.459884   0.000000
     5  C    2.435859   2.816711   2.470573   1.445435   0.000000
     6  C    1.413428   2.429652   2.799241   2.446942   1.372980
     7  H    3.422386   3.899813   3.451386   2.177422   1.083194
     8  O    4.266191   3.724032   2.507476   1.624056   2.631280
     9  O    3.669527   2.376841   1.355856   2.411154   3.697471
    10  H    2.174917   1.084535   2.111757   3.436768   3.900359
    11  C    4.291085   3.780682   2.551318   1.481615   2.554472
    12  H    4.848117   4.591823   3.492968   2.205073   2.750576
    13  H    4.252726   3.100540   1.870973   2.386254   3.766802
    14  H    4.817826   4.057400   2.773135   2.218798   3.468638
    15  H    2.157135   3.408505   3.882883   3.427365   2.124343
    16  C    1.502703   2.523948   3.791065   4.355997   3.811702
    17  H    2.155471   2.862645   4.148958   4.864380   4.426743
    18  H    2.152841   2.810562   4.121358   4.850229   4.479010
    19  H    2.154507   3.434068   4.576779   4.864352   4.016509
                    6          7          8          9         10
     6  C    0.000000
     7  H    2.145517   0.000000
     8  O    3.796493   2.897536   0.000000
     9  O    4.151690   4.571797   2.760549   0.000000
    10  H    3.420057   4.983352   4.542400   2.595275   0.000000
    11  C    3.780965   2.771158   1.409925   2.882206   4.638665
    12  H    4.065931   2.551738   2.125482   3.960763   5.528102
    13  H    4.478480   4.480336   2.130687   0.971663   3.459698
    14  H    4.554661   3.800499   2.133135   2.659821   4.737498
    15  H    1.083972   2.464751   4.672130   5.234622   4.314353
    16  C    2.543078   4.687619   5.741882   4.898970   2.739912
    17  H    3.230316   5.319023   6.067623   5.112209   2.827171
    18  H    3.302280   5.389519   6.320641   5.095480   2.753427
    19  H    2.646332   4.704952   6.257678   5.787592   3.797653
                   11         12         13         14         15
    11  C    0.000000
    12  H    1.091098   0.000000
    13  H    2.498299   3.580136   0.000000
    14  H    1.091684   1.826017   2.299611   0.000000
    15  H    4.652974   4.754067   5.539505   5.491670   0.000000
    16  C    5.786632   6.313386   5.579859   6.272097   2.739859
    17  H    6.331978   6.950374   5.772094   6.814532   3.441520
    18  H    6.192999   6.749110   5.895191   6.522941   3.558331
    19  H    6.267946   6.637120   6.396831   6.864245   2.390509
                   16         17         18         19
    16  C    0.000000
    17  H    1.094315   0.000000
    18  H    1.092702   1.757981   0.000000
    19  H    1.089793   1.764114   1.767534   0.000000
 Stoichiometry    C8H9O2(2)
 Framework group  C1[X(C8H9O2)]
 Deg. of freedom    51
 Full point group                 C1      NOp   1
 Largest Abelian subgroup         C1      NOp   1
 Largest concise Abelian subgroup C1      NOp   1
                         Standard orientation:                         
 ---------------------------------------------------------------------
 Center     Atomic      Atomic             Coordinates (Angstroms)
 Number     Number       Type             X           Y           Z
 ---------------------------------------------------------------------
      1          6           0       -1.846665   -0.036545   -0.021343
      2          6           0       -0.976156    1.074498   -0.058724
      3          6           0        0.384892    0.909177   -0.066880
      4          6           0        0.978748   -0.423553   -0.116135
      5          6           0        0.069619   -1.539918    0.012312
      6          6           0       -1.287333   -1.332998    0.042959
      7          1           0        0.487097   -2.539076    0.038819
      8          8           0        2.321975   -0.428497    0.796704
      9          8           0        1.223867    1.972710   -0.008901
     10          1           0       -1.368831    2.085184   -0.035620
     11          6           0        2.366735   -0.606059   -0.601279
     12          1           0        2.647576   -1.602903   -0.944682
     13          1           0        2.032693    1.648800    0.421229
     14          1           0        2.824018    0.199382   -1.179147
     15          1           0       -1.951419   -2.187226    0.108389
     16          6           0       -3.333828    0.176362    0.012325
     17          1           0       -3.638542    0.699377    0.923988
     18          1           0       -3.663063    0.787398   -0.831617
     19          1           0       -3.872330   -0.770425   -0.023178
 ---------------------------------------------------------------------
 Rotational constants (GHZ):      2.6998971      1.0483145      0.7999073
 Standard basis: 6-311G(d,p) (5D, 7F)
 There are   244 symmetry adapted cartesian basis functions of A   symmetry.
 There are   234 symmetry adapted basis functions of A   symmetry.
   234 basis functions,   392 primitive gaussians,   244 cartesian basis functions
    37 alpha electrons       36 beta electrons
       nuclear repulsion energy       513.2550240098 Hartrees.
 NAtoms=   19 NActive=   19 NUniq=   19 SFac= 1.00D+00 NAtFMM=   60 NAOKFM=F Big=F
 Integral buffers will be    131072 words long.
 Raffenetti 2 integral format.
 Two-electron integral symmetry is turned on.
 One-electron integrals computed using PRISM.
 NBasis=   234 RedAO= T EigKep=  1.92D-04  NBF=   234
 NBsUse=   234 1.00D-06 EigRej= -1.00D+00 NBFU=   234
 Initial guess from the checkpoint file:  "SR-14-ts-SR-15.chk"
 B after Tr=    -0.000000   -0.000000   -0.000000
         Rot=    0.999989    0.004238   -0.000151   -0.002068 Ang=   0.54 deg.
 Initial guess <Sx>= 0.0000 <Sy>= 0.0000 <Sz>= 0.5000 <S**2>= 0.7803 S= 0.5151
 ExpMin= 1.03D-01 ExpMax= 8.59D+03 ExpMxC= 1.30D+03 IAcc=1 IRadAn=         1 AccDes= 0.00D+00
 Harris functional with IExCor=  402 and IRadAn=       1 diagonalized for initial guess.
 HarFok:  IExCor=  402 AccDes= 0.00D+00 IRadAn=         1 IDoV= 1 UseB2=F ITyADJ=14
 ICtDFT=  3500011 ScaDFX=  1.000000  1.000000  1.000000  1.000000
 FoFCou: FMM=F IPFlag=           0 FMFlag=      100000 FMFlg1=           0
         NFxFlg=           0 DoJE=T BraDBF=F KetDBF=T FulRan=T
         wScrn=  0.000000 ICntrl=     500 IOpCl=  0 I1Cent=   200000004 NGrid=           0
         NMat0=    1 NMatS0=      1 NMatT0=    0 NMatD0=    1 NMtDS0=    0 NMtDT0=    0
 Petite list used in FoFCou.
 Keep R1 and R2 ints in memory in canonical form, NReq=763559320.
 Requested convergence on RMS density matrix=1.00D-08 within 128 cycles.
 Requested convergence on MAX density matrix=1.00D-06.
 Requested convergence on             energy=1.00D-06.
 No special actions if energy rises.
 Integral accuracy reduced to 1.0D-05 until final iterations.
 Initial convergence to 1.0D-05 achieved.  Increase integral accuracy.
 SCF Done:  E(UB3LYP) =  -460.750225117     A.U. after   15 cycles
            NFock= 15  Conv=0.64D-08     -V/T= 2.0037
 <Sx>= 0.0000 <Sy>= 0.0000 <Sz>= 0.5000 <S**2>= 0.7801 S= 0.5149
 <L.S>= 0.000000000000E+00
 Annihilation of the first spin contaminant:
 S**2 before annihilation     0.7801,   after     0.7506
 Calling FoFJK, ICntrl=      2127 FMM=F ISym2X=0 I1Cent= 0 IOpClX= 1 NMat=1 NMatS=1 NMatT=0.
 ***** Axes restored to original set *****
 -------------------------------------------------------------------
 Center     Atomic                   Forces (Hartrees/Bohr)
 Number     Number              X              Y              Z
 -------------------------------------------------------------------
      1        6           0.000651856   -0.000203206    0.000304115
      2        6           0.000072091    0.000176811   -0.000086195
      3        6           0.000231528   -0.000256788   -0.000085489
      4        6           0.000159273    0.000068994   -0.000007434
      5        6          -0.000387526   -0.000089600   -0.000099357
      6        6           0.000973935    0.000037772    0.000086709
      7        1          -0.000007189   -0.000013654    0.000058150
      8        8           0.000035875   -0.000030705    0.000035261
      9        8           0.000019068    0.000010000   -0.000008241
     10        1          -0.000003896   -0.000051727    0.000082272
     11        6          -0.000015359   -0.000009579   -0.000018123
     12        1          -0.000005627   -0.000007989   -0.000007502
     13        1           0.000017003    0.000012994    0.000013948
     14        1          -0.000013502    0.000006191   -0.000001168
     15        1          -0.000615587   -0.000238352   -0.000066378
     16        6           0.000337392   -0.000785231    0.000186003
     17        1          -0.000090901    0.000686627    0.000857315
     18        1          -0.000280658    0.001071167   -0.001022010
     19        1          -0.001077776   -0.000383724   -0.000221873
[...]
 218051,-0.08883930,-0.04661003,0.00512580,0.51305689,-0.01806979,-0.01
 007434,-0.00118038,0.03759142,-0.02300743,-0.00525025,-0.02943323,-0.2
 0478777,-0.02041974,0.06432337,0.53141754,0.00780264,0.00008280,-0.004
 27575,-0.01117027,0.00203465,0.00615945,0.00912626,-0.03914728,-0.0620
 6722,-0.12096089,0.08756885,0.12074104,0.02810293,0.06199587,0.0013395
 7,-0.02838525,-0.00056444,0.00035036,0.00646331,-0.02218755,0.00069402
 ,-0.19382115,-0.08007917,0.03571549,0.61444569,0.01146258,-0.06020413,
 -0.00156810,0.02098118,-0.00232192,0.00005883,-0.03720763,0.00376577,0
 .00165958,-0.06644643,-0.13976845,0.01090322,-0.04842087,0.72788391,0.
 00046752,-0.00432645,0.00601978,-0.00035141,0.00040188,0.00007799,0.00
 010757,-0.00630199,-0.00155475,0.01156014,0.00364093,-0.05988379,-0.01
 899479,0.01264788,0.11558103,-0.12793359,-0.07346621,0.00012848,0.0133
 0152,-0.03561746,-0.00164455,-0.00669395,0.00865582,0.00174424,-0.0508
 2435,0.01648695,-0.00309576,-0.27349691,0.14573746,0.00348134,0.731610
 92,0.00904798,-0.24971609,0.00059522,-0.07062858,-0.01687555,0.0012466
 3,0.01908809,-0.02890741,-0.00193674,0.03488220,0.01918096,0.00443947,
 0.08783964,-0.21015155,-0.00227634,0.01292390,0.60661748,0.00269663,0.
 00234826,-0.05795321,-0.00306407,-0.00042820,0.00554921,0.00003841,-0.
 00032029,-0.00003170,0.00692012,-0.00007864,0.00593030,0.00206815,-0.0
 0531264,-0.04811690,-0.01035113,0.00321840,0.11883738,-0.00368192,0.00
 270345,0.00028679,-0.00062193,-0.00019452,0.00009506,-0.00527734,0.000
 83238,0.00055487,-0.00268034,-0.02966842,-0.00019435,-0.06252071,-0.04
 053814,0.00098083,0.00830276,0.02491586,0.00055434,0.06290625,0.003591
 91,0.00023401,-0.00013415,-0.00000600,0.00046870,0.00000540,-0.0013554
 5,0.00120336,0.00022676,0.00088552,-0.00777414,-0.00068429,-0.04100063
 ,-0.33217319,-0.00577866,-0.00565675,-0.01438686,-0.00072249,0.0433534
 6,0.35161899,0.00011037,-0.00093758,0.00708136,0.00041466,0.00022177,-
 0.00078445,0.00072700,-0.00090642,0.00340582,-0.00370989,0.00148168,-0
 .00031942,0.00370300,-0.00690017,-0.02953514,-0.00101087,-0.00003100,0
 .00397075,-0.00156101,0.00686837,0.02025098,-0.01114259,0.00383756,-0.
 00074144,0.01838973,-0.00455631,-0.00134876,-0.02244878,0.03832437,-0.
 00601342,0.02491312,-0.02839996,0.04026511,-0.04556231,0.00356338,-0.0
 1163793,0.00760659,-0.01327851,-0.00527286,0.00142353,0.00007894,0.002
 83757,0.02956742,0.00640575,-0.00162133,0.00062429,-0.01179106,0.00004
 169,0.00219008,0.01290476,-0.03892882,0.02095802,-0.03527918,-0.012014
 71,-0.02278003,0.02011216,0.00852148,-0.00714263,-0.00469207,0.0047641
 7,0.00142282,0.00092539,0.00036169,-0.00115902,0.02074109,0.07401896,-
 0.00831820,-0.00103132,-0.00048458,0.01028947,-0.00442102,-0.00030967,
 -0.00924192,0.01702199,-0.00085890,-0.00992387,0.01584141,-0.01296571,
 -0.01360474,-0.00958992,0.00766004,0.00441486,-0.00027466,-0.00135794,
 -0.00053426,-0.00022125,0.00036997,-0.00265396,0.01413904,0.32461017,0
 .00633850,0.00627029,-0.00122089,-0.05935160,-0.00900324,-0.00733132,-
 0.27631919,-0.09306985,-0.01561207,-0.02427040,-0.02125449,-0.00760889
 ,0.00223968,-0.00133910,-0.00054908,-0.00205921,-0.00014378,0.00049892
 ,-0.00048786,-0.00011969,-0.00030464,0.01083471,0.00752676,0.00714568,
 0.49491296,-0.00131225,-0.00694490,-0.00129701,0.02767564,0.02004201,0
 .00038852,-0.05158230,-0.13128845,0.00711811,-0.03791358,-0.02057229,0
 .00142966,0.00314183,-0.00808783,-0.00034966,-0.00087161,0.00234782,-0
 .00002311,-0.00208439,-0.00044412,0.00044430,-0.00863522,-0.00542315,-
 0.00276303,-0.06600350,0.42996144,-0.00215231,-0.00057607,0.00634313,-
 0.00126986,-0.00290653,0.00738447,-0.03780554,-0.00474057,-0.04902342,
 -0.00872795,-0.00080778,0.00314975,0.00169993,-0.00169930,0.00345989,-
 0.00017474,0.00066547,-0.00077711,-0.00068423,-0.00017502,0.00004234,0
 .00459597,0.00293274,0.00411129,0.14086770,-0.14621487,0.12674044,0.00
 064931,-0.02827747,-0.00199028,-0.06528243,-0.04395594,-0.00398229,0.0
 0793401,0.02604784,0.00181499,-0.00400557,0.00116049,-0.00030553,-0.00
 051082,0.00053068,-0.00012682,-0.00528572,-0.00113045,-0.00007597,0.00
 010797,-0.00002909,-0.00001442,0.00006458,0.00050003,0.00050301,0.0019
 7838,-0.00114945,0.00045489,0.06317218,-0.00039346,-0.00737750,-0.0004
 8568,-0.04120779,-0.32556212,-0.02139187,-0.00658012,-0.01792419,-0.00
 168850,0.00302805,0.00009651,-0.00047246,0.00032424,0.00040946,0.00008
 350,-0.00159667,0.00168224,-0.00040514,0.00000482,-0.00008965,0.000038
 35,0.00019921,-0.00003215,-0.00016874,-0.00081024,0.00175965,0.0003317
 6,0.04695081,0.34665580,0.00178719,-0.00019991,0.00150513,-0.00719553,
 -0.02158668,-0.03563403,0.00197071,-0.00278000,0.00462800,-0.00079182,
 0.00186753,0.00703831,-0.00100028,0.00025575,-0.00069880,-0.00008233,-
 0.00101859,0.00507034,-0.00004354,0.00000279,-0.00052234,0.00077102,-0
 .00164955,-0.00003871,0.00061275,0.00031707,-0.00484989,0.00391112,0.0
 2357592,0.02549107,0.00073321,0.00296645,-0.00033821,0.00047314,-0.000
 80656,0.00090751,0.00588502,0.01203360,-0.00534523,-0.16193195,0.06773
 796,0.03733630,-0.02867696,0.01881521,0.01368699,-0.00085441,-0.008232
 87,0.00235363,0.00132340,0.00071617,-0.00104569,-0.03009884,-0.0213950
 2,0.02220308,-0.00662968,-0.00135953,-0.00036285,0.00001343,-0.0003435
 8,0.00064344,0.48945961,-0.00021523,-0.00252340,0.00029424,-0.00380235
 ,-0.00394798,-0.00118934,0.02003937,-0.02079322,-0.01956152,0.07270453
 ,-0.12053941,-0.02744573,0.00427293,0.00633530,0.00976159,-0.00394073,
 0.00343828,-0.00100076,-0.00177012,0.00015894,0.00126818,-0.02532898,-
 0.04960321,-0.02922192,0.00354765,-0.00016068,0.00170107,0.00086890,-0
 .00047533,0.00102036,0.09442958,0.56937468,-0.00282292,0.00261166,-0.0
 0056659,0.00533255,-0.00059738,0.00006204,-0.00394188,0.01336878,-0.00
 055937,0.12113466,-0.08240625,-0.00552305,-0.01316483,-0.00090259,-0.0
 0070071,0.00287389,-0.00595221,-0.00061704,-0.00008807,0.00011589,0.00
 091840,-0.04481333,0.01578595,-0.26678945,-0.00083060,0.00061806,-0.00
 346967,-0.00016785,0.00017133,0.00077454,-0.13615959,0.09007962,0.4398
 0718,0.00012500,-0.00039384,0.00012666,0.00027044,0.00089747,-0.000012
 99,-0.00314430,-0.00176239,0.00290473,0.00475936,0.02428050,0.00661933
 ,0.00184740,0.00035243,-0.00088451,-0.00006880,0.00064080,-0.00004744,
 -0.00021559,-0.00048064,0.00010538,0.00219796,-0.00563153,-0.00340755,
 0.00140231,-0.00011872,-0.00064038,-0.00014437,0.00012428,-0.00029487,
 -0.06699427,-0.06392202,-0.01549243,0.06306939,0.00017851,0.00054485,-
 0.00014134,-0.00054769,-0.00039830,-0.00004388,0.00037005,0.00038147,-
 0.00160030,-0.00602267,-0.01346349,-0.00414217,-0.00204057,0.00105732,
 0.00074687,0.00042572,-0.00059774,0.00016590,0.00062638,0.00056030,-0.
 00010815,0.00438534,0.01043713,-0.00675829,0.00075238,-0.00017620,-0.0
 0020796,0.00008788,-0.00007151,0.00016432,-0.06345010,-0.27202548,-0.0
 7463720,0.06642228,0.28273343,0.00029838,0.00027266,0.00009414,-0.0003
 1521,0.00043211,-0.00003657,-0.00012460,0.00046829,0.00065681,0.000840
 86,0.00319682,-0.00314495,0.00012686,-0.00095878,0.00004664,0.00023737
 ,0.00005484,-0.00000530,0.00038094,0.00008193,-0.00006413,-0.00430021,
 -0.03372105,-0.02293633,-0.00074210,-0.00025955,0.00113447,-0.00006016
 ,0.00003698,-0.00016686,-0.01750608,-0.07220379,-0.07081147,0.01741907
 ,0.09031322,0.08835899,-0.00117943,0.00123568,0.00055432,-0.00287393,-
 0.00499045,-0.00095231,-0.04298798,0.03010851,-0.02002836,-0.00174722,
 0.00114133,-0.00144764,-0.00031937,0.00107488,0.00006427,0.00013421,-0
 .00008374,-0.00006021,0.00025735,0.00004836,-0.00001486,0.00023025,0.0
 0219277,0.00127560,-0.14956870,0.13911130,-0.09394517,0.00014186,-0.00
 002329,-0.00031294,0.00139119,-0.00015775,-0.00184175,-0.00020523,0.00
 010995,0.00049966,0.19663540,0.00172707,0.00161686,0.00047479,-0.00658
 238,-0.00019856,0.00006946,0.00041464,0.01562187,-0.00636415,-0.006789
 37,-0.00208029,-0.00457385,0.00017329,-0.00031473,0.00037188,0.0000270
 5,-0.00056775,0.00021186,-0.00014838,0.00001683,-0.00022063,0.00864568
 ,0.00452456,0.00568915,0.17570408,-0.28180852,0.15182106,-0.00008052,-
 0.00001756,-0.00017610,-0.00461359,-0.00139813,-0.00723582,0.00078319,
 0.00026593,0.00084703,-0.16924847,0.26528603,0.00101332,-0.00023214,0.
 00140000,0.00071010,0.00061803,0.00129861,-0.00346917,0.00248923,-0.00
 150600,0.00079075,0.00001187,0.00018744,-0.00018601,0.00109467,-0.0004
 9977,-0.00031491,-0.00007504,0.00002080,0.00032556,0.00009599,-0.00009
 210,-0.00027764,-0.00081107,-0.00378732,-0.11326396,0.14049409,-0.0948
 4626,-0.00021150,0.00011849,-0.00043295,-0.00238476,-0.00268330,0.0024
 9882,0.00043949,0.00046973,-0.00123822,0.11534964,-0.14053620,0.099171
 06,-0.00025713,-0.00058876,0.00002138,0.00011172,-0.00027552,-0.000037
 86,-0.00211927,-0.00221427,-0.00034923,-0.01680996,-0.01091618,0.00759
 485,0.00024732,0.00216305,0.00197154,-0.00074743,0.00018452,0.00016703
 ,0.00013255,0.00001742,-0.00001636,0.01393096,0.00761810,0.00170440,0.
 00283257,-0.00020607,-0.00161380,0.00004426,0.00005587,0.00008342,-0.2
 0378863,-0.09591197,0.08988637,-0.00285965,-0.00138308,0.00316817,0.00
 031582,0.00007460,0.00123496,0.20918247,-0.00001205,0.00076773,-0.0001
 2271,0.00027740,0.00032676,-0.00002973,0.00171288,0.00158500,0.0004691
 5,0.01668706,0.00694497,-0.00662721,-0.00157713,-0.00165201,-0.0014307
 1,0.00096975,-0.00079693,0.00007871,0.00027767,0.00019042,-0.00011476,
 -0.00029200,0.00459650,0.00137950,-0.00118598,-0.00021578,0.00010965,-
 0.00001910,-0.00000511,-0.00005929,-0.09677088,-0.10870033,0.04913855,
 -0.02115821,-0.00925151,0.01154225,-0.00016147,-0.00060733,-0.00107376
 ,0.10106666,0.10707104,0.00040436,0.00027684,0.00000364,-0.00093249,-0
 .00002514,-0.00014855,0.00273609,0.00023270,-0.00002158,-0.00429627,-0
 .00238112,-0.00276304,-0.00050226,0.00073627,0.00079824,-0.00029580,-0
 .00007574,-0.00004704,0.00013583,0.00010859,-0.00001821,0.02762590,0.0
 0860864,-0.02667164,-0.00184975,0.00028351,0.00109209,0.00006506,-0.00
 004645,-0.00002318,0.08664552,0.05020340,-0.09548937,-0.00690455,-0.00
 417671,0.00812957,0.00078213,-0.00028144,-0.00202960,-0.10357101,-0.05
 344343,0.11727649,-0.00292609,0.00047027,0.00005544,0.00146670,-0.0003
 6081,0.00004152,0.00055041,0.00035698,-0.00000197,-0.00077425,0.003572
 73,0.00038435,-0.01948045,-0.01057968,0.00005739,-0.29486723,-0.093913
 71,0.00372087,0.00087356,0.00023783,-0.00023677,-0.00025142,0.00003434
 ,0.00028704,-0.00020608,-0.00014369,-0.00008497,-0.00011237,-0.0000348
 5,-0.00000623,-0.00070194,-0.00047844,-0.00009203,0.00001277,0.0000149
 4,0.00003820,0.00005987,0.00007454,0.00005856,-0.00015930,0.00011047,-
 0.00004806,0.31459994,-0.02899681,-0.00704907,0.00052656,0.00030929,-0
 .00566466,-0.00012694,0.00102667,-0.00071057,0.00002618,0.00290011,-0.
 00236837,0.00010488,0.01993498,0.01059907,0.00002735,-0.09287555,-0.09
 483342,0.00133968,-0.00034970,0.00082925,0.00015452,-0.00003035,0.0003
 0891,-0.00051762,-0.00024556,0.00029249,0.00001573,-0.00152356,-0.0003
 4156,-0.00010241,0.00070637,0.00025283,-0.00005822,-0.00002824,0.00001
 478,-0.00003676,-0.00001651,-0.00008794,0.00000434,0.00012729,-0.00009
 986,0.00002918,0.09957440,0.09764797,0.00012235,0.00053666,0.00221866,
 -0.00028873,0.00018336,0.00472835,-0.00016904,0.00100398,-0.00042595,-
 0.00087325,-0.00093272,0.00886493,0.00147401,-0.00032937,0.00258400,0.
 00384048,0.00133773,-0.03507971,-0.00020788,0.00014058,-0.00490656,0.0
 0110112,0.00052834,-0.00061579,-0.00009951,-0.00014997,-0.00057325,0.0
 0010958,-0.00001358,0.00053581,-0.00059201,-0.00096928,0.00063342,0.00
 004466,-0.00002511,-0.00004412,0.00000006,-0.00011216,0.00004575,-0.00
 022747,0.00018911,-0.00013902,-0.00413522,-0.00140541,0.02496238,-0.16
 488064,0.06369778,0.00092946,-0.03160180,0.02158240,0.00058572,-0.0005
 8553,-0.00562821,-0.00073272,-0.00163230,0.00113384,-0.00104832,0.0009
 5299,-0.00261445,-0.00015044,0.00366724,0.00357518,0.00012081,0.000480
 78,-0.00051363,-0.00010188,0.00155352,-0.00073306,0.00104210,-0.000708
 72,0.00125362,-0.00017177,0.00152966,0.00111999,0.00017351,-0.00012771
 ,0.00010827,0.00038410,-0.00001870,-0.00001181,-0.00003942,-0.00035955
 ,-0.00020693,0.00013620,0.00005341,-0.00001130,-0.00005660,0.00080027,
 -0.00212616,-0.00006049,0.52840900,0.05351327,-0.13566585,-0.00090533,
 0.00016241,0.00990999,0.00037703,-0.00612953,0.00207579,-0.00000245,0.
 00127796,-0.00237767,0.00027165,-0.00285271,-0.00280676,0.00018289,0.0
 2700167,-0.02168148,-0.00023224,0.00085787,-0.00050921,-0.00005771,-0.
 00069068,0.00082739,-0.00005995,-0.00112895,0.00057932,-0.00038461,-0.
 00046099,0.00054747,0.00040928,-0.00031897,0.00051445,-0.00049454,0.00
 000073,0.00002775,-0.00002622,-0.00036627,-0.00014701,0.00007291,0.000
 12255,-0.00015323,-0.00001103,0.00123767,0.00109171,-0.00005883,0.0500
 7910,0.52541159,0.00134679,-0.00130534,-0.06350938,-0.00034067,-0.0000
 6156,0.00289786,-0.00009640,-0.00017289,0.00373093,0.00042524,-0.00019
 499,-0.00106139,0.00024536,-0.00012077,0.00531105,0.00030277,-0.000070
 70,0.00617317,0.00000308,0.00007482,0.00008490,-0.00023267,0.00011562,
 0.00001048,0.00014458,-0.00011722,0.00025513,-0.00007948,0.00010805,-0
 .00183072,0.00001657,-0.00006165,-0.00019649,0.00000779,-0.00001893,0.
 00002959,0.00010399,0.00003370,-0.00012412,-0.00001067,-0.00000569,0.0
 0006405,-0.00001567,0.00008782,-0.00323845,-0.00068716,0.00077404,0.51
 955222,0.00102520,0.01782128,0.02004234,-0.00024348,0.00104218,-0.0005
 9168,0.00084350,-0.00057717,-0.00048363,0.00026127,0.00041388,0.000568
 24,-0.00065785,0.00093443,-0.00046829,-0.00175357,-0.00105276,0.000227
 47,-0.00016060,0.00010001,-0.00003718,-0.00035116,0.00003200,-0.000467
 18,-0.00020848,-0.00010263,0.00004189,-0.00029965,-0.00046919,0.000071
 76,0.00016764,-0.00015875,0.00001047,-0.00001271,0.00002324,0.00002436
 ,0.00005528,0.00006070,0.00003385,-0.00004881,0.00004940,0.00001822,0.
 00015150,0.00021849,0.00006108,-0.04736273,-0.00774867,-0.00773205,0.0
 4918060,0.00259777,-0.01609872,-0.01414926,-0.00312474,0.00083628,0.00
 078441,0.00072912,-0.00139839,0.00042636,-0.00073330,0.00056226,-0.000
 64094,0.00046452,-0.00063709,0.00075872,0.00265729,-0.00037596,-0.0004
 4731,0.00016270,-0.00014968,-0.00001781,0.00078907,-0.00040708,0.00053
 734,0.00020414,0.00021200,0.00003023,0.00016273,0.00041795,-0.00052671
 ,-0.00010196,0.00007030,0.00015534,-0.00000190,-0.00001281,-0.00001513
 ,-0.00003444,-0.00006323,-0.00005464,0.00002898,-0.00000226,-0.0000103
 0,0.00006761,0.00017079,-0.00051933,-0.00955224,-0.13549498,-0.1247376
 3,0.00497290,0.15035987,0.00149846,0.00109788,0.00308414,-0.00105838,-
 0.00021739,0.00097507,0.00043348,-0.00052357,0.00003918,-0.00043479,0.
 00034473,-0.00031299,0.00019354,0.00013367,-0.00021931,-0.00005417,0.0
 0094614,-0.00069228,0.00000776,0.00000596,0.00005589,0.00045834,-0.000
 23068,0.00032174,0.00017078,0.00012883,-0.00000154,0.00039605,0.000154
 27,-0.00024892,-0.00008009,0.00006432,0.00010942,0.00000180,-0.0000080
 5,-0.00001826,-0.00003030,-0.00003384,-0.00000481,0.00001589,-0.000005
 51,-0.00002212,-0.00002775,0.00004881,0.00005134,-0.00973344,-0.123865
 06,-0.20606949,0.01091311,0.13616325,0.22399004,-0.00023860,0.01741429
 ,-0.02044644,-0.00049812,0.00076786,0.00074837,0.00073907,-0.00048701,
 0.00056263,0.00059449,0.00018816,0.00025114,-0.00072316,0.00091408,0.0
 0072710,-0.00153076,-0.00131147,-0.00039300,-0.00014876,0.00012175,0.0
 0013930,-0.00066572,0.00027159,-0.00051889,-0.00009632,-0.00008834,0.0
 0005409,-0.00025765,-0.00040284,-0.00036065,0.00023394,-0.00026340,-0.
 00012649,0.00000200,0.00001461,0.00003935,0.00008299,0.00006026,-0.000
 04184,-0.00006806,0.00004788,0.00003551,0.00018751,0.00018631,-0.00010
 250,-0.04668317,-0.00156173,-0.00038108,-0.00024314,0.00094845,-0.0020
 6985,0.04852783,0.00365053,-0.01536891,0.01478733,-0.00307676,0.001002
 23,-0.00066044,0.00088380,-0.00145972,-0.00070738,-0.00063666,0.000580
 49,-0.00031612,0.00026644,-0.00056449,-0.00100226,0.00253997,-0.000500
 66,0.00019937,0.00016232,-0.00016530,-0.00002859,0.00067351,-0.0003630
 6,0.00041531,0.00011810,0.00018286,0.00004526,0.00007177,0.00022663,0.
 00048300,-0.00001001,0.00003513,0.00023401,-0.00000722,-0.00002568,-0.
 00002502,-0.00004463,-0.00005107,0.00002295,0.00004613,-0.00000138,-0.
 00003104,0.00008104,0.00013639,0.00058884,-0.00350747,-0.12574967,0.12
 167713,0.00024349,0.01187908,-0.01630299,-0.00183863,0.13965279,-0.001
 71504,-0.00101569,0.00375459,0.00096146,0.00010574,0.00097742,-0.00050
 661,0.00051732,0.00016519,0.00032131,-0.00028470,0.00022546,-0.0001795
 3,-0.00006929,-0.00014448,0.00004569,-0.00090855,-0.00075520,-0.000010
 58,-0.00000992,0.00009077,-0.00033777,0.00016579,-0.00024541,-0.000140
 88,-0.00009418,-0.00001873,-0.00028981,-0.00002300,-0.00032105,0.00001
 916,-0.00003552,-0.00008395,0.00000847,0.00001303,0.00001478,0.0000195
 3,0.00002425,-0.00001199,-0.00002107,0.00000250,0.00001107,0.00000406,
 -0.00008243,0.00003175,0.00210758,0.12012249,-0.21507172,0.00096994,0.
 01500304,-0.02276888,-0.00190044,-0.13256343,0.23409096,-0.02208542,-0
 .01349809,0.00067928,-0.00297817,0.00465002,0.00035425,-0.00008893,-0.
 00124799,-0.00018831,0.00021946,-0.00020939,0.00016794,-0.00014438,0.0
 0061693,0.00005858,0.00149270,-0.00332228,-0.00010172,-0.00001311,0.00
 001052,0.00001629,-0.00019154,0.00025719,-0.00019468,-0.00063286,0.000
 38889,-0.00008091,0.00026295,0.00005476,0.00006326,0.00012383,-0.00002
 149,-0.00008026,-0.00002301,0.00004465,0.00001455,-0.00006280,-0.00007
 547,0.00005737,0.00000717,-0.00001105,0.00000817,0.00077661,0.00120855
 ,0.00000278,-0.24348601,-0.11299472,0.00697969,-0.00034281,-0.00023670
 ,-0.00060045,0.00078564,0.00038427,0.00064453,0.26638069,0.01930711,0.
 01091645,-0.00070986,0.00277373,-0.00295855,-0.00018711,0.00079420,0.0
 0080501,0.00011830,-0.00004119,0.00004562,-0.00000511,0.00019716,0.000
 10984,-0.00001478,0.00129148,0.00136046,-0.00001417,-0.00006862,0.0000
 4965,0.00000466,-0.00002613,-0.00000898,0.00000397,0.00018096,-0.00025
 566,0.00005975,0.00024543,0.00010096,0.00000323,-0.00000226,-0.0000127
 5,0.00000500,0.00000302,-0.00000025,0.00000017,0.00010426,0.00001003,-
 0.00002615,-0.00000933,0.00000332,0.00000327,-0.00032164,-0.00018875,0
 .00000716,-0.11764492,-0.11639959,0.00399620,-0.01580283,-0.00986833,0
 .00209924,-0.01498180,-0.00944566,-0.00086747,0.12400140,0.12573718,-0
 .00000595,0.00015156,-0.00189796,-0.00003131,-0.00024697,0.00146591,-0
 .00015817,0.00010125,0.00062417,0.00000356,-0.00001724,0.00002062,0.00
 002217,-0.00003892,-0.00018500,-0.00004485,0.00011566,-0.00011850,-0.0
 0000113,-0.00000129,-0.00002884,-0.00002504,0.00002270,-0.00002222,0.0
 0011329,0.00004645,-0.00015314,0.00004941,0.00007677,-0.00027577,0.000
 00232,-0.00001997,0.00000333,0.00000732,-0.00000499,0.00000119,-0.0000
 1568,-0.00000899,-0.00004934,-0.00000052,0.00000339,-0.00000179,0.0000
 0124,-0.00003526,0.00036647,0.00730275,0.00388769,-0.04700761,-0.02320
 274,-0.01273961,0.00173177,0.02378370,0.01318407,0.00005942,-0.0078003
 6,-0.00447630,0.04546727\\0.00000667,0.00000340,0.00000006,-0.00000343
 ,-0.00000067,-0.00000218,0.00000104,-0.00000146,-0.00000175,0.00000064
 ,0.00000106,0.00000073,-0.00000135,0.00000115,0.00000230,0.00000127,-0
 .00000303,0.00000169,0.00000082,-0.00000007,0.00000444,0.00000137,0.00
 000186,0.00000155,-0.00000036,0.00000129,-0.00000304,-0.00000081,0.000
 00005,-0.00000399,0.00000010,-0.00000015,0.00000138,0.00000036,-0.0000
 0082,0.00000316,0.00000033,0.00000187,-0.00000230,-0.00000025,-0.00000
 072,0.00000020,-0.00000010,-0.00000099,0.00000317,-0.00000099,0.000003
 10,-0.00000137,-0.00000133,-0.00000086,-0.00000253,-0.00000158,-0.0000
 0335,-0.00000223,-0.00000241,-0.00000166,0.00000071\\\@


 UNDER MOST GREENE GRASSE LY MOST GREATE SNAKES.
 -- PROVERBS AND REASONS OF THE YEAR 1585
           AS REPRINTED IN PAISLEY MAGAZINE 1828.
 Job cpu time:       0 days  0 hours 37 minutes 20.3 seconds.
 File lengths (MBytes):  RWF=    318 Int=      0 D2E=      0 Chk=      8 Scr=      2
 Normal termination of Gaussian 09 at Fri Sep  9 23:11:16 2022.
