 Entering Gaussian System, Link 0=g09
 Input=SR-1-ts-SR-12.gjf
 Output=SR-1-ts-SR-12.log
 Initial command:
 /home/t1000003974/apps//g09/l1.exe "/home/t1000003974/tmp/Gau-244733.inp" -scrdir="/home/t1000003974/tmp/"
 Entering Link 1 = /home/t1000003974/apps//g09/l1.exe PID=    244734.
  
 Copyright (c) 1988,1990,1992,1993,1995,1998,2003,2009,2015,
            Gaussian, Inc.  All Rights Reserved.
  
 This is part of the Gaussian(R) 09 program.  It is based on
 the Gaussian(R) 03 system (copyright 2003, Gaussian, Inc.),
 the Gaussian(R) 98 system (copyright 1998, Gaussian, Inc.),
 the Gaussian(R) 94 system (copyright 1995, Gaussian, Inc.),
 the Gaussian 92(TM) system (copyright 1992, Gaussian, Inc.),
 the Gaussian 90(TM) system (copyright 1990, Gaussian, Inc.),
 the Gaussian 88(TM) system (copyright 1988, Gaussian, Inc.),
 the Gaussian 86(TM) system (copyright 1986, Carnegie Mellon
 University), and the Gaussian 82(TM) system (copyright 1983,
 Carnegie Mellon University). Gaussian is a federally registered
 trademark of Gaussian, Inc.
  
 This software contains proprietary and confidential information,
 including trade secrets, belonging to Gaussian, Inc.
  
 This software is provided under written license and may be
 used, copied, transmitted, or stored only in accord with that
 written license.
  
 The following legend is applicable only to US Government
 contracts under FAR:
  
                    RESTRICTED RIGHTS LEGEND
  
 Use, reproduction and disclosure by the US Government is
 subject to restrictions as set forth in subparagraphs (a)
 and (c) of the Commercial Computer Software - Restricted
 Rights clause in FAR 52.227-19.
  
 Gaussian, Inc.
 340 Quinnipiac St., Bldg. 40, Wallingford CT 06492
  
  
 ---------------------------------------------------------------
 Warning -- This program may not be used in any manner that
 competes with the business of Gaussian, Inc. or will provide
 assistance to any competitor of Gaussian, Inc.  The licensee
 of this program is prohibited from giving any competitor of
 Gaussian, Inc. access to this program.  By using this program,
 the user acknowledges that Gaussian, Inc. is engaged in the
 business of creating and licensing software in the field of
 computational chemistry and represents and warrants to the
 licensee that it is not a competitor of Gaussian, Inc. and that
 it will not use this program in any manner prohibited above.
 ---------------------------------------------------------------
  

 Cite this work as:
 Gaussian 09, Revision E.01,
 M. J. Frisch, G. W. Trucks, H. B. Schlegel, G. E. Scuseria, 
 M. A. Robb, J. R. Cheeseman, G. Scalmani, V. Barone, B. Mennucci, 
 G. A. Petersson, H. Nakatsuji, M. Caricato, X. Li, H. P. Hratchian, 
 A. F. Izmaylov, J. Bloino, G. Zheng, J. L. Sonnenberg, M. Hada, 
 M. Ehara, K. Toyota, R. Fukuda, J. Hasegawa, M. Ishida, T. Nakajima, 
 Y. Honda, O. Kitao, H. Nakai, T. Vreven, J. A. Montgomery, Jr., 
 J. E. Peralta, F. Ogliaro, M. Bearpark, J. J. Heyd, E. Brothers, 
 K. N. Kudin, V. N. Staroverov, T. Keith, R. Kobayashi, J. Normand, 
 K. Raghavachari, A. Rendell, J. C. Burant, S. S. Iyengar, J. Tomasi, 
 M. Cossi, N. Rega, J. M. Millam, M. Klene, J. E. Knox, J. B. Cross, 
 V. Bakken, C. Adamo, J. Jaramillo, R. Gomperts, R. E. Stratmann, 
 O. Yazyev, A. J. Austin, R. Cammi, C. Pomelli, J. W. Ochterski, 
 R. L. Martin, K. Morokuma, V. G. Zakrzewski, G. A. Voth, 
 P. Salvador, J. J. Dannenberg, S. Dapprich, A. D. Daniels, 
 O. Farkas, J. B. Foresman, J. V. Ortiz, J. Cioslowski, 
 and D. J. Fox, Gaussian, Inc., Wallingford CT, 2013.
 
 ******************************************
 Gaussian 09:  ES64L-G09RevE.01 30-Nov-2015
                 9-Sep-2022 
 ******************************************
 %nprocshared=30
 Will use up to   30 processors via shared memory.
 %mem=60GB
 %chk=SR-1-ts-SR-12.chk
 ----------------------------------------------------------------------
 # opt=(calcfc,ts,noeigentest) freq ub3lyp/6-311g(d,p) geom=connectivit
 y temperature=823.15
 ----------------------------------------------------------------------
 1/5=1,10=4,11=1,14=-1,18=20,26=3,38=1,57=2,112=823150/1,3;
 2/9=110,12=2,17=6,18=5,40=1/2;
 3/5=4,6=6,7=101,11=2,16=1,25=1,30=1,71=2,74=-5,116=2,140=1/1,2,3;
 4//1;
 5/5=2,38=5/2;
 8/6=4,10=90,11=11/1;
 11/6=1,8=1,9=11,15=111,16=1/1,2,10;
 10/6=1,13=1/2;
 6/7=2,8=2,9=2,10=2,28=1/1;
 7/10=1,18=20,25=1/1,2,3,16;
 1/5=1,10=4,11=1,14=-1,18=20,26=3/3(2);
 2/9=110/2;
 99//99;
 2/9=110/2;
 3/5=4,6=6,7=101,11=2,16=1,25=1,30=1,71=1,74=-5,116=2/1,2,3;
 4/5=5,16=3,69=1/1;
 5/5=2,38=5/2;
 7//1,2,3,16;
 1/5=1,11=1,14=-1,18=20,26=3/3(-5);
 2/9=110/2;
 6/7=2,8=2,9=2,10=2,19=2,28=1/1;
 99/9=1/99;
 -------------------
 Title Card Required
 -------------------
 Symbolic Z-matrix:
 Charge =  0 Multiplicity = 2
 C                     1.85491  -1.43328   0.00659 
 C                     0.55148  -1.84974  -0.24654 
 C                    -0.48691  -0.92643  -0.39155 
 C                    -0.19096   0.4543   -0.22642 
 C                     1.11058   0.85762   0.05306 
 C                     2.15108  -0.07859   0.16389 
 H                     0.3069   -2.8988   -0.364 
 H                     1.33831   1.90882   0.1795 
 O                    -1.25946   1.288    -0.34344 
 C                    -1.05209   2.68311  -0.17357 
 H                    -2.02722   3.14747  -0.30994 
 H                    -0.67604   2.91392   0.82933 
 H                    -0.35599   3.07685  -0.92211 
 O                    -1.71451  -1.33818  -0.73168 
 H                    -2.50107  -0.99857  -0.01042 
 C                    -3.4694   -0.75864   1.03185 
 H                    -3.98945   0.11982   0.66268 
 H                    -2.85216  -0.59762   1.91088 
 H                    -4.04562  -1.67924   1.0331 
 H                     3.15232   0.24062   0.36519 
 C                     2.9791   -2.479     0.12601 
 H                     2.77576  -3.12855   0.95163 
 H                     3.02942  -3.05312  -0.77552 
 H                     3.9132   -1.98191   0.28491 
 
 Add virtual bond connecting atoms H15        and O14        Dist= 2.12D+00.
 Add virtual bond connecting atoms C16        and H15        Dist= 2.73D+00.

 GradGradGradGradGradGradGradGradGradGradGradGradGradGradGradGradGradGrad
 Berny optimization.
 Initialization pass.
                           ----------------------------
                           !    Initial Parameters    !
                           ! (Angstroms and Degrees)  !
 --------------------------                            --------------------------
 ! Name  Definition              Value          Derivative Info.                !
 --------------------------------------------------------------------------------
 ! R1    R(1,2)                  1.3916         calculate D2E/DX2 analytically  !
 ! R2    R(1,6)                  1.3956         calculate D2E/DX2 analytically  !
 ! R3    R(1,21)                 1.54           calculate D2E/DX2 analytically  !
 ! R4    R(2,3)                  1.3971         calculate D2E/DX2 analytically  !
 ! R5    R(2,7)                  1.0836         calculate D2E/DX2 analytically  !
 ! R6    R(3,4)                  1.4217         calculate D2E/DX2 analytically  !
 ! R7    R(3,14)                 1.3387         calculate D2E/DX2 analytically  !
 ! R8    R(4,5)                  1.391          calculate D2E/DX2 analytically  !
 ! R9    R(4,9)                  1.3603         calculate D2E/DX2 analytically  !
 ! R10   R(5,6)                  1.4041         calculate D2E/DX2 analytically  !
 ! R11   R(5,8)                  1.083          calculate D2E/DX2 analytically  !
 ! R12   R(6,20)                 1.07           calculate D2E/DX2 analytically  !
 ! R13   R(9,10)                 1.4206         calculate D2E/DX2 analytically  !
 ! R14   R(10,11)                1.0886         calculate D2E/DX2 analytically  !
 ! R15   R(10,12)                1.0957         calculate D2E/DX2 analytically  !
 ! R16   R(10,13)                1.0954         calculate D2E/DX2 analytically  !
 ! R17   R(14,15)                1.1199         calculate D2E/DX2 analytically  !
 ! R18   R(15,16)                1.4428         calculate D2E/DX2 analytically  !
 ! R19   R(16,17)                1.0856         calculate D2E/DX2 analytically  !
 ! R20   R(16,18)                1.0861         calculate D2E/DX2 analytically  !
 ! R21   R(16,19)                1.0861         calculate D2E/DX2 analytically  !
 ! R22   R(21,22)                1.07           calculate D2E/DX2 analytically  !
 ! R23   R(21,23)                1.07           calculate D2E/DX2 analytically  !
 ! R24   R(21,24)                1.07           calculate D2E/DX2 analytically  !
 ! A1    A(2,1,6)              120.6497         calculate D2E/DX2 analytically  !
 ! A2    A(2,1,21)             119.6464         calculate D2E/DX2 analytically  !
 ! A3    A(6,1,21)             119.7018         calculate D2E/DX2 analytically  !
 ! A4    A(1,2,3)              121.1505         calculate D2E/DX2 analytically  !
 ! A5    A(1,2,7)              121.3907         calculate D2E/DX2 analytically  !
 ! A6    A(3,2,7)              117.4406         calculate D2E/DX2 analytically  !
 ! A7    A(2,3,4)              118.3636         calculate D2E/DX2 analytically  !
 ! A8    A(2,3,14)             120.3092         calculate D2E/DX2 analytically  !
 ! A9    A(4,3,14)             121.2711         calculate D2E/DX2 analytically  !
 ! A10   A(3,4,5)              119.9812         calculate D2E/DX2 analytically  !
 ! A11   A(3,4,9)              114.9427         calculate D2E/DX2 analytically  !
 ! A12   A(5,4,9)              125.0688         calculate D2E/DX2 analytically  !
 ! A13   A(4,5,6)              121.0603         calculate D2E/DX2 analytically  !
 ! A14   A(4,5,8)              120.1104         calculate D2E/DX2 analytically  !
 ! A15   A(6,5,8)              118.8265         calculate D2E/DX2 analytically  !
 ! A16   A(1,6,5)              118.756          calculate D2E/DX2 analytically  !
 ! A17   A(1,6,20)             120.622          calculate D2E/DX2 analytically  !
 ! A18   A(5,6,20)             120.622          calculate D2E/DX2 analytically  !
 ! A19   A(4,9,10)             118.4848         calculate D2E/DX2 analytically  !
 ! A20   A(9,10,11)            105.8524         calculate D2E/DX2 analytically  !
 ! A21   A(9,10,12)            111.495          calculate D2E/DX2 analytically  !
 ! A22   A(9,10,13)            111.3484         calculate D2E/DX2 analytically  !
 ! A23   A(11,10,12)           109.4053         calculate D2E/DX2 analytically  !
 ! A24   A(11,10,13)           109.2868         calculate D2E/DX2 analytically  !
 ! A25   A(12,10,13)           109.3696         calculate D2E/DX2 analytically  !
 ! A26   A(3,14,15)            112.7758         calculate D2E/DX2 analytically  !
 ! A27   A(15,16,17)           102.147          calculate D2E/DX2 analytically  !
 ! A28   A(15,16,18)           103.174          calculate D2E/DX2 analytically  !
 ! A29   A(15,16,19)           102.4721         calculate D2E/DX2 analytically  !
 ! A30   A(17,16,18)           115.311          calculate D2E/DX2 analytically  !
 ! A31   A(17,16,19)           115.6045         calculate D2E/DX2 analytically  !
 ! A32   A(18,16,19)           115.2302         calculate D2E/DX2 analytically  !
 ! A33   A(1,21,22)            109.4712         calculate D2E/DX2 analytically  !
 ! A34   A(1,21,23)            109.4712         calculate D2E/DX2 analytically  !
 ! A35   A(1,21,24)            109.4712         calculate D2E/DX2 analytically  !
 ! A36   A(22,21,23)           109.4713         calculate D2E/DX2 analytically  !
 ! A37   A(22,21,24)           109.4712         calculate D2E/DX2 analytically  !
 ! A38   A(23,21,24)           109.4712         calculate D2E/DX2 analytically  !
 ! A39   L(14,15,16,9,-1)      186.715          calculate D2E/DX2 analytically  !
 ! A40   L(14,15,16,9,-2)      186.4719         calculate D2E/DX2 analytically  !
 ! D1    D(6,1,2,3)              2.0146         calculate D2E/DX2 analytically  !
 ! D2    D(6,1,2,7)           -179.5778         calculate D2E/DX2 analytically  !
 ! D3    D(21,1,2,3)          -178.5063         calculate D2E/DX2 analytically  !
 ! D4    D(21,1,2,7)            -0.0987         calculate D2E/DX2 analytically  !
 ! D5    D(2,1,6,5)             -0.4226         calculate D2E/DX2 analytically  !
 ! D6    D(2,1,6,20)           179.5774         calculate D2E/DX2 analytically  !
 ! D7    D(21,1,6,5)          -179.9015         calculate D2E/DX2 analytically  !
 ! D8    D(21,1,6,20)            0.0985         calculate D2E/DX2 analytically  !
 ! D9    D(2,1,21,22)          -62.0377         calculate D2E/DX2 analytically  !
 ! D10   D(2,1,21,23)           57.9623         calculate D2E/DX2 analytically  !
 ! D11   D(2,1,21,24)          177.9623         calculate D2E/DX2 analytically  !
 ! D12   D(6,1,21,22)          117.4464         calculate D2E/DX2 analytically  !
 ! D13   D(6,1,21,23)         -122.5536         calculate D2E/DX2 analytically  !
 ! D14   D(6,1,21,24)           -2.5536         calculate D2E/DX2 analytically  !
 ! D15   D(1,2,3,4)             -2.2348         calculate D2E/DX2 analytically  !
 ! D16   D(1,2,3,14)           175.078          calculate D2E/DX2 analytically  !
 ! D17   D(7,2,3,4)            179.2968         calculate D2E/DX2 analytically  !
 ! D18   D(7,2,3,14)            -3.3904         calculate D2E/DX2 analytically  !
 ! D19   D(2,3,4,5)              0.9202         calculate D2E/DX2 analytically  !
 ! D20   D(2,3,4,9)           -178.1412         calculate D2E/DX2 analytically  !
 ! D21   D(14,3,4,5)          -176.3656         calculate D2E/DX2 analytically  !
 ! D22   D(14,3,4,9)             4.5731         calculate D2E/DX2 analytically  !
 ! D23   D(2,3,14,15)          125.3214         calculate D2E/DX2 analytically  !
 ! D24   D(4,3,14,15)          -57.4452         calculate D2E/DX2 analytically  !
 ! D25   D(3,4,5,6)              0.6258         calculate D2E/DX2 analytically  !
 ! D26   D(3,4,5,8)           -179.9848         calculate D2E/DX2 analytically  !
 ! D27   D(9,4,5,6)            179.5859         calculate D2E/DX2 analytically  !
 ! D28   D(9,4,5,8)             -1.0247         calculate D2E/DX2 analytically  !
 ! D29   D(3,4,9,10)           179.1463         calculate D2E/DX2 analytically  !
 ! D30   D(5,4,9,10)             0.1397         calculate D2E/DX2 analytically  !
 ! D31   D(4,5,6,1)             -0.8839         calculate D2E/DX2 analytically  !
 ! D32   D(4,5,6,20)           179.1161         calculate D2E/DX2 analytically  !
 ! D33   D(8,5,6,1)            179.7191         calculate D2E/DX2 analytically  !
 ! D34   D(8,5,6,20)            -0.2809         calculate D2E/DX2 analytically  !
 ! D35   D(4,9,10,11)          179.9164         calculate D2E/DX2 analytically  !
 ! D36   D(4,9,10,12)          -61.2002         calculate D2E/DX2 analytically  !
 ! D37   D(4,9,10,13)           61.2547         calculate D2E/DX2 analytically  !
 ! D38   D(3,14,16,17)         101.0456         calculate D2E/DX2 analytically  !
 ! D39   D(3,14,16,18)         -19.8908         calculate D2E/DX2 analytically  !
 ! D40   D(3,14,16,19)        -138.4521         calculate D2E/DX2 analytically  !
 --------------------------------------------------------------------------------
 Trust Radius=3.00D-01 FncErr=1.00D-07 GrdErr=1.00D-06
 Number of steps in this run=    114 maximum allowed number of steps=    144.
 Search for a saddle point of order  1.
 GradGradGradGradGradGradGradGradGradGradGradGradGradGradGradGradGradGrad

                          Input orientation:                          
 ---------------------------------------------------------------------
 Center     Atomic      Atomic             Coordinates (Angstroms)
 Number     Number       Type             X           Y           Z
 ---------------------------------------------------------------------
      1          6           0        1.854909   -1.433278    0.006585
      2          6           0        0.551476   -1.849738   -0.246540
      3          6           0       -0.486911   -0.926434   -0.391552
      4          6           0       -0.190964    0.454300   -0.226419
      5          6           0        1.110576    0.857620    0.053064
      6          6           0        2.151078   -0.078590    0.163892
      7          1           0        0.306904   -2.898802   -0.363995
      8          1           0        1.338312    1.908815    0.179499
      9          8           0       -1.259461    1.288001   -0.343436
     10          6           0       -1.052092    2.683113   -0.173567
     11          1           0       -2.027223    3.147471   -0.309943
     12          1           0       -0.676036    2.913922    0.829325
     13          1           0       -0.355988    3.076850   -0.922113
     14          8           0       -1.714510   -1.338183   -0.731684
     15          1           0       -2.501066   -0.998565   -0.010423
     16          6           0       -3.469400   -0.758638    1.031854
     17          1           0       -3.989449    0.119820    0.662677
     18          1           0       -2.852160   -0.597622    1.910882
     19          1           0       -4.045622   -1.679238    1.033105
     20          1           0        3.152321    0.240618    0.365186
     21          6           0        2.979096   -2.479003    0.126014
     22          1           0        2.775760   -3.128554    0.951627
     23          1           0        3.029419   -3.053115   -0.775519
     24          1           0        3.913201   -1.981912    0.284915
 ---------------------------------------------------------------------
                    Distance matrix (angstroms):
                    1          2          3          4          5
     1  C    0.000000
     2  C    1.391563   0.000000
     3  C    2.428894   1.397056   0.000000
     4  C    2.793356   2.420788   1.421717   0.000000
     5  C    2.409233   2.780673   2.435672   1.390965   0.000000
     6  C    1.395579   2.421600   2.826012   2.433408   1.404071
     7  H    2.163657   1.083580   2.126297   3.392653   3.864005
     8  H    3.386201   3.863592   3.419967   2.149202   1.082987
     9  O    4.150563   3.624126   2.345820   1.360307   2.441212
    10  C    5.042597   4.808689   3.660024   2.389967   2.839176
    11  H    6.012853   5.623683   4.356136   3.260674   3.901407
    12  H    5.097130   5.035546   4.034184   2.720226   2.832480
    13  H    5.108013   5.054815   4.040411   2.718270   2.833154
    14  O    3.646208   2.373130   1.338741   2.406134   3.663126
    15  H    4.377646   3.177776   2.051166   2.737525   4.061208
    16  C    5.463935   4.358008   3.309000   3.715187   4.954442
    17  H    6.082688   5.032478   3.804447   3.915464   5.189049
    18  H    5.145985   4.219834   3.317186   3.571633   4.612211
    19  H    5.994206   4.774921   3.906506   4.582224   5.829452
    20  H    2.147976   3.392372   3.895981   3.401942   2.155651
    21  C    1.540000   2.535372   3.832956   4.333331   3.824884
    22  H    2.148263   2.831680   4.159145   4.798550   4.412464
    23  H    2.148263   2.805020   4.127321   4.793155   4.434226
    24  H    2.148263   3.406040   4.575219   4.800080   3.996424
                    6          7          8          9         10
     6  C    0.000000
     7  H    3.410753   0.000000
     8  H    2.147233   4.946956   0.000000
     9  O    3.709006   4.470262   2.721635   0.000000
    10  C    4.242780   5.748122   2.537366   1.420632   0.000000
    11  H    5.300018   6.481396   3.619482   2.012016   1.088626
    12  H    4.170192   6.014810   2.343099   2.087911   1.095666
    13  H    4.173918   6.038157   2.334204   2.085932   1.095404
    14  O    4.163100   2.580086   4.548953   2.693445   4.113528
    15  H    4.745438   3.408901   4.819725   2.623140   3.959911
    16  C    5.727617   4.559514   5.563803   3.311191   4.375165
    17  H    6.163946   5.350213   5.640833   3.135242   3.987210
    18  H    5.324825   4.522188   5.180731   3.342785   4.283503
    19  H    6.458846   4.731142   6.526064   4.296751   5.426545
    20  H    1.070000   4.299309   2.471434   4.589441   4.892149
    21  C    2.539494   2.748991   4.684867   5.689997   6.556498
    22  H    3.211392   2.806937   5.295047   6.120960   7.049396
    23  H    3.240644   2.757762   5.328476   6.117718   7.065790
    24  H    2.596606   3.777188   4.666790   6.151715   6.828382
                   11         12         13         14         15
    11  H    0.000000
    12  H    1.782746   0.000000
    13  H    1.781226   1.787879   0.000000
    14  O    4.516276   4.647104   4.623241   0.000000
    15  H    4.183761   4.398121   4.694842   1.119923   0.000000
    16  C    4.374698   4.618614   5.312465   2.554521   1.442767
    17  H    3.736709   4.337451   4.945465   3.040619   1.979680
    18  H    4.431513   4.270389   5.268632   2.970830   1.993849
    19  H    5.401373   5.700242   6.329032   2.943617   1.984419
    20  H    5.977731   4.692365   4.691437   5.232760   5.799779
    21  C    7.543904   6.552730   6.564210   4.905818   5.678247
    22  H    8.003043   6.959984   7.199013   5.118739   5.771246
    23  H    8.014590   7.204960   7.004209   5.044579   5.949186
    24  H    7.871027   6.732509   6.728593   5.754910   6.495923
                   16         17         18         19         20
    16  C    0.000000
    17  H    1.085556   0.000000
    18  H    1.086095   1.834711   0.000000
    19  H    1.086065   1.837657   1.834322   0.000000
    20  H    6.729795   7.148984   6.256645   7.479461   0.000000
    21  C    6.735228   7.456709   6.381919   7.128050   2.735607
    22  H    6.680191   7.510225   6.244939   6.974124   3.440499
    23  H    7.125017   7.835843   6.916586   7.430670   3.487835
    24  H    7.520447   8.186077   7.094374   7.999642   2.350537
                   21         22         23         24
    21  C    0.000000
    22  H    1.070000   0.000000
    23  H    1.070000   1.747303   0.000000
    24  H    1.070000   1.747303   1.747303   0.000000
 Stoichiometry    C9H13O2(2)
 Framework group  C1[X(C9H13O2)]
 Deg. of freedom    66
 Full point group                 C1      NOp   1
 Largest Abelian subgroup         C1      NOp   1
 Largest concise Abelian subgroup C1      NOp   1
                         Standard orientation:                         
 ---------------------------------------------------------------------
 Center     Atomic      Atomic             Coordinates (Angstroms)
 Number     Number       Type             X           Y           Z
 ---------------------------------------------------------------------
      1          6           0        2.223838   -0.119776    0.077901
      2          6           0        1.269946   -1.075962   -0.257132
      3          6           0       -0.075698   -0.732274   -0.408416
      4          6           0       -0.460380    0.614476   -0.164356
      5          6           0        0.497409    1.556482    0.196265
      6          6           0        1.851646    1.204563    0.312937
      7          1           0        1.544614   -2.108861   -0.435524
      8          1           0        0.206668    2.582882    0.382905
      9          8           0       -1.791512    0.863227   -0.293381
     10          6           0       -2.261351    2.181304   -0.048191
     11          1           0       -3.337463    2.148215   -0.209422
     12          1           0       -2.057005    2.495326    0.981429
     13          1           0       -1.813347    2.900027   -0.742914
     14          8           0       -0.962888   -1.643553   -0.826378
     15          1           0       -1.831900   -1.754428   -0.128702
     16          6           0       -2.821969   -2.058274    0.875797
     17          1           0       -3.683507   -1.499484    0.523748
     18          1           0       -2.369174   -1.686145    1.790181
     19          1           0       -2.903003   -3.139054    0.805894
     20          1           0        2.584569    1.938008    0.577100
     21          6           0        3.702935   -0.530215    0.202033
     22          1           0        3.808413   -1.251437    0.985368
     23          1           0        4.033581   -0.956390   -0.722061
     24          1           0        4.294497    0.332004    0.429039
 ---------------------------------------------------------------------
 Rotational constants (GHZ):      1.5411366      0.7696523      0.5523050
 Standard basis: 6-311G(d,p) (5D, 7F)
 There are   287 symmetry adapted cartesian basis functions of A   symmetry.
 There are   276 symmetry adapted basis functions of A   symmetry.
   276 basis functions,   456 primitive gaussians,   287 cartesian basis functions
    42 alpha electrons       41 beta electrons
       nuclear repulsion energy       609.2165060961 Hartrees.
 NAtoms=   24 NActive=   24 NUniq=   24 SFac= 1.00D+00 NAtFMM=   60 NAOKFM=F Big=F
 Integral buffers will be    131072 words long.
 Raffenetti 2 integral format.
 Two-electron integral symmetry is turned on.
 One-electron integrals computed using PRISM.
 NBasis=   276 RedAO= T EigKep=  1.89D-04  NBF=   276
 NBsUse=   276 1.00D-06 EigRej= -1.00D+00 NBFU=   276
 ExpMin= 1.03D-01 ExpMax= 8.59D+03 ExpMxC= 1.30D+03 IAcc=1 IRadAn=         1 AccDes= 0.00D+00
 Harris functional with IExCor=  402 and IRadAn=       1 diagonalized for initial guess.
 HarFok:  IExCor=  402 AccDes= 0.00D+00 IRadAn=         1 IDoV= 1 UseB2=F ITyADJ=14
 ICtDFT=  3500011 ScaDFX=  1.000000  1.000000  1.000000  1.000000
 FoFCou: FMM=F IPFlag=           0 FMFlag=      100000 FMFlg1=           0
         NFxFlg=           0 DoJE=T BraDBF=F KetDBF=T FulRan=T
         wScrn=  0.000000 ICntrl=     500 IOpCl=  0 I1Cent=   200000004 NGrid=           0
         NMat0=    1 NMatS0=      1 NMatT0=    0 NMatD0=    1 NMtDS0=    0 NMtDT0=    0
 Petite list used in FoFCou.
 Initial guess <Sx>= 0.0000 <Sy>= 0.0000 <Sz>= 0.5000 <S**2>= 0.7500 S= 0.5000
 Keep R1 and R2 ints in memory in canonical form, NReq=1473485514.
 Requested convergence on RMS density matrix=1.00D-08 within 128 cycles.
 Requested convergence on MAX density matrix=1.00D-06.
 Requested convergence on             energy=1.00D-06.
 No special actions if energy rises.
 Integral accuracy reduced to 1.0D-05 until final iterations.
 Initial convergence to 1.0D-05 achieved.  Increase integral accuracy.
 SCF Done:  E(UB3LYP) =  -501.273977388     A.U. after   20 cycles
            NFock= 20  Conv=0.94D-08     -V/T= 2.0038
 <Sx>= 0.0000 <Sy>= 0.0000 <Sz>= 0.5000 <S**2>= 0.7587 S= 0.5043
 <L.S>= 0.000000000000E+00
 Annihilation of the first spin contaminant:
 S**2 before annihilation     0.7587,   after     0.7501
 DoSCS=F DFT=T ScalE2(SS,OS)=  1.000000  1.000000
 Range of M.O.s used for correlation:     1   276
 NBasis=   276 NAE=    42 NBE=    41 NFC=     0 NFV=     0
 NROrb=    276 NOA=    42 NOB=    41 NVA=   234 NVB=   235

 **** Warning!!: The largest alpha MO coefficient is  0.16136985D+02


 **** Warning!!: The largest beta MO coefficient is  0.16179599D+02


 **** Warning!!: The smallest beta delta epsilon is  0.89647065D-01

 Symmetrizing basis deriv contribution to polar:
 IMax=3 JMax=2 DiffMx= 0.00D+00
 G2DrvN: will do    25 centers at a time, making    1 passes.
 Calling FoFCou, ICntrl=  3107 FMM=F I1Cent=   0 AccDes= 0.00D+00.
 End of G2Drv F.D. properties file   721 does not exist.
 End of G2Drv F.D. properties file   722 does not exist.
 End of G2Drv F.D. properties file   788 does not exist.
          IDoAtm=111111111111111111111111
          Differentiating once with respect to nuclear coordinates.
 Keep R1 and R2 ints in memory in canonical form, NReq=1473217458.
          There are    75 degrees of freedom in the 1st order CPHF.  IDoFFX=6 NUNeed=     0.
     69 vectors produced by pass  0 Test12= 2.60D-14 1.33D-09 XBig12= 4.42D-01 3.21D-01.
 AX will form    69 AO Fock derivatives at one time.
     69 vectors produced by pass  1 Test12= 2.60D-14 1.33D-09 XBig12= 9.23D-02 6.60D-02.
     69 vectors produced by pass  2 Test12= 2.60D-14 1.33D-09 XBig12= 1.30D-03 8.46D-03.
     69 vectors produced by pass  3 Test12= 2.60D-14 1.33D-09 XBig12= 1.02D-05 4.99D-04.
     69 vectors produced by pass  4 Test12= 2.60D-14 1.33D-09 XBig12= 5.73D-08 2.60D-05.
     69 vectors produced by pass  5 Test12= 2.60D-14 1.33D-09 XBig12= 3.15D-10 1.44D-06.
     43 vectors produced by pass  6 Test12= 2.60D-14 1.33D-09 XBig12= 1.79D-12 9.42D-08.
      9 vectors produced by pass  7 Test12= 2.60D-14 1.33D-09 XBig12= 7.79D-15 7.36D-09.
 InvSVY:  IOpt=1 It=  1 EMax= 5.55D-16
 Solved reduced A of dimension   466 with    75 vectors.
 End of Minotr F.D. properties file   721 does not exist.
 End of Minotr F.D. properties file   722 does not exist.
 End of Minotr F.D. properties file   788 does not exist.

 **********************************************************************

            Population analysis using the SCF density.

 **********************************************************************

 Orbital symmetries:
 Alpha Orbitals:
       Occupied  (A) (A) (A) (A) (A) (A) (A) (A) (A) (A) (A) (A)
                 (A) (A) (A) (A) (A) (A) (A) (A) (A) (A) (A) (A)
                 (A) (A) (A) (A) (A) (A) (A) (A) (A) (A) (A) (A)
                 (A) (A) (A) (A) (A) (A)
       Virtual   (A) (A) (A) (A) (A) (A) (A) (A) (A) (A) (A) (A)
                 (A) (A) (A) (A) (A) (A) (A) (A) (A) (A) (A) (A)
                 (A) (A) (A) (A) (A) (A) (A) (A) (A) (A) (A) (A)
                 (A) (A) (A) (A) (A) (A) (A) (A) (A) (A) (A) (A)
                 (A) (A) (A) (A) (A) (A) (A) (A) (A) (A) (A) (A)
                 (A) (A) (A) (A) (A) (A) (A) (A) (A) (A) (A) (A)
                 (A) (A) (A) (A) (A) (A) (A) (A) (A) (A) (A) (A)
                 (A) (A) (A) (A) (A) (A) (A) (A) (A) (A) (A) (A)
                 (A) (A) (A) (A) (A) (A) (A) (A) (A) (A) (A) (A)
                 (A) (A) (A) (A) (A) (A) (A) (A) (A) (A) (A) (A)
                 (A) (A) (A) (A) (A) (A) (A) (A) (A) (A) (A) (A)
                 (A) (A) (A) (A) (A) (A) (A) (A) (A) (A) (A) (A)
                 (A) (A) (A) (A) (A) (A) (A) (A) (A) (A) (A) (A)
                 (A) (A) (A) (A) (A) (A) (A) (A) (A) (A) (A) (A)
                 (A) (A) (A) (A) (A) (A) (A) (A) (A) (A) (A) (A)
                 (A) (A) (A) (A) (A) (A) (A) (A) (A) (A) (A) (A)
                 (A) (A) (A) (A) (A) (A) (A) (A) (A) (A) (A) (A)
                 (A) (A) (A) (A) (A) (A) (A) (A) (A) (A) (A) (A)
                 (A) (A) (A) (A) (A) (A) (A) (A) (A) (A) (A) (A)
                 (A) (A) (A) (A) (A) (A)
 Beta  Orbitals:
       Occupied  (A) (A) (A) (A) (A) (A) (A) (A) (A) (A) (A) (A)
                 (A) (A) (A) (A) (A) (A) (A) (A) (A) (A) (A) (A)
                 (A) (A) (A) (A) (A) (A) (A) (A) (A) (A) (A) (A)
                 (A) (A) (A) (A) (A)
       Virtual   (A) (A) (A) (A) (A) (A) (A) (A) (A) (A) (A) (A)
                 (A) (A) (A) (A) (A) (A) (A) (A) (A) (A) (A) (A)
                 (A) (A) (A) (A) (A) (A) (A) (A) (A) (A) (A) (A)
                 (A) (A) (A) (A) (A) (A) (A) (A) (A) (A) (A) (A)
                 (A) (A) (A) (A) (A) (A) (A) (A) (A) (A) (A) (A)
                 (A) (A) (A) (A) (A) (A) (A) (A) (A) (A) (A) (A)
                 (A) (A) (A) (A) (A) (A) (A) (A) (A) (A) (A) (A)
                 (A) (A) (A) (A) (A) (A) (A) (A) (A) (A) (A) (A)
                 (A) (A) (A) (A) (A) (A) (A) (A) (A) (A) (A) (A)
                 (A) (A) (A) (A) (A) (A) (A) (A) (A) (A) (A) (A)
                 (A) (A) (A) (A) (A) (A) (A) (A) (A) (A) (A) (A)
                 (A) (A) (A) (A) (A) (A) (A) (A) (A) (A) (A) (A)
                 (A) (A) (A) (A) (A) (A) (A) (A) (A) (A) (A) (A)
                 (A) (A) (A) (A) (A) (A) (A) (A) (A) (A) (A) (A)
                 (A) (A) (A) (A) (A) (A) (A) (A) (A) (A) (A) (A)
                 (A) (A) (A) (A) (A) (A) (A) (A) (A) (A) (A) (A)
                 (A) (A) (A) (A) (A) (A) (A) (A) (A) (A) (A) (A)
                 (A) (A) (A) (A) (A) (A) (A) (A) (A) (A) (A) (A)
                 (A) (A) (A) (A) (A) (A) (A) (A) (A) (A) (A) (A)
                 (A) (A) (A) (A) (A) (A) (A)
 The electronic state is 2-A.
 Alpha  occ. eigenvalues --  -19.15670 -19.12743 -10.23232 -10.23005 -10.22357
 Alpha  occ. eigenvalues --  -10.17648 -10.17602 -10.17323 -10.17169 -10.16551
 Alpha  occ. eigenvalues --  -10.15852  -1.07738  -1.03093  -0.85257  -0.77306
 Alpha  occ. eigenvalues --   -0.74374  -0.72355  -0.69920  -0.67008  -0.61060
 Alpha  occ. eigenvalues --   -0.58686  -0.54190  -0.51566  -0.49340  -0.47818
 Alpha  occ. eigenvalues --   -0.45240  -0.44751  -0.43268  -0.42780  -0.42026
 Alpha  occ. eigenvalues --   -0.41673  -0.41031  -0.39628  -0.37604  -0.36818
 Alpha  occ. eigenvalues --   -0.35388  -0.33858  -0.32304  -0.30322  -0.26072
 Alpha  occ. eigenvalues --   -0.23808  -0.20731
 Alpha virt. eigenvalues --   -0.00426   0.00937   0.03997   0.05180   0.06003
 Alpha virt. eigenvalues --    0.08120   0.09269   0.09636   0.10823   0.11182
 Alpha virt. eigenvalues --    0.11962   0.12225   0.12479   0.13718   0.15504
 Alpha virt. eigenvalues --    0.17283   0.17766   0.21362   0.23895   0.25726
 Alpha virt. eigenvalues --    0.26438   0.26945   0.28644   0.29071   0.30819
 Alpha virt. eigenvalues --    0.31254   0.31491   0.32234   0.34954   0.36543
 Alpha virt. eigenvalues --    0.38614   0.39646   0.39969   0.40469   0.41826
 Alpha virt. eigenvalues --    0.43468   0.44811   0.46373   0.46599   0.48012
 Alpha virt. eigenvalues --    0.49459   0.50122   0.51163   0.52760   0.53110
 Alpha virt. eigenvalues --    0.53596   0.54926   0.57003   0.57923   0.58511
 Alpha virt. eigenvalues --    0.59176   0.59678   0.60294   0.60791   0.61357
 Alpha virt. eigenvalues --    0.62056   0.62923   0.63400   0.65421   0.66025
 Alpha virt. eigenvalues --    0.67784   0.69632   0.74727   0.75316   0.76672
 Alpha virt. eigenvalues --    0.79186   0.79931   0.83161   0.84766   0.85909
 Alpha virt. eigenvalues --    0.89160   0.90960   0.91775   0.94253   0.94816
 Alpha virt. eigenvalues --    0.96577   0.99410   0.99996   1.01101   1.02686
 Alpha virt. eigenvalues --    1.03897   1.05858   1.08506   1.09060   1.12165
 Alpha virt. eigenvalues --    1.13583   1.19856   1.21787   1.24933   1.26058
 Alpha virt. eigenvalues --    1.33327   1.35641   1.36141   1.37478   1.41692
 Alpha virt. eigenvalues --    1.41851   1.42235   1.42632   1.44904   1.46065
 Alpha virt. eigenvalues --    1.46421   1.47601   1.48336   1.48852   1.49897
 Alpha virt. eigenvalues --    1.50563   1.53303   1.55152   1.55470   1.56078
 Alpha virt. eigenvalues --    1.56434   1.57238   1.58231   1.59624   1.64145
 Alpha virt. eigenvalues --    1.65305   1.65808   1.68381   1.69156   1.69718
 Alpha virt. eigenvalues --    1.70899   1.75101   1.78159   1.79200   1.81419
 Alpha virt. eigenvalues --    1.82712   1.83766   1.85519   1.87266   1.88494
 Alpha virt. eigenvalues --    1.89522   1.92170   1.94052   1.95702   1.96409
 Alpha virt. eigenvalues --    1.98372   2.01329   2.06131   2.06625   2.08521
 Alpha virt. eigenvalues --    2.10941   2.11935   2.12947   2.13965   2.14242
 Alpha virt. eigenvalues --    2.15877   2.20648   2.25204   2.29077   2.29704
 Alpha virt. eigenvalues --    2.32606   2.35217   2.37896   2.39604   2.40636
 Alpha virt. eigenvalues --    2.42581   2.43330   2.43729   2.45144   2.45621
 Alpha virt. eigenvalues --    2.47330   2.51557   2.52740   2.54434   2.54576
 Alpha virt. eigenvalues --    2.54911   2.55557   2.56963   2.58364   2.58909
 Alpha virt. eigenvalues --    2.61797   2.63342   2.66223   2.66925   2.70493
 Alpha virt. eigenvalues --    2.72173   2.73677   2.79841   2.84397   2.86004
 Alpha virt. eigenvalues --    2.86283   2.86702   2.91278   2.92651   2.96770
 Alpha virt. eigenvalues --    3.01005   3.02195   3.04108   3.06002   3.06543
 Alpha virt. eigenvalues --    3.12571   3.16127   3.21711   3.26538   3.28547
 Alpha virt. eigenvalues --    3.28956   3.35190   3.39240   3.43855   3.51430
 Alpha virt. eigenvalues --    3.59485   3.62622   3.63201   3.74404   3.74956
 Alpha virt. eigenvalues --    3.75165   3.79559   3.84471   3.86663   3.91589
 Alpha virt. eigenvalues --    4.01046   4.07319   4.11627   4.13079   4.17533
 Alpha virt. eigenvalues --    4.30412   4.83409   4.90539   4.96018   5.26491
 Alpha virt. eigenvalues --    5.31017   5.73396   5.83136  23.47867  23.85616
 Alpha virt. eigenvalues --   23.85896  23.88436  23.90252  23.97138  24.04448
 Alpha virt. eigenvalues --   24.09450  24.16848  49.90365  49.94716
  Beta  occ. eigenvalues --  -19.15586 -19.11891 -10.23138 -10.23008 -10.22427
  Beta  occ. eigenvalues --  -10.17693 -10.17370 -10.17052 -10.16616 -10.16450
  Beta  occ. eigenvalues --  -10.15849  -1.07520  -1.01449  -0.85061  -0.77218
  Beta  occ. eigenvalues --   -0.74088  -0.72193  -0.67458  -0.66806  -0.60891
  Beta  occ. eigenvalues --   -0.58274  -0.53931  -0.50757  -0.48854  -0.47615
  Beta  occ. eigenvalues --   -0.45055  -0.44517  -0.43205  -0.42602  -0.41347
  Beta  occ. eigenvalues --   -0.40967  -0.40183  -0.39560  -0.37457  -0.35903
  Beta  occ. eigenvalues --   -0.35127  -0.33736  -0.31779  -0.29425  -0.24069
  Beta  occ. eigenvalues --   -0.21326
  Beta virt. eigenvalues --   -0.12361   0.00029   0.01383   0.04059   0.05303
  Beta virt. eigenvalues --    0.06196   0.08216   0.09335   0.09711   0.10866
  Beta virt. eigenvalues --    0.11302   0.12023   0.12313   0.12745   0.13955
  Beta virt. eigenvalues --    0.15526   0.17526   0.18198   0.21666   0.24177
  Beta virt. eigenvalues --    0.25764   0.27116   0.27326   0.28829   0.29951
  Beta virt. eigenvalues --    0.30955   0.31406   0.31851   0.32398   0.35137
  Beta virt. eigenvalues --    0.36687   0.38709   0.39790   0.40094   0.40573
  Beta virt. eigenvalues --    0.41967   0.43542   0.45149   0.46724   0.47531
  Beta virt. eigenvalues --    0.48385   0.49816   0.50450   0.51450   0.52846
  Beta virt. eigenvalues --    0.53253   0.53965   0.55023   0.57120   0.58074
  Beta virt. eigenvalues --    0.58688   0.59649   0.60355   0.60751   0.61022
  Beta virt. eigenvalues --    0.61541   0.62127   0.63359   0.63530   0.65501
  Beta virt. eigenvalues --    0.66176   0.67849   0.69744   0.74977   0.76048
  Beta virt. eigenvalues --    0.76897   0.79286   0.80026   0.83259   0.84889
  Beta virt. eigenvalues --    0.86030   0.89643   0.91260   0.92542   0.94404
  Beta virt. eigenvalues --    0.94970   0.97062   0.99627   1.00278   1.02133
  Beta virt. eigenvalues --    1.03261   1.04377   1.06014   1.08945   1.09553
  Beta virt. eigenvalues --    1.12579   1.14008   1.19999   1.21876   1.25149
  Beta virt. eigenvalues --    1.26342   1.33402   1.35690   1.36206   1.37626
  Beta virt. eigenvalues --    1.41614   1.41943   1.42638   1.42967   1.44997
  Beta virt. eigenvalues --    1.46235   1.46824   1.47870   1.48895   1.49732
  Beta virt. eigenvalues --    1.49947   1.51363   1.53427   1.55468   1.55559
  Beta virt. eigenvalues --    1.56194   1.56841   1.57274   1.58300   1.59729
  Beta virt. eigenvalues --    1.64300   1.65606   1.65990   1.68505   1.69353
  Beta virt. eigenvalues --    1.69886   1.71131   1.75134   1.78214   1.79244
  Beta virt. eigenvalues --    1.81880   1.82867   1.84210   1.86098   1.87307
  Beta virt. eigenvalues --    1.88591   1.89777   1.92307   1.94116   1.95738
  Beta virt. eigenvalues --    1.96428   1.98406   2.01501   2.06200   2.06672
  Beta virt. eigenvalues --    2.08748   2.12051   2.12429   2.13141   2.14399
  Beta virt. eigenvalues --    2.15688   2.17045   2.20854   2.25285   2.29114
  Beta virt. eigenvalues --    2.29837   2.32663   2.35282   2.37977   2.39815
  Beta virt. eigenvalues --    2.40651   2.43203   2.43430   2.44666   2.45268
  Beta virt. eigenvalues --    2.45711   2.47613   2.51522   2.52843   2.54458
  Beta virt. eigenvalues --    2.54817   2.55084   2.56079   2.57285   2.58395
  Beta virt. eigenvalues --    2.58936   2.61865   2.63383   2.66256   2.66961
  Beta virt. eigenvalues --    2.70641   2.72245   2.73988   2.79945   2.84531
  Beta virt. eigenvalues --    2.86184   2.86402   2.86761   2.91513   2.92695
  Beta virt. eigenvalues --    2.96934   3.01833   3.02637   3.04317   3.06225
  Beta virt. eigenvalues --    3.07284   3.12807   3.16254   3.22260   3.27416
  Beta virt. eigenvalues --    3.29720   3.31165   3.35331   3.39488   3.44276
  Beta virt. eigenvalues --    3.51543   3.59531   3.62897   3.63414   3.74746
  Beta virt. eigenvalues --    3.76015   3.76326   3.79589   3.84468   3.86726
  Beta virt. eigenvalues --    3.93978   4.01376   4.07415   4.11749   4.13270
  Beta virt. eigenvalues --    4.17660   4.30422   4.83578   4.91005   4.96690
  Beta virt. eigenvalues --    5.28172   5.31428   5.73933   5.84100  23.47890
  Beta virt. eigenvalues --   23.85631  23.85933  23.89519  23.90238  23.97169
  Beta virt. eigenvalues --   24.04489  24.09486  24.16892  49.90661  49.95361
          Condensed to atoms (all electrons):
               1          2          3          4          5          6
     1  C    5.079789   0.497807  -0.050606  -0.047579  -0.046654   0.537020
     2  C    0.497807   4.881728   0.541896  -0.074018  -0.039766  -0.055920
     3  C   -0.050606   0.541896   4.922118   0.295370  -0.019258  -0.037887
     4  C   -0.047579  -0.074018   0.295370   5.164143   0.314556  -0.001528
     5  C   -0.046654  -0.039766  -0.019258   0.314556   5.170188   0.445526
     6  C    0.537020  -0.055920  -0.037887  -0.001528   0.445526   4.830563
     7  H   -0.049338   0.406351  -0.046157   0.017262  -0.003229   0.009244
     8  H    0.007235   0.000544   0.001470  -0.047788   0.409819  -0.025057
     9  O   -0.000219   0.002039  -0.078337   0.395681  -0.079775   0.005415
    10  C    0.000050  -0.000192   0.008811  -0.074921  -0.016226  -0.000242
    11  H   -0.000000   0.000028  -0.000124   0.004912   0.000877   0.000029
    12  H   -0.000055  -0.000008  -0.000737  -0.006088   0.005608  -0.000417
    13  H    0.000011  -0.000151  -0.000727  -0.006316   0.005166  -0.000457
    14  O    0.004357  -0.057893   0.364097  -0.088194   0.007465  -0.000257
    15  H   -0.000244   0.003575  -0.056430  -0.003655   0.001378  -0.000235
    16  C    0.000108  -0.001945   0.000134  -0.002393  -0.000120   0.000031
    17  H    0.000001  -0.000020   0.000052   0.000065   0.000046  -0.000004
    18  H   -0.000041   0.000440   0.002321   0.000662  -0.000137  -0.000013
    19  H    0.000001  -0.000041   0.000068   0.000157   0.000002  -0.000001
    20  H   -0.043550   0.007345  -0.000717   0.007829  -0.037003   0.416599
    21  C    0.353579  -0.056262   0.006717  -0.001608   0.010110  -0.062459
    22  H   -0.039062  -0.003475   0.000058  -0.000017  -0.000321   0.000648
    23  H   -0.037107  -0.005136   0.000372   0.000026  -0.000385   0.001694
    24  H   -0.035241   0.006971  -0.000425   0.000093   0.000461  -0.007426
               7          8          9         10         11         12
     1  C   -0.049338   0.007235  -0.000219   0.000050  -0.000000  -0.000055
     2  C    0.406351   0.000544   0.002039  -0.000192   0.000028  -0.000008
     3  C   -0.046157   0.001470  -0.078337   0.008811  -0.000124  -0.000737
     4  C    0.017262  -0.047788   0.395681  -0.074921   0.004912  -0.006088
     5  C   -0.003229   0.409819  -0.079775  -0.016226   0.000877   0.005608
     6  C    0.009244  -0.025057   0.005415  -0.000242   0.000029  -0.000417
     7  H    0.574352   0.000069  -0.000142   0.000025  -0.000001   0.000001
     8  H    0.000069   0.559899  -0.006422   0.004233   0.000025   0.000116
     9  O   -0.000142  -0.006422   7.900806   0.279350  -0.024554  -0.033271
    10  C    0.000025   0.004233   0.279350   4.734056   0.403238   0.395512
    11  H   -0.000001   0.000025  -0.024554   0.403238   0.540985  -0.027107
    12  H    0.000001   0.000116  -0.033271   0.395512  -0.027107   0.607342
    13  H   -0.000000   0.000012  -0.032447   0.398755  -0.027724  -0.051737
    14  O    0.008176  -0.000077   0.001919  -0.000407   0.000030  -0.000016
    15  H   -0.000373   0.000015   0.005219  -0.000417  -0.000152   0.000178
    16  C    0.000078  -0.000008   0.003882   0.000046   0.000048  -0.000199
    17  H   -0.000000   0.000002   0.002134  -0.000125  -0.000058   0.000051
    18  H    0.000019  -0.000001  -0.000065   0.000018   0.000009  -0.000016
    19  H    0.000013   0.000000   0.000234  -0.000007  -0.000005  -0.000006
    20  H   -0.000259  -0.007170  -0.000085  -0.000033  -0.000000   0.000019
    21  C   -0.009075  -0.000400   0.000000  -0.000001  -0.000000   0.000000
    22  H    0.000850   0.000021  -0.000000  -0.000000   0.000000   0.000001
    23  H    0.001031   0.000021  -0.000000  -0.000000   0.000000  -0.000000
    24  H    0.000247  -0.000022  -0.000000   0.000000  -0.000000   0.000000
              13         14         15         16         17         18
     1  C    0.000011   0.004357  -0.000244   0.000108   0.000001  -0.000041
     2  C   -0.000151  -0.057893   0.003575  -0.001945  -0.000020   0.000440
     3  C   -0.000727   0.364097  -0.056430   0.000134   0.000052   0.002321
     4  C   -0.006316  -0.088194  -0.003655  -0.002393   0.000065   0.000662
     5  C    0.005166   0.007465   0.001378  -0.000120   0.000046  -0.000137
     6  C   -0.000457  -0.000257  -0.000235   0.000031  -0.000004  -0.000013
     7  H   -0.000000   0.008176  -0.000373   0.000078  -0.000000   0.000019
     8  H    0.000012  -0.000077   0.000015  -0.000008   0.000002  -0.000001
     9  O   -0.032447   0.001919   0.005219   0.003882   0.002134  -0.000065
    10  C    0.398755  -0.000407  -0.000417   0.000046  -0.000125   0.000018
    11  H   -0.027724   0.000030  -0.000152   0.000048  -0.000058   0.000009
    12  H   -0.051737  -0.000016   0.000178  -0.000199   0.000051  -0.000016
    13  H    0.602006  -0.000058   0.000043   0.000070   0.000030   0.000001
    14  O   -0.000058   7.963270   0.234354  -0.074783   0.001218   0.000221
    15  H    0.000043   0.234354   0.409970   0.181669  -0.007130  -0.006782
    16  C    0.000070  -0.074783   0.181669   5.180095   0.390121   0.387461
    17  H    0.000030   0.001218  -0.007130   0.390121   0.532977  -0.025066
    18  H    0.000001   0.000221  -0.006782   0.387461  -0.025066   0.541111
    19  H    0.000002   0.001697  -0.007669   0.389231  -0.024872  -0.025688
    20  H    0.000012   0.000007  -0.000001   0.000000   0.000000  -0.000000
    21  C    0.000000  -0.000108   0.000026  -0.000002   0.000000   0.000000
    22  H   -0.000000  -0.000012  -0.000001  -0.000001   0.000000   0.000001
    23  H    0.000001  -0.000001   0.000001   0.000000   0.000000  -0.000000
    24  H    0.000000   0.000003  -0.000001   0.000000   0.000000  -0.000000
              19         20         21         22         23         24
     1  C    0.000001  -0.043550   0.353579  -0.039062  -0.037107  -0.035241
     2  C   -0.000041   0.007345  -0.056262  -0.003475  -0.005136   0.006971
     3  C    0.000068  -0.000717   0.006717   0.000058   0.000372  -0.000425
     4  C    0.000157   0.007829  -0.001608  -0.000017   0.000026   0.000093
     5  C    0.000002  -0.037003   0.010110  -0.000321  -0.000385   0.000461
     6  C   -0.000001   0.416599  -0.062459   0.000648   0.001694  -0.007426
     7  H    0.000013  -0.000259  -0.009075   0.000850   0.001031   0.000247
     8  H    0.000000  -0.007170  -0.000400   0.000021   0.000021  -0.000022
     9  O    0.000234  -0.000085   0.000000  -0.000000  -0.000000  -0.000000
    10  C   -0.000007  -0.000033  -0.000001  -0.000000  -0.000000   0.000000
    11  H   -0.000005  -0.000000  -0.000000   0.000000   0.000000  -0.000000
    12  H   -0.000006   0.000019   0.000000   0.000001  -0.000000   0.000000
    13  H    0.000002   0.000012   0.000000  -0.000000   0.000001   0.000000
    14  O    0.001697   0.000007  -0.000108  -0.000012  -0.000001   0.000003
    15  H   -0.007669  -0.000001   0.000026  -0.000001   0.000001  -0.000001
    16  C    0.389231   0.000000  -0.000002  -0.000001   0.000000   0.000000
    17  H   -0.024872   0.000000   0.000000   0.000000   0.000000   0.000000
    18  H   -0.025688  -0.000000   0.000000   0.000001  -0.000000  -0.000000
    19  H    0.536968   0.000000  -0.000000  -0.000000   0.000000   0.000000
    20  H    0.000000   0.577561  -0.009866   0.000129   0.000144   0.003707
    21  C   -0.000000  -0.009866   4.800375   0.406836   0.406432   0.409802
    22  H   -0.000000   0.000129   0.406836   0.568428  -0.029442  -0.026624
    23  H    0.000000   0.000144   0.406432  -0.029442   0.566335  -0.026506
    24  H    0.000000   0.003707   0.409802  -0.026624  -0.026506   0.574104
          Atomic-Atomic Spin Densities.
               1          2          3          4          5          6
     1  C   -0.040457  -0.003660   0.000093   0.000326  -0.000701   0.004246
     2  C   -0.003660   0.075569   0.008883   0.000408   0.000944  -0.004209
     3  C    0.000093   0.008883  -0.052560   0.012503  -0.000706  -0.000287
     4  C    0.000326   0.000408   0.012503   0.067809   0.007676  -0.005010
     5  C   -0.000701   0.000944  -0.000706   0.007676  -0.044906  -0.002812
     6  C    0.004246  -0.004209  -0.000287  -0.005010  -0.002812   0.099531
     7  H    0.000261   0.000837   0.000447  -0.000256   0.000046  -0.000086
     8  H    0.000005  -0.000002   0.000036   0.000021  -0.000078  -0.000072
     9  O    0.000009  -0.000082   0.000010  -0.015860   0.000395   0.000087
    10  C   -0.000000  -0.000007  -0.000061  -0.000681   0.000156   0.000028
    11  H   -0.000000   0.000000   0.000000   0.000027  -0.000006   0.000000
    12  H   -0.000002  -0.000002  -0.000028   0.000918   0.000006  -0.000032
    13  H    0.000004   0.000010   0.000068   0.000373  -0.000046  -0.000062
    14  O    0.000060  -0.005974  -0.015736  -0.006410  -0.000104   0.000071
    15  H   -0.000043   0.000558   0.002908   0.003157  -0.000028  -0.000004
    16  C   -0.000011   0.000640   0.006812   0.005002  -0.000025  -0.000014
    17  H    0.000001  -0.000016  -0.000288  -0.000399   0.000001   0.000001
    18  H    0.000009  -0.000127  -0.000560  -0.000755  -0.000006   0.000014
    19  H    0.000001  -0.000038  -0.000303  -0.000130   0.000001   0.000001
    20  H   -0.000011  -0.000083   0.000003  -0.000124   0.000060   0.000992
    21  C    0.001784  -0.000648  -0.000017  -0.000019   0.000014   0.000159
    22  H    0.001123   0.000094   0.000009   0.000014  -0.000012  -0.000116
    23  H   -0.000100   0.000437  -0.000014   0.000002   0.000008  -0.000231
    24  H    0.000160   0.000004  -0.000002   0.000001  -0.000001  -0.000008
               7          8          9         10         11         12
     1  C    0.000261   0.000005   0.000009  -0.000000  -0.000000  -0.000002
     2  C    0.000837  -0.000002  -0.000082  -0.000007   0.000000  -0.000002
     3  C    0.000447   0.000036   0.000010  -0.000061   0.000000  -0.000028
     4  C   -0.000256   0.000021  -0.015860  -0.000681   0.000027   0.000918
     5  C    0.000046  -0.000078   0.000395   0.000156  -0.000006   0.000006
     6  C   -0.000086  -0.000072   0.000087   0.000028   0.000000  -0.000032
     7  H   -0.005117  -0.000001  -0.000006  -0.000000   0.000000   0.000000
     8  H   -0.000001   0.001655  -0.000000   0.000000   0.000005  -0.000027
     9  O   -0.000006  -0.000000   0.040465   0.000923  -0.000002  -0.000800
    10  C   -0.000000   0.000000   0.000923  -0.001541   0.000024  -0.000542
    11  H    0.000000   0.000005  -0.000002   0.000024  -0.000098   0.000086
    12  H    0.000000  -0.000027  -0.000800  -0.000542   0.000086   0.002735
    13  H   -0.000001  -0.000018  -0.000501  -0.000037  -0.000089  -0.000850
    14  O   -0.000278   0.000001   0.001773  -0.000007  -0.000006  -0.000030
    15  H    0.000179   0.000000  -0.001134  -0.000006   0.000008   0.000064
    16  C    0.000171  -0.000000  -0.003474  -0.000026   0.000019   0.000108
    17  H   -0.000005   0.000000   0.000592   0.000020  -0.000023  -0.000055
    18  H   -0.000015  -0.000000   0.000417   0.000017  -0.000004  -0.000044
    19  H   -0.000015   0.000000   0.000062   0.000001  -0.000000  -0.000003
    20  H    0.000003   0.000072   0.000000  -0.000001   0.000000   0.000002
    21  C   -0.000053  -0.000001   0.000000  -0.000000  -0.000000  -0.000000
    22  H    0.000086  -0.000000  -0.000000   0.000000   0.000000   0.000000
    23  H   -0.000085   0.000000   0.000000  -0.000000  -0.000000  -0.000000
    24  H    0.000006   0.000001  -0.000000   0.000000   0.000000   0.000000
              13         14         15         16         17         18
     1  C    0.000004   0.000060  -0.000043  -0.000011   0.000001   0.000009
     2  C    0.000010  -0.005974   0.000558   0.000640  -0.000016  -0.000127
     3  C    0.000068  -0.015736   0.002908   0.006812  -0.000288  -0.000560
     4  C    0.000373  -0.006410   0.003157   0.005002  -0.000399  -0.000755
     5  C   -0.000046  -0.000104  -0.000028  -0.000025   0.000001  -0.000006
     6  C   -0.000062   0.000071  -0.000004  -0.000014   0.000001   0.000014
     7  H   -0.000001  -0.000278   0.000179   0.000171  -0.000005  -0.000015
     8  H   -0.000018   0.000001   0.000000  -0.000000   0.000000  -0.000000
     9  O   -0.000501   0.001773  -0.001134  -0.003474   0.000592   0.000417
    10  C   -0.000037  -0.000007  -0.000006  -0.000026   0.000020   0.000017
    11  H   -0.000089  -0.000006   0.000008   0.000019  -0.000023  -0.000004
    12  H   -0.000850  -0.000030   0.000064   0.000108  -0.000055  -0.000044
    13  H    0.002968   0.000017  -0.000036  -0.000040   0.000019   0.000007
    14  O    0.000017   0.373928  -0.021491  -0.070697   0.002373   0.002052
    15  H   -0.000036  -0.021491  -0.036365   0.049012  -0.000996   0.000405
    16  C   -0.000040  -0.070697   0.049012   0.691387  -0.007228  -0.003131
    17  H    0.000019   0.002373  -0.000996  -0.007228  -0.017129   0.002474
    18  H    0.000007   0.002052   0.000405  -0.003131   0.002474  -0.023565
    19  H    0.000001   0.002602  -0.000923  -0.007272   0.003423   0.002489
    20  H   -0.000002   0.000000   0.000000   0.000000  -0.000000  -0.000000
    21  C    0.000000  -0.000002  -0.000004  -0.000001   0.000000   0.000001
    22  H   -0.000000   0.000001   0.000003   0.000001  -0.000000  -0.000001
    23  H    0.000000  -0.000006  -0.000002  -0.000000   0.000000   0.000000
    24  H   -0.000000   0.000000   0.000000   0.000000  -0.000000  -0.000000
              19         20         21         22         23         24
     1  C    0.000001  -0.000011   0.001784   0.001123  -0.000100   0.000160
     2  C   -0.000038  -0.000083  -0.000648   0.000094   0.000437   0.000004
     3  C   -0.000303   0.000003  -0.000017   0.000009  -0.000014  -0.000002
     4  C   -0.000130  -0.000124  -0.000019   0.000014   0.000002   0.000001
     5  C    0.000001   0.000060   0.000014  -0.000012   0.000008  -0.000001
     6  C    0.000001   0.000992   0.000159  -0.000116  -0.000231  -0.000008
     7  H   -0.000015   0.000003  -0.000053   0.000086  -0.000085   0.000006
     8  H    0.000000   0.000072  -0.000001  -0.000000   0.000000   0.000001
     9  O    0.000062   0.000000   0.000000  -0.000000   0.000000  -0.000000
    10  C    0.000001  -0.000001  -0.000000   0.000000  -0.000000   0.000000
    11  H   -0.000000   0.000000  -0.000000   0.000000  -0.000000   0.000000
    12  H   -0.000003   0.000002  -0.000000   0.000000  -0.000000   0.000000
    13  H    0.000001  -0.000002   0.000000  -0.000000   0.000000  -0.000000
    14  O    0.002602   0.000000  -0.000002   0.000001  -0.000006   0.000000
    15  H   -0.000923   0.000000  -0.000004   0.000003  -0.000002   0.000000
    16  C   -0.007272   0.000000  -0.000001   0.000001  -0.000000   0.000000
    17  H    0.003423  -0.000000   0.000000  -0.000000   0.000000  -0.000000
    18  H    0.002489  -0.000000   0.000001  -0.000001   0.000000  -0.000000
    19  H   -0.017747  -0.000000   0.000000  -0.000000   0.000000  -0.000000
    20  H   -0.000000  -0.006127   0.000106   0.000013  -0.000014  -0.000018
    21  C    0.000000   0.000106   0.002767  -0.001416  -0.000015  -0.000187
    22  H   -0.000000   0.000013  -0.001416  -0.000518  -0.000041   0.000205
    23  H    0.000000  -0.000014  -0.000015  -0.000041  -0.000316  -0.000151
    24  H   -0.000000  -0.000018  -0.000187   0.000205  -0.000151  -0.000055
 Mulliken charges and spin densities:
               1          2
     1  C   -0.130259  -0.036904
     2  C   -0.053899   0.073537
     3  C    0.147923  -0.038789
     4  C    0.153351   0.068592
     5  C   -0.128327  -0.040125
     6  C   -0.054866   0.092186
     7  H    0.090856  -0.003883
     8  H    0.103461   0.001595
     9  O   -0.341362   0.022874
    10  C   -0.131526  -0.001740
    11  H    0.129544  -0.000060
    12  H    0.110827   0.001504
    13  H    0.113508   0.001784
    14  O   -0.365006   0.262138
    15  H    0.246663  -0.004739
    16  C   -0.453525   0.661230
    17  H    0.130579  -0.017235
    18  H    0.125545  -0.020325
    19  H    0.129915  -0.017852
    20  H    0.085330  -0.005128
    21  C   -0.254098   0.002468
    22  H    0.121985  -0.000553
    23  H    0.122523  -0.000529
    24  H    0.100857  -0.000047
 Sum of Mulliken charges =  -0.00000   1.00000
 Mulliken charges and spin densities with hydrogens summed into heavy atoms:
               1          2
     1  C   -0.130259  -0.036904
     2  C    0.036958   0.069654
     3  C    0.147923  -0.038789
     4  C    0.153351   0.068592
     5  C   -0.024865  -0.038530
     6  C    0.030464   0.087058
     9  O   -0.341362   0.022874
    10  C    0.222354   0.001487
    14  O   -0.118343   0.257399
    16  C   -0.067486   0.605818
    21  C    0.091268   0.001339
 APT charges:
               1
     1  C    0.089788
     2  C   -0.483348
     3  C   -0.155578
     4  C   -0.071146
     5  C   -0.494631
     6  C   -0.528894
     7  H    0.470770
     8  H    0.502614
     9  O   -0.204341
    10  C   -1.119508
    11  H    0.661243
    12  H    0.315757
    13  H    0.371360
    14  O   -0.239270
    15  H    0.143034
    16  C   -1.068572
    17  H    0.423240
    18  H    0.087598
    19  H    0.634425
    20  H    0.612484
    21  C   -1.239115
    22  H    0.374717
    23  H    0.422159
    24  H    0.495214
 Sum of APT charges =  -0.00000
 APT charges with hydrogens summed into heavy atoms:
               1
     1  C    0.089788
     2  C   -0.012578
     3  C   -0.155578
     4  C   -0.071146
     5  C    0.007982
     6  C    0.083591
     9  O   -0.204341
    10  C    0.228852
    14  O   -0.096236
    16  C    0.076691
    21  C    0.052975
 Electronic spatial extent (au):  <R**2>=           2140.8790
 Charge=             -0.0000 electrons
 Dipole moment (field-independent basis, Debye):
    X=             -0.3099    Y=              2.0725    Z=              1.5359  Tot=              2.5981
 Quadrupole moment (field-independent basis, Debye-Ang):
   XX=            -59.6330   YY=            -60.9794   ZZ=            -70.6566
   XY=             -3.6378   XZ=             -1.4660   YZ=             -1.2516
 Traceless Quadrupole moment (field-independent basis, Debye-Ang):
   XX=              4.1234   YY=              2.7769   ZZ=             -6.9003
   XY=             -3.6378   XZ=             -1.4660   YZ=             -1.2516
 Octapole moment (field-independent basis, Debye-Ang**2):
  XXX=            -19.0972  YYY=             11.5990  ZZZ=             -3.1613  XYY=            -12.6053
  XXY=              5.9843  XXZ=              0.9890  XZZ=             -4.1805  YZZ=              0.8713
  YYZ=              4.0202  XYZ=              4.5086
 Hexadecapole moment (field-independent basis, Debye-Ang**3):
 XXXX=          -1766.2039 YYYY=           -845.1333 ZZZZ=           -173.6436 XXXY=            -19.4788
 XXXZ=             18.2388 YYYX=            -17.0934 YYYZ=              0.3093 ZZZX=              3.5514
 ZZZY=              1.9129 XXYY=           -410.3179 XXZZ=           -346.4364 YYZZ=           -184.8871
 XXYZ=              7.5660 YYXZ=              2.0820 ZZXY=            -10.8303
 N-N= 6.092165060961D+02 E-N=-2.387547241276D+03  KE= 4.993629796896D+02
  Exact polarizability:   0.000   0.000   0.000   0.000   0.000   0.000
 Approx polarizability: 274.744  48.642 217.355  -8.986   5.137 112.564
                          Isotropic Fermi Contact Couplings
        Atom                 a.u.       MegaHertz       Gauss      10(-4) cm-1
     1  C(13)             -0.00453      -5.09704      -1.81875      -1.70019
     2  C(13)              0.00731       8.22012       2.93314       2.74194
     3  C(13)             -0.01252     -14.06995      -5.02051      -4.69323
     4  C(13)              0.00399       4.48823       1.60151       1.49711
     5  C(13)             -0.00549      -6.17123      -2.20205      -2.05850
     6  C(13)              0.00552       6.20126       2.21276       2.06852
     7  H(1)              -0.00097      -4.34135      -1.54910      -1.44812
     8  H(1)               0.00037       1.63649       0.58394       0.54587
     9  O(17)              0.00684      -4.14426      -1.47878      -1.38238
    10  C(13)             -0.00066      -0.74708      -0.26658      -0.24920
    11  H(1)              -0.00003      -0.11955      -0.04266      -0.03988
    12  H(1)               0.00042       1.89024       0.67448       0.63052
    13  H(1)               0.00061       2.74775       0.98047       0.91655
    14  O(17)              0.05215     -31.61182     -11.27988     -10.54457
    15  H(1)              -0.01962     -87.68627     -31.28864     -29.24899
    16  C(13)              0.11131     125.13721      44.65207      41.74128
    17  H(1)              -0.00484     -21.62370      -7.71587      -7.21289
    18  H(1)              -0.00558     -24.95460      -8.90442      -8.32396
    19  H(1)              -0.00516     -23.08600      -8.23766      -7.70066
    20  H(1)              -0.00123      -5.48136      -1.95589      -1.82839
    21  C(13)              0.00082       0.92057       0.32848       0.30707
    22  H(1)              -0.00049      -2.18876      -0.78100      -0.73009
    23  H(1)              -0.00041      -1.81271      -0.64682      -0.60465
    24  H(1)              -0.00002      -0.09685      -0.03456      -0.03230
 --------------------------------------------------------
       Center         ----  Spin Dipole Couplings  ----
                      3XX-RR        3YY-RR        3ZZ-RR
 --------------------------------------------------------
     1   Atom        0.014688      0.013491     -0.028180
     2   Atom       -0.033022     -0.037598      0.070619
     3   Atom        0.031173      0.021227     -0.052400
     4   Atom       -0.036088     -0.026828      0.062915
     5   Atom        0.017543      0.014579     -0.032122
     6   Atom       -0.045302     -0.041698      0.087000
     7   Atom        0.001329      0.002207     -0.003536
     8   Atom        0.001518      0.000412     -0.001931
     9   Atom       -0.067791     -0.037519      0.105310
    10   Atom       -0.001827      0.004637     -0.002810
    11   Atom       -0.000508      0.002353     -0.001845
    12   Atom       -0.001434      0.002812     -0.001379
    13   Atom       -0.001206      0.002588     -0.001382
    14   Atom       -0.034150     -0.639256      0.673406
    15   Atom        0.072751     -0.092868      0.020117
    16   Atom        0.169723     -0.332499      0.162776
    17   Atom        0.029344     -0.017158     -0.012186
    18   Atom       -0.004016     -0.032486      0.036502
    19   Atom       -0.026051      0.051073     -0.025022
    20   Atom       -0.000213      0.000335     -0.000122
    21   Atom        0.002495     -0.000538     -0.001957
    22   Atom        0.001403     -0.000627     -0.000775
    23   Atom        0.001544     -0.000649     -0.000895
    24   Atom        0.001520     -0.000617     -0.000903
 --------------------------------------------------------
                        XY            XZ            YZ
 --------------------------------------------------------
     1   Atom        0.000383      0.010960      0.013309
     2   Atom       -0.001252      0.010900     -0.019748
     3   Atom        0.020138      0.002198      0.008644
     4   Atom        0.008596     -0.018143     -0.030315
     5   Atom        0.001142      0.007381      0.010680
     6   Atom        0.006846     -0.018205     -0.029317
     7   Atom       -0.004011     -0.000076     -0.000770
     8   Atom        0.001668      0.000583      0.000370
     9   Atom        0.007871     -0.026545     -0.062446
    10   Atom       -0.001376     -0.000133      0.000055
    11   Atom       -0.001887     -0.000075     -0.000564
    12   Atom       -0.000422     -0.000400      0.001189
    13   Atom       -0.000378     -0.000067     -0.000713
    14   Atom        0.047363     -0.905937     -0.063067
    15   Atom        0.038405     -0.144314     -0.032679
    16   Atom        0.168142     -0.549478     -0.166296
    17   Atom       -0.033056      0.006754     -0.026325
    18   Atom        0.023296      0.015643      0.021627
    19   Atom        0.009027     -0.020772      0.004452
    20   Atom        0.007118      0.001591      0.001131
    21   Atom       -0.000297      0.000456      0.000304
    22   Atom       -0.000090      0.000560     -0.000001
    23   Atom        0.000039     -0.000287      0.000042
    24   Atom       -0.000076      0.000152     -0.000001
 --------------------------------------------------------


 ---------------------------------------------------------------------------------
              Anisotropic Spin Dipole Couplings in Principal Axis System
 ---------------------------------------------------------------------------------

       Atom             a.u.   MegaHertz   Gauss  10(-4) cm-1        Axes

              Baa    -0.0343    -4.602    -1.642    -1.535 -0.2089 -0.2608  0.9425
     1 C(13)  Bbb     0.0138     1.848     0.659     0.616  0.7140 -0.6992 -0.0353
              Bcc     0.0205     2.754     0.983     0.919  0.6682  0.6656  0.3323
 
              Baa    -0.0412    -5.522    -1.970    -1.842 -0.0934  0.9788  0.1821
     2 C(13)  Bbb    -0.0341    -4.572    -1.631    -1.525  0.9905  0.1099 -0.0824
              Bcc     0.0752    10.094     3.602     3.367  0.1007 -0.1726  0.9798
 
              Baa    -0.0534    -7.166    -2.557    -2.390  0.0017 -0.1155  0.9933
     3 C(13)  Bbb     0.0060     0.799     0.285     0.267 -0.6263  0.7743  0.0911
              Bcc     0.0474     6.367     2.272     2.124  0.7796  0.6222  0.0710
 
              Baa    -0.0412    -5.532    -1.974    -1.845  0.8593 -0.5115  0.0008
     4 C(13)  Bbb    -0.0345    -4.630    -1.652    -1.545  0.4806  0.8080  0.3409
              Bcc     0.0757    10.162     3.626     3.390 -0.1750 -0.2926  0.9401
 
              Baa    -0.0354    -4.746    -1.694    -1.583 -0.1309 -0.2044  0.9701
     5 C(13)  Bbb     0.0149     2.001     0.714     0.667 -0.5942  0.7994  0.0883
              Bcc     0.0205     2.745     0.980     0.916  0.7936  0.5649  0.2261
 
              Baa    -0.0508    -6.816    -2.432    -2.274 -0.6921  0.7191  0.0616
     6 C(13)  Bbb    -0.0452    -6.064    -2.164    -2.023  0.7090  0.6615  0.2444
              Bcc     0.0960    12.880     4.596     4.296 -0.1350 -0.2128  0.9677
 
              Baa    -0.0038    -2.017    -0.720    -0.673  0.2283  0.2732  0.9345
     7 H(1)   Bbb    -0.0021    -1.095    -0.391    -0.365  0.7124  0.6073 -0.3516
              Bcc     0.0058     3.112     1.110     1.038 -0.6636  0.7460 -0.0560
 
              Baa    -0.0020    -1.084    -0.387    -0.362 -0.1353 -0.0574  0.9891
     8 H(1)   Bbb    -0.0008    -0.422    -0.151    -0.141 -0.5800  0.8140 -0.0321
              Bcc     0.0028     1.506     0.537     0.502  0.8033  0.5780  0.1434
 
              Baa    -0.0719     5.206     1.858     1.736  0.9754  0.1163  0.1870
     9 O(17)  Bbb    -0.0606     4.387     1.565     1.463 -0.1728  0.9306  0.3226
              Bcc     0.1326    -9.593    -3.423    -3.200 -0.1366 -0.3470  0.9279
 
              Baa    -0.0028    -0.380    -0.136    -0.127  0.1612  0.0224  0.9867
    10 C(13)  Bbb    -0.0021    -0.280    -0.100    -0.093  0.9664  0.1990 -0.1624
              Bcc     0.0049     0.660     0.236     0.220 -0.2000  0.9797  0.0105
 
              Baa    -0.0021    -1.095    -0.391    -0.365  0.3789  0.2753  0.8835
    11 H(1)   Bbb    -0.0013    -0.683    -0.244    -0.228  0.8154  0.3522 -0.4594
              Bcc     0.0033     1.779     0.635     0.593 -0.4376  0.8945 -0.0911
 
              Baa    -0.0019    -1.007    -0.359    -0.336  0.5701 -0.1531  0.8072
    12 H(1)   Bbb    -0.0013    -0.692    -0.247    -0.231  0.8141  0.2370 -0.5301
              Bcc     0.0032     1.698     0.606     0.566 -0.1101  0.9594  0.2598
 
              Baa    -0.0016    -0.832    -0.297    -0.278  0.3765  0.1902  0.9067
    13 H(1)   Bbb    -0.0012    -0.633    -0.226    -0.211  0.9219  0.0193 -0.3869
              Bcc     0.0027     1.465     0.523     0.489 -0.0911  0.9815 -0.1681
 
              Baa    -0.6540    47.324    16.886    15.786  0.7963 -0.2924  0.5296
    14 O(17)  Bbb    -0.6414    46.410    16.560    15.481  0.2197  0.9554  0.1972
              Bcc     1.2954   -93.734   -33.447   -31.266 -0.5636 -0.0407  0.8250
 
              Baa    -0.1017   -54.244   -19.356   -18.094  0.0875  0.9313  0.3536
    15 H(1)   Bbb    -0.1001   -53.404   -19.056   -17.814  0.6478 -0.3228  0.6900
              Bcc     0.2018   107.648    38.412    35.908  0.7567  0.1687 -0.6316
 
              Baa    -0.3839   -51.510   -18.380   -17.182 -0.5772  0.7345 -0.3568
    16 C(13)  Bbb    -0.3828   -51.363   -18.327   -17.133  0.4311  0.6452  0.6308
              Bcc     0.7666   102.873    36.708    34.315  0.6935  0.2103 -0.6890
 
              Baa    -0.0473   -25.235    -9.005    -8.418  0.2939  0.7910  0.5366
    17 H(1)   Bbb    -0.0047    -2.526    -0.901    -0.843 -0.4985 -0.3521  0.7921
              Bcc     0.0520    27.762     9.906     9.260  0.8155 -0.5003  0.2909
 
              Baa    -0.0473   -25.219    -8.999    -8.412 -0.4260  0.8921 -0.1508
    18 H(1)   Bbb    -0.0043    -2.307    -0.823    -0.770  0.8208  0.3109 -0.4792
              Bcc     0.0516    27.525     9.822     9.182  0.3806  0.3279  0.8647
 
              Baa    -0.0472   -25.210    -8.996    -8.409  0.7174 -0.0971  0.6899
    19 H(1)   Bbb    -0.0049    -2.628    -0.938    -0.876 -0.6884  0.0535  0.7234
              Bcc     0.0522    27.837     9.933     9.286  0.1071  0.9938  0.0285
 
              Baa    -0.0071    -3.778    -1.348    -1.260  0.7245 -0.6871 -0.0539
    20 H(1)   Bbb    -0.0006    -0.307    -0.110    -0.102 -0.1272 -0.2102  0.9693
              Bcc     0.0077     4.086     1.458     1.363  0.6774  0.6955  0.2397
 
              Baa    -0.0021    -0.279    -0.099    -0.093 -0.1106 -0.2130  0.9708
    21 C(13)  Bbb    -0.0005    -0.066    -0.023    -0.022  0.0632  0.9733  0.2207
              Bcc     0.0026     0.344     0.123     0.115  0.9918 -0.0858  0.0942
 
              Baa    -0.0009    -0.487    -0.174    -0.162 -0.2371 -0.0705  0.9689
    22 H(1)   Bbb    -0.0006    -0.336    -0.120    -0.112  0.0228  0.9967  0.0781
              Bcc     0.0015     0.823     0.294     0.274  0.9712 -0.0406  0.2347
 
              Baa    -0.0009    -0.499    -0.178    -0.167  0.1158 -0.1591  0.9804
    23 H(1)   Bbb    -0.0006    -0.343    -0.122    -0.114  0.0035  0.9871  0.1598
              Bcc     0.0016     0.842     0.300     0.281  0.9933  0.0150 -0.1148
 
              Baa    -0.0009    -0.487    -0.174    -0.162 -0.0629 -0.0122  0.9979
    24 H(1)   Bbb    -0.0006    -0.330    -0.118    -0.110  0.0344  0.9993  0.0144
              Bcc     0.0015     0.817     0.292     0.273  0.9974 -0.0352  0.0624
 

 ---------------------------------------------------------------------------------

 Calling FoFJK, ICntrl=    100147 FMM=F ISym2X=0 I1Cent= 0 IOpClX= 1 NMat=1 NMatS=1 NMatT=0.
 ***** Axes restored to original set *****
 -------------------------------------------------------------------
 Center     Atomic                   Forces (Hartrees/Bohr)
 Number     Number              X              Y              Z
 -------------------------------------------------------------------
      1        6           0.021127029   -0.012392788    0.002764991
      2        6          -0.002673172    0.004576087   -0.000212552
      3        6           0.001178447    0.000888183    0.000401685
      4        6           0.000519472   -0.000299992    0.000248369
      5        6           0.005683586    0.002996438    0.001277650
      6        6          -0.025356427   -0.004534463   -0.005002233
      7        1           0.000236276   -0.000497980   -0.000093866
      8        1          -0.000491231   -0.000100768   -0.000188633
      9        8          -0.001506106    0.001276428   -0.000138813
     10        6          -0.000088587   -0.000383488   -0.000031994
     11        1          -0.000030907    0.000040365   -0.000017317
     12        1           0.000058826    0.000027080    0.000036858
     13        1           0.000060023    0.000036029    0.000009238
     14        8          -0.000808331   -0.000138266    0.000964245
     15        1           0.001385048   -0.000127274   -0.001343511
     16        6          -0.000755219    0.000329747    0.000813206
     17        1           0.000154801   -0.000018298   -0.000128243
     18        1           0.000143297   -0.000021643   -0.000137189
     19        1           0.000145995   -0.000098975   -0.000191079
     20        1           0.008221431    0.003443336    0.001807494
     21        6          -0.023653054    0.022912642   -0.002740698
     22        1          -0.000397988   -0.011495512    0.011266782
     23        1           0.002976579   -0.010345688   -0.011660023
     24        1           0.013870211    0.003928798    0.002295633
 -------------------------------------------------------------------
 Cartesian Forces:  Max     0.025356427 RMS     0.006749793
 FormGI is forming the generalized inverse of G from B-inverse, IUseBI=4.

 GradGradGradGradGradGradGradGradGradGradGradGradGradGradGradGradGradGrad
 Berny optimization.
 Internal  Forces:  Max     0.015745194 RMS     0.003439817
 Search for a saddle point.
 Step number   1 out of a maximum of  114
 All quantities printed in internal units (Hartrees-Bohrs-Radians)
 Swapping is turned off.
 Second derivative matrix not updated -- analytic derivatives used.
 ITU=  0
     Eigenvalues ---   -0.06097  -0.00003   0.00001   0.00429   0.00786
     Eigenvalues ---    0.01478   0.01562   0.01699   0.01884   0.01967
     Eigenvalues ---    0.02083   0.02468   0.02561   0.02667   0.02840
     Eigenvalues ---    0.02942   0.03780   0.04651   0.04924   0.05852
     Eigenvalues ---    0.05983   0.07837   0.07970   0.08637   0.08690
     Eigenvalues ---    0.09451   0.10886   0.11150   0.12016   0.12426
     Eigenvalues ---    0.13029   0.14397   0.14820   0.15247   0.17219
     Eigenvalues ---    0.18060   0.18345   0.18415   0.18662   0.19165
     Eigenvalues ---    0.20072   0.22010   0.22312   0.28078   0.28447
     Eigenvalues ---    0.31833   0.32470   0.32592   0.34300   0.35394
     Eigenvalues ---    0.35488   0.35535   0.35682   0.35796   0.37227
     Eigenvalues ---    0.37908   0.37998   0.38262   0.38755   0.38848
     Eigenvalues ---    0.39447   0.43753   0.45045   0.46734   0.50338
     Eigenvalues ---    0.52947
 Eigenvectors required to have negative eigenvalues:
                          R18       R17       A28       A29       R7
   1                    0.72419  -0.59787  -0.12313  -0.12070   0.11957
                          A27       D23       D24       A31       A30
   1                   -0.11860   0.11412   0.10414   0.08801   0.08451
 RFO step:  Lambda0=3.469048402D-05 Lambda=-4.82986196D-03.
 Linear search not attempted -- option 19 set.
 Iteration  1 RMS(Cart)=  0.01556232 RMS(Int)=  0.00024304
 Iteration  2 RMS(Cart)=  0.00029035 RMS(Int)=  0.00012476
 Iteration  3 RMS(Cart)=  0.00000010 RMS(Int)=  0.00012476
 Variable       Old X    -DE/DX   Delta X   Delta X   Delta X     New X
                                 (Linear)    (Quad)   (Total)
    R1        2.62967   0.00175   0.00000   0.00933   0.00938   2.63906
    R2        2.63726  -0.00018   0.00000  -0.00009   0.00002   2.63728
    R3        2.91018  -0.00872   0.00000  -0.05817  -0.05817   2.85201
    R4        2.64005   0.00140   0.00000   0.00122   0.00117   2.64122
    R5        2.04767   0.00044   0.00000   0.00215   0.00215   2.04982
    R6        2.68666  -0.00035   0.00000  -0.00065  -0.00075   2.68590
    R7        2.52985  -0.00022   0.00000  -0.00074  -0.00074   2.52911
    R8        2.62854  -0.00159   0.00000  -0.00073  -0.00078   2.62776
    R9        2.57061   0.00181   0.00000   0.00132   0.00132   2.57193
   R10        2.65331  -0.00279   0.00000  -0.01100  -0.01095   2.64236
   R11        2.04655  -0.00022   0.00000  -0.00188  -0.00188   2.04467
   R12        2.02201   0.00906   0.00000   0.02623   0.02623   2.04823
   R13        2.68461  -0.00027   0.00000  -0.00010  -0.00010   2.68451
   R14        2.05721   0.00005   0.00000   0.00005   0.00005   2.05726
   R15        2.07051   0.00006   0.00000   0.00015   0.00015   2.07066
   R16        2.07001   0.00004   0.00000   0.00011   0.00011   2.07013
   R17        2.11635  -0.00137   0.00000   0.01292   0.01292   2.12927
   R18        2.72643   0.00050   0.00000  -0.02266  -0.02266   2.70378
   R19        2.05140  -0.00005   0.00000   0.00008   0.00008   2.05148
   R20        2.05242  -0.00003   0.00000   0.00014   0.00014   2.05257
   R21        2.05237   0.00001   0.00000   0.00026   0.00026   2.05262
   R22        2.02201   0.01575   0.00000   0.04295   0.04295   2.06496
   R23        2.02201   0.01552   0.00000   0.04226   0.04226   2.06427
   R24        2.02201   0.01428   0.00000   0.03858   0.03858   2.06058
    A1        2.10574  -0.00915   0.00000  -0.04789  -0.04773   2.05801
    A2        2.08822   0.00279   0.00000   0.01745   0.01737   2.10559
    A3        2.08919   0.00637   0.00000   0.03044   0.03036   2.11955
    A4        2.11447   0.00214   0.00000   0.01507   0.01507   2.12954
    A5        2.11867  -0.00141   0.00000  -0.00582  -0.00582   2.11285
    A6        2.04972  -0.00073   0.00000  -0.00926  -0.00926   2.04046
    A7        2.06583   0.00224   0.00000   0.01057   0.01041   2.07625
    A8        2.09979  -0.00098   0.00000  -0.00736  -0.00728   2.09251
    A9        2.11658  -0.00125   0.00000  -0.00318  -0.00310   2.11348
   A10        2.09407  -0.00210   0.00000  -0.01066  -0.01083   2.08324
   A11        2.00613   0.00095   0.00000   0.00462   0.00470   2.01083
   A12        2.18286   0.00114   0.00000   0.00605   0.00613   2.18899
   A13        2.11290  -0.00240   0.00000  -0.01454  -0.01454   2.09836
   A14        2.09632   0.00071   0.00000   0.00839   0.00839   2.10471
   A15        2.07391   0.00169   0.00000   0.00614   0.00614   2.08005
   A16        2.07268   0.00928   0.00000   0.04744   0.04760   2.12028
   A17        2.10525  -0.00385   0.00000  -0.01683  -0.01691   2.08834
   A18        2.10525  -0.00544   0.00000  -0.03061  -0.03069   2.07456
   A19        2.06795  -0.00017   0.00000  -0.00430  -0.00430   2.06365
   A20        1.84747   0.00004   0.00000   0.00074   0.00074   1.84822
   A21        1.94596   0.00000   0.00000  -0.00040  -0.00040   1.94556
   A22        1.94340   0.00003   0.00000  -0.00003  -0.00003   1.94336
   A23        1.90948   0.00000   0.00000   0.00021   0.00021   1.90969
   A24        1.90741  -0.00001   0.00000  -0.00011  -0.00011   1.90730
   A25        1.90886  -0.00007   0.00000  -0.00037  -0.00037   1.90849
[...]
 3079,-0.01012974,0.00145571,-0.00075941,-0.00105510,-0.00039771,0.0015
 8207,-0.00298617,0.00011903,-0.00000416,-0.00029687,-0.00011012,0.0001
 3461,0.00023328,0.00002418,-0.00808160,0.00502179,0.00018218,0.0000673
 2,-0.00182337,-0.00041501,-0.00013252,0.00051462,-0.00016368,0.0002897
 6,0.00030395,0.00018729,0.00007249,0.00020546,0.00008693,-0.07954605,0
 .01583401,0.05136784,0.04822650,-0.02443710,-0.06041053,0.36603427,-0.
 00113754,-0.00231374,-0.00036748,0.00326191,-0.00104239,0.00057008,-0.
 00708072,-0.00398671,-0.00213246,-0.00154186,0.00339392,0.00087997,-0.
 00009129,0.00073210,-0.00060323,-0.00050439,0.00087016,-0.00000176,-0.
 00011036,0.00018162,0.00008670,-0.00003225,-0.00007175,-0.00000768,0.0
 0182140,-0.00153628,0.00093498,-0.00001778,0.00055146,-0.00030000,0.00
 005329,-0.00015169,0.00001982,-0.00004769,-0.00010368,0.00001107,-0.00
 003940,0.00003201,0.00000467,0.02566041,-0.00050787,-0.01656272,-0.019
 92635,-0.01067951,0.01557227,0.05511542,0.55840890,-0.00389669,-0.0065
 2538,-0.00168997,0.00913293,-0.00463415,0.00492286,-0.02441490,-0.0113
 2721,-0.00799142,-0.00543241,0.01191863,-0.00130336,0.00055829,0.00131
 573,0.00025207,-0.00154397,0.00368318,-0.00010070,0.00002288,0.0003336
 5,0.00016973,-0.00013124,-0.00026090,0.00001481,0.00764347,-0.00519916
 ,-0.00044686,0.00010638,0.00195965,0.00053783,0.00015262,-0.00041576,0
 .00005924,-0.00033468,-0.00034915,-0.00017039,-0.00013773,-0.00022818,
 -0.00008722,0.09192767,-0.01601238,-0.05525731,-0.07291543,0.02396892,
 0.04289638,0.22029190,-0.05898993,0.34117819,-0.00077808,-0.00129025,-
 0.00031175,0.00147531,-0.00082226,0.00083515,-0.00394485,-0.00157197,-
 0.00120783,-0.00215368,0.00323522,-0.00039351,0.00063858,0.00003657,0.
 00024891,-0.00039862,0.00096681,0.00000274,0.00001846,0.00003820,0.000
 00055,-0.00005469,-0.00006197,-0.00001724,0.00263480,-0.00166886,-0.00
 029165,-0.00014984,0.00015606,0.00017527,0.00002074,-0.00024983,0.0001
 0348,-0.00008410,-0.00003810,-0.00002085,0.00005248,-0.00004269,-0.000
 05330,0.00739601,-0.00073966,-0.00233135,-0.01076732,0.00869079,0.0037
 5885,-0.09937108,0.11095117,-0.06467879,0.09960709,0.00003813,0.000139
 52,0.00000399,-0.00021381,0.00000034,-0.00001860,0.00035632,0.00036140
 ,0.00026238,0.00009182,-0.00028066,0.00005241,0.00001521,-0.00001739,0
 .00004261,0.00000490,-0.00004084,-0.00000036,-0.00000450,-0.00000086,0
 .00001099,0.00000380,0.00000222,-0.00000176,-0.00049306,-0.00014368,0.
 00000639,-0.00012474,0.00012960,0.00004239,-0.00000849,-0.00006431,0.0
 0005414,-0.00002373,-0.00002066,-0.00001327,0.00003404,-0.00005140,-0.
 00000683,-0.00071352,0.00028033,-0.00087544,0.00234817,-0.00302039,0.0
 0089453,0.10432799,-0.24361168,0.08486799,-0.11563330,0.25407141,0.000
 87959,0.00131208,0.00038584,-0.00147489,0.00086592,-0.00085046,0.00403
 964,0.00157673,0.00133114,0.00123050,-0.00234679,0.00048743,-0.0004069
 4,-0.00013966,-0.00027704,0.00039210,-0.00097601,0.00001435,-0.0000144
 2,-0.00006967,-0.00005469,0.00002966,0.00005855,0.00000256,-0.00145723
 ,0.00154204,-0.00007807,0.00005745,-0.00052855,-0.00021166,-0.00001589
 ,0.00015755,0.00003936,0.00001460,0.00004350,0.00003576,0.00003338,0.0
 0011502,0.00000570,-0.00865541,0.00034299,0.00315078,0.01218464,-0.008
 05961,-0.00531034,-0.05646236,0.07460548,-0.06262809,0.06074762,-0.088
 55279,0.06592691,-0.00063548,-0.00110889,-0.00021897,0.00103188,-0.000
 37964,0.00019971,-0.00159391,-0.00132352,-0.00211946,-0.00111562,0.001
 57042,-0.00033259,0.00016242,0.00018831,0.00002729,-0.00037748,0.00066
 215,-0.00000200,0.00000053,0.00005337,0.00005990,-0.00002480,-0.000055
 18,0.00001180,0.00138065,-0.00140699,0.00039762,-0.00002704,0.00052595
 ,0.00018812,0.00002559,-0.00009769,0.00000816,-0.00004345,-0.00007566,
 -0.00007415,-0.00003518,-0.00008822,-0.00002273,0.00737753,-0.00031513
 ,-0.00163041,-0.00576513,0.00377370,0.01303421,-0.12220618,-0.02453575
 ,-0.13940839,-0.00443353,-0.00345191,-0.01094046,0.13192637,0.00020457
 ,0.00025142,0.00007660,-0.00030570,0.00009445,0.00000517,0.00078455,0.
 00056476,0.00042900,-0.00021420,-0.00003572,0.00016457,0.00001287,-0.0
 0007900,-0.00004971,0.00003652,-0.00014344,0.00000055,0.00001620,-0.00
 004779,-0.00005805,-0.00001076,-0.00000094,0.00001188,0.00002964,0.000
 06717,-0.00019472,0.00005317,-0.00014768,0.00007723,-0.00000143,0.0000
 2398,0.00002969,-0.00005223,-0.00001674,-0.00001192,0.00001439,0.00002
 635,-0.00003885,-0.00173855,-0.00030193,0.00053514,0.00050780,-0.00094
 815,-0.00337158,-0.02701447,-0.05503868,-0.02835752,0.01311041,0.00639
 984,0.02041684,0.02671377,0.04932785,0.00073542,0.00118238,0.00025946,
 -0.00121721,0.00053780,-0.00034260,0.00334325,0.00168053,0.00181015,0.
 00155447,-0.00205578,0.00005067,-0.00018287,-0.00021222,0.00001931,0.0
 0034772,-0.00072457,-0.00000121,0.00000438,-0.00006365,-0.00006404,0.0
 0002919,0.00005108,-0.00002343,-0.00166238,0.00124472,0.00020468,-0.00
 003051,-0.00025286,-0.00018896,-0.00002234,0.00006258,-0.00003878,0.00
 009480,0.00008325,0.00005942,0.00000744,0.00002856,0.00004138,-0.00664
 475,-0.00013201,0.00238476,0.00201703,-0.00345190,-0.01409396,-0.15323
 059,-0.02719730,-0.22653275,-0.00250426,-0.00353283,-0.00415697,0.1544
 7739,0.03092227,0.23734679,-0.00077795,-0.00129639,-0.00032036,0.00171
 627,-0.00081029,0.00053324,-0.00420842,-0.00195444,-0.00097419,-0.0007
 2350,0.00204765,0.00005320,0.00014634,0.00031731,-0.00004981,-0.000292
 14,0.00074064,-0.00000334,-0.00005619,0.00010867,0.00005485,-0.0000118
 1,-0.00004505,-0.00001161,0.00124012,-0.00097802,0.00011795,-0.0000613
 5,0.00045914,0.00000937,0.00003448,-0.00010324,0.00002920,-0.00004477,
 -0.00006297,-0.00002024,-0.00002929,-0.00006554,0.00000101,0.00773733,
 0.00095617,-0.00300030,-0.01156676,-0.00471052,0.00624018,-0.12592690,
 -0.14184222,-0.01689457,0.01029494,0.01345045,-0.00023651,-0.00562746,
 -0.01216793,0.00288518,0.12818650,0.00035111,0.00065914,0.00014506,-0.
 00071270,0.00035516,-0.00024550,0.00165782,0.00076857,0.00005935,0.001
 16784,-0.00143181,0.00000609,-0.00025887,-0.00008232,0.00001480,0.0002
 2903,-0.00040132,0.00002155,0.00000692,-0.00002678,-0.00004125,0.00003
 263,0.00003356,0.00000505,-0.00137816,0.00058069,0.00019419,0.00004139
 ,-0.00005636,-0.00001697,-0.00001658,0.00009510,-0.00004701,0.00004856
 ,0.00003402,0.00000674,-0.00002317,-0.00000654,0.00002429,-0.00327093,
 0.00087679,0.00226353,0.00421331,-0.00115005,-0.00350501,-0.13213087,-
 0.24521956,0.00395365,-0.01510977,-0.01412887,-0.00027885,-0.00071150,
 0.00004093,0.00188811,0.14587023,0.25907465,0.00082088,0.00146585,0.00
 033310,-0.00180069,0.00077569,-0.00053005,0.00410884,0.00203457,0.0009
 2434,0.00111322,-0.00232246,-0.00004132,-0.00009166,-0.00035964,0.0001
 5930,0.00037051,-0.00078425,0.00001925,0.00003112,-0.00008539,-0.00004
 888,0.00002880,0.00006226,-0.00000867,-0.00146019,0.00118747,-0.000034
 64,-0.00002240,-0.00049562,-0.00009269,-0.00004527,0.00006853,-0.00001
 301,0.00009582,0.00011116,0.00004053,0.00005262,0.00005787,0.00002281,
 -0.00874763,-0.00025134,0.00335128,0.01318783,0.00351987,-0.00737952,-
 0.01156005,0.01333908,-0.03373505,0.00599226,0.00677301,0.00213114,-0.
 01365323,-0.02057475,0.00326554,0.01155530,-0.00444005,0.03167059,-0.0
 0428457,0.00006615,-0.00139485,0.00188008,-0.00120194,-0.00087917,0.00
 030947,0.00038550,0.00018144,-0.00008550,0.00400387,-0.00078889,-0.017
 47218,-0.00891813,-0.00399666,-0.29422775,-0.08046118,-0.05141257,-0.0
 0020504,-0.00004512,-0.00003661,0.00077063,0.00014092,0.00077871,-0.00
 149441,-0.00002077,-0.00034832,-0.00004313,-0.00062477,-0.00004440,-0.
 00000684,0.00005724,0.00000151,0.00004099,0.00005017,0.00004018,0.0000
 6517,0.00004504,-0.00001437,0.00013949,-0.00013154,0.00005759,-0.00018
 540,0.00012245,0.00012894,0.00009794,-0.00004680,-0.00013726,-0.000004
 93,0.00000371,0.00002696,-0.00002068,0.00001005,0.00001079,-0.00003133
 ,0.00000492,0.00003645,0.31320092,-0.02868306,-0.00503735,-0.00555559,
 -0.00033905,-0.00590356,-0.00090538,0.00079197,-0.00102236,0.00026084,
 0.00295497,-0.00255349,-0.00019514,0.02104159,0.00916443,0.00414433,-0
 .08013134,-0.08536652,-0.01770584,-0.00152342,-0.00026605,-0.00024788,
 -0.00046305,0.00097374,0.00027184,0.00131783,0.00032359,0.00028686,-0.
 00001858,0.00031644,0.00001322,-0.00002106,-0.00004809,-0.00001016,-0.
 00000360,-0.00002440,-0.00003577,-0.00000917,-0.00002867,0.00002852,-0
 .00022355,0.00022789,0.00005529,0.00004233,-0.00002388,-0.00007333,-0.
 00000829,0.00000229,0.00001339,-0.00000460,0.00000312,-0.00000461,0.00
 000418,-0.00000547,-0.00000491,0.00000868,0.00000249,-0.00000482,0.085
 78884,0.08795829,-0.00378845,-0.00040106,0.00257492,-0.00011659,-0.000
 79001,0.00604214,0.00003187,-0.00014836,-0.00101528,-0.00131718,0.0000
 5665,0.00634380,-0.00175566,-0.00121727,0.00175301,-0.05152077,-0.0178
 7302,-0.04351423,-0.00017566,0.00000514,0.00020625,0.00073648,0.000337
 85,-0.00362200,-0.00022033,0.00006819,0.00016138,-0.00002886,-0.000084
 70,0.00000782,-0.00000640,0.00000980,0.00002167,0.00004088,-0.00001030
 ,0.00001390,-0.00002432,0.00001317,-0.00000403,-0.00001766,0.00023310,
 -0.00050728,0.00017972,-0.00002809,-0.00010671,-0.00004382,0.00009100,
 0.00009168,-0.00001044,-0.00000760,0.00001977,-0.00000405,-0.00000134,
 -0.00000352,0.00002576,-0.00001832,-0.00003538,0.05676485,0.01951059,0
 .03501270,-0.15269936,0.06140098,-0.00807483,-0.02835671,0.02387287,-0
 .00311759,-0.00047809,-0.00415776,-0.00041943,-0.00053925,0.00058801,-
 0.00016470,0.00054713,-0.00275985,-0.00206893,0.00586498,0.00129038,-0
 .00011708,0.00134474,0.00095409,0.00057436,0.00046220,-0.00056921,0.00
 005861,0.00028968,-0.00015677,0.00029010,-0.00001354,0.00011092,0.0000
 4292,0.00002929,0.00001220,0.00000940,-0.00003508,-0.00000005,0.000006
 03,0.00000871,-0.00002262,-0.00003112,-0.00182722,0.00054031,0.0002219
 2,0.00047323,-0.00012025,-0.00071860,-0.00024856,0.00013506,0.00026900
 ,0.00002718,-0.00000972,-0.00003068,0.00003558,-0.00001076,-0.00002981
 ,0.00005546,-0.00001875,-0.00006160,0.00044248,-0.00180790,0.00137914,
 0.52336696,0.05841157,-0.14218599,0.00290652,-0.00110514,0.00872876,0.
 00068428,-0.00367792,0.00054651,0.00039682,-0.00037022,-0.00147529,-0.
 00001696,-0.00212996,-0.00264811,-0.00139765,0.02627804,-0.02413658,0.
 00150956,-0.00084356,0.00058809,-0.00075428,0.00081160,-0.00060372,0.0
 0001932,0.00019525,0.00017712,0.00000586,0.00003369,-0.00008557,-0.000
 01525,0.00002073,0.00002907,0.00001329,-0.00002011,0.00002502,0.000027
 36,0.00001198,0.00003496,-0.00003491,-0.00111336,0.00033830,-0.0003873
 1,-0.00029185,0.00006930,0.00007542,0.00019041,-0.00005571,-0.00020838
 ,-0.00002964,-0.00000561,0.00004230,-0.00002418,0.00001332,0.00001968,
 -0.00003636,0.00002025,0.00003014,0.00107115,0.00130681,0.00082840,0.0
 4841273,0.52744148,-0.01091803,0.00636809,-0.06864427,-0.00591300,0.00
 435685,0.00220830,-0.00219048,-0.00115712,0.00575718,-0.00059347,0.000
 28511,-0.00087242,-0.00103389,-0.00031446,0.00622575,0.00147140,-0.001
 07134,0.00350013,0.00117394,0.00051301,-0.00279695,-0.00004470,-0.0001
 0626,0.00053722,0.00104940,-0.00084976,-0.00027323,0.00011728,0.000486
 92,-0.00013488,0.00001966,-0.00002484,-0.00002850,0.00002486,-0.000107
 97,-0.00002235,-0.00014138,0.00001760,0.00003662,-0.00003872,0.0003303
 4,0.00001042,-0.00025454,-0.00001638,0.00008474,0.00005127,0.00005613,
 -0.00015576,-0.00003513,-0.00000033,0.00002315,0.00001281,-0.00001787,
 -0.00000449,0.00002425,0.00000775,-0.00001068,0.00070577,-0.00047745,-
 0.00357177,0.00750989,0.00200431,0.53309856,0.00737276,0.02135785,-0.0
 1304898,0.00099954,0.00086126,0.00033848,0.00012381,-0.00027545,-0.000
 02668,0.00047365,0.00031806,-0.00016253,-0.00008724,0.00079374,0.00075
 470,-0.00292463,0.00111831,-0.00067858,-0.00021218,-0.00046351,-0.0000
 2552,-0.00021060,0.00017338,0.00010012,-0.00027322,0.00017069,0.000048
 11,-0.00003611,-0.00010344,-0.00000478,-0.00000880,0.00000154,-0.00000
 659,0.00002582,0.00000069,0.00000943,0.00000581,0.00000447,0.00000180,
 0.00036778,-0.00004669,0.00004257,-0.00013011,0.00007091,0.00011768,0.
 00003711,-0.00001569,-0.00006688,-0.00001019,-0.00000113,0.00002005,-0
 .00001050,0.00000977,0.00001206,-0.00001907,0.00000406,0.00001456,0.00
 017379,0.00028866,-0.00012824,-0.07164915,-0.06547024,0.03932182,0.076
 65526,-0.00519136,-0.01930181,0.00933215,-0.00264242,0.00121848,-0.001
 36734,0.00092649,-0.00046065,-0.00046905,-0.00017532,0.00037271,0.0000
 0046,-0.00021871,-0.00058375,-0.00092894,0.00350558,-0.00153368,0.0013
 9387,0.00039061,0.00049661,0.00083784,0.00020875,-0.00020817,-0.000039
 88,0.00028666,-0.00022018,0.00015122,0.00000264,0.00013389,0.00006548,
 0.00001930,-0.00000095,0.00000347,-0.00002831,-0.00000646,-0.00000528,
 -0.00000420,-0.00002309,-0.00001805,-0.00057895,0.00002211,0.00022429,
 0.00048340,-0.00017405,-0.00042998,-0.00025109,0.00010350,0.00030130,0
 .00004206,-0.00000109,-0.00006734,0.00005174,-0.00002789,-0.00004785,0
 .00006801,-0.00002469,-0.00006539,0.00001793,0.00023495,0.00043967,-0.
 06432239,-0.21346205,0.10761068,0.06765059,0.23438326,0.00015617,-0.00
 134480,-0.00032211,0.00058746,0.00029724,0.00094840,-0.00039874,0.0000
 9753,-0.00015493,-0.00003738,-0.00030569,-0.00010449,0.00049284,-0.000
 32156,0.00002925,-0.00029481,-0.00017707,0.00011622,-0.00044085,-0.000
 12354,-0.00013740,-0.00000785,-0.00000525,-0.00000322,-0.00020675,0.00
 019567,0.00000369,-0.00001098,-0.00010503,-0.00000969,-0.00000340,0.00
 000417,0.00000130,0.00000777,0.00001194,0.00001256,0.00000947,0.000011
 90,-0.00000627,0.00029576,-0.00000949,-0.00010769,-0.00021434,0.000079
 14,0.00021238,0.00010570,-0.00003804,-0.00012109,-0.00002410,0.0000009
 1,0.00002792,-0.00002205,0.00000666,0.00001885,-0.00003477,0.00001073,
 0.00003201,0.00011058,0.00010341,0.00010119,0.03891934,0.10864388,-0.1
 1369198,-0.04504521,-0.11832810,0.12004489,-0.00871946,0.00955094,0.02
 085535,0.00031349,0.00123288,-0.00041877,0.00027122,-0.00015439,-0.001
 19404,0.00113996,0.00035565,0.00047351,-0.00121552,0.00055927,-0.00087
 919,-0.00060422,-0.00160751,0.00013820,-0.00043562,-0.00032386,0.00055
 109,-0.00005620,0.00009735,-0.00012585,-0.00074689,0.00063971,-0.00010
 100,-0.00007296,-0.00037268,0.00000807,-0.00002120,0.00002219,0.000003
 93,0.00003477,0.00003386,0.00002338,0.00006767,0.00001933,-0.00001311,
 -0.00000878,-0.00005139,-0.00000791,-0.00003144,0.00006354,0.00003962,
 0.00002570,-0.00001949,-0.00002293,0.00000130,0.00000209,0.00001177,-0
 .00000939,0.00000847,-0.00000173,-0.00002276,-0.00000253,0.00001813,0.
 00011843,0.00008279,0.00025622,-0.06486276,0.02013646,0.06618818,-0.00
 330512,0.00298485,0.00995609,0.06986657,0.00866922,-0.00908126,-0.0192
 0053,-0.00229203,0.00045773,-0.00029628,0.00060592,-0.00121920,0.00084
 722,-0.00004478,0.00071738,-0.00001443,-0.00037622,-0.00027226,0.00128
 496,0.00187754,-0.00080998,0.00038867,0.00009240,0.00019901,-0.0003390
 1,0.00005893,-0.00012333,0.00003310,0.00053733,-0.00056914,-0.00002941
 ,0.00006487,0.00029383,-0.00003215,0.00001444,-0.00001906,-0.00000568,
 -0.00001079,-0.00004634,-0.00000988,-0.00005429,-0.00002917,0.00001621
 ,-0.00044080,0.00002186,0.00010764,0.00033310,-0.00013687,-0.00030337,
 -0.00017208,0.00007536,0.00019926,0.00003251,-0.00000440,-0.00004805,0
 .00003659,-0.00001634,-0.00002923,0.00004894,-0.00001541,-0.00004925,0
 .00006097,-0.00007961,-0.00079151,0.02018538,-0.06614334,-0.07056130,-
 0.00685565,0.00861515,0.02481163,-0.02621135,0.07250816,0.00009919,0.0
 0005966,0.00627256,-0.00097197,0.00000707,0.00049335,0.00045799,-0.000
 54504,0.00005004,-0.00005761,0.00036634,0.00009804,0.00007819,-0.00007
 762,-0.00009594,0.00018323,0.00036236,0.00017533,0.00013862,-0.0000372
 0,-0.00026521,0.00001358,-0.00001410,-0.00001215,0.00007994,-0.0000776
 6,-0.00006108,-0.00000488,0.00004940,-0.00001672,0.00000604,-0.0000031
 0,0.00000146,-0.00000427,-0.00000627,0.00000319,-0.00000294,-0.0000096
 3,0.00000178,-0.00012491,0.00002472,0.00010455,0.00016921,-0.00004281,
 -0.00016157,-0.00009447,0.00003097,0.00010369,0.00001851,-0.00000264,-
 0.00001858,0.00001434,-0.00000010,-0.00001051,0.00002046,-0.00000799,-
 0.00002316,0.00010889,0.00008513,-0.00013047,0.06366986,-0.06832026,-0
 .25873805,0.00386920,-0.00451184,-0.01560733,-0.07138394,0.07607741,0.
 28125550,-0.02038725,-0.00974649,-0.01006636,-0.00227478,0.00445734,-0
 .00096358,-0.00040424,-0.00100499,0.00033862,0.00044472,-0.00002681,0.
 00009310,-0.00030201,0.00042631,0.00036551,0.00119684,-0.00285034,0.00
 052891,0.00029960,0.00008126,-0.00008577,-0.00002270,0.00002782,-0.000
 01052,-0.00015692,0.00040621,-0.00006155,-0.00005071,-0.00018968,-0.00
 003780,-0.00000720,0.00001965,0.00000093,0.00002184,0.00001543,0.00002
 515,0.00002295,0.00001947,-0.00000744,-0.00046682,0.00021327,0.0000033
 2,-0.00008994,0.00004869,-0.00003739,0.00007004,-0.00000909,-0.0000892
 6,-0.00001599,0.00000127,0.00002682,-0.00001472,0.00000385,0.00000729,
 -0.00001175,0.00000601,0.00001636,0.00082237,0.00091483,-0.00025650,-0
 .21223789,-0.08046107,-0.09650719,-0.00735843,-0.00322585,-0.00389993,
 0.00827321,0.00383985,0.00371775,0.23264976,0.01878180,0.00888972,0.01
 121789,0.00243031,-0.00328388,0.00015401,0.00077424,0.00089273,-0.0003
 7570,-0.00017426,-0.00008763,0.00014544,0.00010118,0.00018993,0.000206
 28,0.00110867,0.00127836,0.00025279,0.00023728,0.00011887,0.00021179,-
 0.00004391,0.00004282,-0.00005737,0.00005510,-0.00005989,-0.00009328,0
 .00000946,0.00003364,0.00000852,-0.00000581,-0.00000292,-0.00000058,-0
 .00000279,-0.00000115,-0.00000978,-0.00000452,-0.00000344,0.00001032,0
 .00024654,-0.00018330,-0.00005455,-0.00000731,-0.00001606,0.00009203,0
 .00003062,-0.00003205,-0.00000727,0.00000310,0.00000406,-0.00000706,-0
 .00000594,-0.00000031,0.00000415,-0.00000290,0.00000235,0.00000747,-0.
 00037863,-0.00015460,-0.00022199,-0.08354692,-0.08851703,-0.04733170,-
 0.01959218,-0.00955215,-0.01351626,-0.00704620,-0.00432275,-0.00340679
 ,0.08703306,0.09476467,0.00068353,-0.00072258,-0.00133344,-0.00032984,
 0.00056695,0.00076336,0.00040637,-0.00069661,0.00049478,0.00039050,0.0
 0024321,0.00002978,-0.00018793,0.00027521,-0.00012442,0.00019116,-0.00
 077506,0.00036965,0.00001791,-0.00007525,-0.00017607,-0.00001954,0.000
 01795,-0.00004025,-0.00013879,0.00019286,-0.00000393,-0.00002995,-0.00
 010931,-0.00000058,-0.00000499,0.00000686,0.00000071,0.00001256,0.0000
 0534,0.00001035,0.00001688,0.00000484,-0.00000798,-0.00008221,0.000050
 42,-0.00013361,0.00002178,0.00000566,-0.00000599,0.00001077,-0.0000016
 3,-0.00000650,-0.00000314,0.00000072,0.00000406,-0.00000286,0.00000082
 ,0.00000022,-0.00000426,0.00000005,0.00000315,0.00010044,0.00044746,0.
 00016044,-0.09811620,-0.04607214,-0.10253675,0.01454339,0.00591861,0.0
 0871754,-0.02437508,-0.01205600,-0.01341874,0.10689952,0.05277163,0.10
 723423\\0.00000071,0.00000044,-0.00000169,0.00000058,0.00000008,0.0000
 0095,0.00000004,0.00000011,0.00000087,-0.00000044,-0.00000064,-0.00000
 010,0.,0.00000021,-0.00000052,-0.00000044,0.00000137,-0.00000054,0.000
 00084,0.,0.00000097,-0.00000084,0.00000057,-0.00000186,-0.00000043,-0.
 00000092,0.00000035,-0.00000124,-0.00000049,-0.00000134,-0.00000152,-0
 .00000106,-0.00000117,-0.00000094,0.00000011,-0.00000151,-0.00000171,-
 0.00000071,-0.00000170,-0.00000026,-0.00000155,0.00000125,0.00000070,-
 0.00000098,0.00000116,0.00000070,-0.00000217,0.00000264,-0.00000115,-0
 .00000112,0.00000058,0.00000123,0.00000150,0.00000020,0.00000068,-0.00
 000093,0.00000192,-0.00000017,0.00000141,-0.00000187,0.00000067,0.0000
 0118,0.00000004,0.00000175,0.00000122,0.00000105,0.00000029,0.00000072
 ,0.00000053,0.00000095,0.00000163,-0.00000020\\\@


 IT IS A QUALITY OF REVOLUTIONS NOT TO GO BY OLD LINES OR OLD LAWS,
 BUT TO BREAK UP BOTH, AND MAKE NEW ONES.
                                              -- A. LINCOLN (1848)
 Job cpu time:       0 days  1 hours 10 minutes 56.3 seconds.
 File lengths (MBytes):  RWF=    444 Int=      0 D2E=      0 Chk=     10 Scr=      2
 Normal termination of Gaussian 09 at Fri Sep  9 22:46:19 2022.
