 Entering Gaussian System, Link 0=g09
 Input=SR-11-ts-P2.gjf
 Output=SR-11-ts-P2.log
 Initial command:
 /home/t1000003974/apps//g09/l1.exe "/home/t1000003974/tmp/Gau-244469.inp" -scrdir="/home/t1000003974/tmp/"
 Entering Link 1 = /home/t1000003974/apps//g09/l1.exe PID=    244470.
  
 Copyright (c) 1988,1990,1992,1993,1995,1998,2003,2009,2015,
            Gaussian, Inc.  All Rights Reserved.
  
 This is part of the Gaussian(R) 09 program.  It is based on
 the Gaussian(R) 03 system (copyright 2003, Gaussian, Inc.),
 the Gaussian(R) 98 system (copyright 1998, Gaussian, Inc.),
 the Gaussian(R) 94 system (copyright 1995, Gaussian, Inc.),
 the Gaussian 92(TM) system (copyright 1992, Gaussian, Inc.),
 the Gaussian 90(TM) system (copyright 1990, Gaussian, Inc.),
 the Gaussian 88(TM) system (copyright 1988, Gaussian, Inc.),
 the Gaussian 86(TM) system (copyright 1986, Carnegie Mellon
 University), and the Gaussian 82(TM) system (copyright 1983,
 Carnegie Mellon University). Gaussian is a federally registered
 trademark of Gaussian, Inc.
  
 This software contains proprietary and confidential information,
 including trade secrets, belonging to Gaussian, Inc.
  
 This software is provided under written license and may be
 used, copied, transmitted, or stored only in accord with that
 written license.
  
 The following legend is applicable only to US Government
 contracts under FAR:
  
                    RESTRICTED RIGHTS LEGEND
  
 Use, reproduction and disclosure by the US Government is
 subject to restrictions as set forth in subparagraphs (a)
 and (c) of the Commercial Computer Software - Restricted
 Rights clause in FAR 52.227-19.
  
 Gaussian, Inc.
 340 Quinnipiac St., Bldg. 40, Wallingford CT 06492
  
  
 ---------------------------------------------------------------
 Warning -- This program may not be used in any manner that
 competes with the business of Gaussian, Inc. or will provide
 assistance to any competitor of Gaussian, Inc.  The licensee
 of this program is prohibited from giving any competitor of
 Gaussian, Inc. access to this program.  By using this program,
 the user acknowledges that Gaussian, Inc. is engaged in the
 business of creating and licensing software in the field of
 computational chemistry and represents and warrants to the
 licensee that it is not a competitor of Gaussian, Inc. and that
 it will not use this program in any manner prohibited above.
 ---------------------------------------------------------------
  

 Cite this work as:
 Gaussian 09, Revision E.01,
 M. J. Frisch, G. W. Trucks, H. B. Schlegel, G. E. Scuseria, 
 M. A. Robb, J. R. Cheeseman, G. Scalmani, V. Barone, B. Mennucci, 
 G. A. Petersson, H. Nakatsuji, M. Caricato, X. Li, H. P. Hratchian, 
 A. F. Izmaylov, J. Bloino, G. Zheng, J. L. Sonnenberg, M. Hada, 
 M. Ehara, K. Toyota, R. Fukuda, J. Hasegawa, M. Ishida, T. Nakajima, 
 Y. Honda, O. Kitao, H. Nakai, T. Vreven, J. A. Montgomery, Jr., 
 J. E. Peralta, F. Ogliaro, M. Bearpark, J. J. Heyd, E. Brothers, 
 K. N. Kudin, V. N. Staroverov, T. Keith, R. Kobayashi, J. Normand, 
 K. Raghavachari, A. Rendell, J. C. Burant, S. S. Iyengar, J. Tomasi, 
 M. Cossi, N. Rega, J. M. Millam, M. Klene, J. E. Knox, J. B. Cross, 
 V. Bakken, C. Adamo, J. Jaramillo, R. Gomperts, R. E. Stratmann, 
 O. Yazyev, A. J. Austin, R. Cammi, C. Pomelli, J. W. Ochterski, 
 R. L. Martin, K. Morokuma, V. G. Zakrzewski, G. A. Voth, 
 P. Salvador, J. J. Dannenberg, S. Dapprich, A. D. Daniels, 
 O. Farkas, J. B. Foresman, J. V. Ortiz, J. Cioslowski, 
 and D. J. Fox, Gaussian, Inc., Wallingford CT, 2013.
 
 ******************************************
 Gaussian 09:  ES64L-G09RevE.01 30-Nov-2015
                 9-Sep-2022 
 ******************************************
 %nprocshared=30
 Will use up to   30 processors via shared memory.
 %mem=60GB
 %chk=SR-11-ts-P2.chk
 ----------------------------------------------------------------------
 # opt=(calcfc,ts,noeigentest) freq ub3lyp/6-311g(d,p) geom=connectivit
 y temperature=823.15
 ----------------------------------------------------------------------
 1/5=1,10=4,11=1,14=-1,18=20,26=3,38=1,57=2,112=823150/1,3;
 2/9=110,12=2,17=6,18=5,40=1/2;
 3/5=4,6=6,7=101,11=2,16=1,25=1,30=1,71=2,74=-5,116=2,140=1/1,2,3;
 4//1;
 5/5=2,38=5/2;
 8/6=4,10=90,11=11/1;
 11/6=1,8=1,9=11,15=111,16=1/1,2,10;
 10/6=1,13=1/2;
 6/7=2,8=2,9=2,10=2,28=1/1;
 7/10=1,18=20,25=1/1,2,3,16;
 1/5=1,10=4,11=1,14=-1,18=20,26=3/3(2);
 2/9=110/2;
 99//99;
 2/9=110/2;
 3/5=4,6=6,7=101,11=2,16=1,25=1,30=1,71=1,74=-5,116=2/1,2,3;
 4/5=5,16=3,69=1/1;
 5/5=2,38=5/2;
 7//1,2,3,16;
 1/5=1,11=1,14=-1,18=20,26=3/3(-5);
 2/9=110/2;
 6/7=2,8=2,9=2,10=2,19=2,28=1/1;
 99/9=1/99;
 -------------------
 Title Card Required
 -------------------
 Symbolic Z-matrix:
 Charge =  0 Multiplicity = 2
 C                     1.40249  -0.49502   0.02628 
 C                     0.652     0.6905   -0.09658 
 C                    -0.71609   0.58     -0.35708 
 C                    -1.35124  -0.68582  -0.53673 
 C                    -0.57254  -1.85511  -0.38849 
 C                     0.76986  -1.7517   -0.09102 
 O                    -2.71904  -0.34708   0.95125 
 H                     1.36858  -2.64921   0.01966 
 O                    -1.50346   1.6797   -0.37266 
 H                    -2.13383  -0.43009   1.71887 
 H                    -2.34599   1.35734   0.00919 
 H                    -2.26456  -0.72642  -1.1127 
 C                     2.87871  -0.43091   0.31864 
 H                     3.41172   0.14672  -0.44347 
 H                     3.07641   0.0595    1.2781 
 H                     3.31743  -1.4289    0.35598 
 H                     1.11662   1.64881   0.00671 
 C                    -1.23282  -3.23106  -0.59436 
 H                    -1.16305  -3.50951  -1.62513 
 H                    -0.73174  -3.96066   0.00689 
 H                    -2.26244  -3.17903  -0.30787 
 
 Add virtual bond connecting atoms C4         and O7         Dist= 3.87D+00.
 Add virtual bond connecting atoms H11        and O7         Dist= 3.75D+00.

 GradGradGradGradGradGradGradGradGradGradGradGradGradGradGradGradGradGrad
 Berny optimization.
 Initialization pass.
                           ----------------------------
                           !    Initial Parameters    !
                           ! (Angstroms and Degrees)  !
 --------------------------                            --------------------------
 ! Name  Definition              Value          Derivative Info.                !
 --------------------------------------------------------------------------------
 ! R1    R(1,2)                  1.4085         calculate D2E/DX2 analytically  !
 ! R2    R(1,6)                  1.4118         calculate D2E/DX2 analytically  !
 ! R3    R(1,13)                 1.5063         calculate D2E/DX2 analytically  !
 ! R4    R(2,3)                  1.397          calculate D2E/DX2 analytically  !
 ! R5    R(2,17)                 1.07           calculate D2E/DX2 analytically  !
 ! R6    R(3,4)                  1.4276         calculate D2E/DX2 analytically  !
 ! R7    R(3,9)                  1.3526         calculate D2E/DX2 analytically  !
 ! R8    R(4,5)                  1.4127         calculate D2E/DX2 analytically  !
 ! R9    R(4,7)                  2.0493         calculate D2E/DX2 analytically  !
 ! R10   R(4,12)                 1.0805         calculate D2E/DX2 analytically  !
 ! R11   R(5,6)                  1.3788         calculate D2E/DX2 analytically  !
 ! R12   R(5,18)                 1.54           calculate D2E/DX2 analytically  !
 ! R13   R(6,8)                  1.0846         calculate D2E/DX2 analytically  !
 ! R14   R(7,10)                 0.9688         calculate D2E/DX2 analytically  !
 ! R15   R(7,11)                 1.9829         calculate D2E/DX2 analytically  !
 ! R16   R(9,11)                 0.9796         calculate D2E/DX2 analytically  !
 ! R17   R(13,14)                1.0948         calculate D2E/DX2 analytically  !
 ! R18   R(13,15)                1.0955         calculate D2E/DX2 analytically  !
 ! R19   R(13,16)                1.0908         calculate D2E/DX2 analytically  !
 ! R20   R(18,19)                1.07           calculate D2E/DX2 analytically  !
 ! R21   R(18,20)                1.07           calculate D2E/DX2 analytically  !
 ! R22   R(18,21)                1.07           calculate D2E/DX2 analytically  !
 ! A1    A(2,1,6)              120.2123         calculate D2E/DX2 analytically  !
 ! A2    A(2,1,13)             120.22           calculate D2E/DX2 analytically  !
 ! A3    A(6,1,13)             119.5493         calculate D2E/DX2 analytically  !
 ! A4    A(1,2,3)              118.1307         calculate D2E/DX2 analytically  !
 ! A5    A(1,2,17)             120.9346         calculate D2E/DX2 analytically  !
 ! A6    A(3,2,17)             120.9346         calculate D2E/DX2 analytically  !
 ! A7    A(2,3,4)              121.9577         calculate D2E/DX2 analytically  !
 ! A8    A(2,3,9)              120.5235         calculate D2E/DX2 analytically  !
 ! A9    A(4,3,9)              117.4164         calculate D2E/DX2 analytically  !
 ! A10   A(3,4,5)              118.3902         calculate D2E/DX2 analytically  !
 ! A11   A(3,4,7)               93.3837         calculate D2E/DX2 analytically  !
 ! A12   A(3,4,12)             118.4546         calculate D2E/DX2 analytically  !
 ! A13   A(5,4,7)              115.3748         calculate D2E/DX2 analytically  !
 ! A14   A(5,4,12)             119.3911         calculate D2E/DX2 analytically  !
 ! A15   A(7,4,12)              80.1592         calculate D2E/DX2 analytically  !
 ! A16   A(4,5,6)              119.8165         calculate D2E/DX2 analytically  !
 ! A17   A(4,5,18)             119.287          calculate D2E/DX2 analytically  !
 ! A18   A(6,5,18)             120.8817         calculate D2E/DX2 analytically  !
 ! A19   A(1,6,5)              121.3951         calculate D2E/DX2 analytically  !
 ! A20   A(1,6,8)              118.7346         calculate D2E/DX2 analytically  !
 ! A21   A(5,6,8)              119.8289         calculate D2E/DX2 analytically  !
 ! A22   A(4,7,10)              99.0894         calculate D2E/DX2 analytically  !
 ! A23   A(4,7,11)              70.8251         calculate D2E/DX2 analytically  !
 ! A24   A(10,7,11)            109.6602         calculate D2E/DX2 analytically  !
 ! A25   A(3,9,11)             103.2168         calculate D2E/DX2 analytically  !
 ! A26   A(7,11,9)             129.0413         calculate D2E/DX2 analytically  !
 ! A27   A(1,13,14)            111.376          calculate D2E/DX2 analytically  !
 ! A28   A(1,13,15)            111.4635         calculate D2E/DX2 analytically  !
 ! A29   A(1,13,16)            111.216          calculate D2E/DX2 analytically  !
 ! A30   A(14,13,15)           106.5958         calculate D2E/DX2 analytically  !
 ! A31   A(14,13,16)           108.1041         calculate D2E/DX2 analytically  !
 ! A32   A(15,13,16)           107.8786         calculate D2E/DX2 analytically  !
 ! A33   A(5,18,19)            109.4712         calculate D2E/DX2 analytically  !
 ! A34   A(5,18,20)            109.4712         calculate D2E/DX2 analytically  !
 ! A35   A(5,18,21)            109.4712         calculate D2E/DX2 analytically  !
 ! A36   A(19,18,20)           109.4713         calculate D2E/DX2 analytically  !
 ! A37   A(19,18,21)           109.4712         calculate D2E/DX2 analytically  !
 ! A38   A(20,18,21)           109.4712         calculate D2E/DX2 analytically  !
 ! D1    D(6,1,2,3)             -1.0409         calculate D2E/DX2 analytically  !
 ! D2    D(6,1,2,17)           178.9591         calculate D2E/DX2 analytically  !
 ! D3    D(13,1,2,3)          -179.4745         calculate D2E/DX2 analytically  !
 ! D4    D(13,1,2,17)            0.5255         calculate D2E/DX2 analytically  !
 ! D5    D(2,1,6,5)              3.0795         calculate D2E/DX2 analytically  !
 ! D6    D(2,1,6,8)           -179.2654         calculate D2E/DX2 analytically  !
 ! D7    D(13,1,6,5)          -178.4764         calculate D2E/DX2 analytically  !
 ! D8    D(13,1,6,8)            -0.8212         calculate D2E/DX2 analytically  !
 ! D9    D(2,1,13,14)          -57.7933         calculate D2E/DX2 analytically  !
 ! D10   D(2,1,13,15)           61.1187         calculate D2E/DX2 analytically  !
 ! D11   D(2,1,13,16)         -178.4509         calculate D2E/DX2 analytically  !
 ! D12   D(6,1,13,14)          123.7626         calculate D2E/DX2 analytically  !
 ! D13   D(6,1,13,15)         -117.3253         calculate D2E/DX2 analytically  !
 ! D14   D(6,1,13,16)            3.1051         calculate D2E/DX2 analytically  !
 ! D15   D(1,2,3,4)             -1.8204         calculate D2E/DX2 analytically  !
 ! D16   D(1,2,3,9)            174.4048         calculate D2E/DX2 analytically  !
 ! D17   D(17,2,3,4)           178.1796         calculate D2E/DX2 analytically  !
 ! D18   D(17,2,3,9)            -5.5952         calculate D2E/DX2 analytically  !
 ! D19   D(2,3,4,5)              2.6955         calculate D2E/DX2 analytically  !
 ! D20   D(2,3,4,7)            124.0232         calculate D2E/DX2 analytically  !
 ! D21   D(2,3,4,12)          -155.34           calculate D2E/DX2 analytically  !
 ! D22   D(9,3,4,5)           -173.6415         calculate D2E/DX2 analytically  !
 ! D23   D(9,3,4,7)            -52.3138         calculate D2E/DX2 analytically  !
 ! D24   D(9,3,4,12)            28.323          calculate D2E/DX2 analytically  !
 ! D25   D(2,3,9,11)          -144.1208         calculate D2E/DX2 analytically  !
 ! D26   D(4,3,9,11)            32.2715         calculate D2E/DX2 analytically  !
 ! D27   D(3,4,5,6)             -0.6606         calculate D2E/DX2 analytically  !
 ! D28   D(3,4,5,18)          -179.2717         calculate D2E/DX2 analytically  !
 ! D29   D(7,4,5,6)           -109.966          calculate D2E/DX2 analytically  !
 ! D30   D(7,4,5,18)            71.4229         calculate D2E/DX2 analytically  !
 ! D31   D(12,4,5,6)           157.1651         calculate D2E/DX2 analytically  !
 ! D32   D(12,4,5,18)          -21.446          calculate D2E/DX2 analytically  !
 ! D33   D(3,4,7,10)           -72.1703         calculate D2E/DX2 analytically  !
 ! D34   D(3,4,7,11)            35.5938         calculate D2E/DX2 analytically  !
 ! D35   D(5,4,7,10)            51.5547         calculate D2E/DX2 analytically  !
 ! D36   D(5,4,7,11)           159.3188         calculate D2E/DX2 analytically  !
 ! D37   D(12,4,7,10)          169.5247         calculate D2E/DX2 analytically  !
 ! D38   D(12,4,7,11)          -82.7112         calculate D2E/DX2 analytically  !
 ! D39   D(4,5,6,1)             -2.1722         calculate D2E/DX2 analytically  !
 ! D40   D(4,5,6,8)           -179.8021         calculate D2E/DX2 analytically  !
 ! D41   D(18,5,6,1)           176.4163         calculate D2E/DX2 analytically  !
 ! D42   D(18,5,6,8)            -1.2136         calculate D2E/DX2 analytically  !
 ! D43   D(4,5,18,19)           89.1077         calculate D2E/DX2 analytically  !
 ! D44   D(4,5,18,20)         -150.8923         calculate D2E/DX2 analytically  !
 ! D45   D(4,5,18,21)          -30.8923         calculate D2E/DX2 analytically  !
 ! D46   D(6,5,18,19)          -89.4882         calculate D2E/DX2 analytically  !
 ! D47   D(6,5,18,20)           30.5118         calculate D2E/DX2 analytically  !
 ! D48   D(6,5,18,21)          150.5118         calculate D2E/DX2 analytically  !
 ! D49   D(4,7,11,9)           -35.6907         calculate D2E/DX2 analytically  !
 ! D50   D(10,7,11,9)           57.3686         calculate D2E/DX2 analytically  !
 ! D51   D(3,9,11,7)            12.2755         calculate D2E/DX2 analytically  !
 --------------------------------------------------------------------------------
 Trust Radius=3.00D-01 FncErr=1.00D-07 GrdErr=1.00D-06
 Number of steps in this run=    121 maximum allowed number of steps=    126.
 Search for a saddle point of order  1.
 GradGradGradGradGradGradGradGradGradGradGradGradGradGradGradGradGradGrad

                          Input orientation:                          
 ---------------------------------------------------------------------
 Center     Atomic      Atomic             Coordinates (Angstroms)
 Number     Number       Type             X           Y           Z
 ---------------------------------------------------------------------
      1          6           0        1.402488   -0.495017    0.026280
      2          6           0        0.652004    0.690499   -0.096575
      3          6           0       -0.716086    0.580000   -0.357082
      4          6           0       -1.351242   -0.685818   -0.536730
      5          6           0       -0.572541   -1.855106   -0.388490
      6          6           0        0.769855   -1.751695   -0.091022
      7          8           0       -2.719036   -0.347084    0.951248
      8          1           0        1.368583   -2.649205    0.019659
      9          8           0       -1.503459    1.679700   -0.372663
     10          1           0       -2.133829   -0.430085    1.718867
     11          1           0       -2.345994    1.357341    0.009188
     12          1           0       -2.264560   -0.726417   -1.112696
     13          6           0        2.878711   -0.430913    0.318640
     14          1           0        3.411719    0.146724   -0.443474
     15          1           0        3.076413    0.059500    1.278100
     16          1           0        3.317428   -1.428899    0.355981
     17          1           0        1.116622    1.648811    0.006711
     18          6           0       -1.232818   -3.231061   -0.594357
     19          1           0       -1.163045   -3.509510   -1.625132
     20          1           0       -0.731736   -3.960661    0.006892
     21          1           0       -2.262438   -3.179033   -0.307867
 ---------------------------------------------------------------------
                    Distance matrix (angstroms):
                    1          2          3          4          5
     1  C    0.000000
     2  C    1.408463   0.000000
     3  C    2.406446   1.397048   0.000000
     4  C    2.817164   2.470016   1.427582   0.000000
     5  C    2.433642   2.839864   2.439535   1.412652   0.000000
     6  C    1.411816   2.445042   2.777699   2.415326   1.378843
     7  O    4.226631   3.679459   2.565740   2.049312   2.945585
     8  H    2.154465   3.417692   3.862065   3.400280   2.136619
     9  O    3.651449   2.387627   1.352605   2.376082   3.655368
    10  H    3.921046   3.508903   2.709212   2.401158   2.984838
    11  H    4.181225   3.073086   1.842556   2.337104   3.690948
    12  H    3.846824   3.398014   2.162279   1.080525   2.159014
    13  C    1.506260   2.527487   3.794880   4.323093   3.799934
    14  H    2.160905   2.834088   4.151381   4.836075   4.459224
    15  H    2.162537   2.857560   4.162666   4.842854   4.445009
    16  H    2.155883   3.435279   4.562167   4.810986   3.983434
    17  H    2.162892   1.070000   2.152561   3.440374   3.909845
    18  C    3.849152   4.379381   3.853245   2.548648   1.540000
    19  H    4.289090   4.823999   4.304860   3.032041   2.148263
    20  H    4.070132   4.853734   4.555253   3.376968   2.148263
    21  H    4.554918   4.848906   4.064966   2.664353   2.148263
                    6          7          8          9         10
     6  C    0.000000
     7  O    3.902771   0.000000
     8  H    1.084550   4.782912   0.000000
     9  O    4.125742   2.708915   5.209795   0.000000
    10  H    3.667933   0.968811   4.480925   3.036949   0.000000
    11  H    4.402802   1.982852   5.463571   0.979587   2.482520
    12  H    3.361947   2.147162   4.263692   2.629890   2.850027
    13  C    2.521817   5.634003   2.700129   4.912840   5.204440
    14  H    3.272256   6.306762   3.493725   5.149175   5.980094
    15  H    3.236531   5.818881   3.440558   5.130818   5.251723
    16  H    2.606557   6.161458   2.323845   5.782323   5.707126
    17  H    3.419538   4.425835   4.305415   2.647584   4.221222
    18  C    2.540191   3.593753   2.735482   4.923207   3.742765
    19  H    3.029771   4.365751   3.139205   5.349062   4.648399
    20  H    2.672806   4.230734   2.476170   5.705549   4.166736
    21  H    3.358440   3.132696   3.684061   4.918082   3.417734
                   11         12         13         14         15
    11  H    0.000000
    12  H    2.367974   0.000000
    13  C    5.530927   5.346895   0.000000
    14  H    5.900996   5.781901   1.094797   0.000000
    15  H    5.718131   5.904199   1.095516   1.756091   0.000000
    16  H    6.321214   5.814558   1.090799   1.769352   1.767406
    17  H    3.474863   4.281025   2.743631   2.779641   2.825442
    18  C    4.759922   2.757972   5.057575   5.744904   5.736145
    19  H    5.268454   3.036698   5.439835   5.974348   6.256165
    20  H    5.557606   3.750115   5.058818   5.851637   5.681519
    21  H    4.548207   2.581294   5.863112   6.578382   6.442571
                   16         17         18         19         20
    16  H    0.000000
    17  H    3.799715   0.000000
    18  C    4.985546   5.449248   0.000000
    19  H    5.322443   5.870952   1.070000   0.000000
    20  H    4.788258   5.906150   1.070000   1.747303   0.000000
    21  H    5.885454   5.901278   1.070000   1.747303   1.747303
                   21
    21  H    0.000000
 Stoichiometry    C8H11O2(2)
 Framework group  C1[X(C8H11O2)]
 Deg. of freedom    57
 Full point group                 C1      NOp   1
 Largest Abelian subgroup         C1      NOp   1
 Largest concise Abelian subgroup C1      NOp   1
                         Standard orientation:                         
 ---------------------------------------------------------------------
 Center     Atomic      Atomic             Coordinates (Angstroms)
 Number     Number       Type             X           Y           Z
 ---------------------------------------------------------------------
      1          6           0       -1.686899   -0.147109    0.061670
      2          6           0       -0.909705   -1.303465   -0.144675
      3          6           0        0.460138   -1.145100   -0.368715
      4          6           0        1.071702    0.143378   -0.430422
      5          6           0        0.266196    1.280902   -0.200676
      6          6           0       -1.078761    1.127016    0.061274
      7          8           0        2.419924   -0.291611    1.050376
      8          1           0       -1.698010    2.000383    0.234509
      9          8           0        1.270524   -2.224182   -0.460343
     10          1           0        1.819704   -0.284266    1.810821
     11          1           0        2.099280   -1.918486   -0.036900
     12          1           0        1.993952    0.249571   -0.983335
     13          6           0       -3.166366   -0.264004    0.319215
     14          1           0       -3.673680   -0.786332   -0.498334
     15          1           0       -3.370588   -0.836441    1.230678
     16          1           0       -3.626478    0.718691    0.430797
     17          1           0       -1.355893   -2.275889   -0.130246
     18          6           0        0.901025    2.681785   -0.278882
     19          1           0        0.843565    3.043789   -1.284144
     20          1           0        0.374280    3.348858    0.371082
     21          1           0        1.926314    2.626049    0.022078
 ---------------------------------------------------------------------
 Rotational constants (GHZ):      1.5947157      1.2018019      0.7592694
 Standard basis: 6-311G(d,p) (5D, 7F)
 There are   256 symmetry adapted cartesian basis functions of A   symmetry.
 There are   246 symmetry adapted basis functions of A   symmetry.
   246 basis functions,   408 primitive gaussians,   256 cartesian basis functions
    38 alpha electrons       37 beta electrons
       nuclear repulsion energy       521.5658725852 Hartrees.
 NAtoms=   21 NActive=   21 NUniq=   21 SFac= 1.00D+00 NAtFMM=   60 NAOKFM=F Big=F
 Integral buffers will be    131072 words long.
 Raffenetti 2 integral format.
 Two-electron integral symmetry is turned on.
 One-electron integrals computed using PRISM.
 NBasis=   246 RedAO= T EigKep=  2.14D-04  NBF=   246
 NBsUse=   246 1.00D-06 EigRej= -1.00D+00 NBFU=   246
 ExpMin= 1.03D-01 ExpMax= 8.59D+03 ExpMxC= 1.30D+03 IAcc=1 IRadAn=         1 AccDes= 0.00D+00
 Harris functional with IExCor=  402 and IRadAn=       1 diagonalized for initial guess.
 HarFok:  IExCor=  402 AccDes= 0.00D+00 IRadAn=         1 IDoV= 1 UseB2=F ITyADJ=14
 ICtDFT=  3500011 ScaDFX=  1.000000  1.000000  1.000000  1.000000
 FoFCou: FMM=F IPFlag=           0 FMFlag=      100000 FMFlg1=           0
         NFxFlg=           0 DoJE=T BraDBF=F KetDBF=T FulRan=T
         wScrn=  0.000000 ICntrl=     500 IOpCl=  0 I1Cent=   200000004 NGrid=           0
         NMat0=    1 NMatS0=      1 NMatT0=    0 NMatD0=    1 NMtDS0=    0 NMtDT0=    0
 Petite list used in FoFCou.
 Initial guess <Sx>= 0.0000 <Sy>= 0.0000 <Sz>= 0.5000 <S**2>= 0.7500 S= 0.5000
 Keep R1 and R2 ints in memory in canonical form, NReq=931747466.
 Requested convergence on RMS density matrix=1.00D-08 within 128 cycles.
 Requested convergence on MAX density matrix=1.00D-06.
 Requested convergence on             energy=1.00D-06.
 No special actions if energy rises.
 Integral accuracy reduced to 1.0D-05 until final iterations.
 Initial convergence to 1.0D-05 achieved.  Increase integral accuracy.
 SCF Done:  E(UB3LYP) =  -461.975403555     A.U. after   21 cycles
            NFock= 21  Conv=0.77D-08     -V/T= 2.0037
 <Sx>= 0.0000 <Sy>= 0.0000 <Sz>= 0.5000 <S**2>= 0.7705 S= 0.5102
 <L.S>= 0.000000000000E+00
 Annihilation of the first spin contaminant:
 S**2 before annihilation     0.7705,   after     0.7503
 DoSCS=F DFT=T ScalE2(SS,OS)=  1.000000  1.000000
 Range of M.O.s used for correlation:     1   246
 NBasis=   246 NAE=    38 NBE=    37 NFC=     0 NFV=     0
 NROrb=    246 NOA=    38 NOB=    37 NVA=   208 NVB=   209

 **** Warning!!: The largest alpha MO coefficient is  0.11324044D+02


 **** Warning!!: The largest beta MO coefficient is  0.11224601D+02

 Symmetrizing basis deriv contribution to polar:
 IMax=3 JMax=2 DiffMx= 0.00D+00
 G2DrvN: will do    22 centers at a time, making    1 passes.
 Calling FoFCou, ICntrl=  3107 FMM=F I1Cent=   0 AccDes= 0.00D+00.
 End of G2Drv F.D. properties file   721 does not exist.
 End of G2Drv F.D. properties file   722 does not exist.
 End of G2Drv F.D. properties file   788 does not exist.
          IDoAtm=111111111111111111111
          Differentiating once with respect to nuclear coordinates.
 Keep R1 and R2 ints in memory in canonical form, NReq=931530093.
          There are    66 degrees of freedom in the 1st order CPHF.  IDoFFX=6 NUNeed=     0.
     60 vectors produced by pass  0 Test12= 2.37D-14 1.52D-09 XBig12= 3.39D-01 2.48D-01.
 AX will form    60 AO Fock derivatives at one time.
     60 vectors produced by pass  1 Test12= 2.37D-14 1.52D-09 XBig12= 5.09D-02 6.15D-02.
     60 vectors produced by pass  2 Test12= 2.37D-14 1.52D-09 XBig12= 1.39D-03 8.83D-03.
     60 vectors produced by pass  3 Test12= 2.37D-14 1.52D-09 XBig12= 1.47D-05 8.45D-04.
     60 vectors produced by pass  4 Test12= 2.37D-14 1.52D-09 XBig12= 9.89D-08 5.14D-05.
     60 vectors produced by pass  5 Test12= 2.37D-14 1.52D-09 XBig12= 6.30D-10 2.04D-06.
     41 vectors produced by pass  6 Test12= 2.37D-14 1.52D-09 XBig12= 2.11D-12 1.36D-07.
     11 vectors produced by pass  7 Test12= 2.37D-14 1.52D-09 XBig12= 9.90D-15 6.83D-09.
 InvSVY:  IOpt=1 It=  1 EMax= 6.66D-16
 Solved reduced A of dimension   412 with    66 vectors.
 End of Minotr F.D. properties file   721 does not exist.
 End of Minotr F.D. properties file   722 does not exist.
 End of Minotr F.D. properties file   788 does not exist.

 **********************************************************************

            Population analysis using the SCF density.

 **********************************************************************

 Orbital symmetries:
 Alpha Orbitals:
       Occupied  (A) (A) (A) (A) (A) (A) (A) (A) (A) (A) (A) (A)
                 (A) (A) (A) (A) (A) (A) (A) (A) (A) (A) (A) (A)
                 (A) (A) (A) (A) (A) (A) (A) (A) (A) (A) (A) (A)
                 (A) (A)
       Virtual   (A) (A) (A) (A) (A) (A) (A) (A) (A) (A) (A) (A)
                 (A) (A) (A) (A) (A) (A) (A) (A) (A) (A) (A) (A)
                 (A) (A) (A) (A) (A) (A) (A) (A) (A) (A) (A) (A)
                 (A) (A) (A) (A) (A) (A) (A) (A) (A) (A) (A) (A)
                 (A) (A) (A) (A) (A) (A) (A) (A) (A) (A) (A) (A)
                 (A) (A) (A) (A) (A) (A) (A) (A) (A) (A) (A) (A)
                 (A) (A) (A) (A) (A) (A) (A) (A) (A) (A) (A) (A)
                 (A) (A) (A) (A) (A) (A) (A) (A) (A) (A) (A) (A)
                 (A) (A) (A) (A) (A) (A) (A) (A) (A) (A) (A) (A)
                 (A) (A) (A) (A) (A) (A) (A) (A) (A) (A) (A) (A)
                 (A) (A) (A) (A) (A) (A) (A) (A) (A) (A) (A) (A)
                 (A) (A) (A) (A) (A) (A) (A) (A) (A) (A) (A) (A)
                 (A) (A) (A) (A) (A) (A) (A) (A) (A) (A) (A) (A)
                 (A) (A) (A) (A) (A) (A) (A) (A) (A) (A) (A) (A)
                 (A) (A) (A) (A) (A) (A) (A) (A) (A) (A) (A) (A)
                 (A) (A) (A) (A) (A) (A) (A) (A) (A) (A) (A) (A)
                 (A) (A) (A) (A) (A) (A) (A) (A) (A) (A) (A) (A)
                 (A) (A) (A) (A)
 Beta  Orbitals:
       Occupied  (A) (A) (A) (A) (A) (A) (A) (A) (A) (A) (A) (A)
                 (A) (A) (A) (A) (A) (A) (A) (A) (A) (A) (A) (A)
                 (A) (A) (A) (A) (A) (A) (A) (A) (A) (A) (A) (A)
                 (A)
       Virtual   (A) (A) (A) (A) (A) (A) (A) (A) (A) (A) (A) (A)
                 (A) (A) (A) (A) (A) (A) (A) (A) (A) (A) (A) (A)
                 (A) (A) (A) (A) (A) (A) (A) (A) (A) (A) (A) (A)
                 (A) (A) (A) (A) (A) (A) (A) (A) (A) (A) (A) (A)
                 (A) (A) (A) (A) (A) (A) (A) (A) (A) (A) (A) (A)
                 (A) (A) (A) (A) (A) (A) (A) (A) (A) (A) (A) (A)
                 (A) (A) (A) (A) (A) (A) (A) (A) (A) (A) (A) (A)
                 (A) (A) (A) (A) (A) (A) (A) (A) (A) (A) (A) (A)
                 (A) (A) (A) (A) (A) (A) (A) (A) (A) (A) (A) (A)
                 (A) (A) (A) (A) (A) (A) (A) (A) (A) (A) (A) (A)
                 (A) (A) (A) (A) (A) (A) (A) (A) (A) (A) (A) (A)
                 (A) (A) (A) (A) (A) (A) (A) (A) (A) (A) (A) (A)
                 (A) (A) (A) (A) (A) (A) (A) (A) (A) (A) (A) (A)
                 (A) (A) (A) (A) (A) (A) (A) (A) (A) (A) (A) (A)
                 (A) (A) (A) (A) (A) (A) (A) (A) (A) (A) (A) (A)
                 (A) (A) (A) (A) (A) (A) (A) (A) (A) (A) (A) (A)
                 (A) (A) (A) (A) (A) (A) (A) (A) (A) (A) (A) (A)
                 (A) (A) (A) (A) (A)
 The electronic state is 2-A.
 Alpha  occ. eigenvalues --  -19.13954 -19.10409 -10.24895 -10.20495 -10.20256
 Alpha  occ. eigenvalues --  -10.19734 -10.17883 -10.17691 -10.17507 -10.16782
 Alpha  occ. eigenvalues --   -1.06397  -0.95019  -0.87118  -0.79770  -0.76308
 Alpha  occ. eigenvalues --   -0.70448  -0.70133  -0.61365  -0.59382  -0.53460
 Alpha  occ. eigenvalues --   -0.51560  -0.49145  -0.45166  -0.43999  -0.43038
 Alpha  occ. eigenvalues --   -0.43021  -0.42493  -0.41259  -0.40329  -0.40019
 Alpha  occ. eigenvalues --   -0.37892  -0.36577  -0.35598  -0.32834  -0.32124
 Alpha  occ. eigenvalues --   -0.28277  -0.24800  -0.21211
 Alpha virt. eigenvalues --   -0.01594  -0.01220   0.03751   0.05429   0.06726
 Alpha virt. eigenvalues --    0.07897   0.08427   0.09465   0.10577   0.11323
 Alpha virt. eigenvalues --    0.12137   0.12903   0.14561   0.16637   0.19553
 Alpha virt. eigenvalues --    0.19934   0.23228   0.24363   0.25823   0.28283
 Alpha virt. eigenvalues --    0.30391   0.31545   0.32760   0.33454   0.34503
 Alpha virt. eigenvalues --    0.36021   0.37418   0.38900   0.40226   0.41682
 Alpha virt. eigenvalues --    0.42989   0.43699   0.44742   0.47227   0.47870
 Alpha virt. eigenvalues --    0.48328   0.50010   0.51446   0.53745   0.54138
 Alpha virt. eigenvalues --    0.54771   0.56567   0.56797   0.57774   0.59339
 Alpha virt. eigenvalues --    0.59569   0.60157   0.61405   0.62748   0.63542
 Alpha virt. eigenvalues --    0.65768   0.65997   0.67675   0.68985   0.70556
 Alpha virt. eigenvalues --    0.75053   0.78983   0.80595   0.83120   0.84695
 Alpha virt. eigenvalues --    0.85324   0.86733   0.87224   0.89033   0.89891
 Alpha virt. eigenvalues --    0.92899   0.94368   0.96288   0.97802   1.00246
 Alpha virt. eigenvalues --    1.01370   1.03079   1.05130   1.08418   1.09910
 Alpha virt. eigenvalues --    1.15832   1.19226   1.23209   1.29150   1.30579
 Alpha virt. eigenvalues --    1.33287   1.34116   1.36626   1.38518   1.40172
 Alpha virt. eigenvalues --    1.41723   1.44044   1.44717   1.44908   1.45494
 Alpha virt. eigenvalues --    1.46679   1.48219   1.49537   1.50104   1.54444
 Alpha virt. eigenvalues --    1.55131   1.55500   1.56835   1.58043   1.59027
 Alpha virt. eigenvalues --    1.60884   1.64098   1.66431   1.66614   1.69889
 Alpha virt. eigenvalues --    1.71234   1.73415   1.74960   1.77490   1.79435
 Alpha virt. eigenvalues --    1.81199   1.84868   1.86335   1.89938   1.91547
 Alpha virt. eigenvalues --    1.92197   1.94350   1.96510   1.98092   1.98506
 Alpha virt. eigenvalues --    2.01511   2.01781   2.04248   2.05605   2.08945
 Alpha virt. eigenvalues --    2.12704   2.14632   2.18708   2.20967   2.23749
 Alpha virt. eigenvalues --    2.28448   2.30278   2.33211   2.35341   2.37507
 Alpha virt. eigenvalues --    2.39461   2.42357   2.43053   2.44810   2.46455
 Alpha virt. eigenvalues --    2.48369   2.51753   2.52452   2.53209   2.54791
 Alpha virt. eigenvalues --    2.56752   2.57969   2.59845   2.61600   2.63840
 Alpha virt. eigenvalues --    2.64641   2.67116   2.72381   2.74309   2.76468
 Alpha virt. eigenvalues --    2.79893   2.83545   2.83963   2.86124   2.87874
 Alpha virt. eigenvalues --    2.90928   2.92806   2.98090   3.01703   3.04435
 Alpha virt. eigenvalues --    3.08764   3.12073   3.13091   3.14599   3.15921
 Alpha virt. eigenvalues --    3.18571   3.20848   3.23783   3.32845   3.34743
 Alpha virt. eigenvalues --    3.44494   3.51178   3.57416   3.58206   3.62763
 Alpha virt. eigenvalues --    3.76467   3.77652   3.80288   3.81489   3.83894
 Alpha virt. eigenvalues --    3.86046   4.00936   4.07404   4.09967   4.28471
 Alpha virt. eigenvalues --    4.31307   4.77991   4.86854   4.88418   4.94886
 Alpha virt. eigenvalues --    5.34281   5.47575   5.68178  23.49181  23.82014
 Alpha virt. eigenvalues --   23.87574  23.93544  23.95634  24.00798  24.07437
 Alpha virt. eigenvalues --   24.14414  49.82911  49.92620
  Beta  occ. eigenvalues --  -19.13839 -19.08839 -10.24626 -10.20183 -10.20181
  Beta  occ. eigenvalues --  -10.19509 -10.17901 -10.17762 -10.17635 -10.16792
  Beta  occ. eigenvalues --   -1.06100  -0.91311  -0.86609  -0.79341  -0.75974
  Beta  occ. eigenvalues --   -0.70421  -0.69989  -0.61074  -0.58982  -0.53164
  Beta  occ. eigenvalues --   -0.51379  -0.48995  -0.44529  -0.43369  -0.42734
  Beta  occ. eigenvalues --   -0.42524  -0.42266  -0.41152  -0.40004  -0.39108
  Beta  occ. eigenvalues --   -0.37397  -0.36135  -0.34560  -0.31988  -0.27566
  Beta  occ. eigenvalues --   -0.26733  -0.24058
  Beta virt. eigenvalues --   -0.11961  -0.00104   0.00383   0.03818   0.05527
  Beta virt. eigenvalues --    0.06964   0.07995   0.08644   0.09514   0.10848
  Beta virt. eigenvalues --    0.11482   0.12219   0.12967   0.14612   0.17330
  Beta virt. eigenvalues --    0.19808   0.20163   0.23594   0.24517   0.25950
  Beta virt. eigenvalues --    0.28383   0.30547   0.31656   0.32903   0.33654
  Beta virt. eigenvalues --    0.34621   0.36213   0.37581   0.39119   0.40509
  Beta virt. eigenvalues --    0.41780   0.43241   0.43826   0.44908   0.47240
  Beta virt. eigenvalues --    0.48290   0.48805   0.50243   0.51730   0.54099
  Beta virt. eigenvalues --    0.54536   0.55285   0.56752   0.56946   0.57935
  Beta virt. eigenvalues --    0.59557   0.59736   0.60214   0.61418   0.62886
  Beta virt. eigenvalues --    0.63718   0.65896   0.66216   0.68021   0.69248
  Beta virt. eigenvalues --    0.70875   0.75438   0.79168   0.80844   0.83318
  Beta virt. eigenvalues --    0.85056   0.86271   0.87130   0.87523   0.89989
  Beta virt. eigenvalues --    0.90343   0.93208   0.94740   0.96821   0.98589
  Beta virt. eigenvalues --    1.00758   1.01679   1.03658   1.05416   1.08681
  Beta virt. eigenvalues --    1.10211   1.16157   1.19846   1.23735   1.29286
  Beta virt. eigenvalues --    1.30964   1.33646   1.34346   1.36772   1.38621
  Beta virt. eigenvalues --    1.40409   1.41846   1.44203   1.45018   1.45337
  Beta virt. eigenvalues --    1.45705   1.46956   1.48334   1.49668   1.50278
  Beta virt. eigenvalues --    1.54753   1.55184   1.55707   1.57009   1.58212
  Beta virt. eigenvalues --    1.59212   1.61223   1.64373   1.66597   1.66768
  Beta virt. eigenvalues --    1.70172   1.71628   1.73728   1.75179   1.77682
  Beta virt. eigenvalues --    1.79628   1.81450   1.84970   1.86741   1.90339
  Beta virt. eigenvalues --    1.91960   1.92436   1.94826   1.96769   1.98215
  Beta virt. eigenvalues --    1.98734   2.01894   2.02130   2.04409   2.05840
  Beta virt. eigenvalues --    2.09125   2.12891   2.14861   2.18804   2.21020
  Beta virt. eigenvalues --    2.24002   2.28573   2.30591   2.33443   2.35442
  Beta virt. eigenvalues --    2.37762   2.39532   2.42496   2.43296   2.44968
  Beta virt. eigenvalues --    2.46788   2.48483   2.51861   2.52582   2.53362
  Beta virt. eigenvalues --    2.54897   2.56893   2.58132   2.60102   2.61821
  Beta virt. eigenvalues --    2.64062   2.64843   2.67222   2.72592   2.74824
  Beta virt. eigenvalues --    2.76943   2.80010   2.84430   2.84915   2.86283
  Beta virt. eigenvalues --    2.89003   2.91262   2.94138   2.99298   3.02385
  Beta virt. eigenvalues --    3.06117   3.10040   3.12751   3.14091   3.15491
  Beta virt. eigenvalues --    3.16889   3.19133   3.22934   3.25302   3.33185
  Beta virt. eigenvalues --    3.34966   3.44726   3.51405   3.57532   3.58330
  Beta virt. eigenvalues --    3.62860   3.76580   3.77832   3.81409   3.81931
  Beta virt. eigenvalues --    3.83996   3.86087   4.01096   4.07593   4.10163
  Beta virt. eigenvalues --    4.28714   4.31624   4.78602   4.87532   4.90670
  Beta virt. eigenvalues --    4.99727   5.34547   5.49028   5.68376  23.49349
  Beta virt. eigenvalues --   23.82201  23.87794  23.93596  23.95652  24.00882
  Beta virt. eigenvalues --   24.07434  24.14473  49.84388  49.92839
          Condensed to atoms (all electrons):
               1          2          3          4          5          6
     1  C    5.110215   0.439181  -0.017993  -0.055563  -0.026397   0.484826
     2  C    0.439181   4.947147   0.472860  -0.012601  -0.056068  -0.037880
     3  C   -0.017993   0.472860   4.874051   0.320292  -0.002480  -0.059057
     4  C   -0.055563  -0.012601   0.320292   5.265444   0.294957  -0.040492
     5  C   -0.026397  -0.056068  -0.002480   0.294957   5.207704   0.507958
     6  C    0.484826  -0.037880  -0.059057  -0.040492   0.507958   4.878645
     7  O   -0.000800   0.001438  -0.015361   0.046612  -0.003258   0.001801
     8  H   -0.042396   0.008217  -0.001000   0.009183  -0.042265   0.416077
     9  O    0.004641  -0.054553   0.333562  -0.057466   0.009852   0.000008
    10  H   -0.000894   0.002110   0.003770  -0.013433  -0.003319   0.002052
    11  H    0.000142   0.001678  -0.046327  -0.020033   0.002004  -0.000671
    12  H   -0.001458   0.007272  -0.052334   0.429382  -0.038859   0.008579
    13  C    0.357039  -0.055569   0.005258  -0.000182   0.008131  -0.060329
    14  H   -0.036112  -0.004583   0.000211   0.000064  -0.000327   0.001966
    15  H   -0.034287  -0.004327   0.000172  -0.000027  -0.000453   0.000778
    16  H   -0.036765   0.006437  -0.000329   0.000007   0.000982  -0.007886
    17  H   -0.045819   0.417264  -0.042511   0.010869  -0.002273   0.008333
    18  C    0.007242  -0.000569   0.005705  -0.044549   0.337255  -0.059593
    19  H   -0.000396   0.000110  -0.000397  -0.001294  -0.034887  -0.001802
    20  H    0.000646   0.000026  -0.000230   0.005462  -0.036222  -0.006508
    21  H   -0.000211  -0.000120   0.000283  -0.011308  -0.032815   0.005147
               7          8          9         10         11         12
     1  C   -0.000800  -0.042396   0.004641  -0.000894   0.000142  -0.001458
     2  C    0.001438   0.008217  -0.054553   0.002110   0.001678   0.007272
     3  C   -0.015361  -0.001000   0.333562   0.003770  -0.046327  -0.052334
     4  C    0.046612   0.009183  -0.057466  -0.013433  -0.020033   0.429382
     5  C   -0.003258  -0.042265   0.009852  -0.003319   0.002004  -0.038859
     6  C    0.001801   0.416077   0.000008   0.002052  -0.000671   0.008579
     7  O    8.158099   0.000025  -0.023776   0.262618   0.058786  -0.019963
     8  H    0.000025   0.580861   0.000009  -0.000004  -0.000009  -0.000255
     9  O   -0.023776   0.000009   7.815652   0.001905   0.318455   0.001771
    10  H    0.262618  -0.000004   0.001905   0.507456  -0.006453   0.003030
    11  H    0.058786  -0.000009   0.318455  -0.006453   0.439786  -0.001533
    12  H   -0.019963  -0.000255   0.001771   0.003030  -0.001533   0.519898
    13  C   -0.000004  -0.010420  -0.000089  -0.000005   0.000035   0.000041
    14  H    0.000000   0.000166  -0.000001  -0.000000   0.000001  -0.000002
    15  H   -0.000001   0.000087  -0.000007   0.000001  -0.000003  -0.000002
    16  H   -0.000000   0.003999   0.000002  -0.000001  -0.000001  -0.000002
    17  H    0.000047  -0.000242   0.004151   0.000050  -0.000664  -0.000248
    18  C   -0.003479  -0.008024  -0.000130  -0.000364   0.000170  -0.005282
    19  H   -0.000061   0.000431   0.000001   0.000047  -0.000005   0.000808
    20  H   -0.000160   0.002872   0.000002   0.000029   0.000008   0.000129
    21  H    0.009987  -0.000006   0.000045  -0.000651  -0.000287   0.000260
              13         14         15         16         17         18
     1  C    0.357039  -0.036112  -0.034287  -0.036765  -0.045819   0.007242
     2  C   -0.055569  -0.004583  -0.004327   0.006437   0.417264  -0.000569
     3  C    0.005258   0.000211   0.000172  -0.000329  -0.042511   0.005705
     4  C   -0.000182   0.000064  -0.000027   0.000007   0.010869  -0.044549
     5  C    0.008131  -0.000327  -0.000453   0.000982  -0.002273   0.337255
     6  C   -0.060329   0.001966   0.000778  -0.007886   0.008333  -0.059593
     7  O   -0.000004   0.000000  -0.000001  -0.000000   0.000047  -0.003479
     8  H   -0.010420   0.000166   0.000087   0.003999  -0.000242  -0.008024
     9  O   -0.000089  -0.000001  -0.000007   0.000002   0.004151  -0.000130
    10  H   -0.000005  -0.000000   0.000001  -0.000001   0.000050  -0.000364
    11  H    0.000035   0.000001  -0.000003  -0.000001  -0.000664   0.000170
    12  H    0.000041  -0.000002  -0.000002  -0.000002  -0.000248  -0.005282
    13  C    4.810196   0.401277   0.399401   0.410238  -0.005835  -0.000219
    14  H    0.401277   0.563056  -0.029370  -0.026171   0.001234   0.000013
    15  H    0.399401  -0.029370   0.565121  -0.026667   0.000725   0.000015
    16  H    0.410238  -0.026171  -0.026667   0.567047   0.000016  -0.000045
    17  H   -0.005835   0.001234   0.000725   0.000016   0.556718   0.000050
    18  C   -0.000219   0.000013   0.000015  -0.000045   0.000050   4.819201
    19  H    0.000009  -0.000001  -0.000000  -0.000001  -0.000002   0.399735
    20  H   -0.000027   0.000002  -0.000002   0.000003  -0.000003   0.411311
    21  H    0.000015  -0.000001  -0.000000   0.000002  -0.000003   0.405474
              19         20         21
     1  C   -0.000396   0.000646  -0.000211
     2  C    0.000110   0.000026  -0.000120
     3  C   -0.000397  -0.000230   0.000283
     4  C   -0.001294   0.005462  -0.011308
     5  C   -0.034887  -0.036222  -0.032815
     6  C   -0.001802  -0.006508   0.005147
     7  O   -0.000061  -0.000160   0.009987
     8  H    0.000431   0.002872  -0.000006
     9  O    0.000001   0.000002   0.000045
    10  H    0.000047   0.000029  -0.000651
    11  H   -0.000005   0.000008  -0.000287
    12  H    0.000808   0.000129   0.000260
    13  C    0.000009  -0.000027   0.000015
    14  H   -0.000001   0.000002  -0.000001
    15  H   -0.000000  -0.000002  -0.000000
    16  H   -0.000001   0.000003   0.000002
    17  H   -0.000002  -0.000003  -0.000003
    18  C    0.399735   0.411311   0.405474
    19  H    0.558801  -0.025425  -0.025082
    20  H   -0.025425   0.560596  -0.026361
    21  H   -0.025082  -0.026361   0.545629
          Atomic-Atomic Spin Densities.
               1          2          3          4          5          6
     1  C    0.241311  -0.006884  -0.011042  -0.002293  -0.011823   0.026355
     2  C   -0.006884  -0.108116   0.010021  -0.000806   0.001459  -0.000033
     3  C   -0.011042   0.010021   0.180858   0.037032   0.000931  -0.000878
     4  C   -0.002293  -0.000806   0.037032   0.003065   0.042533  -0.004658
     5  C   -0.011823   0.001459   0.000931   0.042533   0.177783  -0.024429
     6  C    0.026355  -0.000033  -0.000878  -0.004658  -0.024429  -0.060831
     7  O    0.000529  -0.000488  -0.014236  -0.092626  -0.009535   0.000632
     8  H    0.000053  -0.000004  -0.000011  -0.000023  -0.000156   0.000259
     9  O    0.000160   0.000371  -0.026698   0.001229  -0.000288   0.000039
    10  H   -0.000406   0.000039   0.001668   0.007074   0.001780  -0.000440
    11  H   -0.000105  -0.000055  -0.001470   0.002336  -0.000043   0.000062
    12  H    0.000072   0.000360  -0.002623   0.010068  -0.002423   0.000490
    13  C   -0.005919   0.001936  -0.000154  -0.000094   0.000020  -0.000422
    14  H   -0.004922   0.000220   0.000091   0.000089   0.000047  -0.000285
    15  H   -0.006387   0.000191   0.000135  -0.000040   0.000082  -0.000390
    16  H   -0.000346  -0.000049  -0.000006   0.000008   0.000013   0.000194
    17  H   -0.000118  -0.000154   0.000143  -0.000000  -0.000010  -0.000023
    18  C   -0.000068   0.000022  -0.000400   0.000342  -0.008331   0.002588
    19  H    0.000088  -0.000001  -0.000020  -0.000374  -0.004566   0.000563
    20  H    0.000038   0.000000  -0.000014  -0.000099  -0.000972   0.000109
    21  H    0.000004   0.000001   0.000052  -0.000805  -0.000634  -0.000206
               7          8          9         10         11         12
     1  C    0.000529   0.000053   0.000160  -0.000406  -0.000105   0.000072
     2  C   -0.000488  -0.000004   0.000371   0.000039  -0.000055   0.000360
     3  C   -0.014236  -0.000011  -0.026698   0.001668  -0.001470  -0.002623
     4  C   -0.092626  -0.000023   0.001229   0.007074   0.002336   0.010068
     5  C   -0.009535  -0.000156  -0.000288   0.001780  -0.000043  -0.002423
     6  C    0.000632   0.000259   0.000039  -0.000440   0.000062   0.000490
     7  O    0.688437   0.000023   0.002700  -0.003308  -0.003860  -0.010793
     8  H    0.000023   0.001868   0.000000  -0.000015  -0.000001  -0.000016
     9  O    0.002700   0.000000   0.054131  -0.000583   0.002992   0.000800
    10  H   -0.003308  -0.000015  -0.000583  -0.015627   0.000338   0.000635
    11  H   -0.003860  -0.000001   0.002992   0.000338  -0.002080  -0.000011
    12  H   -0.010793  -0.000016   0.000800   0.000635  -0.000011   0.020618
    13  C   -0.000001   0.000023  -0.000001   0.000005  -0.000001   0.000004
    14  H    0.000001   0.000058  -0.000000  -0.000003  -0.000001  -0.000005
    15  H   -0.000005  -0.000079  -0.000005   0.000016   0.000002   0.000004
    16  H    0.000000  -0.000010   0.000000  -0.000001  -0.000000  -0.000000
    17  H    0.000020   0.000001   0.000003  -0.000016  -0.000000  -0.000006
    18  C    0.000422   0.000159   0.000001  -0.000088  -0.000023   0.000381
    19  H   -0.000150  -0.000075   0.000002   0.000030   0.000005   0.000386
    20  H    0.000119   0.000036  -0.000000  -0.000048  -0.000002  -0.000082
    21  H    0.000198   0.000032  -0.000005  -0.000098   0.000028  -0.000548
              13         14         15         16         17         18
     1  C   -0.005919  -0.004922  -0.006387  -0.000346  -0.000118  -0.000068
     2  C    0.001936   0.000220   0.000191  -0.000049  -0.000154   0.000022
     3  C   -0.000154   0.000091   0.000135  -0.000006   0.000143  -0.000400
     4  C   -0.000094   0.000089  -0.000040   0.000008  -0.000000   0.000342
     5  C    0.000020   0.000047   0.000082   0.000013  -0.000010  -0.008331
     6  C   -0.000422  -0.000285  -0.000390   0.000194  -0.000023   0.002588
     7  O   -0.000001   0.000001  -0.000005   0.000000   0.000020   0.000422
     8  H    0.000023   0.000058  -0.000079  -0.000010   0.000001   0.000159
     9  O   -0.000001  -0.000000  -0.000005   0.000000   0.000003   0.000001
    10  H    0.000005  -0.000003   0.000016  -0.000001  -0.000016  -0.000088
    11  H   -0.000001  -0.000001   0.000002  -0.000000  -0.000000  -0.000023
    12  H    0.000004  -0.000005   0.000004  -0.000000  -0.000006   0.000381
    13  C   -0.019167   0.001510   0.003359   0.000696   0.000110   0.000004
    14  H    0.001510   0.018643  -0.005188   0.000247   0.000024  -0.000002
    15  H    0.003359  -0.005188   0.020392  -0.000542  -0.000079   0.000000
    16  H    0.000696   0.000247  -0.000542   0.000303   0.000002   0.000000
    17  H    0.000110   0.000024  -0.000079   0.000002   0.004297  -0.000001
    18  C    0.000004  -0.000002   0.000000   0.000000  -0.000001  -0.012006
    19  H    0.000002  -0.000002   0.000001  -0.000001  -0.000000   0.004457
    20  H   -0.000003   0.000002  -0.000002   0.000001   0.000000   0.000427
    21  H   -0.000001   0.000000  -0.000001   0.000000   0.000000   0.001763
              19         20         21
     1  C    0.000088   0.000038   0.000004
     2  C   -0.000001   0.000000   0.000001
     3  C   -0.000020  -0.000014   0.000052
     4  C   -0.000374  -0.000099  -0.000805
     5  C   -0.004566  -0.000972  -0.000634
     6  C    0.000563   0.000109  -0.000206
     7  O   -0.000150   0.000119   0.000198
     8  H   -0.000075   0.000036   0.000032
     9  O    0.000002  -0.000000  -0.000005
    10  H    0.000030  -0.000048  -0.000098
    11  H    0.000005  -0.000002   0.000028
    12  H    0.000386  -0.000082  -0.000548
    13  C    0.000002  -0.000003  -0.000001
    14  H   -0.000002   0.000002   0.000000
    15  H    0.000001  -0.000002  -0.000001
    16  H   -0.000001   0.000001   0.000000
    17  H   -0.000000   0.000000   0.000000
    18  C    0.004457   0.000427   0.001763
    19  H    0.008708  -0.001199  -0.001492
    20  H   -0.001199   0.002209   0.000923
    21  H   -0.001492   0.000923   0.001510
 Mulliken charges and spin densities:
               1          2
     1  C   -0.104840   0.218299
     2  C   -0.077470  -0.101970
     3  C    0.221857   0.173378
     4  C   -0.125323   0.001957
     5  C   -0.089223   0.161441
     6  C   -0.041950  -0.061305
     7  O   -0.472552   0.558080
     8  H    0.082696   0.002123
     9  O   -0.354037   0.034848
    10  H    0.242056  -0.009048
    11  H    0.254921  -0.001888
    12  H    0.148770   0.017311
    13  C   -0.258961  -0.018094
    14  H    0.128576   0.010524
    15  H    0.128847   0.011464
    16  H    0.109133   0.000512
    17  H    0.098143   0.004195
    18  C   -0.263915  -0.010351
    19  H    0.129413   0.006360
    20  H    0.113852   0.001443
    21  H    0.130004   0.000722
 Sum of Mulliken charges =  -0.00000   1.00000
 Mulliken charges and spin densities with hydrogens summed into heavy atoms:
               1          2
     1  C   -0.104840   0.218299
     2  C    0.020673  -0.097774
     3  C    0.221857   0.173378
     4  C    0.023447   0.019268
     5  C   -0.089223   0.161441
     6  C    0.040746  -0.059182
     7  O   -0.230496   0.549031
     9  O   -0.099116   0.032960
    13  C    0.107596   0.004405
    18  C    0.109355  -0.001826
 APT charges:
               1
     1  C    0.046505
     2  C   -0.532353
     3  C   -0.068958
     4  C   -0.535436
     5  C   -0.024059
     6  C   -0.512290
     7  O   -0.570181
     8  H    0.497224
     9  O   -0.247530
    10  H    0.293313
    11  H    0.458770
    12  H    0.519585
    13  C   -1.291635
    14  H    0.489544
    15  H    0.435917
    16  H    0.449868
    17  H    0.516909
    18  C   -1.147615
    19  H    0.433864
    20  H    0.421692
    21  H    0.366867
 Sum of APT charges =  -0.00000
 APT charges with hydrogens summed into heavy atoms:
               1
     1  C    0.046505
     2  C   -0.015444
     3  C   -0.068958
     4  C   -0.015852
     5  C   -0.024059
     6  C   -0.015066
     7  O   -0.276868
     9  O    0.211239
    13  C    0.083694
    18  C    0.074808
 Electronic spatial extent (au):  <R**2>=           1581.1242
 Charge=             -0.0000 electrons
 Dipole moment (field-independent basis, Debye):
    X=             -2.5008    Y=              1.5330    Z=              0.2212  Tot=              2.9416
 Quadrupole moment (field-independent basis, Debye-Ang):
   XX=            -60.3625   YY=            -60.0643   ZZ=            -59.9865
   XY=              1.5947   XZ=             -2.8338   YZ=             -1.8693
 Traceless Quadrupole moment (field-independent basis, Debye-Ang):
   XX=             -0.2247   YY=              0.0734   ZZ=              0.1513
   XY=              1.5947   XZ=             -2.8338   YZ=             -1.8693
 Octapole moment (field-independent basis, Debye-Ang**2):
  XXX=            -10.1819  YYY=              6.6634  ZZZ=              9.9589  XYY=             -0.2096
  XXY=             -7.5278  XXZ=             -6.4724  XZZ=              8.4744  YZZ=             -2.7437
  YYZ=              4.9069  XYZ=             -3.5717
 Hexadecapole moment (field-independent basis, Debye-Ang**3):
 XXXX=          -1110.7632 YYYY=           -833.0994 ZZZZ=           -141.9855 XXXY=            -23.3420
 XXXZ=            -24.8226 YYYX=             -3.4100 YYYZ=             -6.5892 ZZZX=             15.4903
 ZZZY=             -4.8155 XXYY=           -299.7011 XXZZ=           -209.2633 YYZZ=           -165.4614
 XXYZ=             -0.2533 YYXZ=              5.3996 ZZXY=             -1.4663
 N-N= 5.215658725852D+02 E-N=-2.121533901416D+03  KE= 4.602664886416D+02
  Exact polarizability:   0.000   0.000   0.000   0.000   0.000   0.000
 Approx polarizability: 228.224  -7.149 172.256  11.042   2.670 107.569
                          Isotropic Fermi Contact Couplings
        Atom                 a.u.       MegaHertz       Gauss      10(-4) cm-1
     1  C(13)              0.01477      16.60902       5.92651       5.54017
     2  C(13)             -0.01328     -14.92441      -5.32540      -4.97825
     3  C(13)              0.00993      11.16446       3.98376       3.72406
     4  C(13)              0.02429      27.31164       9.74547       9.11018
     5  C(13)              0.00788       8.85830       3.16086       2.95481
     6  C(13)             -0.01093     -12.28935      -4.38515      -4.09929
     7  O(17)              0.08684     -52.64478     -18.78497     -17.56041
     8  H(1)               0.00049       2.18989       0.78141       0.73047
     9  O(17)              0.00594      -3.59787      -1.28381      -1.20012
    10  H(1)              -0.00841     -37.58706     -13.41200     -12.53769
    11  H(1)               0.00126       5.63573       2.01097       1.87988
    12  H(1)               0.01086      48.53166      17.31730      16.18842
    13  C(13)             -0.00707      -7.94265      -2.83414      -2.64938
    14  H(1)               0.00506      22.62022       8.07146       7.54529
    15  H(1)               0.00572      25.58398       9.12900       8.53390
    16  H(1)               0.00016       0.70608       0.25195       0.23552
    17  H(1)               0.00100       4.45148       1.58840       1.48485
    18  C(13)             -0.00435      -4.89415      -1.74635      -1.63251
    19  H(1)               0.00391      17.49173       6.24149       5.83461
    20  H(1)               0.00076       3.39074       1.20990       1.13103
    21  H(1)               0.00106       4.73669       1.69017       1.57999
 --------------------------------------------------------
       Center         ----  Spin Dipole Couplings  ----
                      3XX-RR        3YY-RR        3ZZ-RR
 --------------------------------------------------------
     1   Atom       -0.107050     -0.125571      0.232621
     2   Atom        0.048752      0.041568     -0.090320
     3   Atom       -0.103179     -0.109216      0.212394
     4   Atom        0.025472     -0.031620      0.006148
     5   Atom       -0.089286     -0.088372      0.177658
     6   Atom        0.021628      0.019009     -0.040637
     7   Atom        0.764073     -0.865683      0.101610
     8   Atom        0.000215      0.003305     -0.003520
     9   Atom       -0.095682     -0.100481      0.196163
    10   Atom        0.012340     -0.072988      0.060647
    11   Atom       -0.000050      0.006102     -0.006052
    12   Atom       -0.005814     -0.008360      0.014174
    13   Atom        0.003115     -0.005102      0.001987
    14   Atom        0.003333     -0.001466     -0.001867
    15   Atom        0.002548     -0.001518     -0.001029
    16   Atom        0.003694     -0.001806     -0.001888
    17   Atom        0.005153     -0.001264     -0.003890
    18   Atom       -0.004301      0.003269      0.001032
    19   Atom       -0.002548      0.003544     -0.000996
    20   Atom       -0.001822      0.004241     -0.002419
    21   Atom       -0.001694      0.005422     -0.003729
 --------------------------------------------------------
                        XY            XZ            YZ
 --------------------------------------------------------
     1   Atom       -0.005952      0.066825     -0.038514
     2   Atom        0.000442     -0.016507      0.008244
     3   Atom        0.004539      0.055837      0.021829
     4   Atom       -0.008498      0.061948     -0.010190
     5   Atom       -0.002781      0.044255     -0.003850
     6   Atom        0.002918     -0.015524      0.003154
     7   Atom       -0.768092      1.571964     -0.615911
     8   Atom        0.000224     -0.000335      0.000060
     9   Atom        0.003672     -0.053431     -0.005104
    10   Atom       -0.009993     -0.063101     -0.009059
    11   Atom        0.003587      0.005126      0.011752
    12   Atom       -0.000101     -0.007586     -0.005647
    13   Atom        0.001204      0.000608     -0.000869
    14   Atom        0.002039      0.001007      0.000744
    15   Atom        0.001818     -0.002071     -0.001409
    16   Atom       -0.001919     -0.000866      0.000371
    17   Atom       -0.001293     -0.000693      0.000879
    18   Atom       -0.001415      0.002557     -0.002841
    19   Atom        0.000440      0.000189     -0.002690
    20   Atom       -0.001472      0.000295      0.000698
    21   Atom        0.001728      0.000607     -0.001490
 --------------------------------------------------------


 ---------------------------------------------------------------------------------
              Anisotropic Spin Dipole Couplings in Principal Axis System
 ---------------------------------------------------------------------------------

       Atom             a.u.   MegaHertz   Gauss  10(-4) cm-1        Axes

              Baa    -0.1298   -17.417    -6.215    -5.810 -0.1088  0.9862  0.1249
     1 C(13)  Bbb    -0.1195   -16.042    -5.724    -5.351  0.9767  0.1295 -0.1712
              Bcc     0.2493    33.459    11.939    11.161  0.1850 -0.1033  0.9773
 
              Baa    -0.0928   -12.447    -4.441    -4.152  0.1158 -0.0612  0.9914
     2 C(13)  Bbb     0.0420     5.642     2.013     1.882  0.0666  0.9963  0.0537
              Bcc     0.0507     6.805     2.428     2.270  0.9910 -0.0598 -0.1195
 
              Baa    -0.1130   -15.167    -5.412    -5.059  0.9380 -0.3171 -0.1397
     3 C(13)  Bbb    -0.1104   -14.821    -5.288    -4.944  0.3025  0.9460 -0.1163
              Bcc     0.2235    29.988    10.701    10.003  0.1690  0.0668  0.9833
 
              Baa    -0.0472    -6.338    -2.262    -2.114 -0.6304  0.1535  0.7609
     4 C(13)  Bbb    -0.0328    -4.403    -1.571    -1.469  0.1880  0.9813 -0.0422
              Bcc     0.0800    10.741     3.833     3.583  0.7532 -0.1164  0.6475
 
              Baa    -0.0970   -13.012    -4.643    -4.340  0.9583  0.2425 -0.1510
     5 C(13)  Bbb    -0.0879   -11.796    -4.209    -3.935 -0.2370  0.9700  0.0536
              Bcc     0.1849    24.808     8.852     8.275  0.1595 -0.0155  0.9871
 
              Baa    -0.0445    -5.973    -2.131    -1.992  0.2306 -0.0588  0.9713
     6 C(13)  Bbb     0.0186     2.491     0.889     0.831 -0.2791  0.9522  0.1239
              Bcc     0.0259     3.482     1.242     1.161  0.9322  0.2997 -0.2031
 
              Baa    -1.1768    85.155    30.386    28.405  0.6574  0.4908 -0.5718
     7 O(17)  Bbb    -1.1647    84.277    30.072    28.112 -0.1276  0.8204  0.5574
              Bcc     2.3415  -169.432   -60.458   -56.517  0.7427 -0.2935  0.6019
 
              Baa    -0.0036    -1.894    -0.676    -0.632  0.0892 -0.0116  0.9959
     8 H(1)   Bbb     0.0002     0.122     0.044     0.041  0.9935 -0.0705 -0.0898
              Bcc     0.0033     1.772     0.632     0.591  0.0713  0.9974  0.0052
 
              Baa    -0.1064     7.701     2.748     2.569  0.8937 -0.4226  0.1507
     9 O(17)  Bbb    -0.0993     7.186     2.564     2.397  0.4132  0.9061  0.0904
              Bcc     0.2057   -14.887    -5.312    -4.966 -0.1747 -0.0185  0.9844
 
              Baa    -0.0769   -41.033   -14.641   -13.687  0.2253  0.9600  0.1666
    10 H(1)   Bbb    -0.0272   -14.498    -5.173    -4.836  0.7931 -0.2800  0.5410
              Bcc     0.1041    55.531    19.815    18.523 -0.5659 -0.0102  0.8244
 
              Baa    -0.0137    -7.316    -2.611    -2.440 -0.1978 -0.4733  0.8584
    11 H(1)   Bbb    -0.0017    -0.905    -0.323    -0.302  0.9150 -0.4034 -0.0116
              Bcc     0.0154     8.222     2.934     2.742  0.3517  0.7831  0.5128
 
              Baa    -0.0108    -5.784    -2.064    -1.929  0.5217  0.7845  0.3353
    12 H(1)   Bbb    -0.0070    -3.720    -1.328    -1.241  0.7991 -0.5870  0.1299
              Bcc     0.0178     9.505     3.392     3.170 -0.2987 -0.2002  0.9331
 
              Baa    -0.0054    -0.724    -0.258    -0.242 -0.1478  0.9807  0.1276
    13 C(13)  Bbb     0.0019     0.261     0.093     0.087 -0.3114 -0.1686  0.9352
              Bcc     0.0035     0.464     0.165     0.155  0.9387  0.0985  0.3304
 
              Baa    -0.0025    -1.338    -0.477    -0.446 -0.1544  0.7563 -0.6357
    14 H(1)   Bbb    -0.0018    -0.965    -0.345    -0.322 -0.3661  0.5538  0.7478
              Bcc     0.0043     2.303     0.822     0.768  0.9177  0.3482  0.1914
 
              Baa    -0.0027    -1.443    -0.515    -0.481 -0.0223  0.7787  0.6270
    15 H(1)   Bbb    -0.0017    -0.881    -0.314    -0.294  0.5482 -0.5150  0.6590
              Bcc     0.0044     2.324     0.829     0.775  0.8361  0.3584 -0.4154
 
              Baa    -0.0024    -1.297    -0.463    -0.433  0.2628  0.9389 -0.2221
    16 H(1)   Bbb    -0.0020    -1.070    -0.382    -0.357  0.2040  0.1709  0.9639
              Bcc     0.0044     2.367     0.845     0.790  0.9430 -0.2987 -0.1467
 
              Baa    -0.0042    -2.223    -0.793    -0.742  0.0331 -0.2762  0.9605
    17 H(1)   Bbb    -0.0013    -0.702    -0.250    -0.234  0.2161  0.9403  0.2630
              Bcc     0.0055     2.925     1.044     0.976  0.9758 -0.1989 -0.0908
 
              Baa    -0.0053    -0.716    -0.256    -0.239  0.9327  0.0349 -0.3589
    18 C(13)  Bbb    -0.0006    -0.074    -0.026    -0.025  0.2562  0.6362  0.7278
              Bcc     0.0059     0.790     0.282     0.264 -0.2537  0.7707 -0.5844
 
              Baa    -0.0028    -1.491    -0.532    -0.497  0.8375 -0.2617 -0.4797
    19 H(1)   Bbb    -0.0020    -1.075    -0.383    -0.358  0.5447  0.3300  0.7709
              Bcc     0.0048     2.565     0.915     0.856  0.0435  0.9070 -0.4190
 
              Baa    -0.0028    -1.486    -0.530    -0.496 -0.5479 -0.1955  0.8134
    20 H(1)   Bbb    -0.0018    -0.986    -0.352    -0.329  0.8077  0.1294  0.5752
              Bcc     0.0046     2.472     0.882     0.825 -0.2177  0.9721  0.0870
 
              Baa    -0.0043    -2.289    -0.817    -0.763 -0.3487  0.2024  0.9151
    21 H(1)   Bbb    -0.0017    -0.912    -0.326    -0.304  0.9141 -0.1421  0.3798
              Bcc     0.0060     3.201     1.142     1.068  0.2069  0.9689 -0.1354
 

 ---------------------------------------------------------------------------------

 Calling FoFJK, ICntrl=    100147 FMM=F ISym2X=0 I1Cent= 0 IOpClX= 1 NMat=1 NMatS=1 NMatT=0.
 ***** Axes restored to original set *****
 -------------------------------------------------------------------
 Center     Atomic                   Forces (Hartrees/Bohr)
 Number     Number              X              Y              Z
 -------------------------------------------------------------------
      1        6           0.000272443    0.003891723   -0.000245348
      2        6          -0.008833735   -0.022673031   -0.005027434
      3        6           0.003353839    0.009537066    0.001559412
      4        6           0.003655051    0.003901381    0.000887023
      5        6          -0.010032330   -0.021073539   -0.001886739
      6        6           0.002935379    0.006588250    0.001004837
      7        8          -0.000275407   -0.001377923    0.000185357
      8        1          -0.000178793   -0.000341486    0.000392976
      9        8           0.001944178   -0.000649946    0.000207197
     10        1           0.000015888    0.000223574    0.000007162
     11        1           0.000219349    0.000357085   -0.000529905
     12        1          -0.000107438   -0.000039433   -0.000319020
     13        6           0.001268409    0.001401469    0.000513852
     14        1          -0.000486427   -0.000156522   -0.000380608
     15        1          -0.000596334   -0.000307598   -0.000057731
     16        1           0.000561486    0.000024898    0.000054974
     17        1           0.001474015    0.008947437    0.002289917
     18        6           0.012988488    0.030782704    0.006685292
     19        1          -0.000128118   -0.006410864   -0.015398829
     20        1           0.005816316   -0.011849697    0.006601541
     21        1          -0.013866257   -0.000775549    0.003456075
 -------------------------------------------------------------------
 Cartesian Forces:  Max     0.030782704 RMS     0.007269758
 FormGI is forming the generalized inverse of G from B-inverse, IUseBI=4.

 GradGradGradGradGradGradGradGradGradGradGradGradGradGradGradGradGradGrad
 Berny optimization.
 Internal  Forces:  Max     0.016495997 RMS     0.003398571
 Search for a saddle point.
 Step number   1 out of a maximum of  121
 All quantities printed in internal units (Hartrees-Bohrs-Radians)
 Swapping is turned off.
 Second derivative matrix not updated -- analytic derivatives used.
 ITU=  0
     Eigenvalues ---   -0.01079  -0.00024   0.00018   0.00318   0.00494
     Eigenvalues ---    0.00671   0.01205   0.01425   0.01642   0.01711
     Eigenvalues ---    0.01971   0.02127   0.02214   0.02610   0.02693
     Eigenvalues ---    0.03183   0.04681   0.05630   0.05679   0.05811
     Eigenvalues ---    0.05819   0.05946   0.07497   0.10099   0.11174
     Eigenvalues ---    0.11980   0.12207   0.12608   0.13771   0.14201
     Eigenvalues ---    0.14539   0.14613   0.17792   0.18164   0.18849
     Eigenvalues ---    0.20218   0.20389   0.26358   0.27791   0.30018
     Eigenvalues ---    0.32563   0.32730   0.33516   0.34393   0.35567
     Eigenvalues ---    0.36122   0.37515   0.38009   0.38238   0.38823
     Eigenvalues ---    0.38919   0.39987   0.42307   0.42931   0.43405
     Eigenvalues ---    0.49802   0.50993
 Eigenvectors required to have negative eigenvalues:
                          R9        D24       D32       D31       D21
   1                   -0.76143   0.26205  -0.22714  -0.22244   0.22218
                          A15       R15       A11       A26       A13
   1                    0.21303   0.16034   0.13600  -0.12533  -0.10624
 RFO step:  Lambda0=4.540743902D-05 Lambda=-4.92478469D-03.
 Linear search not attempted -- option 19 set.
 Iteration  1 RMS(Cart)=  0.06773532 RMS(Int)=  0.02559628
 Iteration  2 RMS(Cart)=  0.03417734 RMS(Int)=  0.00169165
 Iteration  3 RMS(Cart)=  0.00174906 RMS(Int)=  0.00014130
 Iteration  4 RMS(Cart)=  0.00000343 RMS(Int)=  0.00014128
 Iteration  5 RMS(Cart)=  0.00000000 RMS(Int)=  0.00014128
 Variable       Old X    -DE/DX   Delta X   Delta X   Delta X     New X
                                 (Linear)    (Quad)   (Total)
    R1        2.66161  -0.00616   0.00000  -0.01815  -0.01810   2.64351
    R2        2.66795  -0.00114   0.00000  -0.00469  -0.00467   2.66327
    R3        2.84642   0.00080   0.00000   0.00137   0.00137   2.84779
    R4        2.64004  -0.00884   0.00000  -0.01956  -0.01952   2.62052
    R5        2.02201   0.00887   0.00000   0.02483   0.02483   2.04684
    R6        2.69774  -0.00000   0.00000  -0.00533  -0.00536   2.69238
    R7        2.55605  -0.00205   0.00000  -0.00593  -0.00596   2.55010
    R8        2.66952   0.00388   0.00000   0.01011   0.01006   2.67958
    R9        3.87264  -0.00026   0.00000   0.06264   0.06267   3.93531
   R10        2.04190   0.00026   0.00000   0.00106   0.00106   2.04296
   R11        2.60564   0.00483   0.00000   0.01441   0.01436   2.62000
   R12        2.91018  -0.01274   0.00000  -0.06779  -0.06779   2.84239
   R13        2.04950   0.00022   0.00000   0.00162   0.00162   2.05112
   R14        1.83079  -0.00000   0.00000   0.00039   0.00039   1.83118
   R15        3.74705   0.00106   0.00000   0.04859   0.04859   3.79564
   R16        1.85115   0.00025   0.00000  -0.00166  -0.00167   1.84948
   R17        2.06887  -0.00005   0.00000  -0.00367  -0.00367   2.06520
   R18        2.07022  -0.00030   0.00000   0.00128   0.00128   2.07150
   R19        2.06131   0.00020   0.00000   0.00098   0.00098   2.06229
   R20        2.02201   0.01650   0.00000   0.04530   0.04530   2.06731
   R21        2.02201   0.01451   0.00000   0.03884   0.03884   2.06084
   R22        2.02201   0.01423   0.00000   0.03814   0.03814   2.06015
    A1        2.09810  -0.00207   0.00000  -0.01283  -0.01283   2.08527
    A2        2.09824  -0.00125   0.00000  -0.00439  -0.00455   2.09368
    A3        2.08653   0.00331   0.00000   0.01655   0.01636   2.10289
    A4        2.06177   0.00680   0.00000   0.02952   0.02947   2.09124
    A5        2.11071  -0.00106   0.00000   0.00527   0.00499   2.11570
    A6        2.11071  -0.00574   0.00000  -0.03480  -0.03505   2.07566
    A7        2.12856  -0.00278   0.00000  -0.02203  -0.02192   2.10664
    A8        2.10353   0.00087   0.00000   0.00447   0.00445   2.10798
    A9        2.04930   0.00191   0.00000   0.01796   0.01785   2.06716
   A10        2.06630   0.00174   0.00000   0.01768   0.01759   2.08389
   A11        1.62985  -0.00046   0.00000  -0.00471  -0.00469   1.62516
   A12        2.06742  -0.00085   0.00000   0.00117   0.00097   2.06839
   A13        2.01367  -0.00060   0.00000  -0.00710  -0.00703   2.00664
   A14        2.08377  -0.00072   0.00000  -0.00676  -0.00708   2.07669
   A15        1.39904   0.00023   0.00000  -0.02196  -0.02201   1.37703
   A16        2.09119  -0.00445   0.00000  -0.02050  -0.02056   2.07063
   A17        2.08195   0.00035   0.00000  -0.00193  -0.00191   2.08004
   A18        2.10978   0.00410   0.00000   0.02230   0.02231   2.13210
   A19        2.11874   0.00075   0.00000   0.00778   0.00779   2.12653
   A20        2.07231  -0.00010   0.00000   0.00137   0.00135   2.07366
   A21        2.09141  -0.00065   0.00000  -0.00883  -0.00885   2.08256
   A22        1.72944   0.00001   0.00000  -0.00700  -0.00709   1.72234
   A23        1.23613  -0.00000   0.00000  -0.01099  -0.01100   1.22513
   A24        1.91393  -0.00023   0.00000  -0.01386  -0.01390   1.90003
   A25        1.80147  -0.00081   0.00000   0.00412   0.00404   1.80551
   A26        2.25220   0.00002   0.00000  -0.00343  -0.00343   2.24876
   A27        1.94388  -0.00084   0.00000  -0.00131  -0.00133   1.94255
   A28        1.94541  -0.00076   0.00000  -0.01226  -0.01227   1.93314
   A29        1.94109   0.00101   0.00000   0.00571   0.00569   1.94678
   A30        1.86045   0.00074   0.00000   0.00763   0.00762   1.86806
   A31        1.88677  -0.00007   0.00000   0.00699   0.00697   1.89374
   A32        1.88284  -0.00006   0.00000  -0.00636  -0.00637   1.87647
   A33        1.91063   0.00260   0.00000   0.02726   0.02696   1.93760
   A34        1.91063   0.00282   0.00000   0.03268   0.03227   1.94290
   A35        1.91063   0.00118   0.00000   0.01610   0.01581   1.92644
   A36        1.91063  -0.00281   0.00000  -0.03197  -0.03238   1.87826
   A37        1.91063  -0.00205   0.00000  -0.02774  -0.02791   1.88272
   A38        1.91063  -0.00174   0.00000  -0.01633  -0.01671   1.89392
    D1       -0.01817   0.00006   0.00000   0.00278   0.00293  -0.01524
    D2        3.12343  -0.00095   0.00000  -0.03386  -0.03412   3.08930
    D3       -3.13242   0.00024   0.00000   0.03097   0.03085  -3.10157
    D4        0.00917  -0.00077   0.00000  -0.00568  -0.00620   0.00297
    D5        0.05375   0.00013   0.00000  -0.00122  -0.00135   0.05240
    D6       -3.12877   0.00027   0.00000   0.00782   0.00778  -3.12099
    D7       -3.11500  -0.00012   0.00000  -0.02954  -0.02975   3.13844
    D8       -0.01433   0.00002   0.00000  -0.02051  -0.02062  -0.03496
    D9       -1.00868  -0.00006   0.00000   0.29374   0.29364  -0.71505
   D10        1.06672  -0.00018   0.00000   0.29436   0.29426   1.36098
   D11       -3.11456  -0.00008   0.00000   0.28183   0.28172  -2.83283
   D12        2.16007   0.00020   0.00000   0.32220   0.32230   2.48237
   D13       -2.04771   0.00008   0.00000   0.32282   0.32292  -1.72479
   D14        0.05419   0.00018   0.00000   0.31029   0.31039   0.36458
   D15       -0.03177  -0.00028   0.00000  -0.00947  -0.00942  -0.04119
   D16        3.04394  -0.00028   0.00000  -0.00148  -0.00145   3.04249
   D17        3.10982   0.00073   0.00000   0.02718   0.02678   3.13660
   D18       -0.09765   0.00073   0.00000   0.03517   0.03475  -0.06290
   D19        0.04705   0.00033   0.00000   0.01509   0.01502   0.06206
   D20        2.16461  -0.00001   0.00000   0.01043   0.01036   2.17497
   D21       -2.71119   0.00003   0.00000  -0.01714  -0.01727  -2.72847
   D22       -3.03062   0.00036   0.00000   0.00776   0.00767  -3.02295
   D23       -0.91305   0.00002   0.00000   0.00310   0.00301  -0.91004
   D24        0.49433   0.00006   0.00000  -0.02446  -0.02462   0.46971
   D25       -2.51538  -0.00007   0.00000  -0.01401  -0.01422  -2.52960
   D26        0.56324  -0.00024   0.00000  -0.00783  -0.00788   0.55536
   D27       -0.01153  -0.00023   0.00000  -0.01401  -0.01400  -0.02553
   D28       -3.12888  -0.00018   0.00000  -0.00780  -0.00788  -3.13676
   D29       -1.91927  -0.00038   0.00000  -0.01473  -0.01462  -1.93389
   D30        1.24656  -0.00033   0.00000  -0.00852  -0.00850   1.23806
   D31        2.74305   0.00005   0.00000   0.02037   0.02028   2.76333
   D32       -0.37430   0.00010   0.00000   0.02658   0.02640  -0.34790
   D33       -1.25961  -0.00072   0.00000   0.00723   0.00726  -1.25235
   D34        0.62123  -0.00097   0.00000  -0.00588  -0.00580   0.61543
   D35        0.89980   0.00080   0.00000   0.02234   0.02228   0.92208
   D36        2.78064   0.00055   0.00000   0.00923   0.00922   2.78985
   D37        2.95876   0.00007   0.00000   0.00469   0.00465   2.96342
   D38       -1.44358  -0.00018   0.00000  -0.00843  -0.00841  -1.45199
   D39       -0.03791  -0.00003   0.00000   0.00686   0.00683  -0.03109
   D40       -3.13814  -0.00018   0.00000  -0.00251  -0.00259  -3.14072
   D41        3.07904  -0.00014   0.00000   0.00019   0.00015   3.07919
   D42       -0.02118  -0.00029   0.00000  -0.00918  -0.00926  -0.03045
   D43        1.55522  -0.00041   0.00000  -0.07523  -0.07536   1.47986
   D44       -2.63357  -0.00054   0.00000  -0.07768  -0.07771  -2.71128
   D45       -0.53917  -0.00022   0.00000  -0.06781  -0.06777  -0.60694
   D46       -1.56186  -0.00024   0.00000  -0.06834  -0.06839  -1.63025
   D47        0.53253  -0.00036   0.00000  -0.07079  -0.07074   0.46179
   D48        2.62693  -0.00004   0.00000  -0.06092  -0.06080   2.56613
   D49       -0.62292   0.00002   0.00000  -0.00799  -0.00798  -0.63090
   D50        1.00127   0.00011   0.00000  -0.01494  -0.01483   0.98644
   D51        0.21425   0.00033   0.00000   0.01903   0.01898   0.23323
         Item               Value     Threshold  Converged?
 Maximum Force            0.016496     0.000450     NO 
 RMS     Force            0.003399     0.000300     NO 
 Maximum Displacement     0.486023     0.001800     NO 
 RMS     Displacement     0.097882     0.001200     NO 
 Predicted change in Energy=-2.683175D-03
 GradGradGradGradGradGradGradGradGradGradGradGradGradGradGradGradGradGrad

                          Input orientation:                          
 ---------------------------------------------------------------------
 Center     Atomic      Atomic             Coordinates (Angstroms)
 Number     Number       Type             X           Y           Z
 ---------------------------------------------------------------------
      1          6           0        1.413887   -0.507407    0.003425
      2          6           0        0.655608    0.659436   -0.139278
      3          6           0       -0.705640    0.571021   -0.388638
      4          6           0       -1.334520   -0.697032   -0.551300
      5          6           0       -0.570877   -1.879634   -0.381148
      6          6           0        0.779575   -1.762464   -0.089978
      7          8           0       -2.727490   -0.326126    0.951619
      8          1           0        1.374807   -2.660496    0.041705
      9          8           0       -1.475901    1.678691   -0.416724
     10          1           0       -2.136990   -0.389655    1.717300
     11          1           0       -2.325914    1.374476   -0.038848
     12          1           0       -2.259791   -0.746490   -1.108234
     13          6           0        2.883135   -0.415417    0.325689
     14          1           0        3.363452    0.388736   -0.237311
     15          1           0        3.034753   -0.197692    1.389288
     16          1           0        3.401138   -1.350201    0.104724
     17          1           0        1.104810    1.638400   -0.025069
     18          6           0       -1.238322   -3.215617   -0.560208
     19          1           0       -1.252801   -3.508846   -1.614051
     20          1           0       -0.715924   -3.997105   -0.007324
     21          1           0       -2.269958   -3.174509   -0.210162
 ---------------------------------------------------------------------
                    Distance matrix (angstroms):
                    1          2          3          4          5
     1  C    0.000000
     2  C    1.398883   0.000000
     3  C    2.410210   1.386720   0.000000
     4  C    2.810235   2.443435   1.424748   0.000000
     5  C    2.443398   2.830131   2.454369   1.417973   0.000000
     6  C    1.409342   2.425571   2.782123   2.411920   1.386444
     7  O    4.252404   3.688732   2.586318   2.082476   2.973321
     8  H    2.153785   3.401757   3.867319   3.398132   2.138747
     9  O    3.647797   2.378904   1.349453   2.383728   3.671785
[...]
 0236800,0.00627397,0.00060974,0.00034511,0.00024461,-0.00034582,0.0004
 6905,-0.00037506,0.00091653,0.00183752,-0.00100848,-0.00447463,0.00015
 281,-0.00337054,0.00097752,-0.00156660,0.00092448,-0.00088220,-0.00068
 006,-0.00020605,-0.23499696,-0.00028538,-0.31781116,-0.00004912,0.0000
 6017,-0.00014488,0.00081971,-0.00045321,0.00074222,0.23796020,0.000281
 48,0.32317533,-0.00127764,0.00310124,-0.00080804,0.00461586,0.00190858
 ,0.00121410,-0.04444730,0.01460281,0.00661408,0.00008816,-0.00534169,0
 .00231972,0.00056835,-0.00099494,-0.00034540,-0.00148339,-0.00197679,-
 0.00020157,-0.00349902,0.00079410,-0.00347876,-0.00002096,-0.00002798,
 0.00003508,-0.35046744,-0.09430676,0.13088123,-0.00037149,0.00251765,-
 0.00125146,0.39590110,0.00081605,0.00386037,0.00091538,0.00462971,-0.0
 0577466,0.00052755,0.03922699,0.01306208,-0.01254009,0.00082894,-0.004
 59857,0.00067324,0.00207127,-0.00150818,0.00077749,-0.00225534,-0.0021
 7800,-0.00065548,0.00140467,0.00329339,-0.00627057,-0.00016836,0.00002
 041,-0.00007986,-0.12575176,-0.08781436,0.05436450,-0.00067542,0.00182
 181,-0.00030513,0.08001832,0.08101350,-0.00201957,-0.00049437,0.000471
 69,-0.00102391,0.00227080,0.00206346,-0.00288127,-0.00444446,0.0016935
 9,0.00258397,0.00140822,-0.00069213,-0.00084363,0.00210944,-0.00125748
 ,0.00137805,0.00070253,0.00046169,-0.00284346,-0.00783086,0.00078743,-
 0.00004947,0.00004057,0.00008515,0.14016933,0.04071619,-0.06688297,0.0
 0031383,0.00164525,-0.00092375,-0.13460939,-0.03527848,0.06457025,-0.0
 0050654,-0.00017055,0.00036897,0.00219062,-0.00292525,-0.00116025,-0.0
 1294699,-0.00193188,-0.00667084,-0.25053867,-0.01850711,-0.14240242,-0
 .01391465,0.00048722,-0.00694764,0.00231419,0.00325990,-0.00196493,-0.
 00360562,0.00275332,0.01142896,-0.00054892,-0.00006903,-0.00019743,0.0
 0075551,0.00170086,0.00243645,0.00010012,0.00006396,0.00110481,0.00060
 242,0.00039262,-0.00061908,0.27561975,0.00014174,-0.00146403,0.0001341
 4,-0.00160326,-0.00464904,-0.00019510,-0.02361984,0.00161892,-0.014732
 71,-0.01736138,-0.05777193,-0.00873884,0.02274953,0.00566404,0.0135741
 6,0.00241910,-0.00423856,0.00066929,0.00102926,0.00024354,-0.00284066,
 0.00148076,0.00015288,-0.00025956,0.00032257,0.00256620,0.00161379,0.0
 0005376,-0.00003497,0.00000020,-0.00001428,-0.00094628,-0.00133285,0.0
 1562458,0.05761648,0.00177766,-0.00044857,-0.00035778,-0.00261237,0.00
 046618,0.00201382,0.00337028,0.00709004,0.00326671,-0.15216789,-0.0067
 1445,-0.10210975,-0.00085265,-0.00533219,0.00160833,-0.00201802,0.0006
 5704,0.00299068,0.00685595,-0.00463962,-0.01767894,-0.00029536,-0.0000
 9509,0.00007580,0.00163091,-0.00139271,-0.00202715,0.00143518,-0.00041
 664,-0.00131673,-0.00057124,-0.00178764,0.00016105,0.14287364,0.011975
 79,0.11487639,-0.20221106,-0.00489321,-0.02989913,-0.02201306,0.003092
 65,-0.00689706,0.00178758,0.00143300,-0.00130768,-0.00187087,0.0011579
 2,0.00080075,0.00469695,-0.00156736,0.00038170,-0.02139177,-0.00756441
 ,-0.00536717,0.00053411,-0.00015625,-0.00045823,0.00074192,0.00132261,
 0.00036538,0.00020577,-0.00047847,-0.00001672,-0.00013278,0.00002531,-
 0.00013224,-0.00013067,-0.00017769,0.00016076,0.00017131,0.00003405,-0
 .00021119,0.48145114,-0.01337038,-0.08953329,-0.00164018,0.02725302,0.
 00403112,0.00710584,-0.00012890,-0.00428669,0.00055104,0.00111498,-0.0
 0037418,-0.00014424,-0.00238524,-0.00555508,0.00010144,-0.03063734,0.0
 0239113,-0.00716680,0.00018074,0.00008235,-0.00019770,-0.00050868,0.00
 120661,-0.00023417,0.00133848,0.00030664,0.00004424,0.00004436,-0.0000
 4979,0.00016334,0.00022225,-0.00001005,0.00004456,-0.00012979,0.000117
 47,0.00000688,0.00731691,0.58029317,-0.02881338,0.00038433,-0.07629627
 ,-0.00751848,-0.00045222,0.00607229,-0.00128372,0.00011957,0.00851376,
 -0.00057408,0.00041566,-0.00109491,-0.00009760,0.00059073,0.00388593,-
 0.00328362,-0.00118789,0.00300670,0.00025488,-0.00005671,-0.00012880,0
 .00044064,0.00007303,-0.00161257,-0.00049169,0.00051161,-0.00063917,-0
 .00003360,0.00003577,0.00004861,0.00003061,-0.00003360,-0.00032911,0.0
 0005699,-0.00008199,-0.00017868,-0.01135678,-0.00165401,0.52358412,-0.
 01025420,-0.03208006,0.00099627,0.00169873,-0.00175530,0.00036124,-0.0
 0005874,0.00000543,-0.00004132,0.00013117,0.00006515,0.00008576,0.0001
 5193,-0.00174298,-0.00008149,-0.00614103,0.00159282,-0.00186354,-0.000
 00422,0.00011245,0.00001839,0.00002359,-0.00005119,0.00009181,0.000146
 30,0.00014643,-0.00002754,-0.00001910,-0.00002818,-0.00004126,-0.00003
 506,-0.00009255,0.00007418,0.00001929,0.00008554,-0.00001471,-0.074626
 66,-0.07678475,0.00083431,0.08258185,0.00077535,-0.00083553,-0.0000064
 1,0.00182719,0.00074050,0.00022390,0.00003974,0.00019553,-0.00007214,-
 0.00005502,0.00014076,0.00001330,0.00050631,-0.00006163,0.00019051,-0.
 00061299,0.00063551,-0.00003282,-0.00001215,0.00005600,0.00001520,0.00
 016875,0.00035430,-0.00000094,-0.00014450,0.00015386,-0.00003285,-0.00
 000111,-0.00001870,-0.00004923,0.00000150,-0.00005295,0.00003549,-0.00
 001263,0.00005113,-0.00001458,-0.08143746,-0.28746931,0.00306492,0.086
 98594,0.31076191,-0.00223902,-0.00758400,-0.00165766,0.00039999,-0.000
 32542,-0.00005514,0.00000758,-0.00003380,-0.00020691,0.00002290,-0.000
 01419,0.00002008,-0.00019251,-0.00034172,0.00048368,-0.00169007,0.0004
 0511,0.00123087,-0.00001057,0.00000170,-0.00000299,0.00006451,-0.00003
 153,-0.00027759,0.00004366,0.00000399,-0.00004899,0.00000579,0.0000116
 0,0.00000223,-0.00000343,-0.00001367,0.00001927,-0.00000451,0.00002395
 ,0.00000341,0.00139893,0.00420725,-0.04697037,0.00055904,-0.00407466,0
 .04577312,-0.00899698,0.01371567,-0.03000282,-0.00253319,-0.00194291,-
 0.00032817,-0.00066803,0.00044125,0.00147236,-0.00008857,0.00000798,-0
 .00029387,-0.00042842,0.00040502,0.00045547,0.00095030,0.00104588,0.00
 103705,-0.00018171,0.00004345,0.00025355,0.00025571,-0.00055182,-0.000
 32421,-0.00035070,0.00007427,-0.00009832,-0.00004675,0.00002774,-0.000
 08585,-0.00004411,-0.00005786,-0.00010199,0.00000023,-0.00003685,0.000
 03138,-0.05104621,0.01548074,-0.04266396,0.00117065,-0.00292295,0.0097
 3775,0.05889143,0.00225519,0.00034329,-0.00211166,0.00105567,0.0001165
 7,0.00004458,-0.00022929,-0.00016446,-0.00049803,-0.00043430,0.0005576
 2,0.00014322,0.00133134,-0.00012642,0.00008454,-0.00205567,-0.00037078
 ,-0.00033259,0.00006021,0.00000549,-0.00006947,-0.00009052,-0.00017617
 ,0.00018697,0.00028430,-0.00012303,-0.00000833,-0.00002512,0.00002262,
 -0.00003422,-0.00006067,-0.00011062,0.00010458,0.00000968,0.00001554,0
 .00006577,0.01411130,-0.08379365,0.08998225,0.00573620,-0.01057352,0.0
 2836701,-0.01840985,0.08717286,-0.00264484,0.00161506,-0.00369460,-0.0
 0017698,-0.00096507,-0.00042449,0.00009428,0.00004297,0.00011304,0.000
 27878,-0.00025315,-0.00016532,-0.00071253,-0.00000965,0.00009903,0.000
 42431,0.00099220,0.00138259,-0.00019639,0.00002535,0.00020129,-0.00003
 172,-0.00046865,-0.00041085,-0.00013168,-0.00001779,0.00005445,0.00001
 488,0.00001051,-0.00003747,0.00001630,-0.00000085,-0.00003010,0.000013
 30,-0.00002407,-0.00000167,-0.04074866,0.09070058,-0.25635699,0.000962
 76,-0.00033070,0.00094441,0.04600284,-0.09993445,0.27895229,-0.0201637
 0,0.01743008,0.01959628,-0.00306984,-0.00180221,-0.00084450,0.00023287
 ,0.00061174,-0.00140218,0.00009077,-0.00017876,0.00011804,-0.00019551,
 0.00021520,-0.00091045,0.00158370,0.00114062,-0.00104244,-0.00033829,0
 .00007685,0.00028834,0.00002171,-0.00069413,0.00061444,-0.00023621,-0.
 00007489,0.00003195,0.00001846,0.00000634,-0.00010743,-0.00004248,-0.0
 0006811,0.00005403,0.00000989,-0.00004751,0.00005083,-0.11725829,0.070
 95029,0.09314508,0.00581512,-0.00481058,-0.00793992,0.00293088,-0.0034
 2743,-0.00321153,0.13067078,0.00108174,0.00092868,0.00315582,0.0006354
 3,0.00006376,0.00007110,-0.00015707,-0.00004399,0.00021724,-0.00043644
 ,0.00049684,0.00006721,0.00124793,-0.00013980,0.00050939,-0.00219089,-
 0.00032760,-0.00035693,0.00007324,0.00001944,-0.00003475,0.00010415,-0
 .00012613,-0.00031928,0.00026128,-0.00006639,-0.00002151,-0.00005221,0
 .00000273,-0.00004187,-0.00005174,-0.00011505,0.00006704,0.00014077,0.
 00002966,-0.00013433,0.06937078,-0.11783118,-0.09149817,0.01665325,-0.
 01471890,-0.02072586,-0.00742260,0.00696513,0.00870107,-0.07933939,0.1
 2447831,-0.00573275,0.00570668,0.00655614,-0.00080337,0.00011308,-0.00
 073304,-0.00026981,0.00018862,-0.00069448,-0.00017700,0.00017114,0.000
 03684,0.00038557,0.00013438,0.00006274,-0.00021181,-0.00032530,0.00081
 724,0.00004993,0.00000300,-0.00003143,0.00028321,0.00021085,-0.0001504
 2,-0.00000492,-0.00005295,0.00009567,-0.00002086,-0.00000988,-0.000016
 53,-0.00004175,0.00000065,0.00002539,0.00002535,0.00003113,-0.00003345
 ,0.09194713,-0.09148824,-0.15711008,-0.00186267,0.00108091,0.00062592,
 0.01563171,-0.01644827,-0.02052192,-0.09910735,0.10063784,0.17080872,0
 .00969037,0.01472800,0.00217981,-0.10521622,-0.10439260,-0.01604824,-0
 .00734272,-0.03068183,-0.00189569,-0.00528959,0.00123669,-0.00302507,-
 0.00093027,0.00053583,0.00014082,-0.00108100,0.00340045,-0.00188325,0.
 00030490,0.00016527,-0.00016366,0.00057707,0.00081522,-0.00015342,0.00
 269750,0.00075282,0.00101444,-0.00000992,-0.00003301,-0.00004590,-0.00
 000122,0.00002557,0.00041208,-0.00048723,-0.00141621,-0.00009690,0.001
 15709,0.00141387,0.00113488,-0.00013906,-0.00021939,-0.00012429,0.0000
 9129,-0.00014875,0.00005440,-0.00007026,0.00004793,-0.00010829,0.10590
 074,-0.01231984,-0.01853385,-0.00261362,-0.10559285,-0.28551039,-0.023
 74595,0.00109046,-0.00048443,0.00018146,0.00009871,0.00110629,0.000120
 04,0.00052755,0.00024068,0.00005324,0.00376191,-0.00170176,0.00094173,
 0.00006331,0.00013329,-0.00002481,-0.00062396,-0.00097974,-0.00005399,
 -0.00011478,0.00100649,0.00007653,-0.00003066,-0.00003699,-0.00005415,
 -0.00008603,-0.00005120,-0.00002690,0.00003300,0.00004038,0.00011272,-
 0.00182208,0.00062498,-0.00021902,0.00113142,0.00060674,0.00013267,0.0
 0011922,0.00020625,-0.00005563,0.00003354,0.00034059,0.00002543,0.1138
 1926,0.30293228,0.00129538,0.00532626,0.00194309,-0.01318812,-0.025182
 59,-0.03523926,-0.00528109,-0.00674734,0.00242467,-0.00127685,0.000932
 66,0.00530953,0.00091094,-0.00034347,-0.00072420,-0.00267684,0.0005162
 8,0.00586243,-0.00055752,-0.00006565,0.00018621,-0.00003236,0.00023348
 ,0.00055903,0.00105765,0.00002180,-0.00378298,0.00003971,0.00005212,-0
 .00002055,0.00012722,-0.00027789,-0.00009155,-0.00011040,0.00025187,0.
 00007438,0.00121980,0.00000243,-0.00418216,0.00001336,0.00002883,0.000
 35408,-0.00061668,0.00045569,-0.00007172,0.00055476,-0.00034896,0.0002
 1684,0.01844553,0.02518469,0.02778312,-0.00245322,0.00358573,-0.003253
 68,0.00040228,-0.00115201,0.00029594,-0.00339203,0.00364538,-0.0014744
 9,0.01251421,0.01252941,0.00202082,-0.10906316,-0.04519568,-0.00974068
 ,-0.01586433,-0.03169570,-0.00496990,-0.00001761,-0.00016233,0.0001523
 8,0.00059158,-0.00117496,0.00154247,0.00071285,0.00169568,0.00055931,0
 .00006490,0.00010204,0.00003989,0.00009601,-0.00015144,-0.00025136,0.0
 0028597,0.00037789,0.00064099,-0.00008348,-0.00110239,0.00021181,-0.00
 037542,-0.00004624,-0.00000889,0.00009591,0.00000904,-0.00001095,0.000
 00452,0.00000231,0.00002525,0.00010029,-0.00004400,0.00013249,0.547569
 14,0.00171661,0.00117368,0.00061180,-0.00059940,-0.00024654,-0.0000091
 7,0.00400894,-0.00040738,0.00094959,-0.00945908,-0.03256474,-0.0031182
 6,-0.05170167,-0.18727528,-0.00896245,-0.00750883,-0.00313364,-0.00084
 773,-0.00174417,0.00037190,0.00108772,0.00217532,0.00103553,0.00012785
 ,-0.00065308,-0.00094897,-0.00031342,0.00017973,-0.00035936,-0.0000599
 7,-0.00007236,0.00011976,0.00012218,-0.00124376,0.00123167,-0.00017928
 ,0.00011791,0.00033667,-0.00006988,0.00013496,0.00004125,0.00001711,-0
 .00000952,-0.00000614,0.00002973,0.00001828,-0.00000593,-0.00002186,-0
 .00004056,0.00000784,0.00002165,-0.04806378,0.51162402,-0.00298533,0.0
 0011765,0.00824443,-0.00052550,-0.00002797,-0.00094270,-0.00175028,0.0
 0110155,0.00385733,0.00466422,0.00183391,0.00279710,-0.01146134,-0.003
 95019,-0.07205152,-0.00375881,-0.00702780,0.00631680,-0.00007305,0.000
 69226,0.00045148,0.00125586,-0.00055342,-0.00463166,-0.00009700,0.0009
 5604,0.00020172,-0.00010862,-0.00003741,0.00006761,0.00012380,0.000063
 20,-0.00015604,0.00095415,0.00022095,-0.00076601,0.00014198,-0.0003562
 1,-0.00031298,-0.00003560,-0.00002631,-0.00024931,-0.00010345,-0.00000
 647,-0.00003075,0.00011526,0.00004837,0.00005597,0.00014217,-0.0000114
 2,-0.00055040,0.00534143,-0.01041860,0.53006647,-0.00073371,-0.0000802
 0,0.00113902,0.00014875,-0.00000507,-0.00000754,-0.00056572,-0.0001610
 2,0.00036132,-0.00022339,0.00164534,0.00056337,-0.00861647,-0.00482254
 ,-0.01426195,0.00005349,-0.00222215,0.00018902,0.00032575,0.00007943,-
 0.00035815,0.00029956,-0.00007057,-0.00069666,0.00010003,-0.00006673,0
 .00001205,-0.00009073,-0.00007570,0.00000699,-0.00001833,0.00000362,0.
 00001218,0.00052107,0.00007167,-0.00033067,0.00001254,-0.00016997,-0.0
 0004842,-0.00005715,-0.00002353,-0.00003997,-0.00001403,0.00001006,0.0
 0000093,-0.00000495,0.00001738,-0.00000106,0.00004099,-0.00003808,-0.0
 0017465,-0.07060537,-0.00915750,-0.08071849,0.07676071,-0.00080457,-0.
 00018208,0.00110018,-0.00019868,-0.00010516,-0.00017867,-0.00048435,0.
 00035168,0.00069762,-0.00070388,0.00021176,0.00003089,-0.01196103,-0.0
 0497884,-0.02782888,0.00062241,-0.00230804,0.00017909,0.00022942,0.000
 15722,0.00003287,-0.00011363,0.00003584,-0.00040232,0.00022477,0.00000
 683,0.00012176,-0.00006340,-0.00001379,0.00012275,-0.00004528,0.000008
 30,-0.00011866,0.00068810,-0.00027801,0.00013322,0.00006002,-0.0002488
 8,0.00001189,-0.00005478,-0.00001972,-0.00006192,-0.00001149,0.0000196
 2,-0.00001818,0.00001804,0.00003580,0.00001621,0.00004381,0.00000228,-
 0.00002369,-0.01008382,-0.05109608,-0.03370065,0.01522790,0.05469102,0
 .00003675,0.00006816,-0.00003568,0.00021524,0.00001099,0.00001085,-0.0
 0032421,-0.00017043,0.00029670,-0.00095088,0.00084488,0.00096506,-0.00
 104195,-0.00170330,0.00082710,0.00081467,-0.00036191,-0.00016787,0.000
 32864,-0.00027282,-0.00012292,0.00011947,0.00000946,-0.00002447,0.0001
 8849,-0.00021349,0.00005382,-0.00000711,0.00015277,0.00003821,-0.00005
 882,-0.00001031,-0.00004189,0.00040824,-0.00038734,-0.00026295,0.00001
 042,-0.00004315,0.00004314,-0.00001849,-0.00001520,0.00000498,0.000010
 94,0.00000911,0.00000358,-0.00000907,0.00000864,-0.00000015,0.00003562
 ,-0.00002324,-0.00010675,-0.08033688,-0.03168312,-0.26837942,0.0887531
 1,0.03624921,0.29224479,0.00022311,-0.00009456,0.00016915,-0.00001258,
 0.00003312,0.00001234,0.00062320,-0.00072923,0.00001483,-0.00132668,-0
 .00244496,-0.00072764,0.01008431,-0.01263268,0.00453640,0.00093786,-0.
 00105935,0.00037479,0.00001740,0.00039419,0.00005225,0.00016455,0.0002
 0086,-0.00014139,-0.00011094,-0.00015673,-0.00005828,0.00002370,-0.000
 05159,-0.00001451,-0.00002163,-0.00001255,0.00004111,-0.00004504,-0.00
 023722,0.00022194,0.00000424,0.00007556,-0.00001031,0.00003603,0.00001
 415,0.00000937,0.00000886,-0.00000181,0.00000645,-0.00000076,-0.000002
 02,0.00000071,0.00001203,0.00002926,-0.00001450,-0.15347501,0.12549776
 ,-0.03863681,-0.00683993,0.00674679,-0.00130786,0.16425396,-0.00013255
 ,0.00003250,-0.00011706,-0.00018623,0.00015521,-0.00000778,0.00156185,
 -0.00032451,0.00034519,-0.00388280,-0.00448067,-0.00104974,0.01957984,
 -0.02156164,0.00681811,0.00225978,0.00160718,0.00039122,-0.00017346,0.
 00013924,0.00008192,-0.00124676,0.00045766,-0.00022822,-0.00020268,-0.
 00077162,-0.00018782,0.00001554,-0.00002774,0.00009910,-0.00009526,0.0
 0014445,0.00008317,-0.00014249,0.00018132,0.00006914,-0.00000690,0.000
 06400,-0.00001191,0.00001614,0.00001775,0.00000341,-0.00004412,-0.0000
 2251,-0.00003698,-0.00005636,-0.00001832,0.00001853,-0.00009186,0.0000
 3511,-0.00000257,0.12114660,-0.19313078,0.04474829,-0.00361962,0.00403
 409,-0.00033155,-0.13340491,0.21205904,0.00012813,-0.00003545,-0.00024
 010,0.00002510,0.00004479,-0.00000775,-0.00000383,-0.00013978,0.000513
 00,-0.00063565,-0.00026874,0.00103110,0.00193680,-0.00274515,-0.001037
 38,0.00021190,-0.00041217,-0.00004645,-0.00004079,-0.00022075,0.000057
 78,0.00011025,0.00004879,0.00030152,0.00005322,-0.00006394,-0.00011300
 ,0.00000377,0.00004069,0.00002590,-0.00000164,-0.00002206,-0.00001053,
 0.00031369,-0.00017295,-0.00011479,-0.00000726,0.00002390,0.00001090,0
 .00000735,0.00000017,-0.00000277,-0.00001270,-0.00000225,-0.00000735,0
 .00001772,-0.00000196,-0.00000492,0.00000739,0.00000161,0.00001932,-0.
 03814019,0.04612299,-0.06089700,-0.01893818,0.02308717,-0.00579481,0.0
 4323368,-0.04927318,0.06074745,-0.00019941,-0.00010266,-0.00105721,0.0
 0031411,-0.00004045,0.00016710,-0.00052473,-0.00054092,-0.00063536,-0.
 00017813,0.00224607,-0.00004814,-0.01356931,-0.00433294,0.00717307,0.0
 0016851,-0.00214633,0.00032358,0.00033268,0.00039257,-0.00059543,0.000
 06106,-0.00005939,0.00065282,0.00006986,-0.00000916,-0.00001863,-0.000
 05857,-0.00031775,-0.00000803,-0.00001117,-0.00000669,0.00004362,0.000
 00329,-0.00005391,0.00028223,0.00000220,-0.00017379,0.00006645,-0.0000
 6403,-0.00002037,0.00000364,0.00000345,0.00002041,-0.00000394,0.000001
 56,0.00001616,-0.00000720,-0.00000477,-0.00003535,0.00013217,-0.207108
 05,-0.00359579,0.12751540,0.00950690,0.00066365,-0.00686633,-0.0145566
 7,-0.00129376,0.01173123,0.22581120,-0.00039083,-0.00006413,-0.0013929
 2,-0.00003616,-0.00037130,0.00020985,-0.00058171,-0.00005339,-0.000448
 89,-0.00037632,0.00014135,-0.00030670,-0.02522376,-0.00226185,0.018057
 01,0.00028896,-0.00283174,-0.00004672,-0.00012906,0.00159752,-0.000250
 40,-0.00027818,0.00011304,0.00036472,0.00025472,0.00009682,-0.00003351
 ,0.00005264,-0.00025181,-0.00000169,-0.00009265,-0.00018412,0.00017659
 ,-0.00002152,-0.00014641,0.00057831,0.00006137,-0.00030204,0.00007564,
 -0.00007595,-0.00000497,0.00003299,0.00004875,0.00004229,-0.00000230,-
 0.00000160,0.00003235,0.00000806,0.00003948,0.00001516,-0.00003561,-0.
 00422173,-0.04676748,0.00633425,0.00345728,-0.00032384,-0.00213737,0.0
 1783590,0.00141024,-0.01601173,0.00939037,0.05011430,-0.00009902,-0.00
 027245,-0.00055636,-0.00013314,0.00001780,-0.00002598,0.00005191,0.000
 02299,-0.00011029,0.00045523,0.00021893,0.00076182,-0.00434126,-0.0000
 6812,0.00326530,-0.00053817,-0.00058588,-0.00045525,-0.00043548,0.0001
 3694,-0.00020114,-0.00003300,-0.00005093,0.00028502,-0.00004353,0.0000
 5653,-0.00003584,-0.00005717,-0.00023898,-0.00003799,0.00000935,-0.000
 04639,0.00007659,0.00009297,0.00027082,-0.00022267,-0.00002473,-0.0000
 2679,0.00004664,-0.00001785,0.00000263,0.00000969,-0.00000104,0.000002
 01,0.00000252,-0.00001187,-0.00000010,-0.00000504,-0.00002244,-0.00000
 139,0.00003688,0.12722425,0.00659310,-0.14309112,0.02453776,0.00055010
 ,-0.01955132,-0.00776171,-0.00141125,0.00556989,-0.13885107,-0.0051695
 9,0.15423866\\0.00000002,-0.00000600,0.00000379,-0.00000048,0.00000183
 ,0.00000054,0.00000058,0.00000009,0.00000112,0.00000401,-0.00000265,-0
 .00000309,-0.00000220,0.00000588,-0.00000370,0.00000234,0.00000165,0.0
 0000041,-0.00000226,0.00000094,0.00000265,-0.00000030,0.00000005,-0.00
 000089,0.00000143,0.00000008,0.00000063,0.00000006,-0.00000070,0.00000
 025,0.00000048,-0.00000005,0.00000217,0.00000088,0.00000121,0.00000099
 ,-0.00000271,-0.00000409,0.00000067,0.00000012,0.00000114,0.00000039,-
 0.00000124,0.00000044,-0.00000075,0.00000160,0.00000024,-0.00000098,0.
 00000069,0.00000046,0.00000250,-0.00000109,-0.00000278,-0.00000189,-0.
 00000042,0.00000151,-0.00000150,-0.00000013,0.00000035,-0.00000186,-0.
 00000139,0.00000040,-0.00000145\\\@


 CLIMB THE MOUNTAINS AND GET THEIR GOOD TIDINGS.
 NATURE'S PEACE WILL FLOW INTO YOU AS SUNSHINE FLOWS INTO TREES.
 THE WINDS WILL BLOW THEIR OWN FRESHNESS INTO YOU, 
 AND CARES WILL DROP OFF LIKE AUTUMN LEAVES.

                                         -- JOHN MUIR
 Job cpu time:       0 days  0 hours 53 minutes 28.4 seconds.
 File lengths (MBytes):  RWF=    352 Int=      0 D2E=      0 Chk=      8 Scr=      2
 Normal termination of Gaussian 09 at Fri Sep  9 22:21:04 2022.
