 Entering Gaussian System, Link 0=/public1/home/scg3027/software-scg3027/g16/g16
 Input=SR-12-ts-SR-13.gjf
 Output=SR-12-ts-SR-13.log
 Initial command:
 /public1/home/scg3027/software-scg3027/g16/l1.exe "/public1/home/scg3027/software-scg3027/test/tmp/Gau-149174.inp" -scrdir="/public1/home/scg3027/software-scg3027/test/tmp/"
 Entering Link 1 = /public1/home/scg3027/software-scg3027/g16/l1.exe PID=    149175.
  
 Copyright (c) 1988-2019, Gaussian, Inc.  All Rights Reserved.
  
 This is part of the Gaussian(R) 16 program.  It is based on
 the Gaussian(R) 09 system (copyright 2009, Gaussian, Inc.),
 the Gaussian(R) 03 system (copyright 2003, Gaussian, Inc.),
 the Gaussian(R) 98 system (copyright 1998, Gaussian, Inc.),
 the Gaussian(R) 94 system (copyright 1995, Gaussian, Inc.),
 the Gaussian 92(TM) system (copyright 1992, Gaussian, Inc.),
 the Gaussian 90(TM) system (copyright 1990, Gaussian, Inc.),
 the Gaussian 88(TM) system (copyright 1988, Gaussian, Inc.),
 the Gaussian 86(TM) system (copyright 1986, Carnegie Mellon
 University), and the Gaussian 82(TM) system (copyright 1983,
 Carnegie Mellon University). Gaussian is a federally registered
 trademark of Gaussian, Inc.
  
 This software contains proprietary and confidential information,
 including trade secrets, belonging to Gaussian, Inc.
  
 This software is provided under written license and may be
 used, copied, transmitted, or stored only in accord with that
 written license.
  
 The following legend is applicable only to US Government
 contracts under FAR:
  
                    RESTRICTED RIGHTS LEGEND
  
 Use, reproduction and disclosure by the US Government is
 subject to restrictions as set forth in subparagraphs (a)
 and (c) of the Commercial Computer Software - Restricted
 Rights clause in FAR 52.227-19.
  
 Gaussian, Inc.
 340 Quinnipiac St., Bldg. 40, Wallingford CT 06492
  
  
 ---------------------------------------------------------------
 Warning -- This program may not be used in any manner that
 competes with the business of Gaussian, Inc. or will provide
 assistance to any competitor of Gaussian, Inc.  The licensee
 of this program is prohibited from giving any competitor of
 Gaussian, Inc. access to this program.  By using this program,
 the user acknowledges that Gaussian, Inc. is engaged in the
 business of creating and licensing software in the field of
 computational chemistry and represents and warrants to the
 licensee that it is not a competitor of Gaussian, Inc. and that
 it will not use this program in any manner prohibited above.
 ---------------------------------------------------------------
  

 Cite this work as:
 Gaussian 16, Revision C.01,
 M. J. Frisch, G. W. Trucks, H. B. Schlegel, G. E. Scuseria, 
 M. A. Robb, J. R. Cheeseman, G. Scalmani, V. Barone, 
 G. A. Petersson, H. Nakatsuji, X. Li, M. Caricato, A. V. Marenich, 
 J. Bloino, B. G. Janesko, R. Gomperts, B. Mennucci, H. P. Hratchian, 
 J. V. Ortiz, A. F. Izmaylov, J. L. Sonnenberg, D. Williams-Young, 
 F. Ding, F. Lipparini, F. Egidi, J. Goings, B. Peng, A. Petrone, 
 T. Henderson, D. Ranasinghe, V. G. Zakrzewski, J. Gao, N. Rega, 
 G. Zheng, W. Liang, M. Hada, M. Ehara, K. Toyota, R. Fukuda, 
 J. Hasegawa, M. Ishida, T. Nakajima, Y. Honda, O. Kitao, H. Nakai, 
 T. Vreven, K. Throssell, J. A. Montgomery, Jr., J. E. Peralta, 
 F. Ogliaro, M. J. Bearpark, J. J. Heyd, E. N. Brothers, K. N. Kudin, 
 V. N. Staroverov, T. A. Keith, R. Kobayashi, J. Normand, 
 K. Raghavachari, A. P. Rendell, J. C. Burant, S. S. Iyengar, 
 J. Tomasi, M. Cossi, J. M. Millam, M. Klene, C. Adamo, R. Cammi, 
 J. W. Ochterski, R. L. Martin, K. Morokuma, O. Farkas, 
 J. B. Foresman, and D. J. Fox, Gaussian, Inc., Wallingford CT, 2019.
 
 ******************************************
 Gaussian 16:  ES64L-G16RevC.01  3-Jul-2019
                 9-Sep-2022 
 ******************************************
 %nprocshared=20
 Will use up to   20 processors via shared memory.
 %mem=58339MB
 %chk=SR-12-ts-SR-13.chk
 ----------------------------------------------------------------------
 # opt=(calcfc,ts,noeigentest) freq ub3lyp/6-311g(d,p) geom=connectivit
 y temperature=823.15
 ----------------------------------------------------------------------
 1/5=1,10=4,11=1,18=20,26=3,38=1,57=2,112=823150/1,3;
 2/9=110,12=2,17=6,18=5,40=1/2;
 3/5=4,6=6,7=101,11=2,25=1,30=1,71=2,74=-5,116=2,140=1/1,2,3;
 4//1;
 5/5=2,38=5/2;
 8/6=4,10=90,11=11/1;
 11/6=1,8=1,9=11,15=111,16=1/1,2,10;
 10/6=1,13=1/2;
 6/7=2,8=2,9=2,10=2,28=1/1;
 7/10=1,25=1/1,2,3,16;
 1/5=1,10=4,11=1,18=20,26=3/3(2);
 2/9=110/2;
 99//99;
 2/9=110/2;
 3/5=4,6=6,7=101,11=2,25=1,30=1,71=1,74=-5,116=2/1,2,3;
 4/5=5,16=3,69=1/1;
 5/5=2,38=5/2;
 7//1,2,3,16;
 1/5=1,11=1,18=20,26=3/3(-5);
 2/9=110/2;
 6/7=2,8=2,9=2,10=2,19=2,28=1/1;
 99/9=1/99;
 -------------------
 Title Card Required
 -------------------
 Symbolic Z-matrix:
 Charge =  0 Multiplicity = 2
 C                     1.67041   1.15903   0.00147 
 C                     0.40276   1.71181  -0.04373 
 C                    -0.74457   0.89585  -0.0105 
 C                    -0.53207  -0.51111  -0.02488 
 C                     0.75158  -1.05349  -0.02205 
 C                     1.87314  -0.23368   0.01366 
 H                     0.84571  -2.13291  -0.05565 
 O                    -1.59376  -1.35213  -0.23629 
 O                    -1.95977   1.42107  -0.01342 
 H                     0.25502   2.78446  -0.06457 
 C                    -2.83113  -0.87975   0.17894 
 H                    -2.93509  -0.82707   1.26718 
 H                    -2.68756   0.44296  -0.0425 
 H                    -3.62119  -1.42342  -0.33002 
 H                     2.85906  -0.64792   0.04927 
 C                     2.89133   2.09722   0.02871 
 H                     2.90012   2.69697  -0.85736 
 H                     2.83442   2.73177   0.88836 
 H                     3.78777   1.51477   0.07406 
 
 Add virtual bond connecting atoms H13        and O9         Dist= 2.30D+00.
 Add virtual bond connecting atoms H13        and C11        Dist= 2.55D+00.

 GradGradGradGradGradGradGradGradGradGradGradGradGradGradGradGradGradGrad
 Berny optimization.
 Initialization pass.
                           ----------------------------
                           !    Initial Parameters    !
                           ! (Angstroms and Degrees)  !
 --------------------------                            --------------------------
 ! Name  Definition              Value          Derivative Info.                !
 --------------------------------------------------------------------------------
 ! R1    R(1,2)                  1.3837         calculate D2E/DX2 analytically  !
 ! R2    R(1,6)                  1.4074         calculate D2E/DX2 analytically  !
 ! R3    R(1,16)                 1.54           calculate D2E/DX2 analytically  !
 ! R4    R(2,3)                  1.4083         calculate D2E/DX2 analytically  !
 ! R5    R(2,10)                 1.083          calculate D2E/DX2 analytically  !
 ! R6    R(3,4)                  1.423          calculate D2E/DX2 analytically  !
 ! R7    R(3,9)                  1.3238         calculate D2E/DX2 analytically  !
 ! R8    R(4,5)                  1.3935         calculate D2E/DX2 analytically  !
 ! R9    R(4,8)                  1.3708         calculate D2E/DX2 analytically  !
 ! R10   R(5,6)                  1.3897         calculate D2E/DX2 analytically  !
 ! R11   R(5,7)                  1.084          calculate D2E/DX2 analytically  !
 ! R12   R(6,15)                 1.07           calculate D2E/DX2 analytically  !
 ! R13   R(8,11)                 1.388          calculate D2E/DX2 analytically  !
 ! R14   R(9,13)                 1.2195         calculate D2E/DX2 analytically  !
 ! R15   R(11,12)                1.0945         calculate D2E/DX2 analytically  !
 ! R16   R(11,13)                1.3488         calculate D2E/DX2 analytically  !
 ! R17   R(11,14)                1.0857         calculate D2E/DX2 analytically  !
 ! R18   R(16,17)                1.07           calculate D2E/DX2 analytically  !
 ! R19   R(16,18)                1.07           calculate D2E/DX2 analytically  !
 ! R20   R(16,19)                1.07           calculate D2E/DX2 analytically  !
 ! A1    A(2,1,6)              121.8412         calculate D2E/DX2 analytically  !
 ! A2    A(2,1,16)             118.9159         calculate D2E/DX2 analytically  !
 ! A3    A(6,1,16)             119.2413         calculate D2E/DX2 analytically  !
 ! A4    A(1,2,3)              120.9405         calculate D2E/DX2 analytically  !
 ! A5    A(1,2,10)             121.4194         calculate D2E/DX2 analytically  !
 ! A6    A(3,2,10)             117.5932         calculate D2E/DX2 analytically  !
 ! A7    A(2,3,4)              116.8057         calculate D2E/DX2 analytically  !
 ! A8    A(2,3,9)              121.1927         calculate D2E/DX2 analytically  !
 ! A9    A(4,3,9)              121.9601         calculate D2E/DX2 analytically  !
 ! A10   A(3,4,5)              121.4912         calculate D2E/DX2 analytically  !
 ! A11   A(3,4,8)              119.5046         calculate D2E/DX2 analytically  !
 ! A12   A(5,4,8)              118.3555         calculate D2E/DX2 analytically  !
 ! A13   A(4,5,6)              120.9214         calculate D2E/DX2 analytically  !
 ! A14   A(4,5,7)              117.8706         calculate D2E/DX2 analytically  !
 ! A15   A(6,5,7)              121.2066         calculate D2E/DX2 analytically  !
 ! A16   A(1,6,5)              117.8576         calculate D2E/DX2 analytically  !
 ! A17   A(1,6,15)             121.0712         calculate D2E/DX2 analytically  !
 ! A18   A(5,6,15)             121.0712         calculate D2E/DX2 analytically  !
 ! A19   A(4,8,11)             115.8165         calculate D2E/DX2 analytically  !
 ! A20   A(3,9,13)             103.2767         calculate D2E/DX2 analytically  !
 ! A21   A(8,11,12)            113.4848         calculate D2E/DX2 analytically  !
 ! A22   A(8,11,13)            100.9378         calculate D2E/DX2 analytically  !
 ! A23   A(8,11,14)            109.758          calculate D2E/DX2 analytically  !
 ! A24   A(12,11,13)            97.2472         calculate D2E/DX2 analytically  !
 ! A25   A(12,11,14)           114.903          calculate D2E/DX2 analytically  !
 ! A26   A(13,11,14)           119.4429         calculate D2E/DX2 analytically  !
 ! A27   A(9,13,11)            147.7958         calculate D2E/DX2 analytically  !
 ! A28   A(1,16,17)            109.4712         calculate D2E/DX2 analytically  !
 ! A29   A(1,16,18)            109.4712         calculate D2E/DX2 analytically  !
 ! A30   A(1,16,19)            109.4712         calculate D2E/DX2 analytically  !
 ! A31   A(17,16,18)           109.4713         calculate D2E/DX2 analytically  !
 ! A32   A(17,16,19)           109.4712         calculate D2E/DX2 analytically  !
 ! A33   A(18,16,19)           109.4712         calculate D2E/DX2 analytically  !
 ! D1    D(6,1,2,3)              3.279          calculate D2E/DX2 analytically  !
 ! D2    D(6,1,2,10)          -179.2727         calculate D2E/DX2 analytically  !
 ! D3    D(16,1,2,3)          -177.1754         calculate D2E/DX2 analytically  !
 ! D4    D(16,1,2,10)            0.2729         calculate D2E/DX2 analytically  !
 ! D5    D(2,1,6,5)              0.0325         calculate D2E/DX2 analytically  !
 ! D6    D(2,1,6,15)          -179.9675         calculate D2E/DX2 analytically  !
 ! D7    D(16,1,6,5)          -179.5117         calculate D2E/DX2 analytically  !
 ! D8    D(16,1,6,15)            0.4883         calculate D2E/DX2 analytically  !
 ! D9    D(2,1,16,17)          -60.6393         calculate D2E/DX2 analytically  !
 ! D10   D(2,1,16,18)           59.3607         calculate D2E/DX2 analytically  !
 ! D11   D(2,1,16,19)          179.3607         calculate D2E/DX2 analytically  !
 ! D12   D(6,1,16,17)          118.9183         calculate D2E/DX2 analytically  !
 ! D13   D(6,1,16,18)         -121.0817         calculate D2E/DX2 analytically  !
 ! D14   D(6,1,16,19)           -1.0817         calculate D2E/DX2 analytically  !
 ! D15   D(1,2,3,4)             -4.3266         calculate D2E/DX2 analytically  !
 ! D16   D(1,2,3,9)            177.9717         calculate D2E/DX2 analytically  !
 ! D17   D(10,2,3,4)           178.1304         calculate D2E/DX2 analytically  !
 ! D18   D(10,2,3,9)             0.4287         calculate D2E/DX2 analytically  !
 ! D19   D(2,3,4,5)              2.2981         calculate D2E/DX2 analytically  !
 ! D20   D(2,3,4,8)           -168.3179         calculate D2E/DX2 analytically  !
 ! D21   D(9,3,4,5)            179.9809         calculate D2E/DX2 analytically  !
 ! D22   D(9,3,4,8)              9.3648         calculate D2E/DX2 analytically  !
 ! D23   D(2,3,9,13)           176.9691         calculate D2E/DX2 analytically  !
 ! D24   D(4,3,9,13)            -0.613          calculate D2E/DX2 analytically  !
 ! D25   D(3,4,5,6)              0.897          calculate D2E/DX2 analytically  !
 ! D26   D(3,4,5,7)           -178.6793         calculate D2E/DX2 analytically  !
 ! D27   D(8,4,5,6)            171.6174         calculate D2E/DX2 analytically  !
 ! D28   D(8,4,5,7)             -7.9589         calculate D2E/DX2 analytically  !
 ! D29   D(3,4,8,11)           -28.7132         calculate D2E/DX2 analytically  !
 ! D30   D(5,4,8,11)           160.3772         calculate D2E/DX2 analytically  !
 ! D31   D(4,5,6,1)             -2.0866         calculate D2E/DX2 analytically  !
 ! D32   D(4,5,6,15)           177.9134         calculate D2E/DX2 analytically  !
 ! D33   D(7,5,6,1)            177.4755         calculate D2E/DX2 analytically  !
 ! D34   D(7,5,6,15)            -2.5245         calculate D2E/DX2 analytically  !
 ! D35   D(4,8,11,12)          -69.9653         calculate D2E/DX2 analytically  !
 ! D36   D(4,8,11,13)           32.9822         calculate D2E/DX2 analytically  !
 ! D37   D(4,8,11,14)          159.9513         calculate D2E/DX2 analytically  !
 ! D38   D(3,9,13,11)           20.4362         calculate D2E/DX2 analytically  !
 ! D39   D(8,11,13,9)          -37.9754         calculate D2E/DX2 analytically  !
 ! D40   D(12,11,13,9)          77.7287         calculate D2E/DX2 analytically  !
 ! D41   D(14,11,13,9)        -158.2702         calculate D2E/DX2 analytically  !
 --------------------------------------------------------------------------------
 Trust Radius=3.00D-01 FncErr=1.00D-07 GrdErr=1.00D-06 EigMax=2.50D+02 EigMin=1.00D-04
 Number of steps in this run=    104 maximum allowed number of steps=    114.
 Search for a saddle point of order  1.
 GradGradGradGradGradGradGradGradGradGradGradGradGradGradGradGradGradGrad

                          Input orientation:                          
 ---------------------------------------------------------------------
 Center     Atomic      Atomic             Coordinates (Angstroms)
 Number     Number       Type             X           Y           Z
 ---------------------------------------------------------------------
      1          6           0        1.670410    1.159026    0.001467
      2          6           0        0.402755    1.711809   -0.043731
      3          6           0       -0.744574    0.895854   -0.010504
      4          6           0       -0.532066   -0.511112   -0.024877
      5          6           0        0.751582   -1.053490   -0.022053
      6          6           0        1.873138   -0.233679    0.013655
      7          1           0        0.845713   -2.132907   -0.055648
      8          8           0       -1.593757   -1.352132   -0.236288
      9          8           0       -1.959766    1.421073   -0.013420
     10          1           0        0.255021    2.784460   -0.064570
     11          6           0       -2.831126   -0.879752    0.178940
     12          1           0       -2.935088   -0.827073    1.267179
     13          1           0       -2.687559    0.442955   -0.042496
     14          1           0       -3.621186   -1.423417   -0.330015
     15          1           0        2.859055   -0.647924    0.049267
     16          6           0        2.891335    2.097216    0.028709
     17          1           0        2.900117    2.696970   -0.857360
     18          1           0        2.834422    2.731771    0.888361
     19          1           0        3.787770    1.514766    0.074055
 ---------------------------------------------------------------------
                    Distance matrix (angstroms):
                    1          2          3          4          5
     1  C    0.000000
     2  C    1.383677   0.000000
     3  C    2.429311   1.408279   0.000000
     4  C    2.764228   2.411560   1.422997   0.000000
     5  C    2.395835   2.787298   2.457348   1.393533   0.000000
     6  C    1.407435   2.439312   2.851113   2.421458   1.389695
     7  H    3.394144   3.870167   3.421176   2.128248   1.084034
     8  O    4.125194   3.662086   2.413614   1.370838   2.373963
     9  O    3.639652   2.380536   1.323841   2.402457   3.670823
    10  H    2.156322   1.082977   2.137509   3.388492   3.870173
    11  C    4.944890   4.150151   2.746337   2.337330   3.592545
    12  H    5.172739   4.393814   3.065828   2.746590   3.912150
    13  H    4.416626   3.340663   1.995327   2.357266   3.750661
    14  H    5.897447   5.109178   3.708908   3.235440   4.399180
    15  H    2.163384   3.407403   3.920838   3.394690   2.147327
    16  C    1.540000   2.519289   3.829444   4.304175   3.808946
    17  H    2.148263   2.805236   4.152704   4.771236   4.402259
    18  H    2.148263   2.796806   4.121621   4.762724   4.415346
    19  H    2.148263   3.392790   4.575188   4.772311   3.977891
                    6          7          8          9         10
     6  C    0.000000
     7  H    2.160433   0.000000
     8  O    3.651407   2.567733   0.000000
     9  O    4.174936   4.528054   2.806118   0.000000
    10  H    3.425432   4.952726   4.534188   2.601292   0.000000
    11  C    4.751298   3.891603   1.388034   2.467806   4.796879
    12  H    5.004246   4.213019   2.082131   2.765022   4.999352
    13  H    4.610959   4.372556   2.110994   1.219526   3.760573
    14  H    5.632156   4.531207   2.030846   3.309331   5.727274
    15  H    1.070000   2.503943   4.517188   5.244589   4.309897
    16  C    2.543624   4.699535   5.664298   4.898175   2.726015
    17  H    3.225221   5.309522   6.080777   5.094959   2.762734
    18  H    3.237757   5.339589   6.127958   5.051275   2.750303
    19  H    2.593555   4.688075   6.105428   5.748965   3.756548
                   11         12         13         14         15
    11  C    0.000000
    12  H    1.094462   0.000000
    13  H    1.348777   1.841057   0.000000
    14  H    1.085726   1.837766   2.106578   0.000000
    15  H    5.696378   5.923470   5.653616   6.537490   0.000000
    16  C    6.452245   6.635697   5.819425   7.411914   2.745406
    17  H    6.834764   7.140179   6.080025   7.731951   3.465829
    18  H    6.756095   6.789412   6.049583   7.773346   3.482387
    19  H    7.039496   7.218350   6.564469   7.980528   2.353796
                   16         17         18         19
    16  C    0.000000
    17  H    1.070000   0.000000
    18  H    1.070000   1.747303   0.000000
    19  H    1.070000   1.747303   1.747303   0.000000
 Stoichiometry    C8H9O2(2)
 Framework group  C1[X(C8H9O2)]
 Deg. of freedom    51
 Full point group                 C1      NOp   1
 Largest Abelian subgroup         C1      NOp   1
 Largest concise Abelian subgroup C1      NOp   1
                         Standard orientation:                         
 ---------------------------------------------------------------------
 Center     Atomic      Atomic             Coordinates (Angstroms)
 Number     Number       Type             X           Y           Z
 ---------------------------------------------------------------------
      1          6           0       -1.900560   -0.048153    0.009572
      2          6           0       -0.968844   -1.068984   -0.056550
      3          6           0        0.411625   -0.792727   -0.021388
      4          6           0        0.791603    0.578563   -0.011394
      5          6           0       -0.159056    1.597198    0.012350
      6          6           0       -1.517411    1.305641    0.045802
      7          1           0        0.195317    2.621555   -0.003209
      8          8           0        2.103554    0.917132   -0.219609
      9          8           0        1.306786   -1.767775   -0.044295
     10          1           0       -1.271643   -2.108027   -0.095823
     11          6           0        3.041474   -0.026422    0.176182
     12          1           0        3.117384   -0.136939    1.262401
     13          1           0        2.370244   -1.171220   -0.064827
     14          1           0        3.983433    0.156976   -0.331638
     15          1           0       -2.248449    2.085267    0.097440
     16          6           0       -3.397954   -0.407086    0.033635
     17          1           0       -3.652689   -0.934684   -0.861714
     18          1           0       -3.602921   -1.025371    0.882524
     19          1           0       -3.978648    0.489408    0.096815
 ---------------------------------------------------------------------
 Rotational constants (GHZ):           3.0494921           0.9629978           0.7416109
 Standard basis: 6-311G(d,p) (5D, 7F)
 There are   244 symmetry adapted cartesian basis functions of A   symmetry.
 There are   234 symmetry adapted basis functions of A   symmetry.
   234 basis functions,   392 primitive gaussians,   244 cartesian basis functions
    37 alpha electrons       36 beta electrons
       nuclear repulsion energy       509.6447112315 Hartrees.
 NAtoms=   19 NActive=   19 NUniq=   19 SFac= 1.00D+00 NAtFMM=   60 NAOKFM=F Big=F
 Integral buffers will be    131072 words long.
 Raffenetti 2 integral format.
 Two-electron integral symmetry is turned on.
 One-electron integrals computed using PRISM.
 NBasis=   234 RedAO= T EigKep=  2.14D-04  NBF=   234
 NBsUse=   234 1.00D-06 EigRej= -1.00D+00 NBFU=   234
 ExpMin= 1.03D-01 ExpMax= 8.59D+03 ExpMxC= 1.30D+03 IAcc=3 IRadAn=         5 AccDes= 0.00D+00
 Harris functional with IExCor=  402 and IRadAn=       5 diagonalized for initial guess.
 HarFok:  IExCor=  402 AccDes= 0.00D+00 IRadAn=         5 IDoV= 1 UseB2=F ITyADJ=14
 ICtDFT=  3500011 ScaDFX=  1.000000  1.000000  1.000000  1.000000
 FoFCou: FMM=F IPFlag=           0 FMFlag=      100000 FMFlg1=           0
         NFxFlg=           0 DoJE=T BraDBF=F KetDBF=T FulRan=T
         wScrn=  0.000000 ICntrl=       500 IOpCl=  0 I1Cent=   200000004 NGrid=           0
         NMat0=    1 NMatS0=      1 NMatT0=    0 NMatD0=    1 NMtDS0=    0 NMtDT0=    0
 Petite list used in FoFCou.
 Initial guess <Sx>= 0.0000 <Sy>= 0.0000 <Sz>= 0.5000 <S**2>= 0.7500 S= 0.5000
 Requested convergence on RMS density matrix=1.00D-08 within 128 cycles.
 Requested convergence on MAX density matrix=1.00D-06.
 Requested convergence on             energy=1.00D-06.
 No special actions if energy rises.
 Integral accuracy reduced to 1.0D-05 until final iterations.
 Initial convergence to 1.0D-05 achieved.  Increase integral accuracy.
 SCF Done:  E(UB3LYP) =  -460.745913718     A.U. after   21 cycles
            NFock= 21  Conv=0.73D-08     -V/T= 2.0036
 <Sx>= 0.0000 <Sy>= 0.0000 <Sz>= 0.5000 <S**2>= 0.7552 S= 0.5026
 <L.S>=  0.00000000000    
 Annihilation of the first spin contaminant:
 S**2 before annihilation     0.7552,   after     0.7500
 DoSCS=F DFT=T ScalE2(SS,OS)=  1.000000  1.000000
 Range of M.O.s used for correlation:     1   234
 NBasis=   234 NAE=    37 NBE=    36 NFC=     0 NFV=     0
 NROrb=    234 NOA=    37 NOB=    36 NVA=   197 NVB=   198

 **** Warning!!: The largest alpha MO coefficient is  0.12847857D+02


 **** Warning!!: The largest beta MO coefficient is  0.13523716D+02


 **** Warning!!: The smallest beta delta epsilon is  0.83370611D-01

 Symmetrizing basis deriv contribution to polar:
 IMax=3 JMax=2 DiffMx= 0.00D+00
 G2DrvN: will do    20 centers at a time, making    1 passes.
 Calling FoFCou, ICntrl=  3107 FMM=F I1Cent=   0 AccDes= 0.00D+00.
 End of G2Drv F.D. properties file   721 does not exist.
 End of G2Drv F.D. properties file   722 does not exist.
 End of G2Drv F.D. properties file   788 does not exist.
          IDoAtm=1111111111111111111
          Differentiating once with respect to nuclear coordinates.
 Keep R1 and R2 ints in memory in canonical form, NReq=777475397.
          There are    60 degrees of freedom in the 1st order CPHF.  IDoFFX=6 NUNeed=     0.
     54 vectors produced by pass  0 Test12= 2.40D-14 1.67D-09 XBig12= 5.40D-01 3.34D-01.
 AX will form    54 AO Fock derivatives at one time.
     54 vectors produced by pass  1 Test12= 2.40D-14 1.67D-09 XBig12= 1.34D-01 5.64D-02.
     54 vectors produced by pass  2 Test12= 2.40D-14 1.67D-09 XBig12= 2.38D-03 7.82D-03.
     54 vectors produced by pass  3 Test12= 2.40D-14 1.67D-09 XBig12= 1.72D-05 7.55D-04.
     54 vectors produced by pass  4 Test12= 2.40D-14 1.67D-09 XBig12= 9.38D-08 4.69D-05.
     54 vectors produced by pass  5 Test12= 2.40D-14 1.67D-09 XBig12= 4.50D-10 2.00D-06.
     42 vectors produced by pass  6 Test12= 2.40D-14 1.67D-09 XBig12= 2.22D-12 1.59D-07.
     10 vectors produced by pass  7 Test12= 2.40D-14 1.67D-09 XBig12= 9.14D-15 8.36D-09.
 InvSVY:  IOpt=1 It=  1 EMax= 9.99D-16
 Solved reduced A of dimension   376 with    60 vectors.
 End of Minotr F.D. properties file   721 does not exist.
 End of Minotr F.D. properties file   722 does not exist.
 End of Minotr F.D. properties file   788 does not exist.

 **********************************************************************

            Population analysis using the SCF Density.

 **********************************************************************

 Orbital symmetries:
 Alpha Orbitals:
       Occupied  (A) (A) (A) (A) (A) (A) (A) (A) (A) (A) (A) (A)
                 (A) (A) (A) (A) (A) (A) (A) (A) (A) (A) (A) (A)
                 (A) (A) (A) (A) (A) (A) (A) (A) (A) (A) (A) (A)
                 (A)
       Virtual   (A) (A) (A) (A) (A) (A) (A) (A) (A) (A) (A) (A)
                 (A) (A) (A) (A) (A) (A) (A) (A) (A) (A) (A) (A)
                 (A) (A) (A) (A) (A) (A) (A) (A) (A) (A) (A) (A)
                 (A) (A) (A) (A) (A) (A) (A) (A) (A) (A) (A) (A)
                 (A) (A) (A) (A) (A) (A) (A) (A) (A) (A) (A) (A)
                 (A) (A) (A) (A) (A) (A) (A) (A) (A) (A) (A) (A)
                 (A) (A) (A) (A) (A) (A) (A) (A) (A) (A) (A) (A)
                 (A) (A) (A) (A) (A) (A) (A) (A) (A) (A) (A) (A)
                 (A) (A) (A) (A) (A) (A) (A) (A) (A) (A) (A) (A)
                 (A) (A) (A) (A) (A) (A) (A) (A) (A) (A) (A) (A)
                 (A) (A) (A) (A) (A) (A) (A) (A) (A) (A) (A) (A)
                 (A) (A) (A) (A) (A) (A) (A) (A) (A) (A) (A) (A)
                 (A) (A) (A) (A) (A) (A) (A) (A) (A) (A) (A) (A)
                 (A) (A) (A) (A) (A) (A) (A) (A) (A) (A) (A) (A)
                 (A) (A) (A) (A) (A) (A) (A) (A) (A) (A) (A) (A)
                 (A) (A) (A) (A) (A) (A) (A) (A) (A) (A) (A) (A)
                 (A) (A) (A) (A) (A)
 Beta  Orbitals:
       Occupied  (A) (A) (A) (A) (A) (A) (A) (A) (A) (A) (A) (A)
                 (A) (A) (A) (A) (A) (A) (A) (A) (A) (A) (A) (A)
                 (A) (A) (A) (A) (A) (A) (A) (A) (A) (A) (A) (A)
       Virtual   (A) (A) (A) (A) (A) (A) (A) (A) (A) (A) (A) (A)
                 (A) (A) (A) (A) (A) (A) (A) (A) (A) (A) (A) (A)
                 (A) (A) (A) (A) (A) (A) (A) (A) (A) (A) (A) (A)
                 (A) (A) (A) (A) (A) (A) (A) (A) (A) (A) (A) (A)
                 (A) (A) (A) (A) (A) (A) (A) (A) (A) (A) (A) (A)
                 (A) (A) (A) (A) (A) (A) (A) (A) (A) (A) (A) (A)
                 (A) (A) (A) (A) (A) (A) (A) (A) (A) (A) (A) (A)
                 (A) (A) (A) (A) (A) (A) (A) (A) (A) (A) (A) (A)
                 (A) (A) (A) (A) (A) (A) (A) (A) (A) (A) (A) (A)
                 (A) (A) (A) (A) (A) (A) (A) (A) (A) (A) (A) (A)
                 (A) (A) (A) (A) (A) (A) (A) (A) (A) (A) (A) (A)
                 (A) (A) (A) (A) (A) (A) (A) (A) (A) (A) (A) (A)
                 (A) (A) (A) (A) (A) (A) (A) (A) (A) (A) (A) (A)
                 (A) (A) (A) (A) (A) (A) (A) (A) (A) (A) (A) (A)
                 (A) (A) (A) (A) (A) (A) (A) (A) (A) (A) (A) (A)
                 (A) (A) (A) (A) (A) (A) (A) (A) (A) (A) (A) (A)
                 (A) (A) (A) (A) (A) (A)
 The electronic state is 2-A.
 Alpha  occ. eigenvalues --  -19.19251 -19.13980 -10.24374 -10.24073 -10.23710
 Alpha  occ. eigenvalues --  -10.18870 -10.18196 -10.17330 -10.17103 -10.16388
 Alpha  occ. eigenvalues --   -1.11189  -1.04452  -0.86255  -0.78497  -0.74682
 Alpha  occ. eigenvalues --   -0.72312  -0.67213  -0.62437  -0.60601  -0.53878
 Alpha  occ. eigenvalues --   -0.52863  -0.49637  -0.48762  -0.45631  -0.44294
 Alpha  occ. eigenvalues --   -0.43772  -0.43160  -0.40816  -0.40523  -0.39216
 Alpha  occ. eigenvalues --   -0.37754  -0.36958  -0.35133  -0.32619  -0.25623
 Alpha  occ. eigenvalues --   -0.23860  -0.21423
 Alpha virt. eigenvalues --   -0.01245   0.00190   0.05002   0.05934   0.06992
 Alpha virt. eigenvalues --    0.09333   0.10014   0.10230   0.11149   0.11517
 Alpha virt. eigenvalues --    0.14275   0.14624   0.16475   0.19672   0.22776
 Alpha virt. eigenvalues --    0.24373   0.26125   0.27002   0.29401   0.30376
 Alpha virt. eigenvalues --    0.30533   0.32434   0.33739   0.35701   0.38338
 Alpha virt. eigenvalues --    0.39277   0.39690   0.40758   0.42797   0.43830
 Alpha virt. eigenvalues --    0.45049   0.46002   0.46911   0.47913   0.49108
 Alpha virt. eigenvalues --    0.50559   0.52017   0.52482   0.53788   0.55531
 Alpha virt. eigenvalues --    0.56497   0.57075   0.59176   0.60133   0.61174
 Alpha virt. eigenvalues --    0.61780   0.62415   0.63087   0.63895   0.66704
 Alpha virt. eigenvalues --    0.68465   0.74546   0.76468   0.76649   0.78052
 Alpha virt. eigenvalues --    0.79118   0.81551   0.84717   0.86663   0.87534
 Alpha virt. eigenvalues --    0.90445   0.92159   0.94739   0.95978   0.96619
 Alpha virt. eigenvalues --    0.98454   1.01268   1.04377   1.05508   1.07835
 Alpha virt. eigenvalues --    1.10445   1.14312   1.19472   1.21240   1.22709
 Alpha virt. eigenvalues --    1.31026   1.32742   1.34924   1.35775   1.37365
 Alpha virt. eigenvalues --    1.39196   1.41607   1.45842   1.46629   1.46793
 Alpha virt. eigenvalues --    1.48701   1.49339   1.49774   1.53987   1.55035
 Alpha virt. eigenvalues --    1.55336   1.56718   1.57439   1.59558   1.59938
 Alpha virt. eigenvalues --    1.61602   1.62759   1.65992   1.67809   1.68215
 Alpha virt. eigenvalues --    1.70566   1.73235   1.77312   1.77966   1.79885
 Alpha virt. eigenvalues --    1.85477   1.85654   1.86638   1.90979   1.91190
 Alpha virt. eigenvalues --    1.93478   1.95017   1.95386   1.98567   2.00769
 Alpha virt. eigenvalues --    2.03178   2.05091   2.08651   2.11859   2.12883
 Alpha virt. eigenvalues --    2.16677   2.19250   2.24352   2.28345   2.30125
 Alpha virt. eigenvalues --    2.34275   2.35662   2.39943   2.41029   2.42720
 Alpha virt. eigenvalues --    2.45017   2.46740   2.50132   2.52104   2.52933
 Alpha virt. eigenvalues --    2.55188   2.57079   2.57436   2.58403   2.62340
 Alpha virt. eigenvalues --    2.64150   2.66331   2.68438   2.69564   2.71452
 Alpha virt. eigenvalues --    2.76455   2.80685   2.84175   2.85274   2.86145
 Alpha virt. eigenvalues --    2.88508   2.91207   2.96914   2.99292   3.03908
 Alpha virt. eigenvalues --    3.04900   3.05836   3.12112   3.13464   3.18479
 Alpha virt. eigenvalues --    3.21956   3.24365   3.31808   3.35608   3.37944
 Alpha virt. eigenvalues --    3.46866   3.50946   3.58988   3.60944   3.63180
 Alpha virt. eigenvalues --    3.72700   3.83937   3.86031   3.86773   3.99702
 Alpha virt. eigenvalues --    4.02791   4.07666   4.10704   4.14048   4.28855
 Alpha virt. eigenvalues --    4.81779   4.85737   4.88555   5.13515   5.31756
 Alpha virt. eigenvalues --    5.60802   5.78228  23.46600  23.76628  23.84135
 Alpha virt. eigenvalues --   23.88901  23.96032  24.01185  24.10192  24.16461
 Alpha virt. eigenvalues --   49.84959  49.93229
  Beta  occ. eigenvalues --  -19.18664 -19.13044 -10.24333 -10.24012 -10.23076
  Beta  occ. eigenvalues --  -10.18816 -10.18182 -10.17297 -10.17067 -10.16388
  Beta  occ. eigenvalues --   -1.10061  -1.02643  -0.85970  -0.78166  -0.74308
  Beta  occ. eigenvalues --   -0.71702  -0.66303  -0.62102  -0.59797  -0.53347
  Beta  occ. eigenvalues --   -0.51888  -0.48697  -0.48146  -0.45384  -0.44065
  Beta  occ. eigenvalues --   -0.43214  -0.42497  -0.40050  -0.39095  -0.38522
  Beta  occ. eigenvalues --   -0.37034  -0.35688  -0.34174  -0.31907  -0.24476
  Beta  occ. eigenvalues --   -0.21665
  Beta virt. eigenvalues --   -0.13328  -0.00820   0.00749   0.05041   0.06248
  Beta virt. eigenvalues --    0.07041   0.09392   0.10333   0.10638   0.11390
  Beta virt. eigenvalues --    0.11641   0.14388   0.15314   0.16753   0.19834
  Beta virt. eigenvalues --    0.23311   0.24613   0.26408   0.27417   0.29719
  Beta virt. eigenvalues --    0.30562   0.30580   0.32763   0.34070   0.36001
  Beta virt. eigenvalues --    0.38542   0.39446   0.39846   0.41117   0.43089
  Beta virt. eigenvalues --    0.44301   0.45185   0.46635   0.47069   0.48340
  Beta virt. eigenvalues --    0.49406   0.50746   0.52549   0.53131   0.54296
  Beta virt. eigenvalues --    0.55816   0.56758   0.57242   0.59653   0.60195
  Beta virt. eigenvalues --    0.61286   0.61836   0.62567   0.63179   0.64028
  Beta virt. eigenvalues --    0.66888   0.68704   0.74748   0.76698   0.77024
  Beta virt. eigenvalues --    0.78441   0.79324   0.81932   0.84971   0.86778
  Beta virt. eigenvalues --    0.87924   0.90874   0.92505   0.95015   0.96153
  Beta virt. eigenvalues --    0.97222   0.98710   1.01515   1.04737   1.06000
  Beta virt. eigenvalues --    1.08028   1.10621   1.15125   1.19720   1.21556
  Beta virt. eigenvalues --    1.23090   1.31667   1.33059   1.35280   1.35911
  Beta virt. eigenvalues --    1.37986   1.39426   1.41877   1.45867   1.46823
  Beta virt. eigenvalues --    1.47714   1.49032   1.49760   1.50101   1.54169
  Beta virt. eigenvalues --    1.55283   1.55436   1.56871   1.57579   1.59989
  Beta virt. eigenvalues --    1.60096   1.61910   1.62956   1.66370   1.68126
  Beta virt. eigenvalues --    1.68475   1.71049   1.73686   1.77532   1.78056
  Beta virt. eigenvalues --    1.80025   1.85595   1.85800   1.86938   1.91275
  Beta virt. eigenvalues --    1.91393   1.93714   1.95367   1.95680   1.99571
  Beta virt. eigenvalues --    2.00851   2.03488   2.05391   2.08974   2.11952
  Beta virt. eigenvalues --    2.13113   2.18061   2.19762   2.24517   2.28531
  Beta virt. eigenvalues --    2.30374   2.34389   2.35780   2.40001   2.41698
  Beta virt. eigenvalues --    2.43309   2.45113   2.46965   2.50443   2.52195
  Beta virt. eigenvalues --    2.53136   2.55382   2.57229   2.57487   2.58473
  Beta virt. eigenvalues --    2.62378   2.64208   2.66376   2.68631   2.69741
  Beta virt. eigenvalues --    2.71715   2.76842   2.80827   2.85010   2.85623
  Beta virt. eigenvalues --    2.86306   2.89321   2.91361   2.98066   3.00143
  Beta virt. eigenvalues --    3.04523   3.05485   3.06727   3.12888   3.13685
  Beta virt. eigenvalues --    3.19074   3.22851   3.25210   3.33054   3.36330
  Beta virt. eigenvalues --    3.38131   3.47709   3.51653   3.59401   3.61127
  Beta virt. eigenvalues --    3.63755   3.73771   3.83957   3.86155   3.87875
  Beta virt. eigenvalues --    4.00094   4.03456   4.08211   4.10835   4.14432
  Beta virt. eigenvalues --    4.28935   4.81997   4.87113   4.90425   5.15272
  Beta virt. eigenvalues --    5.33582   5.61601   5.78958  23.46649  23.77328
  Beta virt. eigenvalues --   23.84194  23.88945  23.96051  24.01225  24.10229
  Beta virt. eigenvalues --   24.16499  49.85578  49.94128
          Condensed to atoms (all electrons):
               1          2          3          4          5          6
     1  C    5.100894   0.476791  -0.026165  -0.060970  -0.042465   0.508104
     2  C    0.476791   4.978267   0.435860  -0.016768  -0.052672  -0.046277
     3  C   -0.026165   0.435860   4.926801   0.249117   0.003342  -0.038054
     4  C   -0.060970  -0.016768   0.249117   5.222387   0.425208  -0.040254
     5  C   -0.042465  -0.052672   0.003342   0.425208   4.880328   0.527253
     6  C    0.508104  -0.046277  -0.038054  -0.040254   0.527253   4.818038
     7  H    0.009402  -0.001655   0.008307  -0.053514   0.407430  -0.032968
     8  O   -0.000478   0.005979  -0.063817   0.325584  -0.043912   0.003213
     9  O    0.004420  -0.057821   0.403084  -0.085539   0.003969  -0.000012
    10  H   -0.045770   0.406789  -0.039939   0.011772  -0.001114   0.006808
    11  C    0.000258  -0.000689  -0.015314  -0.075823   0.007294  -0.000295
    12  H   -0.000033  -0.000297   0.000351   0.001858   0.001134  -0.000036
    13  H    0.000125   0.000774  -0.041521  -0.011403   0.000928  -0.000180
    14  H   -0.000015   0.000088   0.001757   0.002170  -0.000808   0.000039
    15  H   -0.046497   0.008301  -0.001454   0.010701  -0.040443   0.420553
    16  C    0.353524  -0.057687   0.006288  -0.000556   0.007974  -0.057983
    17  H   -0.037956  -0.003297   0.000030   0.000070  -0.000447   0.001128
    18  H   -0.035677  -0.005733   0.000231  -0.000006  -0.000308   0.001683
    19  H   -0.035187   0.006894  -0.000390   0.000005   0.000602  -0.007721
               7          8          9         10         11         12
     1  C    0.009402  -0.000478   0.004420  -0.045770   0.000258  -0.000033
     2  C   -0.001655   0.005979  -0.057821   0.406789  -0.000689  -0.000297
     3  C    0.008307  -0.063817   0.403084  -0.039939  -0.015314   0.000351
     4  C   -0.053514   0.325584  -0.085539   0.011772  -0.075823   0.001858
     5  C    0.407430  -0.043912   0.003969  -0.001114   0.007294   0.001134
     6  C   -0.032968   0.003213  -0.000012   0.006808  -0.000295  -0.000036
     7  H    0.563584   0.004837  -0.000164   0.000104  -0.000730   0.000092
     8  O    0.004837   7.840438  -0.002086  -0.000132   0.275711  -0.032693
     9  O   -0.000164  -0.002086   7.988320   0.004985  -0.091757  -0.000403
    10  H    0.000104  -0.000132   0.004985   0.565278  -0.000029   0.000013
    11  C   -0.000730   0.275711  -0.091757  -0.000029   5.091618   0.374185
    12  H    0.000092  -0.032693  -0.000403   0.000013   0.374185   0.577195
    13  H    0.000293  -0.019020   0.186539   0.000217   0.237610  -0.020642
    14  H   -0.000123  -0.024342   0.002236  -0.000006   0.386275  -0.035086
    15  H   -0.008965  -0.000123   0.000006  -0.000281   0.000019   0.000000
    16  C   -0.000324  -0.000001  -0.000077  -0.007500  -0.000001  -0.000000
    17  H    0.000014  -0.000000  -0.000012   0.000785  -0.000000  -0.000000
    18  H    0.000023  -0.000001  -0.000001   0.001080   0.000000   0.000001
    19  H   -0.000006  -0.000000   0.000002   0.000262   0.000000   0.000000
              13         14         15         16         17         18
     1  C    0.000125  -0.000015  -0.046497   0.353524  -0.037956  -0.035677
     2  C    0.000774   0.000088   0.008301  -0.057687  -0.003297  -0.005733
     3  C   -0.041521   0.001757  -0.001454   0.006288   0.000030   0.000231
     4  C   -0.011403   0.002170   0.010701  -0.000556   0.000070  -0.000006
     5  C    0.000928  -0.000808  -0.040443   0.007974  -0.000447  -0.000308
     6  C   -0.000180   0.000039   0.420553  -0.057983   0.001128   0.001683
     7  H    0.000293  -0.000123  -0.008965  -0.000324   0.000014   0.000023
     8  O   -0.019020  -0.024342  -0.000123  -0.000001  -0.000000  -0.000001
     9  O    0.186539   0.002236   0.000006  -0.000077  -0.000012  -0.000001
    10  H    0.000217  -0.000006  -0.000281  -0.007500   0.000785   0.001080
    11  C    0.237610   0.386275   0.000019  -0.000001  -0.000000   0.000000
    12  H   -0.020642  -0.035086   0.000000  -0.000000  -0.000000   0.000001
    13  H    0.461347  -0.009102  -0.000013   0.000022  -0.000001   0.000000
    14  H   -0.009102   0.543508  -0.000000   0.000000   0.000000  -0.000000
    15  H   -0.000013  -0.000000   0.575342  -0.009741   0.000168   0.000112
    16  C    0.000022   0.000000  -0.009741   4.799160   0.406469   0.406041
    17  H   -0.000001   0.000000   0.000168   0.406469   0.560614  -0.027854
    18  H    0.000000  -0.000000   0.000112   0.406041  -0.027854   0.561216
    19  H   -0.000001  -0.000000   0.003230   0.410800  -0.026074  -0.026184
              19
     1  C   -0.035187
     2  C    0.006894
     3  C   -0.000390
     4  C    0.000005
     5  C    0.000602
     6  C   -0.007721
     7  H   -0.000006
     8  O   -0.000000
     9  O    0.000002
    10  H    0.000262
    11  C    0.000000
    12  H    0.000000
    13  H   -0.000001
    14  H   -0.000000
    15  H    0.003230
    16  C    0.410800
    17  H   -0.026074
    18  H   -0.026184
    19  H    0.569814
          Atomic-Atomic Spin Densities.
               1          2          3          4          5          6
     1  C    0.044644  -0.020655  -0.000675   0.002324  -0.004317   0.012917
     2  C   -0.020655   0.037271   0.007641  -0.006936   0.003740  -0.003253
     3  C   -0.000675   0.007641   0.009940   0.034295  -0.003880   0.000907
     4  C    0.002324  -0.006936   0.034295   0.011587   0.018816  -0.003070
     5  C   -0.004317   0.003740  -0.003880   0.018816   0.007649  -0.010175
     6  C    0.012917  -0.003253   0.000907  -0.003070  -0.010175   0.026514
     7  H    0.000026  -0.000386   0.000083  -0.000270  -0.002038   0.000748
     8  O   -0.000055   0.000798  -0.001871  -0.028209  -0.001208   0.000129
     9  O    0.000758  -0.005194  -0.028903  -0.000294   0.000047   0.000020
    10  H    0.002391  -0.004756   0.000950  -0.000045  -0.000055   0.000052
    11  C    0.000200  -0.002549   0.001181   0.001337  -0.000628   0.000044
    12  H   -0.000059   0.000507   0.001744   0.002472   0.000511  -0.000065
    13  H    0.000048  -0.001734   0.000564   0.004419  -0.000717   0.000093
    14  H   -0.000001   0.000021  -0.000089  -0.000022   0.000052  -0.000001
    15  H    0.000147  -0.000035   0.000063  -0.000177   0.000147   0.000294
    16  C   -0.001478   0.002175  -0.000387   0.000012   0.000071  -0.000404
    17  H    0.000038  -0.000654   0.000101   0.000032  -0.000027  -0.000005
    18  H   -0.002031   0.001078  -0.000064  -0.000014   0.000055  -0.000337
    19  H   -0.000036  -0.000152   0.000019   0.000006  -0.000030   0.000147
               7          8          9         10         11         12
     1  C    0.000026  -0.000055   0.000758   0.002391   0.000200  -0.000059
     2  C   -0.000386   0.000798  -0.005194  -0.004756  -0.002549   0.000507
     3  C    0.000083  -0.001871  -0.028903   0.000950   0.001181   0.001744
     4  C   -0.000270  -0.028209  -0.000294  -0.000045   0.001337   0.002472
     5  C   -0.002038  -0.001208   0.000047  -0.000055  -0.000628   0.000511
     6  C    0.000748   0.000129   0.000020   0.000052   0.000044  -0.000065
     7  H    0.001737   0.001178  -0.000058   0.000018   0.000081  -0.000176
     8  O    0.001178   0.276169   0.009741  -0.000065  -0.073808  -0.003613
     9  O   -0.000058   0.009741   0.418781   0.001400  -0.059637   0.005813
    10  H    0.000018  -0.000065   0.001400   0.001479   0.000226  -0.000050
    11  C    0.000081  -0.073808  -0.059637   0.000226   0.454793  -0.024787
    12  H   -0.000176  -0.003613   0.005813  -0.000050  -0.024787   0.044791
    13  H    0.000047  -0.004934  -0.035835   0.000305   0.073151  -0.005910
    14  H   -0.000020   0.000745   0.000525  -0.000001  -0.003425   0.004199
    15  H    0.000054   0.000001   0.000000  -0.000006  -0.000001  -0.000000
    16  C   -0.000019   0.000001  -0.000011  -0.000357  -0.000001   0.000001
    17  H    0.000006  -0.000000   0.000008   0.000406   0.000001  -0.000000
    18  H   -0.000006   0.000000  -0.000013  -0.000462  -0.000001   0.000001
    19  H    0.000008  -0.000000   0.000000   0.000038   0.000000  -0.000000
              13         14         15         16         17         18
     1  C    0.000048  -0.000001   0.000147  -0.001478   0.000038  -0.002031
     2  C   -0.001734   0.000021  -0.000035   0.002175  -0.000654   0.001078
     3  C    0.000564  -0.000089   0.000063  -0.000387   0.000101  -0.000064
     4  C    0.004419  -0.000022  -0.000177   0.000012   0.000032  -0.000014
     5  C   -0.000717   0.000052   0.000147   0.000071  -0.000027   0.000055
     6  C    0.000093  -0.000001   0.000294  -0.000404  -0.000005  -0.000337
     7  H    0.000047  -0.000020   0.000054  -0.000019   0.000006  -0.000006
     8  O   -0.004934   0.000745   0.000001   0.000001  -0.000000   0.000000
     9  O   -0.035835   0.000525   0.000000  -0.000011   0.000008  -0.000013
    10  H    0.000305  -0.000001  -0.000006  -0.000357   0.000406  -0.000462
    11  C    0.073151  -0.003425  -0.000001  -0.000001   0.000001  -0.000001
    12  H   -0.005910   0.004199  -0.000000   0.000001  -0.000000   0.000001
    13  H   -0.024788  -0.001174   0.000001  -0.000005   0.000001  -0.000002
    14  H   -0.001174  -0.012351   0.000000   0.000000  -0.000000   0.000000
    15  H    0.000001   0.000000  -0.002184   0.000099   0.000002  -0.000003
    16  C   -0.000005   0.000000   0.000099  -0.002207  -0.000663   0.001074
    17  H    0.000001  -0.000000   0.000002  -0.000663   0.003263  -0.001014
    18  H   -0.000002   0.000000  -0.000003   0.001074  -0.001014   0.003899
    19  H    0.000000  -0.000000  -0.000030   0.000102   0.000334  -0.000410
              19
     1  C   -0.000036
     2  C   -0.000152
     3  C    0.000019
     4  C    0.000006
     5  C   -0.000030
     6  C    0.000147
     7  H    0.000008
     8  O   -0.000000
     9  O    0.000000
    10  H    0.000038
    11  C    0.000000
    12  H   -0.000000
    13  H    0.000000
    14  H   -0.000000
    15  H   -0.000030
    16  C    0.000102
    17  H    0.000334
    18  H   -0.000410
    19  H    0.000323
 Mulliken charges and spin densities:
               1          2
     1  C   -0.122305   0.034185
     2  C   -0.076846   0.006928
     3  C    0.191486   0.021620
     4  C    0.095962   0.036263
     5  C   -0.083293   0.008014
     6  C   -0.063038   0.024553
     7  H    0.104362   0.001013
     8  O   -0.269158   0.174996
     9  O   -0.355689   0.307148
    10  H    0.096679   0.001468
    11  C   -0.188332   0.366175
    12  H    0.134361   0.025377
    13  H    0.214029   0.003532
    14  H    0.133409  -0.011541
    15  H    0.089085  -0.001627
    16  C   -0.256407  -0.001999
    17  H    0.126363   0.001827
    18  H    0.125378   0.001749
    19  H    0.103953   0.000319
 Sum of Mulliken charges =  -0.00000   1.00000
 Mulliken charges and spin densities with hydrogens summed into heavy atoms:
               1          2
     1  C   -0.122305   0.034185
     2  C    0.019833   0.008396
     3  C    0.191486   0.021620
     4  C    0.095962   0.036263
     5  C    0.021069   0.009027
     6  C    0.026046   0.022926
     8  O   -0.269158   0.174996
     9  O   -0.141660   0.310680
    11  C    0.079439   0.380010
    16  C    0.099288   0.001896
 APT charges:
               1
     1  C    0.043390
     2  C   -0.509493
     3  C   -0.168041
     4  C   -0.118371
     5  C   -0.519662
     6  C   -0.489692
     7  H    0.507814
     8  O   -0.081537
     9  O   -0.111636
    10  H    0.465337
    11  C   -0.927479
    12  H    0.357571
    13  H    0.174455
    14  H    0.724214
    15  H    0.588298
    16  C   -1.206271
    17  H    0.403102
    18  H    0.390896
    19  H    0.477106
 Sum of APT charges =  -0.00000
 APT charges with hydrogens summed into heavy atoms:
               1
     1  C    0.043390
     2  C   -0.044156
     3  C   -0.168041
     4  C   -0.118371
     5  C   -0.011848
     6  C    0.098607
     8  O   -0.081537
     9  O    0.062820
    11  C    0.154305
    16  C    0.064833
 Electronic spatial extent (au):  <R**2>=           1534.0624
 Charge=              0.0000 electrons
 Dipole moment (field-independent basis, Debye):
    X=             -0.0889    Y=              1.0060    Z=              0.5688  Tot=              1.1591
 Quadrupole moment (field-independent basis, Debye-Ang):
   XX=            -49.2011   YY=            -60.5304   ZZ=            -61.1678
   XY=              0.6966   XZ=              1.2996   YZ=              0.1431
 Traceless Quadrupole moment (field-independent basis, Debye-Ang):
   XX=              7.7653   YY=             -3.5640   ZZ=             -4.2013
   XY=              0.6966   XZ=              1.2996   YZ=              0.1431
 Octapole moment (field-independent basis, Debye-Ang**2):
  XXX=             31.9805  YYY=             10.0640  ZZZ=             -0.1562  XYY=             -8.4323
  XXY=             -2.9498  XXZ=              2.5267  XZZ=              8.0484  YZZ=             -3.3128
  YYZ=              0.3362  XYZ=             -0.4378
 Hexadecapole moment (field-independent basis, Debye-Ang**3):
 XXXX=          -1358.2330 YYYY=           -464.9478 ZZZZ=            -79.4866 XXXY=            -16.1422
 XXXZ=             -0.4900 YYYX=              9.4469 YYYZ=             -0.5537 ZZZX=              1.5928
 ZZZY=             -1.4743 XXYY=           -329.1456 XXZZ=           -258.8611 YYZZ=            -98.0570
 XXYZ=             -0.3890 YYXZ=             -0.0876 ZZXY=              3.0847
 N-N= 5.096447112315D+02 E-N=-2.094528632827D+03  KE= 4.590809606369D+02
  Exact polarizability:       0.000       0.000       0.000       0.000       0.000       0.000
 Approx polarizability:     253.889     -18.037     189.129       2.418       0.517      77.446
                          Isotropic Fermi Contact Couplings
        Atom                 a.u.       MegaHertz       Gauss      10(-4) cm-1
     1  C(13)              0.00249       2.80438       1.00067       0.93544
     2  C(13)              0.01878      21.10832       7.53197       7.04098
     3  C(13)             -0.00902     -10.14268      -3.61916      -3.38323
     4  C(13)             -0.00613      -6.88988      -2.45848      -2.29822
     5  C(13)              0.00149       1.67107       0.59628       0.55741
     6  C(13)             -0.00027      -0.29868      -0.10658      -0.09963
     7  H(1)              -0.00001      -0.05197      -0.01854      -0.01734
     8  O(17)              0.02616     -15.86078      -5.65952      -5.29059
     9  O(17)              0.05371     -32.55920     -11.61793     -10.86058
    10  H(1)              -0.00020      -0.91242      -0.32557      -0.30435
    11  C(13)              0.08996     101.13744      36.08835      33.73582
    12  H(1)               0.01090      48.72582      17.38658      16.25318
    13  H(1)              -0.00596     -26.64265      -9.50676      -8.88703
    14  H(1)              -0.00220      -9.83545      -3.50953      -3.28075
    15  H(1)              -0.00041      -1.84771      -0.65931      -0.61633
    16  C(13)             -0.00041      -0.46524      -0.16601      -0.15519
    17  H(1)               0.00071       3.18717       1.13726       1.06313
    18  H(1)               0.00094       4.22172       1.50641       1.40821
    19  H(1)               0.00013       0.56253       0.20073       0.18764
 --------------------------------------------------------
       Center         ----  Spin Dipole Couplings  ----
                      3XX-RR        3YY-RR        3ZZ-RR
 --------------------------------------------------------
     1   Atom       -0.015027     -0.020786      0.035813
     2   Atom        0.038883     -0.012418     -0.026465
     3   Atom       -0.006534     -0.013030      0.019564
     4   Atom       -0.003825     -0.001046      0.004871
     5   Atom       -0.001810     -0.005408      0.007217
     6   Atom       -0.013769     -0.014767      0.028535
     7   Atom        0.000059      0.003710     -0.003769
     8   Atom       -0.442773      0.237768      0.205005
     9   Atom        0.421149     -0.049465     -0.371684
    10   Atom        0.006603     -0.001083     -0.005520
    11   Atom       -0.145857      0.293013     -0.147156
    12   Atom       -0.022658     -0.009493      0.032150
    13   Atom        0.051312      0.029993     -0.081304
    14   Atom        0.022158     -0.011393     -0.010765
    15   Atom        0.000202      0.001377     -0.001578
    16   Atom        0.003229     -0.002001     -0.001229
    17   Atom        0.001666     -0.000718     -0.000948
    18   Atom        0.001717     -0.000717     -0.001000
    19   Atom        0.002130     -0.000957     -0.001173
 --------------------------------------------------------
                        XY            XZ            YZ
 --------------------------------------------------------
     1   Atom       -0.003934      0.017718     -0.014006
     2   Atom       -0.000730      0.023541     -0.000304
     3   Atom        0.001543     -0.035319     -0.025986
     4   Atom        0.025713      0.038648      0.049770
     5   Atom       -0.005338      0.006218     -0.006145
     6   Atom       -0.002076      0.001399     -0.003246
     7   Atom       -0.003616     -0.000039     -0.000145
     8   Atom        0.133289      0.125398      0.701008
     9   Atom        0.876494     -0.603982     -0.460016
    10   Atom        0.003586      0.001069      0.001006
    11   Atom        0.238908      0.107019      0.251078
    12   Atom        0.008841      0.004337     -0.008765
    13   Atom        0.108959      0.015869      0.015826
    14   Atom        0.014418     -0.023698      0.003876
    15   Atom       -0.003500      0.000012      0.000126
    16   Atom        0.000481      0.001638     -0.000315
    17   Atom        0.000501      0.000585      0.000365
    18   Atom        0.000829     -0.000868     -0.000379
    19   Atom       -0.000357     -0.000077      0.000127
 --------------------------------------------------------


 ---------------------------------------------------------------------------------
              Anisotropic Spin Dipole Couplings in Principal Axis System
 ---------------------------------------------------------------------------------

       Atom             a.u.   MegaHertz   Gauss  10(-4) cm-1        Axes

              Baa    -0.0241    -3.230    -1.153    -1.078 -0.0536  0.9687  0.2424
     1 C(13)  Bbb    -0.0205    -2.756    -0.983    -0.919  0.9552  0.1205 -0.2704
              Bcc     0.0446     5.986     2.136     1.997  0.2911 -0.2171  0.9317
 
              Baa    -0.0341    -4.571    -1.631    -1.525 -0.3071  0.0030  0.9517
     2 C(13)  Bbb    -0.0124    -1.668    -0.595    -0.556  0.0137  0.9999  0.0012
              Bcc     0.0465     6.239     2.226     2.081  0.9516 -0.0134  0.3071
 
              Baa    -0.0399    -5.357    -1.911    -1.787  0.6011  0.5373  0.5916
     3 C(13)  Bbb    -0.0121    -1.623    -0.579    -0.541 -0.6286  0.7750 -0.0651
              Bcc     0.0520     6.980     2.491     2.328 -0.4935 -0.3327  0.8036
 
              Baa    -0.0503    -6.748    -2.408    -2.251 -0.2853 -0.6036  0.7445
     4 C(13)  Bbb    -0.0273    -3.670    -1.309    -1.224  0.8227 -0.5528 -0.1329
              Bcc     0.0776    10.417     3.717     3.475  0.4918  0.5746  0.6542
 
              Baa    -0.0094    -1.265    -0.451    -0.422  0.4939  0.8593  0.1328
     5 C(13)  Bbb    -0.0043    -0.572    -0.204    -0.191  0.7411 -0.3362 -0.5812
              Bcc     0.0137     1.837     0.656     0.613  0.4548 -0.3855  0.8028
 
              Baa    -0.0165    -2.210    -0.789    -0.737  0.5961  0.8019  0.0393
     6 C(13)  Bbb    -0.0124    -1.659    -0.592    -0.553  0.8021 -0.5926 -0.0745
              Bcc     0.0288     3.869     1.381     1.291  0.0364 -0.0759  0.9964
 
              Baa    -0.0038    -2.015    -0.719    -0.672  0.0521  0.0445  0.9977
     7 H(1)   Bbb    -0.0022    -1.152    -0.411    -0.384  0.8502  0.5221 -0.0677
              Bcc     0.0059     3.167     1.130     1.057 -0.5239  0.8517 -0.0106
 
              Baa    -0.4807    34.780    12.410    11.601 -0.2382  0.7006 -0.6727
     8 O(17)  Bbb    -0.4660    33.721    12.033    11.248  0.9624  0.0772 -0.2605
              Bcc     0.9467   -68.501   -24.443   -22.850  0.1306  0.7094  0.6926
 
              Baa    -0.7219    52.235    18.639    17.424 -0.6322  0.7709 -0.0776
     9 O(17)  Bbb    -0.6939    50.213    17.917    16.749  0.2580  0.3038  0.9171
              Bcc     1.4158  -102.449   -36.556   -34.173  0.7306  0.5598 -0.3909
 
              Baa    -0.0057    -3.066    -1.094    -1.023 -0.0302 -0.1885  0.9816
    10 H(1)   Bbb    -0.0024    -1.284    -0.458    -0.428 -0.3815  0.9099  0.1630
              Bcc     0.0082     4.350     1.552     1.451  0.9239  0.3695  0.0994
 
              Baa    -0.2611   -35.032   -12.500   -11.685  0.0909 -0.4433  0.8918
    11 C(13)  Bbb    -0.2501   -33.556   -11.974   -11.193  0.9245 -0.2953 -0.2410
              Bcc     0.5111    68.587    24.474    22.878  0.3702  0.8463  0.3830
 
              Baa    -0.0281   -15.011    -5.356    -5.007  0.8703 -0.4746 -0.1316
    12 H(1)   Bbb    -0.0059    -3.148    -1.123    -1.050  0.4904  0.8598  0.1422
              Bcc     0.0340    18.159     6.480     6.057  0.0457 -0.1883  0.9811
 
              Baa    -0.0835   -44.566   -15.902   -14.865 -0.0223 -0.1171  0.9929
    13 H(1)   Bbb    -0.0688   -36.682   -13.089   -12.236 -0.6755  0.7339  0.0714
              Bcc     0.1523    81.248    28.991    27.101  0.7370  0.6691  0.0954
 
              Baa    -0.0295   -15.726    -5.612    -5.246  0.4716 -0.5275  0.7066
    14 H(1)   Bbb    -0.0077    -4.082    -1.457    -1.362  0.0587  0.8183  0.5717
              Bcc     0.0371    19.808     7.068     6.607  0.8798  0.2281 -0.4169
 
              Baa    -0.0028    -1.476    -0.527    -0.492  0.7606  0.6448 -0.0760
    15 H(1)   Bbb    -0.0016    -0.839    -0.299    -0.280  0.0676  0.0378  0.9970
              Bcc     0.0043     2.316     0.826     0.772 -0.6457  0.7634  0.0148
 
              Baa    -0.0024    -0.317    -0.113    -0.106 -0.2318  0.7974  0.5571
    16 C(13)  Bbb    -0.0014    -0.192    -0.068    -0.064 -0.2095 -0.6002  0.7719
              Bcc     0.0038     0.508     0.181     0.170  0.9499  0.0622  0.3062
 
              Baa    -0.0012    -0.656    -0.234    -0.219 -0.0803 -0.5255  0.8470
    17 H(1)   Bbb    -0.0007    -0.365    -0.130    -0.122 -0.2961  0.8239  0.4832
              Bcc     0.0019     1.021     0.364     0.341  0.9518  0.2120  0.2217
 
              Baa    -0.0013    -0.696    -0.248    -0.232  0.1650  0.3601  0.9182
    18 H(1)   Bbb    -0.0009    -0.502    -0.179    -0.168 -0.3682  0.8862 -0.2814
              Bcc     0.0022     1.198     0.428     0.400  0.9150  0.2916 -0.2788
 
              Baa    -0.0012    -0.658    -0.235    -0.220 -0.0270 -0.4461  0.8946
    19 H(1)   Bbb    -0.0009    -0.501    -0.179    -0.167  0.1145  0.8876  0.4461
              Bcc     0.0022     1.159     0.414     0.387  0.9931 -0.1145 -0.0271
 

 ---------------------------------------------------------------------------------

 Calling FoFJK, ICntrl=    100127 FMM=F ISym2X=0 I1Cent= 0 IOpClX= 1 NMat=1 NMatS=1 NMatT=0.
 ***** Axes restored to original set *****
 -------------------------------------------------------------------
 Center     Atomic                   Forces (Hartrees/Bohr)
 Number     Number              X              Y              Z
 -------------------------------------------------------------------
      1        6           0.024194898    0.009414742    0.000416894
      2        6          -0.006443387   -0.005241539   -0.000007284
      3        6           0.001761847    0.002654995   -0.000087928
      4        6           0.002350581   -0.001558270    0.000170758
      5        6           0.002406624   -0.003625636    0.000025186
      6        6          -0.023415792    0.008229357   -0.000038566
      7        1          -0.000559842   -0.000076998    0.000220253
      8        8          -0.002891680   -0.000220998   -0.000421156
      9        8          -0.000146805   -0.001842425   -0.000517188
     10        1           0.000245344    0.000373397    0.000142290
     11        6           0.001322176   -0.001724689    0.000364427
     12        1           0.000010290    0.000335482    0.000000766
     13        1           0.000762443    0.001506392    0.000017850
     14        1          -0.000059681    0.000136519   -0.000095819
     15        1           0.007796462   -0.003250574   -0.000292884
     16        6          -0.024781214   -0.021163838   -0.000093813
     17        1           0.002266793    0.010358694   -0.011739606
     18        1           0.001682758    0.010810932    0.011348150
     19        1           0.013498185   -0.005115542    0.000587670
 -------------------------------------------------------------------
 Cartesian Forces:  Max     0.024781214 RMS     0.007560208
 FormGI is forming the generalized inverse of G from B-inverse, IUseBI=4.

 GradGradGradGradGradGradGradGradGradGradGradGradGradGradGradGradGradGrad
 Berny optimization.
 Internal  Forces:  Max     0.015546053 RMS     0.003586688
 Search for a saddle point.
 Step number   1 out of a maximum of  104
 All quantities printed in internal units (Hartrees-Bohrs-Radians)
 Swapping is turned off.
 Second derivative matrix not updated -- analytic derivatives used.
 ITU=  0
     Eigenvalues ---   -0.08661  -0.00026   0.00353   0.00943   0.01421
     Eigenvalues ---    0.01683   0.01746   0.01934   0.02029   0.02112
     Eigenvalues ---    0.02417   0.02650   0.02851   0.03389   0.05830
     Eigenvalues ---    0.05958   0.06147   0.07143   0.08398   0.10757
     Eigenvalues ---    0.10926   0.11243   0.11852   0.12408   0.14506
     Eigenvalues ---    0.14715   0.15827   0.17123   0.18055   0.18343
     Eigenvalues ---    0.18789   0.20380   0.21735   0.27336   0.27950
     Eigenvalues ---    0.29582   0.32632   0.34458   0.34720   0.35919
     Eigenvalues ---    0.36081   0.36652   0.37968   0.38131   0.38705
     Eigenvalues ---    0.38799   0.41142   0.42746   0.44898   0.46616
     Eigenvalues ---    0.50807
 Eigenvectors required to have negative eigenvalues:
                          R14       R16       R7        D35       R13
   1                    0.72618  -0.58279  -0.13469  -0.13311   0.10910
                          A24       R9        R6        A21       D30
   1                    0.09848  -0.09820   0.08504  -0.08188   0.07661
 RFO step:  Lambda0=4.049101302D-05 Lambda=-4.75306166D-03.
 Linear search not attempted -- option 19 set.
 Iteration  1 RMS(Cart)=  0.06688305 RMS(Int)=  0.02824493
 Iteration  2 RMS(Cart)=  0.03672269 RMS(Int)=  0.00171730
 Iteration  3 RMS(Cart)=  0.00177039 RMS(Int)=  0.00016238
 Iteration  4 RMS(Cart)=  0.00000335 RMS(Int)=  0.00016235
 Iteration  5 RMS(Cart)=  0.00000000 RMS(Int)=  0.00016235
 Variable       Old X    -DE/DX   Delta X   Delta X   Delta X     New X
                                 (Linear)    (Quad)   (Total)
    R1        2.61477   0.00381   0.00000   0.01493   0.01498   2.62975
    R2        2.65967  -0.00166   0.00000  -0.00525  -0.00513   2.65453
    R3        2.91018  -0.00893   0.00000  -0.05921  -0.05921   2.85096
    R4        2.66126  -0.00039   0.00000  -0.00583  -0.00590   2.65536
    R5        2.04653   0.00033   0.00000   0.00203   0.00203   2.04856
    R6        2.68907   0.00093   0.00000   0.00656   0.00642   2.69549
    R7        2.50170  -0.00071   0.00000  -0.00160  -0.00161   2.50008
    R8        2.63340  -0.00320   0.00000  -0.00663  -0.00668   2.62672
    R9        2.59051   0.00163   0.00000   0.00128   0.00127   2.59178
   R10        2.62614  -0.00102   0.00000  -0.00471  -0.00464   2.62150
   R11        2.04853   0.00002   0.00000  -0.00137  -0.00137   2.04716
   R12        2.02201   0.00843   0.00000   0.02445   0.02445   2.04646
   R13        2.62300  -0.00156   0.00000  -0.00201  -0.00200   2.62100
   R14        2.30457  -0.00102   0.00000   0.01763   0.01765   2.32222
   R15        2.06823   0.00002   0.00000   0.00013   0.00013   2.06836
   R16        2.54882   0.00067   0.00000  -0.01971  -0.01969   2.52913
   R17        2.05173   0.00002   0.00000   0.00012   0.00012   2.05184
   R18        2.02201   0.01555   0.00000   0.04065   0.04065   2.06266
   R19        2.02201   0.01544   0.00000   0.04391   0.04391   2.06592
   R20        2.02201   0.01412   0.00000   0.03794   0.03794   2.05995
    A1        2.12653  -0.00925   0.00000  -0.04761  -0.04749   2.07904
    A2        2.07547   0.00373   0.00000   0.01994   0.01978   2.09525
    A3        2.08115   0.00553   0.00000   0.02782   0.02765   2.10881
    A4        2.11081   0.00241   0.00000   0.01607   0.01604   2.12685
    A5        2.11917  -0.00151   0.00000  -0.00801  -0.00800   2.11117
    A6        2.05239  -0.00090   0.00000  -0.00806  -0.00805   2.04434
    A7        2.03864   0.00199   0.00000   0.00981   0.00964   2.04828
    A8        2.11521  -0.00052   0.00000  -0.00402  -0.00388   2.11133
    A9        2.12861  -0.00147   0.00000  -0.00580  -0.00577   2.12284
   A10        2.12042  -0.00175   0.00000  -0.01004  -0.01018   2.11024
   A11        2.08575   0.00057   0.00000   0.00106   0.00107   2.08682
   A12        2.06569   0.00117   0.00000   0.00854   0.00865   2.07435
   A13        2.11048  -0.00244   0.00000  -0.01480  -0.01478   2.09570
   A14        2.05723   0.00065   0.00000   0.00914   0.00913   2.06636
   A15        2.11545   0.00180   0.00000   0.00564   0.00563   2.12109
   A16        2.05700   0.00906   0.00000   0.04670   0.04688   2.10388
   A17        2.11309  -0.00455   0.00000  -0.02199  -0.02210   2.09099
   A18        2.11309  -0.00451   0.00000  -0.02470  -0.02482   2.08828
   A19        2.02138  -0.00040   0.00000  -0.00323  -0.00328   2.01810
   A20        1.80252   0.00090   0.00000   0.00202   0.00196   1.80448
   A21        1.98068   0.00032   0.00000   0.00076   0.00077   1.98145
   A22        1.76170  -0.00018   0.00000   0.00123   0.00119   1.76289
   A23        1.91564   0.00003   0.00000   0.00065   0.00065   1.91629
   A24        1.69728  -0.00021   0.00000   0.00488   0.00490   1.70218
   A25        2.00544   0.00013   0.00000  -0.00010  -0.00010   2.00534
   A26        2.08467  -0.00013   0.00000  -0.00719  -0.00719   2.07749
   A27        2.57952   0.00043   0.00000  -0.00106  -0.00108   2.57845
   A28        1.91063   0.00272   0.00000   0.03271   0.03221   1.94284
   A29        1.91063   0.00320   0.00000   0.02576   0.02540   1.93603
   A30        1.91063   0.00328   0.00000   0.03057   0.03004   1.94067
   A31        1.91063  -0.00337   0.00000  -0.03689  -0.03720   1.87343
   A32        1.91063  -0.00285   0.00000  -0.02242  -0.02305   1.88758
   A33        1.91063  -0.00299   0.00000  -0.02973  -0.03010   1.88054
    D1        0.05723  -0.00006   0.00000   0.00261   0.00275   0.05998
    D2       -3.12890  -0.00011   0.00000   0.00226   0.00238  -3.12652
    D3       -3.09229  -0.00001   0.00000   0.02523   0.02496  -3.06733
    D4        0.00476  -0.00006   0.00000   0.02488   0.02459   0.02936
    D5        0.00057  -0.00003   0.00000  -0.00487  -0.00504  -0.00447
    D6       -3.14103  -0.00021   0.00000  -0.01448  -0.01460   3.12756
    D7       -3.13307  -0.00007   0.00000  -0.02752  -0.02739   3.12273
    D8        0.00852  -0.00026   0.00000  -0.03714  -0.03695  -0.02843
    D9       -1.05836   0.00028   0.00000   0.30111   0.30095  -0.75741
   D10        1.03604  -0.00023   0.00000   0.29174   0.29143   1.32747
   D11        3.13043   0.00009   0.00000   0.28982   0.28943  -2.86332
   D12        2.07552   0.00026   0.00000   0.32278   0.32319   2.39871
   D13       -2.11327  -0.00024   0.00000   0.31341   0.31367  -1.79960
   D14       -0.01888   0.00007   0.00000   0.31149   0.31168   0.29280
   D15       -0.07551  -0.00003   0.00000   0.00110   0.00099  -0.07453
   D16        3.10619  -0.00005   0.00000   0.00129   0.00121   3.10740
   D17        3.10896   0.00004   0.00000   0.00147   0.00137   3.11033
   D18        0.00748   0.00001   0.00000   0.00166   0.00159   0.00908
   D19        0.04011  -0.00018   0.00000  -0.00449  -0.00452   0.03559
   D20       -2.93770  -0.00021   0.00000  -0.00215  -0.00213  -2.93984
   D21        3.14126  -0.00013   0.00000  -0.00464  -0.00469   3.13657
   D22        0.16345  -0.00017   0.00000  -0.00229  -0.00231   0.16114
   D23        3.08869   0.00045   0.00000   0.00915   0.00913   3.09783
   D24       -0.01070   0.00035   0.00000   0.00899   0.00901  -0.00169
   D25        0.01566  -0.00004   0.00000   0.00129   0.00136   0.01701
   D26       -3.11854  -0.00003   0.00000   0.00297   0.00306  -3.11548
   D27        2.99529  -0.00006   0.00000  -0.00168  -0.00168   2.99361
   D28       -0.13891  -0.00005   0.00000  -0.00000   0.00002  -0.13889
   D29       -0.50114  -0.00036   0.00000  -0.00881  -0.00881  -0.50995
   D30        2.79911  -0.00013   0.00000  -0.00482  -0.00472   2.79439
   D31       -0.03642   0.00008   0.00000   0.00307   0.00318  -0.03324
   D32        3.10517   0.00027   0.00000   0.01269   0.01273   3.11790
   D33        3.09753   0.00007   0.00000   0.00135   0.00144   3.09897
   D34       -0.04406   0.00025   0.00000   0.01096   0.01099  -0.03307
   D35       -1.22112   0.00031   0.00000   0.00549   0.00550  -1.21562
   D36        0.57565   0.00008   0.00000   0.01184   0.01186   0.58750
   D37        2.79168  -0.00017   0.00000   0.00443   0.00442   2.79610
   D38        0.35668  -0.00022   0.00000  -0.00642  -0.00647   0.35021
   D39       -0.66280  -0.00031   0.00000  -0.00432  -0.00434  -0.66714
   D40        1.35662  -0.00007   0.00000  -0.00189  -0.00189   1.35473
   D41       -2.76234  -0.00013   0.00000  -0.00211  -0.00212  -2.76445
         Item               Value     Threshold  Converged?
 Maximum Force            0.015546     0.000450     NO 
 RMS     Force            0.003587     0.000300     NO 
 Maximum Displacement     0.492050     0.001800     NO 
 RMS     Displacement     0.100618     0.001200     NO 
 Predicted change in Energy=-2.564541D-03
 GradGradGradGradGradGradGradGradGradGradGradGradGradGradGradGradGradGrad

                          Input orientation:                          
 ---------------------------------------------------------------------
 Center     Atomic      Atomic             Coordinates (Angstroms)
 Number     Number       Type             X           Y           Z
 ---------------------------------------------------------------------
      1          6           0        1.688164    1.170849   -0.012374
      2          6           0        0.404000    1.701364   -0.090090
      3          6           0       -0.739331    0.885612   -0.047576
      4          6           0       -0.536610   -0.525922   -0.014867
      5          6           0        0.745203   -1.062583    0.017466
      6          6           0        1.849783   -0.223607    0.038688
      7          1           0        0.852521   -2.140563    0.016775
      8          8           0       -1.601559   -1.367308   -0.212330
      9          8           0       -1.952703    1.411617   -0.084219
     10          1           0        0.245412    2.772348   -0.144987
     11          6           0       -2.836343   -0.875308    0.183824
     12          1           0       -2.944289   -0.788676    1.269568
     13          1           0       -2.689405    0.428065   -0.082316
     14          1           0       -3.628645   -1.428218   -0.311642
     15          1           0        2.844631   -0.648797    0.086124
     16          6           0        2.883651    2.089906    0.034720
     17          1           0        2.786153    2.904939   -0.684734
     18          1           0        2.990988    2.540517    1.024968
     19          1           0        3.804577    1.550179   -0.186326
 ---------------------------------------------------------------------
                    Distance matrix (angstroms):
                    1          2          3          4          5
     1  C    0.000000
     2  C    1.391604   0.000000
     3  C    2.444449   1.405157   0.000000
     4  C    2.797974   2.418928   1.426392   0.000000
     5  C    2.424517   2.787004   2.450211   1.389998   0.000000
     6  C    1.404719   2.410889   2.818035   2.406062   1.387238
     7  H    3.415348   3.869496   3.419923   2.130200   1.083310
     8  O    4.159868   3.667964   2.417898   1.371510   2.377594
     9  O    3.649527   2.374456   1.322988   2.400872   3.662062
    10  H    2.159611   1.084053   2.130489   3.392208   3.870772
    11  C    4.969549   4.148987   2.748062   2.334592   3.590295
    12  H    5.190639   4.388622   3.065933   2.741483   3.905782
    13  H    4.440690   3.345222   2.003334   2.355667   3.745466
    14  H    5.925636   5.109364   3.711021   3.234639   4.401425
    15  H    2.158294   3.392785   3.900907   3.384980   2.140918
    16  C    1.508666   2.513008   3.818782   4.306181   3.809389
    17  H    2.159796   2.734382   4.112504   4.822892   4.516613
    18  H    2.156251   2.939394   4.219519   4.788345   4.363593
    19  H    2.157164   3.405296   4.594344   4.815132   4.028378
                    6          7          8          9         10
     6  C    0.000000
     7  H    2.160956   0.000000
     8  O    3.644561   2.583200   0.000000
     9  O    4.141010   4.527413   2.803951   0.000000
    10  H    3.403453   4.952923   4.533497   2.585922   0.000000
    11  C    4.733451   3.903396   1.386973   2.466311   4.786515
    12  H    4.981716   4.220528   2.081769   2.767177   4.985584
    13  H    4.587325   4.376404   2.103254   1.228864   3.756693
    14  H    5.620230   4.549301   2.030431   3.305323   5.716716
    15  H    1.082940   2.489714   4.513750   5.223863   4.302742
    16  C    2.534017   4.692832   5.668374   4.885135   2.730994
    17  H    3.344836   5.448682   6.142254   5.004737   2.600822
    18  H    3.148886   5.244235   6.155769   5.190837   2.993447
    19  H    2.649183   4.730482   6.143184   5.759852   3.763384
                   11         12         13         14         15
    11  C    0.000000
    12  H    1.094530   0.000000
    13  H    1.338358   1.836576   0.000000
    14  H    1.085789   1.837820   2.092976   0.000000
    15  H    5.686328   5.910304   5.640351   6.532152   0.000000
    16  C    6.444615   6.616340   5.816731   7.409936   2.739463
    17  H    6.830603   7.092253   6.039831   7.750166   3.636851
    18  H    6.806847   6.809615   6.160795   7.833066   3.327848
    19  H    7.079677   7.289517   6.591036   8.008704   2.414793
                   16         17         18         19
    16  C    0.000000
    17  H    1.091512   0.000000
    18  H    1.093235   1.760069   0.000000
    19  H    1.090078   1.766627   1.763500   0.000000
 Stoichiometry    C8H9O2(2)
 Framework group  C1[X(C8H9O2)]
 Deg. of freedom    51
 Full point group                 C1      NOp   1
 Largest Abelian subgroup         C1      NOp   1
 Largest concise Abelian subgroup C1      NOp   1
                         Standard orientation:                         
 ---------------------------------------------------------------------
 Center     Atomic      Atomic             Coordinates (Angstroms)
 Number     Number       Type             X           Y           Z
 ---------------------------------------------------------------------
      1          6           0       -1.924968   -0.047939   -0.000137
      2          6           0       -0.972559   -1.060399   -0.066501
      3          6           0        0.405099   -0.786391   -0.028512
      4          6           0        0.800690    0.583956   -0.012669
      5          6           0       -0.147090    1.600504    0.008255
      6          6           0       -1.498916    1.290165    0.034420
      7          1           0        0.198294    2.627193   -0.005119
      8          8           0        2.117223    0.910662   -0.215255
      9          8           0        1.294869   -1.765140   -0.054150
     10          1           0       -1.268381   -2.102459   -0.108580
     11          6           0        3.040877   -0.040679    0.191574
     12          1           0        3.104622   -0.150937    1.278670
     13          1           0        2.370812   -1.171495   -0.060359
     14          1           0        3.990001    0.131585   -0.306848
     15          1           0       -2.230927    2.087309    0.072903
     16          6           0       -3.392564   -0.393586    0.052430
     17          1           0       -3.639430   -1.185241   -0.657315
     18          1           0       -3.674798   -0.748251    1.047277
     19          1           0       -4.010336    0.474331   -0.178544
 ---------------------------------------------------------------------
 Rotational constants (GHZ):           3.0662531           0.9607156           0.7415275
 Standard basis: 6-311G(d,p) (5D, 7F)
 There are   244 symmetry adapted cartesian basis functions of A   symmetry.
 There are   234 symmetry adapted basis functions of A   symmetry.
   234 basis functions,   392 primitive gaussians,   244 cartesian basis functions
    37 alpha electrons       36 beta electrons
       nuclear repulsion energy       509.6415558143 Hartrees.
 NAtoms=   19 NActive=   19 NUniq=   19 SFac= 1.00D+00 NAtFMM=   60 NAOKFM=F Big=F
 Integral buffers will be    131072 words long.
 Raffenetti 2 integral format.
 Two-electron integral symmetry is turned on.
 One-electron integrals computed using PRISM.
 NBasis=   234 RedAO= T EigKep=  2.05D-04  NBF=   234
 NBsUse=   234 1.00D-06 EigRej= -1.00D+00 NBFU=   234
 Initial guess from the checkpoint file:  "SR-12-ts-SR-13.chk"
 B after Tr=     0.000000    0.000000    0.000000
         Rot=    0.999987    0.004677    0.000354    0.001747 Ang=   0.57 deg.
 Initial guess <Sx>= 0.0000 <Sy>= 0.0000 <Sz>= 0.5000 <S**2>= 0.7552 S= 0.5026
 ExpMin= 1.03D-01 ExpMax= 8.59D+03 ExpMxC= 1.30D+03 IAcc=3 IRadAn=         5 AccDes= 0.00D+00
 Harris functional with IExCor=  402 and IRadAn=       5 diagonalized for initial guess.
 HarFok:  IExCor=  402 AccDes= 0.00D+00 IRadAn=         5 IDoV= 1 UseB2=F ITyADJ=14
 ICtDFT=  3500011 ScaDFX=  1.000000  1.000000  1.000000  1.000000
 FoFCou: FMM=F IPFlag=           0 FMFlag=      100000 FMFlg1=           0
         NFxFlg=           0 DoJE=T BraDBF=F KetDBF=T FulRan=T
         wScrn=  0.000000 ICntrl=       500 IOpCl=  0 I1Cent=   200000004 NGrid=           0
         NMat0=    1 NMatS0=      1 NMatT0=    0 NMatD0=    1 NMtDS0=    0 NMtDT0=    0
 Petite list used in FoFCou.
 Requested convergence on RMS density matrix=1.00D-08 within 128 cycles.
 Requested convergence on MAX density matrix=1.00D-06.
 Requested convergence on             energy=1.00D-06.
 No special actions if energy rises.
 Integral accuracy reduced to 1.0D-05 until final iterations.
 Initial convergence to 1.0D-05 achieved.  Increase integral accuracy.
 SCF Done:  E(UB3LYP) =  -460.748469451     A.U. after   16 cycles
            NFock= 16  Conv=0.63D-08     -V/T= 2.0038
 <Sx>= 0.0000 <Sy>= 0.0000 <Sz>= 0.5000 <S**2>= 0.7553 S= 0.5026
 <L.S>=  0.00000000000    
 Annihilation of the first spin contaminant:
 S**2 before annihilation     0.7553,   after     0.7500
 Calling FoFJK, ICntrl=      2127 FMM=F ISym2X=0 I1Cent= 0 IOpClX= 1 NMat=1 NMatS=1 NMatT=0.
 ***** Axes restored to original set *****
 -------------------------------------------------------------------
 Center     Atomic                   Forces (Hartrees/Bohr)
 Number     Number              X              Y              Z
 -------------------------------------------------------------------
      1        6          -0.000730038    0.000311672    0.000108693
[...]
 61603,-0.02654779,-0.00551805,0.01360535,-0.20852246,0.01314545,-0.067
 84036,0.58321657,-0.00073787,0.00222908,-0.00221511,0.00219441,0.00146
 953,0.00115144,0.01079525,-0.00029002,-0.06320309,0.03614723,0.0013698
 6,0.13707391,0.04142200,-0.06952825,0.00793166,-0.05743219,-0.00221703
 ,-0.00156293,0.03119492,0.05943978,-0.00927570,-0.26587704,0.06220247,
 -0.01348535,0.67081758,-0.01995694,-0.03994827,0.00161361,-0.00874238,
 -0.00326174,-0.00053110,0.03154572,-0.00612068,0.00096083,0.11607172,-
 0.16333524,0.00798989,0.01694978,0.74276928,0.00127000,0.00259979,0.00
 424782,0.00014059,-0.00007840,0.00091619,-0.00477052,0.00885993,0.0003
 0354,-0.01822930,0.00075441,-0.05669203,0.03226152,-0.02178282,0.12414
 283,-0.12585534,0.05735977,-0.00690048,0.01498518,0.03412430,-0.003470
 80,-0.01003890,-0.02007269,0.00263984,-0.06435055,0.00338206,-0.003494
 46,-0.26788745,-0.14186557,-0.00618311,0.73531877,-0.01127999,-0.28138
 091,0.01317474,0.08043305,-0.01681777,0.00343387,-0.04441910,-0.038381
 66,0.00593313,-0.05257129,0.04621534,-0.00176768,-0.07568754,-0.210237
 29,-0.00099495,-0.00834742,0.63836274,-0.00268200,0.01638975,-0.064441
 01,-0.00502640,0.00414807,0.00578022,0.00243884,0.00155784,-0.00075532
 ,0.00073002,-0.00279810,0.00190672,-0.00772202,0.00078528,-0.05350106,
 0.03416297,-0.03091339,0.12388915,-0.00380199,-0.00270416,-0.00040439,
 -0.00093898,-0.00001581,-0.00006531,-0.00490664,0.00041883,-0.00048084
 ,0.00031538,0.02925242,-0.00137439,-0.06146445,0.02988466,-0.00217892,
 0.00823632,-0.02516358,0.00110315,0.05860790,-0.00334848,0.00015815,-0
 .00000106,-0.00031626,0.00069167,-0.00001275,0.00201590,0.00099671,-0.
 00015882,-0.00093074,-0.00983135,0.00055236,0.03154586,-0.33400748,0.0
 1110829,0.00450488,-0.01290062,0.00105093,-0.03247756,0.35443036,-0.00
 022380,0.00043659,0.00742067,-0.00018190,0.00005093,-0.00128957,-0.000
 39918,-0.00019017,0.00518071,0.00097975,0.00111095,0.00455069,-0.00422
 366,0.01108165,-0.03426206,0.00055080,-0.00006284,0.00267696,0.0023173
 1,-0.01230733,0.02448851,0.00725836,-0.02384653,0.00092204,-0.01498597
 ,-0.00198209,0.00872648,0.02409966,-0.05335098,-0.00602237,-0.13143062
 ,-0.05452066,-0.01797645,-0.06900298,-0.03043637,-0.00200908,0.0086238
 5,0.02535712,-0.00127187,0.00365325,-0.00159659,0.00048517,0.45101982,
 -0.00254728,0.00230005,0.00077066,0.00583719,-0.00303551,0.00096453,-0
 .03681966,-0.04094341,-0.01126408,-0.07159581,-0.17422648,-0.02888889,
 0.00286298,0.01495931,0.00440141,0.00154994,-0.00457663,0.00085138,-0.
 00049589,0.00106099,-0.00011023,0.03928241,0.30283687,0.00069838,-0.00
 304302,-0.00067643,-0.00240220,0.00079154,0.00644273,-0.00467925,-0.00
 073789,0.00430712,-0.00815004,-0.02638250,-0.04613014,-0.00560869,0.00
 055257,0.00173448,0.00249035,0.00193215,0.00553119,0.00058129,-0.00008
 199,-0.00376399,-0.05752671,0.07579245,0.10671883,0.02255487,-0.036446
 08,-0.00075919,-0.10165833,0.00307107,0.01075467,-0.21806592,0.0534621
 6,-0.00975148,0.01414066,0.07501890,-0.01375363,-0.01638869,0.00033724
 ,0.00486346,0.00322395,0.03008051,-0.00137446,-0.00016288,-0.00029778,
 -0.00017767,-0.05911956,0.00045513,-0.00178227,0.30137429,0.00487710,-
 0.01794935,0.00020097,-0.03083823,0.01800775,0.00019060,0.11688191,-0.
 15483196,0.01089849,0.06485043,-0.01189189,0.00760280,-0.01394661,-0.0
 0337289,0.00008052,0.00759515,0.01132701,-0.00095882,0.00169976,-0.000
 80080,0.00023078,-0.02623946,0.01540096,-0.00474668,-0.14576519,0.2168
 9422,0.00087128,-0.00008325,0.00489779,-0.00313067,-0.00236267,0.01031
 317,-0.01018484,0.00689760,-0.04966972,-0.00865055,0.00762863,0.010000
 36,0.00340373,0.00140874,0.00532475,-0.00009442,-0.00149376,-0.0010014
 1,-0.00008174,0.00014016,0.00010567,-0.00511969,0.00043334,-0.00221129
 ,0.00634216,-0.02343954,0.03899240,0.00026034,0.02778842,-0.00219237,-
 0.06155583,0.03938195,-0.00403100,0.00425065,-0.02542630,0.00210236,-0
 .00361866,-0.00164558,-0.00024486,-0.00088227,-0.00050643,-0.00005636,
 -0.00513721,0.00127477,-0.00068968,0.00009801,0.00002897,0.00004294,-0
 .00040262,-0.00132126,0.00016132,0.00360478,0.00101579,0.00044432,0.06
 247000,-0.00053424,-0.00832373,0.00037324,0.03873410,-0.32780381,0.027
 15342,0.00378218,-0.01547240,0.00164008,-0.00316586,-0.00046618,0.0006
 7979,-0.00018196,0.00047963,-0.00034844,0.00191847,0.00130507,0.000692
 10,0.00000001,-0.00008645,-0.00002140,0.00038227,-0.00075963,-0.000002
 51,0.00232775,0.00210800,-0.00044953,-0.04175172,0.34842062,0.00056733
 ,0.00284443,0.00206848,-0.00507498,0.02573852,-0.03450253,0.00034964,0
 .00070365,0.00420429,0.00002799,0.00030949,0.00541048,0.00030430,-0.00
 048748,-0.00125356,-0.00119705,0.00018867,0.00641826,0.00001458,0.0000
 0176,-0.00038936,0.00007006,0.00003260,-0.00019323,-0.00005294,0.00008
 378,-0.00386369,0.00472996,-0.02927433,0.02582991,-0.00559880,0.014226
 46,-0.00036766,0.01142411,0.00284949,-0.00672996,-0.02293500,0.0268446
 0,0.00151060,-0.08345064,-0.02920920,-0.00089443,0.01282794,-0.0045235
 5,-0.00174922,-0.00591971,-0.01103261,-0.00023149,-0.00066915,0.000612
 35,0.00029732,-0.17947917,0.05937081,0.04828149,0.02877988,-0.01577377
 ,0.01007093,0.00009429,-0.00005599,0.00013920,0.50757513,0.00727488,-0
 .01628737,-0.00028185,-0.01649332,-0.00443322,0.00895544,0.03369153,-0
 .03324497,0.00240863,0.02605038,0.05061987,0.00782302,-0.01619596,-0.0
 0247927,0.00146918,0.00618071,0.01441865,-0.00052127,0.00078644,-0.000
 59176,-0.00028820,0.00925230,-0.09731575,-0.04691423,-0.11676072,-0.10
 480996,-0.00174958,-0.00020821,0.00072272,-0.00002599,0.10646326,0.259
 80879,-0.00374995,0.00681553,0.00001243,0.00866913,0.00069523,-0.00162
 050,-0.01785181,0.00964263,-0.00031452,-0.01649749,-0.00229467,-0.0028
 3484,0.00221404,-0.00383795,0.00109221,-0.00353273,-0.00482263,0.00118
 200,0.00006441,0.00000381,-0.00037311,0.07008737,-0.04325105,-0.073218
 39,0.03013029,0.01789194,0.00647154,-0.00038558,-0.00030381,0.00019230
 ,0.02060640,0.15183557,0.50803982,0.00044282,-0.00096275,0.00014091,-0
 .00089290,-0.00010252,-0.00005466,0.00226149,-0.00174092,0.00010513,0.
 00588189,0.00435143,0.00212892,-0.00200095,0.00011307,-0.00068362,0.00
 051900,0.00124028,-0.00025729,0.00002292,0.00000119,0.00013138,-0.0194
 3834,0.00667283,0.03556656,-0.00161741,-0.00058224,0.00049437,0.000048
 83,0.00002186,0.00002025,-0.05076303,-0.00255825,0.01033978,0.05907660
 ,-0.00129918,0.00321083,-0.00004635,0.00288960,0.00083464,-0.00224317,
 -0.00776485,0.00551977,0.00117200,-0.00950524,-0.00966349,0.00206442,0
 .00297593,0.00012152,-0.00035779,-0.00127551,-0.00279445,0.00003543,-0
 .00016842,0.00019883,0.00004314,0.02293701,-0.00152436,-0.01874722,0.0
 1366744,0.00797221,-0.00020216,0.00000333,-0.00016396,0.00007638,-0.00
 877675,-0.02269251,-0.02106387,-0.00474366,0.03781664,0.00033676,-0.00
 021090,-0.00005507,-0.00089433,-0.00020525,0.00016196,0.00269460,-0.00
 051497,-0.00014741,-0.00222749,-0.00097030,-0.00009402,0.00107649,0.00
 016088,0.00010526,-0.00013966,-0.00007756,-0.00008730,-0.00001595,-0.0
 0000494,0.00003653,0.01081676,-0.00121297,-0.00105100,-0.00307327,-0.0
 0078872,0.00178836,0.00003595,0.00005351,-0.00004418,0.01644553,-0.040
 61593,-0.30385974,-0.02872034,0.03731201,0.32081845,-0.00539508,0.0081
 2988,0.00046892,0.01206510,0.00538636,-0.00526922,-0.05875842,0.003210
 46,-0.00358562,-0.01817026,-0.01781921,0.00050145,0.00474325,-0.001094
 94,-0.00109231,-0.00261401,-0.00687866,0.00010999,-0.00014705,0.000150
 49,0.00020014,0.01871125,0.01507718,0.00148701,0.02583338,0.03789423,0
 .00633812,-0.00021618,-0.00060669,0.00005819,-0.03433587,0.06513944,-0
 .01380044,0.00082327,-0.01024132,0.00179081,0.05604600,-0.01120118,0.0
 2097062,0.00070667,0.03130484,0.00409526,-0.00960713,-0.07204834,0.052
 13435,-0.00402059,-0.03352166,-0.04170906,0.00121567,0.01251612,-0.002
 03154,-0.00360916,-0.00636559,-0.01651513,0.00040079,-0.00040163,0.000
 57287,0.00033213,0.07124367,-0.02634821,0.00926089,0.11051681,0.023077
 20,0.01099542,-0.00065816,-0.00116029,0.00020717,-0.01245551,0.0806657
 6,-0.01922762,-0.00125489,-0.01848219,0.00457293,-0.08876996,-0.069508
 86,0.00141383,-0.00207910,0.00100849,-0.00272408,-0.00057113,0.0024734
 2,0.00610613,-0.00501066,0.00008563,0.00523825,0.00407879,0.00152583,-
 0.00229381,-0.00012075,-0.00004805,0.00080143,0.00238562,-0.00017084,0
 .00008126,-0.00006319,-0.00003439,-0.00331533,-0.00345841,-0.00045225,
 -0.01241510,-0.00727920,-0.02017595,0.00002064,0.00007498,-0.00027329,
 -0.00129414,-0.00140496,-0.02742132,0.00088938,0.01778789,-0.00927647,
 0.00697476,0.00288837,0.05173011,0.00061034,-0.00122784,0.00007005,-0.
 00109265,-0.00023780,0.00034328,0.00249725,-0.00207975,0.00006363,0.00
 085535,0.00788363,-0.00003875,-0.00209259,-0.00125838,0.00022531,0.000
 17932,0.00156861,-0.00012187,0.00003635,0.00002595,-0.00004118,-0.0382
 6559,-0.01815806,-0.00884115,-0.00305141,-0.00066731,-0.00037529,0.000
 01800,-0.00000917,-0.00001147,-0.17715382,-0.10318904,-0.08595613,0.00
 562668,0.00154983,0.00181294,0.00181117,0.00173243,0.00031351,0.210119
 71,-0.00183796,0.00360737,-0.00014272,0.00326295,0.00047524,-0.0007300
 3,-0.00675110,0.00589093,-0.00031006,-0.00418591,-0.00559773,-0.002508
 57,0.00349030,-0.00014233,-0.00127608,-0.00129666,-0.00353102,0.000350
 75,-0.00000568,0.00005473,0.00000304,0.02359762,0.01179898,0.01223376,
 0.00712692,-0.00285578,0.00263851,-0.00009967,-0.00011148,0.00004476,-
 0.12740746,-0.12514510,-0.09129722,-0.00055460,-0.00017578,0.00247517,
 -0.00916932,-0.00421782,-0.00733766,0.11406639,0.12030062,0.00147107,-
 0.00276595,0.00006903,-0.00268745,-0.00038971,0.00053070,0.00677195,-0
 .00472621,0.00004751,0.00796554,0.00337090,0.00250229,-0.00182665,0.00
 098796,0.00104750,0.00112466,0.00243026,-0.00025199,-0.00000519,-0.000
 07282,0.00003083,0.00398807,0.00631347,0.00302014,-0.00768079,-0.00046
 496,-0.00037790,0.00007247,0.00010435,-0.00003071,-0.08723764,-0.07971
 426,-0.10714210,-0.02014560,-0.01608003,-0.00831211,0.00538285,0.00496
 012,0.00134554,0.09257907,0.08572337,0.10765636,-0.00156848,-0.0003980
 8,-0.00005604,0.00180643,0.00029359,-0.00009397,-0.00003417,-0.0002651
 6,0.00012594,-0.00040784,-0.00395415,-0.00043770,-0.01901478,0.0116508
 9,-0.00180947,-0.29047036,0.09868446,-0.01906231,0.00090445,-0.0001396
 0,0.00033527,-0.00162450,0.00063397,0.00015354,0.00018140,0.00009565,-
 0.00003528,-0.00003387,0.00000378,-0.00006997,-0.00000076,-0.00027538,
 -0.00030160,-0.00001704,0.00000553,0.00003055,0.00000955,-0.00009945,0
 .00002368,-0.00012759,-0.00002114,0.00008358,0.30894636,0.02945052,-0.
 00734863,0.00206842,-0.00066317,-0.00573328,0.00070949,-0.00101031,-0.
 00089410,0.00003429,-0.00256552,-0.00190152,0.00015088,-0.01941930,0.0
 1062074,-0.00156931,0.09891653,-0.10007459,0.00925514,0.00056265,0.000
 84654,-0.00020429,-0.00114359,0.00046444,0.00023865,0.00034753,0.00044
 786,-0.00005780,0.00148609,-0.00040415,0.00018435,-0.00018134,-0.00015
 742,-0.00025963,0.00001206,0.00000840,0.00000541,-0.00004584,-0.000178
 69,0.00001732,-0.00008301,0.00001045,0.00004496,-0.10578548,0.10311414
 ,-0.00146566,0.00070729,0.00141355,-0.00065933,0.00114269,0.00540434,0
 .00024460,-0.00076542,-0.00096193,0.00042537,0.00106427,0.00719365,-0.
 00014532,0.00013861,0.00165671,-0.01921061,0.00873597,-0.03296704,0.00
 021596,-0.00023706,-0.00439058,-0.00032734,-0.00096214,0.00085846,0.00
 001710,0.00038198,-0.00046164,-0.00011752,0.00012744,0.00047885,0.0002
 5707,0.00019169,-0.00018125,0.00006097,-0.00004222,-0.00000615,-0.0001
 1586,0.00001023,0.00001746,0.00001983,0.00015005,-0.00015301,0.0209386
 3,-0.01025845,0.02504549,-0.16339110,-0.05637634,-0.00453788,-0.029592
 81,-0.01918716,-0.00161953,-0.00186683,0.00385342,-0.00126621,-0.00220
 688,-0.00041238,0.00012181,0.00216665,0.00351127,0.00032443,0.00362263
 ,-0.00531249,0.00106075,0.00053553,0.00048888,-0.00011415,0.00128999,-
 0.00022123,-0.00007554,0.00051073,-0.00085859,-0.00022510,0.00129434,-
 0.00133160,0.00058486,-0.00064984,0.00079350,0.00006104,0.00004277,-0.
 00024164,-0.00002461,-0.00033867,-0.00042340,0.00016949,0.00005443,-0.
 00011807,0.00007977,0.00060809,0.00113897,-0.00064462,0.50966336,-0.05
 990711,-0.13257348,-0.00137336,0.00479477,0.00946597,0.00091310,0.0031
 8023,-0.00078818,0.00233736,-0.00061428,-0.00047049,0.00000452,0.00332
 715,-0.00395407,0.00012977,-0.02996347,-0.02287573,-0.00143475,-0.0009
 7430,-0.00059417,-0.00000651,0.00040096,0.00037973,-0.00001093,0.00083
 224,0.00078165,-0.00022477,0.00173689,0.00058855,-0.00107948,-0.000204
 39,-0.00014110,-0.00011375,0.00003487,0.00005645,-0.00002601,0.0002076
 8,-0.00001507,-0.00010021,0.00002127,-0.00003692,0.00003904,-0.0009630
 8,0.00144448,0.00007982,-0.04607928,0.54584635,-0.00163582,0.00302791,
 -0.06909919,-0.00150032,-0.00239386,0.00483267,0.00068055,0.00087690,0
 .00804118,-0.00043693,0.00050378,-0.00002762,0.00016039,0.00154280,0.0
 0471613,0.00239911,0.00116269,0.00335212,0.00026250,0.00012766,0.00014
 385,-0.00121876,-0.00051920,-0.00087478,-0.00096130,0.00020113,-0.0002
 0595,-0.00029515,-0.00022823,-0.00422411,0.00066362,-0.00101547,-0.000
 08450,0.00002043,0.00025351,0.00001681,0.00054979,0.00076586,-0.000312
 44,-0.00000878,-0.00010590,0.00007177,0.00029877,-0.00073403,-0.002345
 57,-0.00489671,-0.00976835,0.53029482,0.00618703,-0.02489035,0.0105439
 7,0.00134794,-0.00132693,0.00006837,-0.00014211,0.00028899,0.00013729,
 -0.00013296,-0.00018185,0.00017101,0.00077337,-0.00115999,-0.00040547,
 -0.00449424,-0.00204871,-0.00029311,-0.00028268,-0.00020467,-0.0000014
 8,0.00017769,0.00001476,-0.00006643,0.00050972,0.00022493,-0.00005046,
 -0.00035048,0.00051303,-0.00009851,-0.00016427,0.00017070,-0.00008171,
 0.00001852,-0.00002721,0.00000401,-0.00009409,-0.00025733,0.00003016,0
 .00001636,-0.00005552,0.00004354,0.00008170,-0.00023600,0.00016442,-0.
 06203461,0.05636944,-0.02214988,0.06662410,0.00486364,-0.01827418,0.00
 623253,0.00266868,0.00097227,-0.00062261,-0.00072313,0.00025395,-0.000
 40895,-0.00017084,0.00000546,-0.00000081,0.00079487,-0.00073947,-0.000
 23011,-0.00412453,-0.00116866,0.00053457,-0.00025825,-0.00018034,-0.00
 003909,0.00024178,-0.00000975,0.00011386,0.00052077,0.00037128,0.00001
 120,-0.00075147,0.00078622,0.00041951,-0.00029482,0.00038628,-0.000179
 17,0.00001318,-0.00008810,0.00001545,-0.00020816,-0.00050510,0.0000615
 9,0.00001357,-0.00010627,0.00007915,-0.00003942,0.00033707,0.00007537,
 0.05279387,-0.26006408,0.08891460,-0.05676211,0.28357998,-0.00010338,-
 0.00348492,-0.00041904,-0.00045589,0.00001575,0.00022845,0.00037652,-0
 .00014927,-0.00010300,0.00043729,-0.00016342,-0.00005438,-0.00072099,-
 0.00033823,0.00033425,-0.00006840,0.00011170,0.00100534,-0.00001691,-0
 .00003031,-0.00011906,-0.00016987,0.00008451,0.00000052,-0.00025237,-0
 .00016495,-0.00002805,0.00032633,-0.00007737,0.00022114,0.00014711,-0.
 00017938,0.00008921,-0.00001497,0.00004125,-0.00000879,0.00007700,0.00
 021592,-0.00002757,-0.00001618,0.00006161,-0.00004223,-0.00007924,0.00
 006108,-0.00017327,-0.02082190,0.09048901,-0.08331333,0.02551141,-0.09
 805342,0.08610676,-0.01200849,-0.00483774,-0.02438964,-0.00063980,-0.0
 0211218,0.00048759,-0.00008810,0.00043283,0.00154546,0.00073056,-0.000
 20291,0.00024579,-0.00128448,-0.00017320,0.00067389,0.00058220,0.00174
 166,0.00016902,-0.00001703,-0.00004709,-0.00001182,-0.00085144,-0.0003
 0238,-0.00030019,-0.00039466,-0.00010839,-0.00003277,-0.00009832,0.000
 04499,-0.00088919,0.00035770,-0.00028892,-0.00004209,-0.00001946,0.000
 06215,0.00003506,0.00011526,0.00019177,-0.00008130,-0.00002522,-0.0000
 3079,0.00002460,0.00023534,-0.00014234,-0.00035706,-0.06780264,-0.0087
 9569,-0.07689254,-0.00295712,-0.00086948,-0.00719946,0.07580317,-0.008
 06602,-0.00285778,-0.01859144,0.00165238,-0.00057499,-0.00015037,-0.00
 121472,-0.00033354,0.00059254,-0.00071923,0.00040100,0.00007617,0.0006
 8567,0.00024065,0.00075109,-0.00131184,-0.00066409,0.00069790,0.000004
 48,-0.00004804,-0.00002971,0.00000533,-0.00034623,-0.00011245,0.000776
 01,0.00024408,-0.00002112,-0.00007104,0.00011760,-0.00005610,-0.000152
 53,0.00025350,-0.00017752,0.00001900,-0.00005060,0.00002476,-0.0001390
 3,-0.00042108,0.00003711,0.00002229,-0.00013811,0.00010057,0.00025220,
 -0.00037032,-0.00043504,-0.00935003,-0.04879800,-0.02949621,0.00870559
 ,0.00461601,0.02832754,0.01318977,0.05066720,-0.00141210,-0.00134276,0
 .00312010,0.00059841,-0.00030726,0.00017139,-0.00004828,-0.00035576,-0
 .00014160,0.00047341,0.00009073,0.00006121,-0.00061126,-0.00035006,0.0
 0019470,-0.00003211,0.00094379,0.00064598,-0.00004057,-0.00002364,-0.0
 0000149,-0.00025523,-0.00007596,-0.00012282,-0.00014079,0.00000645,0.0
 0007256,0.00005436,-0.00007978,-0.00015981,0.00013082,-0.00002612,-0.0
 0001181,-0.00001518,0.00001076,0.00001511,0.00000290,0.00002945,0.0000
 0283,-0.00001545,0.00000808,-0.00000578,-0.00002441,-0.00014538,-0.000
 35570,-0.07429311,-0.02713769,-0.27260697,-0.00274666,-0.00119730,-0.0
 1095542,0.08329476,0.03136469,0.29669829,-0.02204980,0.00955014,0.0121
 8079,-0.00232196,-0.00360513,0.00069621,-0.00050477,0.00071462,-0.0012
 2862,0.00055645,-0.00009655,0.00013203,-0.00061785,-0.00034660,-0.0005
 9181,0.00147657,0.00236092,-0.00104223,-0.00001925,-0.00001570,0.00003
 477,-0.00023308,-0.00029564,0.00001253,-0.00025481,-0.00035516,0.00001
 590,0.00015620,-0.00009121,0.00052774,0.00006102,0.00016666,0.00002706
 ,-0.00001565,-0.00004704,0.00001620,-0.00008859,-0.00004855,0.00006125
 ,-0.00001609,-0.00001028,-0.00000383,0.00052606,-0.00063845,0.00069939
 ,-0.19190511,0.07659609,0.10496105,-0.00508387,0.00229186,0.00304390,0
 .00836252,-0.00428829,-0.00491951,0.21197202,-0.01592348,0.00841736,0.
 01160844,-0.00133300,-0.00193414,-0.00006780,-0.00108803,0.00088361,-0
 .00072627,-0.00050487,-0.00022191,0.00022798,0.00038573,0.00043913,0.0
 0009267,-0.00090852,0.00028976,-0.00012361,0.00005603,0.00003017,-0.00
 002942,0.00041581,-0.00011539,-0.00013644,0.00072930,-0.00011962,-0.00
 006943,-0.00027639,0.00022366,0.00008830,-0.00029906,0.00042285,-0.000
 05583,0.00002006,-0.00010386,0.00000743,-0.00022259,-0.00042302,0.0000
 9360,0.00002639,-0.00007998,0.00005980,0.00032087,-0.00023143,-0.00010
 506,0.07733230,-0.08825189,-0.05311558,0.02086323,-0.01017256,-0.01676
 708,0.00224792,-0.00193727,-0.00141223,-0.08184170,0.09288454,-0.00371
 850,0.00072050,0.00106861,-0.00013480,0.00020526,0.00009915,-0.0007104
 2,-0.00069652,-0.00008807,-0.00022728,0.00027188,-0.00012535,0.0001242
 6,0.00022557,-0.00005959,0.00015465,-0.00029979,0.00078803,0.00002376,
 0.00000895,-0.00001079,0.00011677,0.00009858,0.00008085,0.00006761,0.0
 0007343,0.00002901,0.00002188,-0.00011350,0.00011075,-0.00004554,0.000
 05373,-0.00001743,-0.00000640,-0.00001396,-0.00000025,-0.00007848,-0.0
 0009712,0.00000326,-0.00000136,0.00001913,-0.00000584,-0.00001995,0.00
 045892,-0.00007237,0.10611720,-0.05271682,-0.11837490,-0.01078047,0.00
 427365,0.00725845,0.02371991,-0.01290241,-0.01662078,-0.11462282,0.060
 43052,0.12593724\\-0.00000052,0.00000148,0.00000025,0.00000093,-0.0000
 0077,-0.00000025,0.00000022,-0.00000013,0.00000029,-0.00000032,0.00000
 024,0.00000007,-0.00000032,-0.00000010,0.00000032,0.00000085,-0.000000
 13,-0.00000014,-0.00000039,0.,0.00000029,-0.00000021,0.00000042,0.0000
 0025,-0.00000011,0.00000046,-0.00000007,0.00000034,0.,-0.00000027,-0.0
 0000015,0.00000050,0.00000009,-0.00000015,0.00000062,0.00000016,0.0000
 0004,0.00000028,0.,-0.00000026,0.00000054,0.00000026,-0.00000036,-0.00
 000024,0.00000013,-0.00000028,-0.00000015,-0.00000173,0.00000089,-0.00
 000205,0.00000041,-0.00000052,-0.00000076,0.00000006,0.00000032,-0.000
 00022,-0.00000012\\\@
 The archive entry for this job was punched.


 Sometimes the fool who rushes in gets the job done.
                                    -- Al Bernstein
 Job cpu time:       0 days  0 hours 41 minutes 37.6 seconds.
 Elapsed time:       0 days  0 hours  2 minutes  7.9 seconds.
 File lengths (MBytes):  RWF=    210 Int=      0 D2E=      0 Chk=      7 Scr=      1
 Normal termination of Gaussian 16 at Fri Sep  9 22:58:23 2022.
