 Entering Gaussian System, Link 0=g09
 Input=SR-11-ts-P3.gjf
 Output=SR-11-ts-P3.log
 Initial command:
 /home/t1000003974/apps//g09/l1.exe "/home/t1000003974/tmp/Gau-257468.inp" -scrdir="/home/t1000003974/tmp/"
 Entering Link 1 = /home/t1000003974/apps//g09/l1.exe PID=    257469.
  
 Copyright (c) 1988,1990,1992,1993,1995,1998,2003,2009,2015,
            Gaussian, Inc.  All Rights Reserved.
  
 This is part of the Gaussian(R) 09 program.  It is based on
 the Gaussian(R) 03 system (copyright 2003, Gaussian, Inc.),
 the Gaussian(R) 98 system (copyright 1998, Gaussian, Inc.),
 the Gaussian(R) 94 system (copyright 1995, Gaussian, Inc.),
 the Gaussian 92(TM) system (copyright 1992, Gaussian, Inc.),
 the Gaussian 90(TM) system (copyright 1990, Gaussian, Inc.),
 the Gaussian 88(TM) system (copyright 1988, Gaussian, Inc.),
 the Gaussian 86(TM) system (copyright 1986, Carnegie Mellon
 University), and the Gaussian 82(TM) system (copyright 1983,
 Carnegie Mellon University). Gaussian is a federally registered
 trademark of Gaussian, Inc.
  
 This software contains proprietary and confidential information,
 including trade secrets, belonging to Gaussian, Inc.
  
 This software is provided under written license and may be
 used, copied, transmitted, or stored only in accord with that
 written license.
  
 The following legend is applicable only to US Government
 contracts under FAR:
  
                    RESTRICTED RIGHTS LEGEND
  
 Use, reproduction and disclosure by the US Government is
 subject to restrictions as set forth in subparagraphs (a)
 and (c) of the Commercial Computer Software - Restricted
 Rights clause in FAR 52.227-19.
  
 Gaussian, Inc.
 340 Quinnipiac St., Bldg. 40, Wallingford CT 06492
  
  
 ---------------------------------------------------------------
 Warning -- This program may not be used in any manner that
 competes with the business of Gaussian, Inc. or will provide
 assistance to any competitor of Gaussian, Inc.  The licensee
 of this program is prohibited from giving any competitor of
 Gaussian, Inc. access to this program.  By using this program,
 the user acknowledges that Gaussian, Inc. is engaged in the
 business of creating and licensing software in the field of
 computational chemistry and represents and warrants to the
 licensee that it is not a competitor of Gaussian, Inc. and that
 it will not use this program in any manner prohibited above.
 ---------------------------------------------------------------
  

 Cite this work as:
 Gaussian 09, Revision E.01,
 M. J. Frisch, G. W. Trucks, H. B. Schlegel, G. E. Scuseria, 
 M. A. Robb, J. R. Cheeseman, G. Scalmani, V. Barone, B. Mennucci, 
 G. A. Petersson, H. Nakatsuji, M. Caricato, X. Li, H. P. Hratchian, 
 A. F. Izmaylov, J. Bloino, G. Zheng, J. L. Sonnenberg, M. Hada, 
 M. Ehara, K. Toyota, R. Fukuda, J. Hasegawa, M. Ishida, T. Nakajima, 
 Y. Honda, O. Kitao, H. Nakai, T. Vreven, J. A. Montgomery, Jr., 
 J. E. Peralta, F. Ogliaro, M. Bearpark, J. J. Heyd, E. Brothers, 
 K. N. Kudin, V. N. Staroverov, T. Keith, R. Kobayashi, J. Normand, 
 K. Raghavachari, A. Rendell, J. C. Burant, S. S. Iyengar, J. Tomasi, 
 M. Cossi, N. Rega, J. M. Millam, M. Klene, J. E. Knox, J. B. Cross, 
 V. Bakken, C. Adamo, J. Jaramillo, R. Gomperts, R. E. Stratmann, 
 O. Yazyev, A. J. Austin, R. Cammi, C. Pomelli, J. W. Ochterski, 
 R. L. Martin, K. Morokuma, V. G. Zakrzewski, G. A. Voth, 
 P. Salvador, J. J. Dannenberg, S. Dapprich, A. D. Daniels, 
 O. Farkas, J. B. Foresman, J. V. Ortiz, J. Cioslowski, 
 and D. J. Fox, Gaussian, Inc., Wallingford CT, 2013.
 
 ******************************************
 Gaussian 09:  ES64L-G09RevE.01 30-Nov-2015
                 9-Sep-2022 
 ******************************************
 %nprocshared=30
 Will use up to   30 processors via shared memory.
 %mem=60GB
 %chk=SR-11-ts-P3.chk
 ----------------------------------------------------------------------
 # opt=(calcfc,ts,noeigentest) freq ub3lyp/6-311g(d,p) geom=connectivit
 y temperature=823.15
 ----------------------------------------------------------------------
 1/5=1,10=4,11=1,14=-1,18=20,26=3,38=1,57=2,112=823150/1,3;
 2/9=110,12=2,17=6,18=5,40=1/2;
 3/5=4,6=6,7=101,11=2,16=1,25=1,30=1,71=2,74=-5,116=2,140=1/1,2,3;
 4//1;
 5/5=2,38=5/2;
 8/6=4,10=90,11=11/1;
 11/6=1,8=1,9=11,15=111,16=1/1,2,10;
 10/6=1,13=1/2;
 6/7=2,8=2,9=2,10=2,28=1/1;
 7/10=1,18=20,25=1/1,2,3,16;
 1/5=1,10=4,11=1,14=-1,18=20,26=3/3(2);
 2/9=110/2;
 99//99;
 2/9=110/2;
 3/5=4,6=6,7=101,11=2,16=1,25=1,30=1,71=1,74=-5,116=2/1,2,3;
 4/5=5,16=3,69=1/1;
 5/5=2,38=5/2;
 7//1,2,3,16;
 1/5=1,11=1,14=-1,18=20,26=3/3(-5);
 2/9=110/2;
 6/7=2,8=2,9=2,10=2,19=2,28=1/1;
 99/9=1/99;
 -------------------
 Title Card Required
 -------------------
 Symbolic Z-matrix:
 Charge =  0 Multiplicity = 2
 C                     1.25569  -0.68276   0.01758 
 C                     0.74583   0.56644  -0.35815 
 C                    -0.65679   0.75914  -0.43673 
 C                    -1.53261  -0.34434  -0.27695 
 C                    -1.02354  -1.57941   0.09991 
 C                     0.35617  -1.73485   0.24151 
 O                    -2.85     -0.10887  -0.49737 
 H                     0.74473  -2.70566   0.53122 
 O                    -0.94002   1.75164   1.33187 
 H                    -3.35441  -0.90711  -0.30685 
 H                    -0.60429   1.05334   1.91456 
 H                    -1.05374   1.64526  -0.91109 
 C                     2.74098  -0.9081    0.17293 
 H                     3.2778   -0.73628  -0.76595 
 H                     3.17817  -0.23307   0.91594 
 H                     2.9497   -1.93153   0.48994 
 H                     1.41218   1.3723   -0.58503 
 C                    -1.96652  -2.77614   0.324 
 H                    -2.67317  -2.5348    1.09035 
 H                    -2.48695  -2.99523  -0.58487 
 H                    -1.39463  -3.6299    0.62223 
 
 Add virtual bond connecting atoms O9         and C3         Dist= 3.87D+00.

 GradGradGradGradGradGradGradGradGradGradGradGradGradGradGradGradGradGrad
 Berny optimization.
 Initialization pass.
                           ----------------------------
                           !    Initial Parameters    !
                           ! (Angstroms and Degrees)  !
 --------------------------                            --------------------------
 ! Name  Definition              Value          Derivative Info.                !
 --------------------------------------------------------------------------------
 ! R1    R(1,2)                  1.4006         calculate D2E/DX2 analytically  !
 ! R2    R(1,6)                  1.4022         calculate D2E/DX2 analytically  !
 ! R3    R(1,13)                 1.5103         calculate D2E/DX2 analytically  !
 ! R4    R(2,3)                  1.418          calculate D2E/DX2 analytically  !
 ! R5    R(2,17)                 1.07           calculate D2E/DX2 analytically  !
 ! R6    R(3,4)                  1.4178         calculate D2E/DX2 analytically  !
 ! R7    R(3,9)                  2.0477         calculate D2E/DX2 analytically  !
 ! R8    R(3,12)                 1.0806         calculate D2E/DX2 analytically  !
 ! R9    R(4,5)                  1.388          calculate D2E/DX2 analytically  !
 ! R10   R(4,7)                  1.3563         calculate D2E/DX2 analytically  !
 ! R11   R(5,6)                  1.3956         calculate D2E/DX2 analytically  !
 ! R12   R(5,18)                 1.54           calculate D2E/DX2 analytically  !
 ! R13   R(6,8)                  1.0851         calculate D2E/DX2 analytically  !
 ! R14   R(7,10)                 0.9633         calculate D2E/DX2 analytically  !
 ! R15   R(9,11)                 0.9695         calculate D2E/DX2 analytically  !
 ! R16   R(13,14)                1.0951         calculate D2E/DX2 analytically  !
 ! R17   R(13,15)                1.0949         calculate D2E/DX2 analytically  !
 ! R18   R(13,16)                1.0915         calculate D2E/DX2 analytically  !
 ! R19   R(18,19)                1.07           calculate D2E/DX2 analytically  !
 ! R20   R(18,20)                1.07           calculate D2E/DX2 analytically  !
 ! R21   R(18,21)                1.07           calculate D2E/DX2 analytically  !
 ! A1    A(2,1,6)              118.5893         calculate D2E/DX2 analytically  !
 ! A2    A(2,1,13)             121.2436         calculate D2E/DX2 analytically  !
 ! A3    A(6,1,13)             120.1658         calculate D2E/DX2 analytically  !
 ! A4    A(1,2,3)              119.7465         calculate D2E/DX2 analytically  !
 ! A5    A(1,2,17)             120.1268         calculate D2E/DX2 analytically  !
 ! A6    A(3,2,17)             120.1268         calculate D2E/DX2 analytically  !
 ! A7    A(2,3,4)              119.9351         calculate D2E/DX2 analytically  !
 ! A8    A(2,3,9)               98.9063         calculate D2E/DX2 analytically  !
 ! A9    A(2,3,12)             119.9408         calculate D2E/DX2 analytically  !
 ! A10   A(4,3,9)              101.2127         calculate D2E/DX2 analytically  !
 ! A11   A(4,3,12)             117.4356         calculate D2E/DX2 analytically  !
 ! A12   A(9,3,12)              86.0365         calculate D2E/DX2 analytically  !
 ! A13   A(3,4,5)              119.7733         calculate D2E/DX2 analytically  !
 ! A14   A(3,4,7)              116.5232         calculate D2E/DX2 analytically  !
 ! A15   A(5,4,7)              123.7003         calculate D2E/DX2 analytically  !
 ! A16   A(4,5,6)              119.2895         calculate D2E/DX2 analytically  !
 ! A17   A(4,5,18)             120.4245         calculate D2E/DX2 analytically  !
 ! A18   A(6,5,18)             120.2668         calculate D2E/DX2 analytically  !
 ! A19   A(1,6,5)              122.3044         calculate D2E/DX2 analytically  !
 ! A20   A(1,6,8)              118.962          calculate D2E/DX2 analytically  !
 ! A21   A(5,6,8)              118.7332         calculate D2E/DX2 analytically  !
 ! A22   A(4,7,10)             109.427          calculate D2E/DX2 analytically  !
 ! A23   A(3,9,11)              97.0132         calculate D2E/DX2 analytically  !
 ! A24   A(1,13,14)            111.7461         calculate D2E/DX2 analytically  !
 ! A25   A(1,13,15)            111.7458         calculate D2E/DX2 analytically  !
 ! A26   A(1,13,16)            110.9663         calculate D2E/DX2 analytically  !
 ! A27   A(14,13,15)           106.8177         calculate D2E/DX2 analytically  !
 ! A28   A(14,13,16)           107.6004         calculate D2E/DX2 analytically  !
 ! A29   A(15,13,16)           107.7347         calculate D2E/DX2 analytically  !
 ! A30   A(5,18,19)            109.4712         calculate D2E/DX2 analytically  !
 ! A31   A(5,18,20)            109.4712         calculate D2E/DX2 analytically  !
 ! A32   A(5,18,21)            109.4712         calculate D2E/DX2 analytically  !
 ! A33   A(19,18,20)           109.4713         calculate D2E/DX2 analytically  !
 ! A34   A(19,18,21)           109.4712         calculate D2E/DX2 analytically  !
 ! A35   A(20,18,21)           109.4712         calculate D2E/DX2 analytically  !
 ! D1    D(6,1,2,3)              3.2073         calculate D2E/DX2 analytically  !
 ! D2    D(6,1,2,17)          -176.7927         calculate D2E/DX2 analytically  !
 ! D3    D(13,1,2,3)          -177.1954         calculate D2E/DX2 analytically  !
 ! D4    D(13,1,2,17)            2.8046         calculate D2E/DX2 analytically  !
 ! D5    D(2,1,6,5)              0.1502         calculate D2E/DX2 analytically  !
 ! D6    D(2,1,6,8)            179.8983         calculate D2E/DX2 analytically  !
 ! D7    D(13,1,6,5)          -179.4516         calculate D2E/DX2 analytically  !
 ! D8    D(13,1,6,8)             0.2965         calculate D2E/DX2 analytically  !
 ! D9    D(2,1,13,14)          -61.11           calculate D2E/DX2 analytically  !
 ! D10   D(2,1,13,15)           58.5244         calculate D2E/DX2 analytically  !
 ! D11   D(2,1,13,16)          178.7924         calculate D2E/DX2 analytically  !
 ! D12   D(6,1,13,14)          118.481          calculate D2E/DX2 analytically  !
 ! D13   D(6,1,13,15)         -121.8846         calculate D2E/DX2 analytically  !
 ! D14   D(6,1,13,16)           -1.6166         calculate D2E/DX2 analytically  !
 ! D15   D(1,2,3,4)             -6.7907         calculate D2E/DX2 analytically  !
 ! D16   D(1,2,3,9)            101.713          calculate D2E/DX2 analytically  !
 ! D17   D(1,2,3,12)          -167.7415         calculate D2E/DX2 analytically  !
 ! D18   D(17,2,3,4)           173.2093         calculate D2E/DX2 analytically  !
 ! D19   D(17,2,3,9)           -78.287          calculate D2E/DX2 analytically  !
 ! D20   D(17,2,3,12)           12.2585         calculate D2E/DX2 analytically  !
 ! D21   D(2,3,4,5)              7.0226         calculate D2E/DX2 analytically  !
 ! D22   D(2,3,4,7)           -173.5992         calculate D2E/DX2 analytically  !
 ! D23   D(9,3,4,5)           -100.2119         calculate D2E/DX2 analytically  !
 ! D24   D(9,3,4,7)             79.1664         calculate D2E/DX2 analytically  !
 ! D25   D(12,3,4,5)           168.4406         calculate D2E/DX2 analytically  !
 ! D26   D(12,3,4,7)           -12.1812         calculate D2E/DX2 analytically  !
 ! D27   D(2,3,9,11)           -59.8402         calculate D2E/DX2 analytically  !
 ! D28   D(4,3,9,11)            63.2531         calculate D2E/DX2 analytically  !
 ! D29   D(12,3,9,11)         -179.5462         calculate D2E/DX2 analytically  !
 ! D30   D(3,4,5,6)             -3.6598         calculate D2E/DX2 analytically  !
 ! D31   D(3,4,5,18)           177.9282         calculate D2E/DX2 analytically  !
 ! D32   D(7,4,5,6)            177.0089         calculate D2E/DX2 analytically  !
 ! D33   D(7,4,5,18)            -1.4031         calculate D2E/DX2 analytically  !
 ! D34   D(3,4,7,10)          -176.4114         calculate D2E/DX2 analytically  !
 ! D35   D(5,4,7,10)             2.9399         calculate D2E/DX2 analytically  !
 ! D36   D(4,5,6,1)              0.0778         calculate D2E/DX2 analytically  !
 ! D37   D(4,5,6,8)           -179.6709         calculate D2E/DX2 analytically  !
 ! D38   D(18,5,6,1)           178.4923         calculate D2E/DX2 analytically  !
 ! D39   D(18,5,6,8)            -1.2563         calculate D2E/DX2 analytically  !
 ! D40   D(4,5,18,19)          -59.1194         calculate D2E/DX2 analytically  !
 ! D41   D(4,5,18,20)           60.8806         calculate D2E/DX2 analytically  !
 ! D42   D(4,5,18,21)         -179.1194         calculate D2E/DX2 analytically  !
 ! D43   D(6,5,18,19)          122.4842         calculate D2E/DX2 analytically  !
 ! D44   D(6,5,18,20)         -117.5158         calculate D2E/DX2 analytically  !
 ! D45   D(6,5,18,21)            2.4842         calculate D2E/DX2 analytically  !
 --------------------------------------------------------------------------------
 Trust Radius=3.00D-01 FncErr=1.00D-07 GrdErr=1.00D-06
 Number of steps in this run=    111 maximum allowed number of steps=    126.
 Search for a saddle point of order  1.
 GradGradGradGradGradGradGradGradGradGradGradGradGradGradGradGradGradGrad

                          Input orientation:                          
 ---------------------------------------------------------------------
 Center     Atomic      Atomic             Coordinates (Angstroms)
 Number     Number       Type             X           Y           Z
 ---------------------------------------------------------------------
      1          6           0        1.255689   -0.682758    0.017579
      2          6           0        0.745830    0.566444   -0.358152
      3          6           0       -0.656789    0.759137   -0.436730
      4          6           0       -1.532609   -0.344342   -0.276949
      5          6           0       -1.023539   -1.579411    0.099909
      6          6           0        0.356173   -1.734845    0.241507
      7          8           0       -2.850004   -0.108870   -0.497368
      8          1           0        0.744725   -2.705664    0.531221
      9          8           0       -0.940017    1.751644    1.331870
     10          1           0       -3.354413   -0.907108   -0.306850
     11          1           0       -0.604290    1.053338    1.914564
     12          1           0       -1.053737    1.645256   -0.911088
     13          6           0        2.740981   -0.908103    0.172929
     14          1           0        3.277801   -0.736277   -0.765950
     15          1           0        3.178171   -0.233069    0.915936
     16          1           0        2.949704   -1.931534    0.489939
     17          1           0        1.412177    1.372301   -0.585034
     18          6           0       -1.966522   -2.776142    0.324002
     19          1           0       -2.673172   -2.534796    1.090355
     20          1           0       -2.486950   -2.995226   -0.584874
     21          1           0       -1.394631   -3.629901    0.622227
 ---------------------------------------------------------------------
                    Distance matrix (angstroms):
                    1          2          3          4          5
     1  C    0.000000
     2  C    1.400584   0.000000
     3  C    2.437833   1.417972   0.000000
     4  C    2.824160   2.455078   1.417835   0.000000
     5  C    2.450642   2.818720   2.427199   1.388009   0.000000
     6  C    1.402198   2.409845   2.775976   2.402039   1.395641
     7  O    4.177467   3.661346   2.359514   1.356304   2.419753
     8  H    2.148735   3.390822   3.860831   3.378643   2.140382
     9  O    3.531968   2.665137   2.047739   2.707881   3.552553
    10  H    4.626946   4.357290   3.173392   1.906979   2.459760
    11  H    3.173658   2.687960   2.370210   2.760075   3.224920
    12  H    3.408155   2.169796   1.080643   2.142417   3.379572
    13  C    1.510300   2.537117   3.833564   4.334027   3.824604
    14  H    2.169267   2.876501   4.222043   4.851060   4.467898
    15  H    2.169148   2.859861   4.185821   4.860741   4.486970
    16  H    2.156908   3.437472   4.594042   4.816474   4.007839
    17  H    2.147301   1.070000   2.163004   3.422506   3.887733
    18  C    3.854711   4.358333   3.846078   2.542258   1.540000
    19  H    4.474019   4.837916   4.153045   2.822852   2.148263
    20  H    4.440474   4.815367   4.179316   2.834214   2.148263
    21  H    4.009420   4.811655   4.574872   3.409172   2.148263
                    6          7          8          9         10
     6  C    0.000000
     7  O    3.670055   0.000000
     8  H    1.085079   4.552297   0.000000
     9  O    3.876159   3.233524   4.831872   0.000000
    10  H    3.841132   0.963281   4.554130   3.947616   0.000000
    11  H    3.390512   3.494478   4.226532   0.969472   4.042426
    12  H    3.839454   2.544543   4.923944   2.248357   3.488951
    13  C    2.524978   5.687459   2.710099   4.686912   6.114247
    14  H    3.247771   6.165693   3.460869   5.327343   6.650280
    15  H    3.267087   6.192879   3.490471   4.590377   6.680134
    16  H    2.612816   6.159017   2.337288   5.422599   6.436320
    17  H    3.384180   4.513064   4.280341   3.057980   5.290886
    18  C    2.546766   2.927376   2.720067   4.750827   2.411951
    19  H    3.246136   2.904694   3.467542   4.629873   2.250697
    20  H    3.217890   2.910415   3.431215   5.347867   2.278163
    21  H    2.607968   3.971053   2.332239   5.447136   3.481024
                   11         12         13         14         15
    11  H    0.000000
    12  H    2.921760   0.000000
    13  C    4.251045   4.700491   0.000000
    14  H    5.045642   4.945198   1.095077   0.000000
    15  H    4.118144   4.977466   1.094927   1.758376   0.000000
    16  H    4.854883   5.548319   1.091546   1.764524   1.765914
    17  H    3.227363   2.502309   2.745992   2.821238   2.819372
    18  C    4.364686   4.680533   5.066851   5.731663   5.769356
    19  H    4.223067   4.909295   5.727203   6.488037   6.290197
    20  H    5.116881   4.867709   5.679931   6.194190   6.478853
    21  H    4.922144   5.504048   4.971251   5.668484   5.703968
                   16         17         18         19         20
    16  H    0.000000
    17  H    3.799327   0.000000
    18  C    4.991009   5.426927   0.000000
    19  H    5.686929   5.895966   1.070000   0.000000
    20  H    5.643037   5.854783   1.070000   1.747303   0.000000
    21  H    4.666390   5.861542   1.070000   1.747303   1.747303
                   21
    21  H    0.000000
 Stoichiometry    C8H11O2(2)
 Framework group  C1[X(C8H11O2)]
 Deg. of freedom    57
 Full point group                 C1      NOp   1
 Largest Abelian subgroup         C1      NOp   1
 Largest concise Abelian subgroup C1      NOp   1
                         Standard orientation:                         
 ---------------------------------------------------------------------
 Center     Atomic      Atomic             Coordinates (Angstroms)
 Number     Number       Type             X           Y           Z
 ---------------------------------------------------------------------
      1          6           0        1.645583   -0.296746   -0.128818
      2          6           0        1.218134    0.970998   -0.543242
      3          6           0       -0.168039    1.266225   -0.588088
      4          6           0       -1.117939    0.239960   -0.354147
      5          6           0       -0.690185   -1.013598    0.060810
      6          6           0        0.678026   -1.267366    0.167648
      7          8           0       -2.420685    0.565485   -0.545055
      8          1           0        1.002483   -2.252106    0.487666
      9          8           0       -0.317642    2.349471    1.143221
     10          1           0       -2.976628   -0.183612   -0.304866
     11          1           0       -0.015792    1.652319    1.745503
     12          1           0       -0.513304    2.159603   -1.088544
     13          6           0        3.114263   -0.627614   -0.008360
     14          1           0        3.630970   -0.535913   -0.969505
     15          1           0        3.624983    0.042347    0.691056
     16          1           0        3.256472   -1.649989    0.346599
     17          1           0        1.934837    1.713890   -0.824929
     18          6           0       -1.711846   -2.125014    0.365053
     19          1           0       -2.372722   -1.799308    1.140977
     20          1           0       -2.277020   -2.341251   -0.517397
     21          1           0       -1.195649   -3.006700    0.682970
 ---------------------------------------------------------------------
 Rotational constants (GHZ):      1.6955911      1.1664621      0.7899603
 Standard basis: 6-311G(d,p) (5D, 7F)
 There are   256 symmetry adapted cartesian basis functions of A   symmetry.
 There are   246 symmetry adapted basis functions of A   symmetry.
   246 basis functions,   408 primitive gaussians,   256 cartesian basis functions
    38 alpha electrons       37 beta electrons
       nuclear repulsion energy       523.2084076796 Hartrees.
 NAtoms=   21 NActive=   21 NUniq=   21 SFac= 1.00D+00 NAtFMM=   60 NAOKFM=F Big=F
 Integral buffers will be    131072 words long.
 Raffenetti 2 integral format.
 Two-electron integral symmetry is turned on.
 One-electron integrals computed using PRISM.
 NBasis=   246 RedAO= T EigKep=  2.08D-04  NBF=   246
 NBsUse=   246 1.00D-06 EigRej= -1.00D+00 NBFU=   246
 ExpMin= 1.03D-01 ExpMax= 8.59D+03 ExpMxC= 1.30D+03 IAcc=1 IRadAn=         1 AccDes= 0.00D+00
 Harris functional with IExCor=  402 and IRadAn=       1 diagonalized for initial guess.
 HarFok:  IExCor=  402 AccDes= 0.00D+00 IRadAn=         1 IDoV= 1 UseB2=F ITyADJ=14
 ICtDFT=  3500011 ScaDFX=  1.000000  1.000000  1.000000  1.000000
 FoFCou: FMM=F IPFlag=           0 FMFlag=      100000 FMFlg1=           0
         NFxFlg=           0 DoJE=T BraDBF=F KetDBF=T FulRan=T
         wScrn=  0.000000 ICntrl=     500 IOpCl=  0 I1Cent=   200000004 NGrid=           0
         NMat0=    1 NMatS0=      1 NMatT0=    0 NMatD0=    1 NMtDS0=    0 NMtDT0=    0
 Petite list used in FoFCou.
 Initial guess <Sx>= 0.0000 <Sy>= 0.0000 <Sz>= 0.5000 <S**2>= 0.7500 S= 0.5000
 Keep R1 and R2 ints in memory in canonical form, NReq=931747466.
 Requested convergence on RMS density matrix=1.00D-08 within 128 cycles.
 Requested convergence on MAX density matrix=1.00D-06.
 Requested convergence on             energy=1.00D-06.
 No special actions if energy rises.
 Integral accuracy reduced to 1.0D-05 until final iterations.
 EnCoef did     1 forward-backward iterations
 Initial convergence to 1.0D-05 achieved.  Increase integral accuracy.
 SCF Done:  E(UB3LYP) =  -461.964231922     A.U. after   23 cycles
            NFock= 23  Conv=0.86D-08     -V/T= 2.0036
 <Sx>= 0.0000 <Sy>= 0.0000 <Sz>= 0.5000 <S**2>= 0.7751 S= 0.5125
 <L.S>= 0.000000000000E+00
 Annihilation of the first spin contaminant:
 S**2 before annihilation     0.7751,   after     0.7504
 DoSCS=F DFT=T ScalE2(SS,OS)=  1.000000  1.000000
 Range of M.O.s used for correlation:     1   246
 NBasis=   246 NAE=    38 NBE=    37 NFC=     0 NFV=     0
 NROrb=    246 NOA=    38 NOB=    37 NVA=   208 NVB=   209

 **** Warning!!: The largest alpha MO coefficient is  0.11377547D+02


 **** Warning!!: The largest beta MO coefficient is  0.11344611D+02

 Symmetrizing basis deriv contribution to polar:
 IMax=3 JMax=2 DiffMx= 0.00D+00
 G2DrvN: will do    22 centers at a time, making    1 passes.
 Calling FoFCou, ICntrl=  3107 FMM=F I1Cent=   0 AccDes= 0.00D+00.
 End of G2Drv F.D. properties file   721 does not exist.
 End of G2Drv F.D. properties file   722 does not exist.
 End of G2Drv F.D. properties file   788 does not exist.
          IDoAtm=111111111111111111111
          Differentiating once with respect to nuclear coordinates.
 Keep R1 and R2 ints in memory in canonical form, NReq=931530093.
          There are    66 degrees of freedom in the 1st order CPHF.  IDoFFX=6 NUNeed=     0.
     60 vectors produced by pass  0 Test12= 2.37D-14 1.52D-09 XBig12= 3.45D-01 2.64D-01.
 AX will form    60 AO Fock derivatives at one time.
     60 vectors produced by pass  1 Test12= 2.37D-14 1.52D-09 XBig12= 7.63D-02 8.96D-02.
     60 vectors produced by pass  2 Test12= 2.37D-14 1.52D-09 XBig12= 2.78D-03 1.05D-02.
     60 vectors produced by pass  3 Test12= 2.37D-14 1.52D-09 XBig12= 2.47D-05 8.26D-04.
     60 vectors produced by pass  4 Test12= 2.37D-14 1.52D-09 XBig12= 1.18D-07 3.19D-05.
     60 vectors produced by pass  5 Test12= 2.37D-14 1.52D-09 XBig12= 6.65D-10 2.45D-06.
     40 vectors produced by pass  6 Test12= 2.37D-14 1.52D-09 XBig12= 3.03D-12 1.45D-07.
     10 vectors produced by pass  7 Test12= 2.37D-14 1.52D-09 XBig12= 1.50D-14 7.46D-09.
 InvSVY:  IOpt=1 It=  1 EMax= 7.77D-16
 Solved reduced A of dimension   410 with    66 vectors.
 End of Minotr F.D. properties file   721 does not exist.
 End of Minotr F.D. properties file   722 does not exist.
 End of Minotr F.D. properties file   788 does not exist.

 **********************************************************************

            Population analysis using the SCF density.

 **********************************************************************

 Orbital symmetries:
 Alpha Orbitals:
       Occupied  (A) (A) (A) (A) (A) (A) (A) (A) (A) (A) (A) (A)
                 (A) (A) (A) (A) (A) (A) (A) (A) (A) (A) (A) (A)
                 (A) (A) (A) (A) (A) (A) (A) (A) (A) (A) (A) (A)
                 (A) (A)
       Virtual   (A) (A) (A) (A) (A) (A) (A) (A) (A) (A) (A) (A)
                 (A) (A) (A) (A) (A) (A) (A) (A) (A) (A) (A) (A)
                 (A) (A) (A) (A) (A) (A) (A) (A) (A) (A) (A) (A)
                 (A) (A) (A) (A) (A) (A) (A) (A) (A) (A) (A) (A)
                 (A) (A) (A) (A) (A) (A) (A) (A) (A) (A) (A) (A)
                 (A) (A) (A) (A) (A) (A) (A) (A) (A) (A) (A) (A)
                 (A) (A) (A) (A) (A) (A) (A) (A) (A) (A) (A) (A)
                 (A) (A) (A) (A) (A) (A) (A) (A) (A) (A) (A) (A)
                 (A) (A) (A) (A) (A) (A) (A) (A) (A) (A) (A) (A)
                 (A) (A) (A) (A) (A) (A) (A) (A) (A) (A) (A) (A)
                 (A) (A) (A) (A) (A) (A) (A) (A) (A) (A) (A) (A)
                 (A) (A) (A) (A) (A) (A) (A) (A) (A) (A) (A) (A)
                 (A) (A) (A) (A) (A) (A) (A) (A) (A) (A) (A) (A)
                 (A) (A) (A) (A) (A) (A) (A) (A) (A) (A) (A) (A)
                 (A) (A) (A) (A) (A) (A) (A) (A) (A) (A) (A) (A)
                 (A) (A) (A) (A) (A) (A) (A) (A) (A) (A) (A) (A)
                 (A) (A) (A) (A) (A) (A) (A) (A) (A) (A) (A) (A)
                 (A) (A) (A) (A)
 Beta  Orbitals:
       Occupied  (A) (A) (A) (A) (A) (A) (A) (A) (A) (A) (A) (A)
                 (A) (A) (A) (A) (A) (A) (A) (A) (A) (A) (A) (A)
                 (A) (A) (A) (A) (A) (A) (A) (A) (A) (A) (A) (A)
                 (A)
       Virtual   (A) (A) (A) (A) (A) (A) (A) (A) (A) (A) (A) (A)
                 (A) (A) (A) (A) (A) (A) (A) (A) (A) (A) (A) (A)
                 (A) (A) (A) (A) (A) (A) (A) (A) (A) (A) (A) (A)
                 (A) (A) (A) (A) (A) (A) (A) (A) (A) (A) (A) (A)
                 (A) (A) (A) (A) (A) (A) (A) (A) (A) (A) (A) (A)
                 (A) (A) (A) (A) (A) (A) (A) (A) (A) (A) (A) (A)
                 (A) (A) (A) (A) (A) (A) (A) (A) (A) (A) (A) (A)
                 (A) (A) (A) (A) (A) (A) (A) (A) (A) (A) (A) (A)
                 (A) (A) (A) (A) (A) (A) (A) (A) (A) (A) (A) (A)
                 (A) (A) (A) (A) (A) (A) (A) (A) (A) (A) (A) (A)
                 (A) (A) (A) (A) (A) (A) (A) (A) (A) (A) (A) (A)
                 (A) (A) (A) (A) (A) (A) (A) (A) (A) (A) (A) (A)
                 (A) (A) (A) (A) (A) (A) (A) (A) (A) (A) (A) (A)
                 (A) (A) (A) (A) (A) (A) (A) (A) (A) (A) (A) (A)
                 (A) (A) (A) (A) (A) (A) (A) (A) (A) (A) (A) (A)
                 (A) (A) (A) (A) (A) (A) (A) (A) (A) (A) (A) (A)
                 (A) (A) (A) (A) (A) (A) (A) (A) (A) (A) (A) (A)
                 (A) (A) (A) (A) (A)
 The electronic state is 2-A.
 Alpha  occ. eigenvalues --  -19.16116 -19.09383 -10.24365 -10.19640 -10.18779
 Alpha  occ. eigenvalues --  -10.18353 -10.18270 -10.18257 -10.17979 -10.17078
 Alpha  occ. eigenvalues --   -1.07919  -0.94042  -0.86606  -0.79120  -0.77054
 Alpha  occ. eigenvalues --   -0.71022  -0.69270  -0.62369  -0.59814  -0.55377
 Alpha  occ. eigenvalues --   -0.50347  -0.46834  -0.45666  -0.44792  -0.42692
 Alpha  occ. eigenvalues --   -0.42394  -0.41696  -0.41555  -0.41166  -0.39685
 Alpha  occ. eigenvalues --   -0.38154  -0.36206  -0.35541  -0.34498  -0.31672
 Alpha  occ. eigenvalues --   -0.27081  -0.23792  -0.20990
 Alpha virt. eigenvalues --   -0.00963   0.00128   0.02026   0.04449   0.06670
 Alpha virt. eigenvalues --    0.07676   0.08681   0.09152   0.10340   0.10825
 Alpha virt. eigenvalues --    0.11805   0.12968   0.14623   0.16828   0.18939
 Alpha virt. eigenvalues --    0.19903   0.22833   0.26328   0.27031   0.27660
 Alpha virt. eigenvalues --    0.30183   0.31058   0.32238   0.33085   0.33472
 Alpha virt. eigenvalues --    0.37118   0.38038   0.39416   0.41127   0.42007
 Alpha virt. eigenvalues --    0.43632   0.44835   0.46097   0.47607   0.48267
 Alpha virt. eigenvalues --    0.49284   0.49630   0.50364   0.50924   0.54427
 Alpha virt. eigenvalues --    0.55463   0.56493   0.56668   0.57898   0.59338
 Alpha virt. eigenvalues --    0.60600   0.61245   0.61872   0.62897   0.63518
 Alpha virt. eigenvalues --    0.64705   0.66337   0.69169   0.70359   0.72501
 Alpha virt. eigenvalues --    0.76363   0.80259   0.81030   0.83901   0.85389
 Alpha virt. eigenvalues --    0.86046   0.87778   0.88223   0.89737   0.92059
 Alpha virt. eigenvalues --    0.93055   0.94215   0.97491   0.97886   0.99245
 Alpha virt. eigenvalues --    1.01090   1.04508   1.06431   1.09679   1.11882
 Alpha virt. eigenvalues --    1.13148   1.18761   1.26832   1.30393   1.31483
 Alpha virt. eigenvalues --    1.34672   1.36088   1.37030   1.38448   1.39799
 Alpha virt. eigenvalues --    1.41189   1.41985   1.44886   1.45098   1.45555
 Alpha virt. eigenvalues --    1.45745   1.47961   1.49970   1.50786   1.51566
 Alpha virt. eigenvalues --    1.54048   1.56402   1.57393   1.58834   1.59475
 Alpha virt. eigenvalues --    1.62180   1.64056   1.65971   1.67549   1.68207
 Alpha virt. eigenvalues --    1.70017   1.74486   1.76702   1.77574   1.78019
 Alpha virt. eigenvalues --    1.80343   1.84245   1.85388   1.88828   1.90952
 Alpha virt. eigenvalues --    1.92839   1.94378   1.94804   1.96271   1.99772
 Alpha virt. eigenvalues --    2.00220   2.01469   2.03784   2.05501   2.11087
 Alpha virt. eigenvalues --    2.13077   2.15407   2.19830   2.23703   2.23796
 Alpha virt. eigenvalues --    2.28792   2.31528   2.33929   2.35268   2.36577
 Alpha virt. eigenvalues --    2.38429   2.40647   2.42648   2.45279   2.46031
 Alpha virt. eigenvalues --    2.48276   2.52781   2.53397   2.54473   2.54889
 Alpha virt. eigenvalues --    2.55167   2.57843   2.60598   2.63708   2.64433
 Alpha virt. eigenvalues --    2.65208   2.68347   2.72775   2.73370   2.77479
 Alpha virt. eigenvalues --    2.81752   2.84074   2.84171   2.86957   2.88248
 Alpha virt. eigenvalues --    2.92038   2.93313   2.93983   3.00844   3.03028
 Alpha virt. eigenvalues --    3.07971   3.11147   3.15949   3.16720   3.17456
 Alpha virt. eigenvalues --    3.17999   3.19812   3.21849   3.32643   3.38085
 Alpha virt. eigenvalues --    3.44730   3.52805   3.54247   3.61218   3.68643
 Alpha virt. eigenvalues --    3.77639   3.81261   3.82047   3.82245   3.84577
 Alpha virt. eigenvalues --    3.85784   4.01753   4.07830   4.12072   4.28095
 Alpha virt. eigenvalues --    4.32782   4.79321   4.81500   4.86184   4.92800
 Alpha virt. eigenvalues --    5.33515   5.44323   5.70456  23.48847  23.84049
 Alpha virt. eigenvalues --   23.91249  23.92782  23.96507  24.02732  24.06870
 Alpha virt. eigenvalues --   24.13504  49.83733  49.91103
  Beta  occ. eigenvalues --  -19.15975 -19.07569 -10.24088 -10.19682 -10.18907
  Beta  occ. eigenvalues --  -10.18409 -10.18251 -10.18062 -10.17706 -10.17072
  Beta  occ. eigenvalues --   -1.07612  -0.89804  -0.86086  -0.79085  -0.76700
  Beta  occ. eigenvalues --   -0.70734  -0.68958  -0.62127  -0.59752  -0.55202
  Beta  occ. eigenvalues --   -0.50193  -0.46665  -0.45396  -0.44529  -0.42583
  Beta  occ. eigenvalues --   -0.42321  -0.41602  -0.41151  -0.40421  -0.38446
  Beta  occ. eigenvalues --   -0.37958  -0.35969  -0.34339  -0.33406  -0.27178
  Beta  occ. eigenvalues --   -0.25347  -0.22345
  Beta virt. eigenvalues --   -0.10568   0.00153   0.01610   0.02068   0.04520
  Beta virt. eigenvalues --    0.06782   0.07767   0.08835   0.09219   0.10568
  Beta virt. eigenvalues --    0.10881   0.11943   0.13033   0.14669   0.17459
  Beta virt. eigenvalues --    0.19002   0.19964   0.23022   0.26355   0.27188
  Beta virt. eigenvalues --    0.27798   0.30301   0.31152   0.32157   0.33299
  Beta virt. eigenvalues --    0.33560   0.37429   0.38298   0.39698   0.41375
  Beta virt. eigenvalues --    0.42101   0.43997   0.44954   0.46249   0.48303
  Beta virt. eigenvalues --    0.49015   0.49392   0.50135   0.50541   0.51384
  Beta virt. eigenvalues --    0.54407   0.55563   0.56461   0.56768   0.58106
  Beta virt. eigenvalues --    0.59421   0.60627   0.61408   0.61976   0.63173
  Beta virt. eigenvalues --    0.63580   0.64847   0.66517   0.69325   0.70512
  Beta virt. eigenvalues --    0.72746   0.76537   0.80494   0.81252   0.84514
  Beta virt. eigenvalues --    0.85720   0.86291   0.88350   0.88580   0.89984
  Beta virt. eigenvalues --    0.92524   0.94559   0.94900   0.97828   0.98424
  Beta virt. eigenvalues --    0.99430   1.01971   1.04912   1.06601   1.10110
  Beta virt. eigenvalues --    1.12340   1.13385   1.19292   1.27218   1.30432
  Beta virt. eigenvalues --    1.31641   1.34991   1.36337   1.37219   1.38616
  Beta virt. eigenvalues --    1.39976   1.41376   1.42542   1.44902   1.45221
  Beta virt. eigenvalues --    1.45765   1.45981   1.47972   1.50001   1.50906
  Beta virt. eigenvalues --    1.51672   1.54280   1.56544   1.57611   1.59056
  Beta virt. eigenvalues --    1.59812   1.62294   1.64222   1.66189   1.67634
  Beta virt. eigenvalues --    1.68463   1.70140   1.74632   1.76813   1.77606
  Beta virt. eigenvalues --    1.78172   1.80631   1.84538   1.85700   1.89190
  Beta virt. eigenvalues --    1.91164   1.92942   1.94463   1.95060   1.96503
  Beta virt. eigenvalues --    1.99859   2.00450   2.01745   2.04000   2.05667
  Beta virt. eigenvalues --    2.11198   2.13197   2.15570   2.19970   2.23859
  Beta virt. eigenvalues --    2.23885   2.28898   2.31661   2.34087   2.35281
  Beta virt. eigenvalues --    2.36735   2.38508   2.40786   2.42739   2.45447
  Beta virt. eigenvalues --    2.46067   2.48357   2.52937   2.53499   2.54554
  Beta virt. eigenvalues --    2.55000   2.55220   2.57971   2.60667   2.63833
  Beta virt. eigenvalues --    2.64763   2.65357   2.68512   2.73215   2.74430
  Beta virt. eigenvalues --    2.78146   2.82756   2.84352   2.85099   2.87071
  Beta virt. eigenvalues --    2.88956   2.92085   2.93364   2.97280   3.01320
  Beta virt. eigenvalues --    3.04002   3.08412   3.11447   3.16454   3.17826
  Beta virt. eigenvalues --    3.18262   3.20174   3.20604   3.25758   3.32796
  Beta virt. eigenvalues --    3.38352   3.44861   3.52932   3.54449   3.61499
  Beta virt. eigenvalues --    3.68819   3.77611   3.81840   3.82176   3.83088
  Beta virt. eigenvalues --    3.84772   3.86041   4.01941   4.08035   4.12316
  Beta virt. eigenvalues --    4.28116   4.32784   4.79759   4.82103   4.87683
  Beta virt. eigenvalues --    5.00187   5.33732   5.46002   5.70620  23.48935
  Beta virt. eigenvalues --   23.84106  23.91256  23.92860  23.96609  24.02829
  Beta virt. eigenvalues --   24.06967  24.13624  49.85443  49.91364
          Condensed to atoms (all electrons):
               1          2          3          4          5          6
     1  C    5.124182   0.438649   0.004563  -0.083168  -0.018834   0.495402
     2  C    0.438649   4.946072   0.374833   0.005023  -0.072420  -0.017431
     3  C    0.004563   0.374833   5.127815   0.348379  -0.017673  -0.069491
     4  C   -0.083168   0.005023   0.348379   4.983100   0.218535   0.045488
     5  C   -0.018834  -0.072420  -0.017673   0.218535   5.535595   0.428801
     6  C    0.495402  -0.017431  -0.069491   0.045488   0.428801   4.837946
     7  O   -0.000463   0.004375  -0.064736   0.401580  -0.098700   0.004919
     8  H   -0.039718   0.009045  -0.001221   0.008305  -0.040598   0.409926
     9  O   -0.001641  -0.009951   0.043931  -0.014294   0.002410  -0.001262
    10  H   -0.000023  -0.000502   0.007607  -0.034723  -0.019966   0.000294
    11  H    0.006593  -0.004880  -0.012847  -0.005296   0.004543  -0.001874
    12  H    0.010066  -0.041376   0.417709  -0.052054   0.014279  -0.002251
    13  C    0.360105  -0.059636   0.005889  -0.000737   0.010106  -0.061280
    14  H   -0.037689  -0.004409   0.000135   0.000033  -0.000308   0.001083
    15  H   -0.034953  -0.005467   0.000242   0.000014  -0.000396   0.001466
    16  H   -0.036883   0.006671  -0.000361   0.000011   0.000827  -0.008090
    17  H   -0.059416   0.436563  -0.046122   0.011811  -0.003065   0.010056
    18  C    0.007468  -0.000185   0.004923  -0.065627   0.333752  -0.047429
    19  H   -0.000572   0.000309  -0.000823  -0.000083  -0.054044   0.002019
    20  H    0.000260  -0.000270   0.000899  -0.004375  -0.053468  -0.001082
    21  H    0.000260  -0.000013  -0.000201   0.007751  -0.022899  -0.007809
               7          8          9         10         11         12
     1  C   -0.000463  -0.039718  -0.001641  -0.000023   0.006593   0.010066
     2  C    0.004375   0.009045  -0.009951  -0.000502  -0.004880  -0.041376
     3  C   -0.064736  -0.001221   0.043931   0.007607  -0.012847   0.417709
     4  C    0.401580   0.008305  -0.014294  -0.034723  -0.005296  -0.052054
     5  C   -0.098700  -0.040598   0.002410  -0.019966   0.004543   0.014279
     6  C    0.004919   0.409926  -0.001262   0.000294  -0.001874  -0.002251
     7  O    7.750002  -0.000095  -0.001701   0.330314   0.000249   0.004708
     8  H   -0.000095   0.585131  -0.000003   0.000000  -0.000031   0.000056
     9  O   -0.001701  -0.000003   8.134965  -0.000085   0.263312  -0.006866
    10  H    0.330314   0.000000  -0.000085   0.459174  -0.000026  -0.000547
    11  H    0.000249  -0.000031   0.263312  -0.000026   0.517491   0.001455
    12  H    0.004708   0.000056  -0.006866  -0.000547   0.001455   0.534502
    13  C    0.000000  -0.010275  -0.000105  -0.000002  -0.000018  -0.000174
    14  H   -0.000001   0.000143  -0.000007   0.000000   0.000017   0.000006
    15  H   -0.000000   0.000124   0.000077  -0.000000  -0.000029  -0.000006
    16  H   -0.000000   0.004225  -0.000001   0.000000  -0.000006   0.000018
    17  H   -0.000074  -0.000316   0.005068   0.000035  -0.000886  -0.009933
    18  C   -0.006530  -0.010623   0.000047   0.010387  -0.000047  -0.000341
    19  H    0.002107   0.000193   0.000094   0.001679   0.000016  -0.000057
    20  H    0.002961  -0.000196  -0.000003  -0.000203   0.000002   0.000051
    21  H    0.000322   0.004862  -0.000001  -0.000162  -0.000004   0.000014
              13         14         15         16         17         18
     1  C    0.360105  -0.037689  -0.034953  -0.036883  -0.059416   0.007468
     2  C   -0.059636  -0.004409  -0.005467   0.006671   0.436563  -0.000185
     3  C    0.005889   0.000135   0.000242  -0.000361  -0.046122   0.004923
     4  C   -0.000737   0.000033   0.000014   0.000011   0.011811  -0.065627
     5  C    0.010106  -0.000308  -0.000396   0.000827  -0.003065   0.333752
     6  C   -0.061280   0.001083   0.001466  -0.008090   0.010056  -0.047429
     7  O    0.000000  -0.000001  -0.000000  -0.000000  -0.000074  -0.006530
     8  H   -0.010275   0.000143   0.000124   0.004225  -0.000316  -0.010623
     9  O   -0.000105  -0.000007   0.000077  -0.000001   0.005068   0.000047
    10  H   -0.000002   0.000000  -0.000000   0.000000   0.000035   0.010387
    11  H   -0.000018   0.000017  -0.000029  -0.000006  -0.000886  -0.000047
    12  H   -0.000174   0.000006  -0.000006   0.000018  -0.009933  -0.000341
    13  C    4.806903   0.402532   0.401111   0.408281  -0.006291  -0.000203
    14  H    0.402532   0.573968  -0.031793  -0.027257   0.001225   0.000015
    15  H    0.401111  -0.031793   0.572471  -0.027316   0.001014   0.000011
    16  H    0.408281  -0.027257  -0.027316   0.577995  -0.000055  -0.000058
    17  H   -0.006291   0.001225   0.001014  -0.000055   0.568996   0.000022
    18  C   -0.000203   0.000015   0.000011  -0.000058   0.000022   4.861298
    19  H    0.000010   0.000000  -0.000003   0.000003   0.000001   0.409233
    20  H    0.000018  -0.000003   0.000001   0.000002  -0.000007   0.414626
    21  H   -0.000039   0.000002   0.000001  -0.000003  -0.000001   0.399105
              19         20         21
     1  C   -0.000572   0.000260   0.000260
     2  C    0.000309  -0.000270  -0.000013
     3  C   -0.000823   0.000899  -0.000201
     4  C   -0.000083  -0.004375   0.007751
     5  C   -0.054044  -0.053468  -0.022899
     6  C    0.002019  -0.001082  -0.007809
     7  O    0.002107   0.002961   0.000322
     8  H    0.000193  -0.000196   0.004862
     9  O    0.000094  -0.000003  -0.000001
    10  H    0.001679  -0.000203  -0.000162
    11  H    0.000016   0.000002  -0.000004
    12  H   -0.000057   0.000051   0.000014
    13  C    0.000010   0.000018  -0.000039
    14  H    0.000000  -0.000003   0.000002
    15  H   -0.000003   0.000001   0.000001
    16  H    0.000003   0.000002  -0.000003
    17  H    0.000001  -0.000007  -0.000001
    18  C    0.409233   0.414626   0.399105
    19  H    0.573331  -0.041913  -0.019421
    20  H   -0.041913   0.572875  -0.019373
    21  H   -0.019421  -0.019373   0.537219
          Atomic-Atomic Spin Densities.
               1          2          3          4          5          6
     1  C   -0.104829  -0.015718   0.001420  -0.002221   0.001397   0.007670
     2  C   -0.015718   0.206260   0.028149   0.005863   0.000092  -0.008843
     3  C    0.001420   0.028149  -0.058396   0.026590   0.001712  -0.002618
     4  C   -0.002221   0.005863   0.026590   0.188651   0.012068  -0.009720
     5  C    0.001397   0.000092   0.001712   0.012068  -0.108626  -0.013785
     6  C    0.007670  -0.008843  -0.002618  -0.009720  -0.013785   0.242719
     7  O    0.000048  -0.000357  -0.000772  -0.029687   0.000568   0.000188
     8  H   -0.000117   0.000000  -0.000044  -0.000232  -0.000419   0.002672
     9  O    0.000083  -0.018474  -0.078934  -0.013279  -0.000882   0.001883
    10  H    0.000005  -0.000018   0.000016  -0.000329   0.000194   0.000006
    11  H   -0.000673   0.002303   0.007111   0.001894   0.000033  -0.001202
    12  H    0.000453  -0.001461   0.006466  -0.001946   0.000246  -0.000074
    13  C    0.005724  -0.001901  -0.000035  -0.000085   0.000070   0.000319
    14  H    0.001946   0.000918  -0.000018   0.000042  -0.000040  -0.000360
    15  H    0.001335   0.000141   0.000043  -0.000013   0.000028  -0.000439
    16  H    0.000304   0.000007   0.000000  -0.000002   0.000008  -0.000090
    17  H   -0.000080   0.002053   0.000194  -0.000002   0.000003  -0.000159
    18  C   -0.000014  -0.000036  -0.000019  -0.001015   0.002700   0.000835
    19  H   -0.000019   0.000000  -0.000039  -0.000283   0.001940   0.000103
    20  H   -0.000021   0.000004  -0.000019  -0.000321   0.002039   0.000137
    21  H    0.000008  -0.000003  -0.000000  -0.000020   0.000219  -0.000087
               7          8          9         10         11         12
     1  C    0.000048  -0.000117   0.000083   0.000005  -0.000673   0.000453
     2  C   -0.000357   0.000000  -0.018474  -0.000018   0.002303  -0.001461
     3  C   -0.000772  -0.000044  -0.078934   0.000016   0.007111   0.006466
     4  C   -0.029687  -0.000232  -0.013279  -0.000329   0.001894  -0.001946
     5  C    0.000568  -0.000419  -0.000882   0.000194   0.000033   0.000246
     6  C    0.000188   0.002672   0.001883   0.000006  -0.001202  -0.000074
     7  O    0.067964  -0.000000   0.001485   0.000311  -0.000364   0.000179
     8  H   -0.000000  -0.014440   0.000014  -0.000000  -0.000012  -0.000004
     9  O    0.001485   0.000014   0.776584  -0.000038  -0.002041  -0.005368
    10  H    0.000311  -0.000000  -0.000038  -0.001366   0.000006   0.000005
    11  H   -0.000364  -0.000012  -0.002041   0.000006  -0.019051   0.000404
    12  H    0.000179  -0.000004  -0.005368   0.000005   0.000404   0.012401
    13  C    0.000000   0.000187  -0.000004  -0.000000  -0.000005   0.000008
    14  H   -0.000000   0.000053   0.000014  -0.000000  -0.000018  -0.000010
    15  H    0.000000  -0.000048  -0.000058   0.000000   0.000080   0.000010
    16  H    0.000000  -0.000076  -0.000001   0.000000   0.000002   0.000000
    17  H   -0.000008   0.000016   0.000529  -0.000001  -0.000065  -0.000180
    18  C    0.000233   0.000348  -0.000000  -0.000037  -0.000017   0.000002
    19  H    0.000018   0.000010   0.000014   0.000001  -0.000017  -0.000001
    20  H    0.000008   0.000004  -0.000003   0.000007   0.000003   0.000001
    21  H    0.000001  -0.000104  -0.000001   0.000003   0.000002   0.000000
              13         14         15         16         17         18
     1  C    0.005724   0.001946   0.001335   0.000304  -0.000080  -0.000014
     2  C   -0.001901   0.000918   0.000141   0.000007   0.002053  -0.000036
     3  C   -0.000035  -0.000018   0.000043   0.000000   0.000194  -0.000019
     4  C   -0.000085   0.000042  -0.000013  -0.000002  -0.000002  -0.001015
     5  C    0.000070  -0.000040   0.000028   0.000008   0.000003   0.002700
     6  C    0.000319  -0.000360  -0.000439  -0.000090  -0.000159   0.000835
     7  O    0.000000  -0.000000   0.000000   0.000000  -0.000008   0.000233
     8  H    0.000187   0.000053  -0.000048  -0.000076   0.000016   0.000348
     9  O   -0.000004   0.000014  -0.000058  -0.000001   0.000529  -0.000000
    10  H   -0.000000  -0.000000   0.000000   0.000000  -0.000001  -0.000037
    11  H   -0.000005  -0.000018   0.000080   0.000002  -0.000065  -0.000017
    12  H    0.000008  -0.000010   0.000010   0.000000  -0.000180   0.000002
    13  C    0.005656  -0.002871  -0.000478  -0.000206  -0.000038  -0.000001
    14  H   -0.002871  -0.002739   0.000451   0.000136   0.000217  -0.000002
    15  H   -0.000478   0.000451  -0.003220   0.000038  -0.000197   0.000001
    16  H   -0.000206   0.000136   0.000038  -0.000506  -0.000003   0.000001
    17  H   -0.000038   0.000217  -0.000197  -0.000003  -0.012793  -0.000001
    18  C   -0.000001  -0.000002   0.000001   0.000001  -0.000001   0.004959
    19  H   -0.000000  -0.000000   0.000000  -0.000000   0.000000  -0.000764
    20  H    0.000001   0.000000  -0.000000  -0.000000  -0.000000  -0.000874
    21  H    0.000002  -0.000000   0.000000  -0.000000  -0.000000  -0.000132
              19         20         21
     1  C   -0.000019  -0.000021   0.000008
     2  C    0.000000   0.000004  -0.000003
     3  C   -0.000039  -0.000019  -0.000000
     4  C   -0.000283  -0.000321  -0.000020
     5  C    0.001940   0.002039   0.000219
     6  C    0.000103   0.000137  -0.000087
     7  O    0.000018   0.000008   0.000001
     8  H    0.000010   0.000004  -0.000104
     9  O    0.000014  -0.000003  -0.000001
    10  H    0.000001   0.000007   0.000003
    11  H   -0.000017   0.000003   0.000002
    12  H   -0.000001   0.000001   0.000000
    13  C   -0.000000   0.000001   0.000002
    14  H   -0.000000   0.000000  -0.000000
    15  H    0.000000  -0.000000   0.000000
    16  H   -0.000000  -0.000000  -0.000000
    17  H    0.000000  -0.000000  -0.000000
    18  C   -0.000764  -0.000874  -0.000132
    19  H   -0.004910   0.001379   0.000061
    20  H    0.001379  -0.005083   0.000084
    21  H    0.000061   0.000084  -0.000443
 Mulliken charges and spin densities:
               1          2
     1  C   -0.134186  -0.103300
     2  C   -0.004999   0.198979
     3  C   -0.123451  -0.069194
     4  C    0.230328   0.175953
     5  C   -0.146476  -0.100436
     6  C   -0.019400   0.219154
     7  O   -0.329240   0.039815
     8  H    0.081064  -0.012193
     9  O   -0.413983   0.661521
    10  H    0.246749  -0.001235
    11  H    0.232266  -0.011626
    12  H    0.130740   0.011130
    13  C   -0.256194   0.006343
    14  H    0.122310  -0.002282
    15  H    0.123431  -0.002325
    16  H    0.101997  -0.000388
    17  H    0.091375  -0.010512
    18  C   -0.309845   0.006168
    19  H    0.127921  -0.002507
    20  H    0.129202  -0.002654
    21  H    0.120390  -0.000412
 Sum of Mulliken charges =  -0.00000   1.00000
 Mulliken charges and spin densities with hydrogens summed into heavy atoms:
               1          2
     1  C   -0.134186  -0.103300
     2  C    0.086377   0.188467
     3  C    0.007289  -0.058064
     4  C    0.230328   0.175953
     5  C   -0.146476  -0.100436
     6  C    0.061664   0.206960
     7  O   -0.082492   0.038580
     9  O   -0.181717   0.649895
    13  C    0.091545   0.001349
    18  C    0.067668   0.000595
 APT charges:
               1
     1  C    0.022855
     2  C   -0.484872
     3  C   -0.526942
     4  C   -0.203208
     5  C    0.088799
     6  C   -0.493469
     7  O   -0.409683
     8  H    0.471146
     9  O   -0.423956
    10  H    0.623174
    11  H    0.225999
    12  H    0.539863
    13  C   -1.293137
    14  H    0.490134
    15  H    0.438503
    16  H    0.420513
    17  H    0.534337
    18  C   -1.187616
    19  H    0.346125
    20  H    0.397242
    21  H    0.424192
 Sum of APT charges =  -0.00000
 APT charges with hydrogens summed into heavy atoms:
               1
     1  C    0.022855
     2  C    0.049465
     3  C    0.012920
     4  C   -0.203208
     5  C    0.088799
     6  C   -0.022323
     7  O    0.213491
     9  O   -0.197957
    13  C    0.056013
    18  C   -0.020056
 Electronic spatial extent (au):  <R**2>=           1549.1820
 Charge=             -0.0000 electrons
 Dipole moment (field-independent basis, Debye):
    X=              0.1935    Y=             -3.8826    Z=             -0.1439  Tot=              3.8900
 Quadrupole moment (field-independent basis, Debye-Ang):
   XX=            -53.1804   YY=            -64.9490   ZZ=            -60.5552
   XY=              5.7614   XZ=             -0.1869   YZ=             -4.4563
 Traceless Quadrupole moment (field-independent basis, Debye-Ang):
   XX=              6.3811   YY=             -5.3874   ZZ=             -0.9936
   XY=              5.7614   XZ=             -0.1869   YZ=             -4.4563
 Octapole moment (field-independent basis, Debye-Ang**2):
  XXX=            -21.9710  YYY=            -15.8703  ZZZ=              9.2385  XYY=              2.2065
  XXY=             -8.0281  XXZ=              1.3104  XZZ=             -3.2629  YZZ=              5.5398
  YYZ=             -8.9961  XYZ=             -0.8951
 Hexadecapole moment (field-independent basis, Debye-Ang**3):
 XXXX=          -1034.6249 YYYY=           -767.2011 ZZZZ=           -172.9135 XXXY=             29.2028
 XXXZ=             -2.3413 YYYX=             -1.9135 YYYZ=            -34.5792 ZZZX=              3.4808
 ZZZY=             16.0722 XXYY=           -310.8934 XXZZ=           -217.5042 YYZZ=           -154.1919
 XXYZ=              4.5433 YYXZ=              8.0083 ZZXY=              3.1532
 N-N= 5.232084076796D+02 E-N=-2.124883109112D+03  KE= 4.602981865511D+02
  Exact polarizability:   0.000   0.000   0.000   0.000   0.000   0.000
 Approx polarizability: 182.444  -6.330 194.944  -0.424   0.652 112.214
                          Isotropic Fermi Contact Couplings
        Atom                 a.u.       MegaHertz       Gauss      10(-4) cm-1
     1  C(13)             -0.01377     -15.48219      -5.52443      -5.16430
     2  C(13)              0.01390      15.62477       5.57531       5.21186
     3  C(13)              0.01740      19.56428       6.98102       6.52594
     4  C(13)              0.01190      13.37970       4.77421       4.46299
     5  C(13)             -0.01403     -15.77546      -5.62908      -5.26213
     6  C(13)              0.01351      15.19095       5.42051       5.06715
     7  O(17)              0.00657      -3.98141      -1.42067      -1.32805
     8  H(1)              -0.00288     -12.88227      -4.59671      -4.29706
     9  O(17)              0.07360     -44.61603     -15.92011     -14.88231
    10  H(1)              -0.00073      -3.27523      -1.16868      -1.09250
    11  H(1)              -0.00995     -44.46792     -15.86726     -14.83290
    12  H(1)               0.00638      28.52963      10.18008       9.51646
    13  C(13)              0.00206       2.31080       0.82455       0.77080
    14  H(1)              -0.00154      -6.88426      -2.45648      -2.29634
    15  H(1)              -0.00142      -6.36667      -2.27179      -2.12369
    16  H(1)              -0.00015      -0.67012      -0.23911      -0.22353
    17  H(1)              -0.00273     -12.19892      -4.35288      -4.06912
    18  C(13)              0.00186       2.08580       0.74426       0.69575
    19  H(1)              -0.00132      -5.88526      -2.10001      -1.96311
    20  H(1)              -0.00140      -6.24290      -2.22762      -2.08241
    21  H(1)              -0.00014      -0.64640      -0.23065      -0.21562
 --------------------------------------------------------
       Center         ----  Spin Dipole Couplings  ----
                      3XX-RR        3YY-RR        3ZZ-RR
 --------------------------------------------------------
     1   Atom        0.041401      0.037783     -0.079184
     2   Atom       -0.106982     -0.073063      0.180045
     3   Atom        0.013416      0.015419     -0.028835
     4   Atom       -0.112924     -0.074391      0.187315
     5   Atom        0.042613      0.037891     -0.080504
     6   Atom       -0.116935     -0.075076      0.192010
     7   Atom       -0.116499     -0.075540      0.192039
     8   Atom       -0.013354      0.012891      0.000464
     9   Atom       -1.246594      0.137568      1.109027
    10   Atom        0.002428      0.002032     -0.004461
    11   Atom       -0.068831      0.032185      0.036646
    12   Atom       -0.004906     -0.008009      0.012915
    13   Atom        0.002957      0.000142     -0.003099
    14   Atom        0.001626     -0.000306     -0.001320
    15   Atom        0.002289     -0.000765     -0.001525
    16   Atom        0.002336     -0.000729     -0.001606
    17   Atom        0.003032     -0.002685     -0.000347
    18   Atom        0.000397      0.002909     -0.003306
    19   Atom       -0.000451      0.001754     -0.001303
    20   Atom       -0.000397      0.002021     -0.001624
    21   Atom        0.000004      0.001460     -0.001464
 --------------------------------------------------------
                        XY            XZ            YZ
 --------------------------------------------------------
     1   Atom       -0.001263     -0.000321     -0.037664
     2   Atom       -0.005862     -0.021269      0.111570
     3   Atom        0.001462      0.000295     -0.000082
     4   Atom        0.000459     -0.006761      0.113673
     5   Atom       -0.002206      0.004764     -0.036077
     6   Atom       -0.005007     -0.003373      0.096683
     7   Atom        0.001299     -0.013857      0.117105
     8   Atom       -0.008398      0.002270     -0.003632
     9   Atom       -0.408564     -0.525949      1.923861
    10   Atom        0.010520     -0.001863     -0.000702
    11   Atom       -0.049697      0.034408     -0.067827
    12   Atom        0.000835      0.003395     -0.003423
    13   Atom       -0.001320     -0.000413     -0.000397
    14   Atom       -0.001282     -0.000721      0.000381
    15   Atom       -0.001475      0.000387     -0.000216
    16   Atom       -0.001409      0.000107      0.000122
    17   Atom        0.012838     -0.009793      0.000581
    18   Atom        0.001821     -0.000102     -0.000962
    19   Atom        0.001810     -0.000448     -0.001097
    20   Atom        0.001401      0.000141      0.000380
    21   Atom        0.001571     -0.000362     -0.000374
 --------------------------------------------------------


 ---------------------------------------------------------------------------------
              Anisotropic Spin Dipole Couplings in Principal Axis System
 ---------------------------------------------------------------------------------

       Atom             a.u.   MegaHertz   Gauss  10(-4) cm-1        Axes

              Baa    -0.0903   -12.113    -4.322    -4.040  0.0050  0.2822  0.9593
     1 C(13)  Bbb     0.0412     5.534     1.975     1.846  0.9893  0.1382 -0.0459
              Bcc     0.0490     6.579     2.348     2.194 -0.1455  0.9493 -0.2785
 
              Baa    -0.1158   -15.537    -5.544    -5.183 -0.2660  0.8955 -0.3569
     2 C(13)  Bbb    -0.1079   -14.477    -5.166    -4.829  0.9617  0.2720 -0.0344
              Bcc     0.2237    30.013    10.710    10.011 -0.0663  0.3523  0.9335
 
              Baa    -0.0288    -3.870    -1.381    -1.291 -0.0071  0.0021  1.0000
     3 C(13)  Bbb     0.0126     1.697     0.606     0.566  0.8845 -0.4664  0.0072
              Bcc     0.0162     2.172     0.775     0.725  0.4664  0.8846  0.0014
 
              Baa    -0.1183   -15.881    -5.667    -5.297 -0.4660  0.8259 -0.3174
     4 C(13)  Bbb    -0.1116   -14.971    -5.342    -4.994  0.8846  0.4422 -0.1482
              Bcc     0.2299    30.851    11.008    10.291 -0.0180  0.3499  0.9366
 
              Baa    -0.0908   -12.178    -4.345    -4.062 -0.0299  0.2694  0.9626
     5 C(13)  Bbb     0.0411     5.510     1.966     1.838  0.8975  0.4311 -0.0928
              Bcc     0.0497     6.668     2.379     2.224 -0.4399  0.8612 -0.2547
 
              Baa    -0.1182   -15.858    -5.659    -5.290  0.9534  0.2908 -0.0803
     6 C(13)  Bbb    -0.1052   -14.120    -5.038    -4.710 -0.3014  0.9057 -0.2980
              Bcc     0.2234    29.978    10.697    10.000 -0.0140  0.3083  0.9512
 
              Baa    -0.1245     9.007     3.214     3.004 -0.6283  0.7203 -0.2940
     7 O(17)  Bbb    -0.1120     8.106     2.892     2.704  0.7772  0.5983 -0.1950
              Bcc     0.2365   -17.113    -6.106    -5.708 -0.0354  0.3510  0.9357
 
              Baa    -0.0159    -8.481    -3.026    -2.829  0.9599  0.2708 -0.0730
     8 H(1)   Bbb    -0.0005    -0.278    -0.099    -0.093 -0.0002  0.2613  0.9653
              Bcc     0.0164     8.759     3.125     2.922 -0.2805  0.9265 -0.2509
 
              Baa    -1.3612    98.495    35.146    32.855 -0.2913  0.7237 -0.6256
     9 O(17)  Bbb    -1.3582    98.276    35.067    32.781  0.9422  0.3302 -0.0567
              Bcc     2.7194  -196.771   -70.213   -65.636 -0.1656  0.6060  0.7780
 
              Baa    -0.0085    -4.514    -1.611    -1.506  0.6980 -0.6862  0.2046
    10 H(1)   Bbb    -0.0045    -2.392    -0.854    -0.798 -0.0704  0.2186  0.9733
              Bcc     0.0129     6.906     2.464     2.304  0.7126  0.6938 -0.1042
 
              Baa    -0.0896   -47.817   -17.062   -15.950  0.9368  0.3425 -0.0713
    11 H(1)   Bbb    -0.0313   -16.686    -5.954    -5.566 -0.1809  0.6486  0.7393
              Bcc     0.1209    64.503    23.016    21.516 -0.2995  0.6797 -0.6695
 
              Baa    -0.0091    -4.832    -1.724    -1.612 -0.3453  0.9177  0.1963
    12 H(1)   Bbb    -0.0050    -2.644    -0.943    -0.882  0.9232  0.3697 -0.1046
              Bcc     0.0140     7.476     2.668     2.494  0.1686 -0.1451  0.9749
 
              Baa    -0.0032    -0.430    -0.153    -0.143  0.0993  0.1558  0.9828
    13 C(13)  Bbb    -0.0003    -0.038    -0.014    -0.013  0.3512  0.9186 -0.1812
              Bcc     0.0035     0.468     0.167     0.156  0.9310 -0.3631 -0.0365
 
              Baa    -0.0015    -0.799    -0.285    -0.266  0.1743 -0.1245  0.9768
    14 H(1)   Bbb    -0.0009    -0.504    -0.180    -0.168  0.4534  0.8907  0.0327
              Bcc     0.0024     1.303     0.465     0.435  0.8741 -0.4372 -0.2117
 
              Baa    -0.0016    -0.844    -0.301    -0.281  0.0016  0.2578  0.9662
    15 H(1)   Bbb    -0.0013    -0.719    -0.256    -0.240  0.3867  0.8909 -0.2383
              Bcc     0.0029     1.563     0.558     0.521  0.9222 -0.3740  0.0982
 
              Baa    -0.0017    -0.890    -0.317    -0.297 -0.1435 -0.3371  0.9305
    16 H(1)   Bbb    -0.0012    -0.650    -0.232    -0.217  0.3334  0.8688  0.3661
              Bcc     0.0029     1.540     0.549     0.514  0.9318 -0.3628  0.0123
 
              Baa    -0.0161    -8.582    -3.062    -2.863  0.6445 -0.6359  0.4245
    17 H(1)   Bbb    -0.0006    -0.338    -0.121    -0.113  0.0588  0.5948  0.8017
              Bcc     0.0167     8.920     3.183     2.975  0.7623  0.4918 -0.4207
 
              Baa    -0.0035    -0.464    -0.166    -0.155 -0.0509  0.1633  0.9853
    18 C(13)  Bbb    -0.0005    -0.069    -0.025    -0.023  0.8901 -0.4399  0.1189
              Bcc     0.0040     0.534     0.190     0.178  0.4528  0.8831 -0.1230
 
              Baa    -0.0017    -0.909    -0.324    -0.303 -0.3438  0.4428  0.8281
    19 H(1)   Bbb    -0.0014    -0.738    -0.263    -0.246  0.8153 -0.2967  0.4972
              Bcc     0.0031     1.647     0.588     0.549  0.4658  0.8461 -0.2590
 
              Baa    -0.0017    -0.888    -0.317    -0.296  0.0043 -0.1042  0.9945
    20 H(1)   Bbb    -0.0010    -0.553    -0.197    -0.184  0.9103 -0.4112 -0.0470
              Bcc     0.0027     1.441     0.514     0.481  0.4139  0.9056  0.0931
 
              Baa    -0.0015    -0.826    -0.295    -0.276  0.2216  0.0056  0.9751
    21 H(1)   Bbb    -0.0010    -0.523    -0.187    -0.174  0.8139 -0.5518 -0.1818
              Bcc     0.0025     1.349     0.481     0.450  0.5371  0.8339 -0.1268
 

 ---------------------------------------------------------------------------------

 Calling FoFJK, ICntrl=    100147 FMM=F ISym2X=0 I1Cent= 0 IOpClX= 1 NMat=1 NMatS=1 NMatT=0.
 ***** Axes restored to original set *****
 -------------------------------------------------------------------
 Center     Atomic                   Forces (Hartrees/Bohr)
 Number     Number              X              Y              Z
 -------------------------------------------------------------------
      1        6           0.001595338    0.006870572   -0.001485274
      2        6          -0.009796493   -0.022619774    0.002370766
      3        6           0.004695120    0.006822042   -0.001849630
      4        6           0.005470035    0.005285695   -0.000602413
      5        6          -0.008942971   -0.019434365    0.003710678
      6        6           0.000940837    0.005674233   -0.000072351
      7        8          -0.000966966   -0.001316220    0.000350550
      8        1          -0.000179018   -0.000259089    0.000094873
      9        8          -0.000929355   -0.000018691    0.000105168
     10        1          -0.000533683    0.000910220   -0.000188681
     11        1           0.000473452    0.000139396   -0.000050582
     12        1          -0.000338083   -0.000010927    0.000067498
     13        6           0.001680635    0.001091558   -0.000579449
     14        1          -0.000505045   -0.000152470   -0.000137501
     15        1          -0.000684411   -0.000277629    0.000045997
     16        1           0.000591649   -0.000139496    0.000024334
     17        1           0.003720566    0.008729695    0.000092503
     18        6           0.021553703    0.027988105   -0.005293156
     19        1          -0.012613445   -0.000255492    0.012454854
     20        1          -0.009710354   -0.007114112   -0.012834605
     21        1           0.004478489   -0.011913249    0.003776421
 -------------------------------------------------------------------
 Cartesian Forces:  Max     0.027988105 RMS     0.007428970
 FormGI is forming the generalized inverse of G from B-inverse, IUseBI=4.

 GradGradGradGradGradGradGradGradGradGradGradGradGradGradGradGradGradGrad
 Berny optimization.
 Internal  Forces:  Max     0.017196394 RMS     0.003614136
 Search for a saddle point.
 Step number   1 out of a maximum of  111
 All quantities printed in internal units (Hartrees-Bohrs-Radians)
 Swapping is turned off.
 Second derivative matrix not updated -- analytic derivatives used.
 ITU=  0
     Eigenvalues ---   -0.01444  -0.00025   0.00108   0.00143   0.00467
     Eigenvalues ---    0.01070   0.01406   0.01432   0.01630   0.01861
     Eigenvalues ---    0.02030   0.02383   0.02561   0.03179   0.03454
     Eigenvalues ---    0.03821   0.05731   0.05883   0.05888   0.06079
     Eigenvalues ---    0.07436   0.08083   0.11335   0.11911   0.12212
     Eigenvalues ---    0.12483   0.14106   0.14326   0.14601   0.14842
     Eigenvalues ---    0.16062   0.17223   0.18413   0.18556   0.19315
     Eigenvalues ---    0.20598   0.22125   0.28282   0.30539   0.31124
     Eigenvalues ---    0.32680   0.33377   0.34239   0.35367   0.35863
     Eigenvalues ---    0.36803   0.37752   0.38160   0.38242   0.38753
     Eigenvalues ---    0.39254   0.43236   0.44410   0.45309   0.50354
     Eigenvalues ---    0.50726   0.52941
 Eigenvectors required to have negative eigenvalues:
                          R7        D20       D26       D17       D25
   1                   -0.84928   0.21642  -0.20246   0.18877  -0.18028
                          D21       D15       A8        A12       D22
   1                    0.12444  -0.12384   0.11580   0.11518   0.10226
 RFO step:  Lambda0=4.031144482D-06 Lambda=-5.24281968D-03.
 Linear search not attempted -- option 19 set.
 Iteration  1 RMS(Cart)=  0.06597355 RMS(Int)=  0.02755722
 Iteration  2 RMS(Cart)=  0.03679310 RMS(Int)=  0.00187156
 Iteration  3 RMS(Cart)=  0.00192997 RMS(Int)=  0.00021579
 Iteration  4 RMS(Cart)=  0.00000398 RMS(Int)=  0.00021577
 Iteration  5 RMS(Cart)=  0.00000000 RMS(Int)=  0.00021577
 Variable       Old X    -DE/DX   Delta X   Delta X   Delta X     New X
                                 (Linear)    (Quad)   (Total)
    R1        2.64672  -0.00794   0.00000  -0.02378  -0.02372   2.62300
    R2        2.64977   0.00132   0.00000   0.00459   0.00460   2.65437
    R3        2.85405   0.00092   0.00000   0.00104   0.00104   2.85510
    R4        2.67958  -0.00551   0.00000  -0.01215  -0.01211   2.66747
    R5        2.02201   0.00887   0.00000   0.02466   0.02466   2.04667
    R6        2.67932  -0.00040   0.00000  -0.00089  -0.00089   2.67843
    R7        3.86967   0.00017   0.00000  -0.00541  -0.00541   3.86426
    R8        2.04212   0.00009   0.00000  -0.00109  -0.00109   2.04103
    R9        2.62296   0.00534   0.00000   0.01846   0.01841   2.64136
   R10        2.56304   0.00136   0.00000   0.00210   0.00210   2.56514
   R11        2.63738   0.00316   0.00000   0.00631   0.00626   2.64364
   R12        2.91018  -0.00931   0.00000  -0.05936  -0.05936   2.85081
   R13        2.05050   0.00019   0.00000   0.00170   0.00170   2.05220
   R14        1.82034  -0.00051   0.00000  -0.00104  -0.00104   1.81930
   R15        1.83204   0.00004   0.00000  -0.00001  -0.00001   1.83203
   R16        2.06940  -0.00015   0.00000  -0.00334  -0.00334   2.06606
   R17        2.06911  -0.00042   0.00000   0.00076   0.00076   2.06987
   R18        2.06272   0.00025   0.00000   0.00082   0.00082   2.06354
   R19        2.02201   0.01720   0.00000   0.04685   0.04685   2.06886
   R20        2.02201   0.01708   0.00000   0.04652   0.04652   2.06852
   R21        2.02201   0.01295   0.00000   0.03617   0.03617   2.05818
    A1        2.06977  -0.00187   0.00000  -0.01165  -0.01158   2.05819
    A2        2.11610  -0.00113   0.00000  -0.00362  -0.00373   2.11237
    A3        2.09729   0.00301   0.00000   0.01539   0.01528   2.11257
    A4        2.08997   0.00593   0.00000   0.02662   0.02650   2.11647
    A5        2.09661  -0.00068   0.00000   0.00545   0.00509   2.10170
    A6        2.09661  -0.00525   0.00000  -0.03207  -0.03238   2.06423
    A7        2.09326  -0.00262   0.00000  -0.02026  -0.02017   2.07309
    A8        1.72624   0.00102   0.00000   0.02092   0.02075   1.74699
    A9        2.09336   0.00159   0.00000   0.01372   0.01366   2.10703
   A10        1.76650  -0.00016   0.00000  -0.01135  -0.01109   1.75541
   A11        2.04964   0.00100   0.00000   0.00478   0.00471   2.05435
   A12        1.50162  -0.00039   0.00000  -0.00172  -0.00182   1.49980
   A13        2.09044   0.00230   0.00000   0.01685   0.01686   2.10730
   A14        2.03371  -0.00107   0.00000  -0.00462  -0.00462   2.02909
   A15        2.15898  -0.00123   0.00000  -0.01223  -0.01224   2.14674
   A16        2.08199  -0.00548   0.00000  -0.02296  -0.02302   2.05897
   A17        2.10180   0.00080   0.00000   0.00111   0.00114   2.10295
   A18        2.09905   0.00468   0.00000   0.02182   0.02185   2.12090
   A19        2.13461   0.00174   0.00000   0.01102   0.01102   2.14563
   A20        2.07628  -0.00060   0.00000  -0.00186  -0.00187   2.07441
   A21        2.07229  -0.00114   0.00000  -0.00918  -0.00919   2.06310
   A22        1.90986   0.00170   0.00000   0.00891   0.00891   1.91877
   A23        1.69320  -0.00008   0.00000   0.00076   0.00076   1.69396
   A24        1.95034  -0.00067   0.00000  -0.00571  -0.00572   1.94461
   A25        1.95033  -0.00074   0.00000  -0.00784  -0.00785   1.94248
   A26        1.93673   0.00100   0.00000   0.00766   0.00767   1.94439
   A27        1.86432   0.00069   0.00000   0.00543   0.00540   1.86972
   A28        1.87798  -0.00014   0.00000   0.00337   0.00337   1.88135
   A29        1.88033  -0.00012   0.00000  -0.00254  -0.00253   1.87780
   A30        1.91063   0.00480   0.00000   0.04191   0.04111   1.95174
   A31        1.91063   0.00464   0.00000   0.04152   0.04071   1.95134
   A32        1.91063   0.00200   0.00000   0.02399   0.02355   1.93419
   A33        1.91063  -0.00364   0.00000  -0.02963  -0.03071   1.87993
   A34        1.91063  -0.00392   0.00000  -0.03912  -0.03953   1.87110
   A35        1.91063  -0.00387   0.00000  -0.03867  -0.03908   1.87155
    D1        0.05598  -0.00001   0.00000   0.00071   0.00083   0.05681
    D2       -3.08561  -0.00104   0.00000  -0.04217  -0.04259  -3.12821
    D3       -3.09264   0.00002   0.00000   0.01921   0.01922  -3.07343
    D4        0.04895  -0.00101   0.00000  -0.02367  -0.02421   0.02474
    D5        0.00262   0.00036   0.00000   0.00442   0.00434   0.00696
    D6        3.13982   0.00009   0.00000  -0.00225  -0.00226   3.13755
    D7       -3.13202   0.00035   0.00000  -0.01380  -0.01397   3.13720
    D8        0.00517   0.00008   0.00000  -0.02047  -0.02057  -0.01540
    D9       -1.06657   0.00009   0.00000   0.30116   0.30106  -0.76551
   D10        1.02144   0.00001   0.00000   0.29879   0.29872   1.32016
   D11        3.12052   0.00004   0.00000   0.29550   0.29541  -2.86726
   D12        2.06788   0.00009   0.00000   0.31984   0.31991   2.38779
   D13       -2.12729   0.00001   0.00000   0.31747   0.31757  -1.80972
   D14       -0.02821   0.00005   0.00000   0.31418   0.31426   0.28605
   D15       -0.11852  -0.00008   0.00000  -0.00360  -0.00361  -0.12213
   D16        1.77523  -0.00054   0.00000  -0.01077  -0.01082   1.76441
   D17       -2.92764  -0.00015   0.00000   0.00154   0.00166  -2.92599
   D18        3.02307   0.00095   0.00000   0.03927   0.03891   3.06198
   D19       -1.36637   0.00049   0.00000   0.03211   0.03170  -1.33467
   D20        0.21395   0.00088   0.00000   0.04441   0.04418   0.25813
   D21        0.12257  -0.00003   0.00000   0.00324   0.00316   0.12573
   D22       -3.02988  -0.00015   0.00000   0.00281   0.00281  -3.02707
   D23       -1.74903  -0.00015   0.00000  -0.00685  -0.00704  -1.75607
   D24        1.38171  -0.00027   0.00000  -0.00728  -0.00740   1.37432
   D25        2.93984   0.00017   0.00000   0.00006  -0.00007   2.93977
   D26       -0.21260   0.00005   0.00000  -0.00037  -0.00043  -0.21303
   D27       -1.04441   0.00166   0.00000   0.04052   0.04055  -1.00386
   D28        1.10398  -0.00085   0.00000   0.02239   0.02240   1.12637
   D29       -3.13367   0.00010   0.00000   0.02668   0.02664  -3.10703
   D30       -0.06388  -0.00001   0.00000  -0.00059  -0.00058  -0.06446
   D31        3.10543  -0.00012   0.00000   0.00022   0.00022   3.10565
   D32        3.08939   0.00012   0.00000  -0.00020  -0.00027   3.08912
   D33       -0.02449   0.00001   0.00000   0.00061   0.00053  -0.02396
   D34       -3.07896   0.00018   0.00000   0.01390   0.01387  -3.06509
   D35        0.05131   0.00008   0.00000   0.01366   0.01370   0.06501
   D36        0.00136  -0.00024   0.00000  -0.00427  -0.00422  -0.00287
   D37       -3.13585   0.00002   0.00000   0.00237   0.00232  -3.13353
   D38        3.11528  -0.00019   0.00000  -0.00541  -0.00538   3.10990
   D39       -0.02193   0.00008   0.00000   0.00123   0.00117  -0.02076
   D40       -1.03183  -0.00068   0.00000  -0.00855  -0.00881  -1.04064
   D41        1.06257   0.00064   0.00000   0.00625   0.00649   1.06906
   D42       -3.12622  -0.00004   0.00000  -0.00099  -0.00101  -3.12723
   D43        2.13775  -0.00064   0.00000  -0.00702  -0.00726   2.13049
   D44       -2.05104   0.00068   0.00000   0.00778   0.00805  -2.04299
   D45        0.04336   0.00000   0.00000   0.00053   0.00055   0.04390
         Item               Value     Threshold  Converged?
 Maximum Force            0.017196     0.000450     NO 
 RMS     Force            0.003614     0.000300     NO 
 Maximum Displacement     0.546595     0.001800     NO 
 RMS     Displacement     0.099991     0.001200     NO 
 Predicted change in Energy=-2.819960D-03
 GradGradGradGradGradGradGradGradGradGradGradGradGradGradGradGradGradGrad

                          Input orientation:                          
 ---------------------------------------------------------------------
 Center     Atomic      Atomic             Coordinates (Angstroms)
 Number     Number       Type             X           Y           Z
 ---------------------------------------------------------------------
      1          6           0        1.262799   -0.696171    0.004767
      2          6           0        0.747317    0.532397   -0.384506
      3          6           0       -0.644999    0.750836   -0.463562
      4          6           0       -1.519708   -0.349804   -0.283555
      5          6           0       -1.027430   -1.595948    0.114554
      6          6           0        0.357188   -1.741074    0.251820
      7          8           0       -2.837572   -0.112146   -0.505649
      8          1           0        0.744348   -2.709793    0.553546
      9          8           0       -0.949117    1.762279    1.287441
     10          1           0       -3.353149   -0.896680   -0.292256
     11          1           0       -0.594906    1.082340    1.880810
     12          1           0       -1.038727    1.630721   -0.950725
     13          6           0        2.750627   -0.898830    0.172019
     14          1           0        3.310163   -0.447031   -0.651464
     15          1           0        3.112978   -0.439964    1.098242
     16          1           0        3.006878   -1.959737    0.207115
     17          1           0        1.409704    1.362417   -0.597355
     18          6           0       -1.968614   -2.751336    0.349251
     19          1           0       -2.702216   -2.526574    1.130200
     20          1           0       -2.519459   -3.017837   -0.558344
     21          1           0       -1.421526   -3.637989    0.666694
 ---------------------------------------------------------------------
                    Distance matrix (angstroms):
                    1          2          3          4          5
     1  C    0.000000
     2  C    1.388033   0.000000
     3  C    2.439847   1.411562   0.000000
     4  C    2.818766   2.434722   1.417366   0.000000
     5  C    2.463088   2.815784   2.447012   1.397750   0.000000
     6  C    1.404631   2.392861   2.779525   2.396872   1.398953
     7  O    4.173086   3.644385   2.356669   1.357414   2.421350
     8  H    2.150494   3.375167   3.865326   3.375831   2.138355
     9  O    3.547084   2.680654   2.044876   2.693418   3.558018
    10  H    4.629838   4.343339   3.174544   1.913284   2.462405
    11  H    3.183348   2.689917   2.368224   2.755136   3.237278
    12  H    3.409459   2.171836   1.080068   2.144513   3.397991
    13  C    1.510852   2.524160   3.828267   4.329519   3.842263
    14  H    2.164350   2.756579   4.136846   4.844838   4.552088
    15  H    2.164368   2.956413   4.240238   4.835211   4.409866
    16  H    2.163182   3.415606   4.597088   4.829350   4.051734
    17  H    2.149864   1.083049   2.147961   3.407584   3.898508
    18  C    3.845049   4.324071   3.831166   2.523751   1.508586
    19  H    4.509802   4.852928   4.184929   2.852255   2.168527
    20  H    4.473556   4.827651   4.210164   2.862414   2.168112
    21  H    4.037083   4.816744   4.598071   3.424145   2.151767
                    6          7          8          9         10
     6  C    0.000000
     7  O    3.665195   0.000000
     8  H    1.085978   4.549705   0.000000
     9  O    3.879746   3.208567   4.837960   0.000000
    10  H    3.843906   0.962730   4.559851   3.917254   0.000000
    11  H    3.395844   3.485905   4.235034   0.969468   4.030712
    12  H    3.842355   2.543918   4.927702   2.243819   3.489683
    13  C    2.538561   5.683843   2.729525   4.691884   6.121407
    14  H    3.348213   6.158576   3.627058   5.175121   6.688119
    15  H    3.162862   6.171626   3.325541   4.624531   6.629696
    16  H    2.659073   6.170836   2.408659   5.538087   6.467565
    17  H    3.385343   4.496899   4.283710   3.045716   5.280282
    18  C    2.537612   2.907106   2.720960   4.721472   2.401711
[...]
 6,-0.00389630,0.00514470,-0.00021509,0.00039777,-0.00051576,-0.0007155
 4,0.00000605,-0.21720911,-0.34129945,0.12543090,0.00024453,0.00006126,
 0.00004380,0.00038538,0.00001886,-0.00027544,0.20786131,0.33559369,0.0
 0012687,-0.00027023,-0.00000770,-0.00055593,-0.00007117,0.00132241,-0.
 00239952,0.00047895,0.00147369,-0.00539534,-0.00778665,0.00012742,-0.0
 0156858,-0.00035251,-0.00087276,0.00026949,0.00027032,-0.00040477,0.07
 885717,0.13062879,-0.05189310,-0.00008821,0.00002321,0.00012360,0.0005
 0128,0.00070332,0.00010038,-0.06940082,-0.12330713,0.05038103,-0.00001
 192,0.00103559,-0.00089760,0.00099643,-0.00095208,0.00143550,0.0013246
 8,0.00094477,0.00388398,-0.00100030,-0.00107777,-0.00015318,-0.0001838
 1,-0.00026759,0.00004068,0.00020212,0.00006113,0.00018336,-0.00009627,
 0.00002232,0.00006367,-0.00004055,-0.00002398,0.00000915,-0.16631043,0
 .16711384,-0.17202708,-0.00003693,-0.00013170,-0.00018131,0.16592034,0
 .00030687,-0.00022503,-0.00008357,-0.00102572,0.00086345,-0.00055944,-
 0.00179357,-0.00007111,-0.00561511,0.00022828,0.00189996,-0.00148873,-
 0.00027616,-0.00043161,0.00014932,0.00036467,-0.00025238,0.00024897,-0
 .00081127,-0.00046511,0.00011967,-0.00001316,0.00000990,0.00000564,0.1
 6985388,-0.17318646,0.17020191,-0.00005032,0.00003509,-0.00014108,-0.1
 6646516,0.17200339,0.00108976,0.00249517,-0.00002444,0.00188940,-0.000
 90760,-0.00085910,-0.00443585,0.00590489,-0.00364411,-0.00266957,-0.00
 039812,-0.00087116,-0.00007423,-0.00081026,0.00004908,-0.00159707,-0.0
 0109472,0.00046976,0.00188881,-0.00040875,0.00026650,-0.00004467,0.000
 13815,0.00003286,-0.16263037,0.15810912,-0.18493801,-0.00016681,-0.000
 05744,0.00009018,0.16669796,-0.16216261,0.19117500,-0.00523767,-0.0010
 8053,-0.00073334,-0.00600432,0.02570913,-0.01411363,-0.09314538,0.0815
 5671,-0.05310204,0.01067457,-0.01533541,0.01009379,-0.00225927,-0.0032
 2276,-0.00002182,-0.00092392,-0.00045323,0.00013262,0.00134067,0.00083
 386,-0.00000730,0.00003836,0.00007038,0.00002352,0.00065827,0.00037629
 ,0.00265904,0.00003411,0.00020730,-0.00003518,-0.00007416,-0.00008014,
 0.00023300,0.09391837,0.00009321,0.00382293,0.00086415,0.00248675,-0.0
 0034309,0.00011687,0.07923849,-0.23862215,0.12346856,0.01003661,-0.017
 89098,0.01256547,-0.00391570,-0.00148975,0.00157608,-0.00133068,-0.000
 36609,-0.00013325,0.00165182,0.00132903,-0.00163112,0.00003210,-0.0000
 7703,-0.00011021,-0.00011214,-0.00076213,-0.00852328,0.00007500,0.0000
 8826,-0.00047437,0.00002370,0.00004189,-0.00090792,-0.08866500,0.25506
 899,0.00012285,0.00303190,0.00344857,0.00492023,-0.00242665,0.00266362
 ,-0.05516041,0.13035065,-0.09220216,-0.00452577,-0.00100408,0.00264937
 ,-0.00075088,0.00186904,0.00293492,0.00010045,-0.00128439,-0.00023954,
 0.00101280,-0.00056556,-0.00182263,-0.00000673,-0.00004224,-0.00028331
 ,-0.00030025,-0.00206476,-0.01644487,0.00019863,-0.00026358,-0.0003290
 4,0.00065328,-0.00112911,-0.00170614,0.05398680,-0.12559189,0.10359745
 ,-0.20445042,0.01974555,-0.01539071,-0.01499108,0.00582081,-0.00289538
 ,0.00137161,0.00007124,-0.00011060,-0.00113278,0.00186009,-0.00046299,
 0.00338261,-0.00326959,0.00108445,-0.02876506,-0.00094318,-0.00154071,
 0.00055210,-0.00017905,0.00008791,0.00099399,0.00138224,-0.00034241,-0
 .00003201,-0.00037481,-0.00032069,-0.00009389,-0.00007079,-0.00000433,
 -0.00004341,0.00011321,0.00007710,-0.00000785,-0.00016902,0.00004636,0
 .48330334,0.01348822,-0.08891268,0.00794338,0.02902393,-0.00129252,0.0
 0365197,0.00022393,-0.00368219,0.00358908,0.00036258,-0.00099199,-0.00
 005714,-0.00298825,-0.00335385,0.00200387,-0.02477774,0.00754208,-0.00
 358579,0.00054772,0.00032240,-0.00006197,-0.00035732,0.00079506,-0.000
 76738,-0.00005657,0.00044467,0.00052050,0.00011913,-0.00010927,-0.0000
 3563,-0.00000224,0.00000317,0.00006403,0.00123912,0.00010144,0.0000941
 5,0.02113050,0.56730072,-0.01193945,0.00853722,-0.07127309,-0.01105412
 ,0.00164407,0.00263520,-0.00020861,0.00308561,0.00734268,0.00020199,0.
 00036989,-0.00073473,0.00105862,0.00233623,0.00333364,0.00606202,-0.00
 221354,0.00287649,-0.00045338,-0.00017398,-0.00036111,0.00028553,-0.00
 082369,-0.00162560,-0.00044740,0.00014804,0.00022970,0.00001058,0.0000
 6056,-0.00012145,-0.00003578,0.00001619,-0.00004545,0.00008084,0.00017
 913,0.00007725,-0.01091227,-0.00997303,0.53369690,-0.01665884,-0.02691
 393,0.00914556,0.00214048,-0.00254158,0.00064164,-0.00006597,0.0003706
 4,0.00024884,0.00025879,0.00005744,-0.00000595,-0.00006268,-0.00167077
 ,0.00044918,-0.00634840,0.00245594,-0.00119475,-0.00013903,0.00013772,
 -0.00007898,0.00005952,0.00002417,0.00004038,0.00001401,0.00005428,-0.
 00005714,0.00006263,-0.00000374,0.00002441,-0.00008210,-0.00006898,-0.
 00008836,0.00002682,-0.00003324,-0.00002335,-0.11502790,-0.10676282,0.
 03646926,0.12742852,0.00347720,0.00442636,-0.00220167,0.00172490,0.000
 48008,-0.00009163,-0.00014154,0.00032039,-0.00019298,0.00014369,0.0000
 2918,-0.00000961,0.00032677,0.00030514,0.00009465,0.00088959,0.0002634
 1,0.00046592,-0.00014982,0.00004927,-0.00003459,0.00024036,0.00023666,
 -0.00016353,-0.00001646,0.00003418,0.00002947,0.00003495,0.00000049,0.
 00001547,-0.00000915,-0.00002481,-0.00005023,-0.00006341,-0.00000807,-
 0.00000201,-0.11090341,-0.22395338,0.06014280,0.11867508,0.24147489,-0
 .00227995,-0.00388270,-0.00024135,-0.00055125,-0.00024034,0.00015946,0
 .00007859,-0.00017762,-0.00022521,-0.00001266,-0.00004340,0.00000345,-
 0.00023968,-0.00001516,0.00042228,-0.00071695,0.00048090,0.00096749,0.
 00003275,-0.00001064,0.00000817,-0.00005715,-0.00014855,-0.00021866,-0
 .00006234,-0.00002798,-0.00001173,-0.00001045,0.00000456,0.00000758,0.
 00007579,0.00005365,0.00001499,0.00001148,-0.00000022,-0.00000820,0.03
 808220,0.06036654,-0.06708081,-0.03996737,-0.06690215,0.06810276,-0.01
 028975,0.00894040,-0.03118877,-0.00222743,-0.00205675,-0.00022951,-0.0
 0062685,0.00117835,0.00166692,0.00046424,-0.00009362,-0.00009162,-0.00
 031532,0.00049012,0.00055433,0.00109949,0.00103311,0.00029169,-0.00077
 199,-0.00002448,-0.00011062,0.00000849,-0.00080972,-0.00022403,-0.0001
 4070,-0.00007535,-0.00007353,0.00003168,0.00008303,-0.00001922,-0.0000
 9906,0.00002528,-0.00018477,-0.00014456,0.00004185,-0.00001507,-0.0571
 9087,0.00977555,-0.05503736,0.00359081,-0.00200206,0.01619348,0.064783
 35,0.00293899,-0.00168515,0.00452993,0.00174293,-0.00046170,0.00005345
 ,-0.00008271,-0.00026575,-0.00029044,-0.00011333,0.00066106,-0.0003428
 8,0.00095582,-0.00062864,0.00004390,-0.00189577,0.00003310,-0.00002117
 ,0.00003251,-0.00004560,0.00010694,-0.00016167,-0.00003916,0.00021534,
 -0.00012795,-0.00011608,-0.00015448,-0.00003086,0.00002449,0.00002322,
 0.00009575,0.00002982,-0.00001228,0.00004038,-0.00002596,0.00003019,0.
 00941028,-0.05557031,0.04962872,0.00669133,-0.00471833,0.02584243,-0.0
 1375971,0.05671360,-0.00208907,0.00053983,0.00076321,-0.00046412,-0.00
 059966,-0.00004763,0.00011968,-0.00000500,-0.00003688,0.00037110,-0.00
 059242,0.00027865,-0.00095320,0.00038500,0.00006755,0.00112798,0.00100
 389,0.00085877,-0.00029723,0.00000730,-0.00011929,-0.00021678,-0.00044
 136,-0.00036248,-0.00001485,0.00007247,0.00009876,0.00003418,0.0000267
 1,-0.00000336,-0.00000686,-0.00002656,-0.00008061,-0.00004443,0.000010
 29,0.00000961,-0.05316030,0.04991147,-0.27937683,-0.00108703,0.0011654
 6,-0.00766366,0.05991330,-0.05500132,0.30384693,-0.01278319,0.02639922
 ,0.01654848,-0.00270357,-0.00153306,0.00085246,-0.00048398,0.00061153,
 -0.00127333,0.00043595,-0.00001713,0.00034352,-0.00030061,0.00005324,-
 0.00070432,0.00149910,0.00090908,-0.00085250,-0.00071569,-0.00005963,-
 0.00011691,-0.00004738,-0.00056525,0.00064911,0.00000275,-0.00012462,-
 0.00021096,0.00001841,0.00008680,0.00004091,0.00000454,-0.00005885,-0.
 00014747,-0.00036143,-0.00007213,-0.00010129,-0.06891734,0.05908314,0.
 04556357,0.00518496,-0.01206498,-0.01058309,0.00177145,-0.00575793,-0.
 00322320,0.07736631,0.00316365,-0.00231655,-0.00022264,0.00160881,-0.0
 0018529,-0.00034566,-0.00020840,0.00008388,0.00078483,-0.00034051,0.00
 089442,-0.00014632,0.00123150,-0.00044420,0.00065568,-0.00230879,-0.00
 015055,0.00050428,0.00026477,-0.00009785,-0.00010951,0.00008219,-0.000
 00208,-0.00048860,-0.00000207,-0.00006588,-0.00010676,-0.00002666,-0.0
 0001085,-0.00001295,-0.00005837,-0.00000569,0.00000255,0.00009868,-0.0
 0004863,-0.00004362,0.05807462,-0.19892723,-0.11154427,0.00817009,-0.0
 1933754,-0.01525923,-0.00273160,0.00572713,0.00372991,-0.06713228,0.21
 472353,-0.00210538,0.00544805,0.00358779,-0.00088788,0.00041721,-0.000
 21679,-0.00021828,0.00006881,-0.00057690,-0.00016229,0.00010250,-0.000
 08829,0.00015854,0.00007538,-0.00005121,0.00022384,-0.00017324,0.00093
 877,0.00017540,0.00000676,0.00003078,0.00030249,0.00017960,-0.00020282
 ,0.00006309,-0.00000951,-0.00001710,-0.00001273,-0.00002587,0.00001268
 ,-0.00002905,-0.00001047,-0.00001252,-0.00007144,0.00002673,0.00001109
 ,0.04499968,-0.11189922,-0.12592526,-0.00414330,0.00777655,0.00558259,
 0.00904239,-0.02518049,-0.01811995,-0.04728545,0.12314703,0.13475677,0
 .00852767,0.00915585,-0.00278991,-0.16024658,-0.13021658,0.03445417,-0
 .01594050,-0.02448517,0.00682373,-0.00413056,0.00285921,-0.00083858,-0
 .00036128,0.00033863,-0.00015794,-0.00014279,0.00244780,-0.00119395,-0
 .00102342,-0.00152097,0.00043318,0.00050398,0.00048973,-0.00010943,0.0
 0100464,-0.00009572,-0.00086667,-0.00043458,-0.00001665,-0.00016616,-0
 .00026453,-0.00016714,-0.00000388,0.00097733,0.00017961,-0.00011649,0.
 00128794,0.00132280,-0.00011427,0.00007842,-0.00018604,0.00002936,0.00
 001761,-0.00002009,0.00004565,0.00000479,0.00002919,-0.00006609,0.1700
 8825,-0.01867132,-0.01579854,0.00552348,-0.13059005,-0.21884748,0.0504
 9909,0.00509271,0.00681935,-0.00101520,0.00156319,0.00110651,0.0011343
 8,0.00073875,-0.00003174,-0.00012163,0.00310144,-0.00302220,0.00342106
 ,0.00014070,0.00029504,0.00001591,-0.00095604,-0.00097942,0.00021752,0
 .00011265,0.00006714,0.00014944,0.00015825,0.00006292,0.00006463,-0.00
 014002,-0.00009459,-0.00001412,-0.00015252,0.00007426,-0.00092370,-0.0
 0185433,0.00017581,-0.00155603,0.00127211,0.00043105,-0.00000384,0.000
 00116,0.00034185,-0.00015305,0.00029908,0.00014853,0.00004710,0.140003
 23,0.22925152,0.00652699,0.00726504,0.00250677,0.03157497,0.05027613,-
 0.04887503,-0.00073758,-0.00245916,0.00227203,-0.00121514,0.00135171,0
 .00527191,-0.00028475,-0.00018100,-0.00079896,-0.00139579,0.00361471,0
 .00554991,-0.00006050,-0.00005379,0.00016807,0.00035671,0.00038617,-0.
 00007640,-0.00084249,0.00009323,0.00063133,-0.00006418,-0.00001203,0.0
 0005229,0.00028972,0.00037575,0.00002962,0.00070031,-0.00158961,-0.002
 19712,0.00084854,-0.00174350,-0.00414643,-0.00029618,0.00000056,0.0003
 0897,-0.00053283,0.00049481,-0.00007729,0.00053063,-0.00050227,0.00029
 585,-0.03542905,-0.05704521,0.03974248,-0.00224494,0.00267132,-0.00182
 699,-0.00112510,-0.00048208,0.00012864,-0.00049518,0.00445156,-0.00215
 247,0.00919525,0.00207073,0.00066436,-0.13149737,-0.05154197,0.0104107
 9,-0.02311928,-0.02735217,0.00631767,0.00072407,0.00342148,-0.00055535
 ,0.00113772,-0.00117124,0.00086133,0.00003205,-0.00017232,-0.00005148,
 0.00079002,0.00084439,-0.00076257,-0.00004454,-0.00003830,-0.00007157,
 0.00069625,0.00074843,-0.00015982,-0.00024428,-0.00103007,0.00035079,-
 0.00034053,0.00003279,-0.00001585,0.00007630,0.00000056,-0.00001093,0.
 00006941,0.00001982,0.00001228,0.00007092,-0.00005733,0.00006833,0.522
 84008,0.00242135,0.00249322,0.00212551,0.00082577,-0.00075464,-0.00019
 106,0.00282479,-0.00211192,0.00329082,-0.01325378,-0.02793516,0.008291
 34,-0.05866848,-0.15427947,0.02274039,-0.00551975,0.00247667,-0.000691
 88,-0.00730087,-0.00079820,-0.00213668,0.00216961,0.00039984,-0.001336
 70,-0.00014696,0.00057420,0.00024401,0.00096533,0.00179514,0.00053301,
 -0.00003504,-0.00008884,-0.00009668,-0.00086327,-0.00058416,-0.0000400
 2,0.00005839,0.00045266,-0.00002577,0.00016682,-0.00002411,-0.00002748
 ,0.00002811,-0.00000692,0.00004686,0.00000087,-0.00006302,-0.00003360,
 -0.00006628,-0.00006631,-0.00021452,-0.04743661,0.52106831,-0.00170940
 ,0.00170661,0.00755299,-0.00084848,0.00009461,-0.00098275,-0.00096096,
 0.00303532,0.00424229,0.00530639,0.00952310,0.00033758,0.01155772,0.02
 336505,-0.07379990,0.00026663,-0.00213257,0.00333217,0.00335388,-0.000
 62218,-0.00402045,-0.00019546,-0.00165337,-0.00396065,0.00015550,0.000
 16323,0.00015965,-0.00042916,-0.00018068,0.00345907,-0.00006669,0.0000
 4422,0.00010273,0.00016189,0.00014531,-0.00005202,-0.00005461,-0.00012
 201,0.00050735,-0.00009113,-0.00004038,-0.00014008,0.00004454,0.000040
 13,-0.00005036,-0.00005230,-0.00001666,0.00000911,0.00005293,-0.000246
 76,-0.00079440,0.01537696,-0.00429727,0.52643854,-0.00052616,-0.000902
 65,-0.00100246,-0.00038400,0.00022535,-0.00001742,-0.00008318,-0.00021
 847,-0.00025414,-0.00194254,0.00210741,-0.00166689,-0.01599701,0.00142
 600,0.01253674,-0.00013063,-0.00234171,0.00144871,0.00220041,-0.000107
 45,0.00012278,0.00008336,0.00014265,0.00070572,0.00014906,0.00003012,-
 0.00014630,0.00028828,-0.00016940,0.00085210,-0.00012610,-0.00007560,0
 .00015375,0.00000986,-0.00001069,0.00006775,0.00001093,-0.00022003,0.0
 0003645,-0.00007953,-0.00000550,0.00001270,-0.00003090,0.00002156,-0.0
 0002538,0.00000240,0.00003907,-0.00000264,-0.00000562,-0.00001786,0.00
 007700,-0.15393872,0.04248285,0.11699411,0.16967209,-0.00052563,-0.000
 67961,-0.00084388,-0.00060818,0.00016375,0.00005655,0.00024501,0.00028
 794,-0.00111774,-0.00225895,-0.00013161,0.00041817,-0.01771793,0.00712
 077,0.01836622,0.00014957,-0.00194441,0.00108899,0.00145781,0.00059695
 ,-0.00014412,-0.00024003,0.00023632,0.00013732,0.00021570,0.00003456,-
 0.00020975,0.00037995,-0.00051898,0.00098599,-0.00014295,-0.00008954,0
 .00006571,0.00007919,0.00003539,0.00004951,0.00001861,-0.00021802,-0.0
 0002839,-0.00004790,0.00001155,0.00002321,-0.00000451,0.00001609,-0.00
 001633,0.00000088,0.00003066,0.00001108,-0.00000258,0.00002818,0.00005
 454,0.03976172,-0.06159899,-0.04170978,-0.04225871,0.06564008,0.000027
 65,0.00033010,-0.00018458,0.00036380,-0.00021107,0.00001949,-0.0003925
 2,-0.00016439,-0.00003477,0.00330136,-0.00024574,0.00124535,0.00239665
 ,0.00129539,-0.00149137,-0.00102448,0.00017129,-0.00060427,-0.00221196
 ,-0.00068391,0.00025306,-0.00000049,-0.00003058,0.00009460,-0.00010563
 ,0.00017246,0.00011105,-0.00019688,0.00164050,-0.00180554,0.00001363,-
 0.00002757,-0.00004408,0.00002257,0.00004149,-0.00002006,-0.00003878,0
 .00007644,0.00002035,0.00000855,0.00000401,0.00000100,-0.00000121,-0.0
 0001098,0.00001254,-0.00001337,-0.00001510,-0.00000375,-0.00001962,0.0
 0001655,0.00004348,0.11800737,-0.04407166,-0.17246613,-0.13080045,0.04
 727576,0.18611964,-0.00070841,-0.00001434,0.00134598,-0.00028107,0.000
 13904,-0.00011112,-0.00020302,-0.00001804,0.00015014,-0.00147178,0.002
 00242,-0.00037295,-0.01372312,-0.00713250,-0.01449767,-0.00002500,-0.0
 0269418,0.00012369,0.00163633,-0.00019825,0.00039798,0.00014478,-0.000
 28724,-0.00068010,0.00008229,-0.00003477,-0.00001440,0.00034173,0.0001
 8149,-0.00038992,-0.00002090,0.00003877,0.00010506,-0.00000282,-0.0000
 5710,-0.00000049,-0.00000205,-0.00019627,0.00011520,-0.00008307,-0.000
 01648,-0.00001873,-0.00000217,0.00002911,-0.00001956,-0.00003808,0.000
 03284,-0.00000012,0.00000102,-0.00007532,-0.00009579,-0.10664991,-0.03
 082060,-0.10426478,0.01203738,0.00546338,0.01818779,0.11755539,-0.0006
 0721,-0.00039206,0.00094760,-0.00078075,0.00021342,-0.00027203,0.00048
 439,0.00099296,0.00067167,-0.00409358,0.00004896,-0.00016490,-0.013338
 40,-0.00690852,-0.01904762,0.00101254,-0.00202100,0.00004685,0.0028920
 0,0.00130688,0.00033488,-0.00015050,0.00009167,-0.00025671,0.00012224,
 -0.00013190,-0.00009248,0.00069086,-0.00235767,-0.00081549,-0.00001533
 ,0.00004345,0.00008852,-0.00000415,-0.00008417,-0.00002797,0.00002894,
 -0.00015518,0.00020445,-0.00005221,-0.00001074,-0.00002550,0.00001213,
 0.00002078,-0.00003024,-0.00001566,0.00003327,0.00000411,0.00000413,-0
 .00002308,-0.00009312,-0.03296714,-0.06375300,-0.05566209,-0.00402813,
 -0.00292144,-0.00745143,0.03855687,0.06799853,0.00026426,-0.00024098,-
 0.00035834,0.00009143,0.00006318,0.00003907,0.00011399,-0.00039989,-0.
 00039889,-0.00165610,0.00122188,0.00042349,0.00378319,0.00069384,0.009
 73278,0.00064755,0.00043547,-0.00026503,0.00091244,0.00007370,0.000262
 09,0.00013933,-0.00004400,0.00010014,0.00002177,-0.00002955,0.00000242
 ,0.00019034,-0.00093705,-0.00046483,0.00003708,0.00002879,-0.00000768,
 -0.00005471,-0.00003357,0.00001572,0.00002494,0.00001969,-0.00002685,0
 .00000652,0.00000010,0.00001564,0.00000677,0.00000462,0.00000368,0.000
 00002,0.00000422,0.00000083,0.00001118,0.00000252,0.00006054,-0.103367
 79,-0.05305878,-0.21793828,-0.01134786,-0.00502396,-0.01953695,0.11416
 036,0.05954704,0.23675488,0.00020300,-0.00002331,0.00006708,0.00003064
 ,0.00001131,-0.00001152,0.00082166,-0.00073994,0.00042514,-0.00455350,
 -0.00271082,0.00019219,0.01095128,-0.01868126,0.00750304,0.00111208,-0
 .00142744,0.00059352,0.00056970,0.00050711,-0.00011041,-0.00022753,0.0
 0025710,-0.00017181,0.00004619,0.00004875,-0.00000484,0.00034422,-0.00
 064849,0.00029487,-0.00001309,-0.00000660,-0.00002022,-0.00021324,-0.0
 0024187,0.00005140,-0.00000359,0.00007468,-0.00003221,0.00004309,0.000
 01352,-0.00000087,-0.00000382,-0.00000922,0.00000102,-0.00000878,-0.00
 000656,0.00000693,-0.00001271,0.00003152,-0.00001892,-0.11593223,0.112
 16776,-0.04459758,-0.01120939,0.01603554,-0.00752399,-0.00858752,0.012
 24897,-0.00398472,0.12664353,-0.00036244,-0.00032742,-0.00001139,-0.00
 014400,0.00043444,-0.00009246,0.00106938,-0.00094321,0.00055576,-0.003
 49472,-0.00239560,0.00071927,0.01209921,-0.02073056,0.00751065,0.00321
 388,0.00141717,-0.00017791,-0.00085696,0.00055414,-0.00009018,-0.00116
 946,0.00070719,-0.00016657,-0.00002353,0.00002311,-0.00002698,-0.00029
 571,-0.00001379,-0.00045970,0.00002427,0.00000507,0.00005259,-0.000290
 63,-0.00025999,-0.00001585,0.00004970,0.00002861,-0.00001421,0.0000195
 4,0.00001432,-0.00000650,-0.00005128,-0.00000432,-0.00003324,-0.000042
 32,0.00001393,0.00002150,-0.00005297,0.00006120,-0.00001846,0.10822643
 ,-0.21719532,0.06856615,0.00388118,-0.00609964,0.00188845,-0.00489883,
 0.00800882,-0.00232725,-0.11690075,0.23670184,0.00016582,0.00002961,-0
 .00028175,0.00005788,-0.00011589,0.00014286,-0.00032810,0.00029268,0.0
 0002229,0.00057741,0.00087878,0.00101568,-0.00269226,0.00411476,-0.003
 37368,-0.00092591,-0.00053421,0.00026734,0.00021029,0.00007308,0.00061
 013,0.00033553,-0.00009840,0.00035893,-0.00001200,-0.00001405,0.000030
 65,0.00023198,-0.00033136,-0.00124778,0.00001375,0.00000014,0.00000257
 ,0.00007801,0.00000135,-0.00010251,-0.00001739,0.00000454,-0.00000196,
 -0.00000080,-0.00000620,-0.00000469,-0.00000488,0.00000035,-0.00000135
 ,0.00003549,-0.00001493,-0.00001166,0.00002184,-0.00001213,0.00003237,
 -0.04322371,0.06895015,-0.07193647,0.01225573,-0.01943909,0.00827096,-
 0.01412060,0.02209447,-0.00841442,0.04734191,-0.07587365,0.07462250\\-
 0.00000045,-0.00000727,-0.00000484,-0.00000103,0.00000027,0.00000197,0
 .00000024,0.00000308,0.00000327,0.00000224,0.00000045,0.00000554,-0.00
 000807,-0.00000349,0.00000122,-0.00000079,0.00000024,-0.00000410,-0.00
 000187,0.00000646,0.00000781,-0.00000186,-0.00000244,-0.00000749,0.000
 00693,-0.00000051,0.00000967,-0.00000092,0.00000569,0.00000612,0.00000
 567,-0.00000479,0.00000653,0.00000087,0.00000386,0.00000816,0.00000062
 ,-0.00000144,-0.00000655,0.00000257,-0.00000477,-0.00000475,0.00000277
 ,-0.00000811,-0.00000679,-0.00000460,-0.00000204,-0.00000910,0.0000020
 8,0.,0.00000079,0.00000448,0.00000942,-0.00000325,-0.00000113,0.000000
 82,0.00000196,-0.00000506,0.00000480,-0.00000179,-0.00000271,-0.000000
 23,-0.00000438\\\@


 RESEARCH IS WHAT I AM DOING WHEN I DON'T KNOW WHAT I AM DOING.
     -- WERNER VON BRAUN
 Job cpu time:       0 days  0 hours 55 minutes 55.5 seconds.
 File lengths (MBytes):  RWF=    352 Int=      0 D2E=      0 Chk=      8 Scr=      2
 Normal termination of Gaussian 09 at Fri Sep  9 22:44:30 2022.
