 Entering Gaussian System, Link 0=/public1/home/scg3027/software-scg3027/g16/g16
 Input=3-ts-4.gjf
 Output=3-ts-4.log
 Initial command:
 /public1/home/scg3027/software-scg3027/g16/l1.exe "/public1/home/scg3027/software-scg3027/test/tmp/Gau-183252.inp" -scrdir="/public1/home/scg3027/software-scg3027/test/tmp/"
 Entering Link 1 = /public1/home/scg3027/software-scg3027/g16/l1.exe PID=    183253.
  
 Copyright (c) 1988-2019, Gaussian, Inc.  All Rights Reserved.
  
 This is part of the Gaussian(R) 16 program.  It is based on
 the Gaussian(R) 09 system (copyright 2009, Gaussian, Inc.),
 the Gaussian(R) 03 system (copyright 2003, Gaussian, Inc.),
 the Gaussian(R) 98 system (copyright 1998, Gaussian, Inc.),
 the Gaussian(R) 94 system (copyright 1995, Gaussian, Inc.),
 the Gaussian 92(TM) system (copyright 1992, Gaussian, Inc.),
 the Gaussian 90(TM) system (copyright 1990, Gaussian, Inc.),
 the Gaussian 88(TM) system (copyright 1988, Gaussian, Inc.),
 the Gaussian 86(TM) system (copyright 1986, Carnegie Mellon
 University), and the Gaussian 82(TM) system (copyright 1983,
 Carnegie Mellon University). Gaussian is a federally registered
 trademark of Gaussian, Inc.
  
 This software contains proprietary and confidential information,
 including trade secrets, belonging to Gaussian, Inc.
  
 This software is provided under written license and may be
 used, copied, transmitted, or stored only in accord with that
 written license.
  
 The following legend is applicable only to US Government
 contracts under FAR:
  
                    RESTRICTED RIGHTS LEGEND
  
 Use, reproduction and disclosure by the US Government is
 subject to restrictions as set forth in subparagraphs (a)
 and (c) of the Commercial Computer Software - Restricted
 Rights clause in FAR 52.227-19.
  
 Gaussian, Inc.
 340 Quinnipiac St., Bldg. 40, Wallingford CT 06492
  
  
 ---------------------------------------------------------------
 Warning -- This program may not be used in any manner that
 competes with the business of Gaussian, Inc. or will provide
 assistance to any competitor of Gaussian, Inc.  The licensee
 of this program is prohibited from giving any competitor of
 Gaussian, Inc. access to this program.  By using this program,
 the user acknowledges that Gaussian, Inc. is engaged in the
 business of creating and licensing software in the field of
 computational chemistry and represents and warrants to the
 licensee that it is not a competitor of Gaussian, Inc. and that
 it will not use this program in any manner prohibited above.
 ---------------------------------------------------------------
  

 Cite this work as:
 Gaussian 16, Revision C.01,
 M. J. Frisch, G. W. Trucks, H. B. Schlegel, G. E. Scuseria, 
 M. A. Robb, J. R. Cheeseman, G. Scalmani, V. Barone, 
 G. A. Petersson, H. Nakatsuji, X. Li, M. Caricato, A. V. Marenich, 
 J. Bloino, B. G. Janesko, R. Gomperts, B. Mennucci, H. P. Hratchian, 
 J. V. Ortiz, A. F. Izmaylov, J. L. Sonnenberg, D. Williams-Young, 
 F. Ding, F. Lipparini, F. Egidi, J. Goings, B. Peng, A. Petrone, 
 T. Henderson, D. Ranasinghe, V. G. Zakrzewski, J. Gao, N. Rega, 
 G. Zheng, W. Liang, M. Hada, M. Ehara, K. Toyota, R. Fukuda, 
 J. Hasegawa, M. Ishida, T. Nakajima, Y. Honda, O. Kitao, H. Nakai, 
 T. Vreven, K. Throssell, J. A. Montgomery, Jr., J. E. Peralta, 
 F. Ogliaro, M. J. Bearpark, J. J. Heyd, E. N. Brothers, K. N. Kudin, 
 V. N. Staroverov, T. A. Keith, R. Kobayashi, J. Normand, 
 K. Raghavachari, A. P. Rendell, J. C. Burant, S. S. Iyengar, 
 J. Tomasi, M. Cossi, J. M. Millam, M. Klene, C. Adamo, R. Cammi, 
 J. W. Ochterski, R. L. Martin, K. Morokuma, O. Farkas, 
 J. B. Foresman, and D. J. Fox, Gaussian, Inc., Wallingford CT, 2019.
 
 ******************************************
 Gaussian 16:  ES64L-G16RevC.01  3-Jul-2019
                25-Jul-2022 
 ******************************************
 %nprocshared=20
 Will use up to   20 processors via shared memory.
 %mem=58339MB
 %chk=3-ts-4.chk
 ----------------------------------------------------------------------
 # opt=(calcfc,ts,noeigentest) freq ub3lyp/6-311g(d,p) geom=connectivit
 y temperature=823.15
 ----------------------------------------------------------------------
 1/5=1,10=4,11=1,18=20,26=3,38=1,57=2,112=823150/1,3;
 2/9=110,12=2,17=6,18=5,40=1/2;
 3/5=4,6=6,7=101,11=2,25=1,30=1,71=2,74=-5,116=2,140=1/1,2,3;
 4//1;
 5/5=2,38=5/2;
 8/6=4,10=90,11=11/1;
 11/6=1,8=1,9=11,15=111,16=1/1,2,10;
 10/6=1,13=1/2;
 6/7=2,8=2,9=2,10=2,28=1/1;
 7/10=1,25=1/1,2,3,16;
 1/5=1,10=4,11=1,18=20,26=3/3(2);
 2/9=110/2;
 99//99;
 2/9=110/2;
 3/5=4,6=6,7=101,11=2,25=1,30=1,71=1,74=-5,116=2/1,2,3;
 4/5=5,16=3,69=1/1;
 5/5=2,38=5/2;
 7//1,2,3,16;
 1/5=1,11=1,18=20,26=3/3(-5);
 2/9=110/2;
 6/7=2,8=2,9=2,10=2,19=2,28=1/1;
 99/9=1/99;
 -------------------
 Title Card Required
 -------------------
 Symbolic Z-matrix:
 Charge =  0 Multiplicity = 1
 C                     2.13955   0.44195   0.06236 
 C                     0.981     1.1738   -0.10949 
 C                    -0.53736   0.824     0.03695 
 C                    -0.15539  -0.41399  -0.3117 
 C                     0.74711  -1.40748  -0.04479 
 C                     2.05381  -0.95847   0.10989 
 H                     3.08954   0.96265   0.10417 
 H                     0.99516   2.22077  -0.39777 
 H                     0.40612  -2.42393   0.10245 
 O                    -2.69417  -1.08335  -0.06249 
 O                    -1.45489   1.60937   0.15102 
 H                    -2.76109  -0.12466  -0.1885 
 H                    -2.79377  -1.18484   0.89014 
 C                     3.23695  -1.89677   0.41214 
 H                     3.30835  -2.05187   1.46843 
 H                     3.08129  -2.83585  -0.07653 
 H                     4.14328  -1.45452   0.05452 
 
 Add virtual bond connecting atoms H12        and O11        Dist= 4.15D+00.

 GradGradGradGradGradGradGradGradGradGradGradGradGradGradGradGradGradGrad
 Berny optimization.
 Initialization pass.
                           ----------------------------
                           !    Initial Parameters    !
                           ! (Angstroms and Degrees)  !
 --------------------------                            --------------------------
 ! Name  Definition              Value          Derivative Info.                !
 --------------------------------------------------------------------------------
 ! R1    R(1,2)                  1.3811         calculate D2E/DX2 analytically  !
 ! R2    R(1,6)                  1.4038         calculate D2E/DX2 analytically  !
 ! R3    R(1,7)                  1.0841         calculate D2E/DX2 analytically  !
 ! R4    R(2,3)                  1.565          calculate D2E/DX2 analytically  !
 ! R5    R(2,8)                  1.086          calculate D2E/DX2 analytically  !
 ! R6    R(3,4)                  1.3417         calculate D2E/DX2 analytically  !
 ! R7    R(3,11)                 1.2131         calculate D2E/DX2 analytically  !
 ! R8    R(4,5)                  1.3685         calculate D2E/DX2 analytically  !
 ! R9    R(5,6)                  1.3903         calculate D2E/DX2 analytically  !
 ! R10   R(5,9)                  1.0822         calculate D2E/DX2 analytically  !
 ! R11   R(6,14)                 1.54           calculate D2E/DX2 analytically  !
 ! R12   R(10,12)                0.9692         calculate D2E/DX2 analytically  !
 ! R13   R(10,13)                0.9632         calculate D2E/DX2 analytically  !
 ! R14   R(11,12)                2.1973         calculate D2E/DX2 analytically  !
 ! R15   R(14,15)                1.07           calculate D2E/DX2 analytically  !
 ! R16   R(14,16)                1.07           calculate D2E/DX2 analytically  !
 ! R17   R(14,17)                1.07           calculate D2E/DX2 analytically  !
 ! A1    A(2,1,6)              118.7894         calculate D2E/DX2 analytically  !
 ! A2    A(2,1,7)              119.0363         calculate D2E/DX2 analytically  !
 ! A3    A(6,1,7)              122.0956         calculate D2E/DX2 analytically  !
 ! A4    A(1,2,3)              133.1405         calculate D2E/DX2 analytically  !
 ! A5    A(1,2,8)              122.2042         calculate D2E/DX2 analytically  !
 ! A6    A(3,2,8)              104.6535         calculate D2E/DX2 analytically  !
 ! A7    A(2,3,4)               84.5896         calculate D2E/DX2 analytically  !
 ! A8    A(2,3,11)             126.7189         calculate D2E/DX2 analytically  !
 ! A9    A(4,3,11)             146.8381         calculate D2E/DX2 analytically  !
 ! A10   A(3,4,5)              143.7987         calculate D2E/DX2 analytically  !
 ! A11   A(4,5,6)              114.0201         calculate D2E/DX2 analytically  !
 ! A12   A(4,5,9)              120.0405         calculate D2E/DX2 analytically  !
 ! A13   A(6,5,9)              125.7569         calculate D2E/DX2 analytically  !
 ! A14   A(1,6,5)              112.0743         calculate D2E/DX2 analytically  !
 ! A15   A(1,6,14)             124.5774         calculate D2E/DX2 analytically  !
 ! A16   A(5,6,14)             123.1702         calculate D2E/DX2 analytically  !
 ! A17   A(12,10,13)           103.0419         calculate D2E/DX2 analytically  !
 ! A18   A(3,11,12)             85.6518         calculate D2E/DX2 analytically  !
 ! A19   A(10,12,11)           136.007          calculate D2E/DX2 analytically  !
 ! A20   A(6,14,15)            109.4712         calculate D2E/DX2 analytically  !
 ! A21   A(6,14,16)            109.4712         calculate D2E/DX2 analytically  !
 ! A22   A(6,14,17)            109.4712         calculate D2E/DX2 analytically  !
 ! A23   A(15,14,16)           109.4713         calculate D2E/DX2 analytically  !
 ! A24   A(15,14,17)           109.4712         calculate D2E/DX2 analytically  !
 ! A25   A(16,14,17)           109.4712         calculate D2E/DX2 analytically  !
 ! D1    D(6,1,2,3)             16.0029         calculate D2E/DX2 analytically  !
 ! D2    D(6,1,2,8)           -164.5617         calculate D2E/DX2 analytically  !
 ! D3    D(7,1,2,3)           -167.1559         calculate D2E/DX2 analytically  !
 ! D4    D(7,1,2,8)             12.2794         calculate D2E/DX2 analytically  !
 ! D5    D(2,1,6,5)              0.6021         calculate D2E/DX2 analytically  !
 ! D6    D(2,1,6,14)          -174.6659         calculate D2E/DX2 analytically  !
 ! D7    D(7,1,6,5)           -176.1377         calculate D2E/DX2 analytically  !
 ! D8    D(7,1,6,14)             8.5942         calculate D2E/DX2 analytically  !
 ! D9    D(1,2,3,4)            -29.7025         calculate D2E/DX2 analytically  !
 ! D10   D(1,2,3,11)           162.2336         calculate D2E/DX2 analytically  !
 ! D11   D(8,2,3,4)            150.7914         calculate D2E/DX2 analytically  !
 ! D12   D(8,2,3,11)           -17.2726         calculate D2E/DX2 analytically  !
 ! D13   D(2,3,4,5)             49.3262         calculate D2E/DX2 analytically  !
 ! D14   D(11,3,4,5)          -148.316          calculate D2E/DX2 analytically  !
 ! D15   D(2,3,11,12)          168.7793         calculate D2E/DX2 analytically  !
 ! D16   D(4,3,11,12)           10.8908         calculate D2E/DX2 analytically  !
 ! D17   D(3,4,5,6)            -44.0403         calculate D2E/DX2 analytically  !
 ! D18   D(3,4,5,9)            131.3282         calculate D2E/DX2 analytically  !
 ! D19   D(4,5,6,1)              4.783          calculate D2E/DX2 analytically  !
 ! D20   D(4,5,6,14)          -179.8715         calculate D2E/DX2 analytically  !
 ! D21   D(9,5,6,1)           -170.2757         calculate D2E/DX2 analytically  !
 ! D22   D(9,5,6,14)             5.0699         calculate D2E/DX2 analytically  !
 ! D23   D(1,6,14,15)           88.8766         calculate D2E/DX2 analytically  !
 ! D24   D(1,6,14,16)         -151.1234         calculate D2E/DX2 analytically  !
 ! D25   D(1,6,14,17)          -31.1234         calculate D2E/DX2 analytically  !
 ! D26   D(5,6,14,15)          -85.8833         calculate D2E/DX2 analytically  !
 ! D27   D(5,6,14,16)           34.1168         calculate D2E/DX2 analytically  !
 ! D28   D(5,6,14,17)          154.1167         calculate D2E/DX2 analytically  !
 ! D29   D(13,10,12,11)         75.4009         calculate D2E/DX2 analytically  !
 ! D30   D(3,11,12,10)          25.3686         calculate D2E/DX2 analytically  !
 --------------------------------------------------------------------------------
 Trust Radius=3.00D-01 FncErr=1.00D-07 GrdErr=1.00D-06 EigMax=2.50D+02 EigMin=1.00D-04
 Number of steps in this run=     82 maximum allowed number of steps=    102.
 Search for a saddle point of order  1.
 GradGradGradGradGradGradGradGradGradGradGradGradGradGradGradGradGradGrad

                          Input orientation:                          
 ---------------------------------------------------------------------
 Center     Atomic      Atomic             Coordinates (Angstroms)
 Number     Number       Type             X           Y           Z
 ---------------------------------------------------------------------
      1          6           0        2.139554    0.441952    0.062355
      2          6           0        0.980996    1.173803   -0.109488
      3          6           0       -0.537363    0.823999    0.036947
      4          6           0       -0.155385   -0.413989   -0.311702
      5          6           0        0.747112   -1.407479   -0.044789
      6          6           0        2.053807   -0.958465    0.109888
      7          1           0        3.089543    0.962653    0.104172
      8          1           0        0.995164    2.220770   -0.397774
      9          1           0        0.406119   -2.423928    0.102451
     10          8           0       -2.694174   -1.083352   -0.062487
     11          8           0       -1.454891    1.609366    0.151015
     12          1           0       -2.761090   -0.124661   -0.188500
     13          1           0       -2.793768   -1.184837    0.890142
     14          6           0        3.236953   -1.896767    0.412137
     15          1           0        3.308346   -2.051872    1.468426
     16          1           0        3.081288   -2.835847   -0.076532
     17          1           0        4.143280   -1.454520    0.054522
 ---------------------------------------------------------------------
                    Distance matrix (angstroms):
                    1          2          3          4          5
     1  C    0.000000
     2  C    1.381084   0.000000
     3  C    2.704162   1.564998   0.000000
     4  C    2.477761   1.962992   1.341670   0.000000
     5  C    2.317492   2.592664   2.576053   1.368490   0.000000
     6  C    1.403845   2.397001   3.145896   2.314027   1.390320
     7  H    1.084139   2.129837   3.630178   3.549317   3.335671
     8  H    2.164611   1.086025   2.118629   2.876304   3.653809
     9  H    3.349578   3.649530   3.382821   2.127596   1.082185
    10  O    5.070213   4.313216   2.880921   2.637348   3.456562
    11  O    3.780311   2.488197   1.213124   2.448834   3.740122
    12  H    4.939665   3.961750   2.428115   2.624612   3.738149
    13  H    5.260165   4.561939   3.139224   2.999950   3.668991
    14  C    2.606960   3.845756   4.667847   3.772338   2.578273
    15  H    3.092292   4.279176   5.010913   4.224802   3.043843
    16  H    3.413227   4.526544   5.148008   4.049290   2.736717
    17  H    2.758910   4.115218   5.205802   4.437944   3.397946
                    6          7          8          9         10
     6  C    0.000000
     7  H    2.182539   0.000000
     8  H    3.389097   2.494240   0.000000
     9  H    2.205111   4.320845   4.708547   0.000000
    10  O    4.752750   6.137206   4.963956   3.381740   0.000000
    11  O    4.348150   4.590459   2.584135   4.442204   2.971891
    12  H    4.895661   5.958004   4.433315   3.924601   0.969250
    13  H    4.915183   6.312116   5.254797   3.520665   0.963182
    14  C    1.540000   2.879732   4.757698   2.896105   6.005429
    15  H    2.148263   3.316085   5.204708   3.229123   6.269926
    16  H    2.148263   3.802805   5.479460   2.712608   6.035511
    17  H    2.148263   2.637338   4.860346   3.861143   6.848521
                   11         12         13         14         15
    11  O    0.000000
    12  H    2.197334   0.000000
    13  H    3.185353   1.512782   0.000000
    14  C    5.862982   6.283124   6.091382   0.000000
    15  H    6.150501   6.580091   6.190473   1.070000   0.000000
    16  H    6.355204   6.441774   6.178720   1.070000   1.747303
    17  H    6.382494   7.035475   6.992398   1.070000   1.747303
                   16         17
    16  H    0.000000
    17  H    1.747303   0.000000
 Stoichiometry    C7H8O2
 Framework group  C1[X(C7H8O2)]
 Deg. of freedom    45
 Full point group                 C1      NOp   1
 Largest Abelian subgroup         C1      NOp   1
 Largest concise Abelian subgroup C1      NOp   1
                         Standard orientation:                         
 ---------------------------------------------------------------------
 Center     Atomic      Atomic             Coordinates (Angstroms)
 Number     Number       Type             X           Y           Z
 ---------------------------------------------------------------------
      1          6           0        1.464825    1.146892   -0.019223
      2          6           0        0.140611    1.526083   -0.119548
      3          6           0       -1.209716    0.756021    0.061677
      4          6           0       -0.510541   -0.310816   -0.354363
      5          6           0        0.646147   -1.016458   -0.162247
      6          6           0        1.779080   -0.221274   -0.031347
      7          1           0        2.230638    1.913559    0.014078
      8          1           0       -0.153462    2.543229   -0.361177
      9          1           0        0.612077   -2.092182   -0.049189
     10          8           0       -2.744390   -1.679516   -0.050750
     11          8           0       -2.305226    1.245215    0.241172
     12          1           0       -3.084092   -0.775352   -0.131591
     13          1           0       -2.768811   -1.836759    0.899196
     14          6           0        3.190806   -0.795737    0.189156
     15          1           0        3.349996   -0.959420    1.234511
     16          1           0        3.284242   -1.723622   -0.335438
     17          1           0        3.919056   -0.103308   -0.178397
 ---------------------------------------------------------------------
 Rotational constants (GHZ):           2.9583295           1.0456656           0.7871227
 Standard basis: 6-311G(d,p) (5D, 7F)
 There are   219 symmetry adapted cartesian basis functions of A   symmetry.
 There are   210 symmetry adapted basis functions of A   symmetry.
   210 basis functions,   352 primitive gaussians,   219 cartesian basis functions
    33 alpha electrons       33 beta electrons
       nuclear repulsion energy       407.6824606760 Hartrees.
 NAtoms=   17 NActive=   17 NUniq=   17 SFac= 1.00D+00 NAtFMM=   60 NAOKFM=F Big=F
 Integral buffers will be    131072 words long.
 Raffenetti 2 integral format.
 Two-electron integral symmetry is turned on.
 One-electron integrals computed using PRISM.
 NBasis=   210 RedAO= T EigKep=  4.58D-04  NBF=   210
 NBsUse=   210 1.00D-06 EigRej= -1.00D+00 NBFU=   210
 ExpMin= 1.03D-01 ExpMax= 8.59D+03 ExpMxC= 1.30D+03 IAcc=3 IRadAn=         5 AccDes= 0.00D+00
 Harris functional with IExCor=  402 and IRadAn=       5 diagonalized for initial guess.
 HarFok:  IExCor=  402 AccDes= 0.00D+00 IRadAn=         5 IDoV= 1 UseB2=F ITyADJ=14
 ICtDFT=  3500011 ScaDFX=  1.000000  1.000000  1.000000  1.000000
 FoFCou: FMM=F IPFlag=           0 FMFlag=      100000 FMFlg1=           0
         NFxFlg=           0 DoJE=T BraDBF=F KetDBF=T FulRan=T
         wScrn=  0.000000 ICntrl=       500 IOpCl=  0 I1Cent=   200000004 NGrid=           0
         NMat0=    1 NMatS0=      1 NMatT0=    0 NMatD0=    1 NMtDS0=    0 NMtDT0=    0
 Petite list used in FoFCou.
 Initial guess <Sx>= 0.0000 <Sy>= 0.0000 <Sz>= 0.0000 <S**2>=-0.0000 S=-0.0000
 Requested convergence on RMS density matrix=1.00D-08 within 128 cycles.
 Requested convergence on MAX density matrix=1.00D-06.
 Requested convergence on             energy=1.00D-06.
 No special actions if energy rises.
 Integral accuracy reduced to 1.0D-05 until final iterations.
 Initial convergence to 1.0D-05 achieved.  Increase integral accuracy.
 SCF Done:  E(UB3LYP) =  -421.991023535     A.U. after   16 cycles
            NFock= 16  Conv=0.77D-08     -V/T= 2.0035
 <Sx>= 0.0000 <Sy>= 0.0000 <Sz>= 0.0000 <S**2>=-0.0000 S=-0.0000
 <L.S>=  0.00000000000    
 Annihilation of the first spin contaminant:
 S**2 before annihilation    -0.0000,   after    -0.0000
 DoSCS=F DFT=T ScalE2(SS,OS)=  1.000000  1.000000
 Range of M.O.s used for correlation:     1   210
 NBasis=   210 NAE=    33 NBE=    33 NFC=     0 NFV=     0
 NROrb=    210 NOA=    33 NOB=    33 NVA=   177 NVB=   177
 Symmetrizing basis deriv contribution to polar:
 IMax=3 JMax=2 DiffMx= 0.00D+00
 G2DrvN: will do    18 centers at a time, making    1 passes.
 Calling FoFCou, ICntrl=  3107 FMM=F I1Cent=   0 AccDes= 0.00D+00.
 End of G2Drv F.D. properties file   721 does not exist.
 End of G2Drv F.D. properties file   722 does not exist.
 End of G2Drv F.D. properties file   788 does not exist.
          IDoAtm=11111111111111111
          Differentiating once with respect to nuclear coordinates.
 Keep R1 and R2 ints in memory in canonical form, NReq=511758455.
          There are    54 degrees of freedom in the 1st order CPHF.  IDoFFX=6 NUNeed=     0.
     48 vectors produced by pass  0 Test12= 2.16D-14 1.85D-09 XBig12= 4.63D-01 1.28D-01.
 AX will form    48 AO Fock derivatives at one time.
     48 vectors produced by pass  1 Test12= 2.16D-14 1.85D-09 XBig12= 1.47D-01 6.97D-02.
     48 vectors produced by pass  2 Test12= 2.16D-14 1.85D-09 XBig12= 2.59D-03 6.95D-03.
     48 vectors produced by pass  3 Test12= 2.16D-14 1.85D-09 XBig12= 1.10D-05 2.94D-04.
     48 vectors produced by pass  4 Test12= 2.16D-14 1.85D-09 XBig12= 2.32D-08 1.28D-05.
     40 vectors produced by pass  5 Test12= 2.16D-14 1.85D-09 XBig12= 4.00D-11 5.14D-07.
     10 vectors produced by pass  6 Test12= 2.16D-14 1.85D-09 XBig12= 4.49D-14 2.06D-08.
 InvSVY:  IOpt=1 It=  1 EMax= 4.44D-16
 Solved reduced A of dimension   290 with    54 vectors.
 End of Minotr F.D. properties file   721 does not exist.
 End of Minotr F.D. properties file   722 does not exist.
 End of Minotr F.D. properties file   788 does not exist.

 **********************************************************************

            Population analysis using the SCF Density.

 **********************************************************************

 Orbital symmetries:
 Alpha Orbitals:
       Occupied  (A) (A) (A) (A) (A) (A) (A) (A) (A) (A) (A) (A)
                 (A) (A) (A) (A) (A) (A) (A) (A) (A) (A) (A) (A)
                 (A) (A) (A) (A) (A) (A) (A) (A) (A)
       Virtual   (A) (A) (A) (A) (A) (A) (A) (A) (A) (A) (A) (A)
                 (A) (A) (A) (A) (A) (A) (A) (A) (A) (A) (A) (A)
                 (A) (A) (A) (A) (A) (A) (A) (A) (A) (A) (A) (A)
                 (A) (A) (A) (A) (A) (A) (A) (A) (A) (A) (A) (A)
                 (A) (A) (A) (A) (A) (A) (A) (A) (A) (A) (A) (A)
                 (A) (A) (A) (A) (A) (A) (A) (A) (A) (A) (A) (A)
                 (A) (A) (A) (A) (A) (A) (A) (A) (A) (A) (A) (A)
                 (A) (A) (A) (A) (A) (A) (A) (A) (A) (A) (A) (A)
                 (A) (A) (A) (A) (A) (A) (A) (A) (A) (A) (A) (A)
                 (A) (A) (A) (A) (A) (A) (A) (A) (A) (A) (A) (A)
                 (A) (A) (A) (A) (A) (A) (A) (A) (A) (A) (A) (A)
                 (A) (A) (A) (A) (A) (A) (A) (A) (A) (A) (A) (A)
                 (A) (A) (A) (A) (A) (A) (A) (A) (A) (A) (A) (A)
                 (A) (A) (A) (A) (A) (A) (A) (A) (A) (A) (A) (A)
                 (A) (A) (A) (A) (A) (A) (A) (A) (A)
 Beta  Orbitals:
       Occupied  (A) (A) (A) (A) (A) (A) (A) (A) (A) (A) (A) (A)
                 (A) (A) (A) (A) (A) (A) (A) (A) (A) (A) (A) (A)
                 (A) (A) (A) (A) (A) (A) (A) (A) (A)
       Virtual   (A) (A) (A) (A) (A) (A) (A) (A) (A) (A) (A) (A)
                 (A) (A) (A) (A) (A) (A) (A) (A) (A) (A) (A) (A)
                 (A) (A) (A) (A) (A) (A) (A) (A) (A) (A) (A) (A)
                 (A) (A) (A) (A) (A) (A) (A) (A) (A) (A) (A) (A)
                 (A) (A) (A) (A) (A) (A) (A) (A) (A) (A) (A) (A)
                 (A) (A) (A) (A) (A) (A) (A) (A) (A) (A) (A) (A)
                 (A) (A) (A) (A) (A) (A) (A) (A) (A) (A) (A) (A)
                 (A) (A) (A) (A) (A) (A) (A) (A) (A) (A) (A) (A)
                 (A) (A) (A) (A) (A) (A) (A) (A) (A) (A) (A) (A)
                 (A) (A) (A) (A) (A) (A) (A) (A) (A) (A) (A) (A)
                 (A) (A) (A) (A) (A) (A) (A) (A) (A) (A) (A) (A)
                 (A) (A) (A) (A) (A) (A) (A) (A) (A) (A) (A) (A)
                 (A) (A) (A) (A) (A) (A) (A) (A) (A) (A) (A) (A)
                 (A) (A) (A) (A) (A) (A) (A) (A) (A) (A) (A) (A)
                 (A) (A) (A) (A) (A) (A) (A) (A) (A)
 The electronic state is 1-A.
 Alpha  occ. eigenvalues --  -19.11713 -19.10537 -10.27959 -10.24571 -10.21203
 Alpha  occ. eigenvalues --  -10.20867 -10.20008 -10.19651 -10.17837  -1.04681
 Alpha  occ. eigenvalues --   -1.01061  -0.89972  -0.79737  -0.75900  -0.71929
 Alpha  occ. eigenvalues --   -0.61936  -0.58567  -0.52953  -0.52361  -0.49349
 Alpha  occ. eigenvalues --   -0.45731  -0.44891  -0.43854  -0.42632  -0.42119
 Alpha  occ. eigenvalues --   -0.40049  -0.38983  -0.38068  -0.34740  -0.31424
 Alpha  occ. eigenvalues --   -0.27675  -0.27354  -0.22900
 Alpha virt. eigenvalues --   -0.08401  -0.02402   0.00503   0.03340   0.04689
 Alpha virt. eigenvalues --    0.06448   0.08679   0.09140   0.10741   0.12535
 Alpha virt. eigenvalues --    0.12742   0.13335   0.17211   0.19852   0.22934
 Alpha virt. eigenvalues --    0.25047   0.26867   0.29754   0.32239   0.33469
 Alpha virt. eigenvalues --    0.34117   0.35936   0.37996   0.38957   0.40315
 Alpha virt. eigenvalues --    0.41163   0.41219   0.42828   0.43768   0.46258
 Alpha virt. eigenvalues --    0.46817   0.48636   0.51546   0.52450   0.53092
 Alpha virt. eigenvalues --    0.54931   0.55680   0.55948   0.58992   0.59590
 Alpha virt. eigenvalues --    0.60026   0.61120   0.61350   0.62346   0.65884
 Alpha virt. eigenvalues --    0.67420   0.68440   0.75284   0.75753   0.78054
 Alpha virt. eigenvalues --    0.81010   0.81558   0.82850   0.84456   0.85931
 Alpha virt. eigenvalues --    0.88807   0.91423   0.92575   0.93374   0.95096
 Alpha virt. eigenvalues --    1.01134   1.01814   1.04312   1.09934   1.12818
 Alpha virt. eigenvalues --    1.17373   1.19177   1.21194   1.26939   1.31108
 Alpha virt. eigenvalues --    1.31919   1.33654   1.36383   1.37536   1.40140
 Alpha virt. eigenvalues --    1.45083   1.45862   1.46139   1.48675   1.50301
 Alpha virt. eigenvalues --    1.52237   1.53264   1.54492   1.56271   1.57618
 Alpha virt. eigenvalues --    1.58446   1.62557   1.64710   1.65994   1.68095
 Alpha virt. eigenvalues --    1.70711   1.70841   1.74512   1.77068   1.79641
 Alpha virt. eigenvalues --    1.82335   1.85192   1.86589   1.92941   1.94842
 Alpha virt. eigenvalues --    1.95342   1.99226   2.01213   2.02387   2.06097
 Alpha virt. eigenvalues --    2.09269   2.09742   2.11336   2.14520   2.23233
 Alpha virt. eigenvalues --    2.28995   2.32393   2.33510   2.34628   2.37361
 Alpha virt. eigenvalues --    2.39867   2.40819   2.43864   2.46895   2.49661
 Alpha virt. eigenvalues --    2.51373   2.54441   2.55513   2.57627   2.60095
 Alpha virt. eigenvalues --    2.61632   2.64178   2.66967   2.69094   2.74005
 Alpha virt. eigenvalues --    2.77769   2.79719   2.83185   2.83884   2.86200
 Alpha virt. eigenvalues --    2.89940   2.92681   2.94707   2.98204   3.03640
 Alpha virt. eigenvalues --    3.11717   3.13378   3.15496   3.17737   3.27632
 Alpha virt. eigenvalues --    3.31623   3.34649   3.39432   3.39808   3.44794
 Alpha virt. eigenvalues --    3.52498   3.59502   3.61593   3.67774   3.82797
 Alpha virt. eigenvalues --    3.83393   3.84848   3.91460   3.92915   4.03474
 Alpha virt. eigenvalues --    4.27499   4.46073   4.90197   4.94971   5.08674
 Alpha virt. eigenvalues --    5.26123   5.58239   5.62788  23.44933  23.71781
 Alpha virt. eigenvalues --   23.89579  23.97754  24.07564  24.13108  24.34504
 Alpha virt. eigenvalues --   49.84249  49.99138
  Beta  occ. eigenvalues --  -19.11713 -19.10537 -10.27959 -10.24571 -10.21203
  Beta  occ. eigenvalues --  -10.20867 -10.20008 -10.19651 -10.17837  -1.04681
  Beta  occ. eigenvalues --   -1.01061  -0.89972  -0.79737  -0.75900  -0.71929
  Beta  occ. eigenvalues --   -0.61936  -0.58567  -0.52953  -0.52361  -0.49349
  Beta  occ. eigenvalues --   -0.45731  -0.44891  -0.43854  -0.42632  -0.42119
  Beta  occ. eigenvalues --   -0.40049  -0.38983  -0.38068  -0.34740  -0.31424
  Beta  occ. eigenvalues --   -0.27675  -0.27354  -0.22900
  Beta virt. eigenvalues --   -0.08401  -0.02402   0.00503   0.03340   0.04689
  Beta virt. eigenvalues --    0.06448   0.08679   0.09140   0.10741   0.12535
  Beta virt. eigenvalues --    0.12742   0.13335   0.17211   0.19852   0.22934
  Beta virt. eigenvalues --    0.25047   0.26867   0.29754   0.32239   0.33469
  Beta virt. eigenvalues --    0.34117   0.35936   0.37996   0.38957   0.40315
  Beta virt. eigenvalues --    0.41163   0.41219   0.42828   0.43768   0.46258
  Beta virt. eigenvalues --    0.46817   0.48636   0.51546   0.52450   0.53092
  Beta virt. eigenvalues --    0.54931   0.55680   0.55948   0.58992   0.59590
  Beta virt. eigenvalues --    0.60026   0.61120   0.61350   0.62346   0.65884
  Beta virt. eigenvalues --    0.67420   0.68440   0.75284   0.75753   0.78054
  Beta virt. eigenvalues --    0.81010   0.81558   0.82850   0.84456   0.85931
  Beta virt. eigenvalues --    0.88807   0.91423   0.92575   0.93374   0.95096
  Beta virt. eigenvalues --    1.01134   1.01814   1.04312   1.09934   1.12818
  Beta virt. eigenvalues --    1.17373   1.19177   1.21194   1.26939   1.31108
  Beta virt. eigenvalues --    1.31919   1.33654   1.36383   1.37536   1.40140
  Beta virt. eigenvalues --    1.45083   1.45862   1.46139   1.48675   1.50301
  Beta virt. eigenvalues --    1.52237   1.53264   1.54492   1.56271   1.57618
  Beta virt. eigenvalues --    1.58446   1.62557   1.64710   1.65994   1.68095
  Beta virt. eigenvalues --    1.70711   1.70841   1.74512   1.77068   1.79641
  Beta virt. eigenvalues --    1.82335   1.85192   1.86589   1.92941   1.94842
  Beta virt. eigenvalues --    1.95342   1.99226   2.01213   2.02387   2.06097
  Beta virt. eigenvalues --    2.09269   2.09742   2.11336   2.14520   2.23233
  Beta virt. eigenvalues --    2.28995   2.32393   2.33510   2.34628   2.37361
  Beta virt. eigenvalues --    2.39867   2.40819   2.43864   2.46895   2.49661
  Beta virt. eigenvalues --    2.51373   2.54441   2.55513   2.57627   2.60095
  Beta virt. eigenvalues --    2.61632   2.64178   2.66967   2.69094   2.74005
  Beta virt. eigenvalues --    2.77769   2.79719   2.83185   2.83884   2.86200
  Beta virt. eigenvalues --    2.89940   2.92681   2.94707   2.98204   3.03640
  Beta virt. eigenvalues --    3.11717   3.13378   3.15496   3.17737   3.27632
  Beta virt. eigenvalues --    3.31623   3.34649   3.39432   3.39808   3.44794
  Beta virt. eigenvalues --    3.52498   3.59502   3.61593   3.67774   3.82797
  Beta virt. eigenvalues --    3.83393   3.84848   3.91460   3.92915   4.03474
  Beta virt. eigenvalues --    4.27499   4.46073   4.90197   4.94971   5.08674
  Beta virt. eigenvalues --    5.26123   5.58239   5.62788  23.44933  23.71781
  Beta virt. eigenvalues --   23.89579  23.97754  24.07564  24.13108  24.34504
  Beta virt. eigenvalues --   49.84249  49.99138
          Condensed to atoms (all electrons):
               1          2          3          4          5          6
     1  C    4.886119   0.417756  -0.020076  -0.078224  -0.051861   0.505226
     2  C    0.417756   5.415846   0.225411   0.020611  -0.092535  -0.038811
     3  C   -0.020076   0.225411   4.701667   0.237700  -0.014526  -0.037746
     4  C   -0.078224   0.020611   0.237700   5.530423   0.470103  -0.047121
     5  C   -0.051861  -0.092535  -0.014526   0.470103   4.890339   0.488157
     6  C    0.505226  -0.038811  -0.037746  -0.047121   0.488157   5.117099
     7  H    0.405109  -0.030299   0.004397   0.001289   0.007274  -0.039955
     8  H   -0.016274   0.368814  -0.024423   0.001385   0.002404   0.004595
     9  H    0.005442   0.003043   0.002506  -0.035975   0.407708  -0.031898
    10  O   -0.000143   0.002973  -0.000277   0.031865   0.002416   0.000661
    11  O    0.004038  -0.059597   0.659065  -0.102337   0.001793  -0.000048
    12  H   -0.000136   0.000516   0.002472  -0.022531  -0.000559  -0.000299
    13  H    0.000023  -0.000207   0.003209  -0.002169  -0.000241   0.000065
    14  C   -0.053352   0.007908  -0.000284   0.006411  -0.057146   0.344564
    15  H   -0.001414  -0.000211   0.000125  -0.000065  -0.002334  -0.036730
    16  H    0.005032  -0.000312  -0.000039   0.000221  -0.006284  -0.036273
    17  H   -0.006837   0.000333  -0.000044  -0.000143   0.005053  -0.035456
               7          8          9         10         11         12
     1  C    0.405109  -0.016274   0.005442  -0.000143   0.004038  -0.000136
     2  C   -0.030299   0.368814   0.003043   0.002973  -0.059597   0.000516
     3  C    0.004397  -0.024423   0.002506  -0.000277   0.659065   0.002472
     4  C    0.001289   0.001385  -0.035975   0.031865  -0.102337  -0.022531
     5  C    0.007274   0.002404   0.407708   0.002416   0.001793  -0.000559
     6  C   -0.039955   0.004595  -0.031898   0.000661  -0.000048  -0.000299
     7  H    0.556606  -0.007078  -0.000231   0.000000  -0.000078   0.000006
     8  H   -0.007078   0.514676  -0.000060  -0.000038   0.004785  -0.000059
     9  H   -0.000231  -0.000060   0.515992   0.003253   0.000003  -0.000269
    10  O    0.000000  -0.000038   0.003253   7.803736  -0.007508   0.314025
    11  O   -0.000078   0.004785   0.000003  -0.007508   7.836044   0.030973
    12  H    0.000006  -0.000059  -0.000269   0.314025   0.030973   0.444491
    13  H   -0.000001   0.000001  -0.000478   0.310032   0.000014  -0.038428
    14  C   -0.003215  -0.000392  -0.003893   0.000001   0.000002   0.000000
    15  H   -0.000065   0.000016   0.000278  -0.000000  -0.000001   0.000001
    16  H   -0.000004   0.000009   0.001341  -0.000001   0.000000   0.000001
    17  H    0.002231   0.000015   0.000070   0.000000   0.000000  -0.000000
              13         14         15         16         17
     1  C    0.000023  -0.053352  -0.001414   0.005032  -0.006837
     2  C   -0.000207   0.007908  -0.000211  -0.000312   0.000333
     3  C    0.003209  -0.000284   0.000125  -0.000039  -0.000044
     4  C   -0.002169   0.006411  -0.000065   0.000221  -0.000143
     5  C   -0.000241  -0.057146  -0.002334  -0.006284   0.005053
     6  C    0.000065   0.344564  -0.036730  -0.036273  -0.035456
     7  H   -0.000001  -0.003215  -0.000065  -0.000004   0.002231
     8  H    0.000001  -0.000392   0.000016   0.000009   0.000015
     9  H   -0.000478  -0.003893   0.000278   0.001341   0.000070
    10  O    0.310032   0.000001  -0.000000  -0.000001   0.000000
    11  O    0.000014   0.000002  -0.000001   0.000000   0.000000
    12  H   -0.038428   0.000000   0.000001   0.000001  -0.000000
    13  H    0.479493  -0.000001  -0.000001   0.000001   0.000000
    14  C   -0.000001   4.783959   0.402243   0.411950   0.412154
    15  H   -0.000001   0.402243   0.561409  -0.027272  -0.027348
    16  H    0.000001   0.411950  -0.027272   0.556889  -0.024984
    17  H    0.000000   0.412154  -0.027348  -0.024984   0.556253
          Atomic-Atomic Spin Densities.
               1          2          3          4          5          6
     1  C    0.000000   0.000000   0.000000   0.000000   0.000000   0.000000
     2  C    0.000000   0.000000   0.000000   0.000000   0.000000   0.000000
     3  C    0.000000   0.000000   0.000000   0.000000   0.000000   0.000000
     4  C    0.000000   0.000000   0.000000   0.000000   0.000000   0.000000
     5  C    0.000000   0.000000   0.000000   0.000000   0.000000   0.000000
     6  C    0.000000   0.000000   0.000000   0.000000   0.000000   0.000000
     7  H    0.000000   0.000000   0.000000   0.000000   0.000000   0.000000
     8  H    0.000000   0.000000   0.000000   0.000000   0.000000   0.000000
     9  H    0.000000   0.000000   0.000000   0.000000   0.000000   0.000000
    10  O    0.000000   0.000000   0.000000   0.000000   0.000000   0.000000
    11  O    0.000000   0.000000   0.000000   0.000000   0.000000   0.000000
    12  H    0.000000   0.000000   0.000000   0.000000   0.000000   0.000000
    13  H    0.000000   0.000000   0.000000   0.000000   0.000000   0.000000
    14  C    0.000000   0.000000   0.000000   0.000000   0.000000   0.000000
    15  H    0.000000   0.000000   0.000000   0.000000   0.000000   0.000000
    16  H    0.000000   0.000000   0.000000   0.000000   0.000000   0.000000
    17  H    0.000000   0.000000   0.000000   0.000000   0.000000   0.000000
               7          8          9         10         11         12
     1  C    0.000000   0.000000   0.000000   0.000000   0.000000   0.000000
     2  C    0.000000   0.000000   0.000000   0.000000   0.000000   0.000000
     3  C    0.000000   0.000000   0.000000   0.000000   0.000000   0.000000
     4  C    0.000000   0.000000   0.000000   0.000000   0.000000   0.000000
     5  C    0.000000   0.000000   0.000000   0.000000   0.000000   0.000000
     6  C    0.000000   0.000000   0.000000   0.000000   0.000000   0.000000
     7  H    0.000000   0.000000   0.000000   0.000000   0.000000   0.000000
     8  H    0.000000   0.000000   0.000000   0.000000   0.000000   0.000000
     9  H    0.000000   0.000000   0.000000   0.000000   0.000000   0.000000
    10  O    0.000000   0.000000   0.000000   0.000000   0.000000   0.000000
    11  O    0.000000   0.000000   0.000000   0.000000   0.000000   0.000000
    12  H    0.000000   0.000000   0.000000   0.000000   0.000000   0.000000
    13  H    0.000000   0.000000   0.000000   0.000000   0.000000   0.000000
    14  C    0.000000   0.000000   0.000000   0.000000   0.000000   0.000000
    15  H    0.000000   0.000000   0.000000   0.000000   0.000000   0.000000
    16  H    0.000000   0.000000   0.000000   0.000000   0.000000   0.000000
    17  H    0.000000   0.000000   0.000000   0.000000   0.000000   0.000000
              13         14         15         16         17
     1  C    0.000000   0.000000   0.000000   0.000000   0.000000
     2  C    0.000000   0.000000   0.000000   0.000000   0.000000
     3  C    0.000000   0.000000   0.000000   0.000000   0.000000
     4  C    0.000000   0.000000   0.000000   0.000000   0.000000
     5  C    0.000000   0.000000   0.000000   0.000000   0.000000
     6  C    0.000000   0.000000   0.000000   0.000000   0.000000
     7  H    0.000000   0.000000   0.000000   0.000000   0.000000
     8  H    0.000000   0.000000   0.000000   0.000000   0.000000
     9  H    0.000000   0.000000   0.000000   0.000000   0.000000
    10  O    0.000000   0.000000   0.000000   0.000000   0.000000
    11  O    0.000000   0.000000   0.000000   0.000000   0.000000
    12  H    0.000000   0.000000   0.000000   0.000000   0.000000
    13  H    0.000000   0.000000   0.000000   0.000000   0.000000
    14  C    0.000000   0.000000   0.000000   0.000000   0.000000
    15  H    0.000000   0.000000   0.000000   0.000000   0.000000
    16  H    0.000000   0.000000   0.000000   0.000000   0.000000
    17  H    0.000000   0.000000   0.000000   0.000000   0.000000
 Mulliken charges and spin densities:
               1          2
     1  C   -0.000427   0.000000
     2  C   -0.241239   0.000000
     3  C    0.260863   0.000000
     4  C   -0.011442   0.000000
     5  C   -0.049762   0.000000
     6  C   -0.156031   0.000000
     7  H    0.104015   0.000000
     8  H    0.151624   0.000000
     9  H    0.133169   0.000000
    10  O   -0.460996   0.000000
    11  O   -0.367148   0.000000
    12  H    0.269798   0.000000
    13  H    0.248689   0.000000
    14  C   -0.250910   0.000000
    15  H    0.131371   0.000000
    16  H    0.119725   0.000000
    17  H    0.118702   0.000000
 Sum of Mulliken charges =  -0.00000   0.00000
 Mulliken charges and spin densities with hydrogens summed into heavy atoms:
               1          2
     1  C    0.103588   0.000000
     2  C   -0.089615   0.000000
     3  C    0.260863   0.000000
     4  C   -0.011442   0.000000
     5  C    0.083406   0.000000
     6  C   -0.156031   0.000000
    10  O    0.057491   0.000000
    11  O   -0.367148   0.000000
    14  C    0.118888   0.000000
 APT charges:
               1
     1  C   -0.524999
     2  C   -0.573263
     3  C   -0.443547
     4  C   -0.094751
     5  C   -0.446804
     6  C    0.007628
     7  H    0.582332
     8  H    0.548237
     9  H    0.465081
    10  O   -0.744944
    11  O    0.325318
    12  H    0.296342
    13  H    0.519216
    14  C   -1.194555
    15  H    0.370130
    16  H    0.398293
    17  H    0.510286
 Sum of APT charges =  -0.00000
 APT charges with hydrogens summed into heavy atoms:
               1
     1  C    0.057332
     2  C   -0.025026
     3  C   -0.443547
     4  C   -0.094751
     5  C    0.018277
     6  C    0.007628
    10  O    0.070614
    11  O    0.325318
    14  C    0.084154
 Electronic spatial extent (au):  <R**2>=           1427.1646
 Charge=              0.0000 electrons
 Dipole moment (field-independent basis, Debye):
    X=              3.3322    Y=             -0.8568    Z=              1.2149  Tot=              3.6487
 Quadrupole moment (field-independent basis, Debye-Ang):
   XX=            -53.5903   YY=            -51.4469   ZZ=            -54.2532
   XY=              2.2832   XZ=             -2.5348   YZ=             -4.6032
 Traceless Quadrupole moment (field-independent basis, Debye-Ang):
   XX=             -0.4935   YY=              1.6499   ZZ=             -1.1564
   XY=              2.2832   XZ=             -2.5348   YZ=             -4.6032
 Octapole moment (field-independent basis, Debye-Ang**2):
  XXX=              0.8559  YYY=             -0.3536  ZZZ=              6.0961  XYY=             10.8141
  XXY=             -6.9342  XXZ=              9.8095  XZZ=            -12.4830  YZZ=             -5.4797
  YYZ=              4.0462  XYZ=             10.5475
 Hexadecapole moment (field-independent basis, Debye-Ang**3):
 XXXX=          -1244.2196 YYYY=           -445.7340 ZZZZ=            -74.8178 XXXY=             33.3197
 XXXZ=            -27.4369 YYYX=              5.5576 YYYZ=            -18.8703 ZZZX=             -4.6506
 ZZZY=             -4.9021 XXYY=           -318.2481 XXZZ=           -214.5848 YYZZ=            -90.7524
 XXYZ=            -29.2706 YYXZ=            -17.4479 ZZXY=              9.1718
 N-N= 4.076824606760D+02 E-N=-1.800977959709D+03  KE= 4.205364268763D+02
  Exact polarizability:       0.000       0.000       0.000       0.000       0.000       0.000
 Approx polarizability:     200.192     -14.229     171.936      -3.221       8.594      73.477
                          Isotropic Fermi Contact Couplings
        Atom                 a.u.       MegaHertz       Gauss      10(-4) cm-1
     1  C(13)              0.00000       0.00000       0.00000       0.00000
     2  C(13)              0.00000       0.00000       0.00000       0.00000
     3  C(13)              0.00000       0.00000       0.00000       0.00000
     4  C(13)              0.00000       0.00000       0.00000       0.00000
     5  C(13)              0.00000       0.00000       0.00000       0.00000
     6  C(13)              0.00000       0.00000       0.00000       0.00000
     7  H(1)               0.00000       0.00000       0.00000       0.00000
     8  H(1)               0.00000       0.00000       0.00000       0.00000
     9  H(1)               0.00000       0.00000       0.00000       0.00000
    10  O(17)              0.00000      -0.00000      -0.00000      -0.00000
    11  O(17)              0.00000      -0.00000      -0.00000      -0.00000
    12  H(1)               0.00000       0.00000       0.00000       0.00000
    13  H(1)               0.00000       0.00000       0.00000       0.00000
    14  C(13)              0.00000       0.00000       0.00000       0.00000
    15  H(1)               0.00000       0.00000       0.00000       0.00000
    16  H(1)               0.00000       0.00000       0.00000       0.00000
    17  H(1)               0.00000       0.00000       0.00000       0.00000
 --------------------------------------------------------
       Center         ----  Spin Dipole Couplings  ----
                      3XX-RR        3YY-RR        3ZZ-RR
 --------------------------------------------------------
     1   Atom        0.000000      0.000000      0.000000
     2   Atom        0.000000      0.000000      0.000000
     3   Atom        0.000000      0.000000      0.000000
     4   Atom        0.000000      0.000000      0.000000
     5   Atom        0.000000      0.000000      0.000000
     6   Atom        0.000000      0.000000      0.000000
     7   Atom        0.000000      0.000000      0.000000
     8   Atom        0.000000      0.000000      0.000000
     9   Atom        0.000000      0.000000      0.000000
    10   Atom        0.000000      0.000000      0.000000
    11   Atom        0.000000      0.000000      0.000000
    12   Atom        0.000000      0.000000      0.000000
    13   Atom        0.000000      0.000000      0.000000
    14   Atom        0.000000      0.000000      0.000000
    15   Atom        0.000000      0.000000      0.000000
    16   Atom        0.000000      0.000000      0.000000
    17   Atom        0.000000      0.000000      0.000000
 --------------------------------------------------------
                        XY            XZ            YZ
 --------------------------------------------------------
     1   Atom        0.000000      0.000000      0.000000
     2   Atom        0.000000      0.000000      0.000000
     3   Atom        0.000000      0.000000      0.000000
     4   Atom        0.000000      0.000000      0.000000
     5   Atom        0.000000      0.000000      0.000000
     6   Atom        0.000000      0.000000      0.000000
     7   Atom        0.000000      0.000000      0.000000
     8   Atom        0.000000      0.000000      0.000000
     9   Atom        0.000000      0.000000      0.000000
    10   Atom        0.000000      0.000000      0.000000
    11   Atom        0.000000      0.000000      0.000000
    12   Atom        0.000000      0.000000      0.000000
    13   Atom        0.000000      0.000000      0.000000
    14   Atom        0.000000      0.000000      0.000000
    15   Atom        0.000000      0.000000      0.000000
    16   Atom        0.000000      0.000000      0.000000
    17   Atom        0.000000      0.000000      0.000000
 --------------------------------------------------------


 ---------------------------------------------------------------------------------
              Anisotropic Spin Dipole Couplings in Principal Axis System
 ---------------------------------------------------------------------------------

       Atom             a.u.   MegaHertz   Gauss  10(-4) cm-1        Axes

              Baa     0.0000     0.000     0.000     0.000  1.0000  0.0000  0.0000
     1 C(13)  Bbb     0.0000     0.000     0.000     0.000 -0.0000  1.0000  0.0000
              Bcc     0.0000     0.000     0.000     0.000  0.0000  0.0000  1.0000
 
              Baa     0.0000     0.000     0.000     0.000  1.0000  0.0000  0.0000
     2 C(13)  Bbb     0.0000     0.000     0.000     0.000 -0.0000  1.0000  0.0000
              Bcc     0.0000     0.000     0.000     0.000  0.0000  0.0000  1.0000
 
              Baa     0.0000     0.000     0.000     0.000  1.0000  0.0000  0.0000
     3 C(13)  Bbb     0.0000     0.000     0.000     0.000 -0.0000  1.0000  0.0000
              Bcc     0.0000     0.000     0.000     0.000  0.0000  0.0000  1.0000
 
              Baa     0.0000     0.000     0.000     0.000  1.0000  0.0000  0.0000
     4 C(13)  Bbb     0.0000     0.000     0.000     0.000 -0.0000  1.0000  0.0000
              Bcc     0.0000     0.000     0.000     0.000  0.0000  0.0000  1.0000
 
              Baa     0.0000     0.000     0.000     0.000  1.0000  0.0000  0.0000
     5 C(13)  Bbb     0.0000     0.000     0.000     0.000 -0.0000  1.0000  0.0000
              Bcc     0.0000     0.000     0.000     0.000  0.0000  0.0000  1.0000
 
              Baa     0.0000     0.000     0.000     0.000  1.0000  0.0000  0.0000
     6 C(13)  Bbb     0.0000     0.000     0.000     0.000 -0.0000  1.0000  0.0000
              Bcc     0.0000     0.000     0.000     0.000  0.0000  0.0000  1.0000
 
              Baa     0.0000     0.000     0.000     0.000  1.0000  0.0000  0.0000
     7 H(1)   Bbb     0.0000     0.000     0.000     0.000 -0.0000  1.0000  0.0000
              Bcc     0.0000     0.000     0.000     0.000  0.0000  0.0000  1.0000
 
              Baa     0.0000     0.000     0.000     0.000  1.0000  0.0000  0.0000
     8 H(1)   Bbb     0.0000     0.000     0.000     0.000 -0.0000  1.0000  0.0000
              Bcc     0.0000     0.000     0.000     0.000  0.0000  0.0000  1.0000
 
              Baa     0.0000     0.000     0.000     0.000  1.0000  0.0000  0.0000
     9 H(1)   Bbb     0.0000     0.000     0.000     0.000 -0.0000  1.0000  0.0000
              Bcc     0.0000     0.000     0.000     0.000  0.0000  0.0000  1.0000
 
              Baa     0.0000    -0.000    -0.000    -0.000  1.0000  0.0000  0.0000
    10 O(17)  Bbb     0.0000    -0.000    -0.000    -0.000 -0.0000  1.0000  0.0000
              Bcc     0.0000    -0.000    -0.000    -0.000  0.0000  0.0000  1.0000
 
              Baa     0.0000    -0.000    -0.000    -0.000  1.0000  0.0000  0.0000
    11 O(17)  Bbb     0.0000    -0.000    -0.000    -0.000 -0.0000  1.0000  0.0000
              Bcc     0.0000    -0.000    -0.000    -0.000  0.0000  0.0000  1.0000
 
              Baa     0.0000     0.000     0.000     0.000  1.0000  0.0000  0.0000
    12 H(1)   Bbb     0.0000     0.000     0.000     0.000 -0.0000  1.0000  0.0000
              Bcc     0.0000     0.000     0.000     0.000  0.0000  0.0000  1.0000
 
              Baa     0.0000     0.000     0.000     0.000  1.0000  0.0000  0.0000
    13 H(1)   Bbb     0.0000     0.000     0.000     0.000 -0.0000  1.0000  0.0000
              Bcc     0.0000     0.000     0.000     0.000  0.0000  0.0000  1.0000
 
              Baa     0.0000     0.000     0.000     0.000  1.0000  0.0000  0.0000
    14 C(13)  Bbb     0.0000     0.000     0.000     0.000 -0.0000  1.0000  0.0000
              Bcc     0.0000     0.000     0.000     0.000  0.0000  0.0000  1.0000
 
              Baa     0.0000     0.000     0.000     0.000  1.0000  0.0000  0.0000
    15 H(1)   Bbb     0.0000     0.000     0.000     0.000 -0.0000  1.0000  0.0000
              Bcc     0.0000     0.000     0.000     0.000  0.0000  0.0000  1.0000
 
              Baa     0.0000     0.000     0.000     0.000  1.0000  0.0000  0.0000
    16 H(1)   Bbb     0.0000     0.000     0.000     0.000 -0.0000  1.0000  0.0000
              Bcc     0.0000     0.000     0.000     0.000  0.0000  0.0000  1.0000
 
              Baa     0.0000     0.000     0.000     0.000  1.0000  0.0000  0.0000
    17 H(1)   Bbb     0.0000     0.000     0.000     0.000 -0.0000  1.0000  0.0000
              Bcc     0.0000     0.000     0.000     0.000  0.0000  0.0000  1.0000
 

 ---------------------------------------------------------------------------------

 Calling FoFJK, ICntrl=    100127 FMM=F ISym2X=0 I1Cent= 0 IOpClX= 1 NMat=1 NMatS=1 NMatT=0.
 ***** Axes restored to original set *****
 -------------------------------------------------------------------
 Center     Atomic                   Forces (Hartrees/Bohr)
 Number     Number              X              Y              Z
 -------------------------------------------------------------------
      1        6          -0.003729659    0.000739516   -0.000671566
      2        6          -0.001351527    0.000119414    0.000210968
      3        6           0.001467897   -0.001437814    0.000391768
      4        6          -0.000714271    0.002170970    0.000359112
      5        6          -0.001730213    0.003102111   -0.001320726
      6        6           0.017634572   -0.014294058    0.003009165
      7        1           0.000467205   -0.000231615   -0.000154688
      8        1          -0.000132375    0.000032179   -0.000080531
      9        1           0.000279154   -0.000276123    0.000060314
     10        8          -0.000340280   -0.000225985   -0.000020113
     11        8          -0.001820603    0.001522370   -0.000314748
     12        1           0.000247601    0.000159921    0.000047438
     13        1           0.000081804    0.000087062   -0.000045527
     14        6          -0.028274733    0.021779887   -0.007341471
     15        1           0.004202904   -0.004066769    0.015310922
     16        1           0.000228207   -0.013490429   -0.005550810
     17        1           0.013484314    0.004309364   -0.003889505
 -------------------------------------------------------------------
 Cartesian Forces:  Max     0.028274733 RMS     0.007135176
 FormGI is forming the generalized inverse of G from B-inverse, IUseBI=4.

 GradGradGradGradGradGradGradGradGradGradGradGradGradGradGradGradGradGrad
 Berny optimization.
 Internal  Forces:  Max     0.015984872 RMS     0.003710230
 Search for a saddle point.
 Step number   1 out of a maximum of   82
 All quantities printed in internal units (Hartrees-Bohrs-Radians)
 Swapping is turned off.
 Second derivative matrix not updated -- analytic derivatives used.
 ITU=  0
     Eigenvalues ---   -0.03845   0.00005   0.00124   0.00335   0.00833
     Eigenvalues ---    0.01035   0.01131   0.01275   0.01817   0.01936
     Eigenvalues ---    0.02248   0.02570   0.03167   0.03394   0.03826
     Eigenvalues ---    0.05837   0.05938   0.08915   0.09496   0.11165
     Eigenvalues ---    0.12143   0.12374   0.12970   0.13733   0.14942
     Eigenvalues ---    0.15091   0.16487   0.17759   0.19005   0.21720
     Eigenvalues ---    0.28440   0.34651   0.35276   0.35449   0.36250
     Eigenvalues ---    0.37914   0.38188   0.38657   0.38829   0.43101
     Eigenvalues ---    0.50325   0.51639   0.52729   0.53471   0.81547
 Eigenvectors required to have negative eigenvalues:
                          A9        A7        D18       D17       A10
   1                   -0.37828   0.37377   0.28367   0.27159  -0.26177
                          A18       D13       R4        A4        A6
   1                   -0.24712  -0.24631  -0.24407  -0.21872   0.21453
 RFO step:  Lambda0=1.079473594D-04 Lambda=-3.87239077D-03.
 Linear search not attempted -- option 19 set.
 Iteration  1 RMS(Cart)=  0.01946119 RMS(Int)=  0.00046953
 Iteration  2 RMS(Cart)=  0.00049049 RMS(Int)=  0.00016840
 Iteration  3 RMS(Cart)=  0.00000049 RMS(Int)=  0.00016840
 Variable       Old X    -DE/DX   Delta X   Delta X   Delta X     New X
                                 (Linear)    (Quad)   (Total)
    R1        2.60987   0.00128   0.00000   0.00103   0.00108   2.61095
    R2        2.65288   0.00182   0.00000   0.00783   0.00791   2.66079
    R3        2.04873   0.00029   0.00000   0.00172   0.00172   2.05044
    R4        2.95742  -0.00115   0.00000  -0.01707  -0.01710   2.94032
    R5        2.05229   0.00005   0.00000   0.00042   0.00042   2.05271
    R6        2.53539  -0.00084   0.00000   0.00174   0.00169   2.53708
    R7        2.29247   0.00235   0.00000   0.00574   0.00574   2.29822
    R8        2.58607   0.00189   0.00000  -0.00318  -0.00324   2.58283
    R9        2.62732   0.00211   0.00000   0.00997   0.00999   2.63732
   R10        2.04503   0.00018   0.00000   0.00139   0.00139   2.04642
   R11        2.91018  -0.01345   0.00000  -0.07242  -0.07242   2.83776
   R12        1.83162   0.00011   0.00000   0.00121   0.00121   1.83283
   R13        1.82015  -0.00006   0.00000   0.00009   0.00009   1.82024
   R14        4.15236  -0.00001   0.00000  -0.03135  -0.03135   4.12101
   R15        2.02201   0.01598   0.00000   0.04419   0.04419   2.06620
   R16        2.02201   0.01434   0.00000   0.03898   0.03898   2.06099
   R17        2.02201   0.01450   0.00000   0.03987   0.03987   2.06188
    A1        2.07327   0.00257   0.00000   0.01706   0.01707   2.09034
    A2        2.07757  -0.00085   0.00000  -0.00516  -0.00517   2.07241
    A3        2.13097  -0.00172   0.00000  -0.01192  -0.01192   2.11905
    A4        2.32374   0.00077   0.00000   0.00068   0.00049   2.32423
    A5        2.13287  -0.00025   0.00000  -0.00653  -0.00653   2.12633
    A6        1.82655  -0.00052   0.00000   0.00600   0.00600   1.83255
    A7        1.47637  -0.00159   0.00000   0.00769   0.00743   1.48380
    A8        2.21166   0.00064   0.00000   0.00562   0.00579   2.21745
    A9        2.56281   0.00091   0.00000  -0.01307  -0.01299   2.54982
   A10        2.50976   0.00105   0.00000   0.00765   0.00750   2.51726
   A11        1.99003   0.00232   0.00000   0.01312   0.01298   2.00301
   A12        2.09510  -0.00084   0.00000  -0.00353  -0.00347   2.09163
   A13        2.19487  -0.00150   0.00000  -0.00996  -0.00990   2.18497
   A14        1.95606  -0.00491   0.00000  -0.02184  -0.02184   1.93422
   A15        2.17429   0.00142   0.00000   0.00325   0.00324   2.17753
   A16        2.14973   0.00349   0.00000   0.01813   0.01812   2.16784
   A17        1.79842  -0.00014   0.00000  -0.00092  -0.00092   1.79750
   A18        1.49491   0.00058   0.00000  -0.00155  -0.00155   1.49336
   A19        2.37377   0.00044   0.00000   0.01146   0.01146   2.38523
   A20        1.91063   0.00417   0.00000   0.04031   0.03972   1.95036
   A21        1.91063   0.00270   0.00000   0.03266   0.03208   1.94271
   A22        1.91063   0.00175   0.00000   0.02115   0.02078   1.93141
   A23        1.91063  -0.00297   0.00000  -0.02993  -0.03068   1.87996
   A24        1.91063  -0.00320   0.00000  -0.03641  -0.03676   1.87387
   A25        1.91063  -0.00245   0.00000  -0.02779  -0.02813   1.88250
    D1        0.27930   0.00012   0.00000  -0.02159  -0.02167   0.25763
    D2       -2.87214   0.00018   0.00000   0.00311   0.00298  -2.86916
    D3       -2.91742   0.00005   0.00000  -0.02231  -0.02237  -2.93979
    D4        0.21432   0.00012   0.00000   0.00238   0.00229   0.21661
    D5        0.01051   0.00028   0.00000   0.00561   0.00560   0.01610
    D6       -3.04850   0.00011   0.00000   0.01100   0.01094  -3.03756
    D7       -3.07418   0.00032   0.00000   0.00609   0.00605  -3.06813
    D8        0.15000   0.00014   0.00000   0.01149   0.01140   0.16139
    D9       -0.51841   0.00014   0.00000   0.03024   0.03022  -0.48818
   D10        2.83151   0.00016   0.00000   0.03205   0.03200   2.86351
   D11        2.63181   0.00008   0.00000   0.00869   0.00859   2.64039
   D12       -0.30146   0.00011   0.00000   0.01050   0.01036  -0.29110
   D13        0.86090  -0.00003   0.00000  -0.03890  -0.03895   0.82195
   D14       -2.58860  -0.00035   0.00000  -0.03393  -0.03404  -2.62264
   D15        2.94575  -0.00032   0.00000  -0.00862  -0.00866   2.93710
   D16        0.19008   0.00023   0.00000  -0.01297  -0.01293   0.17715
   D17       -0.76865  -0.00025   0.00000   0.03388   0.03392  -0.73473
   D18        2.29211  -0.00049   0.00000   0.02864   0.02864   2.32075
   D19        0.08348  -0.00054   0.00000  -0.00562  -0.00561   0.07787
   D20       -3.13935  -0.00047   0.00000  -0.01171  -0.01173   3.13211
   D21       -2.97187  -0.00033   0.00000  -0.00046  -0.00045  -2.97232
   D22        0.08849  -0.00026   0.00000  -0.00656  -0.00656   0.08192
   D23        1.55119  -0.00047   0.00000  -0.02956  -0.02975   1.52144
   D24       -2.63760   0.00010   0.00000  -0.02153  -0.02141  -2.65901
   D25       -0.54321  -0.00017   0.00000  -0.02261  -0.02266  -0.56587
   D26       -1.49895  -0.00027   0.00000  -0.02168  -0.02179  -1.52074
   D27        0.59545   0.00030   0.00000  -0.01365  -0.01345   0.58200
   D28        2.68984   0.00003   0.00000  -0.01473  -0.01470   2.67515
   D29        1.31599  -0.00015   0.00000  -0.00777  -0.00777   1.30823
   D30        0.44277   0.00001   0.00000  -0.00684  -0.00684   0.43592
         Item               Value     Threshold  Converged?
 Maximum Force            0.015985     0.000450     NO 
 RMS     Force            0.003710     0.000300     NO 
 Maximum Displacement     0.073627     0.001800     NO 
 RMS     Displacement     0.019583     0.001200     NO 
 Predicted change in Energy=-1.937365D-03
 GradGradGradGradGradGradGradGradGradGradGradGradGradGradGradGradGradGrad

                          Input orientation:                          
 ---------------------------------------------------------------------
 Center     Atomic      Atomic             Coordinates (Angstroms)
 Number     Number       Type             X           Y           Z
 ---------------------------------------------------------------------
      1          6           0        2.128047    0.432338    0.062309
      2          6           0        0.971812    1.172337   -0.094193
      3          6           0       -0.539228    0.828367    0.045157
      4          6           0       -0.166368   -0.417322   -0.289083
      5          6           0        0.739808   -1.408940   -0.036868
      6          6           0        2.057319   -0.973067    0.111128
      7          1           0        3.080061    0.952052    0.092281
      8          1           0        0.996299    2.219022   -0.383654
      9          1           0        0.398379   -2.425745    0.112301
     10          8           0       -2.684821   -1.076067   -0.078918
     11          8           0       -1.463145    1.612878    0.145027
     12          1           0       -2.746463   -0.115917   -0.201386
     13          1           0       -2.785657   -1.179768    0.873391
     14          6           0        3.218493   -1.879172    0.403842
     15          1           0        3.347308   -2.038528    1.477855
     16          1           0        3.086558   -2.855926   -0.063075
     17          1           0        4.147090   -1.449716    0.024669
 ---------------------------------------------------------------------
                    Distance matrix (angstroms):
                    1          2          3          4          5
     1  C    0.000000
     2  C    1.381655   0.000000
     3  C    2.696570   1.555949   0.000000
     4  C    2.471789   1.964803   1.342565   0.000000
     5  C    2.308106   2.592317   2.578411   1.366775   0.000000
     6  C    1.408031   2.413139   3.160945   2.326758   1.395609
     7  H    1.085049   2.127912   3.621708   3.543998   3.326822
     8  H    2.161475   1.086249   2.115572   2.882889   3.653514
     9  H    3.341091   3.649337   3.387161   2.124574   1.082921
    10  O    5.045684   4.292612   2.871555   2.611651   3.441025
    11  O    3.781161   2.486025   1.216164   2.447814   3.743992
    12  H    4.912328   3.936580   2.413367   2.599121   3.721970
    13  H    5.234618   4.537311   3.124903   2.965357   3.648286
    14  C    2.578526   3.821953   4.645416   3.751591   2.561098
    15  H    3.097668   4.292315   5.037546   4.253974   3.080556
    16  H    3.427411   4.549728   5.170305   4.071781   2.757117
    17  H    2.760449   4.119670   5.210725   4.446369   3.408082
                    6          7          8          9         10
     6  C    0.000000
     7  H    2.180009   0.000000
     8  H    3.400001   2.484711   0.000000
     9  H    2.205075   4.312926   4.709283   0.000000
    10  O    4.747064   6.113627   4.949861   3.371101   0.000000
    11  O    4.368287   4.591317   2.587621   4.447114   2.961937
    12  H    4.889652   5.930867   4.415137   3.914555   0.969890
    13  H    4.906953   6.289788   5.237856   3.502828   0.963231
    14  C    1.501677   2.851678   4.727948   2.887348   5.977219
    15  H    2.160375   3.306781   5.207609   3.272744   6.303686
    16  H    2.152868   3.811152   5.497914   2.728024   6.039617
    17  H    2.145184   2.628995   4.853231   3.874680   6.842905
                   11         12         13         14         15
    11  O    0.000000
    12  H    2.180743   0.000000
    13  H    3.174654   1.512766   0.000000
    14  C    5.846293   6.249486   6.062958   0.000000
    15  H    6.184630   6.606840   6.222227   1.093385   0.000000
    16  H    6.380699   6.446000   6.178137   1.090627   1.763688
    17  H    6.392864   7.025041   6.989720   1.091100   1.760142
                   16         17
    16  H    0.000000
    17  H    1.763478   0.000000
 Stoichiometry    C7H8O2
 Framework group  C1[X(C7H8O2)]
 Deg. of freedom    45
 Full point group                 C1      NOp   1
 Largest Abelian subgroup         C1      NOp   1
 Largest concise Abelian subgroup C1      NOp   1
                         Standard orientation:                         
 ---------------------------------------------------------------------
 Center     Atomic      Atomic             Coordinates (Angstroms)
 Number     Number       Type             X           Y           Z
 ---------------------------------------------------------------------
      1          6           0        1.456874    1.139698   -0.026937
      2          6           0        0.131957    1.522271   -0.111807
      3          6           0       -1.210684    0.756552    0.066980
      4          6           0       -0.514438   -0.320164   -0.331021
      5          6           0        0.647020   -1.018043   -0.151990
      6          6           0        1.791342   -0.228016   -0.033211
      7          1           0        2.221950    1.908911   -0.009581
      8          1           0       -0.155714    2.540184   -0.358862
      9          1           0        0.616279   -2.093916   -0.032528
     10          8           0       -2.728914   -1.677589   -0.058594
     11          8           0       -2.314079    1.240755    0.231669
     12          1           0       -3.066790   -0.772051   -0.139383
     13          1           0       -2.752378   -1.833451    0.891654
     14          6           0        3.174494   -0.772230    0.180695
     15          1           0        3.392341   -0.919245    1.242024
     16          1           0        3.304762   -1.731901   -0.320831
     17          1           0        3.924109   -0.084262   -0.213354
 ---------------------------------------------------------------------
 Rotational constants (GHZ):           2.9813961           1.0494531           0.7900921
 Standard basis: 6-311G(d,p) (5D, 7F)
 There are   219 symmetry adapted cartesian basis functions of A   symmetry.
 There are   210 symmetry adapted basis functions of A   symmetry.
   210 basis functions,   352 primitive gaussians,   219 cartesian basis functions
    33 alpha electrons       33 beta electrons
       nuclear repulsion energy       408.1839324728 Hartrees.
 NAtoms=   17 NActive=   17 NUniq=   17 SFac= 1.00D+00 NAtFMM=   60 NAOKFM=F Big=F
 Integral buffers will be    131072 words long.
 Raffenetti 2 integral format.
 Two-electron integral symmetry is turned on.
 One-electron integrals computed using PRISM.
 NBasis=   210 RedAO= T EigKep=  4.44D-04  NBF=   210
 NBsUse=   210 1.00D-06 EigRej= -1.00D+00 NBFU=   210
 Initial guess from the checkpoint file:  "3-ts-4.chk"
 B after Tr=     0.000000    0.000000   -0.000000
         Rot=    0.999998    0.000975   -0.000101   -0.001444 Ang=   0.20 deg.
 Initial guess <Sx>= 0.0000 <Sy>= 0.0000 <Sz>= 0.0000 <S**2>=-0.0000 S=-0.0000
 ExpMin= 1.03D-01 ExpMax= 8.59D+03 ExpMxC= 1.30D+03 IAcc=3 IRadAn=         5 AccDes= 0.00D+00
 Harris functional with IExCor=  402 and IRadAn=       5 diagonalized for initial guess.
 HarFok:  IExCor=  402 AccDes= 0.00D+00 IRadAn=         5 IDoV= 1 UseB2=F ITyADJ=14
 ICtDFT=  3500011 ScaDFX=  1.000000  1.000000  1.000000  1.000000
 FoFCou: FMM=F IPFlag=           0 FMFlag=      100000 FMFlg1=           0
         NFxFlg=           0 DoJE=T BraDBF=F KetDBF=T FulRan=T
         wScrn=  0.000000 ICntrl=       500 IOpCl=  0 I1Cent=   200000004 NGrid=           0
         NMat0=    1 NMatS0=      1 NMatT0=    0 NMatD0=    1 NMtDS0=    0 NMtDT0=    0
 Petite list used in FoFCou.
 Requested convergence on RMS density matrix=1.00D-08 within 128 cycles.
 Requested convergence on MAX density matrix=1.00D-06.
 Requested convergence on             energy=1.00D-06.
 No special actions if energy rises.
 Integral accuracy reduced to 1.0D-05 until final iterations.
 Initial convergence to 1.0D-05 achieved.  Increase integral accuracy.
 SCF Done:  E(UB3LYP) =  -421.992959511     A.U. after   12 cycles
            NFock= 12  Conv=0.98D-08     -V/T= 2.0036
 <Sx>= 0.0000 <Sy>= 0.0000 <Sz>= 0.0000 <S**2>=-0.0000 S=-0.0000
 <L.S>=  0.00000000000    
 Annihilation of the first spin contaminant:
 S**2 before annihilation    -0.0000,   after    -0.0000
 Calling FoFJK, ICntrl=      2127 FMM=F ISym2X=0 I1Cent= 0 IOpClX= 1 NMat=1 NMatS=1 NMatT=0.
 ***** Axes restored to original set *****
 -------------------------------------------------------------------
 Center     Atomic                   Forces (Hartrees/Bohr)
 Number     Number              X              Y              Z
 -------------------------------------------------------------------
      1        6          -0.000092124    0.000085897   -0.000000890
      2        6           0.000099037    0.000045111    0.000269260
      3        6          -0.000033532    0.000025215   -0.000012470
      4        6          -0.000272056   -0.000140996    0.000300633
      5        6           0.000057219    0.000101937   -0.000311598
      6        6          -0.000944702    0.000822625   -0.000353020
      7        1           0.000019746   -0.000008854   -0.000073810
      8        1           0.000004810    0.000002793   -0.000019613
      9        1           0.000011636   -0.000023801   -0.000050427
     10        8          -0.000039649   -0.000018470    0.000003198
     11        8          -0.000091711   -0.000043000   -0.000179928
     12        1           0.000110573    0.000108110    0.000003037
     13        1           0.000008937    0.000001004    0.000003819
     14        6          -0.000223341   -0.000033070   -0.000134618
     15        1           0.000402453   -0.000221138    0.001210040
     16        1           0.000015676   -0.000948834   -0.000302512
     17        1           0.000967028    0.000245471   -0.000351100
 -------------------------------------------------------------------
 Cartesian Forces:  Max     0.001210040 RMS     0.000343682

 GradGradGradGradGradGradGradGradGradGradGradGradGradGradGradGradGradGrad
 Berny optimization.
 FormGI is forming the generalized inverse of G from B-inverse, IUseBI=4.
 Internal  Forces:  Max     0.001558465 RMS     0.000300667
 Search for a saddle point.
 Step number   2 out of a maximum of   82
 All quantities printed in internal units (Hartrees-Bohrs-Radians)
 Swapping is turned off.
 Update second derivatives using D2CorX and points    1    2
 ITU=  0  0
     Eigenvalues ---   -0.03865   0.00001   0.00124   0.00334   0.00836
     Eigenvalues ---    0.01035   0.01131   0.01274   0.01817   0.01936
     Eigenvalues ---    0.02248   0.02569   0.03167   0.03394   0.03825
     Eigenvalues ---    0.05835   0.05933   0.08918   0.09496   0.11164
     Eigenvalues ---    0.12160   0.12516   0.12972   0.13732   0.14935
     Eigenvalues ---    0.15090   0.16492   0.17759   0.19034   0.21932
     Eigenvalues ---    0.28737   0.34649   0.35276   0.35449   0.36250
     Eigenvalues ---    0.37867   0.38188   0.38215   0.38657   0.43104
     Eigenvalues ---    0.50316   0.51638   0.52727   0.53471   0.81546
 Eigenvectors required to have negative eigenvalues:
                          A9        A7        D18       D17       A10
   1                   -0.37925   0.37490   0.28099   0.26909  -0.26249
                          D13       A18       R4        A4        A6
   1                   -0.24906  -0.24699  -0.24316  -0.21910   0.21444
 RFO step:  Lambda0=1.029683170D-07 Lambda=-2.22896986D-04.
 Linear search not attempted -- option 19 set.
 Iteration  1 RMS(Cart)=  0.07680498 RMS(Int)=  0.04717536
 Iteration  2 RMS(Cart)=  0.06213747 RMS(Int)=  0.00430789
 Iteration  3 RMS(Cart)=  0.00445901 RMS(Int)=  0.00001499
 Iteration  4 RMS(Cart)=  0.00001686 RMS(Int)=  0.00000687
 Iteration  5 RMS(Cart)=  0.00000000 RMS(Int)=  0.00000687
 Variable       Old X    -DE/DX   Delta X   Delta X   Delta X     New X
                                 (Linear)    (Quad)   (Total)
    R1        2.61095   0.00002   0.00000  -0.00400  -0.00400   2.60695
    R2        2.66079   0.00010   0.00000   0.00343   0.00344   2.66423
    R3        2.05044   0.00001   0.00000   0.00019   0.00019   2.05063
    R4        2.94032   0.00012   0.00000   0.01277   0.01277   2.95308
    R5        2.05271   0.00001   0.00000  -0.00013  -0.00013   2.05258
    R6        2.53708   0.00003   0.00000  -0.00534  -0.00534   2.53174
    R7        2.29822   0.00003   0.00000  -0.00071  -0.00071   2.29751
    R8        2.58283   0.00005   0.00000   0.00296   0.00297   2.58580
    R9        2.63732   0.00013   0.00000  -0.00368  -0.00368   2.63364
   R10        2.04642   0.00001   0.00000  -0.00028  -0.00028   2.04615
   R11        2.83776   0.00156   0.00000   0.01449   0.01449   2.85225
   R12        1.83283   0.00002   0.00000   0.00037   0.00037   1.83320
   R13        1.82024   0.00000   0.00000  -0.00013  -0.00013   1.82011
   R14        4.12101  -0.00012   0.00000  -0.04137  -0.04137   4.07964
   R15        2.06620   0.00127   0.00000   0.00767   0.00767   2.07387
   R16        2.06099   0.00098   0.00000   0.00447   0.00447   2.06545
   R17        2.06188   0.00104   0.00000   0.00780   0.00780   2.06968
    A1        2.09034   0.00003   0.00000  -0.00235  -0.00236   2.08797
    A2        2.07241  -0.00000   0.00000   0.00078   0.00079   2.07319
    A3        2.11905  -0.00003   0.00000   0.00154   0.00155   2.12060
    A4        2.32423   0.00004   0.00000   0.00352   0.00351   2.32774
    A5        2.12633  -0.00003   0.00000   0.00334   0.00335   2.12968
    A6        1.83255  -0.00002   0.00000  -0.00688  -0.00687   1.82568
    A7        1.48380  -0.00003   0.00000  -0.00446  -0.00447   1.47932
    A8        2.21745   0.00001   0.00000  -0.00483  -0.00482   2.21264
    A9        2.54982   0.00001   0.00000   0.00933   0.00934   2.55916
   A10        2.51726   0.00004   0.00000   0.00875   0.00875   2.52601
   A11        2.00301   0.00006   0.00000  -0.00016  -0.00017   2.00283
   A12        2.09163  -0.00002   0.00000   0.00076   0.00076   2.09239
   A13        2.18497  -0.00004   0.00000  -0.00022  -0.00022   2.18475
   A14        1.93422  -0.00009   0.00000   0.00119   0.00119   1.93541
   A15        2.17753   0.00005   0.00000  -0.00360  -0.00360   2.17393
   A16        2.16784   0.00003   0.00000   0.00250   0.00250   2.17034
   A17        1.79750  -0.00000   0.00000   0.00022   0.00022   1.79772
   A18        1.49336   0.00001   0.00000   0.00551   0.00551   1.49887
   A19        2.38523   0.00005   0.00000   0.01821   0.01821   2.40343
   A20        1.95036   0.00025   0.00000   0.00086   0.00086   1.95121
   A21        1.94271   0.00018   0.00000  -0.00120  -0.00120   1.94151
   A22        1.93141   0.00014   0.00000   0.00314   0.00314   1.93455
   A23        1.87996  -0.00019   0.00000   0.00081   0.00081   1.88077
   A24        1.87387  -0.00023   0.00000  -0.00154  -0.00154   1.87233
   A25        1.88250  -0.00018   0.00000  -0.00225  -0.00224   1.88026
    D1        0.25763  -0.00006   0.00000  -0.00735  -0.00736   0.25027
    D2       -2.86916   0.00003   0.00000  -0.00560  -0.00560  -2.87476
    D3       -2.93979  -0.00006   0.00000  -0.00793  -0.00794  -2.94772
    D4        0.21661   0.00002   0.00000  -0.00618  -0.00617   0.21043
    D5        0.01610   0.00003   0.00000   0.00370   0.00370   0.01981
    D6       -3.03756   0.00004   0.00000   0.00240   0.00241  -3.03514
    D7       -3.06813   0.00004   0.00000   0.00433   0.00432  -3.06381
    D8        0.16139   0.00005   0.00000   0.00303   0.00303   0.16443
    D9       -0.48818   0.00007   0.00000   0.00915   0.00915  -0.47903
   D10        2.86351   0.00009   0.00000   0.00714   0.00713   2.87063
   D11        2.64039  -0.00000   0.00000   0.00766   0.00766   2.64805
   D12       -0.29110   0.00002   0.00000   0.00564   0.00563  -0.28547
   D13        0.82195  -0.00010   0.00000  -0.00757  -0.00755   0.81440
   D14       -2.62264  -0.00013   0.00000  -0.01010  -0.01010  -2.63274
   D15        2.93710  -0.00004   0.00000   0.00320   0.00319   2.94028
   D16        0.17715   0.00001   0.00000   0.00482   0.00483   0.18199
   D17       -0.73473   0.00008   0.00000   0.00620   0.00622  -0.72851
   D18        2.32075   0.00006   0.00000   0.01072   0.01074   2.33150
   D19        0.07787  -0.00004   0.00000  -0.00541  -0.00540   0.07247
   D20        3.13211  -0.00005   0.00000  -0.00449  -0.00448   3.12763
   D21       -2.97232  -0.00001   0.00000  -0.01026  -0.01025  -2.98257
   D22        0.08192  -0.00003   0.00000  -0.00934  -0.00933   0.07259
   D23        1.52144  -0.00011   0.00000  -0.35837  -0.35837   1.16307
   D24       -2.65901  -0.00006   0.00000  -0.35757  -0.35757  -3.01658
   D25       -0.56587  -0.00008   0.00000  -0.35910  -0.35910  -0.92497
   D26       -1.52074  -0.00009   0.00000  -0.35971  -0.35971  -1.88045
   D27        0.58200  -0.00004   0.00000  -0.35891  -0.35891   0.22309
   D28        2.67515  -0.00006   0.00000  -0.36044  -0.36044   2.31470
   D29        1.30823  -0.00002   0.00000   0.00795   0.00795   1.31618
   D30        0.43592   0.00001   0.00000  -0.00718  -0.00718   0.42874
         Item               Value     Threshold  Converged?
 Maximum Force            0.001558     0.000450     NO 
 RMS     Force            0.000301     0.000300     NO 
 Maximum Displacement     0.549110     0.001800     NO 
 RMS     Displacement     0.135759     0.001200     NO 
 Predicted change in Energy=-1.980554D-04
 GradGradGradGradGradGradGradGradGradGradGradGradGradGradGradGradGradGrad

                          Input orientation:                          
 ---------------------------------------------------------------------
 Center     Atomic      Atomic             Coordinates (Angstroms)
 Number     Number       Type             X           Y           Z
 ---------------------------------------------------------------------
      1          6           0        2.127058    0.437240    0.103172
      2          6           0        0.969047    1.172355   -0.044283
      3          6           0       -0.548836    0.816664    0.063236
      4          6           0       -0.159591   -0.414616   -0.293601
      5          6           0        0.750940   -1.409447   -0.062057
      6          6           0        2.062084   -0.971068    0.114066
      7          1           0        3.075742    0.961501    0.155084
      8          1           0        0.985522    2.227673   -0.300833
      9          1           0        0.415462   -2.433116    0.047284
     10          8           0       -2.708079   -1.062803   -0.138829
     11          8           0       -1.473939    1.598490    0.168459
     12          1           0       -2.748804   -0.097780   -0.229057
     13          1           0       -2.826493   -1.197146    0.807536
     14          6           0        3.233059   -1.879976    0.398376
[...]
   zy        -0.944514D+01     -0.139963D+01     -0.155729D+01
   zz         0.116599D+03      0.172781D+02      0.192245D+02

 ----------------------------------------------------------------------
 Unable to Open any file for archive entry.
 1\1\GINC-F0607\Freq\UB3LYP\6-311G(d,p)\C7H8O2\SCG3027\25-Jul-2022\0\\#
 N Geom=AllCheck Guess=TCheck SCRF=Check GenChk UB3LYP/6-311G(d,p) Freq
 \\Title Card Required\\0,1\C,2.1260127502,0.437801994,0.1118429426\C,0
 .9695013818,1.1741597769,-0.0424733684\C,-0.5475429801,0.8192870014,0.
 0589411549\C,-0.1592815429,-0.4135541268,-0.2944788155\C,0.7498022848,
 -1.4080797967,-0.0562416768\C,2.0607087665,-0.9704436379,0.1238221591\
 H,3.0743560362,0.9619300936,0.1706815559\H,0.9888398017,2.2303253824,-
 0.2952155527\H,0.4129549419,-2.4310572849,0.0549253635\O,-2.6987792586
 ,-1.070028145,-0.1414610178\O,-1.4730156073,1.6012860249,0.1613423631\
 H,-2.7468630933,-0.1060548965,-0.2380766276\H,-2.8149197377,-1.1987454
 747,0.8059867456\C,3.2281510157,-1.8788314615,0.3938898759\H,3.5927588
 789,-1.7757045775,1.4209196523\H,2.9580052767,-2.9250269197,0.23954924
 65\H,4.0648027754,-1.650437462,-0.2731707204\\Version=ES64L-G16RevC.01
 \State=1-A\HF=-421.9930669\S2=0.\S2-1=0.\S2A=0.\RMSD=5.456e-09\RMSF=8.
 098e-07\ZeroPoint=0.1284546\Thermal=0.1832196\ETot=-421.8098473\HTot=-
 421.8072405\GTot=-422.0078802\Dipole=1.1770793,-0.6902106,0.5431711\Di
 poleDeriv=0.0242678,0.049819,-0.0237708,0.1194566,0.1398006,0.0563523,
 -0.0428456,0.0708608,-0.0957272,-0.2639095,0.4057048,0.0619084,-0.2346
 804,-0.4813427,-0.0428507,0.168543,-0.160116,-0.2375376,1.4152661,-1.3
 42749,-0.2041148,-1.1952876,0.8814162,0.1732652,-0.0323002,0.201045,0.
 3000912,0.2010812,0.3706119,-0.0525211,0.8244316,0.2208994,-0.0054107,
 -0.0746511,-0.1877879,-0.1391379,0.1159573,0.1864095,0.091564,-0.06044
 06,-0.0580141,-0.0517299,-0.0251063,0.0543537,-0.0078396,0.1419199,-0.
 2036154,0.0364943,-0.2146478,-0.0535299,-0.0841963,0.0298576,-0.021554
 2,-0.097784,-0.0672721,-0.0633591,-0.0130874,-0.0489431,0.0654314,0.00
 12407,0.0280587,0.0021041,0.1437606,0.0006274,-0.0727693,-0.005541,-0.
 0040225,0.0328191,0.0326017,-0.0932325,-0.0022749,0.1668594,0.1092088,
 -0.0077787,-0.0048837,-0.0228187,0.0561746,0.014708,0.0778854,0.031672
 8,0.1618706,-1.0776618,-0.2127476,-0.046878,-0.2337719,-0.439672,0.058
 0799,0.0141386,0.0628263,-0.3185564,-1.4553207,0.7390761,0.1427505,0.7
 914949,-0.8822433,-0.090287,-0.0297985,-0.0212558,-0.3494368,0.5427139
 ,0.0388361,0.0365089,0.1449398,0.1893898,-0.0236282,0.0968212,-0.03031
 32,0.2450894,0.3545642,0.0274857,-0.0044246,0.0884655,0.2625666,-0.051
 3391,-0.0448873,-0.0172759,0.1236119,0.0547074,0.0637826,-0.0061286,-0
 .0332553,0.1327217,0.0037114,-0.0566179,0.0053652,0.1273474,-0.0234652
 ,0.0615787,-0.0579971,0.06382,0.0282143,-0.0263787,-0.1071306,0.019364
 9,-0.102734,0.026027,-0.0837752,-0.021017,0.0194372,-0.1165193,-0.0138
 575,-0.0103326,-0.0330382,0.0756495,-0.0987117,0.04349,0.0711378,-0.00
 41778,0.0218877,0.0497187,0.1015982,0.0260234,0.0044737\Polar=119.3817
 02,-12.8970882,97.192068,3.2884028,-1.1861157,46.5693115\Quadrupole=0.
 9376598,0.1183454,-1.0560051,1.9177423,-2.8031761,-2.6227531\PG=C01 [X
 (C7H8O2)]\NImag=1\\0.72034690,0.03198074,0.64368587,0.05838351,-0.0175
 1599,0.13754124,-0.28531791,0.08393044,-0.01853723,0.45600888,0.145393
 05,-0.17886256,0.02989877,-0.12345369,0.60001384,-0.03145997,0.0312413
 1,-0.05630778,0.04125512,-0.11141193,0.11523082,-0.01372115,0.01649825
 ,0.00392334,-0.04623376,-0.07731101,-0.00966230,0.55323343,-0.02152533
 ,0.04666320,-0.01289251,0.05499506,-0.08173452,0.01001135,-0.44414509,
 0.75271583,-0.01589877,0.01187275,-0.01138760,0.02953092,0.01260252,-0
 .03507147,-0.06266116,0.08856622,0.13925366,-0.04492560,0.02867693,-0.
 01520337,0.00993999,0.01061959,-0.00270662,-0.07613716,0.13965972,0.02
 264880,0.36627593,-0.00665244,-0.04512148,-0.00319354,-0.09260305,0.03
 263223,0.00167374,0.23987336,-0.31643255,-0.08298663,-0.35656417,0.592
 47456,-0.00093841,-0.00472587,0.00752344,-0.02197474,0.00095253,-0.018
 96696,0.01870710,-0.06633133,-0.03975130,0.01377891,0.05608535,0.07317
 107,0.00085972,-0.07592127,0.00230278,-0.03879489,0.01603026,0.0073361
 1,0.02575724,0.03364966,0.00269863,-0.18425867,0.12344643,-0.01999748,
 0.59664550,-0.03065539,-0.02139215,-0.00304466,0.00350207,-0.01905541,
 -0.00447720,0.01293114,-0.04327971,-0.00304262,0.14347203,-0.22310971,
 0.04123691,0.02965173,0.72777549,0.00329901,-0.01505192,0.00902728,-0.
 01184333,0.00094440,0.01126596,0.01856777,-0.00392664,-0.00776173,-0.0
 2829620,0.03488314,-0.04241528,0.05222070,-0.05821454,0.12085203,-0.11
 380672,0.01755534,-0.00914092,0.02690469,0.02146317,-0.00920356,-0.008
 41013,-0.03400481,-0.01043175,-0.07335973,0.05785143,-0.00872446,-0.28
 861007,-0.09869556,-0.02413803,0.64827358,-0.03386675,-0.28787341,-0.0
 0007164,0.05972944,-0.04516890,0.00535632,-0.01479087,-0.03114879,-0.0
 0849551,-0.01452941,0.03761355,-0.00787219,-0.02862308,-0.12604676,0.0
 1130924,-0.03253480,0.60711942,-0.00245000,0.00093724,-0.06494606,-0.0
 0650438,0.00256896,0.00891139,0.00281642,-0.00015209,0.00629424,-0.010
 09690,0.00053504,0.00180461,-0.04862321,-0.00350053,-0.06598953,0.0919
 1039,-0.01856536,0.16882015,-0.26605076,-0.11820798,-0.01549670,-0.020
 35823,-0.01187342,-0.00069154,0.00226835,0.00038036,-0.00256573,-0.000
 74324,-0.00013789,0.00059120,0.00036957,0.00024944,-0.00013173,0.00206
 430,0.00230149,0.00028723,0.28269383,-0.11702543,-0.12270383,-0.005903
 71,0.01550235,0.00953532,0.00038732,0.00139116,0.00027036,0.00139715,0
 .00233846,-0.00135048,0.00018985,-0.00205224,-0.00590375,0.00027087,-0
 .02622423,-0.00637941,-0.00236357,0.12638567,0.12523464,-0.01682431,-0
 .00139967,-0.03697514,-0.00226359,-0.00141852,0.00308148,0.00184215,0.
 00119352,0.00338910,0.00021054,0.00219463,0.00419615,0.00338514,-0.002
 68986,0.00397023,-0.00245120,-0.00482567,0.00301772,0.01665872,0.00710
 099,0.02542196,0.00543513,0.02409405,-0.00486443,-0.03601745,-0.011470
 38,-0.00279056,-0.01921875,-0.03358477,0.00316219,-0.00012999,0.010551
 76,0.00527195,-0.00161966,0.00057250,-0.00047075,-0.00331027,0.0032433
 5,0.00020740,0.00070679,-0.00019451,0.00052256,0.05016267,-0.00282236,
 -0.01061606,0.00270891,-0.00282534,-0.32033391,0.07031083,-0.00702307,
 -0.01125554,0.00419325,0.00209099,0.00475900,-0.00045147,-0.00042949,0
 .00135900,-0.00018910,0.00406000,0.00040015,0.00151601,0.00052990,0.00
 046425,-0.00107045,0.00464517,0.33374316,0.00626192,-0.00444682,0.0032
 9035,-0.01237995,0.06792254,-0.04036785,-0.00234253,0.00667614,0.01002
 824,0.00711644,0.00470417,-0.00334084,-0.00433122,0.00157469,-0.002268
 05,0.00503648,0.00289442,0.00269747,0.00086731,-0.00031316,-0.00357161
 ,0.00018178,-0.07614913,0.03314921,-0.00446472,-0.00330762,-0.00139495
 ,-0.00372396,0.00126109,-0.00093278,-0.00145458,0.00447868,0.00009577,
 0.00945414,0.01552978,-0.00257357,-0.07675281,-0.08068405,0.00587803,0
 .00026905,-0.02539397,0.00376738,0.00023815,-0.00128596,-0.00031767,0.
 00029269,-0.00002380,0.00014808,0.07487211,-0.00158394,0.00087767,0.00
 037783,0.00108452,0.00098382,0.00094941,0.00096846,-0.00117418,0.00048
 781,-0.00651256,-0.01700681,0.00129390,-0.08360431,-0.31074710,0.03175
 465,-0.00030811,-0.00355989,0.00073888,0.00002562,-0.00019311,-0.00004
 172,-0.00001931,0.00012942,-0.00003535,0.08964149,0.32945800,-0.004157
 91,0.00466852,0.00315137,0.00569828,0.00019486,-0.00009296,-0.00193582
 ,-0.00127602,-0.00427199,-0.00318000,0.00933247,0.00219227,0.01461178,
 0.02762220,-0.02977619,-0.00589456,-0.00620589,0.00563659,-0.00023586,
 -0.00029490,0.00007067,-0.00104750,0.00041046,0.00342838,-0.00606691,-
 0.03455730,0.02341427,-0.00024609,-0.00128954,0.00041735,0.00254245,-0
 .00818059,0.00036559,-0.02171338,0.00380905,0.00438470,0.01350470,-0.0
 0183851,-0.00401289,-0.00199213,0.00200667,-0.00112319,0.00245884,0.00
 068556,-0.00069603,-0.00041401,0.00013757,0.00059849,-0.00252110,-0.00
 086791,-0.00186294,-0.00005351,-0.00040731,0.00061937,0.02602137,-0.00
 003927,-0.00015023,0.00003232,-0.00193715,-0.00040397,0.00062979,0.005
 03603,-0.00728725,-0.00026686,-0.00010394,-0.00305994,-0.00005188,0.00
 094934,-0.00011954,0.00011472,-0.00036455,0.00000810,-0.00048209,-0.00
 017027,0.00011665,0.00007978,-0.00032456,0.00005193,-0.00044196,-0.000
 63933,0.00048159,0.00012079,-0.01417145,0.54338901,0.00027814,0.000042
 61,-0.00008895,-0.00017092,0.00019008,0.00236228,0.00255246,-0.0000967
 7,-0.00078376,-0.00195826,-0.00071889,-0.00206618,-0.00047947,-0.00029
 394,-0.00099971,-0.00001917,0.00058289,0.00080408,0.00002781,-0.000037
 12,-0.00044060,0.00000682,0.00004515,-0.00021019,0.00039789,-0.0002360
 3,-0.00049176,-0.06377159,-0.09739464,0.55131064,-0.00090454,-0.005658
 87,0.00021809,-0.06582630,0.03771882,0.01013191,-0.38401771,0.30009502
 ,0.03081425,-0.01494709,0.00892083,0.01858123,-0.00639652,-0.00593699,
 -0.00690435,0.00038615,0.00296108,-0.00096158,-0.00173543,0.00064050,-
 0.00176141,0.00541577,0.00284152,0.00049096,-0.00033842,0.00016249,0.0
 0077604,0.00544176,-0.01118124,-0.00187475,0.46059598,0.00430355,-0.00
 765895,0.00282011,0.00103097,0.00866219,-0.00366480,0.28770050,-0.3195
 4426,-0.02680053,0.04360710,-0.05624204,-0.01904985,-0.00321410,0.0116
 9477,-0.00014210,0.00735421,0.00383620,-0.00075518,0.00080556,-0.00023
 531,0.00037557,0.00205197,0.00219901,-0.00213803,-0.00044302,-0.000064
 28,0.00045912,-0.00229555,-0.00157398,-0.00052029,-0.34480280,0.362476
 14,0.00386040,-0.00364066,0.00571321,-0.00134270,-0.00251984,0.0092452
 9,0.03279829,-0.02181474,-0.06235262,0.01890793,-0.02553728,0.01009477
 ,-0.00856092,0.00224442,0.00209619,0.00441902,0.00497672,-0.00138276,0
 .00053366,-0.00037128,-0.00014683,-0.00035763,-0.00130164,-0.00415640,
 0.00049814,-0.00031882,0.00084844,-0.00081116,-0.00052025,0.00161661,-
 0.05132372,0.04800270,0.04261363,0.00040577,-0.00018468,0.00004678,0.0
 0055823,0.00029575,-0.00029013,-0.01099075,0.00064316,-0.00125758,-0.0
 0156808,0.00093599,-0.00025396,-0.00109614,0.00043675,-0.00008999,0.00
 039083,0.00037604,0.00030029,0.00016325,-0.00006614,-0.00007282,0.0002
 8882,-0.00006018,0.00030493,0.00024394,-0.00024752,-0.00012137,-0.0112
 3410,0.03012855,0.00210743,0.00413021,0.00129822,0.00131207,0.01715375
 ,-0.00002182,0.00006577,0.00006531,0.00405592,-0.00382856,-0.00113731,
 -0.02025406,0.00975476,0.00226308,0.00831887,-0.00109927,-0.00221373,-
 0.00000688,0.00089369,0.00015338,0.00074133,-0.00016362,0.00006805,0.0
 0007146,-0.00000550,0.00030609,-0.00102413,-0.00043799,-0.00028566,0.0
 0019317,-0.00016579,0.00003592,0.02175884,-0.48135548,0.06824636,0.012
 14822,-0.00281167,0.00185603,-0.02757233,0.48895120,0.00010918,-0.0000
 1032,0.00002527,0.00038851,0.00015771,-0.00036820,-0.00214894,0.001215
 57,0.00133506,-0.00088793,-0.00077739,0.00055720,0.00035823,-0.0000065
 7,-0.00006202,-0.00003169,-0.00005626,0.00004674,0.00006044,-0.0000149
 0,0.00009344,0.00013957,-0.00000523,0.00015042,-0.00011249,0.00008917,
 -0.00003482,0.00659688,0.01117279,-0.05034967,0.00201451,0.00064930,-0
 .00344861,-0.00389525,-0.06349998,0.06239971,0.00005616,-0.00007179,0.
 00008165,-0.00024936,0.00017628,-0.00104491,-0.00118528,-0.00145875,0.
 00055994,0.00090028,0.00019873,0.00112199,-0.00017507,0.00025267,0.000
 49708,-0.00015210,-0.00010559,-0.00047412,0.00003149,0.00002343,0.0001
 7673,0.00006546,-0.00000909,0.00013040,-0.00033580,0.00024903,0.000291
 15,-0.01153486,-0.00701588,0.06299238,0.00012620,0.00050881,0.00006171
 ,0.00134151,0.00139376,-0.00264655,0.01100836,0.00007643,-0.00010145,0
 .00005697,0.00022265,0.00015926,-0.00022215,-0.00168532,0.00091877,0.0
 0033232,-0.00113625,-0.00059086,0.00005674,-0.00007965,0.00025582,0.00
 007962,0.00010862,-0.00000040,0.00013138,0.00005194,-0.00002692,-0.000
 02997,0.00009115,0.00000459,0.00011577,0.00019489,-0.00001193,-0.00021
 457,0.00057830,-0.05025623,0.03022598,0.00149714,-0.00020031,-0.001060
 52,-0.00585867,-0.00974423,0.05108786,0.00585035,0.05962205,-0.0000768
 7,-0.00008663,0.00002303,0.00011724,-0.00073548,0.00006744,-0.00111372
 ,-0.00021046,0.00042949,0.00248761,0.00078531,-0.00029232,-0.00027283,
 0.00007708,-0.00012599,0.00012450,0.00006026,-0.00007467,-0.00004822,0
 .00001076,0.00003428,-0.00023473,-0.00009148,-0.00012384,0.00005464,-0
 .00005039,0.00008830,0.05921464,0.08703338,-0.50073614,-0.00028322,-0.
 00032531,-0.00024094,0.00184312,-0.00588522,-0.01038817,-0.06175175,-0
 .08058778,0.51133131,0.00419768,0.00439991,0.00032545,0.00214095,-0.00
 272023,0.00054542,0.00031481,-0.00164217,-0.00115380,-0.00266636,-0.00
 136559,-0.00026396,-0.02383246,0.01823104,-0.00712610,-0.16448242,0.05
 756211,-0.02203968,0.00033850,-0.00046912,-0.00020875,0.00078217,-0.00
 032838,0.00033606,0.00170266,0.00088248,0.00089959,0.00012196,0.000036
 90,-0.00008825,-0.00063416,0.00096400,0.00009609,-0.00001768,0.0000638
 1,0.00000961,0.00003236,-0.00000334,0.00000553,0.50939028,0.02795481,-
 0.01726930,0.00591367,-0.00268162,-0.00237728,0.00028009,0.00184483,-0
 .00124339,-0.00017659,-0.00193906,-0.00081120,0.00070082,-0.00715205,0
 .00742135,-0.00221975,0.06369042,-0.13613693,0.01524677,0.00008090,0.0
 0157021,0.00001619,0.00123698,-0.00027716,0.00011069,-0.00060685,0.000
 58953,-0.00006562,-0.00018577,-0.00007519,-0.00004230,-0.00095243,0.00
 104234,-0.00008894,0.00011127,0.00011328,0.00004644,0.00007072,0.00007
 501,-0.00003985,0.03978777,0.54533899,0.00066628,-0.00157951,0.0008833
 1,-0.00132991,0.00018796,0.00042040,-0.00170921,-0.00090198,0.00065307
 ,-0.00271095,0.00271209,0.00798836,-0.00026406,0.00160622,0.00248348,-
 0.02306718,0.01415867,-0.06906742,-0.00009233,0.00007527,-0.00150788,0
 .00034458,0.00004822,0.00144193,0.00044432,-0.00048956,-0.00466144,0.0
 0019718,0.00000760,0.00010087,0.00033766,0.00100653,-0.00042984,0.0000
 1868,0.00000484,0.00003428,-0.00002898,0.00002208,0.00002660,-0.006223
 48,0.00979643,0.52985676,0.00115761,-0.00218273,0.00037669,-0.00148072
 ,0.00061636,-0.00024877,0.00058427,-0.00054407,0.00011506,-0.00097013,
 0.00107224,0.00170187,-0.00016008,0.00164502,-0.00086608,-0.01289819,-
 0.00083061,-0.02394897,0.00016846,0.00014296,-0.00021608,0.00003986,0.
 00002906,0.00021283,0.00011370,-0.00010367,-0.00090616,-0.00014539,-0.
 00009003,0.00003733,-0.00058211,0.00064808,-0.00008481,0.00010706,0.00
 006780,0.00002075,0.00001547,0.00005033,-0.00003673,-0.06969896,-0.009
 76170,-0.07814695,0.07853822,0.00043384,0.00039776,0.00002071,0.000143
 64,-0.00011128,0.00013888,-0.00030176,0.00165197,0.00023440,0.00141114
 ,-0.00190543,-0.00083705,-0.00163273,0.00013993,0.00018068,0.00850715,
 0.00179211,0.01927027,-0.00013562,-0.00031977,0.00020871,-0.00009467,-
 0.00006876,-0.00033192,0.00007442,0.00001993,0.00017487,0.00004664,0.0
 0006076,-0.00000079,0.00056158,-0.00089179,-0.00001274,-0.00008568,-0.
 00006220,-0.00002517,-0.00002992,-0.00002645,0.00001073,-0.00897943,-0
 .04968841,-0.02494101,0.00669334,0.05068954,0.00001674,-0.00132591,0.0
 0085439,-0.00084119,0.00030684,0.00006753,0.00024762,-0.00010119,0.000
 22941,0.00000283,0.00063488,-0.00006393,0.00104143,0.00050306,-0.00016
 452,-0.00338815,0.00195551,-0.00110746,0.00009971,0.00021710,-0.000313
 50,-0.00005051,-0.00001245,-0.00005115,0.00005202,-0.00000771,-0.00003
 972,-0.00010778,-0.00004823,0.00000799,-0.00030202,0.00020465,-0.00009
 550,0.00006251,0.00003014,0.00000721,0.00002401,0.00002069,-0.00001787
 ,-0.07687797,-0.02682863,-0.27330262,0.08633628,0.02806107,0.29680207,
 -0.00457156,0.00177244,-0.00091158,0.00080453,0.00095666,-0.00036000,-
 0.00023231,-0.00028236,0.00017923,-0.00012520,0.00078837,-0.00019601,0
 .00227733,0.00021292,0.00028506,0.00661025,0.02726911,0.00435447,0.000
 08342,0.00018760,0.00007863,-0.00039328,0.00018532,-0.00006453,-0.0003
 0910,-0.00035053,0.00005031,-0.00001118,-0.00004508,0.00001473,-0.0000
 0889,0.00002441,-0.00003491,0.00001857,0.00000370,-0.00001227,-0.00001
 396,0.00001056,0.00000199,-0.06555994,-0.06778393,-0.01034557,-0.00341
 495,-0.00918683,-0.00043756,0.07085028,0.00373041,-0.00056158,0.000427
 81,-0.00061868,-0.00034489,0.00018426,-0.00026251,0.00062424,0.0000218
 0,0.00036398,-0.00062238,0.00034567,-0.00211363,0.00155654,-0.00021520
 ,-0.00575101,-0.01874625,-0.00254486,-0.00006172,0.00023105,-0.0000706
 3,0.00028982,-0.00012058,0.00002105,0.00087398,0.00029400,-0.00018346,
 0.00015481,0.00011686,-0.00002089,0.00040271,-0.00025102,-0.00003446,-
 0.00009710,-0.00004534,-0.00001584,-0.00001010,-0.00004769,0.00001963,
 -0.06374810,-0.28872828,-0.03601753,-0.00083562,-0.00213686,-0.0008105
 2,0.06937948,0.31443465,-0.00119747,0.00052666,0.00090526,-0.00006273,
 0.00033515,0.00035916,-0.00003507,0.00009959,-0.00004228,0.00018224,-0
 .00004568,-0.00018490,0.00013559,-0.00007922,0.00021572,0.00198179,0.0
 0727765,-0.00092985,0.00001861,-0.00007902,-0.00020371,-0.00008613,0.0
 0002333,-0.00009752,0.00002177,-0.00004239,0.00033431,-0.00000387,0.00
 001718,-0.00003315,0.00005770,-0.00007366,-0.00002824,-0.00000945,-0.0
 0000926,0.00000477,0.00001654,-0.00001854,0.00000624,-0.01004474,-0.03
 778755,-0.05162725,-0.00794642,-0.02997048,-0.00329514,0.01261364,0.03
 959599,0.05141023,0.00155009,-0.00208364,-0.00052647,-0.00089716,0.000
 47829,-0.00024299,0.00115686,-0.00052335,-0.00022071,-0.00024379,-0.00
 000729,-0.00081875,-0.00222088,0.00280803,0.00024210,-0.02232808,-0.00
 345312,0.01215128,0.00017555,0.00056791,0.00064286,0.00002114,0.000007
 64,-0.00010604,0.00024643,0.00012317,0.00059957,-0.00022534,-0.0000680
 9,-0.00005258,-0.00070491,0.00045809,0.00002854,0.00010482,0.00006235,
 0.00003742,0.00006915,0.00003085,-0.00003119,-0.19212940,-0.04371429,0
 .12190992,0.00862589,0.00257489,-0.00587797,-0.00600401,-0.00169670,0.
 00435802,0.21280364,0.00031990,0.00062074,0.00029964,-0.00007754,0.000
 23462,-0.00024991,-0.00047006,0.00050107,-0.00020256,0.00022657,-0.000
 12720,0.00067160,0.00110200,-0.00144245,0.00026856,0.01655140,0.004454
 81,-0.01264891,-0.00029544,-0.00030441,0.00007101,-0.00006441,-0.00000
 052,0.00012258,0.00013710,0.00008914,-0.00022145,0.00005919,0.00005693
 ,0.00002858,0.00058240,-0.00043704,0.00014129,-0.00005343,-0.00005907,
 -0.00000718,-0.00002267,-0.00002904,0.00001546,-0.04267166,-0.05954356
 ,0.03430368,0.00338325,0.00045898,-0.00279929,-0.02314185,-0.00565247,
 0.02023026,0.04443525,0.06117948,0.00012854,0.00049421,0.00076738,0.00
 026062,-0.00017655,0.00016345,0.00015360,-0.00005867,-0.00018952,-0.00
 029506,-0.00028143,-0.00044616,-0.00156120,0.00048457,-0.00034789,-0.0
 0698150,-0.00247917,0.00546477,0.00011744,-0.00027166,-0.00011573,0.00
 006539,0.00001480,0.00000145,0.00004032,0.00008762,0.00020428,-0.00000
 476,-0.00000243,-0.00000236,-0.00001131,-0.00004822,0.00005359,-0.0000
 0526,0.00000197,-0.00000263,-0.00000729,0.00000412,-0.00000676,0.12180
 898,0.03513812,-0.14329263,0.02360016,0.00781885,-0.01951719,-0.005215
 63,-0.00070281,0.00320633,-0.13209303,-0.04002335,0.15405962\\0.000000
 20,0.00000013,0.00000032,0.00000026,0.00000020,-0.00000048,-0.00000091
 ,-0.00000029,0.00000016,0.00000127,0.00000046,-0.00000084,-0.00000070,
 -0.00000063,0.00000052,0.00000175,-0.00000086,0.00000032,0.,0.00000003
 ,0.00000020,-0.00000006,-0.00000004,-0.00000019,-0.00000008,-0.0000000
 6,0.00000013,-0.00000030,0.00000014,-0.00000011,0.00000034,-0.00000024
 ,0.,0.00000024,-0.00000008,-0.00000062,0.00000009,0.00000008,-0.000000
 31,-0.00000286,0.00000190,-0.00000147,0.00000052,0.00000028,0.00000259
 ,-0.00000033,-0.00000131,0.00000017,0.00000057,0.00000029,-0.00000039\
 \\@
 The archive entry for this job was punched.


 BE CAREFUL NOT TO BECOME TOO GOOD OF A SONGBIRD OR 
 THEY'LL THROW YOU INTO A CAGE.

                                    -- SNOOPY TO WOODSTOCK
 Job cpu time:       0 days  0 hours 32 minutes  6.0 seconds.
 Elapsed time:       0 days  0 hours  1 minutes 37.2 seconds.
 File lengths (MBytes):  RWF=    157 Int=      0 D2E=      0 Chk=      7 Scr=      1
 Normal termination of Gaussian 16 at Mon Jul 25 18:57:00 2022.
