 Entering Gaussian System, Link 0=/public1/home/scg3027/software-scg3027/g16/g16
 Input=5-ts-6.gjf
 Output=5-ts-6.log
 Initial command:
 /public1/home/scg3027/software-scg3027/g16/l1.exe "/public1/home/scg3027/software-scg3027/test/tmp/Gau-28411.inp" -scrdir="/public1/home/scg3027/software-scg3027/test/tmp/"
 Entering Link 1 = /public1/home/scg3027/software-scg3027/g16/l1.exe PID=     28412.
  
 Copyright (c) 1988-2019, Gaussian, Inc.  All Rights Reserved.
  
 This is part of the Gaussian(R) 16 program.  It is based on
 the Gaussian(R) 09 system (copyright 2009, Gaussian, Inc.),
 the Gaussian(R) 03 system (copyright 2003, Gaussian, Inc.),
 the Gaussian(R) 98 system (copyright 1998, Gaussian, Inc.),
 the Gaussian(R) 94 system (copyright 1995, Gaussian, Inc.),
 the Gaussian 92(TM) system (copyright 1992, Gaussian, Inc.),
 the Gaussian 90(TM) system (copyright 1990, Gaussian, Inc.),
 the Gaussian 88(TM) system (copyright 1988, Gaussian, Inc.),
 the Gaussian 86(TM) system (copyright 1986, Carnegie Mellon
 University), and the Gaussian 82(TM) system (copyright 1983,
 Carnegie Mellon University). Gaussian is a federally registered
 trademark of Gaussian, Inc.
  
 This software contains proprietary and confidential information,
 including trade secrets, belonging to Gaussian, Inc.
  
 This software is provided under written license and may be
 used, copied, transmitted, or stored only in accord with that
 written license.
  
 The following legend is applicable only to US Government
 contracts under FAR:
  
                    RESTRICTED RIGHTS LEGEND
  
 Use, reproduction and disclosure by the US Government is
 subject to restrictions as set forth in subparagraphs (a)
 and (c) of the Commercial Computer Software - Restricted
 Rights clause in FAR 52.227-19.
  
 Gaussian, Inc.
 340 Quinnipiac St., Bldg. 40, Wallingford CT 06492
  
  
 ---------------------------------------------------------------
 Warning -- This program may not be used in any manner that
 competes with the business of Gaussian, Inc. or will provide
 assistance to any competitor of Gaussian, Inc.  The licensee
 of this program is prohibited from giving any competitor of
 Gaussian, Inc. access to this program.  By using this program,
 the user acknowledges that Gaussian, Inc. is engaged in the
 business of creating and licensing software in the field of
 computational chemistry and represents and warrants to the
 licensee that it is not a competitor of Gaussian, Inc. and that
 it will not use this program in any manner prohibited above.
 ---------------------------------------------------------------
  

 Cite this work as:
 Gaussian 16, Revision C.01,
 M. J. Frisch, G. W. Trucks, H. B. Schlegel, G. E. Scuseria, 
 M. A. Robb, J. R. Cheeseman, G. Scalmani, V. Barone, 
 G. A. Petersson, H. Nakatsuji, X. Li, M. Caricato, A. V. Marenich, 
 J. Bloino, B. G. Janesko, R. Gomperts, B. Mennucci, H. P. Hratchian, 
 J. V. Ortiz, A. F. Izmaylov, J. L. Sonnenberg, D. Williams-Young, 
 F. Ding, F. Lipparini, F. Egidi, J. Goings, B. Peng, A. Petrone, 
 T. Henderson, D. Ranasinghe, V. G. Zakrzewski, J. Gao, N. Rega, 
 G. Zheng, W. Liang, M. Hada, M. Ehara, K. Toyota, R. Fukuda, 
 J. Hasegawa, M. Ishida, T. Nakajima, Y. Honda, O. Kitao, H. Nakai, 
 T. Vreven, K. Throssell, J. A. Montgomery, Jr., J. E. Peralta, 
 F. Ogliaro, M. J. Bearpark, J. J. Heyd, E. N. Brothers, K. N. Kudin, 
 V. N. Staroverov, T. A. Keith, R. Kobayashi, J. Normand, 
 K. Raghavachari, A. P. Rendell, J. C. Burant, S. S. Iyengar, 
 J. Tomasi, M. Cossi, J. M. Millam, M. Klene, C. Adamo, R. Cammi, 
 J. W. Ochterski, R. L. Martin, K. Morokuma, O. Farkas, 
 J. B. Foresman, and D. J. Fox, Gaussian, Inc., Wallingford CT, 2019.
 
 ******************************************
 Gaussian 16:  ES64L-G16RevC.01  3-Jul-2019
                25-Jul-2022 
 ******************************************
 %nprocshared=20
 Will use up to   20 processors via shared memory.
 %mem=80GB
 %chk=5-ts-6.chk
 ----------------------------------------------------------------------
 # opt=(calcfc,ts,noeigentest) freq ub3lyp/6-311g(d,p) geom=connectivit
 y temperature=823.15
 ----------------------------------------------------------------------
 1/5=1,10=4,11=1,18=20,26=3,38=1,57=2,112=823150/1,3;
 2/9=110,12=2,17=6,18=5,40=1/2;
 3/5=4,6=6,7=101,11=2,25=1,30=1,71=2,74=-5,116=2,140=1/1,2,3;
 4//1;
 5/5=2,38=5/2;
 8/6=4,10=90,11=11/1;
 11/6=1,8=1,9=11,15=111,16=1/1,2,10;
 10/6=1,13=1/2;
 6/7=2,8=2,9=2,10=2,28=1/1;
 7/10=1,25=1/1,2,3,16;
 1/5=1,10=4,11=1,18=20,26=3/3(2);
 2/9=110/2;
 99//99;
 2/9=110/2;
 3/5=4,6=6,7=101,11=2,25=1,30=1,71=1,74=-5,116=2/1,2,3;
 4/5=5,16=3,69=1/1;
 5/5=2,38=5/2;
 7//1,2,3,16;
 1/5=1,11=1,18=20,26=3/3(-5);
 2/9=110/2;
 6/7=2,8=2,9=2,10=2,19=2,28=1/1;
 99/9=1/99;
 -------------------
 Title Card Required
 -------------------
 Symbolic Z-matrix:
 Charge =  0 Multiplicity = 2
 C                    -1.74408  -0.31564  -0.42272 
 C                    -0.82139  -1.20722   0.05504 
 C                     1.23576  -0.02099  -0.2102 
 C                     0.28009  -0.48645   0.77334 
 C                    -0.07542   0.9936    0.45666 
 C                    -1.33508   1.01677  -0.15809 
 H                    -2.63052  -0.58668  -0.98156 
 H                    -0.82709  -2.28048  -0.06853 
 O                     2.38247   0.00904  -0.5196 
 H                     0.41766   1.82672   0.9381 
 H                     0.60073  -0.82363   1.76637 
 C                    -2.08291   2.29155  -0.59086 
 H                    -1.92147   2.46277  -1.63466 
 H                    -3.13004   2.17055  -0.40704 
 H                    -1.71682   3.12706  -0.03156 
 

 GradGradGradGradGradGradGradGradGradGradGradGradGradGradGradGradGradGrad
 Berny optimization.
 Initialization pass.
                           ----------------------------
                           !    Initial Parameters    !
                           ! (Angstroms and Degrees)  !
 --------------------------                            --------------------------
 ! Name  Definition              Value          Derivative Info.                !
 --------------------------------------------------------------------------------
 ! R1    R(1,2)                  1.3691         calculate D2E/DX2 analytically  !
 ! R2    R(1,6)                  1.4187         calculate D2E/DX2 analytically  !
 ! R3    R(1,7)                  1.0824         calculate D2E/DX2 analytically  !
 ! R4    R(2,4)                  1.4996         calculate D2E/DX2 analytically  !
 ! R5    R(2,8)                  1.0804         calculate D2E/DX2 analytically  !
 ! R6    R(3,4)                  1.4482         calculate D2E/DX2 analytically  !
 ! R7    R(3,9)                  1.1881         calculate D2E/DX2 analytically  !
 ! R8    R(4,5)                  1.5547         calculate D2E/DX2 analytically  !
 ! R9    R(4,11)                 1.0966         calculate D2E/DX2 analytically  !
 ! R10   R(5,6)                  1.4019         calculate D2E/DX2 analytically  !
 ! R11   R(5,10)                 1.0812         calculate D2E/DX2 analytically  !
 ! R12   R(6,12)                 1.54           calculate D2E/DX2 analytically  !
 ! R13   R(12,13)                1.07           calculate D2E/DX2 analytically  !
 ! R14   R(12,14)                1.07           calculate D2E/DX2 analytically  !
 ! R15   R(12,15)                1.07           calculate D2E/DX2 analytically  !
 ! A1    A(2,1,6)              110.6239         calculate D2E/DX2 analytically  !
 ! A2    A(2,1,7)              124.6823         calculate D2E/DX2 analytically  !
 ! A3    A(6,1,7)              124.5826         calculate D2E/DX2 analytically  !
 ! A4    A(1,2,4)              110.4361         calculate D2E/DX2 analytically  !
 ! A5    A(1,2,8)              127.1175         calculate D2E/DX2 analytically  !
 ! A6    A(4,2,8)              122.422          calculate D2E/DX2 analytically  !
 ! A7    A(4,3,9)              145.2746         calculate D2E/DX2 analytically  !
 ! A8    A(2,4,3)              108.2931         calculate D2E/DX2 analytically  !
 ! A9    A(2,4,5)              101.0715         calculate D2E/DX2 analytically  !
 ! A10   A(2,4,11)             120.0482         calculate D2E/DX2 analytically  !
 ! A11   A(3,4,5)               72.9383         calculate D2E/DX2 analytically  !
 ! A12   A(3,4,11)             121.3901         calculate D2E/DX2 analytically  !
 ! A13   A(5,4,11)             122.9564         calculate D2E/DX2 analytically  !
 ! A14   A(4,5,6)              108.0907         calculate D2E/DX2 analytically  !
 ! A15   A(4,5,10)             122.5853         calculate D2E/DX2 analytically  !
 ! A16   A(6,5,10)             126.3216         calculate D2E/DX2 analytically  !
 ! A17   A(1,6,5)              108.9853         calculate D2E/DX2 analytically  !
 ! A18   A(1,6,12)             125.8054         calculate D2E/DX2 analytically  !
 ! A19   A(5,6,12)             124.978          calculate D2E/DX2 analytically  !
 ! A20   A(6,12,13)            109.4712         calculate D2E/DX2 analytically  !
 ! A21   A(6,12,14)            109.4712         calculate D2E/DX2 analytically  !
 ! A22   A(6,12,15)            109.4712         calculate D2E/DX2 analytically  !
 ! A23   A(13,12,14)           109.4713         calculate D2E/DX2 analytically  !
 ! A24   A(13,12,15)           109.4712         calculate D2E/DX2 analytically  !
 ! A25   A(14,12,15)           109.4712         calculate D2E/DX2 analytically  !
 ! D1    D(6,1,2,4)              3.3397         calculate D2E/DX2 analytically  !
 ! D2    D(6,1,2,8)           -174.8837         calculate D2E/DX2 analytically  !
 ! D3    D(7,1,2,4)            179.6478         calculate D2E/DX2 analytically  !
 ! D4    D(7,1,2,8)              1.4244         calculate D2E/DX2 analytically  !
 ! D5    D(2,1,6,5)              2.8066         calculate D2E/DX2 analytically  !
 ! D6    D(2,1,6,12)           177.487          calculate D2E/DX2 analytically  !
 ! D7    D(7,1,6,5)           -173.5059         calculate D2E/DX2 analytically  !
 ! D8    D(7,1,6,12)             1.1745         calculate D2E/DX2 analytically  !
 ! D9    D(1,2,4,3)            -82.8227         calculate D2E/DX2 analytically  !
 ! D10   D(1,2,4,5)             -7.3116         calculate D2E/DX2 analytically  !
 ! D11   D(1,2,4,11)           131.5893         calculate D2E/DX2 analytically  !
 ! D12   D(8,2,4,3)             95.499          calculate D2E/DX2 analytically  !
 ! D13   D(8,2,4,5)            171.0102         calculate D2E/DX2 analytically  !
 ! D14   D(8,2,4,11)           -50.089          calculate D2E/DX2 analytically  !
 ! D15   D(9,3,4,2)           -128.7286         calculate D2E/DX2 analytically  !
 ! D16   D(9,3,4,5)            134.95           calculate D2E/DX2 analytically  !
 ! D17   D(9,3,4,11)            16.3075         calculate D2E/DX2 analytically  !
 ! D18   D(2,4,5,6)              8.8515         calculate D2E/DX2 analytically  !
 ! D19   D(2,4,5,10)           170.352          calculate D2E/DX2 analytically  !
 ! D20   D(3,4,5,6)            114.7838         calculate D2E/DX2 analytically  !
 ! D21   D(3,4,5,10)           -83.7157         calculate D2E/DX2 analytically  !
 ! D22   D(11,4,5,6)          -128.45           calculate D2E/DX2 analytically  !
 ! D23   D(11,4,5,10)           33.0505         calculate D2E/DX2 analytically  !
 ! D24   D(4,5,6,1)             -7.4919         calculate D2E/DX2 analytically  !
 ! D25   D(4,5,6,12)           177.7732         calculate D2E/DX2 analytically  !
 ! D26   D(10,5,6,1)          -168.1125         calculate D2E/DX2 analytically  !
 ! D27   D(10,5,6,12)           17.1527         calculate D2E/DX2 analytically  !
 ! D28   D(1,6,12,13)          -76.1383         calculate D2E/DX2 analytically  !
 ! D29   D(1,6,12,14)           43.8618         calculate D2E/DX2 analytically  !
 ! D30   D(1,6,12,15)          163.8618         calculate D2E/DX2 analytically  !
 ! D31   D(5,6,12,13)           97.7197         calculate D2E/DX2 analytically  !
 ! D32   D(5,6,12,14)         -142.2803         calculate D2E/DX2 analytically  !
 ! D33   D(5,6,12,15)          -22.2803         calculate D2E/DX2 analytically  !
 --------------------------------------------------------------------------------
 Trust Radius=3.00D-01 FncErr=1.00D-07 GrdErr=1.00D-06 EigMax=2.50D+02 EigMin=1.00D-04
 Number of steps in this run=     83 maximum allowed number of steps=    100.
 Search for a saddle point of order  1.
 GradGradGradGradGradGradGradGradGradGradGradGradGradGradGradGradGradGrad

                          Input orientation:                          
 ---------------------------------------------------------------------
 Center     Atomic      Atomic             Coordinates (Angstroms)
 Number     Number       Type             X           Y           Z
 ---------------------------------------------------------------------
      1          6           0       -1.744075   -0.315642   -0.422715
      2          6           0       -0.821390   -1.207220    0.055037
      3          6           0        1.235758   -0.020993   -0.210203
      4          6           0        0.280093   -0.486449    0.773342
      5          6           0       -0.075416    0.993603    0.456661
      6          6           0       -1.335083    1.016773   -0.158086
      7          1           0       -2.630518   -0.586677   -0.981562
      8          1           0       -0.827090   -2.280484   -0.068534
      9          8           0        2.382471    0.009038   -0.519602
     10          1           0        0.417655    1.826715    0.938097
     11          1           0        0.600731   -0.823633    1.766372
     12          6           0       -2.082911    2.291553   -0.590855
     13          1           0       -1.921472    2.462775   -1.634656
     14          1           0       -3.130036    2.170550   -0.407038
     15          1           0       -1.716821    3.127058   -0.031562
 ---------------------------------------------------------------------
                    Distance matrix (angstroms):
                    1          2          3          4          5
     1  C    0.000000
     2  C    1.369126   0.000000
     3  C    3.001897   2.389423   0.000000
     4  C    2.357325   1.499579   1.448208   0.000000
     5  C    2.296050   2.358262   1.786978   1.554744   0.000000
     6  C    1.418673   2.292476   2.772886   2.395001   1.401860
     7  H    1.082382   2.175444   3.982849   3.400204   3.330813
     8  H    2.197023   1.080369   3.062795   2.270060   3.400072
     9  O    4.140433   3.474798   1.188099   2.517381   2.821997
    10  H    3.333854   3.394081   2.324201   2.323100   1.081192
    11  H    3.247810   2.257927   2.225834   1.096636   2.339843
    12  C    2.634492   3.774920   4.062798   3.893856   2.609981
    13  H    3.036424   4.187374   4.262191   4.398098   3.152776
    14  H    2.846451   4.117364   4.888942   4.481285   3.385540
    15  H    3.464957   4.426653   4.319706   4.206301   2.735727
                    6          7          8          9         10
     6  C    0.000000
     7  H    2.219756   0.000000
     8  H    3.337361   2.637225   0.000000
     9  O    3.868647   5.069353   3.968206   0.000000
    10  H    2.220296   4.336002   4.408149   3.047842   0.000000
    11  H    3.292113   4.248324   2.743714   3.015562   2.782787
    12  C    1.540000   2.955796   4.770055   5.015435   2.967592
    13  H    2.148263   3.198192   5.113601   5.078198   3.534847
    14  H    2.148263   2.860401   5.022932   5.922207   3.809688
    15  H    2.148263   3.940707   5.480374   5.173434   2.680880
                   11         12         13         14         15
    11  H    0.000000
    12  C    4.739498   0.000000
    13  H    5.359942   1.070000   0.000000
    14  H    5.254280   1.070000   1.747303   0.000000
    15  H    4.920525   1.070000   1.747303   1.747303   0.000000
 Stoichiometry    C7H7O(2)
 Framework group  C1[X(C7H7O)]
 Deg. of freedom    39
 Full point group                 C1      NOp   1
 Largest Abelian subgroup         C1      NOp   1
 Largest concise Abelian subgroup C1      NOp   1
                         Standard orientation:                         
 ---------------------------------------------------------------------
 Center     Atomic      Atomic             Coordinates (Angstroms)
 Number     Number       Type             X           Y           Z
 ---------------------------------------------------------------------
      1          6           0        1.021258    1.195833   -0.377079
      2          6           0       -0.242766    1.621615   -0.068112
      3          6           0       -1.523211   -0.389676   -0.224681
      4          6           0       -0.973866    0.569429    0.711077
      5          6           0        0.030415   -0.614602    0.629102
      6          6           0        1.222541   -0.136190    0.067705
      7          1           0        1.744903    1.771724   -0.939430
      8          1           0       -0.702004    2.558360   -0.348836
      9          8           0       -2.501415   -0.971801   -0.565013
     10          1           0       -0.085833   -1.518108    1.211458
     11          1           0       -1.505520    0.838093    1.631823
     12          6           0        2.496489   -0.974619   -0.146052
     13          1           0        2.529955   -1.320911   -1.157912
     14          1           0        3.357789   -0.371861    0.053311
     15          1           0        2.486870   -1.813630    0.517927
 ---------------------------------------------------------------------
 Rotational constants (GHZ):           3.9325959           1.6823836           1.3353060
 Standard basis: 6-311G(d,p) (5D, 7F)
 There are   194 symmetry adapted cartesian basis functions of A   symmetry.
 There are   186 symmetry adapted basis functions of A   symmetry.
   186 basis functions,   312 primitive gaussians,   194 cartesian basis functions
    29 alpha electrons       28 beta electrons
       nuclear repulsion energy       333.9769264446 Hartrees.
 NAtoms=   15 NActive=   15 NUniq=   15 SFac= 1.00D+00 NAtFMM=   60 NAOKFM=F Big=F
 Integral buffers will be    131072 words long.
 Raffenetti 2 integral format.
 Two-electron integral symmetry is turned on.
 One-electron integrals computed using PRISM.
 NBasis=   186 RedAO= T EigKep=  4.91D-04  NBF=   186
 NBsUse=   186 1.00D-06 EigRej= -1.00D+00 NBFU=   186
 ExpMin= 1.03D-01 ExpMax= 8.59D+03 ExpMxC= 1.30D+03 IAcc=3 IRadAn=         5 AccDes= 0.00D+00
 Harris functional with IExCor=  402 and IRadAn=       5 diagonalized for initial guess.
 HarFok:  IExCor=  402 AccDes= 0.00D+00 IRadAn=         5 IDoV= 1 UseB2=F ITyADJ=14
 ICtDFT=  3500011 ScaDFX=  1.000000  1.000000  1.000000  1.000000
 FoFCou: FMM=F IPFlag=           0 FMFlag=      100000 FMFlg1=           0
         NFxFlg=           0 DoJE=T BraDBF=F KetDBF=T FulRan=T
         wScrn=  0.000000 ICntrl=       500 IOpCl=  0 I1Cent=   200000004 NGrid=           0
         NMat0=    1 NMatS0=      1 NMatT0=    0 NMatD0=    1 NMtDS0=    0 NMtDT0=    0
 Petite list used in FoFCou.
 Initial guess <Sx>= 0.0000 <Sy>= 0.0000 <Sz>= 0.5000 <S**2>= 0.7500 S= 0.5000
 Requested convergence on RMS density matrix=1.00D-08 within 128 cycles.
 Requested convergence on MAX density matrix=1.00D-06.
 Requested convergence on             energy=1.00D-06.
 No special actions if energy rises.
 Integral accuracy reduced to 1.0D-05 until final iterations.
 Initial convergence to 1.0D-05 achieved.  Increase integral accuracy.
 SCF Done:  E(UB3LYP) =  -346.142557111     A.U. after   22 cycles
            NFock= 22  Conv=0.66D-08     -V/T= 2.0039
 <Sx>= 0.0000 <Sy>= 0.0000 <Sz>= 0.5000 <S**2>= 0.7748 S= 0.5123
 <L.S>=  0.00000000000    
 Annihilation of the first spin contaminant:
 S**2 before annihilation     0.7748,   after     0.7503
 DoSCS=F DFT=T ScalE2(SS,OS)=  1.000000  1.000000
 Range of M.O.s used for correlation:     1   186
 NBasis=   186 NAE=    29 NBE=    28 NFC=     0 NFV=     0
 NROrb=    186 NOA=    29 NOB=    28 NVA=   157 NVB=   158
 Symmetrizing basis deriv contribution to polar:
 IMax=3 JMax=2 DiffMx= 0.00D+00
 G2DrvN: will do    16 centers at a time, making    1 passes.
 Calling FoFCou, ICntrl=  3107 FMM=F I1Cent=   0 AccDes= 0.00D+00.
 End of G2Drv F.D. properties file   721 does not exist.
 End of G2Drv F.D. properties file   722 does not exist.
 End of G2Drv F.D. properties file   788 does not exist.
          IDoAtm=111111111111111
          Differentiating once with respect to nuclear coordinates.
 Keep R1 and R2 ints in memory in canonical form, NReq=322854063.
          There are    48 degrees of freedom in the 1st order CPHF.  IDoFFX=6 NUNeed=     0.
     42 vectors produced by pass  0 Test12= 1.87D-14 2.08D-09 XBig12= 4.58D-01 3.89D-01.
 AX will form    42 AO Fock derivatives at one time.
     42 vectors produced by pass  1 Test12= 1.87D-14 2.08D-09 XBig12= 1.87D-01 8.95D-02.
     42 vectors produced by pass  2 Test12= 1.87D-14 2.08D-09 XBig12= 7.84D-03 1.90D-02.
     42 vectors produced by pass  3 Test12= 1.87D-14 2.08D-09 XBig12= 8.87D-05 1.65D-03.
     42 vectors produced by pass  4 Test12= 1.87D-14 2.08D-09 XBig12= 9.87D-07 1.73D-04.
     42 vectors produced by pass  5 Test12= 1.87D-14 2.08D-09 XBig12= 5.06D-09 9.78D-06.
     33 vectors produced by pass  6 Test12= 1.87D-14 2.08D-09 XBig12= 2.23D-11 4.22D-07.
     13 vectors produced by pass  7 Test12= 1.87D-14 2.08D-09 XBig12= 9.09D-14 2.86D-08.
      1 vectors produced by pass  8 Test12= 1.87D-14 2.08D-09 XBig12= 3.72D-16 2.13D-09.
 InvSVY:  IOpt=1 It=  1 EMax= 2.00D-15
 Solved reduced A of dimension   299 with    42 vectors.
 End of Minotr F.D. properties file   721 does not exist.
 End of Minotr F.D. properties file   722 does not exist.
 End of Minotr F.D. properties file   788 does not exist.

 **********************************************************************

            Population analysis using the SCF Density.

 **********************************************************************

 Orbital symmetries:
 Alpha Orbitals:
       Occupied  (A) (A) (A) (A) (A) (A) (A) (A) (A) (A) (A) (A)
                 (A) (A) (A) (A) (A) (A) (A) (A) (A) (A) (A) (A)
                 (A) (A) (A) (A) (A)
       Virtual   (A) (A) (A) (A) (A) (A) (A) (A) (A) (A) (A) (A)
                 (A) (A) (A) (A) (A) (A) (A) (A) (A) (A) (A) (A)
                 (A) (A) (A) (A) (A) (A) (A) (A) (A) (A) (A) (A)
                 (A) (A) (A) (A) (A) (A) (A) (A) (A) (A) (A) (A)
                 (A) (A) (A) (A) (A) (A) (A) (A) (A) (A) (A) (A)
                 (A) (A) (A) (A) (A) (A) (A) (A) (A) (A) (A) (A)
                 (A) (A) (A) (A) (A) (A) (A) (A) (A) (A) (A) (A)
                 (A) (A) (A) (A) (A) (A) (A) (A) (A) (A) (A) (A)
                 (A) (A) (A) (A) (A) (A) (A) (A) (A) (A) (A) (A)
                 (A) (A) (A) (A) (A) (A) (A) (A) (A) (A) (A) (A)
                 (A) (A) (A) (A) (A) (A) (A) (A) (A) (A) (A) (A)
                 (A) (A) (A) (A) (A) (A) (A) (A) (A) (A) (A) (A)
                 (A) (A) (A) (A) (A) (A) (A) (A) (A) (A) (A) (A)
                 (A)
 Beta  Orbitals:
       Occupied  (A) (A) (A) (A) (A) (A) (A) (A) (A) (A) (A) (A)
                 (A) (A) (A) (A) (A) (A) (A) (A) (A) (A) (A) (A)
                 (A) (A) (A) (A)
       Virtual   (A) (A) (A) (A) (A) (A) (A) (A) (A) (A) (A) (A)
                 (A) (A) (A) (A) (A) (A) (A) (A) (A) (A) (A) (A)
                 (A) (A) (A) (A) (A) (A) (A) (A) (A) (A) (A) (A)
                 (A) (A) (A) (A) (A) (A) (A) (A) (A) (A) (A) (A)
                 (A) (A) (A) (A) (A) (A) (A) (A) (A) (A) (A) (A)
                 (A) (A) (A) (A) (A) (A) (A) (A) (A) (A) (A) (A)
                 (A) (A) (A) (A) (A) (A) (A) (A) (A) (A) (A) (A)
                 (A) (A) (A) (A) (A) (A) (A) (A) (A) (A) (A) (A)
                 (A) (A) (A) (A) (A) (A) (A) (A) (A) (A) (A) (A)
                 (A) (A) (A) (A) (A) (A) (A) (A) (A) (A) (A) (A)
                 (A) (A) (A) (A) (A) (A) (A) (A) (A) (A) (A) (A)
                 (A) (A) (A) (A) (A) (A) (A) (A) (A) (A) (A) (A)
                 (A) (A) (A) (A) (A) (A) (A) (A) (A) (A) (A) (A)
                 (A) (A)
 The electronic state is 2-A.
 Alpha  occ. eigenvalues --  -19.14352 -10.27114 -10.21362 -10.20279 -10.19377
 Alpha  occ. eigenvalues --  -10.19151 -10.18181 -10.17289  -1.07621  -0.90488
 Alpha  occ. eigenvalues --   -0.78713  -0.74787  -0.68333  -0.59543  -0.56582
 Alpha  occ. eigenvalues --   -0.53806  -0.50828  -0.47362  -0.44631  -0.43626
 Alpha  occ. eigenvalues --   -0.42922  -0.41551  -0.39865  -0.38231  -0.37397
 Alpha  occ. eigenvalues --   -0.35649  -0.30087  -0.25764  -0.15830
 Alpha virt. eigenvalues --   -0.04685   0.00714   0.04581   0.06082   0.07548
 Alpha virt. eigenvalues --    0.09123   0.09679   0.11286   0.12116   0.13302
 Alpha virt. eigenvalues --    0.14930   0.18049   0.18450   0.23472   0.25102
 Alpha virt. eigenvalues --    0.26229   0.28296   0.30473   0.32656   0.35421
 Alpha virt. eigenvalues --    0.38192   0.39313   0.40071   0.41520   0.42009
 Alpha virt. eigenvalues --    0.42534   0.45083   0.46222   0.47704   0.50450
 Alpha virt. eigenvalues --    0.52720   0.54691   0.55601   0.56245   0.57058
 Alpha virt. eigenvalues --    0.58385   0.59836   0.60452   0.62445   0.63128
 Alpha virt. eigenvalues --    0.64679   0.66177   0.66897   0.69124   0.75211
 Alpha virt. eigenvalues --    0.77444   0.78365   0.80640   0.82713   0.85386
 Alpha virt. eigenvalues --    0.87339   0.91264   0.93752   0.95541   1.00539
 Alpha virt. eigenvalues --    1.03460   1.06352   1.10977   1.14156   1.21251
 Alpha virt. eigenvalues --    1.24539   1.26853   1.32121   1.34251   1.39505
 Alpha virt. eigenvalues --    1.42716   1.43827   1.45484   1.47041   1.48077
 Alpha virt. eigenvalues --    1.49540   1.50709   1.51899   1.52952   1.54469
 Alpha virt. eigenvalues --    1.55835   1.58690   1.60762   1.62629   1.63900
 Alpha virt. eigenvalues --    1.65234   1.73189   1.74177   1.76731   1.77756
 Alpha virt. eigenvalues --    1.80019   1.85326   1.88519   1.90382   1.92260
 Alpha virt. eigenvalues --    1.95353   1.95611   1.98526   2.03485   2.05920
 Alpha virt. eigenvalues --    2.09383   2.11426   2.15044   2.17501   2.23688
 Alpha virt. eigenvalues --    2.25743   2.31496   2.36703   2.38130   2.39835
 Alpha virt. eigenvalues --    2.46215   2.47626   2.48732   2.51353   2.54612
 Alpha virt. eigenvalues --    2.55907   2.57201   2.60186   2.61692   2.63104
 Alpha virt. eigenvalues --    2.66198   2.68425   2.72065   2.76927   2.78266
 Alpha virt. eigenvalues --    2.80504   2.82229   2.84083   2.85936   2.87811
 Alpha virt. eigenvalues --    2.96469   3.01475   3.04721   3.08346   3.14688
 Alpha virt. eigenvalues --    3.27974   3.29057   3.33973   3.36757   3.44416
 Alpha virt. eigenvalues --    3.53125   3.59094   3.65360   3.83195   3.84835
 Alpha virt. eigenvalues --    3.92861   4.00639   4.04173   4.10814   4.28292
 Alpha virt. eigenvalues --    4.56974   4.95838   4.99518   5.56686  23.59539
 Alpha virt. eigenvalues --   23.75945  23.87031  23.94674  23.99973  24.08970
 Alpha virt. eigenvalues --   24.17983  49.93716
  Beta  occ. eigenvalues --  -19.13718 -10.26487 -10.21222 -10.20477 -10.18878
  Beta  occ. eigenvalues --  -10.18818 -10.18315 -10.17315  -1.06425  -0.89923
  Beta  occ. eigenvalues --   -0.77933  -0.74453  -0.68052  -0.58974  -0.56130
  Beta  occ. eigenvalues --   -0.52941  -0.50215  -0.46585  -0.44046  -0.43067
  Beta  occ. eigenvalues --   -0.41636  -0.40648  -0.39667  -0.37595  -0.36393
  Beta  occ. eigenvalues --   -0.35214  -0.28976  -0.24339
  Beta virt. eigenvalues --   -0.06942  -0.02227   0.01775   0.04624   0.06318
  Beta virt. eigenvalues --    0.07610   0.09328   0.10030   0.11584   0.12194
  Beta virt. eigenvalues --    0.13818   0.15099   0.18614   0.18930   0.24015
  Beta virt. eigenvalues --    0.25472   0.26387   0.28411   0.30938   0.32986
  Beta virt. eigenvalues --    0.35737   0.38508   0.39751   0.40753   0.41969
  Beta virt. eigenvalues --    0.42554   0.42867   0.45504   0.46810   0.48246
  Beta virt. eigenvalues --    0.51339   0.53017   0.54929   0.55970   0.56588
  Beta virt. eigenvalues --    0.57181   0.58449   0.60155   0.61148   0.62652
  Beta virt. eigenvalues --    0.63188   0.65032   0.66512   0.67539   0.69460
  Beta virt. eigenvalues --    0.75558   0.77861   0.78610   0.81178   0.83483
  Beta virt. eigenvalues --    0.85715   0.87606   0.91595   0.94254   0.96380
  Beta virt. eigenvalues --    1.00916   1.03905   1.07024   1.11400   1.14832
  Beta virt. eigenvalues --    1.21772   1.24870   1.27351   1.32596   1.34871
  Beta virt. eigenvalues --    1.40245   1.43432   1.44488   1.45671   1.47507
  Beta virt. eigenvalues --    1.48366   1.49791   1.50926   1.52437   1.53356
  Beta virt. eigenvalues --    1.54677   1.56481   1.59000   1.61313   1.63317
  Beta virt. eigenvalues --    1.64824   1.65522   1.73544   1.74697   1.76908
  Beta virt. eigenvalues --    1.78011   1.80325   1.85759   1.88761   1.90936
  Beta virt. eigenvalues --    1.92903   1.95634   1.96259   1.99079   2.03899
  Beta virt. eigenvalues --    2.06204   2.09781   2.11793   2.15452   2.17884
  Beta virt. eigenvalues --    2.23961   2.26179   2.32213   2.37037   2.38301
  Beta virt. eigenvalues --    2.40039   2.46434   2.47766   2.48992   2.52164
  Beta virt. eigenvalues --    2.54928   2.56017   2.57824   2.60442   2.62121
  Beta virt. eigenvalues --    2.63797   2.66245   2.69008   2.72452   2.77300
  Beta virt. eigenvalues --    2.78482   2.81426   2.84069   2.84254   2.87428
  Beta virt. eigenvalues --    2.89361   2.97145   3.02629   3.05011   3.08643
  Beta virt. eigenvalues --    3.14941   3.28315   3.29462   3.34478   3.38070
  Beta virt. eigenvalues --    3.44661   3.53514   3.59219   3.66254   3.83368
  Beta virt. eigenvalues --    3.84883   3.93197   4.01058   4.04442   4.11149
  Beta virt. eigenvalues --    4.28760   4.57456   4.96284   5.02063   5.57324
  Beta virt. eigenvalues --   23.59774  23.76185  23.87298  23.94671  24.00384
  Beta virt. eigenvalues --   24.09105  24.18128  49.94345
          Condensed to atoms (all electrons):
               1          2          3          4          5          6
     1  C    4.854915   0.548141  -0.009468  -0.065448  -0.063418   0.479322
     2  C    0.548141   5.036800  -0.017044   0.352245  -0.095525  -0.090223
     3  C   -0.009468  -0.017044   5.136086   0.052977   0.122728  -0.078689
     4  C   -0.065448   0.352245   0.052977   5.506728   0.137530  -0.037927
     5  C   -0.063418  -0.095525   0.122728   0.137530   5.324360   0.450101
     6  C    0.479322  -0.090223  -0.078689  -0.037927   0.450101   5.097232
     7  H    0.418095  -0.038680   0.000141   0.007030   0.007668  -0.045065
     8  H   -0.034066   0.417188   0.001482  -0.045238   0.005733   0.007075
     9  O   -0.000034  -0.001505   0.583518  -0.044439  -0.023347   0.002984
    10  H    0.005970   0.005699  -0.004556  -0.033179   0.402040  -0.019940
    11  H    0.004832  -0.027021  -0.003548   0.325977  -0.005735  -0.000693
    12  C   -0.050043   0.004998  -0.000617   0.005224  -0.055414   0.357079
    13  H   -0.004101   0.000464   0.001711  -0.000806   0.000024  -0.039082
    14  H   -0.004178   0.000227  -0.000132  -0.000412   0.004953  -0.037560
    15  H    0.006056  -0.000421  -0.000559   0.000505  -0.007435  -0.032726
               7          8          9         10         11         12
     1  C    0.418095  -0.034066  -0.000034   0.005970   0.004832  -0.050043
     2  C   -0.038680   0.417188  -0.001505   0.005699  -0.027021   0.004998
     3  C    0.000141   0.001482   0.583518  -0.004556  -0.003548  -0.000617
     4  C    0.007030  -0.045238  -0.044439  -0.033179   0.325977   0.005224
     5  C    0.007668   0.005733  -0.023347   0.402040  -0.005735  -0.055414
     6  C   -0.045065   0.007075   0.002984  -0.019940  -0.000693   0.357079
     7  H    0.562308  -0.004353  -0.000002  -0.000267  -0.000181  -0.001269
     8  H   -0.004353   0.540351   0.000239  -0.000219  -0.000110  -0.000265
     9  O   -0.000002   0.000239   7.721701   0.000108   0.000488   0.000014
    10  H   -0.000267  -0.000219   0.000108   0.517005  -0.000670  -0.004653
    11  H   -0.000181  -0.000110   0.000488  -0.000670   0.578938  -0.000213
    12  C   -0.001269  -0.000265   0.000014  -0.004653  -0.000213   4.771229
    13  H    0.000323   0.000032  -0.000029   0.000498   0.000070   0.399296
    14  H    0.001212  -0.000026   0.000000  -0.000143  -0.000007   0.408137
    15  H   -0.000131   0.000017   0.000001   0.002022  -0.000055   0.410293
              13         14         15
     1  C   -0.004101  -0.004178   0.006056
     2  C    0.000464   0.000227  -0.000421
     3  C    0.001711  -0.000132  -0.000559
     4  C   -0.000806  -0.000412   0.000505
     5  C    0.000024   0.004953  -0.007435
     6  C   -0.039082  -0.037560  -0.032726
     7  H    0.000323   0.001212  -0.000131
     8  H    0.000032  -0.000026   0.000017
     9  O   -0.000029   0.000000   0.000001
    10  H    0.000498  -0.000143   0.002022
    11  H    0.000070  -0.000007  -0.000055
    12  C    0.399296   0.408137   0.410293
    13  H    0.568219  -0.029669  -0.027798
    14  H   -0.029669   0.564924  -0.026174
    15  H   -0.027798  -0.026174   0.563291
          Atomic-Atomic Spin Densities.
               1          2          3          4          5          6
     1  C   -0.103849  -0.018734  -0.004953   0.001475   0.000634   0.017287
     2  C   -0.018734   0.313782   0.057755  -0.057462   0.009331  -0.033156
     3  C   -0.004953   0.057755   0.632505  -0.218352   0.100872  -0.068929
     4  C    0.001475  -0.057462  -0.218352   0.353179  -0.062378   0.048090
     5  C    0.000634   0.009331   0.100872  -0.062378  -0.140617  -0.039872
     6  C    0.017287  -0.033156  -0.068929   0.048090  -0.039872   0.427336
     7  H    0.000431  -0.000131   0.000354  -0.000432   0.000232  -0.000205
     8  H   -0.000301   0.001635   0.001828  -0.002539   0.000555  -0.000458
     9  O    0.000114  -0.002384  -0.129265   0.007387  -0.003963   0.002423
    10  H   -0.000157   0.000256   0.002939  -0.003371   0.002712  -0.000648
    11  H    0.000478  -0.009015   0.016157  -0.074436   0.013591  -0.002359
    12  C    0.001422  -0.000315  -0.000667   0.000688  -0.000717  -0.009349
    13  H   -0.001445   0.000723   0.001770  -0.001020   0.002327  -0.010966
    14  H    0.000448  -0.000054  -0.000195   0.000259  -0.000528  -0.005846
    15  H    0.000084  -0.000071  -0.000444   0.000410  -0.000319  -0.001761
               7          8          9         10         11         12
     1  C    0.000431  -0.000301   0.000114  -0.000157   0.000478   0.001422
     2  C   -0.000131   0.001635  -0.002384   0.000256  -0.009015  -0.000315
     3  C    0.000354   0.001828  -0.129265   0.002939   0.016157  -0.000667
     4  C   -0.000432  -0.002539   0.007387  -0.003371  -0.074436   0.000688
     5  C    0.000232   0.000555  -0.003963   0.002712   0.013591  -0.000717
     6  C   -0.000205  -0.000458   0.002423  -0.000648  -0.002359  -0.009349
     7  H    0.003655   0.000240  -0.000006   0.000005   0.000085  -0.000038
     8  H    0.000240  -0.014912  -0.000024   0.000015   0.001368  -0.000007
     9  O   -0.000006  -0.000024   0.315773  -0.000439   0.003350   0.000005
    10  H    0.000005   0.000015  -0.000439   0.004652   0.000935   0.000076
    11  H    0.000085   0.001368   0.003350   0.000935   0.119090  -0.000067
    12  C   -0.000038  -0.000007   0.000005   0.000076  -0.000067  -0.023023
    13  H    0.000165   0.000020  -0.000056   0.000138   0.000085  -0.001887
    14  H   -0.000146  -0.000011   0.000002  -0.000027  -0.000047   0.005620
    15  H   -0.000023  -0.000003   0.000010  -0.000137  -0.000066   0.002303
              13         14         15
     1  C   -0.001445   0.000448   0.000084
     2  C    0.000723  -0.000054  -0.000071
     3  C    0.001770  -0.000195  -0.000444
     4  C   -0.001020   0.000259   0.000410
     5  C    0.002327  -0.000528  -0.000319
     6  C   -0.010966  -0.005846  -0.001761
     7  H    0.000165  -0.000146  -0.000023
     8  H    0.000020  -0.000011  -0.000003
     9  O   -0.000056   0.000002   0.000010
    10  H    0.000138  -0.000027  -0.000137
    11  H    0.000085  -0.000047  -0.000066
    12  C   -0.001887   0.005620   0.002303
    13  H    0.034936  -0.005658  -0.003720
    14  H   -0.005658   0.011368   0.001625
    15  H   -0.003720   0.001625   0.003812
 Mulliken charges and spin densities:
               1          2
     1  C   -0.086576  -0.107064
     2  C   -0.095343   0.262158
     3  C    0.215973   0.391374
     4  C   -0.160767  -0.008500
     5  C   -0.204263  -0.118140
     6  C   -0.011887   0.321588
     7  H    0.093171   0.004187
     8  H    0.112160  -0.012595
     9  O   -0.239698   0.192926
    10  H    0.130285   0.006949
    11  H    0.127929   0.069148
    12  C   -0.243795  -0.025955
    13  H    0.130850   0.015413
    14  H    0.118847   0.006810
    15  H    0.113113   0.001700
 Sum of Mulliken charges =  -0.00000   1.00000
 Mulliken charges and spin densities with hydrogens summed into heavy atoms:
               1          2
     1  C    0.006596  -0.102877
     2  C    0.016817   0.249563
     3  C    0.215973   0.391374
     4  C   -0.032838   0.060648
     5  C   -0.073978  -0.111191
     6  C   -0.011887   0.321588
     9  O   -0.239698   0.192926
    12  C    0.119015  -0.002032
 APT charges:
               1
     1  C   -0.515848
     2  C   -0.520725
     3  C   -0.604659
     4  C   -0.467300
     5  C   -0.486858
     6  C   -0.008821
     7  H    0.519289
     8  H    0.545023
     9  O    0.552254
    10  H    0.431842
    11  H    0.457542
    12  C   -1.083933
    13  H    0.338524
    14  H    0.478939
    15  H    0.364731
 Sum of APT charges =  -0.00000
 APT charges with hydrogens summed into heavy atoms:
               1
     1  C    0.003440
     2  C    0.024298
     3  C   -0.604659
     4  C   -0.009758
     5  C   -0.055016
     6  C   -0.008821
     9  O    0.552254
    12  C    0.098261
 Electronic spatial extent (au):  <R**2>=            924.2605
 Charge=              0.0000 electrons
 Dipole moment (field-independent basis, Debye):
    X=              2.2933    Y=              1.0435    Z=              1.0949  Tot=              2.7471
 Quadrupole moment (field-independent basis, Debye-Ang):
   XX=            -50.3736   YY=            -45.2582   ZZ=            -47.2247
   XY=             -4.1995   XZ=             -4.2359   YZ=             -2.8388
 Traceless Quadrupole moment (field-independent basis, Debye-Ang):
   XX=             -2.7547   YY=              2.3606   ZZ=              0.3941
   XY=             -4.1995   XZ=             -4.2359   YZ=             -2.8388
 Octapole moment (field-independent basis, Debye-Ang**2):
  XXX=             16.3318  YYY=             -0.3976  ZZZ=             -0.9455  XYY=             -0.0577
  XXY=              8.6113  XXZ=              3.6486  XZZ=             -3.3412  YZZ=             -2.6024
  YYZ=             -0.3950  XYZ=              0.4946
 Hexadecapole moment (field-independent basis, Debye-Ang**3):
 XXXX=           -796.6076 YYYY=           -325.2331 ZZZZ=           -124.4649 XXXY=            -11.0512
 XXXZ=            -13.5091 YYYX=             -0.8052 YYYZ=            -12.6250 ZZZX=             -1.6387
 ZZZY=              2.2139 XXYY=           -185.9974 XXZZ=           -146.0045 YYZZ=            -75.2824
 XXYZ=             -7.9207 YYXZ=             -4.0892 ZZXY=              0.2452
 N-N= 3.339769264446D+02 E-N=-1.473932104695D+03  KE= 3.448138495379D+02
  Exact polarizability:       0.000       0.000       0.000       0.000       0.000       0.000
 Approx polarizability:     182.872      19.350     130.404       4.586      -1.242      85.676
                          Isotropic Fermi Contact Couplings
        Atom                 a.u.       MegaHertz       Gauss      10(-4) cm-1
     1  C(13)             -0.01742     -19.58737      -6.98926      -6.53364
     2  C(13)              0.01735      19.50332       6.95927       6.50561
     3  C(13)              0.10263     115.37093      41.16722      38.48360
     4  C(13)              0.07212      81.07322      28.92894      27.04311
     5  C(13)             -0.02439     -27.41562      -9.78258      -9.14487
     6  C(13)              0.02815      31.65150      11.29404      10.55780
     7  H(1)               0.00093       4.16829       1.48735       1.39039
     8  H(1)              -0.00361     -16.14538      -5.76107      -5.38552
     9  O(17)              0.03650     -22.12557      -7.89495      -7.38030
    10  H(1)               0.00232      10.34997       3.69313       3.45238
    11  H(1)               0.02428     108.51514      38.72090      36.19676
    12  C(13)             -0.00909     -10.21342      -3.64440      -3.40683
    13  H(1)               0.00746      33.36655      11.90602      11.12988
    14  H(1)               0.00425      18.98647       6.77485       6.33321
    15  H(1)               0.00080       3.55667       1.26911       1.18638
 --------------------------------------------------------
       Center         ----  Spin Dipole Couplings  ----
                      3XX-RR        3YY-RR        3ZZ-RR
 --------------------------------------------------------
     1   Atom        0.028380      0.031174     -0.059554
     2   Atom       -0.104092     -0.070879      0.174972
     3   Atom        0.132107     -0.211949      0.079842
     4   Atom       -0.025529      0.025914     -0.000385
     5   Atom        0.054562      0.030620     -0.085182
     6   Atom       -0.095468     -0.134235      0.229703
     7   Atom        0.001033      0.003323     -0.004356
     8   Atom       -0.012319      0.016167     -0.003849
     9   Atom        0.156625     -0.508594      0.351969
    10   Atom        0.006047     -0.005494     -0.000553
    11   Atom       -0.001486     -0.004818      0.006304
    12   Atom        0.003222     -0.002812     -0.000410
    13   Atom        0.002665     -0.001285     -0.001379
    14   Atom        0.006421     -0.002914     -0.003507
    15   Atom        0.000913      0.002231     -0.003143
 --------------------------------------------------------
                        XY            XZ            YZ
 --------------------------------------------------------
     1   Atom       -0.015464     -0.038058     -0.036129
     2   Atom        0.048332      0.109796      0.138762
     3   Atom       -0.119331     -0.340353      0.130111
     4   Atom        0.047357      0.041955      0.065862
     5   Atom       -0.025883     -0.055238     -0.063529
     6   Atom        0.077493      0.206122      0.170010
     7   Atom       -0.000817     -0.000460     -0.001955
     8   Atom       -0.009169      0.008921     -0.002437
     9   Atom       -0.246241     -0.777208      0.376050
    10   Atom       -0.004897      0.002013     -0.002538
    11   Atom        0.001844     -0.005411      0.005949
    12   Atom       -0.002018      0.003419      0.003030
    13   Atom       -0.004172     -0.002893      0.002423
    14   Atom       -0.001464     -0.000502      0.000178
    15   Atom       -0.004163      0.001718     -0.001034
 --------------------------------------------------------


 ---------------------------------------------------------------------------------
              Anisotropic Spin Dipole Couplings in Principal Axis System
 ---------------------------------------------------------------------------------

       Atom             a.u.   MegaHertz   Gauss  10(-4) cm-1        Axes

              Baa    -0.0868   -11.648    -4.156    -3.885  0.3356  0.3158  0.8875
     1 C(13)  Bbb     0.0414     5.561     1.984     1.855  0.7306  0.5075 -0.4569
              Bcc     0.0454     6.087     2.172     2.031 -0.5946  0.8017 -0.0604
 
              Baa    -0.1421   -19.071    -6.805    -6.361  0.9481 -0.0256 -0.3171
     2 C(13)  Bbb    -0.1332   -17.878    -6.379    -5.964 -0.1016  0.9202 -0.3781
              Bcc     0.2754    36.949    13.184    12.325  0.3014  0.3907  0.8698
 
              Baa    -0.2630   -35.294   -12.594   -11.773 -0.1488  0.8665 -0.4765
     3 C(13)  Bbb    -0.2284   -30.643   -10.934   -10.221  0.6899  0.4362  0.5777
              Bcc     0.4914    65.937    23.528    21.994  0.7084 -0.2428 -0.6627
 
              Baa    -0.0570    -7.646    -2.728    -2.550 -0.6924 -0.1629  0.7029
     4 C(13)  Bbb    -0.0526    -7.052    -2.516    -2.352 -0.5838  0.6990 -0.4130
              Bcc     0.1095    14.698     5.245     4.903  0.4240  0.6963  0.5791
 
              Baa    -0.1331   -17.855    -6.371    -5.956  0.3091  0.3862  0.8691
     5 C(13)  Bbb     0.0586     7.859     2.804     2.622  0.0770  0.9007 -0.4276
              Bcc     0.0745     9.996     3.567     3.334  0.9479 -0.1991 -0.2487
 
              Baa    -0.2026   -27.181    -9.699    -9.067  0.3308  0.8138 -0.4778
     6 C(13)  Bbb    -0.1930   -25.892    -9.239    -8.637  0.8504 -0.4766 -0.2230
              Bcc     0.3955    53.073    18.938    17.703  0.4092  0.3325  0.8497
 
              Baa    -0.0049    -2.611    -0.932    -0.871  0.1080  0.2402  0.9647
     7 H(1)   Bbb     0.0009     0.500     0.179     0.167  0.9666  0.2014 -0.1583
              Bcc     0.0040     2.111     0.753     0.704 -0.2323  0.9496 -0.2105
 
              Baa    -0.0192   -10.253    -3.658    -3.420  0.8618  0.1909 -0.4700
     8 H(1)   Bbb    -0.0007    -0.383    -0.137    -0.128  0.3923  0.3366  0.8560
              Bcc     0.0199    10.636     3.795     3.548 -0.3217  0.9221 -0.2152
 
              Baa    -0.6574    47.569    16.974    15.867 -0.1750  0.8709 -0.4592
     9 O(17)  Bbb    -0.4993    36.126    12.891    12.050  0.7552  0.4180  0.5049
              Bcc     1.1567   -83.695   -29.864   -27.918 -0.6317  0.2585  0.7309
 
              Baa    -0.0077    -4.118    -1.470    -1.374  0.2930  0.9242  0.2450
    10 H(1)   Bbb    -0.0010    -0.517    -0.185    -0.172 -0.3573 -0.1319  0.9246
              Bcc     0.0087     4.636     1.654     1.546  0.8869 -0.3584  0.2916
 
              Baa    -0.0095    -5.069    -1.809    -1.691 -0.4764  0.7566 -0.4479
    11 H(1)   Bbb    -0.0010    -0.528    -0.188    -0.176  0.8050  0.5802  0.1239
              Bcc     0.0105     5.598     1.997     1.867 -0.3536  0.3015  0.8855
 
              Baa    -0.0063    -0.843    -0.301    -0.281  0.3645  0.7238 -0.5859
    12 C(13)  Bbb     0.0010     0.134     0.048     0.045 -0.3497  0.6895  0.6342
              Bcc     0.0053     0.709     0.253     0.236  0.8630 -0.0263  0.5045
 
              Baa    -0.0041    -2.201    -0.785    -0.734  0.3698  0.8546 -0.3647
    13 H(1)   Bbb    -0.0029    -1.525    -0.544    -0.509  0.5334  0.1261  0.8364
              Bcc     0.0070     3.726     1.329     1.243  0.7608 -0.5038 -0.4091
 
              Baa    -0.0036    -1.898    -0.677    -0.633  0.0142 -0.2366  0.9715
    14 H(1)   Bbb    -0.0031    -1.662    -0.593    -0.554  0.1595  0.9597  0.2314
              Bcc     0.0067     3.560     1.270     1.188  0.9871 -0.1517 -0.0513
 
              Baa    -0.0039    -2.055    -0.733    -0.686 -0.4600 -0.1666  0.8721
    15 H(1)   Bbb    -0.0023    -1.240    -0.443    -0.414  0.6079  0.6568  0.4462
              Bcc     0.0062     3.295     1.176     1.099 -0.6472  0.7354 -0.2009
 

 ---------------------------------------------------------------------------------

 Calling FoFJK, ICntrl=    100127 FMM=F ISym2X=0 I1Cent= 0 IOpClX= 1 NMat=1 NMatS=1 NMatT=0.
 ***** Axes restored to original set *****
 -------------------------------------------------------------------
 Center     Atomic                   Forces (Hartrees/Bohr)
 Number     Number              X              Y              Z
 -------------------------------------------------------------------
      1        6           0.002737078   -0.002400106    0.001773871
      2        6           0.000131832    0.000283035   -0.000504284
      3        6          -0.004274706   -0.002540255   -0.001513667
      4        6           0.002068984    0.000399543    0.000061129
      5        6          -0.000209974   -0.003705472    0.000442831
      6        6          -0.011250660    0.021284275   -0.005037189
      7        1          -0.000361596    0.000218967   -0.000359617
      8        1           0.000028304   -0.000159337    0.000097272
      9        8           0.003863600    0.000774774    0.000310583
     10        1          -0.000474049    0.000350013    0.000228450
     11        1          -0.000374347    0.000001793    0.000342694
     12        6           0.019219574   -0.032741763    0.013335751
     13        1           0.000776919    0.005061236   -0.016138126
     14        1          -0.015426098    0.000427623    0.001087386
     15        1           0.003545138    0.012745675    0.005872915
 -------------------------------------------------------------------
 Cartesian Forces:  Max     0.032741763 RMS     0.008217239
 FormGI is forming the generalized inverse of G from B-inverse, IUseBI=4.

 GradGradGradGradGradGradGradGradGradGradGradGradGradGradGradGradGradGrad
 Berny optimization.
 Internal  Forces:  Max     0.017118230 RMS     0.003913604
 Search for a saddle point.
 Step number   1 out of a maximum of   83
 All quantities printed in internal units (Hartrees-Bohrs-Radians)
 Swapping is turned off.
 Second derivative matrix not updated -- analytic derivatives used.
 ITU=  0
     Eigenvalues ---   -0.13850   0.00033   0.00929   0.00960   0.00992
     Eigenvalues ---    0.01547   0.01802   0.02107   0.03359   0.03648
     Eigenvalues ---    0.05025   0.05788   0.05859   0.07187   0.09036
     Eigenvalues ---    0.09683   0.09950   0.10814   0.12171   0.12371
     Eigenvalues ---    0.14528   0.17212   0.17684   0.19867   0.23114
     Eigenvalues ---    0.25596   0.28450   0.30563   0.32282   0.35768
     Eigenvalues ---    0.36238   0.36517   0.36792   0.37875   0.38142
     Eigenvalues ---    0.38816   0.40011   0.47778   0.89732
 Eigenvectors required to have negative eigenvalues:
                          A11       D9        D12       A7        R10
   1                    0.48324  -0.36208  -0.34211  -0.33029  -0.23184
                          D17       D20       R6        A13       D16
   1                   -0.22649  -0.17119   0.16866  -0.16538  -0.16342
 RFO step:  Lambda0=4.119602083D-05 Lambda=-4.36409447D-03.
 Linear search not attempted -- option 19 set.
 Iteration  1 RMS(Cart)=  0.01277420 RMS(Int)=  0.00032220
 Iteration  2 RMS(Cart)=  0.00025713 RMS(Int)=  0.00016214
 Iteration  3 RMS(Cart)=  0.00000016 RMS(Int)=  0.00016214
 Variable       Old X    -DE/DX   Delta X   Delta X   Delta X     New X
                                 (Linear)    (Quad)   (Total)
    R1        2.58727  -0.00001   0.00000  -0.00293  -0.00294   2.58433
    R2        2.68090   0.00211   0.00000   0.00876   0.00878   2.68969
    R3        2.04541   0.00043   0.00000   0.00198   0.00198   2.04738
    R4        2.83379  -0.00103   0.00000  -0.00225  -0.00228   2.83151
    R5        2.04160   0.00015   0.00000   0.00033   0.00033   2.04193
    R6        2.73672  -0.00002   0.00000  -0.00105  -0.00105   2.73567
    R7        2.24518   0.00367   0.00000   0.00489   0.00489   2.25007
    R8        2.93804   0.00076   0.00000  -0.00111  -0.00112   2.93692
    R9        2.07234   0.00020   0.00000  -0.00033  -0.00033   2.07201
   R10        2.64913   0.00119   0.00000   0.01111   0.01115   2.66028
   R11        2.04316   0.00016   0.00000   0.00152   0.00152   2.04467
   R12        2.91018  -0.01712   0.00000  -0.08877  -0.08877   2.82141
   R13        2.02201   0.01667   0.00000   0.04722   0.04722   2.06923
   R14        2.02201   0.01523   0.00000   0.04180   0.04180   2.06380
   R15        2.02201   0.01424   0.00000   0.03885   0.03885   2.06085
    A1        1.93075   0.00204   0.00000   0.01045   0.01046   1.94122
    A2        2.17612  -0.00069   0.00000  -0.00180  -0.00181   2.17431
    A3        2.17438  -0.00134   0.00000  -0.00887  -0.00888   2.16549
    A4        1.92747  -0.00004   0.00000   0.00052   0.00049   1.92796
    A5        2.21862   0.00012   0.00000  -0.00104  -0.00102   2.21760
    A6        2.13667  -0.00007   0.00000   0.00054   0.00056   2.13723
    A7        2.53552  -0.00168   0.00000  -0.00840  -0.00840   2.52713
    A8        1.89007  -0.00062   0.00000   0.00136   0.00129   1.89136
    A9        1.76403  -0.00066   0.00000  -0.00432  -0.00434   1.75969
   A10        2.09524   0.00040   0.00000   0.00131   0.00128   2.09652
   A11        1.27301   0.00142   0.00000  -0.01250  -0.01248   1.26054
   A12        2.11866  -0.00003   0.00000   0.00717   0.00713   2.12579
   A13        2.14599  -0.00031   0.00000   0.00051   0.00053   2.14652
   A14        1.88654   0.00229   0.00000   0.01170   0.01169   1.89823
   A15        2.13952  -0.00065   0.00000  -0.00239  -0.00246   2.13706
   A16        2.20473  -0.00156   0.00000  -0.01460  -0.01464   2.19009
   A17        1.90215  -0.00357   0.00000  -0.01917  -0.01912   1.88303
   A18        2.19572   0.00092   0.00000   0.00390   0.00385   2.19957
   A19        2.18128   0.00264   0.00000   0.01420   0.01414   2.19542
   A20        1.91063   0.00299   0.00000   0.03213   0.03166   1.94229
   A21        1.91063   0.00262   0.00000   0.03224   0.03165   1.94229
   A22        1.91063   0.00263   0.00000   0.03391   0.03328   1.94392
   A23        1.91063  -0.00306   0.00000  -0.03878  -0.03918   1.87145
   A24        1.91063  -0.00293   0.00000  -0.03593  -0.03641   1.87422
   A25        1.91063  -0.00226   0.00000  -0.02356  -0.02424   1.88639
    D1        0.05829  -0.00023   0.00000   0.00058   0.00060   0.05889
    D2       -3.05230  -0.00033   0.00000  -0.00037  -0.00035  -3.05265
    D3        3.13545  -0.00017   0.00000  -0.00335  -0.00334   3.13210
    D4        0.02486  -0.00028   0.00000  -0.00430  -0.00430   0.02056
    D5        0.04899  -0.00007   0.00000   0.00200   0.00194   0.05093
    D6        3.09773  -0.00007   0.00000  -0.00965  -0.00959   3.08814
    D7       -3.02825  -0.00015   0.00000   0.00561   0.00555  -3.02270
    D8        0.02050  -0.00015   0.00000  -0.00605  -0.00598   0.01452
    D9       -1.44553  -0.00082   0.00000   0.01161   0.01161  -1.43392
   D10       -0.12761   0.00042   0.00000  -0.00274  -0.00272  -0.13034
   D11        2.29667  -0.00040   0.00000  -0.00548  -0.00548   2.29119
   D12        1.66677  -0.00072   0.00000   0.01247   0.01248   1.67925
   D13        2.98469   0.00052   0.00000  -0.00187  -0.00186   2.98283
   D14       -0.87422  -0.00030   0.00000  -0.00461  -0.00461  -0.87883
   D15       -2.24674  -0.00050   0.00000  -0.02536  -0.02540  -2.27213
   D16        2.35532  -0.00037   0.00000  -0.01656  -0.01657   2.33876
   D17        0.28462  -0.00075   0.00000  -0.01045  -0.01041   0.27421
   D18        0.15449  -0.00015   0.00000   0.00525   0.00525   0.15974
   D19        2.97320  -0.00014   0.00000  -0.01308  -0.01312   2.96008
   D20        2.00336  -0.00046   0.00000   0.00637   0.00640   2.00975
   D21       -1.46112  -0.00046   0.00000  -0.01196  -0.01197  -1.47309
   D22       -2.24188   0.00031   0.00000   0.00776   0.00779  -2.23408
   D23        0.57684   0.00032   0.00000  -0.01057  -0.01058   0.56626
   D24       -0.13076   0.00025   0.00000  -0.00430  -0.00426  -0.13502
   D25        3.10273   0.00035   0.00000   0.00789   0.00791   3.11064
   D26       -2.93412  -0.00002   0.00000   0.01173   0.01170  -2.92242
   D27        0.29937   0.00009   0.00000   0.02392   0.02387   0.32324
   D28       -1.32886   0.00018   0.00000  -0.00276  -0.00268  -1.33155
   D29        0.76553  -0.00013   0.00000  -0.01084  -0.01090   0.75463
   D30        2.85993   0.00033   0.00000   0.00081   0.00094   2.86086
   D31        1.70553  -0.00015   0.00000  -0.01800  -0.01802   1.68751
   D32       -2.48326  -0.00045   0.00000  -0.02608  -0.02624  -2.50950
   D33       -0.38886  -0.00000   0.00000  -0.01443  -0.01440  -0.40326
         Item               Value     Threshold  Converged?
 Maximum Force            0.017118     0.000450     NO 
 RMS     Force            0.003914     0.000300     NO 
 Maximum Displacement     0.055691     0.001800     NO 
 RMS     Displacement     0.012766     0.001200     NO 
 Predicted change in Energy=-2.217237D-03
 GradGradGradGradGradGradGradGradGradGradGradGradGradGradGradGradGradGrad

                          Input orientation:                          
 ---------------------------------------------------------------------
 Center     Atomic      Atomic             Coordinates (Angstroms)
 Number     Number       Type             X           Y           Z
 ---------------------------------------------------------------------
      1          6           0       -1.744645   -0.311765   -0.413927
      2          6           0       -0.823959   -1.206820    0.056664
      3          6           0        1.228339   -0.014311   -0.215015
      4          6           0        0.282868   -0.493030    0.771194
      5          6           0       -0.071146    0.986544    0.453502
      6          6           0       -1.340316    1.027970   -0.154177
      7          1           0       -2.633500   -0.580131   -0.972260
      8          1           0       -0.835431   -2.279909   -0.069529
      9          8           0        2.378912    0.030923   -0.518106
     10          1           0        0.418651    1.818397    0.942205
     11          1           0        0.604283   -0.830039    1.763838
     12          6           0       -2.064019    2.262082   -0.581199
     13          1           0       -1.912004    2.463417   -1.646729
     14          1           0       -3.139988    2.166364   -0.420421
     15          1           0       -1.716148    3.137273   -0.031344
 ---------------------------------------------------------------------
                    Distance matrix (angstroms):
                    1          2          3          4          5
     1  C    0.000000
     2  C    1.367568   0.000000
     3  C    2.994441   2.389103   0.000000
     4  C    2.355457   1.498372   1.447652   0.000000
     5  C    2.288807   2.352670   1.771239   1.554153   0.000000
     6  C    1.423321   2.303338   2.772731   2.409249   1.407758
     7  H    1.083429   2.173905   3.975848   3.398885   3.324594
     8  H    2.195192   1.080544   3.068102   2.269438   3.395204
     9  O    4.139084   3.481487   1.190685   2.515994   2.803573
    10  H    3.325137   3.388245   2.313778   2.321718   1.081994
    11  H    3.244800   2.257495   2.229510   1.096459   2.339478
    12  C    2.598975   3.738704   4.019413   3.863611   2.582470
    13  H    3.041290   4.189992   4.248611   4.405042   3.159254
    14  H    2.843967   4.119463   4.886698   4.495361   3.401986
    15  H    3.470309   4.435639   4.316968   4.221283   2.750771
                    6          7          8          9         10
     6  C    0.000000
     7  H    2.219813   0.000000
     8  H    3.347258   2.633860   0.000000
     9  O    3.867713   5.069903   3.984115   0.000000
    10  H    2.218286   4.328248   4.403685   3.028233   0.000000
    11  H    3.303399   4.246401   2.745202   3.016261   2.779163
    12  C    1.493026   2.924964   4.732961   4.972092   2.946399
    13  H    2.148266   3.199789   5.113288   5.059919   3.542681
    14  H    2.146077   2.846803   5.020304   5.918438   3.826453
    15  H    2.146042   3.942835   5.488441   5.162932   2.691579
                   11         12         13         14         15
    11  H    0.000000
    12  C    4.709591   0.000000
    13  H    5.367543   1.094988   0.000000
    14  H    5.269628   1.092118   1.760687   0.000000
    15  H    4.934231   1.090557   1.761225   1.766740   0.000000
 Stoichiometry    C7H7O(2)
 Framework group  C1[X(C7H7O)]
 Deg. of freedom    39
 Full point group                 C1      NOp   1
 Largest Abelian subgroup         C1      NOp   1
 Largest concise Abelian subgroup C1      NOp   1
                         Standard orientation:                         
 ---------------------------------------------------------------------
 Center     Atomic      Atomic             Coordinates (Angstroms)
 Number     Number       Type             X           Y           Z
 ---------------------------------------------------------------------
      1          6           0        1.031468    1.185618   -0.373716
      2          6           0       -0.228573    1.624817   -0.074311
      3          6           0       -1.515736   -0.381980   -0.228559
      4          6           0       -0.974895    0.584348    0.703856
      5          6           0        0.019398   -0.607569    0.625701
      6          6           0        1.230879   -0.151055    0.072806
      7          1           0        1.762656    1.752832   -0.937143
      8          1           0       -0.675490    2.565839   -0.361225
      9          8           0       -2.495437   -0.972814   -0.558452
     10          1           0       -0.101825   -1.504452    1.218673
     11          1           0       -1.505405    0.859913    1.623011
     12          6           0        2.458893   -0.973509   -0.138564
     13          1           0        2.513803   -1.349137   -1.165641
     14          1           0        3.363536   -0.388515    0.040665
     15          1           0        2.477622   -1.837991    0.525993
 ---------------------------------------------------------------------
 Rotational constants (GHZ):           3.9400167           1.6986757           1.3443500
 Standard basis: 6-311G(d,p) (5D, 7F)
 There are   194 symmetry adapted cartesian basis functions of A   symmetry.
 There are   186 symmetry adapted basis functions of A   symmetry.
   186 basis functions,   312 primitive gaussians,   194 cartesian basis functions
    29 alpha electrons       28 beta electrons
       nuclear repulsion energy       334.5789881440 Hartrees.
 NAtoms=   15 NActive=   15 NUniq=   15 SFac= 1.00D+00 NAtFMM=   60 NAOKFM=F Big=F
 Integral buffers will be    131072 words long.
 Raffenetti 2 integral format.
 Two-electron integral symmetry is turned on.
 One-electron integrals computed using PRISM.
 NBasis=   186 RedAO= T EigKep=  4.89D-04  NBF=   186
 NBsUse=   186 1.00D-06 EigRej= -1.00D+00 NBFU=   186
 Initial guess from the checkpoint file:  "5-ts-6.chk"
 B after Tr=    -0.000000   -0.000000   -0.000000
         Rot=    0.999993    0.002408    0.000641    0.002620 Ang=   0.41 deg.
 Initial guess <Sx>= 0.0000 <Sy>= 0.0000 <Sz>= 0.5000 <S**2>= 0.7748 S= 0.5123
 ExpMin= 1.03D-01 ExpMax= 8.59D+03 ExpMxC= 1.30D+03 IAcc=3 IRadAn=         5 AccDes= 0.00D+00
 Harris functional with IExCor=  402 and IRadAn=       5 diagonalized for initial guess.
 HarFok:  IExCor=  402 AccDes= 0.00D+00 IRadAn=         5 IDoV= 1 UseB2=F ITyADJ=14
 ICtDFT=  3500011 ScaDFX=  1.000000  1.000000  1.000000  1.000000
 FoFCou: FMM=F IPFlag=           0 FMFlag=      100000 FMFlg1=           0
         NFxFlg=           0 DoJE=T BraDBF=F KetDBF=T FulRan=T
         wScrn=  0.000000 ICntrl=       500 IOpCl=  0 I1Cent=   200000004 NGrid=           0
         NMat0=    1 NMatS0=      1 NMatT0=    0 NMatD0=    1 NMtDS0=    0 NMtDT0=    0
 Petite list used in FoFCou.
 Requested convergence on RMS density matrix=1.00D-08 within 128 cycles.
 Requested convergence on MAX density matrix=1.00D-06.
 Requested convergence on             energy=1.00D-06.
 No special actions if energy rises.
 Integral accuracy reduced to 1.0D-05 until final iterations.
 Initial convergence to 1.0D-05 achieved.  Increase integral accuracy.
 SCF Done:  E(UB3LYP) =  -346.144746272     A.U. after   17 cycles
            NFock= 17  Conv=0.39D-08     -V/T= 2.0040
 <Sx>= 0.0000 <Sy>= 0.0000 <Sz>= 0.5000 <S**2>= 0.7756 S= 0.5127
 <L.S>=  0.00000000000    
 Annihilation of the first spin contaminant:
 S**2 before annihilation     0.7756,   after     0.7503
 Calling FoFJK, ICntrl=      2127 FMM=F ISym2X=0 I1Cent= 0 IOpClX= 1 NMat=1 NMatS=1 NMatT=0.
 ***** Axes restored to original set *****
 -------------------------------------------------------------------
 Center     Atomic                   Forces (Hartrees/Bohr)
 Number     Number              X              Y              Z
 -------------------------------------------------------------------
      1        6           0.000030495   -0.000242685    0.000089615
      2        6          -0.000079509    0.000068203   -0.000052071
      3        6          -0.000124569   -0.000157443   -0.000170669
      4        6           0.000120702   -0.000023281    0.000127737
      5        6           0.000376714   -0.000064625   -0.000310616
      6        6           0.000820434   -0.001628460    0.000874269
      7        1          -0.000004554    0.000016965   -0.000026247
      8        1          -0.000019440   -0.000008001    0.000020698
      9        8           0.000087212    0.000124799    0.000073053
     10        1          -0.000113509   -0.000002006    0.000141656
     11        1          -0.000020663   -0.000012283    0.000000224
     12        6          -0.000200587    0.000477370    0.000319477
     13        1           0.000114224    0.000486701   -0.001451441
     14        1          -0.001185112    0.000037813   -0.000031091
     15        1           0.000198162    0.000926934    0.000395406
 -------------------------------------------------------------------
 Cartesian Forces:  Max     0.001628460 RMS     0.000465874

 GradGradGradGradGradGradGradGradGradGradGradGradGradGradGradGradGradGrad
 Berny optimization.
 FormGI is forming the generalized inverse of G from B-inverse, IUseBI=4.
 Internal  Forces:  Max     0.002334068 RMS     0.000380327
 Search for a saddle point.
 Step number   2 out of a maximum of   83
 All quantities printed in internal units (Hartrees-Bohrs-Radians)
 Swapping is turned off.
 Update second derivatives using D2CorX and points    1    2
 ITU=  0  0
     Eigenvalues ---   -0.13863   0.00016   0.00927   0.00956   0.00960
     Eigenvalues ---    0.01546   0.01798   0.02106   0.03356   0.03648
     Eigenvalues ---    0.05025   0.05779   0.05855   0.07187   0.09035
     Eigenvalues ---    0.09683   0.09949   0.10817   0.12241   0.12532
     Eigenvalues ---    0.14521   0.17214   0.17725   0.19984   0.23122
     Eigenvalues ---    0.26385   0.28719   0.30667   0.32294   0.35772
     Eigenvalues ---    0.36238   0.36516   0.36789   0.37789   0.38028
     Eigenvalues ---    0.38182   0.40013   0.47774   0.89730
 Eigenvectors required to have negative eigenvalues:
                          A11       D9        D12       A7        R10
   1                   -0.48251   0.36270   0.34236   0.32992   0.23214
                          D17       D20       R6        A13       D16
   1                    0.22740   0.17274  -0.16853   0.16582   0.16269
 RFO step:  Lambda0=4.621242282D-08 Lambda=-1.44927884D-04.
 Linear search not attempted -- option 19 set.
 Iteration  1 RMS(Cart)=  0.07359397 RMS(Int)=  0.01354962
 Iteration  2 RMS(Cart)=  0.01705795 RMS(Int)=  0.00032405
 Iteration  3 RMS(Cart)=  0.00034770 RMS(Int)=  0.00001677
 Iteration  4 RMS(Cart)=  0.00000013 RMS(Int)=  0.00001677
 Variable       Old X    -DE/DX   Delta X   Delta X   Delta X     New X
                                 (Linear)    (Quad)   (Total)
    R1        2.58433  -0.00004   0.00000  -0.00037  -0.00037   2.58396
    R2        2.68969   0.00018   0.00000   0.00025   0.00026   2.68995
    R3        2.04738   0.00001   0.00000  -0.00006  -0.00006   2.04732
    R4        2.83151   0.00005   0.00000  -0.00053  -0.00054   2.83097
    R5        2.04193   0.00001   0.00000   0.00001   0.00001   2.04194
    R6        2.73567   0.00003   0.00000   0.00230   0.00230   2.73797
    R7        2.25007   0.00007   0.00000   0.00055   0.00055   2.25062
    R8        2.93692   0.00003   0.00000  -0.00039  -0.00039   2.93653
    R9        2.07201  -0.00000   0.00000  -0.00047  -0.00047   2.07153
   R10        2.66028   0.00016   0.00000  -0.00044  -0.00042   2.65985
   R11        2.04467   0.00001   0.00000  -0.00002  -0.00002   2.04465
   R12        2.82141   0.00233   0.00000   0.01404   0.01404   2.83545
   R13        2.06923   0.00152   0.00000   0.00758   0.00758   2.07681
   R14        2.06380   0.00116   0.00000   0.00368   0.00368   2.06748
   R15        2.06085   0.00101   0.00000   0.00541   0.00541   2.06626
    A1        1.94122   0.00004   0.00000  -0.00040  -0.00038   1.94083
    A2        2.17431  -0.00000   0.00000   0.00140   0.00139   2.17570
    A3        2.16549  -0.00004   0.00000  -0.00103  -0.00104   2.16445
    A4        1.92796   0.00003   0.00000  -0.00010  -0.00011   1.92785
    A5        2.21760  -0.00002   0.00000  -0.00025  -0.00025   2.21735
    A6        2.13723  -0.00001   0.00000   0.00040   0.00040   2.13763
    A7        2.52713  -0.00004   0.00000  -0.00781  -0.00781   2.51931
    A8        1.89136   0.00002   0.00000   0.00074   0.00074   1.89210
    A9        1.75969  -0.00001   0.00000   0.00074   0.00074   1.76043
   A10        2.09652  -0.00001   0.00000   0.00030   0.00030   2.09682
   A11        1.26054  -0.00004   0.00000   0.00096   0.00096   1.26150
   A12        2.12579   0.00002   0.00000  -0.00116  -0.00116   2.12463
   A13        2.14652   0.00000   0.00000  -0.00123  -0.00123   2.14530
   A14        1.89823   0.00004   0.00000  -0.00075  -0.00074   1.89749
   A15        2.13706  -0.00001   0.00000  -0.00129  -0.00131   2.13574
   A16        2.19009  -0.00006   0.00000  -0.00001  -0.00003   2.19006
   A17        1.88303  -0.00011   0.00000   0.00064   0.00061   1.88364
   A18        2.19957   0.00006   0.00000   0.00021   0.00012   2.19969
   A19        2.19542   0.00005   0.00000  -0.00290  -0.00298   2.19244
   A20        1.94229   0.00021   0.00000  -0.00128  -0.00128   1.94101
   A21        1.94229   0.00021   0.00000   0.00196   0.00196   1.94424
   A22        1.94392   0.00021   0.00000   0.00318   0.00317   1.94709
   A23        1.87145  -0.00026   0.00000  -0.00002  -0.00002   1.87143
   A24        1.87422  -0.00024   0.00000  -0.00493  -0.00493   1.86929
   A25        1.88639  -0.00016   0.00000   0.00080   0.00079   1.88718
    D1        0.05889  -0.00000   0.00000  -0.00136  -0.00136   0.05753
    D2       -3.05265  -0.00001   0.00000  -0.00306  -0.00306  -3.05571
    D3        3.13210  -0.00002   0.00000  -0.00190  -0.00191   3.13019
    D4        0.02056  -0.00002   0.00000  -0.00360  -0.00360   0.01696
    D5        0.05093   0.00001   0.00000   0.00092   0.00093   0.05185
    D6        3.08814  -0.00004   0.00000  -0.01987  -0.01989   3.06825
    D7       -3.02270   0.00002   0.00000   0.00135   0.00136  -3.02134
    D8        0.01452  -0.00003   0.00000  -0.01944  -0.01946  -0.00495
    D9       -1.43392   0.00004   0.00000  -0.00019  -0.00019  -1.43410
   D10       -0.13034  -0.00001   0.00000   0.00113   0.00113  -0.12920
   D11        2.29119  -0.00002   0.00000   0.00039   0.00040   2.29158
   D12        1.67925   0.00004   0.00000   0.00141   0.00141   1.68066
   D13        2.98283  -0.00000   0.00000   0.00272   0.00272   2.98556
   D14       -0.87883  -0.00002   0.00000   0.00199   0.00199  -0.87684
   D15       -2.27213  -0.00009   0.00000  -0.01913  -0.01913  -2.29126
   D16        2.33876  -0.00006   0.00000  -0.02002  -0.02002   2.31874
   D17        0.27421  -0.00004   0.00000  -0.01912  -0.01912   0.25508
   D18        0.15974   0.00001   0.00000  -0.00063  -0.00063   0.15911
   D19        2.96008  -0.00006   0.00000  -0.00644  -0.00644   2.95364
   D20        2.00975   0.00003   0.00000   0.00005   0.00005   2.00980
   D21       -1.47309  -0.00004   0.00000  -0.00577  -0.00577  -1.47885
   D22       -2.23408   0.00003   0.00000  -0.00075  -0.00075  -2.23484
   D23        0.56626  -0.00004   0.00000  -0.00657  -0.00657   0.55970
   D24       -0.13502  -0.00001   0.00000  -0.00008  -0.00008  -0.13510
   D25        3.11064   0.00004   0.00000   0.02041   0.02039   3.13103
   D26       -2.92242   0.00005   0.00000   0.00627   0.00628  -2.91614
   D27        0.32324   0.00010   0.00000   0.02677   0.02676   0.34999
   D28       -1.33155  -0.00002   0.00000  -0.22889  -0.22890  -1.56045
   D29        0.75463  -0.00006   0.00000  -0.22847  -0.22848   0.52615
   D30        2.86086   0.00001   0.00000  -0.22392  -0.22392   2.63694
   D31        1.68751  -0.00008   0.00000  -0.25305  -0.25304   1.43447
   D32       -2.50950  -0.00013   0.00000  -0.25262  -0.25262  -2.76212
   D33       -0.40326  -0.00005   0.00000  -0.24808  -0.24806  -0.65133
         Item               Value     Threshold  Converged?
 Maximum Force            0.002334     0.000450     NO 
 RMS     Force            0.000380     0.000300     NO 
 Maximum Displacement     0.404779     0.001800     NO 
 RMS     Displacement     0.088299     0.001200     NO 
 Predicted change in Energy=-9.764762D-05
 GradGradGradGradGradGradGradGradGradGradGradGradGradGradGradGradGradGrad

                          Input orientation:                          
 ---------------------------------------------------------------------
 Center     Atomic      Atomic             Coordinates (Angstroms)
 Number     Number       Type             X           Y           Z
 ---------------------------------------------------------------------
      1          6           0       -1.759818   -0.314064   -0.374787
      2          6           0       -0.831847   -1.207842    0.083181
      3          6           0        1.219444   -0.027090   -0.252137
      4          6           0        0.294848   -0.491138    0.762261
      5          6           0       -0.060629    0.986584    0.438662
      6          6           0       -1.343897    1.026560   -0.138207
      7          1           0       -2.662695   -0.583036   -0.909775
      8          1           0       -0.851923   -2.282315   -0.029488
      9          8           0        2.366747    0.016389   -0.568722
     10          1           0        0.441539    1.820110    0.911685
     11          1           0        0.639415   -0.818345    1.750129
     12          6           0       -2.063593    2.265584   -0.583427
     13          1           0       -1.733949    2.579117   -1.583844
     14          1           0       -3.144272    2.102832   -0.634621
     15          1           0       -1.877471    3.103621    0.093783
 ---------------------------------------------------------------------
                    Distance matrix (angstroms):
                    1          2          3          4          5
     1  C    0.000000
     2  C    1.367371   0.000000
     3  C    2.995563   2.390483   0.000000
     4  C    2.354971   1.498084   1.448869   0.000000
     5  C    2.289242   2.353009   1.772943   1.553945   0.000000
     6  C    1.423458   2.302989   2.773783   2.408264   1.407533
     7  H    1.083395   2.174476   3.976501   3.398707   3.324565
     8  H    2.194884   1.080550   3.070207   2.269419   3.395734
     9  O    4.144316   3.486363   1.190975   2.514333   2.801475
    10  H    3.325008   3.387687   2.317707   2.320714   1.081983
    11  H    3.244362   2.257219   2.229706   1.096209   2.338328
    12  C    2.605838   3.745164   4.018014   3.869449   2.586961
    13  H    3.135759   4.234834   4.157918   4.364252   3.070291
    14  H    2.797429   4.101598   4.870819   4.528521   3.450622
    15  H    3.451662   4.436458   4.417227   4.253014   2.810996
                    6          7          8          9         10
     6  C    0.000000
     7  H    2.219311   0.000000
     8  H    3.347015   2.634644   0.000000
     9  O    3.869712   5.076506   3.991823   0.000000
    10  H    2.218056   4.327712   4.403264   3.025135   0.000000
    11  H    3.301971   4.246691   2.744874   3.009573   2.775534
    12  C    1.500455   2.929174   4.739026   4.968603   2.951185
    13  H    2.156952   3.363948   5.179528   4.941028   3.396542
    14  H    2.155490   2.742537   4.985033   5.893125   3.915231
    15  H    2.157013   3.900659   5.484090   5.289925   2.773837
                   11         12         13         14         15
    11  H    0.000000
    12  C    4.718300   0.000000
    13  H    5.318927   1.099001   0.000000
    14  H    5.341965   1.094064   1.765469   0.000000
    15  H    4.945707   1.093417   1.763558   1.771140   0.000000
 Stoichiometry    C7H7O(2)
 Framework group  C1[X(C7H7O)]
 Deg. of freedom    39
 Full point group                 C1      NOp   1
 Largest Abelian subgroup         C1      NOp   1
 Largest concise Abelian subgroup C1      NOp   1
                         Standard orientation:                         
 ---------------------------------------------------------------------
 Center     Atomic      Atomic             Coordinates (Angstroms)
 Number     Number       Type             X           Y           Z
 ---------------------------------------------------------------------
      1          6           0        1.032867    1.189397   -0.370060
      2          6           0       -0.229221    1.627560   -0.078770
      3          6           0       -1.513626   -0.382446   -0.235576
      4          6           0       -0.978224    0.588047    0.697544
      5          6           0        0.018060   -0.602571    0.629763
      6          6           0        1.231642   -0.145462    0.082571
      7          1           0        1.766827    1.754409   -0.932028
      8          1           0       -0.675053    2.567992   -0.369305
      9          8           0       -2.492803   -0.981156   -0.553666
     10          1           0       -0.103798   -1.494719    1.229688
     11          1           0       -1.514485    0.864694    1.612729
     12          6           0        2.458618   -0.979722   -0.140821
     13          1           0        2.387403   -1.548557   -1.078454
     14          1           0        3.357046   -0.358794   -0.206022
     15          1           0        2.603790   -1.704601    0.664808
 ---------------------------------------------------------------------
 Rotational constants (GHZ):           3.9228421           1.6999257           1.3424851
 Standard basis: 6-311G(d,p) (5D, 7F)
 There are   194 symmetry adapted cartesian basis functions of A   symmetry.
 There are   186 symmetry adapted basis functions of A   symmetry.
   186 basis functions,   312 primitive gaussians,   194 cartesian basis functions
    29 alpha electrons       28 beta electrons
       nuclear repulsion energy       334.3662954585 Hartrees.
 NAtoms=   15 NActive=   15 NUniq=   15 SFac= 1.00D+00 NAtFMM=   60 NAOKFM=F Big=F
 Integral buffers will be    131072 words long.
 Raffenetti 2 integral format.
 Two-electron integral symmetry is turned on.
 One-electron integrals computed using PRISM.
 NBasis=   186 RedAO= T EigKep=  4.95D-04  NBF=   186
 NBsUse=   186 1.00D-06 EigRej= -1.00D+00 NBFU=   186
 Initial guess from the checkpoint file:  "5-ts-6.chk"
 B after Tr=    -0.000000    0.000000    0.000000
         Rot=    0.999987    0.005056   -0.000962   -0.000293 Ang=   0.59 deg.
 Initial guess <Sx>= 0.0000 <Sy>= 0.0000 <Sz>= 0.5000 <S**2>= 0.7757 S= 0.5127
 ExpMin= 1.03D-01 ExpMax= 8.59D+03 ExpMxC= 1.30D+03 IAcc=3 IRadAn=         5 AccDes= 0.00D+00
 Harris functional with IExCor=  402 and IRadAn=       5 diagonalized for initial guess.
 HarFok:  IExCor=  402 AccDes= 0.00D+00 IRadAn=         5 IDoV= 1 UseB2=F ITyADJ=14
 ICtDFT=  3500011 ScaDFX=  1.000000  1.000000  1.000000  1.000000
 FoFCou: FMM=F IPFlag=           0 FMFlag=      100000 FMFlg1=           0
         NFxFlg=           0 DoJE=T BraDBF=F KetDBF=T FulRan=T
         wScrn=  0.000000 ICntrl=       500 IOpCl=  0 I1Cent=   200000004 NGrid=           0
         NMat0=    1 NMatS0=      1 NMatT0=    0 NMatD0=    1 NMtDS0=    0 NMtDT0=    0
[...]
 ! D29   D(1,6,12,14)           36.695          -DE/DX =    0.0                 !
 ! D30   D(1,6,12,15)          157.4975         -DE/DX =    0.0                 !
 ! D31   D(5,6,12,13)           89.5609         -DE/DX =    0.0                 !
 ! D32   D(5,6,12,14)         -150.871          -DE/DX =    0.0                 !
 ! D33   D(5,6,12,15)          -30.0686         -DE/DX =    0.0                 !
 --------------------------------------------------------------------------------
 GradGradGradGradGradGradGradGradGradGradGradGradGradGradGradGradGradGrad


 ----------------------------------------------------------------------

 Electric dipole moment (input orientation):
 (Debye = 10**-18 statcoulomb cm , SI units = C m)
                  (au)            (Debye)         (10**-30 SI)
   Tot        0.108535D+01      0.275868D+01      0.920196D+01
   x         -0.100701D+01     -0.255956D+01     -0.853776D+01
   y          0.993290D-01      0.252469D+00      0.842146D+00
   z          0.392492D+00      0.997615D+00      0.332768D+01

 Dipole polarizability, Alpha (input orientation).
 (esu units = cm**3 , SI units = C**2 m**2 J**-1)
 Alpha(0;0):
               (au)            (10**-24 esu)      (10**-40 SI)
   iso        0.810787D+02      0.120146D+02      0.133681D+02
   aniso      0.479481D+02      0.710518D+01      0.790557D+01
   xx         0.105596D+03      0.156476D+02      0.174103D+02
   yx        -0.959609D+01     -0.142199D+01     -0.158218D+01
   yy         0.819730D+02      0.121472D+02      0.135155D+02
   zx         0.586003D+01      0.868367D+00      0.966189D+00
   zy        -0.401436D+01     -0.594867D+00     -0.661879D+00
   zz         0.556676D+02      0.824908D+01      0.917834D+01

 ----------------------------------------------------------------------

 Dipole orientation:
     6         -1.94697344         -0.72581148          2.74768300
     6         -0.59490683         -2.37700649          1.29031905
     6          0.43937113          0.14416759         -2.30998625
     6          1.48777640         -1.02198786         -0.06713188
     6          0.85258306          1.76840264          0.59090175
     6         -1.06945865          1.79675992          2.42959723
     1         -3.56031244         -1.24142158          3.89785445
     1         -0.94156480         -4.37495015          1.05049970
     8          0.69905830          0.41471023         -4.52881202
     1          2.13780379          3.30793774          0.19265073
     1          3.41668624         -1.77726884         -0.03051380
     6         -2.18821528          4.10905102          3.61295665
     1         -3.81148661          4.80143671          2.52337444
     1         -2.85645973          3.72379839          5.52958870
     1         -0.81636324          5.64873453          3.70965740

 Electric dipole moment (dipole orientation):
 (Debye = 10**-18 statcoulomb cm , SI units = C m)
                  (au)            (Debye)         (10**-30 SI)
   Tot        0.108535D+01      0.275868D+01      0.920196D+01
   x          0.000000D+00      0.000000D+00      0.000000D+00
   y          0.000000D+00      0.000000D+00      0.000000D+00
   z          0.108535D+01      0.275868D+01      0.920196D+01

 Dipole polarizability, Alpha (dipole orientation).
 (esu units = cm**3 , SI units = C**2 m**2 J**-1)
 Alpha(0;0):
               (au)            (10**-24 esu)      (10**-40 SI)
   iso        0.810787D+02      0.120146D+02      0.133681D+02
   aniso      0.479481D+02      0.710518D+01      0.790557D+01
   xx         0.656177D+02      0.972355D+01      0.108189D+02
   yx        -0.430637D+01     -0.638138D+00     -0.710024D+00
   yy         0.813185D+02      0.120502D+02      0.134076D+02
   zx        -0.213513D+02     -0.316394D+01     -0.352036D+01
   zy         0.751830D+01      0.111410D+01      0.123960D+01
   zz         0.962999D+02      0.142702D+02      0.158777D+02

 ----------------------------------------------------------------------
 Unable to Open any file for archive entry.
 1\1\GINC-F0602\Freq\UB3LYP\6-311G(d,p)\C7H7O1(2)\SCG3027\25-Jul-2022\0
 \\#N Geom=AllCheck Guess=TCheck SCRF=Check GenChk UB3LYP/6-311G(d,p) F
 req\\Title Card Required\\0,2\C,-1.7519327768,-0.3129019987,-0.3949656
 608\C,-0.8277443923,-1.2072630347,0.0699509906\C,1.2244277135,-0.02155
 08958,-0.2333100637\C,0.2887863716,-0.4916406363,0.7671176046\C,-0.065
 8344083,0.9867943352,0.4460377082\C,-1.341731703,1.0273275029,-0.14715
 94325\H,-2.6476488653,-0.5816109039,-0.9420111841\H,-0.8433963789,-2.2
 810798806,-0.0493855671\O,2.3732975873,0.0218469187,-0.543516879\H,0.4
 306339623,1.8195951894,0.9262867946\H,0.6212883081,-0.823432281,1.7577
 611059\C,-2.0641660267,2.2638029934,-0.5819766584\H,-1.8222745349,2.52
 16083357,-1.6210121708\H,-3.1479634434,2.1319592344,-0.52463781\H,-1.7
 938445232,3.1235109112,0.0355161424\\Version=ES64L-G16RevC.01\State=2-
 A\HF=-346.1447837\S2=0.775758\S2-1=0.\S2A=0.750326\RMSD=5.242e-09\RMSF
 =3.104e-06\ZeroPoint=0.1150022\Thermal=0.1589032\ETot=-345.9858804\HTo
 t=-345.9832737\GTot=-346.1529478\Dipole=-1.0070069,0.099329,0.3924919\
 DipoleDeriv=0.0765722,0.0123656,0.1064941,0.2821466,0.0199121,-0.00762
 41,0.104502,0.0868714,-0.0487074,-0.0604815,0.1256262,0.0929792,-0.282
 4054,-0.0261917,0.069272,0.0434216,0.1183657,-0.2158502,2.1236973,-0.2
 280835,-0.5153522,0.3421594,0.2061358,-0.1088239,0.3319614,-0.1239554,
 -0.0330616,-0.2172075,-0.0048907,0.026374,-0.1421963,-0.0588686,-0.050
 053,-0.0595535,-0.0197087,0.3378374,0.1732414,-0.0190974,-0.1137496,0.
 0396129,-0.1521944,0.1070687,-0.1604586,0.0841102,0.0019983,-0.3032119
 ,-0.0247678,0.1886387,-0.1683123,0.1427959,-0.0673665,0.0743168,-0.270
 0401,-0.0204374,-0.0285568,-0.0307904,-0.0903964,-0.0313621,0.089607,-
 0.0193623,-0.0993984,-0.0347357,0.0841482,0.0499681,-0.0069319,-0.0316
 028,-0.0077153,-0.0489109,-0.0127735,0.0177895,-0.0447421,0.1359062,-2
 .0679159,0.1566315,0.4882584,-0.0993692,-0.2222182,0.0129833,0.0549818
 ,0.0310941,-0.2595934,0.0758056,0.0043191,-0.0383693,-0.0232536,-0.004
 1852,-0.0391771,-0.0438001,-0.0779273,0.0900197,0.1268783,0.0029401,-0
 .0854966,-0.031004,0.0599698,0.0993175,-0.1269769,0.1298844,-0.1527566
 ,0.1524832,-0.0158345,-0.0184661,0.0101099,0.0838271,0.0103389,-0.1257
 612,0.1166308,0.1119916,0.0228297,0.031668,0.0483743,0.104632,-0.02867
 04,0.0464994,-0.0157906,0.111059,-0.1152721,-0.1493064,0.0352321,-0.00
 30782,-0.0221675,0.0184172,0.0165805,0.0214459,0.006313,0.0785051,0.02
 52041,-0.0383864,-0.0546073,0.0291248,-0.0794254,-0.0568798,-0.0166797
 ,-0.1132194,0.0052722\Polar=105.5955235,-9.5960893,81.9730435,5.860033
 5,-4.0143602,55.6675648\Quadrupole=-4.0465326,3.6383374,0.4081953,0.13
 7957,3.6603842,-0.0762654\PG=C01 [X(C7H7O1)]\NImag=1\\0.64392272,0.003
 91605,0.55418424,0.29444245,0.01184718,0.29478280,-0.22936460,0.108385
 29,-0.09949943,0.42499940,0.13835940,-0.20990270,0.06925855,-0.0877413
 6,0.77076318,-0.09642114,0.05884614,-0.10624004,0.18228059,-0.00140891
 ,0.22144353,-0.01602669,0.01040681,-0.00405993,-0.01723169,0.01381977,
 0.01476499,0.91276025,-0.00134237,-0.02546175,0.00206873,-0.02285377,0
 .00132711,-0.00873663,0.08353235,0.07239879,0.00230054,-0.02766750,0.0
 0107195,0.01264950,0.01954849,0.00971863,-0.29091841,-0.10463502,0.164
 65307,-0.03259394,0.01326563,-0.02110859,-0.11808220,-0.04584338,-0.05
 102435,-0.13174439,-0.01877226,0.04951961,0.43240082,0.00084291,0.0113
 9426,0.00278113,-0.05770727,-0.10467513,-0.02308902,-0.06823749,-0.006
 78975,0.07487669,0.03930104,0.35399548,-0.01931592,-0.00781908,-0.0048
 4230,-0.07730623,-0.02516207,-0.10037785,0.12674385,0.03799081,-0.1428
 5320,0.08300251,-0.11113590,0.54180960,-0.01308612,-0.08032340,-0.0111
 2951,-0.01109795,-0.00137858,-0.01736987,0.02149387,-0.09340903,-0.102
 51955,-0.04951332,0.08665845,-0.04041017,0.35499877,-0.02650738,0.0023
 2046,-0.01257754,0.00145411,-0.05209531,-0.00630569,-0.00290102,-0.002
 66595,-0.00670077,-0.00507217,-0.15114575,0.03338024,0.12623738,0.5300
 3190,-0.01993665,-0.01039279,-0.00073404,-0.00659253,-0.00872275,0.004
 31223,-0.01138204,0.01642549,0.02875423,-0.00822593,-0.00996882,-0.058
 25330,0.29087197,0.09946352,0.24406512,-0.11719587,-0.02175318,-0.0346
 1433,0.01927598,-0.00620372,0.00777435,-0.02621022,0.06797889,0.061148
 43,-0.01721482,-0.00096537,0.00069871,-0.18994237,-0.01682414,-0.14279
 824,0.49011047,-0.07532380,-0.22618352,-0.04104812,0.04637939,-0.07389
 983,0.01376356,-0.01485283,0.00488163,0.02004058,0.01736188,-0.0223229
 8,0.01353084,0.03573971,-0.09485802,-0.00596744,-0.06204336,0.61893272
 ,-0.03806069,-0.00070264,-0.08177698,0.01525325,-0.00830680,0.01774674
 ,-0.00999168,0.02757635,0.03460044,-0.01582221,0.00047085,-0.00477899,
 -0.06630655,-0.01113762,-0.12256634,0.16840272,-0.03764849,0.24097366,
 -0.24476760,-0.05586243,-0.12479024,-0.00942363,-0.00896961,-0.0080795
 5,0.00223186,0.00139597,0.00020459,0.00019865,0.00286849,-0.00457823,0
 .00211842,-0.00171106,-0.00175628,-0.00322609,0.00138862,-0.00283330,0
 .25501037,-0.05687998,-0.07713284,-0.03689652,0.01598043,0.01089413,0.
 01051682,0.00119083,-0.00064129,0.00036088,0.00320874,-0.00203056,0.00
 100790,-0.00242759,-0.00523241,-0.00108627,-0.02209712,0.00169259,-0.0
 1304539,0.06240012,0.06989787,-0.12614419,-0.03804679,-0.11410420,-0.0
 0537125,-0.00434407,-0.00079715,-0.00307708,-0.00155157,-0.00170226,-0
 .00379730,-0.00197555,0.00600929,-0.00397322,0.00178315,0.00185875,-0.
 00007769,0.00368431,0.00123147,0.13929043,0.03933579,0.11000718,0.0075
 3759,0.01836785,0.00369502,-0.04953737,-0.00161474,-0.01152380,0.00536
 341,0.00148271,-0.00352179,-0.00057092,-0.02116609,0.00181832,-0.00437
 528,-0.00196812,-0.00263322,-0.00128388,0.00338127,-0.00411484,-0.0005
 6013,-0.00090178,0.00181032,0.04297817,-0.00508721,-0.00969385,-0.0048
 3367,-0.00147940,-0.34508534,-0.03235223,0.00046168,0.00041516,-0.0010
 2218,0.00213494,-0.00513380,0.00128979,-0.00051733,-0.00010880,-0.0009
 9307,0.00254718,-0.00081178,0.00096023,0.00012592,0.00027876,0.0005623
 9,0.00283744,0.36128472,0.00116614,0.01216187,0.00456526,-0.01271884,-
 0.03601650,-0.03539097,-0.00392684,-0.00168081,-0.00121421,0.00380163,
 -0.01083729,-0.00060167,-0.00107319,-0.00153066,0.00005759,-0.00418791
 ,0.00027051,0.00306924,0.00191129,-0.00032767,-0.00280215,0.01352030,0
 .03617750,0.02936258,0.00016266,0.01268453,0.00078834,-0.00146036,-0.0
 1052186,-0.00184253,-0.76436749,-0.02037825,0.24982965,-0.01397027,-0.
 01067237,-0.00301553,0.00443900,0.00615786,-0.01321062,-0.02522713,-0.
 00360798,0.00060325,-0.00054759,-0.00020046,0.00005785,-0.00157437,-0.
 00030676,0.00225153,0.80068381,0.00129426,0.00449079,-0.00065305,0.002
 45803,0.00003911,0.00363757,-0.01822456,-0.03840724,0.01284068,-0.0212
 0738,0.00381653,0.00535315,0.01753622,-0.00087501,0.00407820,-0.009491
 93,0.00079885,-0.00634513,-0.00048605,0.00010673,0.00049300,-0.0003599
 7,-0.00017837,0.00060240,0.02750380,0.02927373,-0.00114144,0.01173950,
 0.00034692,0.00120799,-0.00756569,-0.00346474,0.19092356,0.02942267,-0
 .06220685,0.03286104,0.00175798,0.00169611,0.03904253,-0.00995579,-0.0
 1093047,-0.02092260,-0.00551859,-0.01053055,-0.00018187,-0.00015332,0.
 00097207,0.00095410,0.00034323,0.00014527,-0.24021289,-0.01658793,0.07
 909701,-0.00492126,0.00156723,-0.00433119,-0.00247672,0.00170975,-0.00
 040717,0.00129165,0.01292885,0.00785041,0.00097837,0.00438278,0.005493
 16,-0.09974714,-0.10304927,-0.07231987,-0.00734526,-0.02235610,-0.0100
 7634,-0.00025782,-0.00140079,0.00005860,0.00103809,0.00012730,-0.00093
 224,-0.00015081,-0.00154042,-0.00112000,0.11003215,0.00098324,0.000847
 12,-0.00047414,0.00360351,-0.00339496,0.00039792,-0.00237735,-0.005590
 67,-0.00011306,-0.00923181,-0.00821461,-0.01157949,-0.10164528,-0.2236
 3822,-0.10097632,0.00178367,0.00518282,0.00332463,0.00008173,0.0003635
 2,-0.00026523,-0.00122299,-0.00021340,-0.00035161,0.00055819,0.0008963
 6,-0.00020335,0.10838734,0.23221422,-0.00175435,-0.00351697,0.00244343
 ,-0.00155066,0.00371788,-0.00069208,-0.00257502,-0.01529683,-0.0116629
 7,0.00915927,0.00937132,0.00474141,-0.08723221,-0.09966440,-0.09176304
 ,0.00673653,-0.00681693,0.00048150,-0.00023487,-0.00033615,0.00053223,
 0.00018658,0.00026146,0.00169201,0.00265809,0.00236465,0.00252928,0.07
 398509,0.10979336,0.09263401,-0.00216808,-0.00494167,-0.00206541,-0.00
 567445,0.01094890,-0.01692909,0.01078534,-0.00876837,0.01500742,-0.067
 23439,0.02446452,-0.06869047,-0.00418711,-0.00494017,-0.00501147,0.000
 35516,0.00269204,-0.00015191,-0.00099163,0.00060432,0.00028971,0.00014
 938,-0.00050223,0.00028307,0.00245865,0.00206027,-0.00188425,0.0009900
 9,-0.00033403,-0.00017247,0.06581928,-0.00169119,-0.00187355,-0.001777
 51,-0.00532040,0.00849258,-0.01306454,0.00070164,0.00217423,0.01334030
 ,0.02397436,-0.06977753,0.06382660,0.01175736,-0.00133993,0.01731855,-
 0.00460733,-0.00293173,-0.00049903,-0.00076312,0.00048676,0.00074397,0
 .00031557,-0.00014399,0.00081814,-0.00404352,-0.00077556,-0.00328784,-
 0.00046327,0.00082664,-0.00050269,-0.02090126,0.06467968,0.00110627,-0
 .00073682,-0.00113132,-0.00503964,0.00045115,-0.00700454,-0.01173629,0
 .01544561,-0.01617428,-0.07320260,0.06485335,-0.24767210,0.00711277,0.
 00186873,0.00300760,-0.00267681,-0.00151617,0.00088265,-0.00001438,0.0
 0013998,-0.00004321,-0.00052497,-0.00025581,0.00058485,0.00512117,-0.0
 0396842,0.00171272,-0.00052043,0.00048387,0.00059883,0.07943386,-0.076
 92010,0.26582921,0.00727987,-0.00380146,0.00485548,0.00095213,-0.00409
 942,-0.00088621,-0.00151275,-0.00272384,-0.00086501,-0.00138642,-0.000
 04835,-0.00509080,-0.01076695,0.02585866,-0.00879100,-0.11484970,0.054
 17622,-0.02922933,0.00014441,-0.00033095,0.00031512,0.00105680,-0.0004
 3518,-0.00024591,0.00148561,0.00096509,0.00014446,0.00019064,-0.000503
 94,0.00139656,-0.00044669,0.00114609,0.00108098,0.54136449,0.01669339,
 -0.02378532,0.01059388,-0.00424542,-0.00175891,-0.00148328,-0.00013355
 ,0.00225350,0.00246242,-0.00090375,0.00029461,-0.00176956,0.00691079,0
 .00113622,-0.00039390,0.05184399,-0.18042951,0.03309715,0.00022877,0.0
 0164389,-0.00015887,0.00061242,-0.00037398,0.00057458,-0.00134164,-0.0
 0006398,-0.00087733,-0.00140053,0.00054343,0.00026026,-0.00023081,0.00
 025560,-0.00023446,0.03073419,0.51299936,0.00412420,-0.00343023,0.0053
 7513,-0.00162255,-0.00325778,0.00132261,0.00500926,0.00159673,-0.00317
 039,-0.00481756,0.00274736,0.00495324,-0.00859687,0.00946528,0.0012936
 1,-0.02775579,0.02826687,-0.07792331,0.00083295,0.00046397,-0.00110936
 ,0.00049127,-0.00025212,0.00060202,-0.00224107,-0.00173354,0.00072081,
 0.00197945,0.00024189,-0.00165008,0.00010240,0.00000631,-0.00051284,0.
 00346798,0.02876499,0.51461058,0.00084299,-0.00137953,-0.00010615,-0.0
 0088094,0.00039725,-0.00027579,0.00177323,0.00031535,-0.00092315,-0.00
 074254,0.00072243,0.00112204,-0.00142710,0.00053458,0.00066539,0.00345
 805,0.00488707,-0.01696407,0.00000100,-0.00003960,0.00007417,-0.000040
 03,0.00000816,0.00010188,-0.00086953,-0.00038004,0.00035638,0.00029717
 ,0.00007296,-0.00042696,0.00005613,-0.00014525,-0.00009568,-0.05682702
 ,-0.01245343,0.05357462,0.06019624,0.00070304,0.00091199,0.00012360,0.
 00146768,-0.00013434,-0.00043158,-0.00212796,-0.00281164,-0.00187611,0
 .00106162,0.00005502,-0.00077787,-0.00310297,0.00038824,0.00029391,-0.
 00246587,-0.01032422,0.02682068,-0.00031900,-0.00025942,0.00014471,0.0
 0002534,-0.00008734,-0.00010483,0.00250756,0.00077748,0.00051347,-0.00
 008491,0.00007856,0.00012970,-0.00015148,0.00016089,0.00039282,-0.0144
 3659,-0.05529260,0.05410588,0.01178232,0.06195093,0.00029738,-0.002831
 39,-0.00007843,-0.00164589,0.00095593,-0.00027781,0.00114072,0.0016267
 8,0.00052003,-0.00052386,0.00000582,0.00028521,0.00174205,0.00014808,0
 .00011083,-0.00306572,0.00797719,-0.00600761,0.00018757,0.00003484,-0.
 00017347,-0.00010220,-0.00000437,0.00007275,-0.00130967,-0.00034101,-0
 .00013591,0.00018388,0.00001642,-0.00021816,-0.00003986,-0.00005853,-0
 .00020696,0.05705253,0.04887330,-0.26860912,-0.05977998,-0.05966616,0.
 29413627,0.00170132,-0.00226987,-0.00052689,-0.00070382,0.00083863,-0.
 00028125,0.00067665,0.00007382,-0.00001915,-0.00008726,-0.00012881,-0.
 00051781,0.00020069,0.00256582,0.00057853,-0.01513067,-0.00038825,-0.0
 0112748,0.00001959,0.00065936,0.00039801,-0.00001985,-0.00001601,0.000
 12739,-0.00044511,0.00004649,0.00003488,-0.00000228,-0.00006446,0.0002
 0600,-0.00002671,0.00006793,0.00001079,-0.30087501,-0.03449659,0.01476
 804,-0.00743712,-0.00155648,0.00109133,0.32849584,-0.00016352,0.001720
 48,0.00036344,0.00025846,0.00026348,-0.00006724,-0.00080872,-0.0002292
 5,-0.00032462,0.00079528,-0.00002366,0.00142494,0.00051969,-0.00357361
 ,0.00042836,0.02985576,0.00381264,-0.00084378,-0.00035411,-0.00028702,
 -0.00030576,-0.00012217,0.00004638,0.00001877,0.00073385,-0.00003476,0
 .00011179,0.00022104,-0.00001992,0.00010590,0.00004371,-0.00029021,-0.
 00013030,-0.03530164,-0.05276238,0.00025846,-0.00658270,-0.00151154,-0
 .00021235,0.03567968,0.05557466,0.00070644,-0.00060686,0.00045338,-0.0
 0005556,-0.00003650,-0.00034217,-0.00048476,0.00018900,0.00010110,-0.0
 0012892,0.00013835,-0.00014916,-0.00000243,0.00161158,0.00016098,-0.01
 267343,-0.00015246,-0.00191979,-0.00001545,-0.00002571,0.00016518,0.00
 001496,0.00000112,0.00001137,-0.00000901,0.00010551,-0.00005295,0.0000
 4224,-0.00008841,0.00025611,-0.00012459,0.00003023,0.00006837,0.015829
 51,-0.00023450,-0.04480030,0.03142318,0.00450249,-0.00146868,-0.015278
 07,-0.00418022,0.04653526,-0.00132299,0.00173814,-0.00154961,0.0007062
 1,0.00029896,0.00022082,0.00071697,0.00053993,0.00025690,-0.00043736,-
 0.00031487,0.00004657,0.00089260,0.00016491,0.00054196,0.00442635,0.01
 256611,0.01041916,0.00005018,0.00023447,0.00014654,-0.00016162,0.00010
 151,-0.00007830,-0.00061708,-0.00017379,-0.00006187,0.00008312,-0.0000
 9079,-0.00038158,0.00011502,-0.00002761,-0.00005504,-0.06580941,-0.051
 81782,-0.03931631,0.00159946,0.00669771,0.00477170,-0.00636627,-0.0247
 7462,-0.01924412,0.06612481,0.00420316,-0.00183581,0.00122405,-0.00063
 929,-0.00083307,-0.00022288,-0.00044961,-0.00085287,-0.00113078,-0.000
 07275,0.00055787,0.00043970,-0.00255541,0.00165619,0.00049333,-0.00755
 746,-0.02353967,-0.01372102,-0.00002423,0.00021930,-0.00009949,0.00033
 327,-0.00019439,0.00022558,0.00092704,0.00013533,0.00026120,0.00097100
 ,0.00011908,0.00012944,-0.00004372,0.00005610,0.00012655,-0.05119887,-
 0.20465993,-0.11724406,0.00226039,0.00609799,0.00347545,-0.00101128,-0
 .00268528,-0.00125363,0.05485776,0.22575915,-0.00136904,0.00115637,-0.
 00013156,0.00001126,0.00088908,0.00004360,-0.00043034,-0.00044132,-0.0
 0043530,0.00030725,0.00000373,0.00003371,-0.00015574,0.00015188,0.0006
 2622,0.00401178,0.01113434,0.00651786,0.00005733,0.00001086,-0.0000443
 9,-0.00007006,0.00011774,-0.00015394,0.00053144,0.00015390,0.00010130,
 0.00011440,-0.00020648,0.00007751,-0.00004693,0.00002613,0.00006101,-0
 .03903433,-0.11947470,-0.13110261,-0.00874588,-0.02417070,-0.01794894,
 0.00053568,0.00335262,0.00098130,0.04428318,0.12729655,0.14137422\\-0.
 00000066,0.00000134,-0.00000070,0.00000075,-0.00000082,0.00000021,0.00
 000170,0.00000202,0.00000233,-0.00000077,0.00000016,-0.00000105,-0.000
 00398,0.00000118,0.00000222,-0.00000535,0.00001095,-0.00000563,0.00000
 024,-0.00000042,0.00000007,0.00000058,-0.00000002,-0.00000031,0.000000
 88,-0.00000123,-0.00000164,0.00000066,0.00000016,-0.00000113,0.0000004
 0,0.00000030,0.00000020,0.00000732,-0.00000910,-0.00000239,-0.00000164
 ,-0.00000257,0.00000704,0.00000065,-0.00000031,0.00000080,-0.00000078,
 -0.00000164,-0.00000002\\\@
 The archive entry for this job was punched.


 THE PROBLEM WITH THE LADDER OF SUCCESS IS YOU CAN'T
 CLIMB IT WHILE YOU'RE TWIDDLING YOUR THUMBS.
 Job cpu time:       0 days  0 hours 28 minutes 11.8 seconds.
 Elapsed time:       0 days  0 hours  1 minutes 25.8 seconds.
 File lengths (MBytes):  RWF=    112 Int=      0 D2E=      0 Chk=      5 Scr=      1
 Normal termination of Gaussian 16 at Mon Jul 25 17:04:13 2022.
