 Generated by Multiwfn (http://sobereva.com/multiwfn)
GAUSSIAN             37 MOL ORBITALS    316 PRIMITIVES       19 NUCLEI
  C    1    (CENTRE  1)  -1.62991764  2.31988961 -0.00012848  CHARGE =  6.0
  C    2    (CENTRE  2)   0.96394312  2.26096832 -0.00009446  CHARGE =  6.0
  C    3    (CENTRE  3)   2.21200742 -0.17714481 -0.00018517  CHARGE =  6.0
  C    4    (CENTRE  4)   0.61830911 -2.43589499  0.00002648  CHARGE =  6.0
  C    5    (CENTRE  5)  -1.99499506 -2.28185434  0.00002837  CHARGE =  6.0
  C    6    (CENTRE  6)  -3.14344622  0.09173410 -0.00009635  CHARGE =  6.0
  H    7    (CENTRE  7)  -3.10864254 -4.00027695  0.00010207  CHARGE =  1.0
  O    8    (CENTRE  8)   1.85092298 -4.63406581  0.00008884  CHARGE =  8.0
  O    9    (CENTRE  9)   4.56114491 -0.48986769  0.00031561  CHARGE =  8.0
  H   10    (CENTRE 10)   3.64052189 -4.15252177 -0.00012092  CHARGE =  1.0
  C   11    (CENTRE 11)   2.58510670  4.58501988  0.00000381  CHARGE =  6.0
  H   12    (CENTRE 12)   1.43968298  6.29973641 -0.00008690  CHARGE =  1.0
  H   13    (CENTRE 13)   3.82622212  4.61142709  1.65308331  CHARGE =  1.0
  H   14    (CENTRE 14)   3.82645456  4.61139119 -1.65289806  CHARGE =  1.0
  H   15    (CENTRE 15)  -2.58673160  4.13572919 -0.00014359  CHARGE =  1.0
  C   16    (CENTRE 16)  -5.97492117  0.33939553 -0.00006045  CHARGE =  6.0
  H   17    (CENTRE 17)  -6.62476223  1.38747156  1.66203116  CHARGE =  1.0
  H   18    (CENTRE 18)  -6.62478491  1.38772856 -1.66197631  CHARGE =  1.0
  H   19    (CENTRE 19)  -6.90102088 -1.50189705 -0.00018895  CHARGE =  1.0
CENTRE ASSIGNMENTS    1  1  1  1  1  1  1  1  1  1  1  1  1  1  1  1  1  1  1  1
CENTRE ASSIGNMENTS    1  1  1  1  1  1  1  1  2  2  2  2  2  2  2  2  2  2  2  2
CENTRE ASSIGNMENTS    2  2  2  2  2  2  2  2  2  2  2  2  2  2  2  2  3  3  3  3
CENTRE ASSIGNMENTS    3  3  3  3  3  3  3  3  3  3  3  3  3  3  3  3  3  3  3  3
CENTRE ASSIGNMENTS    3  3  3  3  4  4  4  4  4  4  4  4  4  4  4  4  4  4  4  4
CENTRE ASSIGNMENTS    4  4  4  4  4  4  4  4  4  4  4  4  5  5  5  5  5  5  5  5
CENTRE ASSIGNMENTS    5  5  5  5  5  5  5  5  5  5  5  5  5  5  5  5  5  5  5  5
CENTRE ASSIGNMENTS    6  6  6  6  6  6  6  6  6  6  6  6  6  6  6  6  6  6  6  6
CENTRE ASSIGNMENTS    6  6  6  6  6  6  6  6  7  7  7  7  8  8  8  8  8  8  8  8
CENTRE ASSIGNMENTS    8  8  8  8  8  8  8  8  8  8  8  8  8  8  8  8  8  8  8  8
CENTRE ASSIGNMENTS    9  9  9  9  9  9  9  9  9  9  9  9  9  9  9  9  9  9  9  9
CENTRE ASSIGNMENTS    9  9  9  9  9  9  9  9 10 10 10 10 11 11 11 11 11 11 11 11
CENTRE ASSIGNMENTS   11 11 11 11 11 11 11 11 11 11 11 11 11 11 11 11 11 11 11 11
CENTRE ASSIGNMENTS   12 12 12 12 13 13 13 13 14 14 14 14 15 15 15 15 16 16 16 16
CENTRE ASSIGNMENTS   16 16 16 16 16 16 16 16 16 16 16 16 16 16 16 16 16 16 16 16
CENTRE ASSIGNMENTS   16 16 16 16 17 17 17 17 18 18 18 18 19 19 19 19
TYPE ASSIGNMENTS      1  1  1  1  1  1  1  1  1  2  2  2  3  3  3  4  4  4  1  2
TYPE ASSIGNMENTS      3  4  5  6  7  8  9 10  1  1  1  1  1  1  1  1  1  2  2  2
TYPE ASSIGNMENTS      3  3  3  4  4  4  1  2  3  4  5  6  7  8  9 10  1  1  1  1
TYPE ASSIGNMENTS      1  1  1  1  1  2  2  2  3  3  3  4  4  4  1  2  3  4  5  6
TYPE ASSIGNMENTS      7  8  9 10  1  1  1  1  1  1  1  1  1  2  2  2  3  3  3  4
TYPE ASSIGNMENTS      4  4  1  2  3  4  5  6  7  8  9 10  1  1  1  1  1  1  1  1
TYPE ASSIGNMENTS      1  2  2  2  3  3  3  4  4  4  1  2  3  4  5  6  7  8  9 10
TYPE ASSIGNMENTS      1  1  1  1  1  1  1  1  1  2  2  2  3  3  3  4  4  4  1  2
TYPE ASSIGNMENTS      3  4  5  6  7  8  9 10  1  1  1  1  1  1  1  1  1  1  1  1
TYPE ASSIGNMENTS      1  2  2  2  3  3  3  4  4  4  1  2  3  4  5  6  7  8  9 10
TYPE ASSIGNMENTS      1  1  1  1  1  1  1  1  1  2  2  2  3  3  3  4  4  4  1  2
TYPE ASSIGNMENTS      3  4  5  6  7  8  9 10  1  1  1  1  1  1  1  1  1  1  1  1
TYPE ASSIGNMENTS      1  2  2  2  3  3  3  4  4  4  1  2  3  4  5  6  7  8  9 10
TYPE ASSIGNMENTS      1  1  1  1  1  1  1  1  1  1  1  1  1  1  1  1  1  1  1  1
TYPE ASSIGNMENTS      1  1  1  1  1  2  2  2  3  3  3  4  4  4  1  2  3  4  5  6
TYPE ASSIGNMENTS      7  8  9 10  1  1  1  1  1  1  1  1  1  1  1  1
EXPONENTS  0.3047525D+04 0.4573695D+03 0.1039487D+03 0.2921016D+02 0.9286663D+01
EXPONENTS  0.3163927D+01 0.7868272D+01 0.1881289D+01 0.5442493D+00 0.7868272D+01
EXPONENTS  0.1881289D+01 0.5442493D+00 0.7868272D+01 0.1881289D+01 0.5442493D+00
EXPONENTS  0.7868272D+01 0.1881289D+01 0.5442493D+00 0.1687145D+00 0.1687145D+00
EXPONENTS  0.1687145D+00 0.1687145D+00 0.8000000D+00 0.8000000D+00 0.8000000D+00
EXPONENTS  0.8000000D+00 0.8000000D+00 0.8000000D+00 0.3047525D+04 0.4573695D+03
EXPONENTS  0.1039487D+03 0.2921016D+02 0.9286663D+01 0.3163927D+01 0.7868272D+01
EXPONENTS  0.1881289D+01 0.5442493D+00 0.7868272D+01 0.1881289D+01 0.5442493D+00
EXPONENTS  0.7868272D+01 0.1881289D+01 0.5442493D+00 0.7868272D+01 0.1881289D+01
EXPONENTS  0.5442493D+00 0.1687145D+00 0.1687145D+00 0.1687145D+00 0.1687145D+00
EXPONENTS  0.8000000D+00 0.8000000D+00 0.8000000D+00 0.8000000D+00 0.8000000D+00
EXPONENTS  0.8000000D+00 0.3047525D+04 0.4573695D+03 0.1039487D+03 0.2921016D+02
EXPONENTS  0.9286663D+01 0.3163927D+01 0.7868272D+01 0.1881289D+01 0.5442493D+00
EXPONENTS  0.7868272D+01 0.1881289D+01 0.5442493D+00 0.7868272D+01 0.1881289D+01
EXPONENTS  0.5442493D+00 0.7868272D+01 0.1881289D+01 0.5442493D+00 0.1687145D+00
EXPONENTS  0.1687145D+00 0.1687145D+00 0.1687145D+00 0.8000000D+00 0.8000000D+00
EXPONENTS  0.8000000D+00 0.8000000D+00 0.8000000D+00 0.8000000D+00 0.3047525D+04
EXPONENTS  0.4573695D+03 0.1039487D+03 0.2921016D+02 0.9286663D+01 0.3163927D+01
EXPONENTS  0.7868272D+01 0.1881289D+01 0.5442493D+00 0.7868272D+01 0.1881289D+01
EXPONENTS  0.5442493D+00 0.7868272D+01 0.1881289D+01 0.5442493D+00 0.7868272D+01
EXPONENTS  0.1881289D+01 0.5442493D+00 0.1687145D+00 0.1687145D+00 0.1687145D+00
EXPONENTS  0.1687145D+00 0.8000000D+00 0.8000000D+00 0.8000000D+00 0.8000000D+00
EXPONENTS  0.8000000D+00 0.8000000D+00 0.3047525D+04 0.4573695D+03 0.1039487D+03
EXPONENTS  0.2921016D+02 0.9286663D+01 0.3163927D+01 0.7868272D+01 0.1881289D+01
EXPONENTS  0.5442493D+00 0.7868272D+01 0.1881289D+01 0.5442493D+00 0.7868272D+01
EXPONENTS  0.1881289D+01 0.5442493D+00 0.7868272D+01 0.1881289D+01 0.5442493D+00
EXPONENTS  0.1687145D+00 0.1687145D+00 0.1687145D+00 0.1687145D+00 0.8000000D+00
EXPONENTS  0.8000000D+00 0.8000000D+00 0.8000000D+00 0.8000000D+00 0.8000000D+00
EXPONENTS  0.3047525D+04 0.4573695D+03 0.1039487D+03 0.2921016D+02 0.9286663D+01
EXPONENTS  0.3163927D+01 0.7868272D+01 0.1881289D+01 0.5442493D+00 0.7868272D+01
EXPONENTS  0.1881289D+01 0.5442493D+00 0.7868272D+01 0.1881289D+01 0.5442493D+00
EXPONENTS  0.7868272D+01 0.1881289D+01 0.5442493D+00 0.1687145D+00 0.1687145D+00
EXPONENTS  0.1687145D+00 0.1687145D+00 0.8000000D+00 0.8000000D+00 0.8000000D+00
EXPONENTS  0.8000000D+00 0.8000000D+00 0.8000000D+00 0.1873114D+02 0.2825394D+01
EXPONENTS  0.6401217D+00 0.1612778D+00 0.5484672D+04 0.8252349D+03 0.1880470D+03
EXPONENTS  0.5296450D+02 0.1689757D+02 0.5799635D+01 0.1553962D+02 0.3599934D+01
EXPONENTS  0.1013762D+01 0.1553962D+02 0.3599934D+01 0.1013762D+01 0.1553962D+02
EXPONENTS  0.3599934D+01 0.1013762D+01 0.1553962D+02 0.3599934D+01 0.1013762D+01
EXPONENTS  0.2700058D+00 0.2700058D+00 0.2700058D+00 0.2700058D+00 0.8000000D+00
EXPONENTS  0.8000000D+00 0.8000000D+00 0.8000000D+00 0.8000000D+00 0.8000000D+00
EXPONENTS  0.5484672D+04 0.8252349D+03 0.1880470D+03 0.5296450D+02 0.1689757D+02
EXPONENTS  0.5799635D+01 0.1553962D+02 0.3599934D+01 0.1013762D+01 0.1553962D+02
EXPONENTS  0.3599934D+01 0.1013762D+01 0.1553962D+02 0.3599934D+01 0.1013762D+01
EXPONENTS  0.1553962D+02 0.3599934D+01 0.1013762D+01 0.2700058D+00 0.2700058D+00
EXPONENTS  0.2700058D+00 0.2700058D+00 0.8000000D+00 0.8000000D+00 0.8000000D+00
EXPONENTS  0.8000000D+00 0.8000000D+00 0.8000000D+00 0.1873114D+02 0.2825394D+01
EXPONENTS  0.6401217D+00 0.1612778D+00 0.3047525D+04 0.4573695D+03 0.1039487D+03
EXPONENTS  0.2921016D+02 0.9286663D+01 0.3163927D+01 0.7868272D+01 0.1881289D+01
EXPONENTS  0.5442493D+00 0.7868272D+01 0.1881289D+01 0.5442493D+00 0.7868272D+01
EXPONENTS  0.1881289D+01 0.5442493D+00 0.7868272D+01 0.1881289D+01 0.5442493D+00
EXPONENTS  0.1687145D+00 0.1687145D+00 0.1687145D+00 0.1687145D+00 0.8000000D+00
EXPONENTS  0.8000000D+00 0.8000000D+00 0.8000000D+00 0.8000000D+00 0.8000000D+00
EXPONENTS  0.1873114D+02 0.2825394D+01 0.6401217D+00 0.1612778D+00 0.1873114D+02
EXPONENTS  0.2825394D+01 0.6401217D+00 0.1612778D+00 0.1873114D+02 0.2825394D+01
EXPONENTS  0.6401217D+00 0.1612778D+00 0.1873114D+02 0.2825394D+01 0.6401217D+00
EXPONENTS  0.1612778D+00 0.3047525D+04 0.4573695D+03 0.1039487D+03 0.2921016D+02
EXPONENTS  0.9286663D+01 0.3163927D+01 0.7868272D+01 0.1881289D+01 0.5442493D+00
EXPONENTS  0.7868272D+01 0.1881289D+01 0.5442493D+00 0.7868272D+01 0.1881289D+01
EXPONENTS  0.5442493D+00 0.7868272D+01 0.1881289D+01 0.5442493D+00 0.1687145D+00
EXPONENTS  0.1687145D+00 0.1687145D+00 0.1687145D+00 0.8000000D+00 0.8000000D+00
EXPONENTS  0.8000000D+00 0.8000000D+00 0.8000000D+00 0.8000000D+00 0.1873114D+02
EXPONENTS  0.2825394D+01 0.6401217D+00 0.1612778D+00 0.1873114D+02 0.2825394D+01
EXPONENTS  0.6401217D+00 0.1612778D+00 0.1873114D+02 0.2825394D+01 0.6401217D+00
EXPONENTS  0.1612778D+00
MO    1     MO 0.0        OCC NO =    2.0000000  ORB. ENERGY =  -18.983583
  0.76581768D-05  0.14127841D-04  0.22806716D-04  0.29687567D-04  0.25332455D-04
  0.87466880D-05 -0.30362962D-04 -0.13994261D-04  0.39241369D-04 -0.21522277D-04
 -0.16501917D-04 -0.82356132D-05 -0.40467025D-04 -0.31027548D-04 -0.15484921D-04
  0.10190226D-07  0.78132191D-08  0.38993439D-08 -0.23084973D-03 -0.56442102D-04
  0.10146066D-03  0.20727154D-08 -0.25463707D-04  0.16587041D-04  0.34891041D-04
 -0.22355271D-04  0.61891523D-08  0.12495900D-07 -0.39748456D-05 -0.73328141D-05
 -0.11837436D-04 -0.15408824D-04 -0.13148377D-04 -0.45398187D-05  0.28956513D-04
  0.13346030D-04 -0.37423662D-04  0.41136026D-04  0.31540496D-04  0.15740918D-04
 -0.68583583D-04 -0.52585541D-04 -0.26243871D-04  0.13684403D-07  0.10492332D-07
  0.52364092D-08  0.41745634D-03 -0.85112548D-04 -0.19358592D-03 -0.27157602D-07
  0.15538671D-04  0.55285992D-04 -0.62112284D-06 -0.88909511D-05  0.96820233D-08
  0.44584945D-07  0.29943507D-04  0.55239924D-04  0.89174365D-04  0.11607853D-03
  0.99050017D-04  0.34199591D-04 -0.13890020D-03 -0.64018974D-04  0.17951589D-03
  0.54394918D-04  0.41706573D-04  0.20814503D-04  0.61376789D-04  0.47059829D-04
  0.23486153D-04  0.86608042D-08  0.66405553D-08  0.33141025D-08 -0.47133927D-03
  0.53110570D-03 -0.64992421D-04  0.17177981D-07  0.61853938D-04 -0.73057592D-04
  0.84358659D-04 -0.38726680D-04  0.95459390D-07  0.17590846D-07 -0.30881805D-04
 -0.56970900D-04 -0.91968697D-04 -0.11971592D-03 -0.10215381D-03 -0.35271256D-04
 -0.64765964D-04 -0.29850574D-04  0.83704124D-04  0.22621601D-03  0.17344809D-03
  0.86562754D-04 -0.50780602D-03 -0.38935345D-03 -0.19431466D-03  0.39436015D-07
  0.30237035D-07  0.15090400D-07  0.31503505D-04 -0.31338848D-03  0.78108330D-03
 -0.57141045D-07 -0.12464509D-03 -0.13958456D-03 -0.13169433D-03  0.19191966D-03
 -0.62157623D-08 -0.42429691D-07  0.69672764D-05  0.12853265D-04  0.20749154D-04
  0.27009234D-04  0.23047028D-04  0.79575850D-05 -0.60187590D-04 -0.27740405D-04
  0.77786991D-04 -0.67286249D-05 -0.51590828D-05 -0.25747439D-05  0.19221669D-04
  0.14737957D-04  0.73552733D-05  0.22909171D-08  0.17565299D-08  0.87663155D-09
 -0.36062657D-03 -0.11964797D-03 -0.28689934D-03  0.20732248D-07 -0.67960777D-04
 -0.49683906D-04  0.29900254D-04 -0.71890743D-05  0.13532732D-07  0.17316738D-08
  0.10437552D-05  0.19255245D-05  0.31083936D-05  0.40462049D-05  0.34526340D-05
  0.11921116D-05  0.47347856D-05  0.21822583D-05 -0.61192802D-05  0.79007247D-04
  0.60577746D-04  0.30232541D-04 -0.61511658D-04 -0.47163238D-04 -0.23537761D-04
  0.20689815D-07  0.15863638D-07  0.79170670D-08  0.32356504D-03  0.39279994D-04
 -0.25998407D-04 -0.51373457D-08  0.55394041D-05  0.41169341D-04  0.23161804D-04
  0.56506376D-05 -0.38681355D-08  0.11455927D-09 -0.12409240D-04 -0.21048419D-04
 -0.23962881D-04 -0.12717268D-03  0.82559995D+00  0.15195446D+01  0.24589100D+01
  0.32323061D+01  0.27723301D+01  0.94790676D+00 -0.15746250D-01 -0.70259462D-02
  0.20747713D-01  0.12571862D-02  0.96859422D-03  0.42526503D-03  0.27008090D-02
  0.20808277D-02  0.91359545D-03 -0.39243616D-06 -0.30235090D-06 -0.13274833D-06
  0.40816079D-02 -0.24170525D-03  0.32942694D-03  0.91006599D-08 -0.92940616D-02
 -0.92626750D-02 -0.93038580D-02 -0.21904799D-03  0.52967088D-09  0.22336430D-07
  0.40529974D-04  0.74596789D-04  0.12071169D-03  0.15867889D-03  0.13609796D-03
  0.46534204D-04 -0.18995221D-03 -0.84756307D-04  0.25028651D-03 -0.89703657D-04
 -0.69111832D-04 -0.30343817D-04  0.88744545D-04  0.68372888D-04  0.30019380D-04
 -0.10563002D-06 -0.81382236D-07 -0.35731185D-07 -0.59014732D-03  0.16580583D-03
 -0.83181138D-04  0.83162192D-07  0.12208668D-03  0.23856174D-03  0.19948277D-03
  0.31012894D-04 -0.86192943D-07  0.30163823D-07  0.80226972D-04  0.13608013D-03
  0.15492242D-03 -0.21689372D-03  0.41907113D-05  0.77310440D-05  0.12480302D-04
  0.16245645D-04  0.13862438D-04  0.47863669D-05 -0.16160363D-04 -0.74482965D-05
  0.20885801D-04 -0.47175594D-05 -0.36171254D-05 -0.18051991D-05 -0.35569969D-04
 -0.27272796D-04 -0.13611037D-04 -0.13683924D-07 -0.10491965D-07 -0.52362260D-08
  0.50894201D-04 -0.23629788D-04  0.11677917D-04  0.10309238D-07  0.21141415D-04
 -0.11311092D-04  0.12711711D-04 -0.11607097D-04  0.10272382D-07 -0.19655454D-07
 -0.36098658D-05 -0.61230156D-05 -0.69708368D-05 -0.13392864D-04  0.43540022D-05
  0.73852118D-05  0.84078026D-05 -0.22020321D-05  0.43610627D-05  0.73971877D-05
  0.84214367D-05 -0.22014298D-05 -0.56411971D-05 -0.95685380D-05 -0.10893442D-04
 -0.31096855D-04  0.63113601D-05  0.11643227D-04  0.18795779D-04  0.24466519D-04
  0.20877325D-04  0.72084386D-05 -0.22964264D-04 -0.10584208D-04  0.29679225D-04
 -0.13791129D-04 -0.10574163D-04 -0.52772483D-05  0.61788340D-06  0.47375380D-06
  0.23643635D-06 -0.40771043D-08 -0.31260650D-08 -0.15601255D-08 -0.68919705D-04
 -0.22891988D-04  0.45778359D-05  0.41709918D-08 -0.51699245D-05  0.21173282D-04
  0.21091228D-04  0.59588974D-05  0.40716772D-08  0.37282967D-08  0.34613744D-05
  0.58711460D-05  0.66840922D-05  0.29939772D-05  0.34628498D-05  0.58736487D-05
  0.66869415D-05  0.29965098D-05  0.27770861D-05  0.47104636D-05  0.53626964D-05
  0.63924843D-05
MO    2     MO 0.0        OCC NO =    2.0000000  ORB. ENERGY =  -18.890172
 -0.37955347D-05 -0.70020203D-05 -0.11303432D-04 -0.14713710D-04 -0.12555235D-04
 -0.43350210D-05  0.24578679D-04  0.11328290D-04 -0.31765709D-04  0.12736464D-03
  0.97655127D-04  0.48736753D-04 -0.14726164D-04 -0.11291089D-04 -0.56350446D-05
 -0.23071489D-07 -0.17689754D-07 -0.88284272D-08  0.61237163D-03  0.17799352D-03
 -0.20409876D-03 -0.12229310D-07  0.70011831D-04 -0.32411883D-05  0.60633823D-05
  0.30021285D-04 -0.31752223D-07 -0.29365624D-07  0.76290062D-05  0.14074027D-04
  0.22719843D-04  0.29574485D-04  0.25235961D-04  0.87133710D-05 -0.63281100D-04
 -0.29166201D-04  0.81785072D-04 -0.12524717D-03 -0.96031586D-04 -0.47926492D-04
 -0.57841231D-04 -0.44348987D-04 -0.22133253D-04 -0.64195013D-07 -0.49220664D-07
 -0.24564561D-07 -0.64718009D-03  0.43721575D-03  0.48885743D-03  0.91882735D-07
 -0.10693884D-03 -0.13893795D-04  0.18181159D-04  0.46650893D-04 -0.29981058D-07
 -0.62501540D-07 -0.45396935D-04 -0.83748481D-04 -0.13519602D-03 -0.17598504D-03
 -0.15016836D-03 -0.51849524D-04 -0.67566638D-04 -0.31141402D-04  0.87323741D-04
  0.20308596D-03  0.15571343D-03  0.77711916D-04 -0.36002977D-04 -0.27604799D-04
 -0.13776729D-04  0.65568904D-07  0.50274076D-07  0.25090288D-07 -0.31865531D-04
 -0.11751106D-02  0.14732342D-03 -0.15647843D-06 -0.86917595D-03 -0.15410754D-03
 -0.20463168D-03  0.21041140D-03 -0.42131320D-06  0.41996307D-07  0.24548561D-04
  0.45287301D-04  0.73107746D-04  0.95164563D-04  0.81204094D-04  0.28037822D-04
 -0.11163913D-03 -0.51454375D-04  0.14428344D-03 -0.34719385D-04 -0.26620622D-04
 -0.13285556D-04 -0.91170999D-04 -0.69904139D-04 -0.34887065D-04 -0.21930431D-07
 -0.16814864D-07 -0.83917955D-08 -0.56128885D-03  0.31774886D-03 -0.52198650D-03
  0.89739149D-07 -0.54138999D-04  0.77096604D-04  0.59111090D-04 -0.12411348D-03
 -0.14689776D-07  0.55278481D-07 -0.43696465D-05 -0.80611445D-05 -0.13013187D-04
 -0.16939302D-04 -0.14454337D-04 -0.49907354D-05  0.27906773D-04  0.12862206D-04
 -0.36066969D-04  0.11896720D-03  0.91216503D-04  0.45523428D-04  0.90389873D-05
  0.69305222D-05  0.34588163D-05 -0.25160027D-07 -0.19291113D-07 -0.96276173D-08
  0.59554089D-03  0.13759373D-03  0.24977371D-03 -0.27049884D-07  0.41562849D-04
  0.24434234D-04  0.12957067D-05 -0.16438571D-04 -0.26057489D-07  0.16186723D-07
  0.11881384D-04  0.21918834D-04  0.35383795D-04  0.46059187D-04  0.39302388D-04
  0.13570170D-04 -0.51085123D-04 -0.23545087D-04  0.66022881D-04  0.41535638D-04
  0.31846892D-04  0.15893831D-04  0.14587427D-05  0.11184714D-05  0.55819560D-06
 -0.44416644D-07 -0.34055865D-07 -0.16996263D-07 -0.43575490D-03 -0.24025040D-03
  0.56285924D-04  0.17375170D-07  0.20154175D-04 -0.51164289D-04  0.48776529D-04
 -0.32385254D-05  0.52681210D-08  0.81338554D-08  0.13549565D-04  0.22982626D-04
  0.26164907D-04  0.70887470D-04  0.59688152D-04  0.10985806D-03  0.17777108D-03
  0.23368506D-03  0.20043032D-03  0.68530531D-04 -0.16114366D-03 -0.71901989D-04
  0.21232754D-03 -0.14727569D-03 -0.11346798D-03 -0.49818556D-04  0.97872061D-04
  0.75405147D-04  0.33106921D-04  0.15549188D-06  0.11979811D-06  0.52597823D-07
 -0.51174360D-03  0.18329141D-03 -0.14605400D-03 -0.57541494D-07  0.20832043D-03
  0.10403893D-03  0.16495788D-03  0.12759917D-03 -0.11316557D-07 -0.72054152D-07
  0.82559363D+00  0.15195330D+01  0.24588912D+01  0.32322814D+01  0.27723089D+01
  0.94789951D+00 -0.15537841D-01 -0.69329545D-02  0.20473107D-01 -0.30120331D-02
 -0.23206091D-02 -0.10188724D-02  0.19959425D-03  0.15377661D-03  0.67516214D-04
 -0.67269959D-06 -0.51827877D-06 -0.22755230D-06  0.45870519D-02 -0.63692589D-03
  0.78497219D-04 -0.19906787D-06 -0.89163965D-02 -0.94229548D-02 -0.94205435D-02
 -0.14773251D-03  0.28010448D-06 -0.22641212D-07 -0.12169803D-04 -0.20642289D-04
 -0.23500517D-04 -0.10429181D-03  0.10317444D-04  0.19033670D-04  0.30726246D-04
  0.39996442D-04  0.34129037D-04  0.11783936D-04 -0.34069166D-04 -0.15702448D-04
  0.44031302D-04  0.10781785D-03  0.82667890D-04  0.41257071D-04  0.47283515D-04
  0.36254000D-04  0.18093287D-04  0.41416094D-07  0.31755234D-07  0.15848087D-07
 -0.39251627D-03  0.55836899D-04  0.11763464D-03 -0.30287138D-07  0.22821561D-04
  0.32792509D-04  0.11233018D-04 -0.98280963D-04 -0.11170166D-07  0.45473448D-07
  0.79570937D-05  0.13496737D-04  0.15365558D-04 -0.10823233D-04  0.17074535D-04
  0.28961643D-04  0.32971807D-04  0.12386087D-04  0.17057495D-04  0.28932741D-04
  0.32938903D-04  0.12379412D-04  0.83909838D-05  0.14232697D-04  0.16203422D-04
  0.64907874D-04 -0.36231327D-06 -0.66839723D-06 -0.10790004D-05 -0.14045379D-05
 -0.11984947D-05 -0.41381143D-06 -0.15322659D-05 -0.70621998D-06  0.19803145D-05
 -0.29335429D-04 -0.22492546D-04 -0.11225357D-04 -0.64723693D-05 -0.49626023D-05
 -0.24766863D-05  0.10328333D-07  0.79191108D-08  0.39521913D-08 -0.89505954D-04
 -0.26203915D-04  0.35604339D-05 -0.92486114D-08 -0.93074116D-05 -0.42471446D-05
 -0.35976197D-05 -0.57524098D-05 -0.90765837D-08 -0.87478635D-08  0.43810763D-06
  0.74311346D-06  0.84600841D-06  0.64334501D-06  0.43535405D-06  0.73844287D-06
  0.84069110D-06  0.63513844D-06  0.18280674D-05  0.31007483D-05  0.35300923D-05
  0.34817127D-05
MO    3     MO 0.0        OCC NO =    2.0000000  ORB. ENERGY =  -10.036407
  0.48507854D-04  0.89487518D-04  0.14446060D-03  0.18804478D-03  0.16045895D-03
  0.55402620D-04 -0.64042567D-04 -0.29517161D-04  0.82769200D-04  0.12710005D-03
  0.97452258D-04  0.48635506D-04 -0.75441257D-04 -0.57843571D-04 -0.28867996D-04
  0.73474715D-08  0.56335751D-08  0.28115488D-08 -0.69156144D-03 -0.38798388D-03
  0.19638050D-03  0.27216999D-08 -0.52366361D-04  0.12966957D-03  0.51813249D-04
  0.18014732D-04  0.62905804D-08  0.16439820D-07 -0.85692994D-04 -0.15808684D-03
 -0.25520118D-03 -0.33219611D-03 -0.28346354D-03 -0.97873149D-04  0.93886110D-04
  0.43272022D-04 -0.12133927D-03  0.47053509D-04  0.36077646D-04  0.18005274D-04
 -0.10065920D-03 -0.77179088D-04 -0.38517774D-04  0.41723936D-07  0.31991268D-07
  0.15965885D-07  0.10413638D-02 -0.36907857D-03 -0.30002123D-03 -0.45520353D-07
  0.39976114D-04 -0.19758329D-04 -0.64775510D-04  0.63202311D-04  0.32300229D-07
  0.52588470D-07 -0.13502490D-01 -0.24909457D-01 -0.40211587D-01 -0.52343538D-01
 -0.44664836D-01 -0.15421695D-01  0.29167025D-03  0.13443055D-03 -0.37695730D-03
 -0.12516117D-03 -0.95965647D-04 -0.47893584D-04 -0.16441034D-03 -0.12605942D-03
 -0.62912486D-04 -0.16314670D-07 -0.12509054D-07 -0.62428945D-08 -0.12032958D-02
  0.78893793D-03  0.84800977D-04 -0.11480107D-08  0.38048171D-03  0.65127123D-03
  0.48669879D-03  0.61665341D-04  0.37902809D-07 -0.26506197D-07 -0.33506840D+00
 -0.61813577D+00 -0.99786280D+00 -0.12989209D+01 -0.11083715D+01 -0.38269405D+00
  0.12533252D-01  0.57765645D-02 -0.16198090D-01 -0.33866572D-03 -0.25966739D-03
 -0.12959223D-03  0.84981921D-03  0.65158747D-03  0.32518781D-03  0.58815229D-07
  0.45095787D-07  0.22505958D-07  0.23631654D-02 -0.66371258D-03  0.10608807D-02
 -0.92598756D-07  0.62066219D-02  0.59679191D-02  0.65510483D-02  0.58551494D-03
 -0.41674831D-09 -0.84539933D-08 -0.24816543D-02 -0.45781676D-02 -0.73905821D-02
 -0.96203419D-02 -0.82090552D-02 -0.28343895D-02 -0.12630096D-03 -0.58211996D-04
  0.16323251D-03  0.34992126D-03  0.26829743D-03  0.13389922D-03  0.83369837D-04
  0.63922703D-04  0.31901909D-04 -0.10386773D-07 -0.79639188D-08 -0.39745536D-08
 -0.17416244D-02 -0.49339364D-03 -0.62374186D-03  0.49129187D-07  0.24890564D-03
  0.26111813D-03  0.21943990D-03 -0.11169894D-03  0.17609695D-07 -0.55966248D-08
  0.13757141D-02  0.25379240D-02  0.40969962D-02  0.53330717D-02  0.45507197D-02
  0.15712542D-02  0.70426112D-04  0.32459331D-04 -0.91019351D-04  0.33193327D-03
  0.25450538D-03  0.12701602D-03 -0.36607745D-04 -0.28068497D-04 -0.14008147D-04
  0.25701790D-07  0.19706502D-07  0.98349257D-08  0.15128968D-02 -0.90831050D-04
 -0.23956820D-03  0.58211995D-08 -0.34038470D-03 -0.18273028D-03 -0.16568689D-03
 -0.20128827D-04 -0.11353934D-08  0.34636991D-08 -0.28384473D-04 -0.48145439D-04
 -0.54811881D-04 -0.24720904D-03 -0.97231521D-04 -0.17895790D-03 -0.28958767D-03
 -0.38067109D-03 -0.32649939D-03 -0.11163568D-03  0.53345352D-03  0.23802592D-03
 -0.70289374D-03 -0.54537468D-04 -0.42018179D-04 -0.18448244D-04  0.70489500D-04
  0.54308360D-04  0.23844295D-04 -0.69560175D-07 -0.53592365D-07 -0.23529935D-07
  0.13474373D-02 -0.24324867D-03  0.52675394D-03  0.14192386D-07 -0.38776906D-03
  0.50356972D-04 -0.75285888D-03 -0.68336724D-03 -0.24801925D-07 -0.23936854D-07
  0.51001117D-04  0.93869282D-04  0.15189822D-03  0.19967446D-03  0.17125962D-03
  0.58556573D-04 -0.17325589D-03 -0.77306441D-04  0.22828696D-03  0.31647944D-04
  0.24383035D-04  0.10705466D-04  0.45572058D-04  0.35110814D-04  0.15415538D-04
 -0.12280020D-06 -0.94610933D-07 -0.41539295D-07 -0.55939200D-03  0.65838659D-04
 -0.66204031D-04  0.92767002D-07  0.17814943D-03  0.15231905D-03  0.15900050D-03
  0.39901330D-05 -0.67927751D-07  0.41283839D-07 -0.44034094D-04 -0.74690159D-04
 -0.85032106D-04  0.16126370D-04  0.20852969D-04  0.38469655D-04  0.62101951D-04
  0.80838289D-04  0.68979458D-04  0.23816949D-04 -0.28846068D-04 -0.13295126D-04
  0.37280922D-04  0.25707605D-04  0.19710961D-04  0.98371511D-05 -0.49442913D-04
 -0.37909689D-04 -0.18919592D-04 -0.23398694D-07 -0.17940634D-07 -0.89536340D-08
  0.84979511D-04 -0.21228117D-04 -0.76236742D-05  0.17986626D-07  0.11001935D-04
  0.10969083D-04  0.15279505D-04 -0.45820884D-04  0.13509833D-07 -0.30211094D-07
 -0.62849583D-05 -0.10660479D-04 -0.12136578D-04  0.32027162D-05  0.82223951D-05
  0.13946738D-04  0.15877869D-04 -0.41556184D-05  0.82332621D-05  0.13965171D-04
  0.15898853D-04 -0.41528016D-05 -0.28120978D-04 -0.47698501D-04 -0.54303058D-04
 -0.88221979D-04  0.41372731D+00  0.76324611D+00  0.12321159D+01  0.16038488D+01
  0.13685671D+01  0.47253332D+00 -0.15610087D-01 -0.71946748D-02  0.20174619D-01
 -0.17706239D-03 -0.13576021D-03 -0.67753860D-04  0.78153479D-04  0.59923130D-04
  0.29905842D-04  0.50541921D-08  0.38752339D-08  0.19340133D-08 -0.26820654D-02
 -0.17458702D-03  0.35069393D-04 -0.27497287D-08 -0.79956020D-02 -0.78339146D-02
 -0.78081939D-02  0.14539300D-03  0.88015404D-08 -0.64660819D-08  0.32742482D-05
  0.55537447D-05  0.63227420D-05  0.39274970D-03  0.32738245D-05  0.55530260D-05
  0.63219238D-05  0.39274251D-03 -0.60841226D-06 -0.10319823D-05 -0.11748754D-05
  0.39253835D-03
MO    4     MO 0.0        OCC NO =    2.0000000  ORB. ENERGY =  -10.036405
 -0.57929979D-04 -0.10686950D-03 -0.17252051D-03 -0.22457044D-03 -0.19162637D-03
 -0.66163979D-04  0.89761311D-04  0.41370906D-04 -0.11600834D-03  0.54454259D-04
  0.41752072D-04  0.20837210D-04  0.69905267D-04  0.53598925D-04  0.26749620D-04
 -0.18866454D-07 -0.14465600D-07 -0.72193484D-08  0.36058287D-03 -0.25793709D-04
 -0.28373008D-03  0.16695964D-08 -0.31984555D-04  0.63993145D-04 -0.11313134D-03
  0.59177597D-04 -0.24070058D-07 -0.22603542D-07  0.70146896D-04  0.12940733D-03
  0.20890355D-03  0.27193035D-03  0.23203866D-03  0.80117373D-04 -0.46506476D-05
 -0.21434792D-05  0.60105395D-05  0.28831689D-04  0.22106311D-04  0.11032598D-04
  0.13526142D-03  0.10370988D-03  0.51758496D-04 -0.29272275D-07 -0.22444124D-07
 -0.11201191D-07 -0.60289530D-03 -0.77830013D-04  0.25293110D-03  0.31746156D-07
  0.55198987D-04 -0.34732122D-04 -0.38209418D-04 -0.65233861D-04 -0.27205991D-07
 -0.51525734D-07  0.16709631D-01  0.30826007D-01  0.49762733D-01  0.64776293D-01
  0.55273728D-01  0.19084690D-01 -0.37462853D-03 -0.17266595D-03  0.48417334D-03
  0.15797722D-03  0.12112691D-03  0.60450820D-04  0.19167468D-03  0.14696399D-03
  0.73345330D-04 -0.50432313D-08 -0.38668299D-08 -0.19298191D-08  0.12632328D-02
 -0.72646333D-03  0.66151081D-05  0.74919746D-08 -0.53792249D-03 -0.75519760D-03
 -0.61357638D-03 -0.49164637D-04 -0.40805265D-07  0.56636086D-07  0.41334649D+00
  0.76254355D+00  0.12309817D+01  0.16023725D+01  0.13673073D+01  0.47209836D+00
 -0.15342010D-01 -0.70711182D-02  0.19828154D-01  0.43399017D-03  0.33275613D-03
  0.16606863D-03 -0.10398499D-02 -0.79729093D-03 -0.39790405D-03 -0.45976275D-07
 -0.35251692D-07 -0.17593065D-07 -0.23831418D-02  0.62215938D-03 -0.10085521D-02
  0.74079989D-07 -0.76277778D-02 -0.74355240D-02 -0.82058625D-02 -0.72830965D-03
  0.42670626D-09 -0.13044061D-07  0.30383614D-02  0.56051836D-02  0.90485043D-02
  0.11778464D-01  0.10050585D-01  0.34702254D-02  0.16675409D-03  0.76856807D-04
 -0.21551451D-03 -0.23644410D-03 -0.18129034D-03 -0.90476586D-04 -0.94538187D-04
 -0.72485886D-04 -0.36175537D-04 -0.78447901D-08 -0.60148875D-08 -0.30018504D-08
  0.16436937D-02  0.49505623D-03  0.58675858D-03 -0.34046422D-07 -0.41408424D-03
 -0.21527641D-03 -0.35044159D-03  0.21238350D-03 -0.29367939D-07 -0.81564792D-08
  0.11673825D-02  0.21535927D-02  0.34765664D-02  0.45254564D-02  0.38615802D-02
  0.13333108D-02 -0.29888550D-04 -0.13775605D-04  0.38628236D-04  0.87580965D-04
  0.67151529D-04  0.33513319D-04  0.90503475D-04  0.69392324D-04  0.34631633D-04
 -0.20821873D-07 -0.15964892D-07 -0.79675998D-08 -0.39189342D-03 -0.54524650D-03
  0.84361707D-04 -0.59154854D-09 -0.23412883D-03 -0.87221794D-04 -0.99108159D-04
 -0.33788087D-04 -0.43230333D-09 -0.70291306D-08  0.20298103D-04  0.34429424D-04
  0.39196682D-04  0.20930598D-03  0.83793621D-04  0.15422499D-03  0.24956515D-03
  0.32806038D-03  0.28137548D-03  0.96207056D-04 -0.53644487D-03 -0.23936066D-03
  0.70683523D-03  0.10673278D-03  0.82231856D-04  0.36104214D-04 -0.13979454D-03
 -0.10770416D-03 -0.47287926D-04  0.57577396D-07  0.44360279D-07  0.19476552D-07
 -0.13251288D-02  0.26436845D-03 -0.56624057D-03 -0.45935163D-08  0.34259268D-03
 -0.16637149D-03  0.78442796D-03  0.84195062D-03  0.17082898D-07  0.42136968D-07
 -0.59879263D-04 -0.11020981D-03 -0.17834027D-03 -0.23443328D-03 -0.20107206D-03
 -0.68749953D-04  0.20335148D-03  0.90735035D-04 -0.26794177D-03  0.24819541D-05
  0.19122119D-05  0.83956400D-06 -0.32628318D-04 -0.25138360D-04 -0.11037094D-04
  0.10899721D-06  0.83976471D-07  0.36870194D-07  0.56520719D-03 -0.94291935D-04
  0.44551349D-04 -0.87568469D-07 -0.15439631D-03 -0.18020194D-03 -0.22904472D-03
  0.25245704D-04  0.89412041D-07 -0.31575049D-07  0.49538119D-04  0.84026025D-04
  0.95660660D-04 -0.63809952D-05 -0.54833357D-04 -0.10115684D-03 -0.16329850D-03
 -0.21256613D-03 -0.18138306D-03 -0.62627212D-04  0.63288821D-04  0.29169760D-04
 -0.81795051D-04 -0.61118693D-05 -0.46861937D-05 -0.23387391D-05  0.30449013D-04
  0.23346372D-04  0.11651476D-04  0.20694776D-07  0.15867442D-07  0.79189654D-08
  0.90915004D-04  0.28535825D-04 -0.87099410D-04 -0.17632156D-07 -0.77119631D-04
  0.31524883D-04 -0.45487530D-04  0.42556791D-04 -0.16984888D-07  0.32898589D-07
 -0.10807798D-06 -0.18332071D-06 -0.20870415D-06  0.39631146D-04 -0.13069030D-04
 -0.22167549D-04 -0.25236971D-04 -0.97127028D-05 -0.13078957D-04 -0.22184386D-04
 -0.25256139D-04 -0.97167740D-05  0.44859694D-05  0.76090531D-05  0.86626380D-05
  0.88654576D-04  0.33532610D+00  0.61861118D+00  0.99863025D+00  0.12999199D+01
  0.11092240D+01  0.38298838D+00 -0.12568760D-01 -0.57929302D-02  0.16243981D-01
 -0.14284325D-03 -0.10952314D-03 -0.54659723D-04  0.63697569D-04  0.48839256D-04
  0.24374212D-04  0.77986400D-08  0.59795025D-08  0.29841908D-08 -0.20739250D-02
 -0.94516882D-04 -0.36586590D-04 -0.10646307D-08 -0.64734014D-02 -0.63962183D-02
 -0.64271321D-02 -0.14196448D-04  0.86565673D-08  0.41324601D-08 -0.47139399D-05
 -0.79957342D-05 -0.91028608D-05  0.32123574D-03 -0.47135877D-05 -0.79951368D-05