 Entering Link 1 = D:\Gaussian\G16W\l1.exe PID=     40100.
  
 Copyright (c) 1988,1990,1992,1993,1995,1998,2003,2009,2016,
            Gaussian, Inc.  All Rights Reserved.
  
 This is part of the Gaussian(R) 16 program.  It is based on
 the Gaussian(R) 09 system (copyright 2009, Gaussian, Inc.),
 the Gaussian(R) 03 system (copyright 2003, Gaussian, Inc.),
 the Gaussian(R) 98 system (copyright 1998, Gaussian, Inc.),
 the Gaussian(R) 94 system (copyright 1995, Gaussian, Inc.),
 the Gaussian 92(TM) system (copyright 1992, Gaussian, Inc.),
 the Gaussian 90(TM) system (copyright 1990, Gaussian, Inc.),
 the Gaussian 88(TM) system (copyright 1988, Gaussian, Inc.),
 the Gaussian 86(TM) system (copyright 1986, Carnegie Mellon
 University), and the Gaussian 82(TM) system (copyright 1983,
 Carnegie Mellon University). Gaussian is a federally registered
 trademark of Gaussian, Inc.
  
 This software contains proprietary and confidential information,
 including trade secrets, belonging to Gaussian, Inc.
  
 This software is provided under written license and may be
 used, copied, transmitted, or stored only in accord with that
 written license.
  
 The following legend is applicable only to US Government
 contracts under FAR:
  
                    RESTRICTED RIGHTS LEGEND
  
 Use, reproduction and disclosure by the US Government is
 subject to restrictions as set forth in subparagraphs (a)
 and (c) of the Commercial Computer Software - Restricted
 Rights clause in FAR 52.227-19.
  
 Gaussian, Inc.
 340 Quinnipiac St., Bldg. 40, Wallingford CT 06492
  
  
 ---------------------------------------------------------------
 Warning -- This program may not be used in any manner that
 competes with the business of Gaussian, Inc. or will provide
 assistance to any competitor of Gaussian, Inc.  The licensee
 of this program is prohibited from giving any competitor of
 Gaussian, Inc. access to this program.  By using this program,
 the user acknowledges that Gaussian, Inc. is engaged in the
 business of creating and licensing software in the field of
 computational chemistry and represents and warrants to the
 licensee that it is not a competitor of Gaussian, Inc. and that
 it will not use this program in any manner prohibited above.
 ---------------------------------------------------------------
  

 Cite this work as:
 Gaussian 16, Revision A.03,
 M. J. Frisch, G. W. Trucks, H. B. Schlegel, G. E. Scuseria, 
 M. A. Robb, J. R. Cheeseman, G. Scalmani, V. Barone, 
 G. A. Petersson, H. Nakatsuji, X. Li, M. Caricato, A. V. Marenich, 
 J. Bloino, B. G. Janesko, R. Gomperts, B. Mennucci, H. P. Hratchian, 
 J. V. Ortiz, A. F. Izmaylov, J. L. Sonnenberg, D. Williams-Young, 
 F. Ding, F. Lipparini, F. Egidi, J. Goings, B. Peng, A. Petrone, 
 T. Henderson, D. Ranasinghe, V. G. Zakrzewski, J. Gao, N. Rega, 
 G. Zheng, W. Liang, M. Hada, M. Ehara, K. Toyota, R. Fukuda, 
 J. Hasegawa, M. Ishida, T. Nakajima, Y. Honda, O. Kitao, H. Nakai, 
 T. Vreven, K. Throssell, J. A. Montgomery, Jr., J. E. Peralta, 
 F. Ogliaro, M. J. Bearpark, J. J. Heyd, E. N. Brothers, K. N. Kudin, 
 V. N. Staroverov, T. A. Keith, R. Kobayashi, J. Normand, 
 K. Raghavachari, A. P. Rendell, J. C. Burant, S. S. Iyengar, 
 J. Tomasi, M. Cossi, J. M. Millam, M. Klene, C. Adamo, R. Cammi, 
 J. W. Ochterski, R. L. Martin, K. Morokuma, O. Farkas, 
 J. B. Foresman, and D. J. Fox, Gaussian, Inc., Wallingford CT, 2016.
 
 ******************************************
 Gaussian 16:  EM64W-G16RevA.03 17-Dec-2016
                03-Dec-2025 
 ******************************************
 %nprocs=   4
 Will use up to    4 processors via shared memory.
 ------------------------------------
 #P B3LYP/6-31G* SCF=conver=7 out=wfn
 ------------------------------------
 1/38=1,172=1/1;
 2/12=2,17=6,18=5,40=1/2;
 3/5=1,6=6,7=1,11=2,25=1,30=1,74=-5/1,2,3;
 4//1;
 5/5=2,6=7,38=5/2;
 6/7=2,8=2,9=2,10=2,28=1/1;
 99/5=1,6=100,9=1/99;
 Leave Link    1 at Wed Dec 03 17:01:06 2025, MaxMem=           0 cpu:               0.0 elap:               0.1
 (Enter D:\Gaussian\G16W\l101.exe)
 ----------------------------------------------------
 Generated by Multiwfn (http://sobereva.com/multiwfn)
 ----------------------------------------------------
 Symbolic Z-matrix:
 Charge = -1 Multiplicity = 1
 C                    -0.86252   1.22763  -0.00007 
 C                     0.5101    1.19645  -0.00005 
 C                     1.17054  -0.09374  -0.0001 
 C                     0.3272   -1.28902   0.00001 
 C                    -1.05571  -1.20751   0.00002 
 C                    -1.66344   0.04854  -0.00005 
 H                    -1.64502  -2.11686   0.00005 
 O                     0.97947  -2.45224   0.00005 
 O                     2.41365  -0.25923   0.00017 
 H                     1.92648  -2.19742  -0.00006 
 C                     1.36798   2.42629   0. 
 H                     0.76185   3.33368  -0.00005 
 H                     2.02475   2.44026   0.87477 
 H                     2.02487   2.44024  -0.87468 
 H                    -1.36884   2.18853  -0.00008 
 C                    -3.16179   0.1796   -0.00003 
 H                    -3.50567   0.73422   0.87951 
 H                    -3.50569   0.73436  -0.87948 
 H                    -3.65186  -0.79477  -0.0001 
 
 ITRead=  0  0  0  0  0  0  0  0  0  0  0  0  0  0  0  0  0  0  0
 MicOpt= -1 -1 -1 -1 -1 -1 -1 -1 -1 -1 -1 -1 -1 -1 -1 -1 -1 -1 -1
 NAtoms=     19 NQM=       19 NQMF=       0 NMMI=      0 NMMIF=      0
                NMic=       0 NMicF=      0.
                    Isotopes and Nuclear Properties:
 (Nuclear quadrupole moments (NQMom) in fm**2, nuclear magnetic moments (NMagM)
  in nuclear magnetons)

  Atom         1           2           3           4           5           6           7           8           9          10
 IAtWgt=          12          12          12          12          12          12           1          16          16           1
 AtmWgt=  12.0000000  12.0000000  12.0000000  12.0000000  12.0000000  12.0000000   1.0078250  15.9949146  15.9949146   1.0078250
 NucSpn=           0           0           0           0           0           0           1           0           0           1
 AtZEff=   0.0000000   0.0000000   0.0000000   0.0000000   0.0000000   0.0000000   0.0000000   0.0000000   0.0000000   0.0000000
 NQMom=    0.0000000   0.0000000   0.0000000   0.0000000   0.0000000   0.0000000   0.0000000   0.0000000   0.0000000   0.0000000
 NMagM=    0.0000000   0.0000000   0.0000000   0.0000000   0.0000000   0.0000000   2.7928460   0.0000000   0.0000000   2.7928460
 AtZNuc=   6.0000000   6.0000000   6.0000000   6.0000000   6.0000000   6.0000000   1.0000000   8.0000000   8.0000000   1.0000000

  Atom        11          12          13          14          15          16          17          18          19
 IAtWgt=          12           1           1           1           1          12           1           1           1
 AtmWgt=  12.0000000   1.0078250   1.0078250   1.0078250   1.0078250  12.0000000   1.0078250   1.0078250   1.0078250
 NucSpn=           0           1           1           1           1           0           1           1           1
 AtZEff=   0.0000000   0.0000000   0.0000000   0.0000000   0.0000000   0.0000000   0.0000000   0.0000000   0.0000000
 NQMom=    0.0000000   0.0000000   0.0000000   0.0000000   0.0000000   0.0000000   0.0000000   0.0000000   0.0000000
 NMagM=    0.0000000   2.7928460   2.7928460   2.7928460   2.7928460   0.0000000   2.7928460   2.7928460   2.7928460
 AtZNuc=   6.0000000   1.0000000   1.0000000   1.0000000   1.0000000   6.0000000   1.0000000   1.0000000   1.0000000
 Leave Link  101 at Wed Dec 03 17:01:06 2025, MaxMem=   104857600 cpu:               0.0 elap:               0.1
 (Enter D:\Gaussian\G16W\l202.exe)
                          Input orientation:                          
 ---------------------------------------------------------------------
 Center     Atomic      Atomic             Coordinates (Angstroms)
 Number     Number       Type             X           Y           Z
 ---------------------------------------------------------------------
      1          6           0       -0.862515    1.227633   -0.000068
      2          6           0        0.510097    1.196453   -0.000050
      3          6           0        1.170544   -0.093741   -0.000098
      4          6           0        0.327195   -1.289020    0.000014
      5          6           0       -1.055706   -1.207505    0.000015
      6          6           0       -1.663440    0.048544   -0.000051
      7          1           0       -1.645023   -2.116855    0.000054
      8          8           0        0.979466   -2.452242    0.000047
      9          8           0        2.413654   -0.259227    0.000167
     10          1           0        1.926481   -2.197420   -0.000064
     11          6           0        1.367980    2.426288    0.000002
     12          1           0        0.761848    3.333677   -0.000046
     13          1           0        2.024750    2.440262    0.874774
     14          1           0        2.024873    2.440243   -0.874676
     15          1           0       -1.368839    2.188534   -0.000076
     16          6           0       -3.161792    0.179601   -0.000032
     17          1           0       -3.505673    0.734219    0.879509
     18          1           0       -3.505685    0.734355   -0.879480
     19          1           0       -3.651863   -0.794769   -0.000100
 ---------------------------------------------------------------------
                    Distance matrix (angstroms):
                    1          2          3          4          5
     1  C    0.000000
     2  C    1.372966   0.000000
     3  C    2.424739   1.449411   0.000000
     4  C    2.783694   2.492194   1.462850   0.000000
     5  C    2.442789   2.868929   2.489309   1.385301   0.000000
     6  C    1.425388   2.458039   2.837554   2.398271   1.395349
     7  H    3.434810   3.952537   3.467046   2.138914   1.083611
     8  O    4.115140   3.678761   2.366229   1.333620   2.385644
     9  O    3.597782   2.396358   1.254077   2.326754   3.596622
    10  H    4.416954   3.677570   2.235376   1.839268   3.142192
    11  C    2.532169   1.499486   2.527751   3.858335   4.367918
    12  H    2.659695   2.152000   3.451699   4.643086   4.891404
    13  H    3.251479   2.146288   2.813581   4.189802   4.853928
    14  H    3.251518   2.146283   2.813510   4.189820   4.853979
    15  H    1.086138   2.124765   3.414271   3.869097   3.410445
    16  C    2.526865   3.810086   4.340950   3.785483   2.521837
    17  H    2.829028   4.136870   4.829724   4.422430   3.247482
    18  H    2.828964   4.136839   4.829718   4.422502   3.247573
    19  H    3.445370   4.613770   4.873094   4.009637   2.628761
                    6          7          8          9         10
     6  C    0.000000
     7  H    2.165477   0.000000
     8  O    3.638528   2.645832   0.000000
     9  O    4.088694   4.463591   2.620345   0.000000
    10  H    4.234606   3.572413   0.980700   1.998482   0.000000
    11  C    3.852684   5.451453   4.893976   2.881913   4.657317
    12  H    4.083396   5.958299   5.790010   3.954418   5.652380
    13  H    4.482006   5.916053   5.078815   2.864162   4.720497
    14  H    4.482058   5.916116   5.078821   2.864200   4.720439
    15  H    2.160173   4.314238   5.201090   4.505418   5.485957
    16  C    1.504073   2.752144   4.906793   5.592689   5.616115
    17  H    2.153508   3.516260   5.571666   6.066186   6.235098
    18  H    2.153508   3.516396   5.571763   6.066264   6.235151
    19  H    2.159862   2.403189   4.918986   6.089113   5.751987
                   11         12         13         14         15
    11  C    0.000000
    12  H    1.091215   0.000000
    13  H    1.093969   1.777195   0.000000
    14  H    1.093967   1.777198   1.749450   0.000000
    15  H    2.747127   2.418921   3.513570   3.513625   0.000000
    16  C    5.056326   5.034198   5.725041   5.725120   2.692674
    17  H    5.233462   5.073710   5.787589   6.047696   2.730341
    18  H    5.233425   5.073630   6.047581   5.787672   2.730220
    19  H    5.964397   6.043584   6.592023   6.592080   3.756634
                   16         17         18         19
    16  C    0.000000
    17  H    1.095193   0.000000
    18  H    1.095191   1.758989   0.000000
    19  H    1.090672   1.769997   1.769999   0.000000
 Stoichiometry    C8H9O2(1-)
 Framework group  C1[X(C8H9O2)]
 Deg. of freedom    51
 Full point group                 C1      NOp   1
 Largest Abelian subgroup         C1      NOp   1
 Largest concise Abelian subgroup C1      NOp   1
                         Standard orientation:                         
 ---------------------------------------------------------------------
 Center     Atomic      Atomic             Coordinates (Angstroms)
 Number     Number       Type             X           Y           Z
 ---------------------------------------------------------------------
      1          6           0       -0.862515    1.227633   -0.000068
      2          6           0        0.510097    1.196453   -0.000050
      3          6           0        1.170544   -0.093741   -0.000098
      4          6           0        0.327195   -1.289020    0.000014
      5          6           0       -1.055706   -1.207505    0.000015
      6          6           0       -1.663440    0.048544   -0.000051
      7          1           0       -1.645023   -2.116855    0.000054
      8          8           0        0.979466   -2.452242    0.000047
      9          8           0        2.413654   -0.259227    0.000167
     10          1           0        1.926481   -2.197420   -0.000064
     11          6           0        1.367980    2.426288    0.000002
     12          1           0        0.761847    3.333677   -0.000046
     13          1           0        2.024750    2.440262    0.874774
     14          1           0        2.024873    2.440243   -0.874676
     15          1           0       -1.368839    2.188534   -0.000076
     16          6           0       -3.161792    0.179600   -0.000032
     17          1           0       -3.505673    0.734218    0.879509
     18          1           0       -3.505685    0.734354   -0.879480
     19          1           0       -3.651863   -0.794770   -0.000100
 ---------------------------------------------------------------------
 Rotational constants (GHZ):           1.7878178           1.3098515           0.7630600
 Leave Link  202 at Wed Dec 03 17:01:06 2025, MaxMem=   104857600 cpu:               0.0 elap:               0.0
 (Enter D:\Gaussian\G16W\l301.exe)
 Standard basis: 6-31G(d) (6D, 7F)
 Ernie: Thresh=  0.10000D-02 Tol=  0.10000D-05 Strict=F.
 There are   168 symmetry adapted cartesian basis functions of A   symmetry.
 There are   168 symmetry adapted basis functions of A   symmetry.
   168 basis functions,   316 primitive gaussians,   168 cartesian basis functions
    37 alpha electrons       37 beta electrons
       nuclear repulsion energy       505.9615208771 Hartrees.
 IExCor=  402 DFT=T Ex+Corr=B3LYP ExCW=0 ScaHFX=  0.200000
 ScaDFX=  0.800000  0.720000  1.000000  0.810000 ScalE2=  1.000000  1.000000
 IRadAn=      5 IRanWt=     -1 IRanGd=            0 ICorTp=0 IEmpDi=  4
 NAtoms=   19 NActive=   19 NUniq=   19 SFac= 1.00D+00 NAtFMM=   60 NAOKFM=F Big=F
 Integral buffers will be    131072 words long.
 Raffenetti 2 integral format.
 Two-electron integral symmetry is turned on.
 Leave Link  301 at Wed Dec 03 17:01:06 2025, MaxMem=   104857600 cpu:               0.0 elap:               0.1
 (Enter D:\Gaussian\G16W\l302.exe)
 NPDir=0 NMtPBC=     1 NCelOv=     1 NCel=       1 NClECP=     1 NCelD=      1
         NCelK=      1 NCelE2=     1 NClLst=     1 CellRange=     0.0.
 One-electron integrals computed using PRISM.
 One-electron integral symmetry used in STVInt
 NBasis=   168 RedAO= T EigKep=  4.10D-04  NBF=   168
 NBsUse=   168 1.00D-06 EigRej= -1.00D+00 NBFU=   168
 Precomputing XC quadrature grid using
 IXCGrd= 4 IRadAn=           5 IRanWt=          -1 IRanGd=           0 AccXCQ= 0.00D+00.
 Generated NRdTot=       0 NPtTot=           0 NUsed=           0 NTot=          32
 NSgBfM=   168   168   168   168   168 MxSgAt=    19 MxSgA2=    19.
 Leave Link  302 at Wed Dec 03 17:01:07 2025, MaxMem=   104857600 cpu:               1.0 elap:               0.3
 (Enter D:\Gaussian\G16W\l303.exe)
 DipDrv:  MaxL=1.
 Leave Link  303 at Wed Dec 03 17:01:07 2025, MaxMem=   104857600 cpu:               0.0 elap:               0.1
 (Enter D:\Gaussian\G16W\l401.exe)
 ExpMin= 1.61D-01 ExpMax= 5.48D+03 ExpMxC= 8.25D+02 IAcc=3 IRadAn=         5 AccDes= 0.00D+00
 Harris functional with IExCor=  402 and IRadAn=       5 diagonalized for initial guess.
 HarFok:  IExCor=  402 AccDes= 0.00D+00 IRadAn=         5 IDoV= 1 UseB2=F ITyADJ=14
 ICtDFT=  3500011 ScaDFX=  1.000000  1.000000  1.000000  1.000000
 FoFCou: FMM=F IPFlag=           0 FMFlag=      100000 FMFlg1=           0
         NFxFlg=           0 DoJE=T BraDBF=F KetDBF=T FulRan=T
         wScrn=  0.000000 ICntrl=       500 IOpCl=  0 I1Cent=   200000004 NGrid=           0
         NMat0=    1 NMatS0=      1 NMatT0=    0 NMatD0=    1 NMtDS0=    0 NMtDT0=    0
 Petite list used in FoFCou.
 Harris En= -460.987686861469    
 JPrj=0 DoOrth=F DoCkMO=F.
 Leave Link  401 at Wed Dec 03 17:01:08 2025, MaxMem=   104857600 cpu:               1.0 elap:               1.2
 (Enter D:\Gaussian\G16W\l502.exe)
 Keep R1 ints in memory in canonical form, NReq=104755543.
 FoFCou: FMM=F IPFlag=           0 FMFlag=           0 FMFlg1=           0
         NFxFlg=           0 DoJE=F BraDBF=F KetDBF=F FulRan=T
         wScrn=  0.000000 ICntrl=       600 IOpCl=  0 I1Cent=           0 NGrid=           0
         NMat0=    1 NMatS0=  14196 NMatT0=    0 NMatD0=    1 NMtDS0=    0 NMtDT0=    0
 Symmetry not used in FoFCou.
 Two-electron integral symmetry not used.
 Closed shell SCF:
 Using DIIS extrapolation, IDIIS=  1040.
 NGot=   104857600 LenX=     4027843 LenY=     3999178
 Requested convergence on RMS density matrix=1.00D-07 within 128 cycles.
 Requested convergence on MAX density matrix=1.00D-05.
 Requested convergence on             energy=1.00D-05.
 No special actions if energy rises.
 Integral accuracy reduced to 1.0D-05 until final iterations.

 Cycle   1  Pass 0  IDiag  1:
 CalDSu:  requested number of processors reduced to:   3 ShMem   1 Linda.
 E= -460.375402583441    
 DIIS: error= 5.02D-02 at cycle   1 NSaved=   1.
 NSaved= 1 IEnMin= 1 EnMin= -460.375402583441     IErMin= 1 ErrMin= 5.02D-02
 ErrMax= 5.02D-02  0.00D+00 EMaxC= 1.00D-01 BMatC= 3.66D-01 BMatP= 3.66D-01
 IDIUse=3 WtCom= 4.98D-01 WtEn= 5.02D-01
 Coeff-Com:  0.100D+01
 Coeff-En:   0.100D+01
 Coeff:      0.100D+01
 Gap=     0.168 Goal=   None    Shift=    0.000
 GapD=    0.168 DampG=1.000 DampE=0.500 DampFc=0.5000 IDamp=-1.
 Damping current iteration by 5.00D-01
 RMSDP=1.13D-02 MaxDP=2.42D-01              OVMax= 2.85D-01

 Cycle   2  Pass 0  IDiag  1:
 CalDSu:  requested number of processors reduced to:   3 ShMem   1 Linda.
 E= -460.524595680742     Delta-E=       -0.149193097301 Rises=F Damp=T
 DIIS: error= 7.98D-03 at cycle   2 NSaved=   2.
 NSaved= 2 IEnMin= 2 EnMin= -460.524595680742     IErMin= 2 ErrMin= 7.98D-03
 ErrMax= 7.98D-03  0.00D+00 EMaxC= 1.00D-01 BMatC= 2.85D-02 BMatP= 3.66D-01
 IDIUse=3 WtCom= 9.20D-01 WtEn= 7.98D-02
 Coeff-Com:  0.121D+00 0.879D+00
 Coeff-En:   0.184D+00 0.816D+00
 Coeff:      0.126D+00 0.874D+00
 Gap=     0.229 Goal=   None    Shift=    0.000
 RMSDP=3.25D-03 MaxDP=7.42D-02 DE=-1.49D-01 OVMax= 2.22D-01

 Cycle   3  Pass 0  IDiag  1:
 CalDSu:  requested number of processors reduced to:   3 ShMem   1 Linda.
 E= -460.707987686702     Delta-E=       -0.183392005960 Rises=F Damp=F
 DIIS: error= 1.63D-02 at cycle   3 NSaved=   3.
 NSaved= 3 IEnMin= 3 EnMin= -460.707987686702     IErMin= 2 ErrMin= 7.98D-03
 ErrMax= 1.63D-02  0.00D+00 EMaxC= 1.00D-01 BMatC= 4.54D-02 BMatP= 2.85D-02
 IDIUse=2 WtCom= 0.00D+00 WtEn= 1.00D+00
 Coeff-En:   0.000D+00 0.000D+00 0.100D+01
 Coeff:      0.000D+00 0.000D+00 0.100D+01
 Gap=     0.164 Goal=   None    Shift=    0.000
 RMSDP=5.29D-03 MaxDP=1.57D-01 DE=-1.83D-01 OVMax= 3.22D-01

 Cycle   4  Pass 0  IDiag  1:
 CalDSu:  requested number of processors reduced to:   3 ShMem   1 Linda.
 E= -460.507414911663     Delta-E=        0.200572775040 Rises=F Damp=F
 DIIS: error= 3.82D-02 at cycle   4 NSaved=   4.
 NSaved= 4 IEnMin= 3 EnMin= -460.707987686702     IErMin= 2 ErrMin= 7.98D-03
 ErrMax= 3.82D-02  0.00D+00 EMaxC= 1.00D-01 BMatC= 2.76D-01 BMatP= 2.85D-02
 IDIUse=2 WtCom= 0.00D+00 WtEn= 1.00D+00
 Coeff-En:   0.000D+00 0.000D+00 0.805D+00 0.195D+00
 Coeff:      0.000D+00 0.000D+00 0.805D+00 0.195D+00
 Gap=     0.210 Goal=   None    Shift=    0.000
 RMSDP=2.96D-03 MaxDP=8.38D-02 DE= 2.01D-01 OVMax= 1.68D-01

 Cycle   5  Pass 0  IDiag  1:
 CalDSu:  requested number of processors reduced to:   3 ShMem   1 Linda.
 E= -460.729155422847     Delta-E=       -0.221740511184 Rises=F Damp=F
 DIIS: error= 1.02D-02 at cycle   5 NSaved=   5.
 NSaved= 5 IEnMin= 5 EnMin= -460.729155422847     IErMin= 2 ErrMin= 7.98D-03
 ErrMax= 1.02D-02  0.00D+00 EMaxC= 1.00D-01 BMatC= 2.12D-02 BMatP= 2.85D-02
 IDIUse=3 WtCom= 8.98D-01 WtEn= 1.02D-01
 Coeff-Com:  0.381D-03 0.182D-01 0.365D+00-0.384D-01 0.655D+00
 Coeff-En:   0.000D+00 0.000D+00 0.358D+00 0.000D+00 0.642D+00
 Coeff:      0.342D-03 0.163D-01 0.364D+00-0.345D-01 0.653D+00
 Gap=     0.175 Goal=   None    Shift=    0.000
 RMSDP=1.03D-03 MaxDP=2.78D-02 DE=-2.22D-01 OVMax= 6.21D-02

 Cycle   6  Pass 0  IDiag  1:
 CalDSu:  requested number of processors reduced to:   3 ShMem   1 Linda.
 E= -460.747055381067     Delta-E=       -0.017899958220 Rises=F Damp=F
 DIIS: error= 1.16D-03 at cycle   6 NSaved=   6.
 NSaved= 6 IEnMin= 6 EnMin= -460.747055381067     IErMin= 6 ErrMin= 1.16D-03
 ErrMax= 1.16D-03  0.00D+00 EMaxC= 1.00D-01 BMatC= 3.37D-04 BMatP= 2.12D-02
 IDIUse=3 WtCom= 9.88D-01 WtEn= 1.16D-02
 Coeff-Com: -0.331D-02 0.114D-01 0.165D+00-0.577D-01 0.440D+00 0.445D+00
 Coeff-En:   0.000D+00 0.000D+00 0.000D+00 0.000D+00 0.000D+00 0.100D+01
 Coeff:     -0.327D-02 0.113D-01 0.163D+00-0.570D-01 0.435D+00 0.451D+00
 Gap=     0.174 Goal=   None    Shift=    0.000
 RMSDP=1.44D-04 MaxDP=4.24D-03 DE=-1.79D-02 OVMax= 1.04D-02

 Cycle   7  Pass 0  IDiag  1:
 CalDSu:  requested number of processors reduced to:   3 ShMem   1 Linda.
 E= -460.747412592863     Delta-E=       -0.000357211797 Rises=F Damp=F
 DIIS: error= 2.00D-04 at cycle   7 NSaved=   7.
 NSaved= 7 IEnMin= 7 EnMin= -460.747412592863     IErMin= 7 ErrMin= 2.00D-04
 ErrMax= 2.00D-04  0.00D+00 EMaxC= 1.00D-01 BMatC= 9.75D-06 BMatP= 3.37D-04
 IDIUse=3 WtCom= 9.98D-01 WtEn= 2.00D-03
 Coeff-Com: -0.820D-03 0.241D-02 0.491D-01-0.202D-01 0.133D+00 0.179D+00
 Coeff-Com:  0.657D+00
 Coeff-En:   0.000D+00 0.000D+00 0.000D+00 0.000D+00 0.000D+00 0.000D+00
 Coeff-En:   0.100D+01
 Coeff:     -0.818D-03 0.241D-02 0.490D-01-0.201D-01 0.133D+00 0.178D+00
 Coeff:      0.658D+00
 Gap=     0.173 Goal=   None    Shift=    0.000
 RMSDP=2.93D-05 MaxDP=6.34D-04 DE=-3.57D-04 OVMax= 2.09D-03

 Cycle   8  Pass 0  IDiag  1:
 CalDSu:  requested number of processors reduced to:   3 ShMem   1 Linda.
 E= -460.747420634953     Delta-E=       -0.000008042089 Rises=F Damp=F
 DIIS: error= 1.02D-04 at cycle   8 NSaved=   8.
 NSaved= 8 IEnMin= 8 EnMin= -460.747420634953     IErMin= 8 ErrMin= 1.02D-04
 ErrMax= 1.02D-04  0.00D+00 EMaxC= 1.00D-01 BMatC= 2.44D-06 BMatP= 9.75D-06
 IDIUse=3 WtCom= 9.99D-01 WtEn= 1.02D-03
 Coeff-Com:  0.113D-03-0.853D-03 0.113D-01-0.436D-02 0.255D-01 0.525D-01
 Coeff-Com:  0.424D+00 0.492D+00
 Coeff-En:   0.000D+00 0.000D+00 0.000D+00 0.000D+00 0.000D+00 0.000D+00
 Coeff-En:   0.112D+00 0.888D+00
 Coeff:      0.113D-03-0.852D-03 0.112D-01-0.435D-02 0.254D-01 0.524D-01
 Coeff:      0.423D+00 0.493D+00
 Gap=     0.174 Goal=   None    Shift=    0.000
 RMSDP=1.23D-05 MaxDP=2.96D-04 DE=-8.04D-06 OVMax= 5.87D-04

 Cycle   9  Pass 0  IDiag  1:
 CalDSu:  requested number of processors reduced to:   3 ShMem   1 Linda.
 E= -460.747422944216     Delta-E=       -0.000002309263 Rises=F Damp=F
 DIIS: error= 1.66D-05 at cycle   9 NSaved=   9.
 NSaved= 9 IEnMin= 9 EnMin= -460.747422944216     IErMin= 9 ErrMin= 1.66D-05
 ErrMax= 1.66D-05  0.00D+00 EMaxC= 1.00D-01 BMatC= 8.81D-08 BMatP= 2.44D-06
 IDIUse=1 WtCom= 1.00D+00 WtEn= 0.00D+00
 Coeff-Com:  0.122D-03-0.482D-03 0.174D-02-0.830D-03 0.256D-02 0.131D-01
 Coeff-Com:  0.168D+00 0.245D+00 0.571D+00
 Coeff:      0.122D-03-0.482D-03 0.174D-02-0.830D-03 0.256D-02 0.131D-01
 Coeff:      0.168D+00 0.245D+00 0.571D+00
 Gap=     0.174 Goal=   None    Shift=    0.000
 RMSDP=2.79D-06 MaxDP=7.04D-05 DE=-2.31D-06 OVMax= 1.62D-04

 Initial convergence to 1.0D-05 achieved.  Increase integral accuracy.
 Cycle  10  Pass 1  IDiag  1:
 CalDSu:  requested number of processors reduced to:   3 ShMem   1 Linda.
 E= -460.747423380207     Delta-E=       -0.000000435991 Rises=F Damp=F
 DIIS: error= 8.03D-06 at cycle   1 NSaved=   1.
 NSaved= 1 IEnMin= 1 EnMin= -460.747423380207     IErMin= 1 ErrMin= 8.03D-06
 ErrMax= 8.03D-06  0.00D+00 EMaxC= 1.00D-01 BMatC= 1.74D-08 BMatP= 1.74D-08
 IDIUse=1 WtCom= 1.00D+00 WtEn= 0.00D+00
 Coeff-Com:  0.100D+01
 Coeff:      0.100D+01
 Gap=     0.174 Goal=   None    Shift=    0.000
 RMSDP=2.79D-06 MaxDP=7.04D-05 DE=-4.36D-07 OVMax= 1.67D-04

 Cycle  11  Pass 1  IDiag  1:
 CalDSu:  requested number of processors reduced to:   3 ShMem   1 Linda.
 E= -460.747423356030     Delta-E=        0.000000024177 Rises=F Damp=F
 DIIS: error= 1.39D-05 at cycle   2 NSaved=   2.
 NSaved= 2 IEnMin= 1 EnMin= -460.747423380207     IErMin= 1 ErrMin= 8.03D-06
 ErrMax= 1.39D-05  0.00D+00 EMaxC= 1.00D-01 BMatC= 4.13D-08 BMatP= 1.74D-08
 IDIUse=1 WtCom= 1.00D+00 WtEn= 0.00D+00
 Coeff-Com:  0.617D+00 0.383D+00
 Coeff:      0.617D+00 0.383D+00
 Gap=     0.174 Goal=   None    Shift=    0.000
 RMSDP=1.74D-06 MaxDP=3.27D-05 DE= 2.42D-08 OVMax= 1.20D-04

 Cycle  12  Pass 1  IDiag  1:
 CalDSu:  requested number of processors reduced to:   3 ShMem   1 Linda.
 E= -460.747423399440     Delta-E=       -0.000000043409 Rises=F Damp=F
 DIIS: error= 2.86D-06 at cycle   3 NSaved=   3.
 NSaved= 3 IEnMin= 3 EnMin= -460.747423399440     IErMin= 3 ErrMin= 2.86D-06
 ErrMax= 2.86D-06  0.00D+00 EMaxC= 1.00D-01 BMatC= 1.85D-09 BMatP= 1.74D-08
 IDIUse=1 WtCom= 1.00D+00 WtEn= 0.00D+00
 Coeff-Com:  0.209D+00 0.196D+00 0.595D+00
 Coeff:      0.209D+00 0.196D+00 0.595D+00
 Gap=     0.174 Goal=   None    Shift=    0.000
 RMSDP=4.70D-07 MaxDP=1.31D-05 DE=-4.34D-08 OVMax= 3.40D-05

 Cycle  13  Pass 1  IDiag  1:
 CalDSu:  requested number of processors reduced to:   3 ShMem   1 Linda.
 E= -460.747423400778     Delta-E=       -0.000000001339 Rises=F Damp=F
 DIIS: error= 1.42D-06 at cycle   4 NSaved=   4.
 NSaved= 4 IEnMin= 4 EnMin= -460.747423400778     IErMin= 4 ErrMin= 1.42D-06
 ErrMax= 1.42D-06  0.00D+00 EMaxC= 1.00D-01 BMatC= 6.97D-10 BMatP= 1.85D-09
 IDIUse=1 WtCom= 1.00D+00 WtEn= 0.00D+00
 Coeff-Com: -0.101D-01 0.433D-01 0.413D+00 0.554D+00
 Coeff:     -0.101D-01 0.433D-01 0.413D+00 0.554D+00
 Gap=     0.174 Goal=   None    Shift=    0.000
 RMSDP=1.95D-07 MaxDP=5.72D-06 DE=-1.34D-09 OVMax= 1.04D-05

 Cycle  14  Pass 1  IDiag  1:
 CalDSu:  requested number of processors reduced to:   3 ShMem   1 Linda.
 E= -460.747423401338     Delta-E=       -0.000000000559 Rises=F Damp=F
 DIIS: error= 4.32D-07 at cycle   5 NSaved=   5.
 NSaved= 5 IEnMin= 5 EnMin= -460.747423401338     IErMin= 5 ErrMin= 4.32D-07
 ErrMax= 4.32D-07  0.00D+00 EMaxC= 1.00D-01 BMatC= 3.79D-11 BMatP= 6.97D-10
 IDIUse=1 WtCom= 1.00D+00 WtEn= 0.00D+00
 Coeff-Com: -0.125D-01 0.201D-01 0.223D+00 0.334D+00 0.435D+00
 Coeff:     -0.125D-01 0.201D-01 0.223D+00 0.334D+00 0.435D+00
 Gap=     0.174 Goal=   None    Shift=    0.000
 RMSDP=5.51D-08 MaxDP=1.52D-06 DE=-5.59D-10 OVMax= 3.11D-06

 SCF Done:  E(RB3LYP) =  -460.747423401     A.U. after   14 cycles
            NFock= 14  Conv=0.55D-07     -V/T= 2.0085
 KE= 4.568442037800D+02 PE=-2.099429447375D+03 EE= 6.758762993163D+02
 Leave Link  502 at Wed Dec 03 17:01:25 2025, MaxMem=   104857600 cpu:              17.0 elap:              17.0
 (Enter D:\Gaussian\G16W\l601.exe)
 Copying SCF densities to generalized density rwf, IOpCl= 0 IROHF=0.

 **********************************************************************

            Population analysis using the SCF density.

 **********************************************************************

 Orbital symmetries:
       Occupied  (A) (A) (A) (A) (A) (A) (A) (A) (A) (A) (A) (A)
                 (A) (A) (A) (A) (A) (A) (A) (A) (A) (A) (A) (A)
                 (A) (A) (A) (A) (A) (A) (A) (A) (A) (A) (A) (A)
                 (A)
       Virtual   (A) (A) (A) (A) (A) (A) (A) (A) (A) (A) (A) (A)
                 (A) (A) (A) (A) (A) (A) (A) (A) (A) (A) (A) (A)
                 (A) (A) (A) (A) (A) (A) (A) (A) (A) (A) (A) (A)
                 (A) (A) (A) (A) (A) (A) (A) (A) (A) (A) (A) (A)
                 (A) (A) (A) (A) (A) (A) (A) (A) (A) (A) (A) (A)
                 (A) (A) (A) (A) (A) (A) (A) (A) (A) (A) (A) (A)
                 (A) (A) (A) (A) (A) (A) (A) (A) (A) (A) (A) (A)
                 (A) (A) (A) (A) (A) (A) (A) (A) (A) (A) (A) (A)
                 (A) (A) (A) (A) (A) (A) (A) (A) (A) (A) (A) (A)
                 (A) (A) (A) (A) (A) (A) (A) (A) (A) (A) (A) (A)
                 (A) (A) (A) (A) (A) (A) (A) (A) (A) (A) (A)
 The electronic state is 1-A.
 Alpha  occ. eigenvalues --  -18.98358 -18.89017 -10.03641 -10.03640 -10.03228
 Alpha  occ. eigenvalues --  -10.02196 -10.00036  -9.99832  -9.99792  -9.99242
 Alpha  occ. eigenvalues --   -0.87899  -0.78634  -0.65624  -0.59925  -0.56483
 Alpha  occ. eigenvalues --   -0.51844  -0.47367  -0.41170  -0.39073  -0.34024
 Alpha  occ. eigenvalues --   -0.30492  -0.28539  -0.27024  -0.25522  -0.25274
 Alpha  occ. eigenvalues --   -0.23984  -0.23493  -0.22063  -0.20870  -0.18965
 Alpha  occ. eigenvalues --   -0.17558  -0.15231  -0.14859  -0.11743  -0.04597
 Alpha  occ. eigenvalues --   -0.03917   0.02811
 Alpha virt. eigenvalues --    0.20177   0.21239   0.24380   0.26402   0.27648
 Alpha virt. eigenvalues --    0.28972   0.29610   0.30654   0.32397   0.32941
 Alpha virt. eigenvalues --    0.33585   0.39135   0.39554   0.41264   0.45641
 Alpha virt. eigenvalues --    0.46751   0.51866   0.53684   0.55426   0.56942
 Alpha virt. eigenvalues --    0.64324   0.67154   0.68017   0.70835   0.71852
 Alpha virt. eigenvalues --    0.72436   0.72992   0.73380   0.76252   0.80393
 Alpha virt. eigenvalues --    0.81211   0.81364   0.83623   0.85213   0.87286
 Alpha virt. eigenvalues --    0.87698   0.88982   0.91017   0.92311   0.92965
 Alpha virt. eigenvalues --    0.95801   0.98035   0.98762   1.01169   1.02003
 Alpha virt. eigenvalues --    1.02334   1.03598   1.05571   1.07452   1.09588
 Alpha virt. eigenvalues --    1.10662   1.12887   1.13451   1.16388   1.17550
 Alpha virt. eigenvalues --    1.20189   1.25612   1.26035   1.30599   1.32584
 Alpha virt. eigenvalues --    1.34811   1.37866   1.41587   1.43540   1.45385
 Alpha virt. eigenvalues --    1.49916   1.54581   1.56367   1.56994   1.58137
 Alpha virt. eigenvalues --    1.60467   1.63807   1.67458   1.70155   1.88273
 Alpha virt. eigenvalues --    1.90377   1.90960   1.92759   1.98228   1.99332
 Alpha virt. eigenvalues --    2.01262   2.04011   2.04863   2.06086   2.06175
 Alpha virt. eigenvalues --    2.07700   2.12648   2.12915   2.13515   2.17167
 Alpha virt. eigenvalues --    2.18346   2.23260   2.27839   2.28975   2.32303
 Alpha virt. eigenvalues --    2.36489   2.41854   2.46233   2.47343   2.49297
 Alpha virt. eigenvalues --    2.51256   2.54043   2.54300   2.55684   2.57245
 Alpha virt. eigenvalues --    2.60797   2.65057   2.65060   2.81508   2.83706
 Alpha virt. eigenvalues --    2.84920   2.87984   2.95471   2.96238   3.06375
 Alpha virt. eigenvalues --    3.06891   3.11405   3.14534   3.26447   3.45753
 Alpha virt. eigenvalues --    3.58962   4.07049   4.27422   4.28788   4.36476
 Alpha virt. eigenvalues --    4.38566   4.41524   4.54247   4.62950   4.79424
 Alpha virt. eigenvalues --    5.16872
          Condensed to atoms (all electrons):
               1          2          3          4          5          6
     1  C    5.147665   0.498009   0.002749  -0.071449  -0.025900   0.513365
     2  C    0.498009   5.071019   0.373170  -0.037906  -0.043277  -0.010404
     3  C    0.002749   0.373170   4.667227   0.340077  -0.022297  -0.044243
     4  C   -0.071449  -0.037906   0.340077   4.977577   0.459829   0.002723
     5  C   -0.025900  -0.043277  -0.022297   0.459829   5.135674   0.525666
     6  C    0.513365  -0.010404  -0.044243   0.002723   0.525666   4.728838
     7  H    0.006581  -0.000066   0.005457  -0.042774   0.316978  -0.051029
     8  O    0.000509   0.004688  -0.054768   0.273588  -0.053230   0.002636
     9  O    0.005739  -0.112293   0.494556  -0.102217   0.007583  -0.000163
    10  H   -0.000142   0.004668  -0.008553  -0.075867   0.008529  -0.000012
    11  C   -0.074128   0.302045  -0.048543   0.011108   0.000108   0.007782
    12  H   -0.002758  -0.031947   0.004016  -0.000019  -0.000015   0.000019
    13  H    0.001008  -0.031648  -0.003769  -0.000029  -0.000012  -0.000056
    14  H    0.001006  -0.031650  -0.003773  -0.000028  -0.000012  -0.000056
    15  H    0.330332  -0.048732   0.005493  -0.000280   0.006668  -0.064720
    16  C   -0.069602   0.006600   0.000768   0.008447  -0.055577   0.328222
    17  H   -0.003059   0.000064   0.000025  -0.000106   0.000551  -0.034536
    18  H   -0.003058   0.000063   0.000025  -0.000107   0.000553  -0.034531
    19  H    0.003446  -0.000092  -0.000015  -0.000073  -0.003446  -0.025384
               7          8          9         10         11         12
     1  C    0.006581   0.000509   0.005739  -0.000142  -0.074128  -0.002758
     2  C   -0.000066   0.004688  -0.112293   0.004668   0.302045  -0.031947
     3  C    0.005457  -0.054768   0.494556  -0.008553  -0.048543   0.004016
     4  C   -0.042774   0.273588  -0.102217  -0.075867   0.011108  -0.000019
     5  C    0.316978  -0.053230   0.007583   0.008529   0.000108  -0.000015
     6  C   -0.051029   0.002636  -0.000163  -0.000012   0.007782   0.000019
     7  H    0.724201  -0.000892  -0.000090  -0.000834   0.000021   0.000000
     8  O   -0.000892   8.337803  -0.028847   0.209215  -0.000052   0.000000
     9  O   -0.000090  -0.028847   8.343469   0.076647   0.006092   0.000426
    10  H   -0.000834   0.209215   0.076647   0.407233  -0.000197  -0.000001
    11  C    0.000021  -0.000052   0.006092  -0.000197   5.256112   0.341611
    12  H    0.000000   0.000000   0.000426  -0.000001   0.341611   0.657075
    13  H    0.000000   0.000002   0.005564  -0.000013   0.356614  -0.034405
    14  H    0.000000   0.000002   0.005560  -0.000013   0.356630  -0.034402
    15  H   -0.000248   0.000004  -0.000094   0.000004  -0.015347   0.008106
    16  C   -0.014358  -0.000083  -0.000001   0.000005  -0.000260  -0.000002
    17  H    0.000174   0.000001   0.000000   0.000000   0.000000   0.000000
    18  H    0.000174   0.000001   0.000000   0.000000   0.000000   0.000000
    19  H    0.008564  -0.000001   0.000000   0.000000   0.000003   0.000000
              13         14         15         16         17         18
     1  C    0.001008   0.001006   0.330332  -0.069602  -0.003059  -0.003058
     2  C   -0.031648  -0.031650  -0.048732   0.006600   0.000064   0.000063
     3  C   -0.003769  -0.003773   0.005493   0.000768   0.000025   0.000025
     4  C   -0.000029  -0.000028  -0.000280   0.008447  -0.000106  -0.000107
     5  C   -0.000012  -0.000012   0.006668  -0.055577   0.000551   0.000553
     6  C   -0.000056  -0.000056  -0.064720   0.328222  -0.034536  -0.034531
     7  H    0.000000   0.000000  -0.000248  -0.014358   0.000174   0.000174
     8  O    0.000002   0.000002   0.000004  -0.000083   0.000001   0.000001
     9  O    0.005564   0.005560  -0.000094  -0.000001   0.000000   0.000000
    10  H   -0.000013  -0.000013   0.000004   0.000005   0.000000   0.000000
    11  C    0.356614   0.356630  -0.015347  -0.000260   0.000000   0.000000
    12  H   -0.034405  -0.034402   0.008106  -0.000002   0.000000   0.000000
    13  H    0.625565  -0.044694   0.000066   0.000004  -0.000001   0.000001
    14  H   -0.044694   0.625563   0.000066   0.000004   0.000001  -0.000001
    15  H    0.000066   0.000066   0.752577  -0.011826   0.003026   0.003026
    16  C    0.000004   0.000004  -0.011826   5.276344   0.349922   0.349923
    17  H   -0.000001   0.000001   0.003026   0.349922   0.656754  -0.050988
    18  H    0.000001  -0.000001   0.003026   0.349923  -0.050988   0.656741
    19  H    0.000000   0.000000   0.000013   0.351742  -0.032698  -0.032694
              19
     1  C    0.003446
     2  C   -0.000092
     3  C   -0.000015
     4  C   -0.000073
     5  C   -0.003446
     6  C   -0.025384
     7  H    0.008564
     8  O   -0.000001
     9  O    0.000000
    10  H    0.000000
    11  C    0.000003
    12  H    0.000000
    13  H    0.000000
    14  H    0.000000
    15  H    0.000013
    16  C    0.351742
    17  H   -0.032698
    18  H   -0.032694
    19  H    0.618022
 Mulliken charges:
               1
     1  C   -0.260311
     2  C    0.087690
     3  C    0.292396
     4  C    0.257504
     5  C   -0.258374
     6  C    0.155880
     7  H    0.048141
     8  O   -0.690575
     9  O   -0.701931
    10  H    0.379332
    11  C   -0.499599
    12  H    0.092295
    13  H    0.125802
    14  H    0.125797
    15  H    0.031867
    16  C   -0.520273
    17  H    0.110873
    18  H    0.110873
    19  H    0.112612
 Sum of Mulliken charges =  -1.00000
 Mulliken charges with hydrogens summed into heavy atoms:
               1
     1  C   -0.228444
     2  C    0.087690
     3  C    0.292396
     4  C    0.257504
     5  C   -0.210233
     6  C    0.155880
     8  O   -0.311243
     9  O   -0.701931
    11  C   -0.155705
    16  C   -0.185915
 Electronic spatial extent (au):  <R**2>=           1519.9794
 Charge=             -1.0000 electrons
 Dipole moment (field-independent basis, Debye):
    X=             -3.0385    Y=              1.2916    Z=             -0.0005  Tot=              3.3016
 Quadrupole moment (field-independent basis, Debye-Ang):
   XX=            -79.4658   YY=            -71.1506   ZZ=            -63.1092
   XY=              0.3186   XZ=             -0.0016   YZ=              0.0007
 Traceless Quadrupole moment (field-independent basis, Debye-Ang):
   XX=             -8.2239   YY=              0.0913   ZZ=              8.1327
   XY=              0.3186   XZ=             -0.0016   YZ=              0.0007
 Octapole moment (field-independent basis, Debye-Ang**2):
  XXX=             -0.2764  YYY=             -1.1978  ZZZ=              0.0014  XYY=              0.8908
  XXY=            -10.8874  XXZ=             -0.0031  XZZ=              7.3893  YZZ=             -3.8434
  YYZ=             -0.0007  XYZ=              0.0013
 Hexadecapole moment (field-independent basis, Debye-Ang**3):
 XXXX=          -1304.9757 YYYY=           -919.6971 ZZZZ=            -76.5555 XXXY=            -18.8983
 XXXZ=             -0.0174 YYYX=            -22.3320 YYYZ=              0.0086 ZZZX=             -0.0100
 ZZZY=              0.0063 XXYY=           -318.8143 XXZZ=           -203.9022 YYZZ=           -155.2084
 XXYZ=              0.0038 YYXZ=             -0.0053 ZZXY=             -5.0578
 N-N= 5.059615208771D+02 E-N=-2.099429434095D+03  KE= 4.568442037800D+02
 No NMR shielding tensors so no spin-rotation constants.
 Leave Link  601 at Wed Dec 03 17:01:25 2025, MaxMem=   104857600 cpu:               0.0 elap:               0.1
 (Enter D:\Gaussian\G16W\l9999.exe)
 1|1|UNPC-PC-20250526LCFF|SP|RB3LYP|6-31G(d)|C8H9O2(1-)|ADMINISTRATOR|0
 3-Dec-2025|0||#P B3LYP/6-31G* SCF=conver=7 out=wfn||Generated by Multi
 wfn (http://sobereva.com/multiwfn)||-1,1|C,0,-0.862515,1.227633,-0.000
 068|C,0,0.510097,1.196453,-0.00005|C,0,1.170544,-0.093741,-0.000098|C,
 0,0.327195,-1.28902,0.000014|C,0,-1.055706,-1.207505,0.000015|C,0,-1.6
 6344,0.048544,-0.000051|H,0,-1.645023,-2.116855,0.000054|O,0,0.979466,
 -2.452242,0.000047|O,0,2.413654,-0.259227,0.000167|H,0,1.926481,-2.197
 42,-0.000064|C,0,1.36798,2.426288,0.000002|H,0,0.761848,3.333677,-0.00
 0046|H,0,2.02475,2.440262,0.874774|H,0,2.024873,2.440243,-0.874676|H,0
 ,-1.368839,2.188534,-0.000076|C,0,-3.161792,0.179601,-0.000032|H,0,-3.
 505673,0.734219,0.879509|H,0,-3.505685,0.734355,-0.87948|H,0,-3.651863
 ,-0.794769,-0.0001||Version=EM64W-G16RevA.03|State=1-A|HF=-460.7474234
 |RMSD=5.512e-008|Dipole=-1.1954286,0.5081576,-0.0001958|Quadrupole=-6.
 1142868,0.0678456,6.0464412,0.236885,-0.0011782,0.0005131|PG=C01 [X(C8
 H9O2)]||@

 Writing a WFN file to "N+1.wfn"


 FAULTILY FAULTLESS, ICILY REGULAR, SPLENDIDLY NULL...
           MAUDE BY TENNYSON
 Job cpu time:       0 days  0 hours  0 minutes 19.0 seconds.
 Elapsed time:       0 days  0 hours  0 minutes 19.0 seconds.
 File lengths (MBytes):  RWF=     15 Int=      0 D2E=      0 Chk=      3 Scr=      1
 Normal termination of Gaussian 16 at Wed Dec 03 17:01:25 2025.
