 Generated by Multiwfn (http://sobereva.com/multiwfn)
GAUSSIAN             36 MOL ORBITALS    316 PRIMITIVES       19 NUCLEI
  C    1    (CENTRE  1)  -1.62991764  2.31988961 -0.00012848  CHARGE =  6.0
  C    2    (CENTRE  2)   0.96394312  2.26096832 -0.00009446  CHARGE =  6.0
  C    3    (CENTRE  3)   2.21200742 -0.17714481 -0.00018517  CHARGE =  6.0
  C    4    (CENTRE  4)   0.61830911 -2.43589499  0.00002648  CHARGE =  6.0
  C    5    (CENTRE  5)  -1.99499506 -2.28185434  0.00002837  CHARGE =  6.0
  C    6    (CENTRE  6)  -3.14344622  0.09173410 -0.00009635  CHARGE =  6.0
  H    7    (CENTRE  7)  -3.10864254 -4.00027695  0.00010207  CHARGE =  1.0
  O    8    (CENTRE  8)   1.85092298 -4.63406581  0.00008884  CHARGE =  8.0
  O    9    (CENTRE  9)   4.56114491 -0.48986769  0.00031561  CHARGE =  8.0
  H   10    (CENTRE 10)   3.64052189 -4.15252177 -0.00012092  CHARGE =  1.0
  C   11    (CENTRE 11)   2.58510670  4.58501988  0.00000381  CHARGE =  6.0
  H   12    (CENTRE 12)   1.43968298  6.29973641 -0.00008690  CHARGE =  1.0
  H   13    (CENTRE 13)   3.82622212  4.61142709  1.65308331  CHARGE =  1.0
  H   14    (CENTRE 14)   3.82645456  4.61139119 -1.65289806  CHARGE =  1.0
  H   15    (CENTRE 15)  -2.58673160  4.13572919 -0.00014359  CHARGE =  1.0
  C   16    (CENTRE 16)  -5.97492117  0.33939553 -0.00006045  CHARGE =  6.0
  H   17    (CENTRE 17)  -6.62476223  1.38747156  1.66203116  CHARGE =  1.0
  H   18    (CENTRE 18)  -6.62478491  1.38772856 -1.66197631  CHARGE =  1.0
  H   19    (CENTRE 19)  -6.90102088 -1.50189705 -0.00018895  CHARGE =  1.0
CENTRE ASSIGNMENTS    1  1  1  1  1  1  1  1  1  1  1  1  1  1  1  1  1  1  1  1
CENTRE ASSIGNMENTS    1  1  1  1  1  1  1  1  2  2  2  2  2  2  2  2  2  2  2  2
CENTRE ASSIGNMENTS    2  2  2  2  2  2  2  2  2  2  2  2  2  2  2  2  3  3  3  3
CENTRE ASSIGNMENTS    3  3  3  3  3  3  3  3  3  3  3  3  3  3  3  3  3  3  3  3
CENTRE ASSIGNMENTS    3  3  3  3  4  4  4  4  4  4  4  4  4  4  4  4  4  4  4  4
CENTRE ASSIGNMENTS    4  4  4  4  4  4  4  4  4  4  4  4  5  5  5  5  5  5  5  5
CENTRE ASSIGNMENTS    5  5  5  5  5  5  5  5  5  5  5  5  5  5  5  5  5  5  5  5
CENTRE ASSIGNMENTS    6  6  6  6  6  6  6  6  6  6  6  6  6  6  6  6  6  6  6  6
CENTRE ASSIGNMENTS    6  6  6  6  6  6  6  6  7  7  7  7  8  8  8  8  8  8  8  8
CENTRE ASSIGNMENTS    8  8  8  8  8  8  8  8  8  8  8  8  8  8  8  8  8  8  8  8
CENTRE ASSIGNMENTS    9  9  9  9  9  9  9  9  9  9  9  9  9  9  9  9  9  9  9  9
CENTRE ASSIGNMENTS    9  9  9  9  9  9  9  9 10 10 10 10 11 11 11 11 11 11 11 11
CENTRE ASSIGNMENTS   11 11 11 11 11 11 11 11 11 11 11 11 11 11 11 11 11 11 11 11
CENTRE ASSIGNMENTS   12 12 12 12 13 13 13 13 14 14 14 14 15 15 15 15 16 16 16 16
CENTRE ASSIGNMENTS   16 16 16 16 16 16 16 16 16 16 16 16 16 16 16 16 16 16 16 16
CENTRE ASSIGNMENTS   16 16 16 16 17 17 17 17 18 18 18 18 19 19 19 19
TYPE ASSIGNMENTS      1  1  1  1  1  1  1  1  1  2  2  2  3  3  3  4  4  4  1  2
TYPE ASSIGNMENTS      3  4  5  6  7  8  9 10  1  1  1  1  1  1  1  1  1  2  2  2
TYPE ASSIGNMENTS      3  3  3  4  4  4  1  2  3  4  5  6  7  8  9 10  1  1  1  1
TYPE ASSIGNMENTS      1  1  1  1  1  2  2  2  3  3  3  4  4  4  1  2  3  4  5  6
TYPE ASSIGNMENTS      7  8  9 10  1  1  1  1  1  1  1  1  1  2  2  2  3  3  3  4
TYPE ASSIGNMENTS      4  4  1  2  3  4  5  6  7  8  9 10  1  1  1  1  1  1  1  1
TYPE ASSIGNMENTS      1  2  2  2  3  3  3  4  4  4  1  2  3  4  5  6  7  8  9 10
TYPE ASSIGNMENTS      1  1  1  1  1  1  1  1  1  2  2  2  3  3  3  4  4  4  1  2
TYPE ASSIGNMENTS      3  4  5  6  7  8  9 10  1  1  1  1  1  1  1  1  1  1  1  1
TYPE ASSIGNMENTS      1  2  2  2  3  3  3  4  4  4  1  2  3  4  5  6  7  8  9 10
TYPE ASSIGNMENTS      1  1  1  1  1  1  1  1  1  2  2  2  3  3  3  4  4  4  1  2
TYPE ASSIGNMENTS      3  4  5  6  7  8  9 10  1  1  1  1  1  1  1  1  1  1  1  1
TYPE ASSIGNMENTS      1  2  2  2  3  3  3  4  4  4  1  2  3  4  5  6  7  8  9 10
TYPE ASSIGNMENTS      1  1  1  1  1  1  1  1  1  1  1  1  1  1  1  1  1  1  1  1
TYPE ASSIGNMENTS      1  1  1  1  1  2  2  2  3  3  3  4  4  4  1  2  3  4  5  6
TYPE ASSIGNMENTS      7  8  9 10  1  1  1  1  1  1  1  1  1  1  1  1
EXPONENTS  0.3047525D+04 0.4573695D+03 0.1039487D+03 0.2921016D+02 0.9286663D+01
EXPONENTS  0.3163927D+01 0.7868272D+01 0.1881289D+01 0.5442493D+00 0.7868272D+01
EXPONENTS  0.1881289D+01 0.5442493D+00 0.7868272D+01 0.1881289D+01 0.5442493D+00
EXPONENTS  0.7868272D+01 0.1881289D+01 0.5442493D+00 0.1687145D+00 0.1687145D+00
EXPONENTS  0.1687145D+00 0.1687145D+00 0.8000000D+00 0.8000000D+00 0.8000000D+00
EXPONENTS  0.8000000D+00 0.8000000D+00 0.8000000D+00 0.3047525D+04 0.4573695D+03
EXPONENTS  0.1039487D+03 0.2921016D+02 0.9286663D+01 0.3163927D+01 0.7868272D+01
EXPONENTS  0.1881289D+01 0.5442493D+00 0.7868272D+01 0.1881289D+01 0.5442493D+00
EXPONENTS  0.7868272D+01 0.1881289D+01 0.5442493D+00 0.7868272D+01 0.1881289D+01
EXPONENTS  0.5442493D+00 0.1687145D+00 0.1687145D+00 0.1687145D+00 0.1687145D+00
EXPONENTS  0.8000000D+00 0.8000000D+00 0.8000000D+00 0.8000000D+00 0.8000000D+00
EXPONENTS  0.8000000D+00 0.3047525D+04 0.4573695D+03 0.1039487D+03 0.2921016D+02
EXPONENTS  0.9286663D+01 0.3163927D+01 0.7868272D+01 0.1881289D+01 0.5442493D+00
EXPONENTS  0.7868272D+01 0.1881289D+01 0.5442493D+00 0.7868272D+01 0.1881289D+01
EXPONENTS  0.5442493D+00 0.7868272D+01 0.1881289D+01 0.5442493D+00 0.1687145D+00
EXPONENTS  0.1687145D+00 0.1687145D+00 0.1687145D+00 0.8000000D+00 0.8000000D+00
EXPONENTS  0.8000000D+00 0.8000000D+00 0.8000000D+00 0.8000000D+00 0.3047525D+04
EXPONENTS  0.4573695D+03 0.1039487D+03 0.2921016D+02 0.9286663D+01 0.3163927D+01
EXPONENTS  0.7868272D+01 0.1881289D+01 0.5442493D+00 0.7868272D+01 0.1881289D+01
EXPONENTS  0.5442493D+00 0.7868272D+01 0.1881289D+01 0.5442493D+00 0.7868272D+01
EXPONENTS  0.1881289D+01 0.5442493D+00 0.1687145D+00 0.1687145D+00 0.1687145D+00
EXPONENTS  0.1687145D+00 0.8000000D+00 0.8000000D+00 0.8000000D+00 0.8000000D+00
EXPONENTS  0.8000000D+00 0.8000000D+00 0.3047525D+04 0.4573695D+03 0.1039487D+03
EXPONENTS  0.2921016D+02 0.9286663D+01 0.3163927D+01 0.7868272D+01 0.1881289D+01
EXPONENTS  0.5442493D+00 0.7868272D+01 0.1881289D+01 0.5442493D+00 0.7868272D+01
EXPONENTS  0.1881289D+01 0.5442493D+00 0.7868272D+01 0.1881289D+01 0.5442493D+00
EXPONENTS  0.1687145D+00 0.1687145D+00 0.1687145D+00 0.1687145D+00 0.8000000D+00
EXPONENTS  0.8000000D+00 0.8000000D+00 0.8000000D+00 0.8000000D+00 0.8000000D+00
EXPONENTS  0.3047525D+04 0.4573695D+03 0.1039487D+03 0.2921016D+02 0.9286663D+01
EXPONENTS  0.3163927D+01 0.7868272D+01 0.1881289D+01 0.5442493D+00 0.7868272D+01
EXPONENTS  0.1881289D+01 0.5442493D+00 0.7868272D+01 0.1881289D+01 0.5442493D+00
EXPONENTS  0.7868272D+01 0.1881289D+01 0.5442493D+00 0.1687145D+00 0.1687145D+00
EXPONENTS  0.1687145D+00 0.1687145D+00 0.8000000D+00 0.8000000D+00 0.8000000D+00
EXPONENTS  0.8000000D+00 0.8000000D+00 0.8000000D+00 0.1873114D+02 0.2825394D+01
EXPONENTS  0.6401217D+00 0.1612778D+00 0.5484672D+04 0.8252349D+03 0.1880470D+03
EXPONENTS  0.5296450D+02 0.1689757D+02 0.5799635D+01 0.1553962D+02 0.3599934D+01
EXPONENTS  0.1013762D+01 0.1553962D+02 0.3599934D+01 0.1013762D+01 0.1553962D+02
EXPONENTS  0.3599934D+01 0.1013762D+01 0.1553962D+02 0.3599934D+01 0.1013762D+01
EXPONENTS  0.2700058D+00 0.2700058D+00 0.2700058D+00 0.2700058D+00 0.8000000D+00
EXPONENTS  0.8000000D+00 0.8000000D+00 0.8000000D+00 0.8000000D+00 0.8000000D+00
EXPONENTS  0.5484672D+04 0.8252349D+03 0.1880470D+03 0.5296450D+02 0.1689757D+02
EXPONENTS  0.5799635D+01 0.1553962D+02 0.3599934D+01 0.1013762D+01 0.1553962D+02
EXPONENTS  0.3599934D+01 0.1013762D+01 0.1553962D+02 0.3599934D+01 0.1013762D+01
EXPONENTS  0.1553962D+02 0.3599934D+01 0.1013762D+01 0.2700058D+00 0.2700058D+00
EXPONENTS  0.2700058D+00 0.2700058D+00 0.8000000D+00 0.8000000D+00 0.8000000D+00
EXPONENTS  0.8000000D+00 0.8000000D+00 0.8000000D+00 0.1873114D+02 0.2825394D+01
EXPONENTS  0.6401217D+00 0.1612778D+00 0.3047525D+04 0.4573695D+03 0.1039487D+03
EXPONENTS  0.2921016D+02 0.9286663D+01 0.3163927D+01 0.7868272D+01 0.1881289D+01
EXPONENTS  0.5442493D+00 0.7868272D+01 0.1881289D+01 0.5442493D+00 0.7868272D+01
EXPONENTS  0.1881289D+01 0.5442493D+00 0.7868272D+01 0.1881289D+01 0.5442493D+00
EXPONENTS  0.1687145D+00 0.1687145D+00 0.1687145D+00 0.1687145D+00 0.8000000D+00
EXPONENTS  0.8000000D+00 0.8000000D+00 0.8000000D+00 0.8000000D+00 0.8000000D+00
EXPONENTS  0.1873114D+02 0.2825394D+01 0.6401217D+00 0.1612778D+00 0.1873114D+02
EXPONENTS  0.2825394D+01 0.6401217D+00 0.1612778D+00 0.1873114D+02 0.2825394D+01
EXPONENTS  0.6401217D+00 0.1612778D+00 0.1873114D+02 0.2825394D+01 0.6401217D+00
EXPONENTS  0.1612778D+00 0.3047525D+04 0.4573695D+03 0.1039487D+03 0.2921016D+02
EXPONENTS  0.9286663D+01 0.3163927D+01 0.7868272D+01 0.1881289D+01 0.5442493D+00
EXPONENTS  0.7868272D+01 0.1881289D+01 0.5442493D+00 0.7868272D+01 0.1881289D+01
EXPONENTS  0.5442493D+00 0.7868272D+01 0.1881289D+01 0.5442493D+00 0.1687145D+00
EXPONENTS  0.1687145D+00 0.1687145D+00 0.1687145D+00 0.8000000D+00 0.8000000D+00
EXPONENTS  0.8000000D+00 0.8000000D+00 0.8000000D+00 0.8000000D+00 0.1873114D+02
EXPONENTS  0.2825394D+01 0.6401217D+00 0.1612778D+00 0.1873114D+02 0.2825394D+01
EXPONENTS  0.6401217D+00 0.1612778D+00 0.1873114D+02 0.2825394D+01 0.6401217D+00
EXPONENTS  0.1612778D+00
MO    1     MO 0.0        OCC NO =    2.0000000  ORB. ENERGY =  -19.411894
  0.77485910D-05  0.14294637D-04  0.23075977D-04  0.30038065D-04  0.25631536D-04
  0.88499533D-05 -0.30731637D-04 -0.14164183D-04  0.39717849D-04 -0.22239168D-04
 -0.17051584D-04 -0.85099353D-05 -0.40866960D-04 -0.31334193D-04 -0.15637958D-04
  0.10208395D-07  0.78271497D-08  0.39062963D-08 -0.23334513D-03 -0.56637956D-04
  0.10392511D-03  0.20640375D-08 -0.25569434D-04  0.16651233D-04  0.35110760D-04
 -0.22241414D-04  0.62264363D-08  0.12581761D-07 -0.43016497D-05 -0.79357038D-05
 -0.12810686D-04 -0.16675707D-04 -0.14229411D-04 -0.49130738D-05  0.30280971D-04
  0.13956472D-04 -0.39135403D-04  0.41653237D-04  0.31937060D-04  0.15938831D-04
 -0.67936228D-04 -0.52089191D-04 -0.25996157D-04  0.13875614D-07  0.10638941D-07
  0.53095771D-08  0.42389801D-03 -0.84919802D-04 -0.19866178D-03 -0.27242583D-07
  0.15326919D-04  0.55765459D-04 -0.19769203D-05 -0.11172335D-04  0.98137761D-08
  0.44597815D-07  0.30030075D-04  0.55399624D-04  0.89432171D-04  0.11641411D-03
  0.99336374D-04  0.34298463D-04 -0.13948648D-03 -0.64289193D-04  0.18027361D-03
  0.53674910D-04  0.41154517D-04  0.20538988D-04  0.67435823D-04  0.51705512D-04
  0.25804674D-04  0.78330478D-08  0.60058842D-08  0.29973572D-08 -0.48539359D-03
  0.53416219D-03 -0.65617049D-04  0.16557975D-07  0.63020184D-04 -0.76734054D-04
  0.84005643D-04 -0.38870813D-04  0.95223638D-07  0.17779135D-07 -0.31197868D-04
 -0.57553974D-04 -0.92909960D-04 -0.12094116D-03 -0.10319931D-03 -0.35632243D-04
 -0.72304923D-04 -0.33325273D-04  0.93447543D-04  0.22041195D-03  0.16899790D-03
  0.84341799D-04 -0.50001396D-03 -0.38337899D-03 -0.19133298D-03  0.38987526D-07
  0.29893162D-07  0.14918783D-07  0.42588597D-04 -0.30548787D-03  0.78241954D-03
 -0.57275492D-07 -0.13736740D-03 -0.16896972D-03 -0.13286014D-03  0.22827921D-03
 -0.69473747D-08 -0.40634586D-07  0.68232639D-05  0.12587590D-04  0.20320273D-04
  0.26450957D-04  0.22570650D-04  0.77931029D-05 -0.59199441D-04 -0.27284968D-04
  0.76509899D-04 -0.55624207D-05 -0.42649114D-05 -0.21284897D-05  0.20875171D-04
  0.16005757D-04  0.79879946D-05  0.22191408D-08  0.17014964D-08  0.84916594D-09
 -0.35683872D-03 -0.11770614D-03 -0.28810836D-03  0.20791480D-07 -0.65378373D-04
 -0.48893813D-04  0.28109135D-04 -0.10985922D-05  0.13222267D-07  0.15717030D-08
  0.10105294D-05  0.18642294D-05  0.30094442D-05  0.39174022D-05  0.33427264D-05
  0.11541631D-05  0.47312033D-05  0.21806073D-05 -0.61146504D-05  0.79111428D-04
  0.60657625D-04  0.30272406D-04 -0.61390390D-04 -0.47070257D-04 -0.23491357D-04
  0.20867202D-07  0.15999647D-07  0.79849453D-08  0.32615589D-03  0.40467654D-04
 -0.25906971D-04 -0.51488560D-08  0.46533720D-05  0.42148596D-04  0.22805204D-04
  0.66306699D-05 -0.39141668D-08 -0.47628983D-10 -0.12703040D-04 -0.21546761D-04
 -0.24530226D-04 -0.12744173D-03  0.82561460D+00  0.15195716D+01  0.24589537D+01
  0.32323634D+01  0.27723793D+01  0.94792358D+00 -0.15732819D-01 -0.70199533D-02
  0.20730016D-01  0.12549954D-02  0.96690628D-03  0.42452394D-03  0.31416875D-02
  0.24205008D-02  0.10627302D-02 -0.39271363D-06 -0.30256468D-06 -0.13284219D-06
  0.40525618D-02 -0.24441771D-03  0.31008930D-03  0.94285367D-08 -0.92596949D-02
 -0.92237000D-02 -0.92801271D-02 -0.23181925D-03 -0.47505938D-09  0.21017557D-07
 -0.10492794D-04 -0.19312342D-04 -0.31251015D-04 -0.41080334D-04 -0.35234364D-04
 -0.12047227D-04 -0.18739697D-03 -0.83616164D-04  0.24691965D-03 -0.85002297D-04
 -0.65489687D-04 -0.28753500D-04  0.91233588D-04  0.70290561D-04  0.30861342D-04
 -0.10687337D-06 -0.82340170D-07 -0.36151770D-07 -0.58772038D-03  0.16424066D-03
 -0.82992591D-04  0.83188616D-07  0.12123347D-03  0.23636841D-03  0.19600801D-03
  0.30612117D-04 -0.86014916D-07  0.30578314D-07  0.81849615D-04  0.13883244D-03
  0.15805582D-03 -0.21593595D-03  0.41676013D-05  0.76884105D-05  0.12411479D-04
  0.16156057D-04  0.13785993D-04  0.47599721D-05 -0.16017337D-04 -0.73823759D-05
  0.20700953D-04 -0.51147614D-05 -0.39216746D-05 -0.19571905D-05 -0.35789913D-04
 -0.27441436D-04 -0.13695200D-04 -0.13695870D-07 -0.10501124D-07 -0.52407971D-08
  0.52652558D-04 -0.24510197D-04  0.11575544D-04  0.10281198D-07  0.22021635D-04
 -0.11703444D-04  0.12415989D-04 -0.11140497D-04  0.10418219D-07 -0.19735310D-07
 -0.37080179D-05 -0.62895001D-05 -0.71603736D-05 -0.13635731D-04  0.43473062D-05
  0.73738542D-05  0.83948724D-05 -0.20872713D-05  0.43543725D-05  0.73858399D-05
  0.84085177D-05 -0.20866379D-05 -0.58445715D-05 -0.99134994D-05 -0.11286169D-04
 -0.31826576D-04  0.62455867D-05  0.11521888D-04  0.18599900D-04  0.24211543D-04
  0.20659753D-04  0.71333163D-05 -0.22700175D-04 -0.10462490D-04  0.29337914D-04
 -0.13862627D-04 -0.10628983D-04 -0.53046074D-05  0.70723443D-06  0.54226251D-06
  0.27062700D-06 -0.41562044D-08 -0.31867139D-08 -0.15903936D-08 -0.68196379D-04
 -0.22483282D-04  0.44490137D-05  0.42106169D-08 -0.49009160D-05  0.21126617D-04
  0.20682554D-04  0.57499555D-05  0.40588931D-08  0.37753698D-08  0.34638160D-05
  0.58752875D-05  0.66888072D-05  0.30155785D-05  0.34653018D-05  0.58778078D-05
  0.66916764D-05  0.30181821D-05  0.26873528D-05  0.45582589D-05  0.51894167D-05
  0.65656400D-05
MO    2     MO 0.0        OCC NO =    2.0000000  ORB. ENERGY =  -19.382509
 -0.39196599D-05 -0.72310072D-05 -0.11673088D-04 -0.15194892D-04 -0.12965829D-04
 -0.44767891D-05  0.24998675D-04  0.11521866D-04 -0.32308516D-04  0.12824978D-03
  0.98333796D-04  0.49075456D-04 -0.14888585D-04 -0.11415623D-04 -0.56971957D-05
 -0.22986758D-07 -0.17624788D-07 -0.87960045D-08  0.61839966D-03  0.17987308D-03
 -0.20546254D-03 -0.12023587D-07  0.70961762D-04 -0.37186338D-05  0.54824419D-05
  0.31489248D-04 -0.31184805D-07 -0.29508255D-07  0.76866332D-05  0.14180337D-04
  0.22891461D-04  0.29797881D-04  0.25426586D-04  0.87791890D-05 -0.62941147D-04
 -0.29009517D-04  0.81345714D-04 -0.12770021D-03 -0.97912418D-04 -0.48865159D-04
 -0.58246926D-04 -0.44660048D-04 -0.22288494D-04 -0.63848408D-07 -0.48954909D-07
 -0.24431931D-07 -0.65353351D-03  0.44009858D-03  0.49040211D-03  0.91269521D-07
 -0.10876225D-03 -0.94368189D-05  0.18032753D-04  0.48391750D-04 -0.29901908D-07
 -0.59566784D-07 -0.46153302D-04 -0.85143830D-04 -0.13744854D-03 -0.17891716D-03
 -0.15267034D-03 -0.52713399D-04 -0.72786338D-04 -0.33547157D-04  0.94069729D-04
  0.17960680D-03  0.13771110D-03  0.68727492D-04 -0.33267436D-04 -0.25507360D-04
 -0.12729960D-04  0.58755068D-07  0.45049659D-07  0.22482937D-07 -0.23769334D-04
 -0.11778340D-02  0.14800139D-03 -0.15458980D-06 -0.91913229D-03 -0.15881161D-03
 -0.20451196D-03  0.22429472D-03 -0.44436941D-06  0.45461978D-07  0.24555914D-04
  0.45300866D-04  0.73129644D-04  0.95193068D-04  0.81228418D-04  0.28046221D-04
 -0.11103688D-03 -0.51176799D-04  0.14350509D-03 -0.38128736D-04 -0.29234696D-04
 -0.14590162D-04 -0.92524241D-04 -0.70941720D-04 -0.35404890D-04 -0.21264229D-07
 -0.16304062D-07 -0.81368696D-08 -0.56729257D-03  0.32186831D-03 -0.52335256D-03
  0.89324880D-07 -0.55061354D-04  0.79708113D-04  0.59049807D-04 -0.12507985D-03
 -0.14263618D-07  0.53132941D-07 -0.45346431D-05 -0.83655310D-05 -0.13504561D-04
 -0.17578926D-04 -0.15000129D-04 -0.51791841D-05  0.28588247D-04  0.13176297D-04
 -0.36947712D-04  0.11991135D-03  0.91940420D-04  0.45884713D-04  0.93585802D-05
  0.71755657D-05  0.35811102D-05 -0.24910688D-07 -0.19099936D-07 -0.95322066D-08
  0.60276993D-03  0.14022444D-03  0.25079906D-03 -0.26971091D-07  0.42182319D-04
  0.24125472D-04  0.68449038D-06 -0.17523972D-04 -0.25515968D-07  0.16175757D-07
  0.12043769D-04  0.22218402D-04  0.35867391D-04  0.46688685D-04  0.39839540D-04
  0.13755636D-04 -0.51718574D-04 -0.23837043D-04  0.66841557D-04  0.42412885D-04
  0.32519510D-04  0.16229515D-04  0.15227397D-05  0.11675403D-05  0.58268441D-06
 -0.44657652D-07 -0.34240655D-07 -0.17088487D-07 -0.43898365D-03 -0.24271894D-03
  0.56316585D-04  0.17158428D-07  0.20562126D-04 -0.51509126D-04  0.49308000D-04
 -0.33782849D-05  0.51449135D-08  0.81528968D-08  0.13557619D-04  0.22996288D-04
  0.26180461D-04  0.71279294D-04  0.11007050D-03  0.20258848D-03  0.32782641D-03
  0.43093699D-03  0.36961215D-03  0.12637667D-03 -0.16207501D-03 -0.72317554D-04
  0.21355470D-03 -0.14667579D-03 -0.11300579D-03 -0.49615626D-04  0.95581938D-04
  0.73640730D-04  0.32332247D-04  0.15399399D-06  0.11864406D-06  0.52091134D-07
 -0.51245365D-03  0.18309975D-03 -0.14631021D-03 -0.57281730D-07  0.20753300D-03
  0.10270084D-03  0.16274706D-03  0.12782479D-03 -0.11065273D-07 -0.72368924D-07
  0.82561410D+00  0.15195707D+01  0.24589522D+01  0.32323615D+01  0.27723777D+01
  0.94792301D+00 -0.15499698D-01 -0.69159350D-02  0.20422849D-01 -0.33564695D-02
 -0.25859788D-02 -0.11353840D-02  0.21634015D-03  0.16667842D-03  0.73180804D-04
 -0.61687189D-06 -0.47526654D-06 -0.20866761D-06  0.45713251D-02 -0.62828960D-03
  0.78181402D-04 -0.20316283D-06 -0.88599993D-02 -0.93860893D-02 -0.94111970D-02
 -0.15319438D-03  0.30387624D-06 -0.25922407D-07 -0.12076409D-04 -0.20483876D-04
 -0.23320169D-04 -0.10463823D-03  0.10109363D-04  0.18649801D-04  0.30106561D-04
  0.39189797D-04  0.33440725D-04  0.11546279D-04 -0.33872962D-04 -0.15612017D-04
  0.43777726D-04  0.10811734D-03  0.82897517D-04  0.41371671D-04  0.48798404D-04
  0.37415521D-04  0.18672967D-04  0.40957707D-07  0.31403772D-07  0.15672683D-07
 -0.39235006D-03  0.55939530D-04  0.11781115D-03 -0.29937935D-07  0.21882929D-04
  0.31153317D-04  0.10382280D-04 -0.98477955D-04 -0.10832860D-07  0.45289663D-07
  0.79473436D-05  0.13480199D-04  0.15346730D-04 -0.10924966D-04  0.16976710D-04
  0.28795714D-04  0.32782903D-04  0.12078508D-04  0.16959928D-04  0.28767248D-04
  0.32750495D-04  0.12071827D-04  0.84347983D-05  0.14307014D-04  0.16288030D-04
  0.65331206D-04 -0.41615359D-06 -0.76772212D-06 -0.12393415D-05 -0.16132544D-05
 -0.13765929D-05 -0.47530446D-06 -0.14180101D-05 -0.65355957D-06  0.18326493D-05
 -0.29989786D-04 -0.22994266D-04 -0.11475750D-04 -0.65132526D-05 -0.49939490D-05
 -0.24923305D-05  0.10235207D-07  0.78477073D-08  0.39165559D-08 -0.90346254D-04
 -0.26339851D-04  0.36886267D-05 -0.90900711D-08 -0.95307852D-05 -0.44295249D-05
 -0.39187724D-05 -0.57296657D-05 -0.89817000D-08 -0.86689720D-08  0.44307540D-06
  0.75153973D-06  0.85560142D-06  0.63479018D-06  0.44033102D-06  0.74688476D-06
  0.85030190D-06  0.62672524D-06  0.18204818D-05  0.30878817D-05  0.35154442D-05
  0.36785244D-05
MO    3     MO 0.0        OCC NO =    2.0000000  ORB. ENERGY =  -10.495789
 -0.43331055D-04 -0.79937336D-04 -0.12904365D-03 -0.16797649D-03 -0.14333464D-03
 -0.49490006D-04  0.10569740D-03  0.48715837D-04 -0.13660429D-03 -0.53733809D-04
 -0.41199677D-04 -0.20561526D-04  0.10501094D-03  0.80515725D-04  0.40182989D-04
 -0.19036522D-07 -0.14595998D-07 -0.72844258D-08  0.65058597D-03  0.22154263D-03
 -0.31795050D-03  0.66003315D-09  0.33429259D-05 -0.32683692D-04 -0.12095967D-03
  0.38319883D-04 -0.21410637D-07 -0.26736740D-07  0.72319981D-04  0.13341624D-03
  0.21537518D-03  0.28035449D-03  0.23922700D-03  0.82599334D-04 -0.48496854D-04
 -0.22352156D-04  0.62677778D-04  0.42486127D-05  0.32575668D-05  0.16257541D-05
  0.19106601D-03  0.14649730D-03  0.73112418D-04 -0.46934524D-07 -0.35986416D-07
 -0.17959744D-07 -0.10495219D-02  0.14492461D-03  0.32416172D-03  0.47846072D-07
  0.18033948D-04 -0.17388638D-04 -0.32313875D-05 -0.87469840D-04 -0.43398492D-07
 -0.69625940D-07  0.32833532D-01  0.60571455D-01  0.97781109D-01  0.12728195D+00
  0.10860992D+00  0.37500395D-01 -0.92309970D-03 -0.42545581D-03  0.11930225D-02
  0.22771551D-03  0.17459781D-03  0.87136544D-04  0.26859120D-03  0.20593870D-03
  0.10277784D-03 -0.95473070D-09 -0.73202694D-09 -0.36533275D-09  0.16916470D-02
 -0.98893105D-03 -0.77500212D-04  0.12982046D-07 -0.89977149D-03 -0.12835488D-02
 -0.10131840D-02 -0.18312898D-03 -0.23000729D-07  0.73793800D-07  0.53153637D+00
  0.98058082D+00  0.15829615D+01  0.20605455D+01  0.17582672D+01  0.60708742D+00
 -0.19728187D-01 -0.90927032D-02  0.25496889D-01  0.74926302D-03  0.57448736D-03
  0.28670946D-03 -0.74468654D-03 -0.57097841D-03 -0.28495824D-03 -0.53656780D-08
 -0.41140616D-08 -0.20532051D-08 -0.32937308D-02  0.82681109D-03 -0.14689553D-02
  0.10818537D-06 -0.98340851D-02 -0.95252696D-02 -0.10487112D-01 -0.81152350D-03
 -0.96983549D-08 -0.12982262D-07  0.14191036D-02  0.26179690D-02  0.42262137D-02
  0.55012744D-02  0.46942475D-02  0.16208108D-02  0.30603014D-03  0.14104901D-03
 -0.39551616D-03 -0.36818156D-03 -0.28229827D-03 -0.14088662D-03 -0.14220980D-03
 -0.10903746D-03 -0.54417333D-04 -0.32926421D-09 -0.25245891D-09 -0.12599469D-09
  0.23307571D-02  0.65701342D-03  0.87521424D-03 -0.56640853D-07 -0.37696967D-03
 -0.27220064D-03 -0.35618651D-03  0.20197108D-03 -0.37159918D-07 -0.43090695D-08
  0.48237301D-04  0.88988402D-04  0.14365487D-03  0.18699596D-03  0.15956399D-03
  0.55093612D-04 -0.67045322D-04 -0.30901128D-04  0.86649987D-04 -0.14793588D-03
 -0.11342785D-03 -0.56608448D-04  0.95520852D-04  0.73239331D-04  0.36551559D-04
 -0.30869098D-07 -0.23668466D-07 -0.11812223D-07 -0.12542662D-02 -0.35223619D-03
  0.24627973D-03 -0.66714822D-08  0.33954770D-04  0.38149719D-04  0.28237267D-04
 -0.57618053D-05 -0.94716565D-10 -0.47028956D-08  0.37972025D-04  0.64407742D-04
  0.73325937D-04  0.32017113D-03  0.12070640D-03  0.22216421D-03  0.35950364D-03
  0.47257759D-03  0.40532705D-03  0.13858820D-03 -0.72315930D-03 -0.32267227D-03
  0.95285554D-03  0.73966195D-04  0.56986966D-04  0.25020348D-04 -0.10800627D-03
 -0.83213006D-04 -0.36534992D-04  0.75138500D-07  0.57890163D-07  0.25416900D-07
 -0.18241708D-02  0.34911504D-03 -0.72104855D-03 -0.10630375D-07  0.50490711D-03
 -0.88067695D-04  0.10462632D-02  0.95552627D-03  0.37428324D-07  0.37307102D-07
 -0.74331899D-04 -0.13681037D-03 -0.22138501D-03 -0.29101679D-03 -0.24960341D-03
 -0.85343646D-04  0.24225647D-03  0.10809436D-03 -0.31920411D-03 -0.87463037D-05
 -0.67385555D-05 -0.29585888D-05 -0.45701308D-04 -0.35210394D-04 -0.15459259D-04
  0.15057912D-06  0.11601309D-06  0.50935997D-07  0.70084021D-03 -0.91143910D-04
  0.72715180D-04 -0.11217262D-06 -0.21452206D-03 -0.20085762D-03 -0.25191891D-03
  0.12938977D-04  0.97910447D-07 -0.60783568D-07  0.63424005D-04  0.10757912D-03
  0.12247502D-03 -0.12012463D-04 -0.21759958D-04 -0.40142873D-04 -0.64803044D-04
 -0.84354309D-04 -0.71979685D-04 -0.24852855D-04  0.69779736D-04  0.32161416D-04
 -0.90183969D-04 -0.26629629D-04 -0.20417910D-04 -0.10189968D-04  0.42784019D-04
  0.32804072D-04  0.16371531D-04  0.29228325D-07  0.22410426D-07  0.11184373D-07
  0.55219923D-04  0.25880995D-04 -0.69872143D-04 -0.23982853D-07 -0.64378882D-04
  0.17495605D-04 -0.46884121D-04  0.66205994D-04 -0.21269712D-07  0.42894345D-07
  0.24705208D-05  0.41904709D-05  0.47707031D-05  0.26071075D-04 -0.15761500D-04
 -0.26734486D-04 -0.30436268D-04 -0.54806820D-05 -0.15775655D-04 -0.26758497D-04
 -0.30463603D-04 -0.54844644D-05  0.20888507D-04  0.35430862D-04  0.40336784D-04
  0.11948007D-03 -0.21816742D-04 -0.40247629D-04 -0.64972153D-04 -0.84574438D-04
 -0.72167522D-04 -0.24917711D-04  0.64901672D-04  0.29913121D-04 -0.83879515D-04
  0.50529518D-05  0.38742829D-05  0.19335387D-05 -0.19458064D-05 -0.14919209D-05
 -0.74457311D-06  0.36420980D-08  0.27925298D-08  0.13936681D-08  0.84065028D-04
  0.36369728D-04 -0.55834989D-04  0.94046845D-09  0.54391945D-05 -0.33782018D-04
 -0.75177359D-04 -0.11074529D-03  0.24871656D-08  0.84050057D-08 -0.58091641D-05
 -0.98534418D-05 -0.11217795D-04  0.29577192D-05 -0.58085184D-05 -0.98523465D-05
 -0.11216548D-04  0.29608120D-05 -0.12923860D-04 -0.21921313D-04 -0.24956640D-04
 -0.19096951D-04
MO    4     MO 0.0        OCC NO =    2.0000000  ORB. ENERGY =  -10.493164
  0.35992733D-04  0.66399564D-04  0.10718948D-03  0.13952886D-03  0.11906023D-03
  0.41108636D-04 -0.91731216D-04 -0.42278834D-04  0.11855426D-03 -0.21092693D-03
 -0.16172539D-03 -0.80712303D-04  0.31332296D-04  0.24023617D-04  0.11989469D-04
  0.49917485D-07  0.38273562D-07  0.19101190D-07 -0.16834465D-02 -0.43210052D-03
  0.70255316D-03 -0.96141990D-08  0.25635911D-04  0.33879348D-04  0.39756582D-04
  0.14855192D-04  0.16986296D-07  0.68390280D-07  0.11495042D-02  0.21206107D-02
  0.34233232D-02  0.44561497D-02  0.38024406D-02  0.13128914D-02  0.25125626D-03
  0.11580378D-03 -0.32472589D-03  0.83980356D-04  0.64390810D-04  0.32135527D-04
  0.49081821D-03  0.37632827D-03  0.18781418D-03  0.75300497D-07  0.57735645D-07
  0.28814133D-07  0.25475088D-02 -0.74488107D-03 -0.14892682D-02 -0.99855253D-07
 -0.32280671D-03 -0.37902598D-03 -0.31738817D-03  0.27855785D-03  0.70455794D-07
  0.36767814D-07  0.53158579D+00  0.98067198D+00  0.15831086D+01  0.20607371D+01
  0.17584307D+01  0.60714386D+00 -0.19974739D-01 -0.92063389D-02  0.25815535D-01
  0.61574809D-03  0.47211658D-03  0.23561926D-03 -0.46412230D-03 -0.35585954D-03
 -0.17759885D-03  0.28887141D-06  0.22148827D-06  0.11053817D-06 -0.37016990D-02
  0.22973060D-02 -0.28782195D-03  0.24948092D-07 -0.91541349D-02 -0.10109439D-01
 -0.10375531D-01 -0.24365835D-03  0.66516339D-06 -0.98853204D-07 -0.33108940D-01
 -0.61079529D-01 -0.98601299D-01 -0.12834959D+00 -0.10952094D+00 -0.37814949D-01
  0.15366049D-02  0.70821980D-03 -0.19859222D-02 -0.20335236D-03 -0.15591769D-03
 -0.77813855D-04 -0.20296890D-03 -0.15562368D-03 -0.77667122D-04  0.53532041D-07
  0.41044974D-07  0.20484318D-07  0.25436821D-02 -0.52715740D-03  0.13760312D-02
 -0.12816315D-06  0.55847480D-04  0.77073901D-04  0.28772078D-03 -0.33156895D-03
  0.96448713D-07 -0.21509581D-07 -0.68268416D-04 -0.12594190D-03 -0.20330927D-03
 -0.26464826D-03 -0.22582484D-03 -0.77971891D-04 -0.10878234D-03 -0.50137683D-04
  0.14059130D-03 -0.16435722D-03 -0.12601869D-03 -0.62892158D-04 -0.35421520D-04
 -0.27158975D-04 -0.13554232D-04  0.49974527D-07  0.38317298D-07  0.19123017D-07
 -0.17524867D-02 -0.43500334D-03 -0.73331571D-03  0.41347697D-07  0.11248100D-03
  0.74805126D-05  0.57041579D-04 -0.77466777D-04  0.16143968D-07 -0.29283022D-07
 -0.72121346D-04 -0.13304980D-03 -0.21478363D-03 -0.27958447D-03 -0.23856994D-03
 -0.82372465D-04  0.16287059D-03  0.75066906D-04 -0.21049544D-03 -0.12127774D-03
 -0.92988076D-04 -0.46407567D-04  0.55088164D-05  0.42238110D-05  0.21079777D-05
  0.64972465D-07  0.49816765D-07  0.24862057D-07  0.14080027D-02  0.75917105D-03
 -0.12270076D-03 -0.85186793D-08 -0.47701712D-04  0.61674324D-04 -0.14973031D-03
  0.95511911D-05  0.18138716D-08 -0.14514065D-07 -0.36408932D-04 -0.61756440D-04
 -0.70307524D-04 -0.20980145D-03 -0.93168439D-04 -0.17147966D-03 -0.27748647D-03
 -0.36476373D-03 -0.31285573D-03 -0.10697069D-03  0.35478373D-03  0.15830381D-03
 -0.46747327D-03  0.16452000D-03  0.12675379D-03  0.55651743D-04  0.10749249D-04
  0.82817169D-05  0.36361198D-05 -0.14113183D-06 -0.10873446D-06 -0.47740286D-07
  0.10468062D-02 -0.22489737D-03  0.19084457D-03  0.51355789D-07 -0.32535366D-03
 -0.24042270D-03 -0.38432307D-03 -0.16469952D-03 -0.14471526D-07  0.48158196D-07
  0.13671677D-03  0.25163183D-03  0.40718781D-03  0.53525977D-03  0.45908919D-03
  0.15697039D-03 -0.92728849D-03 -0.41375432D-03  0.12218220D-02  0.90399442D-04
  0.69647897D-04  0.30579178D-04  0.15038904D-04  0.11586665D-04  0.50871699D-05
 -0.45485248D-06 -0.35043931D-06 -0.15386173D-06 -0.27209959D-02  0.95548071D-03
 -0.13041356D-03  0.46080539D-06  0.17954541D-03  0.10932148D-02  0.12369379D-02
  0.18558168D-03 -0.77684817D-06  0.96034626D-07  0.79300321D-06  0.13450835D-05
  0.15313301D-05  0.31090024D-04 -0.11346794D-04 -0.20932620D-04 -0.33791739D-04
 -0.43986803D-04 -0.37534019D-04 -0.12959595D-04  0.69351317D-04  0.31963959D-04
 -0.89630277D-04 -0.10730441D-03 -0.82274219D-04 -0.41060601D-04 -0.17492208D-03
 -0.13411915D-03 -0.66934858D-04 -0.54322504D-07 -0.41651051D-07 -0.20786794D-07
  0.74978064D-03 -0.19274007D-03 -0.16543858D-03  0.23675858D-07  0.77267966D-04
  0.54560277D-04 -0.24717618D-04  0.96625473D-04  0.33938292D-07 -0.33157134D-07
 -0.25402821D-04 -0.43087992D-04 -0.49054156D-04 -0.18667399D-04 -0.10897814D-04
 -0.18484755D-04 -0.21044240D-04 -0.17109622D-05 -0.10881161D-04 -0.18456508D-04
 -0.21012083D-04 -0.16985572D-05 -0.31852034D-04 -0.54027079D-04 -0.61507920D-04
 -0.21049378D-03  0.20130968D-05  0.37137706D-05  0.59951773D-05  0.78039394D-05
  0.66591157D-05  0.22992326D-05  0.52202958D-05  0.24060295D-05 -0.67467580D-05
  0.80638381D-04  0.61828396D-04  0.30856703D-04  0.82683739D-05  0.63396646D-05
  0.31639370D-05 -0.18188934D-07 -0.13946121D-07 -0.69600917D-08  0.27635312D-03
  0.80595186D-04 -0.97770707D-05  0.79067298D-08  0.17510930D-04  0.16849866D-04
  0.85766061D-05  0.13684008D-04  0.22118994D-08  0.11234811D-07 -0.22307910D-05
 -0.37838437D-05 -0.43077723D-05 -0.17879251D-05 -0.22267046D-05 -0.37769125D-05