 Entering Link 1 = D:\Gaussian\G16W\l1.exe PID=     40384.
  
 Copyright (c) 1988,1990,1992,1993,1995,1998,2003,2009,2016,
            Gaussian, Inc.  All Rights Reserved.
  
 This is part of the Gaussian(R) 16 program.  It is based on
 the Gaussian(R) 09 system (copyright 2009, Gaussian, Inc.),
 the Gaussian(R) 03 system (copyright 2003, Gaussian, Inc.),
 the Gaussian(R) 98 system (copyright 1998, Gaussian, Inc.),
 the Gaussian(R) 94 system (copyright 1995, Gaussian, Inc.),
 the Gaussian 92(TM) system (copyright 1992, Gaussian, Inc.),
 the Gaussian 90(TM) system (copyright 1990, Gaussian, Inc.),
 the Gaussian 88(TM) system (copyright 1988, Gaussian, Inc.),
 the Gaussian 86(TM) system (copyright 1986, Carnegie Mellon
 University), and the Gaussian 82(TM) system (copyright 1983,
 Carnegie Mellon University). Gaussian is a federally registered
 trademark of Gaussian, Inc.
  
 This software contains proprietary and confidential information,
 including trade secrets, belonging to Gaussian, Inc.
  
 This software is provided under written license and may be
 used, copied, transmitted, or stored only in accord with that
 written license.
  
 The following legend is applicable only to US Government
 contracts under FAR:
  
                    RESTRICTED RIGHTS LEGEND
  
 Use, reproduction and disclosure by the US Government is
 subject to restrictions as set forth in subparagraphs (a)
 and (c) of the Commercial Computer Software - Restricted
 Rights clause in FAR 52.227-19.
  
 Gaussian, Inc.
 340 Quinnipiac St., Bldg. 40, Wallingford CT 06492
  
  
 ---------------------------------------------------------------
 Warning -- This program may not be used in any manner that
 competes with the business of Gaussian, Inc. or will provide
 assistance to any competitor of Gaussian, Inc.  The licensee
 of this program is prohibited from giving any competitor of
 Gaussian, Inc. access to this program.  By using this program,
 the user acknowledges that Gaussian, Inc. is engaged in the
 business of creating and licensing software in the field of
 computational chemistry and represents and warrants to the
 licensee that it is not a competitor of Gaussian, Inc. and that
 it will not use this program in any manner prohibited above.
 ---------------------------------------------------------------
  

 Cite this work as:
 Gaussian 16, Revision A.03,
 M. J. Frisch, G. W. Trucks, H. B. Schlegel, G. E. Scuseria, 
 M. A. Robb, J. R. Cheeseman, G. Scalmani, V. Barone, 
 G. A. Petersson, H. Nakatsuji, X. Li, M. Caricato, A. V. Marenich, 
 J. Bloino, B. G. Janesko, R. Gomperts, B. Mennucci, H. P. Hratchian, 
 J. V. Ortiz, A. F. Izmaylov, J. L. Sonnenberg, D. Williams-Young, 
 F. Ding, F. Lipparini, F. Egidi, J. Goings, B. Peng, A. Petrone, 
 T. Henderson, D. Ranasinghe, V. G. Zakrzewski, J. Gao, N. Rega, 
 G. Zheng, W. Liang, M. Hada, M. Ehara, K. Toyota, R. Fukuda, 
 J. Hasegawa, M. Ishida, T. Nakajima, Y. Honda, O. Kitao, H. Nakai, 
 T. Vreven, K. Throssell, J. A. Montgomery, Jr., J. E. Peralta, 
 F. Ogliaro, M. J. Bearpark, J. J. Heyd, E. N. Brothers, K. N. Kudin, 
 V. N. Staroverov, T. A. Keith, R. Kobayashi, J. Normand, 
 K. Raghavachari, A. P. Rendell, J. C. Burant, S. S. Iyengar, 
 J. Tomasi, M. Cossi, J. M. Millam, M. Klene, C. Adamo, R. Cammi, 
 J. W. Ochterski, R. L. Martin, K. Morokuma, O. Farkas, 
 J. B. Foresman, and D. J. Fox, Gaussian, Inc., Wallingford CT, 2016.
 
 ******************************************
 Gaussian 16:  EM64W-G16RevA.03 17-Dec-2016
                03-Dec-2025 
 ******************************************
 %nprocs=   4
 Will use up to    4 processors via shared memory.
 ------------------------------------
 #P B3LYP/6-31G* SCF=conver=7 out=wfn
 ------------------------------------
 1/38=1,172=1/1;
 2/12=2,17=6,18=5,40=1/2;
 3/5=1,6=6,7=1,11=2,25=1,30=1,74=-5/1,2,3;
 4//1;
 5/5=2,6=7,38=5/2;
 6/7=2,8=2,9=2,10=2,28=1/1;
 99/5=1,6=100,9=1/99;
 Leave Link    1 at Wed Dec 03 17:02:04 2025, MaxMem=           0 cpu:               0.0 elap:               0.1
 (Enter D:\Gaussian\G16W\l101.exe)
 ----------------------------------------------------
 Generated by Multiwfn (http://sobereva.com/multiwfn)
 ----------------------------------------------------
 Symbolic Z-matrix:
 Charge =  1 Multiplicity = 1
 C                    -0.86252   1.22763  -0.00007 
 C                     0.5101    1.19645  -0.00005 
 C                     1.17054  -0.09374  -0.0001 
 C                     0.3272   -1.28902   0.00001 
 C                    -1.05571  -1.20751   0.00002 
 C                    -1.66344   0.04854  -0.00005 
 H                    -1.64502  -2.11686   0.00005 
 O                     0.97947  -2.45224   0.00005 
 O                     2.41365  -0.25923   0.00017 
 H                     1.92648  -2.19742  -0.00006 
 C                     1.36798   2.42629   0. 
 H                     0.76185   3.33368  -0.00005 
 H                     2.02475   2.44026   0.87477 
 H                     2.02487   2.44024  -0.87468 
 H                    -1.36884   2.18853  -0.00008 
 C                    -3.16179   0.1796   -0.00003 
 H                    -3.50567   0.73422   0.87951 
 H                    -3.50569   0.73436  -0.87948 
 H                    -3.65186  -0.79477  -0.0001 
 
 ITRead=  0  0  0  0  0  0  0  0  0  0  0  0  0  0  0  0  0  0  0
 MicOpt= -1 -1 -1 -1 -1 -1 -1 -1 -1 -1 -1 -1 -1 -1 -1 -1 -1 -1 -1
 NAtoms=     19 NQM=       19 NQMF=       0 NMMI=      0 NMMIF=      0
                NMic=       0 NMicF=      0.
                    Isotopes and Nuclear Properties:
 (Nuclear quadrupole moments (NQMom) in fm**2, nuclear magnetic moments (NMagM)
  in nuclear magnetons)

  Atom         1           2           3           4           5           6           7           8           9          10
 IAtWgt=          12          12          12          12          12          12           1          16          16           1
 AtmWgt=  12.0000000  12.0000000  12.0000000  12.0000000  12.0000000  12.0000000   1.0078250  15.9949146  15.9949146   1.0078250
 NucSpn=           0           0           0           0           0           0           1           0           0           1
 AtZEff=   0.0000000   0.0000000   0.0000000   0.0000000   0.0000000   0.0000000   0.0000000   0.0000000   0.0000000   0.0000000
 NQMom=    0.0000000   0.0000000   0.0000000   0.0000000   0.0000000   0.0000000   0.0000000   0.0000000   0.0000000   0.0000000
 NMagM=    0.0000000   0.0000000   0.0000000   0.0000000   0.0000000   0.0000000   2.7928460   0.0000000   0.0000000   2.7928460
 AtZNuc=   6.0000000   6.0000000   6.0000000   6.0000000   6.0000000   6.0000000   1.0000000   8.0000000   8.0000000   1.0000000

  Atom        11          12          13          14          15          16          17          18          19
 IAtWgt=          12           1           1           1           1          12           1           1           1
 AtmWgt=  12.0000000   1.0078250   1.0078250   1.0078250   1.0078250  12.0000000   1.0078250   1.0078250   1.0078250
 NucSpn=           0           1           1           1           1           0           1           1           1
 AtZEff=   0.0000000   0.0000000   0.0000000   0.0000000   0.0000000   0.0000000   0.0000000   0.0000000   0.0000000
 NQMom=    0.0000000   0.0000000   0.0000000   0.0000000   0.0000000   0.0000000   0.0000000   0.0000000   0.0000000
 NMagM=    0.0000000   2.7928460   2.7928460   2.7928460   2.7928460   0.0000000   2.7928460   2.7928460   2.7928460
 AtZNuc=   6.0000000   1.0000000   1.0000000   1.0000000   1.0000000   6.0000000   1.0000000   1.0000000   1.0000000
 Leave Link  101 at Wed Dec 03 17:02:04 2025, MaxMem=   104857600 cpu:               0.0 elap:               0.1
 (Enter D:\Gaussian\G16W\l202.exe)
                          Input orientation:                          
 ---------------------------------------------------------------------
 Center     Atomic      Atomic             Coordinates (Angstroms)
 Number     Number       Type             X           Y           Z
 ---------------------------------------------------------------------
      1          6           0       -0.862515    1.227633   -0.000068
      2          6           0        0.510097    1.196453   -0.000050
      3          6           0        1.170544   -0.093741   -0.000098
      4          6           0        0.327195   -1.289020    0.000014
      5          6           0       -1.055706   -1.207505    0.000015
      6          6           0       -1.663440    0.048544   -0.000051
      7          1           0       -1.645023   -2.116855    0.000054
      8          8           0        0.979466   -2.452242    0.000047
      9          8           0        2.413654   -0.259227    0.000167
     10          1           0        1.926481   -2.197420   -0.000064
     11          6           0        1.367980    2.426288    0.000002
     12          1           0        0.761848    3.333677   -0.000046
     13          1           0        2.024750    2.440262    0.874774
     14          1           0        2.024873    2.440243   -0.874676
     15          1           0       -1.368839    2.188534   -0.000076
     16          6           0       -3.161792    0.179601   -0.000032
     17          1           0       -3.505673    0.734219    0.879509
     18          1           0       -3.505685    0.734355   -0.879480
     19          1           0       -3.651863   -0.794769   -0.000100
 ---------------------------------------------------------------------
                    Distance matrix (angstroms):
                    1          2          3          4          5
     1  C    0.000000
     2  C    1.372966   0.000000
     3  C    2.424739   1.449411   0.000000
     4  C    2.783694   2.492194   1.462850   0.000000
     5  C    2.442789   2.868929   2.489309   1.385301   0.000000
     6  C    1.425388   2.458039   2.837554   2.398271   1.395349
     7  H    3.434810   3.952537   3.467046   2.138914   1.083611
     8  O    4.115140   3.678761   2.366229   1.333620   2.385644
     9  O    3.597782   2.396358   1.254077   2.326754   3.596622
    10  H    4.416954   3.677570   2.235376   1.839268   3.142192
    11  C    2.532169   1.499486   2.527751   3.858335   4.367918
    12  H    2.659695   2.152000   3.451699   4.643086   4.891404
    13  H    3.251479   2.146288   2.813581   4.189802   4.853928
    14  H    3.251518   2.146283   2.813510   4.189820   4.853979
    15  H    1.086138   2.124765   3.414271   3.869097   3.410445
    16  C    2.526865   3.810086   4.340950   3.785483   2.521837
    17  H    2.829028   4.136870   4.829724   4.422430   3.247482
    18  H    2.828964   4.136839   4.829718   4.422502   3.247573
    19  H    3.445370   4.613770   4.873094   4.009637   2.628761
                    6          7          8          9         10
     6  C    0.000000
     7  H    2.165477   0.000000
     8  O    3.638528   2.645832   0.000000
     9  O    4.088694   4.463591   2.620345   0.000000
    10  H    4.234606   3.572413   0.980700   1.998482   0.000000
    11  C    3.852684   5.451453   4.893976   2.881913   4.657317
    12  H    4.083396   5.958299   5.790010   3.954418   5.652380
    13  H    4.482006   5.916053   5.078815   2.864162   4.720497
    14  H    4.482058   5.916116   5.078821   2.864200   4.720439
    15  H    2.160173   4.314238   5.201090   4.505418   5.485957
    16  C    1.504073   2.752144   4.906793   5.592689   5.616115
    17  H    2.153508   3.516260   5.571666   6.066186   6.235098
    18  H    2.153508   3.516396   5.571763   6.066264   6.235151
    19  H    2.159862   2.403189   4.918986   6.089113   5.751987
                   11         12         13         14         15
    11  C    0.000000
    12  H    1.091215   0.000000
    13  H    1.093969   1.777195   0.000000
    14  H    1.093967   1.777198   1.749450   0.000000
    15  H    2.747127   2.418921   3.513570   3.513625   0.000000
    16  C    5.056326   5.034198   5.725041   5.725120   2.692674
    17  H    5.233462   5.073710   5.787589   6.047696   2.730341
    18  H    5.233425   5.073630   6.047581   5.787672   2.730220
    19  H    5.964397   6.043584   6.592023   6.592080   3.756634
                   16         17         18         19
    16  C    0.000000
    17  H    1.095193   0.000000
    18  H    1.095191   1.758989   0.000000
    19  H    1.090672   1.769997   1.769999   0.000000
 Stoichiometry    C8H9O2(1+)
 Framework group  C1[X(C8H9O2)]
 Deg. of freedom    51
 Full point group                 C1      NOp   1
 Largest Abelian subgroup         C1      NOp   1
 Largest concise Abelian subgroup C1      NOp   1
                         Standard orientation:                         
 ---------------------------------------------------------------------
 Center     Atomic      Atomic             Coordinates (Angstroms)
 Number     Number       Type             X           Y           Z
 ---------------------------------------------------------------------
      1          6           0       -0.862515    1.227633   -0.000068
      2          6           0        0.510097    1.196453   -0.000050
      3          6           0        1.170544   -0.093741   -0.000098
      4          6           0        0.327195   -1.289020    0.000014
      5          6           0       -1.055706   -1.207505    0.000015
      6          6           0       -1.663440    0.048544   -0.000051
      7          1           0       -1.645023   -2.116855    0.000054
      8          8           0        0.979466   -2.452242    0.000047
      9          8           0        2.413654   -0.259227    0.000167
     10          1           0        1.926481   -2.197420   -0.000064
     11          6           0        1.367980    2.426288    0.000002
     12          1           0        0.761847    3.333677   -0.000046
     13          1           0        2.024750    2.440262    0.874774
     14          1           0        2.024873    2.440243   -0.874676
     15          1           0       -1.368839    2.188534   -0.000076
     16          6           0       -3.161792    0.179600   -0.000032
     17          1           0       -3.505673    0.734218    0.879509
     18          1           0       -3.505685    0.734354   -0.879480
     19          1           0       -3.651863   -0.794770   -0.000100
 ---------------------------------------------------------------------
 Rotational constants (GHZ):           1.7878178           1.3098515           0.7630600
 Leave Link  202 at Wed Dec 03 17:02:04 2025, MaxMem=   104857600 cpu:               0.0 elap:               0.0
 (Enter D:\Gaussian\G16W\l301.exe)
 Standard basis: 6-31G(d) (6D, 7F)
 Ernie: Thresh=  0.10000D-02 Tol=  0.10000D-05 Strict=F.
 There are   168 symmetry adapted cartesian basis functions of A   symmetry.
 There are   168 symmetry adapted basis functions of A   symmetry.
   168 basis functions,   316 primitive gaussians,   168 cartesian basis functions
    36 alpha electrons       36 beta electrons
       nuclear repulsion energy       505.9615208771 Hartrees.
 IExCor=  402 DFT=T Ex+Corr=B3LYP ExCW=0 ScaHFX=  0.200000
 ScaDFX=  0.800000  0.720000  1.000000  0.810000 ScalE2=  1.000000  1.000000
 IRadAn=      5 IRanWt=     -1 IRanGd=            0 ICorTp=0 IEmpDi=  4
 NAtoms=   19 NActive=   19 NUniq=   19 SFac= 1.00D+00 NAtFMM=   60 NAOKFM=F Big=F
 Integral buffers will be    131072 words long.
 Raffenetti 2 integral format.
 Two-electron integral symmetry is turned on.
 Leave Link  301 at Wed Dec 03 17:02:04 2025, MaxMem=   104857600 cpu:               0.0 elap:               0.1
 (Enter D:\Gaussian\G16W\l302.exe)
 NPDir=0 NMtPBC=     1 NCelOv=     1 NCel=       1 NClECP=     1 NCelD=      1
         NCelK=      1 NCelE2=     1 NClLst=     1 CellRange=     0.0.
 One-electron integrals computed using PRISM.
 One-electron integral symmetry used in STVInt
 NBasis=   168 RedAO= T EigKep=  4.10D-04  NBF=   168
 NBsUse=   168 1.00D-06 EigRej= -1.00D+00 NBFU=   168
 Precomputing XC quadrature grid using
 IXCGrd= 4 IRadAn=           5 IRanWt=          -1 IRanGd=           0 AccXCQ= 0.00D+00.
 Generated NRdTot=       0 NPtTot=           0 NUsed=           0 NTot=          32
 NSgBfM=   168   168   168   168   168 MxSgAt=    19 MxSgA2=    19.
 Leave Link  302 at Wed Dec 03 17:02:05 2025, MaxMem=   104857600 cpu:               1.0 elap:               0.4
 (Enter D:\Gaussian\G16W\l303.exe)
 DipDrv:  MaxL=1.
 Leave Link  303 at Wed Dec 03 17:02:05 2025, MaxMem=   104857600 cpu:               0.0 elap:               0.1
 (Enter D:\Gaussian\G16W\l401.exe)
 ExpMin= 1.61D-01 ExpMax= 5.48D+03 ExpMxC= 8.25D+02 IAcc=3 IRadAn=         5 AccDes= 0.00D+00
 Harris functional with IExCor=  402 and IRadAn=       5 diagonalized for initial guess.
 HarFok:  IExCor=  402 AccDes= 0.00D+00 IRadAn=         5 IDoV= 1 UseB2=F ITyADJ=14
 ICtDFT=  3500011 ScaDFX=  1.000000  1.000000  1.000000  1.000000
 FoFCou: FMM=F IPFlag=           0 FMFlag=      100000 FMFlg1=           0
         NFxFlg=           0 DoJE=T BraDBF=F KetDBF=T FulRan=T
         wScrn=  0.000000 ICntrl=       500 IOpCl=  0 I1Cent=   200000004 NGrid=           0
         NMat0=    1 NMatS0=      1 NMatT0=    0 NMatD0=    1 NMtDS0=    0 NMtDT0=    0
 Petite list used in FoFCou.
 Harris En= -460.468056459118    
 JPrj=0 DoOrth=F DoCkMO=F.
 Leave Link  401 at Wed Dec 03 17:02:06 2025, MaxMem=   104857600 cpu:               1.0 elap:               1.2
 (Enter D:\Gaussian\G16W\l502.exe)
 Keep R1 ints in memory in canonical form, NReq=104755543.
 FoFCou: FMM=F IPFlag=           0 FMFlag=           0 FMFlg1=           0
         NFxFlg=           0 DoJE=F BraDBF=F KetDBF=F FulRan=T
         wScrn=  0.000000 ICntrl=       600 IOpCl=  0 I1Cent=           0 NGrid=           0
         NMat0=    1 NMatS0=  14196 NMatT0=    0 NMatD0=    1 NMtDS0=    0 NMtDT0=    0
 Symmetry not used in FoFCou.
 Two-electron integral symmetry not used.
 Closed shell SCF:
 Using DIIS extrapolation, IDIIS=  1040.
 NGot=   104857600 LenX=     4027843 LenY=     3999178
 Requested convergence on RMS density matrix=1.00D-07 within 128 cycles.
 Requested convergence on MAX density matrix=1.00D-05.
 Requested convergence on             energy=1.00D-05.
 No special actions if energy rises.
 Integral accuracy reduced to 1.0D-05 until final iterations.

 Cycle   1  Pass 0  IDiag  1:
 CalDSu:  requested number of processors reduced to:   3 ShMem   1 Linda.
 E= -460.215873718286    
 DIIS: error= 4.00D-02 at cycle   1 NSaved=   1.
 NSaved= 1 IEnMin= 1 EnMin= -460.215873718286     IErMin= 1 ErrMin= 4.00D-02
 ErrMax= 4.00D-02  0.00D+00 EMaxC= 1.00D-01 BMatC= 2.27D-01 BMatP= 2.27D-01
 IDIUse=3 WtCom= 6.00D-01 WtEn= 4.00D-01
 Coeff-Com:  0.100D+01
 Coeff-En:   0.100D+01
 Coeff:      0.100D+01
 Gap=     0.060 Goal=   None    Shift=    0.000
 GapD=    0.060 DampG=0.500 DampE=0.500 DampFc=0.2500 IDamp=-1.
 Damping current iteration by 2.50D-01
 RMSDP=6.44D-03 MaxDP=1.61D-01              OVMax= 2.90D-01

 Cycle   2  Pass 0  IDiag  1:
 CalDSu:  requested number of processors reduced to:   3 ShMem   1 Linda.
 E= -460.289674347463     Delta-E=       -0.073800629177 Rises=F Damp=T
 DIIS: error= 1.96D-02 at cycle   2 NSaved=   2.
 NSaved= 2 IEnMin= 2 EnMin= -460.289674347463     IErMin= 2 ErrMin= 1.96D-02
 ErrMax= 1.96D-02  0.00D+00 EMaxC= 1.00D-01 BMatC= 5.15D-02 BMatP= 2.27D-01
 IDIUse=3 WtCom= 8.04D-01 WtEn= 1.96D-01
 Coeff-Com: -0.577D+00 0.158D+01
 Coeff-En:   0.000D+00 0.100D+01
 Coeff:     -0.464D+00 0.146D+01
 Gap=     0.066 Goal=   None    Shift=    0.000
 RMSDP=2.43D-03 MaxDP=4.63D-02 DE=-7.38D-02 OVMax= 2.76D-01

 Cycle   3  Pass 0  IDiag  1:
 CalDSu:  requested number of processors reduced to:   3 ShMem   1 Linda.
 E= -460.391119524339     Delta-E=       -0.101445176875 Rises=F Damp=F
 DIIS: error= 1.57D-02 at cycle   3 NSaved=   3.
 NSaved= 3 IEnMin= 3 EnMin= -460.391119524339     IErMin= 3 ErrMin= 1.57D-02
 ErrMax= 1.57D-02  0.00D+00 EMaxC= 1.00D-01 BMatC= 3.91D-02 BMatP= 5.15D-02
 IDIUse=3 WtCom= 8.43D-01 WtEn= 1.57D-01
 Coeff-Com: -0.393D+00 0.954D+00 0.439D+00
 Coeff-En:   0.000D+00 0.000D+00 0.100D+01
 Coeff:     -0.332D+00 0.805D+00 0.527D+00
 Gap=     0.095 Goal=   None    Shift=    0.000
 RMSDP=1.71D-03 MaxDP=7.30D-02 DE=-1.01D-01 OVMax= 1.08D-01

 Cycle   4  Pass 0  IDiag  1:
 CalDSu:  requested number of processors reduced to:   3 ShMem   1 Linda.
 E= -460.412394686041     Delta-E=       -0.021275161702 Rises=F Damp=F
 DIIS: error= 9.55D-03 at cycle   4 NSaved=   4.
 NSaved= 4 IEnMin= 4 EnMin= -460.412394686041     IErMin= 4 ErrMin= 9.55D-03
 ErrMax= 9.55D-03  0.00D+00 EMaxC= 1.00D-01 BMatC= 1.66D-02 BMatP= 3.91D-02
 IDIUse=3 WtCom= 9.04D-01 WtEn= 9.55D-02
 Coeff-Com: -0.791D-01 0.219D+00 0.379D+00 0.480D+00
 Coeff-En:   0.000D+00 0.000D+00 0.328D+00 0.672D+00
 Coeff:     -0.715D-01 0.198D+00 0.375D+00 0.499D+00
 Gap=     0.086 Goal=   None    Shift=    0.000
 RMSDP=8.19D-04 MaxDP=3.58D-02 DE=-2.13D-02 OVMax= 5.01D-02

 Cycle   5  Pass 0  IDiag  1:
 CalDSu:  requested number of processors reduced to:   3 ShMem   1 Linda.
 E= -460.425145641957     Delta-E=       -0.012750955916 Rises=F Damp=F
 DIIS: error= 2.54D-03 at cycle   5 NSaved=   5.
 NSaved= 5 IEnMin= 5 EnMin= -460.425145641957     IErMin= 5 ErrMin= 2.54D-03
 ErrMax= 2.54D-03  0.00D+00 EMaxC= 1.00D-01 BMatC= 1.11D-03 BMatP= 1.66D-02
 IDIUse=3 WtCom= 9.75D-01 WtEn= 2.54D-02
 Coeff-Com: -0.213D-02 0.226D-01 0.187D+00 0.321D+00 0.471D+00
 Coeff-En:   0.000D+00 0.000D+00 0.000D+00 0.179D-01 0.982D+00
 Coeff:     -0.208D-02 0.221D-01 0.182D+00 0.314D+00 0.484D+00
 Gap=     0.089 Goal=   None    Shift=    0.000
 RMSDP=2.32D-04 MaxDP=6.58D-03 DE=-1.28D-02 OVMax= 1.66D-02

 Cycle   6  Pass 0  IDiag  1:
 CalDSu:  requested number of processors reduced to:   3 ShMem   1 Linda.
 E= -460.426101826150     Delta-E=       -0.000956184193 Rises=F Damp=F
 DIIS: error= 1.05D-03 at cycle   6 NSaved=   6.
 NSaved= 6 IEnMin= 6 EnMin= -460.426101826150     IErMin= 6 ErrMin= 1.05D-03
 ErrMax= 1.05D-03  0.00D+00 EMaxC= 1.00D-01 BMatC= 1.17D-04 BMatP= 1.11D-03
 IDIUse=3 WtCom= 9.90D-01 WtEn= 1.05D-02
 Coeff-Com:  0.505D-02-0.452D-02 0.785D-01 0.145D+00 0.304D+00 0.472D+00
 Coeff-En:   0.000D+00 0.000D+00 0.000D+00 0.000D+00 0.921D-01 0.908D+00
 Coeff:      0.500D-02-0.447D-02 0.777D-01 0.143D+00 0.302D+00 0.476D+00
 Gap=     0.090 Goal=   None    Shift=    0.000
 RMSDP=7.86D-05 MaxDP=2.60D-03 DE=-9.56D-04 OVMax= 7.47D-03

 Cycle   7  Pass 0  IDiag  1:
 CalDSu:  requested number of processors reduced to:   3 ShMem   1 Linda.
 E= -460.426211074279     Delta-E=       -0.000109248129 Rises=F Damp=F
 DIIS: error= 3.47D-04 at cycle   7 NSaved=   7.
 NSaved= 7 IEnMin= 7 EnMin= -460.426211074279     IErMin= 7 ErrMin= 3.47D-04
 ErrMax= 3.47D-04  0.00D+00 EMaxC= 1.00D-01 BMatC= 1.78D-05 BMatP= 1.17D-04
 IDIUse=3 WtCom= 9.97D-01 WtEn= 3.47D-03
 Coeff-Com:  0.186D-02-0.321D-02 0.224D-01 0.416D-01 0.126D+00 0.322D+00
 Coeff-Com:  0.489D+00
 Coeff-En:   0.000D+00 0.000D+00 0.000D+00 0.000D+00 0.000D+00 0.136D+00
 Coeff-En:   0.864D+00
 Coeff:      0.186D-02-0.320D-02 0.224D-01 0.414D-01 0.126D+00 0.321D+00
 Coeff:      0.490D+00
 Gap=     0.090 Goal=   None    Shift=    0.000
 RMSDP=2.91D-05 MaxDP=9.70D-04 DE=-1.09D-04 OVMax= 2.47D-03

 Cycle   8  Pass 0  IDiag  1:
 CalDSu:  requested number of processors reduced to:   3 ShMem   1 Linda.
 E= -460.426227626096     Delta-E=       -0.000016551817 Rises=F Damp=F
 DIIS: error= 1.17D-04 at cycle   8 NSaved=   8.
 NSaved= 8 IEnMin= 8 EnMin= -460.426227626096     IErMin= 8 ErrMin= 1.17D-04
 ErrMax= 1.17D-04  0.00D+00 EMaxC= 1.00D-01 BMatC= 2.18D-06 BMatP= 1.78D-05
 IDIUse=3 WtCom= 9.99D-01 WtEn= 1.17D-03
 Coeff-Com:  0.835D-03-0.203D-02 0.409D-02 0.688D-02 0.430D-01 0.147D+00
 Coeff-Com:  0.313D+00 0.487D+00
 Coeff-En:   0.000D+00 0.000D+00 0.000D+00 0.000D+00 0.000D+00 0.000D+00
 Coeff-En:   0.605D-01 0.940D+00
 Coeff:      0.834D-03-0.202D-02 0.408D-02 0.688D-02 0.429D-01 0.147D+00
 Coeff:      0.313D+00 0.487D+00
 Gap=     0.090 Goal=   None    Shift=    0.000
 RMSDP=9.94D-06 MaxDP=4.08D-04 DE=-1.66D-05 OVMax= 8.82D-04

 Initial convergence to 1.0D-05 achieved.  Increase integral accuracy.
 Cycle   9  Pass 1  IDiag  1:
 CalDSu:  requested number of processors reduced to:   3 ShMem   1 Linda.
 E= -460.426227598468     Delta-E=        0.000000027627 Rises=F Damp=F
 DIIS: error= 2.24D-05 at cycle   1 NSaved=   1.
 NSaved= 1 IEnMin= 1 EnMin= -460.426227598468     IErMin= 1 ErrMin= 2.24D-05
 ErrMax= 2.24D-05  0.00D+00 EMaxC= 1.00D-01 BMatC= 1.80D-07 BMatP= 1.80D-07
 IDIUse=1 WtCom= 1.00D+00 WtEn= 0.00D+00
 Coeff-Com:  0.100D+01
 Coeff:      0.100D+01
 Gap=     0.090 Goal=   None    Shift=    0.000
 RMSDP=9.94D-06 MaxDP=4.08D-04 DE= 2.76D-08 OVMax= 5.94D-04

 Cycle  10  Pass 1  IDiag  1:
 CalDSu:  requested number of processors reduced to:   3 ShMem   1 Linda.
 E= -460.426227092055     Delta-E=        0.000000506414 Rises=F Damp=F
 DIIS: error= 6.53D-05 at cycle   2 NSaved=   2.
 NSaved= 2 IEnMin= 1 EnMin= -460.426227598468     IErMin= 1 ErrMin= 2.24D-05
 ErrMax= 6.53D-05  0.00D+00 EMaxC= 1.00D-01 BMatC= 7.09D-07 BMatP= 1.80D-07
 IDIUse=1 WtCom= 1.00D+00 WtEn= 0.00D+00
 Coeff-Com:  0.668D+00 0.332D+00
 Coeff:      0.668D+00 0.332D+00
 Gap=     0.090 Goal=   None    Shift=    0.000
 RMSDP=5.58D-06 MaxDP=2.24D-04 DE= 5.06D-07 OVMax= 6.49D-04

 Cycle  11  Pass 1  IDiag  1:
 CalDSu:  requested number of processors reduced to:   3 ShMem   1 Linda.
 E= -460.426227762120     Delta-E=       -0.000000670065 Rises=F Damp=F
 DIIS: error= 1.03D-05 at cycle   3 NSaved=   3.
 NSaved= 3 IEnMin= 3 EnMin= -460.426227762120     IErMin= 3 ErrMin= 1.03D-05
 ErrMax= 1.03D-05  0.00D+00 EMaxC= 1.00D-01 BMatC= 1.81D-08 BMatP= 1.80D-07
 IDIUse=1 WtCom= 1.00D+00 WtEn= 0.00D+00
 Coeff-Com:  0.324D+00 0.214D+00 0.463D+00
 Coeff:      0.324D+00 0.214D+00 0.463D+00
 Gap=     0.090 Goal=   None    Shift=    0.000
 RMSDP=7.30D-07 MaxDP=2.58D-05 DE=-6.70D-07 OVMax= 4.10D-05

 Cycle  12  Pass 1  IDiag  1:
 CalDSu:  requested number of processors reduced to:   3 ShMem   1 Linda.
 E= -460.426227774301     Delta-E=       -0.000000012181 Rises=F Damp=F
 DIIS: error= 3.59D-06 at cycle   4 NSaved=   4.
 NSaved= 4 IEnMin= 4 EnMin= -460.426227774301     IErMin= 4 ErrMin= 3.59D-06
 ErrMax= 3.59D-06  0.00D+00 EMaxC= 1.00D-01 BMatC= 3.91D-09 BMatP= 1.81D-08
 IDIUse=1 WtCom= 1.00D+00 WtEn= 0.00D+00
 Coeff-Com:  0.215D-01 0.778D-01 0.293D+00 0.607D+00
 Coeff:      0.215D-01 0.778D-01 0.293D+00 0.607D+00
 Gap=     0.090 Goal=   None    Shift=    0.000
 RMSDP=4.31D-07 MaxDP=1.39D-05 DE=-1.22D-08 OVMax= 2.51D-05

 Cycle  13  Pass 1  IDiag  1:
 CalDSu:  requested number of processors reduced to:   3 ShMem   1 Linda.
 E= -460.426227777280     Delta-E=       -0.000000002979 Rises=F Damp=F
 DIIS: error= 2.14D-06 at cycle   5 NSaved=   5.
 NSaved= 5 IEnMin= 5 EnMin= -460.426227777280     IErMin= 5 ErrMin= 2.14D-06
 ErrMax= 2.14D-06  0.00D+00 EMaxC= 1.00D-01 BMatC= 9.85D-10 BMatP= 3.91D-09
 IDIUse=1 WtCom= 1.00D+00 WtEn= 0.00D+00
 Coeff-Com: -0.458D-01 0.264D-01 0.126D+00 0.431D+00 0.462D+00
 Coeff:     -0.458D-01 0.264D-01 0.126D+00 0.431D+00 0.462D+00
 Gap=     0.090 Goal=   None    Shift=    0.000
 RMSDP=1.93D-07 MaxDP=6.23D-06 DE=-2.98D-09 OVMax= 1.05D-05

 Cycle  14  Pass 1  IDiag  1:
 CalDSu:  requested number of processors reduced to:   3 ShMem   1 Linda.
 E= -460.426227778119     Delta-E=       -0.000000000840 Rises=F Damp=F
 DIIS: error= 7.40D-07 at cycle   6 NSaved=   6.
 NSaved= 6 IEnMin= 6 EnMin= -460.426227778119     IErMin= 6 ErrMin= 7.40D-07
 ErrMax= 7.40D-07  0.00D+00 EMaxC= 1.00D-01 BMatC= 1.19D-10 BMatP= 9.85D-10
 IDIUse=1 WtCom= 1.00D+00 WtEn= 0.00D+00
 Coeff-Com: -0.270D-01 0.821D-02 0.234D-01 0.122D+00 0.245D+00 0.629D+00
 Coeff:     -0.270D-01 0.821D-02 0.234D-01 0.122D+00 0.245D+00 0.629D+00
 Gap=     0.090 Goal=   None    Shift=    0.000
 RMSDP=7.90D-08 MaxDP=1.91D-06 DE=-8.40D-10 OVMax= 7.17D-06

 SCF Done:  E(RB3LYP) =  -460.426227778     A.U. after   14 cycles
            NFock= 14  Conv=0.79D-07     -V/T= 2.0094
 KE= 4.561482698014D+02 PE=-2.069670367225D+03 EE= 6.471343487683D+02
 Leave Link  502 at Wed Dec 03 17:02:24 2025, MaxMem=   104857600 cpu:              18.0 elap:              17.9
 (Enter D:\Gaussian\G16W\l601.exe)
 Copying SCF densities to generalized density rwf, IOpCl= 0 IROHF=0.

 **********************************************************************

            Population analysis using the SCF density.

 **********************************************************************

 Orbital symmetries:
       Occupied  (A) (A) (A) (A) (A) (A) (A) (A) (A) (A) (A) (A)
                 (A) (A) (A) (A) (A) (A) (A) (A) (A) (A) (A) (A)
                 (A) (A) (A) (A) (A) (A) (A) (A) (A) (A) (A) (A)
       Virtual   (A) (A) (A) (A) (A) (A) (A) (A) (A) (A) (A) (A)
                 (A) (A) (A) (A) (A) (A) (A) (A) (A) (A) (A) (A)
                 (A) (A) (A) (A) (A) (A) (A) (A) (A) (A) (A) (A)
                 (A) (A) (A) (A) (A) (A) (A) (A) (A) (A) (A) (A)
                 (A) (A) (A) (A) (A) (A) (A) (A) (A) (A) (A) (A)
                 (A) (A) (A) (A) (A) (A) (A) (A) (A) (A) (A) (A)
                 (A) (A) (A) (A) (A) (A) (A) (A) (A) (A) (A) (A)
                 (A) (A) (A) (A) (A) (A) (A) (A) (A) (A) (A) (A)
                 (A) (A) (A) (A) (A) (A) (A) (A) (A) (A) (A) (A)
                 (A) (A) (A) (A) (A) (A) (A) (A) (A) (A) (A) (A)
                 (A) (A) (A) (A) (A) (A) (A) (A) (A) (A) (A) (A)
 The electronic state is 1-A.
 Alpha  occ. eigenvalues --  -19.41189 -19.38251 -10.49579 -10.49316 -10.44842
 Alpha  occ. eigenvalues --  -10.41665 -10.39925 -10.39516 -10.36413 -10.34643
 Alpha  occ. eigenvalues --   -1.30205  -1.24602  -1.07135  -0.98275  -0.96136
 Alpha  occ. eigenvalues --   -0.88054  -0.87034  -0.81767  -0.78863  -0.74225
 Alpha  occ. eigenvalues --   -0.70368  -0.68049  -0.65316  -0.63579  -0.61194
 Alpha  occ. eigenvalues --   -0.60667  -0.60156  -0.59280  -0.58666  -0.56170
 Alpha  occ. eigenvalues --   -0.56065  -0.55363  -0.54133  -0.50968  -0.48454
 Alpha  occ. eigenvalues --   -0.44055
 Alpha virt. eigenvalues --   -0.35083  -0.19519  -0.19297  -0.08453  -0.05824
 Alpha virt. eigenvalues --   -0.05342  -0.03160  -0.02786  -0.01793   0.00616
 Alpha virt. eigenvalues --    0.01365   0.02450   0.03965   0.04395   0.05579
 Alpha virt. eigenvalues --    0.07752   0.08756   0.12827   0.15298   0.16059
 Alpha virt. eigenvalues --    0.19798   0.26314   0.29164   0.30355   0.31099
 Alpha virt. eigenvalues --    0.35561   0.35873   0.36883   0.36977   0.39696
 Alpha virt. eigenvalues --    0.41168   0.42411   0.45009   0.45494   0.45534
 Alpha virt. eigenvalues --    0.49726   0.49806   0.51094   0.54579   0.55389
 Alpha virt. eigenvalues --    0.56611   0.58243   0.60217   0.60799   0.66445
 Alpha virt. eigenvalues --    0.67269   0.70771   0.71316   0.73746   0.74263
 Alpha virt. eigenvalues --    0.75282   0.75764   0.76750   0.77649   0.79519
 Alpha virt. eigenvalues --    0.80719   0.82048   0.85357   0.88993   0.92054
 Alpha virt. eigenvalues --    0.94701   0.96665   1.00176   1.00828   1.04029
 Alpha virt. eigenvalues --    1.07245   1.12088   1.13496   1.17336   1.18385
 Alpha virt. eigenvalues --    1.18623   1.20453   1.22547   1.25905   1.33997
 Alpha virt. eigenvalues --    1.47635   1.48766   1.49516   1.53223   1.57805
 Alpha virt. eigenvalues --    1.58060   1.59185   1.63348   1.66491   1.67618
 Alpha virt. eigenvalues --    1.69427   1.69817   1.72315   1.72845   1.74589
 Alpha virt. eigenvalues --    1.75229   1.80557   1.81742   1.87515   1.89963
 Alpha virt. eigenvalues --    1.95943   1.96920   2.02719   2.05983   2.11273
 Alpha virt. eigenvalues --    2.11651   2.13657   2.14396   2.14768   2.18444
 Alpha virt. eigenvalues --    2.18889   2.21579   2.22993   2.25759   2.39734
 Alpha virt. eigenvalues --    2.41267   2.43896   2.44344   2.54392   2.55940
 Alpha virt. eigenvalues --    2.64936   2.65939   2.70181   2.72771   2.84774
 Alpha virt. eigenvalues --    3.02799   3.17142   3.65433   3.85836   3.87936
 Alpha virt. eigenvalues --    3.97085   3.99834   4.07112   4.13425   4.23271
 Alpha virt. eigenvalues --    4.39134   4.74171
          Condensed to atoms (all electrons):
               1          2          3          4          5          6
     1  C    5.066550   0.563609  -0.020465  -0.035333  -0.051844   0.408605
     2  C    0.563609   4.922148   0.297497  -0.080386  -0.022065  -0.007966
     3  C   -0.020465   0.297497   4.775623   0.251786  -0.052722  -0.024553
     4  C   -0.035333  -0.080386   0.251786   4.793659   0.454102   0.013783
     5  C   -0.051844  -0.022065  -0.052722   0.454102   5.078183   0.513619
     6  C    0.408605  -0.007966  -0.024553   0.013783   0.513619   4.673584
     7  H    0.004599  -0.000294   0.004028  -0.028147   0.356284  -0.031664
     8  O    0.000176   0.004358  -0.045383   0.343700  -0.050216   0.002078
     9  O    0.004298  -0.080976   0.479057  -0.071166   0.005883  -0.000425
    10  H   -0.000151   0.002876  -0.009939  -0.041098   0.006300  -0.000117
    11  C   -0.049903   0.357393  -0.050024   0.006772  -0.000031   0.005172
    12  H   -0.003882  -0.030309   0.004786  -0.000069  -0.000004   0.000288
    13  H    0.000516  -0.023059  -0.004079   0.000056  -0.000002  -0.000162
    14  H    0.000515  -0.023066  -0.004077   0.000057  -0.000002  -0.000162
    15  H    0.364531  -0.029087   0.004338  -0.000313   0.004870  -0.044746
    16  C   -0.054538   0.004270   0.000518   0.005910  -0.043617   0.359537
    17  H   -0.001891  -0.000069   0.000004  -0.000233   0.000657  -0.021386
    18  H   -0.001892  -0.000069   0.000003  -0.000233   0.000658  -0.021389
    19  H    0.003429  -0.000117  -0.000012   0.000455  -0.002251  -0.031098
               7          8          9         10         11         12
     1  C    0.004599   0.000176   0.004298  -0.000151  -0.049903  -0.003882
     2  C   -0.000294   0.004358  -0.080976   0.002876   0.357393  -0.030309
     3  C    0.004028  -0.045383   0.479057  -0.009939  -0.050024   0.004786
     4  C   -0.028147   0.343700  -0.071166  -0.041098   0.006772  -0.000069
     5  C    0.356284  -0.050216   0.005883   0.006300  -0.000031  -0.000004
     6  C   -0.031664   0.002078  -0.000425  -0.000117   0.005172   0.000288
     7  H    0.473852  -0.001570  -0.000045  -0.000272   0.000008   0.000000
     8  O   -0.001570   8.054625  -0.022150   0.228153  -0.000040   0.000000
     9  O   -0.000045  -0.022150   8.031686   0.045393   0.001419   0.000244
    10  H   -0.000272   0.228153   0.045393   0.298914  -0.000059   0.000000
    11  C    0.000008  -0.000040   0.001419  -0.000059   5.157981   0.370842
    12  H    0.000000   0.000000   0.000244   0.000000   0.370842   0.494589
    13  H    0.000000   0.000000   0.001464  -0.000002   0.365710  -0.022034
    14  H    0.000000   0.000000   0.001462  -0.000002   0.365716  -0.022034
    15  H   -0.000102   0.000002  -0.000047   0.000001  -0.006171   0.004461
    16  C   -0.006591  -0.000051   0.000000   0.000003  -0.000142  -0.000004
    17  H    0.000117   0.000001   0.000000   0.000000   0.000001   0.000000
    18  H    0.000117   0.000001   0.000000   0.000000   0.000001   0.000000
    19  H    0.004069  -0.000001   0.000000   0.000000   0.000001   0.000000
              13         14         15         16         17         18
     1  C    0.000516   0.000515   0.364531  -0.054538  -0.001891  -0.001892
     2  C   -0.023059  -0.023066  -0.029087   0.004270  -0.000069  -0.000069
     3  C   -0.004079  -0.004077   0.004338   0.000518   0.000004   0.000003
     4  C    0.000056   0.000057  -0.000313   0.005910  -0.000233  -0.000233
     5  C   -0.000002  -0.000002   0.004870  -0.043617   0.000657   0.000658
     6  C   -0.000162  -0.000162  -0.044746   0.359537  -0.021386  -0.021389
     7  H    0.000000   0.000000  -0.000102  -0.006591   0.000117   0.000117
     8  O    0.000000   0.000000   0.000002  -0.000051   0.000001   0.000001
     9  O    0.001464   0.001462  -0.000047   0.000000   0.000000   0.000000
    10  H   -0.000002  -0.000002   0.000001   0.000003   0.000000   0.000000
    11  C    0.365710   0.365716  -0.006171  -0.000142   0.000001   0.000001
    12  H   -0.022034  -0.022034   0.004461  -0.000004   0.000000   0.000000
    13  H    0.480724  -0.023312   0.000072   0.000002   0.000000   0.000000
    14  H   -0.023312   0.480731   0.000072   0.000002   0.000000   0.000000
    15  H    0.000072   0.000072   0.495685  -0.004817   0.001486   0.001487
    16  C    0.000002   0.000002  -0.004817   5.199423   0.359944   0.359948
    17  H    0.000000   0.000000   0.001486   0.359944   0.463871  -0.019081
    18  H    0.000000   0.000000   0.001487   0.359948  -0.019081   0.463880
    19  H    0.000000   0.000000   0.000033   0.373441  -0.021102  -0.021104
              19
     1  C    0.003429
     2  C   -0.000117
     3  C   -0.000012
     4  C    0.000455
     5  C   -0.002251
     6  C   -0.031098
     7  H    0.004069
     8  O   -0.000001
     9  O    0.000000
    10  H    0.000000
    11  C    0.000001
    12  H    0.000000
    13  H    0.000000
    14  H    0.000000
    15  H    0.000033
    16  C    0.373441
    17  H   -0.021102
    18  H   -0.021104
    19  H    0.475026
 Mulliken charges:
               1
     1  C   -0.196928
     2  C    0.145312
     3  C    0.393613
     4  C    0.386697
     5  C   -0.197803
     6  C    0.207001
     7  H    0.225614
     8  O   -0.513682
     9  O   -0.396097
    10  H    0.470000
    11  C   -0.524648
    12  H    0.203126
    13  H    0.224105
    14  H    0.224098
    15  H    0.208246
    16  C   -0.553239
    17  H    0.237682
    18  H    0.237673
    19  H    0.219229
 Sum of Mulliken charges =   1.00000
 Mulliken charges with hydrogens summed into heavy atoms:
               1
     1  C    0.011318
     2  C    0.145312
     3  C    0.393613
     4  C    0.386697
     5  C    0.027811
     6  C    0.207001
     8  O   -0.043682
     9  O   -0.396097
    11  C    0.126680
    16  C    0.141345
 Electronic spatial extent (au):  <R**2>=           1459.8457
 Charge=              1.0000 electrons
 Dipole moment (field-independent basis, Debye):
    X=             -2.7450    Y=              0.9550    Z=             -0.0005  Tot=              2.9064
 Quadrupole moment (field-independent basis, Debye-Ang):
   XX=            -35.8233   YY=            -41.9283   ZZ=            -55.0920
   XY=             -1.6578   XZ=             -0.0010   YZ=              0.0005
 Traceless Quadrupole moment (field-independent basis, Debye-Ang):
   XX=              8.4579   YY=              2.3529   ZZ=            -10.8108
   XY=             -1.6578   XZ=             -0.0010   YZ=              0.0005
 Octapole moment (field-independent basis, Debye-Ang**2):
  XXX=            -34.6868  YYY=              6.4049  ZZZ=              0.0013  XYY=             12.5366
  XXY=             -5.2836  XXZ=             -0.0020  XZZ=              5.5366  YZZ=             -1.8074
  YYZ=             -0.0007  XYZ=              0.0015
 Hexadecapole moment (field-independent basis, Debye-Ang**3):
 XXXX=           -861.5724 YYYY=           -679.8993 ZZZZ=            -62.7535 XXXY=            -34.7458
 XXXZ=             -0.0148 YYYX=             -8.8516 YYYZ=              0.0071 ZZZX=             -0.0091
 ZZZY=              0.0062 XXYY=           -228.5318 XXZZ=           -166.8838 YYZZ=           -135.5668
 XXYZ=              0.0036 YYXZ=             -0.0039 ZZXY=             -5.3141
 N-N= 5.059615208771D+02 E-N=-2.069670340870D+03  KE= 4.561482698014D+02
 No NMR shielding tensors so no spin-rotation constants.
 Leave Link  601 at Wed Dec 03 17:02:24 2025, MaxMem=   104857600 cpu:               0.0 elap:               0.2
 (Enter D:\Gaussian\G16W\l9999.exe)
 1|1|UNPC-PC-20250526LCFF|SP|RB3LYP|6-31G(d)|C8H9O2(1+)|ADMINISTRATOR|0
 3-Dec-2025|0||#P B3LYP/6-31G* SCF=conver=7 out=wfn||Generated by Multi
 wfn (http://sobereva.com/multiwfn)||1,1|C,0,-0.862515,1.227633,-0.0000
 68|C,0,0.510097,1.196453,-0.00005|C,0,1.170544,-0.093741,-0.000098|C,0
 ,0.327195,-1.28902,0.000014|C,0,-1.055706,-1.207505,0.000015|C,0,-1.66
 344,0.048544,-0.000051|H,0,-1.645023,-2.116855,0.000054|O,0,0.979466,-
 2.452242,0.000047|O,0,2.413654,-0.259227,0.000167|H,0,1.926481,-2.1974
 2,-0.000064|C,0,1.36798,2.426288,0.000002|H,0,0.761848,3.333677,-0.000
 046|H,0,2.02475,2.440262,0.874774|H,0,2.024873,2.440243,-0.874676|H,0,
 -1.368839,2.188534,-0.000076|C,0,-3.161792,0.179601,-0.000032|H,0,-3.5
 05673,0.734219,0.879509|H,0,-3.505685,0.734355,-0.87948|H,0,-3.651863,
 -0.794769,-0.0001||Version=EM64W-G16RevA.03|State=1-A|HF=-460.4262278|
 RMSD=7.896e-008|Dipole=-1.0799577,0.3757172,-0.0001903|Quadrupole=6.28
 82249,1.7493462,-8.0375711,-1.2325332,-0.0007508,0.0003435|PG=C01 [X(C
 8H9O2)]||@

 Writing a WFN file to "N-1.wfn"


 TO DRY ONE'S EYES AND LAUGH AT A FALL
 AND BAFFLED, GET UP AND BEGIN AGAIN.
           R. BROWNING
 Job cpu time:       0 days  0 hours  0 minutes 20.0 seconds.
 Elapsed time:       0 days  0 hours  0 minutes 20.1 seconds.
 File lengths (MBytes):  RWF=     15 Int=      0 D2E=      0 Chk=      3 Scr=      1
 Normal termination of Gaussian 16 at Wed Dec 03 17:02:24 2025.
