 Entering Link 1 = D:\Gaussian\G16W\l1.exe PID=     43072.
  
 Copyright (c) 1988,1990,1992,1993,1995,1998,2003,2009,2016,
            Gaussian, Inc.  All Rights Reserved.
  
 This is part of the Gaussian(R) 16 program.  It is based on
 the Gaussian(R) 09 system (copyright 2009, Gaussian, Inc.),
 the Gaussian(R) 03 system (copyright 2003, Gaussian, Inc.),
 the Gaussian(R) 98 system (copyright 1998, Gaussian, Inc.),
 the Gaussian(R) 94 system (copyright 1995, Gaussian, Inc.),
 the Gaussian 92(TM) system (copyright 1992, Gaussian, Inc.),
 the Gaussian 90(TM) system (copyright 1990, Gaussian, Inc.),
 the Gaussian 88(TM) system (copyright 1988, Gaussian, Inc.),
 the Gaussian 86(TM) system (copyright 1986, Carnegie Mellon
 University), and the Gaussian 82(TM) system (copyright 1983,
 Carnegie Mellon University). Gaussian is a federally registered
 trademark of Gaussian, Inc.
  
 This software contains proprietary and confidential information,
 including trade secrets, belonging to Gaussian, Inc.
  
 This software is provided under written license and may be
 used, copied, transmitted, or stored only in accord with that
 written license.
  
 The following legend is applicable only to US Government
 contracts under FAR:
  
                    RESTRICTED RIGHTS LEGEND
  
 Use, reproduction and disclosure by the US Government is
 subject to restrictions as set forth in subparagraphs (a)
 and (c) of the Commercial Computer Software - Restricted
 Rights clause in FAR 52.227-19.
  
 Gaussian, Inc.
 340 Quinnipiac St., Bldg. 40, Wallingford CT 06492
  
  
 ---------------------------------------------------------------
 Warning -- This program may not be used in any manner that
 competes with the business of Gaussian, Inc. or will provide
 assistance to any competitor of Gaussian, Inc.  The licensee
 of this program is prohibited from giving any competitor of
 Gaussian, Inc. access to this program.  By using this program,
 the user acknowledges that Gaussian, Inc. is engaged in the
 business of creating and licensing software in the field of
 computational chemistry and represents and warrants to the
 licensee that it is not a competitor of Gaussian, Inc. and that
 it will not use this program in any manner prohibited above.
 ---------------------------------------------------------------
  

 Cite this work as:
 Gaussian 16, Revision A.03,
 M. J. Frisch, G. W. Trucks, H. B. Schlegel, G. E. Scuseria, 
 M. A. Robb, J. R. Cheeseman, G. Scalmani, V. Barone, 
 G. A. Petersson, H. Nakatsuji, X. Li, M. Caricato, A. V. Marenich, 
 J. Bloino, B. G. Janesko, R. Gomperts, B. Mennucci, H. P. Hratchian, 
 J. V. Ortiz, A. F. Izmaylov, J. L. Sonnenberg, D. Williams-Young, 
 F. Ding, F. Lipparini, F. Egidi, J. Goings, B. Peng, A. Petrone, 
 T. Henderson, D. Ranasinghe, V. G. Zakrzewski, J. Gao, N. Rega, 
 G. Zheng, W. Liang, M. Hada, M. Ehara, K. Toyota, R. Fukuda, 
 J. Hasegawa, M. Ishida, T. Nakajima, Y. Honda, O. Kitao, H. Nakai, 
 T. Vreven, K. Throssell, J. A. Montgomery, Jr., J. E. Peralta, 
 F. Ogliaro, M. J. Bearpark, J. J. Heyd, E. N. Brothers, K. N. Kudin, 
 V. N. Staroverov, T. A. Keith, R. Kobayashi, J. Normand, 
 K. Raghavachari, A. P. Rendell, J. C. Burant, S. S. Iyengar, 
 J. Tomasi, M. Cossi, J. M. Millam, M. Klene, C. Adamo, R. Cammi, 
 J. W. Ochterski, R. L. Martin, K. Morokuma, O. Farkas, 
 J. B. Foresman, and D. J. Fox, Gaussian, Inc., Wallingford CT, 2016.
 
 ******************************************
 Gaussian 16:  EM64W-G16RevA.03 17-Dec-2016
                03-Dec-2025 
 ******************************************
 %nprocs=   4
 Will use up to    4 processors via shared memory.
 ------------------------------------
 #P B3LYP/6-31G* SCF=conver=7 out=wfn
 ------------------------------------
 1/38=1,172=1/1;
 2/12=2,17=6,18=5,40=1/2;
 3/5=1,6=6,7=1,11=2,25=1,30=1,74=-5/1,2,3;
 4//1;
 5/5=2,6=7,38=5/2;
 6/7=2,8=2,9=2,10=2,28=1/1;
 99/5=1,6=100,9=1/99;
 Leave Link    1 at Wed Dec 03 17:00:18 2025, MaxMem=           0 cpu:               0.0 elap:               0.1
 (Enter D:\Gaussian\G16W\l101.exe)
 ----------------------------------------------------
 Generated by Multiwfn (http://sobereva.com/multiwfn)
 ----------------------------------------------------
 Symbolic Z-matrix:
 Charge =  0 Multiplicity = 2
 C                    -0.86252   1.22763  -0.00007 
 C                     0.5101    1.19645  -0.00005 
 C                     1.17054  -0.09374  -0.0001 
 C                     0.3272   -1.28902   0.00001 
 C                    -1.05571  -1.20751   0.00002 
 C                    -1.66344   0.04854  -0.00005 
 H                    -1.64502  -2.11686   0.00005 
 O                     0.97947  -2.45224   0.00005 
 O                     2.41365  -0.25923   0.00017 
 H                     1.92648  -2.19742  -0.00006 
 C                     1.36798   2.42629   0. 
 H                     0.76185   3.33368  -0.00005 
 H                     2.02475   2.44026   0.87477 
 H                     2.02487   2.44024  -0.87468 
 H                    -1.36884   2.18853  -0.00008 
 C                    -3.16179   0.1796   -0.00003 
 H                    -3.50567   0.73422   0.87951 
 H                    -3.50569   0.73436  -0.87948 
 H                    -3.65186  -0.79477  -0.0001 
 
 ITRead=  0  0  0  0  0  0  0  0  0  0  0  0  0  0  0  0  0  0  0
 MicOpt= -1 -1 -1 -1 -1 -1 -1 -1 -1 -1 -1 -1 -1 -1 -1 -1 -1 -1 -1
 NAtoms=     19 NQM=       19 NQMF=       0 NMMI=      0 NMMIF=      0
                NMic=       0 NMicF=      0.
                    Isotopes and Nuclear Properties:
 (Nuclear quadrupole moments (NQMom) in fm**2, nuclear magnetic moments (NMagM)
  in nuclear magnetons)

  Atom         1           2           3           4           5           6           7           8           9          10
 IAtWgt=          12          12          12          12          12          12           1          16          16           1
 AtmWgt=  12.0000000  12.0000000  12.0000000  12.0000000  12.0000000  12.0000000   1.0078250  15.9949146  15.9949146   1.0078250
 NucSpn=           0           0           0           0           0           0           1           0           0           1
 AtZEff=   0.0000000   0.0000000   0.0000000   0.0000000   0.0000000   0.0000000   0.0000000   0.0000000   0.0000000   0.0000000
 NQMom=    0.0000000   0.0000000   0.0000000   0.0000000   0.0000000   0.0000000   0.0000000   0.0000000   0.0000000   0.0000000
 NMagM=    0.0000000   0.0000000   0.0000000   0.0000000   0.0000000   0.0000000   2.7928460   0.0000000   0.0000000   2.7928460
 AtZNuc=   6.0000000   6.0000000   6.0000000   6.0000000   6.0000000   6.0000000   1.0000000   8.0000000   8.0000000   1.0000000

  Atom        11          12          13          14          15          16          17          18          19
 IAtWgt=          12           1           1           1           1          12           1           1           1
 AtmWgt=  12.0000000   1.0078250   1.0078250   1.0078250   1.0078250  12.0000000   1.0078250   1.0078250   1.0078250
 NucSpn=           0           1           1           1           1           0           1           1           1
 AtZEff=   0.0000000   0.0000000   0.0000000   0.0000000   0.0000000   0.0000000   0.0000000   0.0000000   0.0000000
 NQMom=    0.0000000   0.0000000   0.0000000   0.0000000   0.0000000   0.0000000   0.0000000   0.0000000   0.0000000
 NMagM=    0.0000000   2.7928460   2.7928460   2.7928460   2.7928460   0.0000000   2.7928460   2.7928460   2.7928460
 AtZNuc=   6.0000000   1.0000000   1.0000000   1.0000000   1.0000000   6.0000000   1.0000000   1.0000000   1.0000000
 Leave Link  101 at Wed Dec 03 17:00:18 2025, MaxMem=   104857600 cpu:               0.0 elap:               0.1
 (Enter D:\Gaussian\G16W\l202.exe)
                          Input orientation:                          
 ---------------------------------------------------------------------
 Center     Atomic      Atomic             Coordinates (Angstroms)
 Number     Number       Type             X           Y           Z
 ---------------------------------------------------------------------
      1          6           0       -0.862515    1.227633   -0.000068
      2          6           0        0.510097    1.196453   -0.000050
      3          6           0        1.170544   -0.093741   -0.000098
      4          6           0        0.327195   -1.289020    0.000014
      5          6           0       -1.055706   -1.207505    0.000015
      6          6           0       -1.663440    0.048544   -0.000051
      7          1           0       -1.645023   -2.116855    0.000054
      8          8           0        0.979466   -2.452242    0.000047
      9          8           0        2.413654   -0.259227    0.000167
     10          1           0        1.926481   -2.197420   -0.000064
     11          6           0        1.367980    2.426288    0.000002
     12          1           0        0.761848    3.333677   -0.000046
     13          1           0        2.024750    2.440262    0.874774
     14          1           0        2.024873    2.440243   -0.874676
     15          1           0       -1.368839    2.188534   -0.000076
     16          6           0       -3.161792    0.179601   -0.000032
     17          1           0       -3.505673    0.734219    0.879509
     18          1           0       -3.505685    0.734355   -0.879480
     19          1           0       -3.651863   -0.794769   -0.000100
 ---------------------------------------------------------------------
                    Distance matrix (angstroms):
                    1          2          3          4          5
     1  C    0.000000
     2  C    1.372966   0.000000
     3  C    2.424739   1.449411   0.000000
     4  C    2.783694   2.492194   1.462850   0.000000
     5  C    2.442789   2.868929   2.489309   1.385301   0.000000
     6  C    1.425388   2.458039   2.837554   2.398271   1.395349
     7  H    3.434810   3.952537   3.467046   2.138914   1.083611
     8  O    4.115140   3.678761   2.366229   1.333620   2.385644
     9  O    3.597782   2.396358   1.254077   2.326754   3.596622
    10  H    4.416954   3.677570   2.235376   1.839268   3.142192
    11  C    2.532169   1.499486   2.527751   3.858335   4.367918
    12  H    2.659695   2.152000   3.451699   4.643086   4.891404
    13  H    3.251479   2.146288   2.813581   4.189802   4.853928
    14  H    3.251518   2.146283   2.813510   4.189820   4.853979
    15  H    1.086138   2.124765   3.414271   3.869097   3.410445
    16  C    2.526865   3.810086   4.340950   3.785483   2.521837
    17  H    2.829028   4.136870   4.829724   4.422430   3.247482
    18  H    2.828964   4.136839   4.829718   4.422502   3.247573
    19  H    3.445370   4.613770   4.873094   4.009637   2.628761
                    6          7          8          9         10
     6  C    0.000000
     7  H    2.165477   0.000000
     8  O    3.638528   2.645832   0.000000
     9  O    4.088694   4.463591   2.620345   0.000000
    10  H    4.234606   3.572413   0.980700   1.998482   0.000000
    11  C    3.852684   5.451453   4.893976   2.881913   4.657317
    12  H    4.083396   5.958299   5.790010   3.954418   5.652380
    13  H    4.482006   5.916053   5.078815   2.864162   4.720497
    14  H    4.482058   5.916116   5.078821   2.864200   4.720439
    15  H    2.160173   4.314238   5.201090   4.505418   5.485957
    16  C    1.504073   2.752144   4.906793   5.592689   5.616115
    17  H    2.153508   3.516260   5.571666   6.066186   6.235098
    18  H    2.153508   3.516396   5.571763   6.066264   6.235151
    19  H    2.159862   2.403189   4.918986   6.089113   5.751987
                   11         12         13         14         15
    11  C    0.000000
    12  H    1.091215   0.000000
    13  H    1.093969   1.777195   0.000000
    14  H    1.093967   1.777198   1.749450   0.000000
    15  H    2.747127   2.418921   3.513570   3.513625   0.000000
    16  C    5.056326   5.034198   5.725041   5.725120   2.692674
    17  H    5.233462   5.073710   5.787589   6.047696   2.730341
    18  H    5.233425   5.073630   6.047581   5.787672   2.730220
    19  H    5.964397   6.043584   6.592023   6.592080   3.756634
                   16         17         18         19
    16  C    0.000000
    17  H    1.095193   0.000000
    18  H    1.095191   1.758989   0.000000
    19  H    1.090672   1.769997   1.769999   0.000000
 Stoichiometry    C8H9O2(2)
 Framework group  C1[X(C8H9O2)]
 Deg. of freedom    51
 Full point group                 C1      NOp   1
 Largest Abelian subgroup         C1      NOp   1
 Largest concise Abelian subgroup C1      NOp   1
                         Standard orientation:                         
 ---------------------------------------------------------------------
 Center     Atomic      Atomic             Coordinates (Angstroms)
 Number     Number       Type             X           Y           Z
 ---------------------------------------------------------------------
      1          6           0       -0.862515    1.227633   -0.000068
      2          6           0        0.510097    1.196453   -0.000050
      3          6           0        1.170544   -0.093741   -0.000098
      4          6           0        0.327195   -1.289020    0.000014
      5          6           0       -1.055706   -1.207505    0.000015
      6          6           0       -1.663440    0.048544   -0.000051
      7          1           0       -1.645023   -2.116855    0.000054
      8          8           0        0.979466   -2.452242    0.000047
      9          8           0        2.413654   -0.259227    0.000167
     10          1           0        1.926481   -2.197420   -0.000064
     11          6           0        1.367980    2.426288    0.000002
     12          1           0        0.761847    3.333677   -0.000046
     13          1           0        2.024750    2.440262    0.874774
     14          1           0        2.024873    2.440243   -0.874676
     15          1           0       -1.368839    2.188534   -0.000076
     16          6           0       -3.161792    0.179600   -0.000032
     17          1           0       -3.505673    0.734218    0.879509
     18          1           0       -3.505685    0.734354   -0.879480
     19          1           0       -3.651863   -0.794770   -0.000100
 ---------------------------------------------------------------------
 Rotational constants (GHZ):           1.7878178           1.3098515           0.7630600
 Leave Link  202 at Wed Dec 03 17:00:18 2025, MaxMem=   104857600 cpu:               0.0 elap:               0.0
 (Enter D:\Gaussian\G16W\l301.exe)
 Standard basis: 6-31G(d) (6D, 7F)
 Ernie: Thresh=  0.10000D-02 Tol=  0.10000D-05 Strict=F.
 There are   168 symmetry adapted cartesian basis functions of A   symmetry.
 There are   168 symmetry adapted basis functions of A   symmetry.
   168 basis functions,   316 primitive gaussians,   168 cartesian basis functions
    37 alpha electrons       36 beta electrons
       nuclear repulsion energy       505.9615208771 Hartrees.
 IExCor=  402 DFT=T Ex+Corr=B3LYP ExCW=0 ScaHFX=  0.200000
 ScaDFX=  0.800000  0.720000  1.000000  0.810000 ScalE2=  1.000000  1.000000
 IRadAn=      5 IRanWt=     -1 IRanGd=            0 ICorTp=0 IEmpDi=  4
 NAtoms=   19 NActive=   19 NUniq=   19 SFac= 1.00D+00 NAtFMM=   60 NAOKFM=F Big=F
 Integral buffers will be    131072 words long.
 Raffenetti 2 integral format.
 Two-electron integral symmetry is turned on.
 Leave Link  301 at Wed Dec 03 17:00:18 2025, MaxMem=   104857600 cpu:               0.0 elap:               0.1
 (Enter D:\Gaussian\G16W\l302.exe)
 NPDir=0 NMtPBC=     1 NCelOv=     1 NCel=       1 NClECP=     1 NCelD=      1
         NCelK=      1 NCelE2=     1 NClLst=     1 CellRange=     0.0.
 One-electron integrals computed using PRISM.
 One-electron integral symmetry used in STVInt
 NBasis=   168 RedAO= T EigKep=  4.10D-04  NBF=   168
 NBsUse=   168 1.00D-06 EigRej= -1.00D+00 NBFU=   168
 Precomputing XC quadrature grid using
 IXCGrd= 4 IRadAn=           5 IRanWt=          -1 IRanGd=           0 AccXCQ= 0.00D+00.
 Generated NRdTot=       0 NPtTot=           0 NUsed=           0 NTot=          32
 NSgBfM=   168   168   168   168   168 MxSgAt=    19 MxSgA2=    19.
 Leave Link  302 at Wed Dec 03 17:00:18 2025, MaxMem=   104857600 cpu:               0.0 elap:               0.4
 (Enter D:\Gaussian\G16W\l303.exe)
 DipDrv:  MaxL=1.
 Leave Link  303 at Wed Dec 03 17:00:18 2025, MaxMem=   104857600 cpu:               0.0 elap:               0.1
 (Enter D:\Gaussian\G16W\l401.exe)
 ExpMin= 1.61D-01 ExpMax= 5.48D+03 ExpMxC= 8.25D+02 IAcc=3 IRadAn=         5 AccDes= 0.00D+00
 Harris functional with IExCor=  402 and IRadAn=       5 diagonalized for initial guess.
 HarFok:  IExCor=  402 AccDes= 0.00D+00 IRadAn=         5 IDoV= 1 UseB2=F ITyADJ=14
 ICtDFT=  3500011 ScaDFX=  1.000000  1.000000  1.000000  1.000000
 FoFCou: FMM=F IPFlag=           0 FMFlag=      100000 FMFlg1=           0
         NFxFlg=           0 DoJE=T BraDBF=F KetDBF=T FulRan=T
         wScrn=  0.000000 ICntrl=       500 IOpCl=  0 I1Cent=   200000004 NGrid=           0
         NMat0=    1 NMatS0=      1 NMatT0=    0 NMatD0=    1 NMtDS0=    0 NMtDT0=    0
 Petite list used in FoFCou.
 Harris En= -460.727871660294    
 JPrj=0 DoOrth=F DoCkMO=F.
 Initial guess <Sx>= 0.0000 <Sy>= 0.0000 <Sz>= 0.5000 <S**2>= 0.7500 S= 0.5000
 Leave Link  401 at Wed Dec 03 17:00:20 2025, MaxMem=   104857600 cpu:               2.0 elap:               1.2
 (Enter D:\Gaussian\G16W\l502.exe)
 Integral symmetry usage will be decided dynamically.
 UHF open shell SCF:
 Using DIIS extrapolation, IDIIS=  1040.
 NGot=   104857600 LenX=   104798149 LenY=   104769484
 Requested convergence on RMS density matrix=1.00D-07 within 128 cycles.
 Requested convergence on MAX density matrix=1.00D-05.
 Requested convergence on             energy=1.00D-05.
 No special actions if energy rises.
 Fock matrices will be formed incrementally for  20 cycles.
 Integral accuracy reduced to 1.0D-05 until final iterations.

 Cycle   1  Pass 0  IDiag  1:
 FoFJK:  IHMeth= 1 ICntrl=       0 DoSepK=F KAlg= 0 I1Cent=           0 FoldK=F
 IRaf= 930000000 NMat=       1 IRICut=       1 DoRegI=T DoRafI=F ISym2E= 0 IDoP0=0 IntGTp=1.
 FoFCou: FMM=F IPFlag=           0 FMFlag=      100000 FMFlg1=           0
         NFxFlg=           0 DoJE=F BraDBF=F KetDBF=F FulRan=T
         wScrn=  0.000000 ICntrl=         0 IOpCl=  1 I1Cent=           0 NGrid=           0
         NMat0=    1 NMatS0=      1 NMatT0=    0 NMatD0=    1 NMtDS0=    0 NMtDT0=    0
 Symmetry not used in FoFCou.
 E= -460.439995574354    
 DIIS: error= 4.63D-02 at cycle   1 NSaved=   1.
 NSaved= 1 IEnMin= 1 EnMin= -460.439995574354     IErMin= 1 ErrMin= 4.63D-02
 ErrMax= 4.63D-02  0.00D+00 EMaxC= 1.00D-01 BMatC= 1.08D+00 BMatP= 1.08D+00
 IDIUse=3 WtCom= 5.37D-01 WtEn= 4.63D-01
 Coeff-Com:  0.100D+01
 Coeff-En:   0.100D+01
 Coeff:      0.100D+01
 Gap=     0.190 Goal=   None    Shift=    0.000
 Gap=     0.096 Goal=   None    Shift=    0.000
 GapD=    0.096 DampG=0.500 DampE=0.500 DampFc=0.2500 IDamp=-1.
 Damping current iteration by 2.50D-01
 RMSDP=7.21D-03 MaxDP=1.93D-01              OVMax= 2.42D-01

 Cycle   2  Pass 0  IDiag  1:
 RMSU=  1.79D-03    CP:  9.91D-01
 E= -460.533637850388     Delta-E=       -0.093642276034 Rises=F Damp=T
 DIIS: error= 2.33D-02 at cycle   2 NSaved=   2.
 NSaved= 2 IEnMin= 2 EnMin= -460.533637850388     IErMin= 2 ErrMin= 2.33D-02
 ErrMax= 2.33D-02  0.00D+00 EMaxC= 1.00D-01 BMatC= 2.61D-01 BMatP= 1.08D+00
 IDIUse=3 WtCom= 7.67D-01 WtEn= 2.33D-01
 Coeff-Com: -0.719D+00 0.172D+01
 Coeff-En:   0.000D+00 0.100D+01
 Coeff:     -0.551D+00 0.155D+01
 Gap=     0.216 Goal=   None    Shift=    0.000
 Gap=     0.150 Goal=   None    Shift=    0.000
 RMSDP=2.43D-03 MaxDP=5.44D-02 DE=-9.36D-02 OVMax= 1.89D-01

 Cycle   3  Pass 0  IDiag  1:
 RMSU=  2.02D-03    CP:  9.69D-01  1.68D+00
 E= -460.676922452741     Delta-E=       -0.143284602354 Rises=F Damp=F
 DIIS: error= 1.32D-02 at cycle   3 NSaved=   3.
 NSaved= 3 IEnMin= 3 EnMin= -460.676922452741     IErMin= 3 ErrMin= 1.32D-02
 ErrMax= 1.32D-02  0.00D+00 EMaxC= 1.00D-01 BMatC= 1.06D-01 BMatP= 2.61D-01
 IDIUse=3 WtCom= 8.68D-01 WtEn= 1.32D-01
 Coeff-Com: -0.385D+00 0.914D+00 0.471D+00
 Coeff-En:   0.000D+00 0.000D+00 0.100D+01
 Coeff:     -0.334D+00 0.793D+00 0.541D+00
 Gap=     0.196 Goal=   None    Shift=    0.000
 Gap=     0.121 Goal=   None    Shift=    0.000
 RMSDP=1.52D-03 MaxDP=5.91D-02 DE=-1.43D-01 OVMax= 7.83D-02

 Cycle   4  Pass 0  IDiag  1:
 RMSU=  1.07D-03    CP:  9.74D-01  1.76D+00  4.75D-01
 E= -460.695268169459     Delta-E=       -0.018345716718 Rises=F Damp=F
 DIIS: error= 7.33D-03 at cycle   4 NSaved=   4.
 NSaved= 4 IEnMin= 4 EnMin= -460.695268169459     IErMin= 4 ErrMin= 7.33D-03
 ErrMax= 7.33D-03  0.00D+00 EMaxC= 1.00D-01 BMatC= 3.16D-02 BMatP= 1.06D-01
 IDIUse=3 WtCom= 9.27D-01 WtEn= 7.33D-02
 Coeff-Com: -0.176D-01 0.932D-01 0.346D+00 0.578D+00
 Coeff-En:   0.000D+00 0.000D+00 0.237D+00 0.763D+00
 Coeff:     -0.163D-01 0.864D-01 0.338D+00 0.592D+00
 Gap=     0.198 Goal=   None    Shift=    0.000
 Gap=     0.141 Goal=   None    Shift=    0.000
 RMSDP=6.93D-04 MaxDP=2.50D-02 DE=-1.83D-02 OVMax= 3.83D-02

 Cycle   5  Pass 0  IDiag  1:
 RMSU=  3.29D-04    CP:  9.73D-01  1.65D+00  6.56D-01  5.88D-01
 E= -460.701336736930     Delta-E=       -0.006068567471 Rises=F Damp=F
 DIIS: error= 2.34D-03 at cycle   5 NSaved=   5.
 NSaved= 5 IEnMin= 5 EnMin= -460.701336736930     IErMin= 5 ErrMin= 2.34D-03
 ErrMax= 2.34D-03  0.00D+00 EMaxC= 1.00D-01 BMatC= 2.63D-03 BMatP= 3.16D-02
 IDIUse=3 WtCom= 9.77D-01 WtEn= 2.34D-02
 Coeff-Com:  0.236D-01-0.228D-01 0.171D+00 0.365D+00 0.463D+00
 Coeff-En:   0.000D+00 0.000D+00 0.000D+00 0.267D-02 0.997D+00
 Coeff:      0.230D-01-0.223D-01 0.167D+00 0.356D+00 0.476D+00
 Gap=     0.196 Goal=   None    Shift=    0.000
 Gap=     0.119 Goal=   None    Shift=    0.000
 RMSDP=2.13D-04 MaxDP=7.08D-03 DE=-6.07D-03 OVMax= 1.68D-02

 Cycle   6  Pass 0  IDiag  1:
 RMSU=  1.21D-04    CP:  9.73D-01  1.66D+00  6.57D-01  6.54D-01  5.19D-01
 E= -460.702023608655     Delta-E=       -0.000686871724 Rises=F Damp=F
 DIIS: error= 6.32D-04 at cycle   6 NSaved=   6.
 NSaved= 6 IEnMin= 6 EnMin= -460.702023608655     IErMin= 6 ErrMin= 6.32D-04
 ErrMax= 6.32D-04  0.00D+00 EMaxC= 1.00D-01 BMatC= 2.61D-04 BMatP= 2.63D-03
 IDIUse=3 WtCom= 9.94D-01 WtEn= 6.32D-03
 Coeff-Com:  0.154D-01-0.249D-01 0.375D-01 0.808D-01 0.240D+00 0.651D+00
 Coeff-En:   0.000D+00 0.000D+00 0.000D+00 0.000D+00 0.000D+00 0.100D+01
 Coeff:      0.153D-01-0.248D-01 0.372D-01 0.802D-01 0.239D+00 0.653D+00
 Gap=     0.197 Goal=   None    Shift=    0.000
 Gap=     0.119 Goal=   None    Shift=    0.000
 RMSDP=7.46D-05 MaxDP=2.41D-03 DE=-6.87D-04 OVMax= 6.12D-03

 Cycle   7  Pass 0  IDiag  1:
 RMSU=  5.64D-05    CP:  9.73D-01  1.66D+00  6.62D-01  6.46D-01  6.61D-01
                    CP:  1.00D+00
 E= -460.702108735943     Delta-E=       -0.000085127288 Rises=F Damp=F
 DIIS: error= 2.81D-04 at cycle   7 NSaved=   7.
 NSaved= 7 IEnMin= 7 EnMin= -460.702108735943     IErMin= 7 ErrMin= 2.81D-04
 ErrMax= 2.81D-04  0.00D+00 EMaxC= 1.00D-01 BMatC= 8.06D-05 BMatP= 2.61D-04
 IDIUse=3 WtCom= 9.97D-01 WtEn= 2.81D-03
 Coeff-Com:  0.263D-02-0.808D-02-0.273D-01-0.707D-01 0.882D-02 0.398D+00
 Coeff-Com:  0.696D+00
 Coeff-En:   0.000D+00 0.000D+00 0.000D+00 0.000D+00 0.000D+00 0.000D+00
 Coeff-En:   0.100D+01
 Coeff:      0.263D-02-0.805D-02-0.273D-01-0.705D-01 0.880D-02 0.397D+00
 Coeff:      0.697D+00
 Gap=     0.197 Goal=   None    Shift=    0.000
 Gap=     0.120 Goal=   None    Shift=    0.000
 RMSDP=4.90D-05 MaxDP=2.06D-03 DE=-8.51D-05 OVMax= 5.12D-03

 Cycle   8  Pass 0  IDiag  1:
 RMSU=  3.16D-05    CP:  9.73D-01  1.66D+00  6.68D-01  6.55D-01  7.01D-01
                    CP:  1.25D+00  8.41D-01
 E= -460.702146940214     Delta-E=       -0.000038204271 Rises=F Damp=F
 DIIS: error= 1.93D-04 at cycle   8 NSaved=   8.
 NSaved= 8 IEnMin= 8 EnMin= -460.702146940214     IErMin= 8 ErrMin= 1.93D-04
 ErrMax= 1.93D-04  0.00D+00 EMaxC= 1.00D-01 BMatC= 1.79D-05 BMatP= 8.06D-05
 IDIUse=3 WtCom= 9.98D-01 WtEn= 1.93D-03
 Coeff-Com: -0.234D-02 0.279D-02-0.205D-01-0.575D-01-0.721D-01-0.774D-01
 Coeff-Com:  0.313D+00 0.914D+00
 Coeff-En:   0.000D+00 0.000D+00 0.000D+00 0.000D+00 0.000D+00 0.000D+00
 Coeff-En:   0.000D+00 0.100D+01
 Coeff:     -0.234D-02 0.278D-02-0.205D-01-0.574D-01-0.720D-01-0.772D-01
 Coeff:      0.312D+00 0.914D+00
 Gap=     0.198 Goal=   None    Shift=    0.000
 Gap=     0.120 Goal=   None    Shift=    0.000
 RMSDP=3.47D-05 MaxDP=1.26D-03 DE=-3.82D-05 OVMax= 3.33D-03

 Cycle   9  Pass 0  IDiag  1:
 RMSU=  1.32D-05    CP:  9.73D-01  1.65D+00  6.71D-01  6.52D-01  7.53D-01
                    CP:  1.40D+00  1.14D+00  1.22D+00
 E= -460.702158495792     Delta-E=       -0.000011555578 Rises=F Damp=F
 DIIS: error= 7.11D-05 at cycle   9 NSaved=   9.
 NSaved= 9 IEnMin= 9 EnMin= -460.702158495792     IErMin= 9 ErrMin= 7.11D-05
 ErrMax= 7.11D-05  0.00D+00 EMaxC= 1.00D-01 BMatC= 5.26D-06 BMatP= 1.79D-05
 IDIUse=1 WtCom= 1.00D+00 WtEn= 0.00D+00
 Coeff-Com: -0.176D-02 0.298D-02-0.708D-02-0.226D-01-0.474D-01-0.134D+00
 Coeff-Com:  0.631D-01 0.560D+00 0.587D+00
 Coeff:     -0.176D-02 0.298D-02-0.708D-02-0.226D-01-0.474D-01-0.134D+00
 Coeff:      0.631D-01 0.560D+00 0.587D+00
 Gap=     0.198 Goal=   None    Shift=    0.000
 Gap=     0.120 Goal=   None    Shift=    0.000
 RMSDP=1.25D-05 MaxDP=5.18D-04 DE=-1.16D-05 OVMax= 1.55D-03

 Cycle  10  Pass 0  IDiag  1:
 RMSU=  5.71D-06    CP:  9.73D-01  1.65D+00  6.72D-01  6.52D-01  7.60D-01
                    CP:  1.47D+00  1.23D+00  1.37D+00  7.85D-01
 E= -460.702160628602     Delta-E=       -0.000002132810 Rises=F Damp=F
 DIIS: error= 2.05D-05 at cycle  10 NSaved=  10.
 NSaved=10 IEnMin=10 EnMin= -460.702160628602     IErMin=10 ErrMin= 2.05D-05
 ErrMax= 2.05D-05  0.00D+00 EMaxC= 1.00D-01 BMatC= 3.32D-07 BMatP= 5.26D-06
 IDIUse=1 WtCom= 1.00D+00 WtEn= 0.00D+00
 Coeff-Com:  0.164D-03-0.859D-04 0.189D-02 0.437D-02 0.250D-02-0.156D-01
 Coeff-Com: -0.304D-01-0.370D-01 0.129D+00 0.945D+00
 Coeff:      0.164D-03-0.859D-04 0.189D-02 0.437D-02 0.250D-02-0.156D-01
 Coeff:     -0.304D-01-0.370D-01 0.129D+00 0.945D+00
 Gap=     0.198 Goal=   None    Shift=    0.000
 Gap=     0.120 Goal=   None    Shift=    0.000
 RMSDP=5.44D-06 MaxDP=2.64D-04 DE=-2.13D-06 OVMax= 6.99D-04

 Initial convergence to 1.0D-05 achieved.  Increase integral accuracy.
 Cycle  11  Pass 1  IDiag  1:
 E= -460.702160735211     Delta-E=       -0.000000106608 Rises=F Damp=F
 DIIS: error= 1.47D-05 at cycle   1 NSaved=   1.
 NSaved= 1 IEnMin= 1 EnMin= -460.702160735211     IErMin= 1 ErrMin= 1.47D-05
 ErrMax= 1.47D-05  0.00D+00 EMaxC= 1.00D-01 BMatC= 2.80D-07 BMatP= 2.80D-07
 IDIUse=1 WtCom= 1.00D+00 WtEn= 0.00D+00
 Coeff-Com:  0.100D+01
 Coeff:      0.100D+01
 Gap=     0.198 Goal=   None    Shift=    0.000
 Gap=     0.120 Goal=   None    Shift=    0.000
 RMSDP=5.44D-06 MaxDP=2.64D-04 DE=-1.07D-07 OVMax= 3.03D-04

 Cycle  12  Pass 1  IDiag  1:
 RMSU=  6.27D-06    CP:  1.00D+00
 E= -460.702160780305     Delta-E=       -0.000000045094 Rises=F Damp=F
 DIIS: error= 1.89D-05 at cycle   2 NSaved=   2.
 NSaved= 2 IEnMin= 2 EnMin= -460.702160780305     IErMin= 1 ErrMin= 1.47D-05
 ErrMax= 1.89D-05  0.00D+00 EMaxC= 1.00D-01 BMatC= 2.97D-07 BMatP= 2.80D-07
 IDIUse=1 WtCom= 1.00D+00 WtEn= 0.00D+00
 Coeff-Com:  0.510D+00 0.490D+00
 Coeff:      0.510D+00 0.490D+00
 Gap=     0.198 Goal=   None    Shift=    0.000
 Gap=     0.120 Goal=   None    Shift=    0.000
 RMSDP=2.14D-06 MaxDP=7.95D-05 DE=-4.51D-08 OVMax= 1.50D-04

 Cycle  13  Pass 1  IDiag  1:
 RMSU=  2.03D-06    CP:  1.00D+00  8.95D-01
 E= -460.702160860218     Delta-E=       -0.000000079913 Rises=F Damp=F
 DIIS: error= 6.77D-06 at cycle   3 NSaved=   3.
 NSaved= 3 IEnMin= 3 EnMin= -460.702160860218     IErMin= 3 ErrMin= 6.77D-06
 ErrMax= 6.77D-06  0.00D+00 EMaxC= 1.00D-01 BMatC= 3.19D-08 BMatP= 2.80D-07
 IDIUse=1 WtCom= 1.00D+00 WtEn= 0.00D+00
 Coeff-Com: -0.218D-01 0.202D+00 0.820D+00
 Coeff:     -0.218D-01 0.202D+00 0.820D+00
 Gap=     0.198 Goal=   None    Shift=    0.000
 Gap=     0.120 Goal=   None    Shift=    0.000
 RMSDP=1.06D-06 MaxDP=4.75D-05 DE=-7.99D-08 OVMax= 1.40D-04

 Cycle  14  Pass 1  IDiag  1:
 RMSU=  9.30D-07    CP:  1.00D+00  9.77D-01  9.90D-01
 E= -460.702160878694     Delta-E=       -0.000000018476 Rises=F Damp=F
 DIIS: error= 3.58D-06 at cycle   4 NSaved=   4.
 NSaved= 4 IEnMin= 4 EnMin= -460.702160878694     IErMin= 4 ErrMin= 3.58D-06
 ErrMax= 3.58D-06  0.00D+00 EMaxC= 1.00D-01 BMatC= 1.04D-08 BMatP= 3.19D-08
 IDIUse=1 WtCom= 1.00D+00 WtEn= 0.00D+00
 Coeff-Com: -0.919D-01 0.429D-01 0.434D+00 0.615D+00
 Coeff:     -0.919D-01 0.429D-01 0.434D+00 0.615D+00
 Gap=     0.198 Goal=   None    Shift=    0.000
 Gap=     0.120 Goal=   None    Shift=    0.000
 RMSDP=5.75D-07 MaxDP=2.89D-05 DE=-1.85D-08 OVMax= 6.76D-05

 Cycle  15  Pass 1  IDiag  1:
 RMSU=  4.43D-07    CP:  1.00D+00  9.99D-01  1.09D+00  1.28D+00
 E= -460.702160884914     Delta-E=       -0.000000006220 Rises=F Damp=F
 DIIS: error= 2.25D-06 at cycle   5 NSaved=   5.
 NSaved= 5 IEnMin= 5 EnMin= -460.702160884914     IErMin= 5 ErrMin= 2.25D-06
 ErrMax= 2.25D-06  0.00D+00 EMaxC= 1.00D-01 BMatC= 2.59D-09 BMatP= 1.04D-08
 IDIUse=1 WtCom= 1.00D+00 WtEn= 0.00D+00
 Coeff-Com: -0.210D-01-0.857D-01-0.299D+00 0.222D+00 0.118D+01
 Coeff:     -0.210D-01-0.857D-01-0.299D+00 0.222D+00 0.118D+01
 Gap=     0.198 Goal=   None    Shift=    0.000
 Gap=     0.120 Goal=   None    Shift=    0.000
 RMSDP=7.51D-07 MaxDP=3.78D-05 DE=-6.22D-09 OVMax= 1.14D-04

 Cycle  16  Pass 1  IDiag  1:
 RMSU=  2.54D-07    CP:  1.00D+00  1.04D+00  1.22D+00  1.93D+00  1.33D+00
 E= -460.702160888272     Delta-E=       -0.000000003358 Rises=F Damp=F
 DIIS: error= 2.21D-06 at cycle   6 NSaved=   6.
 NSaved= 6 IEnMin= 6 EnMin= -460.702160888272     IErMin= 6 ErrMin= 2.21D-06
 ErrMax= 2.21D-06  0.00D+00 EMaxC= 1.00D-01 BMatC= 2.70D-09 BMatP= 2.59D-09
 IDIUse=1 WtCom= 1.00D+00 WtEn= 0.00D+00
 Coeff-Com:  0.481D-02-0.767D-01-0.337D+00 0.260D-01 0.948D+00 0.436D+00
 Coeff:      0.481D-02-0.767D-01-0.337D+00 0.260D-01 0.948D+00 0.436D+00
 Gap=     0.198 Goal=   None    Shift=    0.000
 Gap=     0.120 Goal=   None    Shift=    0.000
 RMSDP=2.59D-07 MaxDP=1.04D-05 DE=-3.36D-09 OVMax= 2.75D-05

 Cycle  17  Pass 1  IDiag  1:
 RMSU=  7.58D-08    CP:  1.00D+00  1.04D+00  1.26D+00  2.10D+00  1.59D+00
                    CP:  5.07D-01
 E= -460.702160889075     Delta-E=       -0.000000000802 Rises=F Damp=F
 DIIS: error= 2.98D-07 at cycle   7 NSaved=   7.
 NSaved= 7 IEnMin= 7 EnMin= -460.702160889075     IErMin= 7 ErrMin= 2.98D-07
 ErrMax= 2.98D-07  0.00D+00 EMaxC= 1.00D-01 BMatC= 6.97D-11 BMatP= 2.59D-09
 IDIUse=1 WtCom= 1.00D+00 WtEn= 0.00D+00
 Coeff-Com:  0.380D-02-0.318D-01-0.145D+00-0.499D-02 0.395D+00 0.191D+00
 Coeff-Com:  0.592D+00
 Coeff:      0.380D-02-0.318D-01-0.145D+00-0.499D-02 0.395D+00 0.191D+00
 Coeff:      0.592D+00
 Gap=     0.198 Goal=   None    Shift=    0.000
 Gap=     0.120 Goal=   None    Shift=    0.000
 RMSDP=4.45D-08 MaxDP=1.76D-06 DE=-8.02D-10 OVMax= 4.29D-06

 SCF Done:  E(UB3LYP) =  -460.702160889     A.U. after   17 cycles
            NFock= 17  Conv=0.45D-07     -V/T= 2.0091
 <Sx>= 0.0000 <Sy>= 0.0000 <Sz>= 0.5000 <S**2>= 0.7700 S= 0.5100
 <L.S>= 0.000000000000E+00
 KE= 4.565403290963D+02 PE=-2.084715981918D+03 EE= 6.615119710558D+02
 Annihilation of the first spin contaminant:
 S**2 before annihilation     0.7700,   after     0.7503
 Leave Link  502 at Wed Dec 03 17:00:55 2025, MaxMem=   104857600 cpu:              35.0 elap:              35.2
 (Enter D:\Gaussian\G16W\l601.exe)
 Copying SCF densities to generalized density rwf, IOpCl= 1 IROHF=0.

 **********************************************************************

            Population analysis using the SCF density.

 **********************************************************************

 Orbital symmetries:
 Alpha Orbitals:
       Occupied  (A) (A) (A) (A) (A) (A) (A) (A) (A) (A) (A) (A)
                 (A) (A) (A) (A) (A) (A) (A) (A) (A) (A) (A) (A)
                 (A) (A) (A) (A) (A) (A) (A) (A) (A) (A) (A) (A)
                 (A)
       Virtual   (A) (A) (A) (A) (A) (A) (A) (A) (A) (A) (A) (A)
                 (A) (A) (A) (A) (A) (A) (A) (A) (A) (A) (A) (A)
                 (A) (A) (A) (A) (A) (A) (A) (A) (A) (A) (A) (A)
                 (A) (A) (A) (A) (A) (A) (A) (A) (A) (A) (A) (A)
                 (A) (A) (A) (A) (A) (A) (A) (A) (A) (A) (A) (A)
                 (A) (A) (A) (A) (A) (A) (A) (A) (A) (A) (A) (A)
                 (A) (A) (A) (A) (A) (A) (A) (A) (A) (A) (A) (A)
                 (A) (A) (A) (A) (A) (A) (A) (A) (A) (A) (A) (A)
                 (A) (A) (A) (A) (A) (A) (A) (A) (A) (A) (A) (A)
                 (A) (A) (A) (A) (A) (A) (A) (A) (A) (A) (A) (A)
                 (A) (A) (A) (A) (A) (A) (A) (A) (A) (A) (A)
 Beta  Orbitals:
       Occupied  (A) (A) (A) (A) (A) (A) (A) (A) (A) (A) (A) (A)
                 (A) (A) (A) (A) (A) (A) (A) (A) (A) (A) (A) (A)
                 (A) (A) (A) (A) (A) (A) (A) (A) (A) (A) (A) (A)
       Virtual   (A) (A) (A) (A) (A) (A) (A) (A) (A) (A) (A) (A)
                 (A) (A) (A) (A) (A) (A) (A) (A) (A) (A) (A) (A)
                 (A) (A) (A) (A) (A) (A) (A) (A) (A) (A) (A) (A)
                 (A) (A) (A) (A) (A) (A) (A) (A) (A) (A) (A) (A)
                 (A) (A) (A) (A) (A) (A) (A) (A) (A) (A) (A) (A)
                 (A) (A) (A) (A) (A) (A) (A) (A) (A) (A) (A) (A)
                 (A) (A) (A) (A) (A) (A) (A) (A) (A) (A) (A) (A)
                 (A) (A) (A) (A) (A) (A) (A) (A) (A) (A) (A) (A)
                 (A) (A) (A) (A) (A) (A) (A) (A) (A) (A) (A) (A)
                 (A) (A) (A) (A) (A) (A) (A) (A) (A) (A) (A) (A)
                 (A) (A) (A) (A) (A) (A) (A) (A) (A) (A) (A) (A)
 The electronic state is 2-A.
 Alpha  occ. eigenvalues --  -19.19273 -19.14158 -10.26433 -10.25505 -10.22368
 Alpha  occ. eigenvalues --  -10.20844 -10.19737 -10.19668 -10.19384 -10.18421
 Alpha  occ. eigenvalues --   -1.08883  -1.02438  -0.86366  -0.78911  -0.75986
 Alpha  occ. eigenvalues --   -0.70028  -0.67348  -0.61381  -0.59020  -0.54078
 Alpha  occ. eigenvalues --   -0.50181  -0.48095  -0.45394  -0.43435  -0.43094
 Alpha  occ. eigenvalues --   -0.42484  -0.41455  -0.41203  -0.40827  -0.37833
 Alpha  occ. eigenvalues --   -0.37284  -0.37179  -0.35318  -0.32602  -0.26720
 Alpha  occ. eigenvalues --   -0.24674  -0.20041
 Alpha virt. eigenvalues --   -0.00256   0.00055   0.09391   0.10525   0.11885
 Alpha virt. eigenvalues --    0.13197   0.13218   0.13641   0.16861   0.17586
 Alpha virt. eigenvalues --    0.17623   0.20105   0.22203   0.23655   0.26556
 Alpha virt. eigenvalues --    0.27083   0.32397   0.34487   0.35637   0.38274
 Alpha virt. eigenvalues --    0.45196   0.48069   0.49599   0.51668   0.53578
 Alpha virt. eigenvalues --    0.54084   0.54624   0.54669   0.58144   0.60880
 Alpha virt. eigenvalues --    0.61925   0.62939   0.64490   0.66204   0.68094
 Alpha virt. eigenvalues --    0.68350   0.69696   0.72680   0.73603   0.74215
 Alpha virt. eigenvalues --    0.76890   0.78822   0.79533   0.83820   0.84715
 Alpha virt. eigenvalues --    0.86579   0.87362   0.89888   0.91316   0.93390
 Alpha virt. eigenvalues --    0.93834   0.94511   0.94773   0.97255   0.98825
 Alpha virt. eigenvalues --    1.00353   1.04349   1.07395   1.11042   1.13650
 Alpha virt. eigenvalues --    1.15646   1.18929   1.21943   1.22812   1.26224
 Alpha virt. eigenvalues --    1.30976   1.34201   1.37299   1.37310   1.37612
 Alpha virt. eigenvalues --    1.41394   1.41811   1.46481   1.51925   1.67810
 Alpha virt. eigenvalues --    1.69996   1.70025   1.72898   1.77923   1.78683
 Alpha virt. eigenvalues --    1.79315   1.83467   1.85693   1.86915   1.87828
 Alpha virt. eigenvalues --    1.88857   1.92559   1.92603   1.94318   1.95876
 Alpha virt. eigenvalues --    1.98994   2.01899   2.07548   2.09302   2.14277
 Alpha virt. eigenvalues --    2.16350   2.22487   2.26128   2.29309   2.31215
 Alpha virt. eigenvalues --    2.31976   2.33579   2.34565   2.36429   2.37682
 Alpha virt. eigenvalues --    2.41254   2.43588   2.45418   2.60530   2.62194
 Alpha virt. eigenvalues --    2.64358   2.65636   2.74870   2.76091   2.85616
 Alpha virt. eigenvalues --    2.86365   2.90762   2.93622   3.05348   3.24359
 Alpha virt. eigenvalues --    3.38131   3.86147   4.06638   4.08408   4.17703
 Alpha virt. eigenvalues --    4.18639   4.24409   4.33603   4.42782   4.59028
 Alpha virt. eigenvalues --    4.95450
  Beta  occ. eigenvalues --  -19.19009 -19.13267 -10.26056 -10.25484 -10.21923
  Beta  occ. eigenvalues --  -10.20617 -10.19805 -10.19691 -10.19558 -10.18436
  Beta  occ. eigenvalues --   -1.08237  -1.00864  -0.85747  -0.78485  -0.75403
  Beta  occ. eigenvalues --   -0.69976  -0.66752  -0.61030  -0.58570  -0.53731
  Beta  occ. eigenvalues --   -0.49902  -0.47838  -0.43890  -0.43028  -0.42267
  Beta  occ. eigenvalues --   -0.42228  -0.41013  -0.40577  -0.40548  -0.37633
  Beta  occ. eigenvalues --   -0.37092  -0.35041  -0.34326  -0.30638  -0.25849
  Beta  occ. eigenvalues --   -0.23921
  Beta virt. eigenvalues --   -0.11890   0.01417   0.02524   0.09443   0.10694
  Beta virt. eigenvalues --    0.11951   0.13221   0.13717   0.14283   0.16926
  Beta virt. eigenvalues --    0.17637   0.17857   0.20960   0.22647   0.24162
  Beta virt. eigenvalues --    0.26895   0.27561   0.32770   0.34766   0.35921
  Beta virt. eigenvalues --    0.38438   0.45493   0.48451   0.50059   0.52019
  Beta virt. eigenvalues --    0.53890   0.54299   0.54923   0.55248   0.58280
  Beta virt. eigenvalues --    0.61010   0.62097   0.63360   0.64736   0.66359
  Beta virt. eigenvalues --    0.68239   0.69087   0.69890   0.72887   0.73883
  Beta virt. eigenvalues --    0.75281   0.77167   0.79124   0.80258   0.83798
  Beta virt. eigenvalues --    0.84630   0.86850   0.87693   0.89946   0.91406
  Beta virt. eigenvalues --    0.93590   0.94704   0.94930   0.95105   0.97561
  Beta virt. eigenvalues --    0.99143   1.00649   1.06778   1.07599   1.11452
  Beta virt. eigenvalues --    1.13825   1.15886   1.19079   1.22835   1.23039
  Beta virt. eigenvalues --    1.26455   1.31353   1.34950   1.37623   1.38070
  Beta virt. eigenvalues --    1.38358   1.41743   1.42627   1.47056   1.52203
  Beta virt. eigenvalues --    1.68324   1.70280   1.70677   1.73423   1.78532
  Beta virt. eigenvalues --    1.79617   1.80278   1.84189   1.85978   1.87461
  Beta virt. eigenvalues --    1.87865   1.89035   1.93003   1.93151   1.94494
  Beta virt. eigenvalues --    1.96384   1.99387   2.03168   2.08218   2.09924
  Beta virt. eigenvalues --    2.14670   2.17023   2.22644   2.27018   2.29341
  Beta virt. eigenvalues --    2.31817   2.32011   2.34299   2.35072   2.36493
  Beta virt. eigenvalues --    2.38462   2.41471   2.44721   2.45683   2.61139
  Beta virt. eigenvalues --    2.63107   2.64828   2.66835   2.75253   2.76321
  Beta virt. eigenvalues --    2.86035   2.86600   2.91036   2.94024   3.05993
  Beta virt. eigenvalues --    3.24548   3.38276   3.86877   4.07014   4.08794
  Beta virt. eigenvalues --    4.18014   4.18774   4.24413   4.34162   4.43179
  Beta virt. eigenvalues --    4.59551   4.96027
          Condensed to atoms (all electrons):
               1          2          3          4          5          6
     1  C    5.092842   0.539802  -0.011240  -0.051793  -0.038300   0.462185
     2  C    0.539802   4.954049   0.345546  -0.062820  -0.032831  -0.008722
     3  C   -0.011240   0.345546   4.735186   0.317742  -0.040181  -0.034133
     4  C   -0.051793  -0.062820   0.317742   4.858138   0.452191   0.007242
     5  C   -0.038300  -0.032831  -0.040181   0.452191   5.093928   0.533072
     6  C    0.462185  -0.008722  -0.034133   0.007242   0.533072   4.679111
     7  H    0.005529  -0.000216   0.004743  -0.034629   0.344982  -0.039916
     8  O    0.000335   0.004596  -0.051775   0.312085  -0.050193   0.002328
     9  O    0.004926  -0.094002   0.471608  -0.085097   0.006721  -0.000315
    10  H   -0.000159   0.003647  -0.010009  -0.055891   0.007253  -0.000082
    11  C   -0.059789   0.338316  -0.049790   0.008535   0.000013   0.006292
    12  H   -0.003188  -0.031902   0.004467  -0.000048  -0.000007   0.000183
    13  H    0.000625  -0.025350  -0.004037   0.000030  -0.000004  -0.000130
    14  H    0.000624  -0.025354  -0.004037   0.000030  -0.000004  -0.000130
    15  H    0.355551  -0.038349   0.004762  -0.000277   0.005689  -0.053078
    16  C   -0.061476   0.005381   0.000675   0.006998  -0.048333   0.349070
    17  H   -0.002202  -0.000036   0.000015  -0.000189   0.000457  -0.027103
    18  H   -0.002202  -0.000036   0.000015  -0.000189   0.000459  -0.027103
    19  H    0.003402  -0.000110  -0.000013   0.000258  -0.002586  -0.029705
               7          8          9         10         11         12
     1  C    0.005529   0.000335   0.004926  -0.000159  -0.059789  -0.003188
     2  C   -0.000216   0.004596  -0.094002   0.003647   0.338316  -0.031902
     3  C    0.004743  -0.051775   0.471608  -0.010009  -0.049790   0.004467
     4  C   -0.034629   0.312085  -0.085097  -0.055891   0.008535  -0.000048
     5  C    0.344982  -0.050193   0.006721   0.007253   0.000013  -0.000007
     6  C   -0.039916   0.002328  -0.000315  -0.000082   0.006292   0.000183
     7  H    0.583056  -0.001075  -0.000064  -0.000486   0.000013   0.000000
     8  O   -0.001075   8.195553  -0.024788   0.224571  -0.000046   0.000000
     9  O   -0.000064  -0.024788   8.188050   0.057986   0.004361   0.000318
    10  H   -0.000486   0.224571   0.057986   0.346325  -0.000110   0.000000
    11  C    0.000013  -0.000046   0.004361  -0.000110   5.182067   0.361942
    12  H    0.000000   0.000000   0.000318   0.000000   0.361942   0.568252
    13  H    0.000000   0.000001   0.002878  -0.000005   0.365707  -0.027783
    14  H    0.000000   0.000001   0.002876  -0.000005   0.365715  -0.027783
    15  H   -0.000162   0.000003  -0.000067   0.000002  -0.009724   0.005981
    16  C   -0.009646  -0.000067   0.000000   0.000004  -0.000196  -0.000004
    17  H    0.000141   0.000001   0.000000   0.000000   0.000000   0.000000
    18  H    0.000141   0.000001   0.000000   0.000000   0.000000   0.000000
    19  H    0.005863  -0.000001   0.000000   0.000000   0.000002   0.000000
              13         14         15         16         17         18
     1  C    0.000625   0.000624   0.355551  -0.061476  -0.002202  -0.002202
     2  C   -0.025350  -0.025354  -0.038349   0.005381  -0.000036  -0.000036
     3  C   -0.004037  -0.004037   0.004762   0.000675   0.000015   0.000015
     4  C    0.000030   0.000030  -0.000277   0.006998  -0.000189  -0.000189
     5  C   -0.000004  -0.000004   0.005689  -0.048333   0.000457   0.000459
     6  C   -0.000130  -0.000130  -0.053078   0.349070  -0.027103  -0.027103
     7  H    0.000000   0.000000  -0.000162  -0.009646   0.000141   0.000141
     8  O    0.000001   0.000001   0.000003  -0.000067   0.000001   0.000001
     9  O    0.002878   0.002876  -0.000067   0.000000   0.000000   0.000000
    10  H   -0.000005  -0.000005   0.000002   0.000004   0.000000   0.000000
    11  C    0.365707   0.365715  -0.009724  -0.000196   0.000000   0.000000
    12  H   -0.027783  -0.027783   0.005981  -0.000004   0.000000   0.000000
    13  H    0.542471  -0.030829   0.000077   0.000003   0.000000   0.000000
    14  H   -0.030829   0.542475   0.000077   0.000003   0.000000   0.000000
    15  H    0.000077   0.000077   0.607618  -0.007496   0.002134   0.002134
    16  C    0.000003   0.000003  -0.007496   5.206754   0.362917   0.362917
    17  H    0.000000   0.000000   0.002134   0.362917   0.549897  -0.031529
    18  H    0.000000   0.000000   0.002134   0.362917  -0.031529   0.549899
    19  H    0.000000   0.000000   0.000023   0.367565  -0.026496  -0.026496
              19
     1  C    0.003402
     2  C   -0.000110
     3  C   -0.000013
     4  C    0.000258
     5  C   -0.002586
     6  C   -0.029705
     7  H    0.005863
     8  O   -0.000001
     9  O    0.000000
    10  H    0.000000
    11  C    0.000002
    12  H    0.000000
    13  H    0.000000
    14  H    0.000000
    15  H    0.000023
    16  C    0.367565
    17  H   -0.026496
    18  H   -0.026496
    19  H    0.542703
          Atomic-Atomic Spin Densities.
               1          2          3          4          5          6
     1  C   -0.066659  -0.027364  -0.002490  -0.002227  -0.000626   0.031151
     2  C   -0.027364   0.192021   0.036860   0.003000   0.001137  -0.010346
     3  C   -0.002490   0.036860   0.021432   0.039321   0.000625  -0.004472
     4  C   -0.002227   0.003000   0.039321   0.288104   0.012943  -0.011809
     5  C   -0.000626   0.001137   0.000625   0.012943  -0.156292  -0.006775
     6  C    0.031151  -0.010346  -0.004472  -0.011809  -0.006775   0.343448
     7  H    0.000002  -0.000036   0.000072  -0.000440   0.001486  -0.000512
     8  O    0.000015  -0.000121  -0.003642  -0.055567   0.000486   0.000355
     9  O    0.000280  -0.007175  -0.067341  -0.010134  -0.000049   0.000114
    10  H   -0.000002  -0.000075   0.000389   0.000852  -0.000210  -0.000008
    11  C    0.001633  -0.004507  -0.001244  -0.000151  -0.000032   0.000054
    12  H    0.000130  -0.000297  -0.000002  -0.000007   0.000002  -0.000002
    13  H    0.000267  -0.003569  -0.000830  -0.000038   0.000000   0.000020
    14  H    0.000266  -0.003569  -0.000832  -0.000038   0.000000   0.000020
    15  H    0.001312  -0.000079   0.000032  -0.000015   0.000000  -0.000819
    16  C   -0.000207  -0.000003  -0.000028  -0.000058   0.000439  -0.006038
    17  H   -0.000688   0.000080   0.000008   0.000034   0.000110  -0.006749
    18  H   -0.000687   0.000079   0.000008   0.000034   0.000110  -0.006747
    19  H   -0.000030  -0.000004   0.000001   0.000007   0.000323  -0.000684
               7          8          9         10         11         12
     1  C    0.000002   0.000015   0.000280  -0.000002   0.001633   0.000130
     2  C   -0.000036  -0.000121  -0.007175  -0.000075  -0.004507  -0.000297
     3  C    0.000072  -0.003642  -0.067341   0.000389  -0.001244  -0.000002
     4  C   -0.000440  -0.055567  -0.010134   0.000852  -0.000151  -0.000007
     5  C    0.001486   0.000486  -0.000049  -0.000210  -0.000032   0.000002
     6  C   -0.000512   0.000355   0.000114  -0.000008   0.000054  -0.000002
     7  H    0.004142  -0.000031   0.000001   0.000015  -0.000001   0.000000
     8  O   -0.000031   0.139378   0.002986   0.000963   0.000000   0.000000
     9  O    0.000001   0.002986   0.425125  -0.002066   0.000114  -0.000008
    10  H    0.000015   0.000963  -0.002066  -0.004840   0.000005   0.000000
    11  C   -0.000001   0.000000   0.000114   0.000005  -0.016518   0.000739
    12  H    0.000000   0.000000  -0.000008   0.000000   0.000739  -0.000310
    13  H    0.000000   0.000001   0.000532   0.000000   0.002924  -0.000123
    14  H    0.000000   0.000001   0.000531   0.000000   0.002928  -0.000122
    15  H    0.000001   0.000000   0.000001   0.000000   0.000211  -0.000007
    16  C    0.000195   0.000001   0.000000   0.000000   0.000001   0.000000
    17  H    0.000000   0.000000   0.000000   0.000000   0.000000   0.000000
    18  H    0.000000   0.000000   0.000000   0.000000   0.000000   0.000000
    19  H   -0.000040   0.000000   0.000000   0.000000   0.000000   0.000000
              13         14         15         16         17         18
     1  C    0.000267   0.000266   0.001312  -0.000207  -0.000688  -0.000687
     2  C   -0.003569  -0.003569  -0.000079  -0.000003   0.000080   0.000079
     3  C   -0.000830  -0.000832   0.000032  -0.000028   0.000008   0.000008
     4  C   -0.000038  -0.000038  -0.000015  -0.000058   0.000034   0.000034
     5  C    0.000000   0.000000   0.000000   0.000439   0.000110   0.000110
     6  C    0.000020   0.000020  -0.000819  -0.006038  -0.006749  -0.006747
     7  H    0.000000   0.000000   0.000001   0.000195   0.000000   0.000000
     8  O    0.000001   0.000001   0.000000   0.000001   0.000000   0.000000
     9  O    0.000532   0.000531   0.000001   0.000000   0.000000   0.000000
    10  H    0.000000   0.000000   0.000000   0.000000   0.000000   0.000000
    11  C    0.002924   0.002928   0.000211   0.000001   0.000000   0.000000
    12  H   -0.000123  -0.000122  -0.000007   0.000000   0.000000   0.000000
    13  H    0.010366  -0.002434   0.000002   0.000000   0.000000   0.000000
    14  H   -0.002434   0.010361   0.000002   0.000000   0.000000   0.000000
    15  H    0.000002   0.000002   0.000806   0.000241  -0.000024  -0.000024
    16  C    0.000000   0.000000   0.000241  -0.027680   0.003970   0.003969
    17  H    0.000000   0.000000  -0.000024   0.003970   0.022970  -0.005288
    18  H    0.000000   0.000000  -0.000024   0.003969  -0.005288   0.022960
    19  H    0.000000   0.000000   0.000000   0.001125  -0.000206  -0.000205
              19
     1  C   -0.000030
     2  C   -0.000004
     3  C    0.000001
     4  C    0.000007
     5  C    0.000323
     6  C   -0.000684
     7  H   -0.000040
     8  O    0.000000
     9  O    0.000000
    10  H    0.000000
    11  C    0.000000
    12  H    0.000000
    13  H    0.000000
    14  H    0.000000
    15  H    0.000000
    16  C    0.001125
    17  H   -0.000206
    18  H   -0.000205
    19  H    0.000070
 Mulliken charges and spin densities:
               1          2
     1  C   -0.235471  -0.065926
     2  C    0.128390   0.176034
     3  C    0.320456   0.017865
     4  C    0.327685   0.263812
     5  C   -0.232327  -0.146324
     6  C    0.180935   0.320201
     7  H    0.141727   0.004854
     8  O   -0.611529   0.084823
     9  O   -0.535389   0.342912
    10  H    0.426956  -0.004976
    11  C   -0.513307  -0.013843
    12  H    0.149572  -0.000008
    13  H    0.176347   0.007117
    14  H    0.176342   0.007114
    15  H    0.125102   0.001638
    16  C   -0.535068  -0.024074
    17  H    0.171997   0.014215
    18  H    0.171992   0.014210
    19  H    0.165590   0.000357
 Sum of Mulliken charges =   0.00000   1.00000
 Mulliken charges and spin densities with hydrogens summed into heavy atoms:
               1          2
     1  C   -0.110369  -0.064288
     2  C    0.128390   0.176034
     3  C    0.320456   0.017865
     4  C    0.327685   0.263812
     5  C   -0.090600  -0.141470
     6  C    0.180935   0.320201
     8  O   -0.184572   0.079847
     9  O   -0.535389   0.342912
    11  C   -0.011046   0.000380
    16  C   -0.025489   0.004707
 Electronic spatial extent (au):  <R**2>=           1489.6282
 Charge=              0.0000 electrons
 Dipole moment (field-independent basis, Debye):
    X=             -2.7381    Y=              1.2591    Z=             -0.0005  Tot=              3.0137
 Quadrupole moment (field-independent basis, Debye-Ang):
   XX=            -57.4892   YY=            -56.4289   ZZ=            -58.9840
   XY=             -0.4945   XZ=             -0.0013   YZ=              0.0006
 Traceless Quadrupole moment (field-independent basis, Debye-Ang):
   XX=              0.1448   YY=              1.2052   ZZ=             -1.3500
   XY=             -0.4945   XZ=             -0.0013   YZ=              0.0006
 Octapole moment (field-independent basis, Debye-Ang**2):
  XXX=            -15.1688  YYY=              3.6406  ZZZ=              0.0014  XYY=              6.4726
  XXY=             -8.0953  XXZ=             -0.0025  XZZ=              6.5809  YZZ=             -2.6887
  YYZ=             -0.0007  XYZ=              0.0014
 Hexadecapole moment (field-independent basis, Debye-Ang**3):
 XXXX=          -1082.2361 YYYY=           -798.3401 ZZZZ=            -69.3274 XXXY=            -26.3336
 XXXZ=             -0.0163 YYYX=            -14.3462 YYYZ=              0.0079 ZZZX=             -0.0095
 ZZZY=              0.0062 XXYY=           -272.4645 XXZZ=           -184.8364 YYZZ=           -144.9828
 XXYZ=              0.0037 YYXZ=             -0.0046 ZZXY=             -5.0056
 N-N= 5.059615208771D+02 E-N=-2.084715945517D+03  KE= 4.565403290963D+02
                          Isotropic Fermi Contact Couplings
        Atom                 a.u.       MegaHertz       Gauss      10(-4) cm-1
     1  C(13)             -0.01276     -14.34251      -5.11776      -4.78415
     2  C(13)              0.01607      18.06813       6.44716       6.02688
     3  C(13)             -0.01134     -12.74768      -4.54869      -4.25217
     4  C(13)              0.02479      27.86358       9.94242       9.29429
     5  C(13)             -0.02213     -24.87599      -8.87637      -8.29774
     6  C(13)              0.03496      39.30348      14.02446      13.11023
     7  H(1)               0.00151       6.76066       2.41237       2.25511
     8  O(17)              0.01803     -10.93225      -3.90090      -3.64661
     9  O(17)              0.04683     -28.38872     -10.12980      -9.46946
    10  H(1)              -0.00148      -6.62257      -2.36310      -2.20905
    11  C(13)             -0.00518      -5.82062      -2.07694      -1.94155
    12  H(1)               0.00000      -0.01410      -0.00503      -0.00470
    13  H(1)               0.00367      16.40433       5.85347       5.47189
    14  H(1)               0.00367      16.39935       5.85169       5.47023
    15  H(1)               0.00045       2.01412       0.71869       0.67184
    16  C(13)             -0.00900     -10.11603      -3.60965      -3.37435
    17  H(1)               0.00795      35.54343      12.68278      11.85601
    18  H(1)               0.00795      35.53257      12.67891      11.85239
    19  H(1)               0.00013       0.59907       0.21376       0.19983
 --------------------------------------------------------
       Center         ----  Spin Dipole Couplings  ----
                      3XX-RR        3YY-RR        3ZZ-RR
 --------------------------------------------------------
     1   Atom        0.020236      0.014769     -0.035004
     2   Atom       -0.093163     -0.085411      0.178574
     3   Atom       -0.007493     -0.041640      0.049133
     4   Atom       -0.152087     -0.145966      0.298053
     5   Atom        0.061380      0.053920     -0.115300
     6   Atom       -0.162939     -0.174512      0.337451
     7   Atom        0.005507     -0.000264     -0.005243
     8   Atom       -0.207822     -0.209466      0.417288
     9   Atom       -0.660068     -0.649838      1.309906
    10   Atom        0.013673     -0.000605     -0.013069
    11   Atom       -0.004401      0.004888     -0.000488
    12   Atom       -0.002223      0.004715     -0.002492
    13   Atom       -0.001300      0.004499     -0.003199
    14   Atom       -0.001300      0.004498     -0.003199
    15   Atom       -0.000868      0.005559     -0.004691
    16   Atom        0.002273     -0.007960      0.005687
    17   Atom        0.004413     -0.002495     -0.001918
    18   Atom        0.004413     -0.002494     -0.001919
    19   Atom        0.004106     -0.001530     -0.002576
 --------------------------------------------------------
                        XY            XZ            YZ
 --------------------------------------------------------
     1   Atom        0.002233      0.000005     -0.000004
     2   Atom       -0.000874      0.000016     -0.000035
     3   Atom       -0.004257     -0.000002     -0.000001
     4   Atom        0.001522      0.000042      0.000062
     5   Atom       -0.003717     -0.000003     -0.000008
     6   Atom        0.000169      0.000005      0.000025
     7   Atom       -0.002964      0.000000      0.000000
     8   Atom        0.002052      0.000066      0.000046
     9   Atom       -0.000172     -0.000463      0.000062
    10   Atom        0.006748     -0.000003      0.000001
    11   Atom        0.000669      0.000000      0.000000
    12   Atom       -0.000191      0.000000      0.000000
    13   Atom        0.002260      0.001286      0.002725
    14   Atom        0.002260     -0.001285     -0.002725
    15   Atom        0.000714      0.000000      0.000000
    16   Atom        0.000211      0.000000      0.000000
    17   Atom       -0.002616     -0.002821      0.001812
    18   Atom       -0.002616      0.002821     -0.001812
    19   Atom        0.003169      0.000000      0.000000
 --------------------------------------------------------


 ---------------------------------------------------------------------------------
              Anisotropic Spin Dipole Couplings in Principal Axis System
 ---------------------------------------------------------------------------------

       Atom             a.u.   MegaHertz   Gauss  10(-4) cm-1        Axes

              Baa    -0.0350    -4.697    -1.676    -1.567 -0.0001  0.0001  1.0000
     1 C(13)  Bbb     0.0140     1.875     0.669     0.625 -0.3358  0.9419 -0.0001
              Bcc     0.0210     2.822     1.007     0.941  0.9419  0.3358  0.0001
 
              Baa    -0.0933   -12.515    -4.466    -4.174  0.9939  0.1107  0.0000
     2 C(13)  Bbb    -0.0853   -11.448    -4.085    -3.819 -0.1107  0.9939  0.0001
              Bcc     0.1786    23.963     8.551     7.993  0.0001 -0.0001  1.0000
 
              Baa    -0.0422    -5.658    -2.019    -1.887  0.1219  0.9925  0.0000
     3 C(13)  Bbb    -0.0070    -0.935    -0.334    -0.312  0.9925 -0.1219  0.0000
              Bcc     0.0491     6.593     2.353     2.199  0.0000  0.0000  1.0000
 
              Baa    -0.1524   -20.457    -7.299    -6.824  0.9735 -0.2287 -0.0001
     4 C(13)  Bbb    -0.1456   -19.539    -6.972    -6.518  0.2287  0.9735 -0.0002
              Bcc     0.2981    39.996    14.272    13.341  0.0001  0.0001  1.0000
 
              Baa    -0.1153   -15.472    -5.521    -5.161  0.0000  0.0000  1.0000
     5 C(13)  Bbb     0.0524     7.029     2.508     2.345  0.3819  0.9242  0.0000
              Bcc     0.0629     8.443     3.013     2.816  0.9242 -0.3819  0.0000
 
              Baa    -0.1745   -23.418    -8.356    -7.811 -0.0146  0.9999  0.0000
     6 C(13)  Bbb    -0.1629   -21.865    -7.802    -7.293  0.9999  0.0146  0.0000
              Bcc     0.3375    45.283    16.158    15.105  0.0000  0.0000  1.0000
 
              Baa    -0.0052    -2.797    -0.998    -0.933  0.0000  0.0001  1.0000
     7 H(1)   Bbb    -0.0015    -0.808    -0.288    -0.270  0.3889  0.9213 -0.0001
              Bcc     0.0068     3.606     1.287     1.203  0.9213 -0.3889  0.0000
 
              Baa    -0.2109    15.257     5.444     5.089 -0.5604  0.8282  0.0000
     8 O(17)  Bbb    -0.2064    14.937     5.330     4.983  0.8282  0.5604 -0.0001
              Bcc     0.4173   -30.195   -10.774   -10.072  0.0001  0.0001  1.0000
 
              Baa    -0.6601    47.762    17.043    15.932  0.9999  0.0168  0.0002
     9 O(17)  Bbb    -0.6498    47.022    16.778    15.685 -0.0168  0.9999  0.0000
              Bcc     1.3099   -94.784   -33.821   -31.616 -0.0002  0.0000  1.0000
 
              Baa    -0.0131    -6.973    -2.488    -2.326  0.0002 -0.0002  1.0000
    10 H(1)   Bbb    -0.0033    -1.755    -0.626    -0.585 -0.3697  0.9292  0.0002
              Bcc     0.0164     8.728     3.114     2.911  0.9292  0.3697 -0.0001
 
              Baa    -0.0044    -0.597    -0.213    -0.199  0.9974 -0.0714  0.0000
    11 C(13)  Bbb    -0.0005    -0.065    -0.023    -0.022  0.0000  0.0000  1.0000
              Bcc     0.0049     0.662     0.236     0.221  0.0714  0.9974  0.0000
 
              Baa    -0.0025    -1.330    -0.475    -0.444  0.0001  0.0000  1.0000
    12 H(1)   Bbb    -0.0022    -1.189    -0.424    -0.397  0.9996  0.0276 -0.0001
              Bcc     0.0047     2.519     0.899     0.840 -0.0276  0.9996  0.0000
 
              Baa    -0.0042    -2.239    -0.799    -0.747 -0.2357 -0.2343  0.9432
    13 H(1)   Bbb    -0.0020    -1.084    -0.387    -0.362  0.9173 -0.3743  0.1363
              Bcc     0.0062     3.323     1.186     1.109  0.3211  0.8972  0.3032
 
              Baa    -0.0042    -2.239    -0.799    -0.747  0.2355  0.2344  0.9432
    14 H(1)   Bbb    -0.0020    -1.084    -0.387    -0.361  0.9173 -0.3743 -0.1361
              Bcc     0.0062     3.323     1.186     1.108  0.3211  0.8972 -0.3032
 
              Baa    -0.0047    -2.503    -0.893    -0.835  0.0000  0.0000  1.0000
    15 H(1)   Bbb    -0.0009    -0.505    -0.180    -0.168  0.9940 -0.1091  0.0000
              Bcc     0.0056     3.008     1.073     1.003  0.1091  0.9940  0.0000
 
              Baa    -0.0080    -1.069    -0.381    -0.356 -0.0206  0.9998  0.0000
    16 C(13)  Bbb     0.0023     0.306     0.109     0.102  0.9998  0.0206  0.0000
              Bcc     0.0057     0.763     0.272     0.255  0.0000  0.0000  1.0000
 
              Baa    -0.0040    -2.159    -0.770    -0.720  0.0356  0.7838 -0.6200
    17 H(1)   Bbb    -0.0025    -1.336    -0.477    -0.446  0.4844  0.5291  0.6967
              Bcc     0.0066     3.495     1.247     1.166  0.8741 -0.3251 -0.3608
 
              Baa    -0.0040    -2.159    -0.770    -0.720  0.0356  0.7837  0.6202
    18 H(1)   Bbb    -0.0025    -1.336    -0.477    -0.446 -0.4844 -0.5293  0.6966
              Bcc     0.0066     3.495     1.247     1.166  0.8741 -0.3252  0.3607
 
              Baa    -0.0030    -1.576    -0.562    -0.526 -0.4096  0.9123  0.0002
    19 H(1)   Bbb    -0.0026    -1.374    -0.490    -0.458  0.0001 -0.0002  1.0000
              Bcc     0.0055     2.950     1.053     0.984  0.9123  0.4096  0.0000
 

 ---------------------------------------------------------------------------------

 No NMR shielding tensors so no spin-rotation constants.
 Leave Link  601 at Wed Dec 03 17:00:55 2025, MaxMem=   104857600 cpu:               0.0 elap:               0.3
 (Enter D:\Gaussian\G16W\l9999.exe)
 1|1|UNPC-PC-20250526LCFF|SP|UB3LYP|6-31G(d)|C8H9O2(2)|ADMINISTRATOR|03
 -Dec-2025|0||#P B3LYP/6-31G* SCF=conver=7 out=wfn||Generated by Multiw
 fn (http://sobereva.com/multiwfn)||0,2|C,0,-0.862515,1.227633,-0.00006
 8|C,0,0.510097,1.196453,-0.00005|C,0,1.170544,-0.093741,-0.000098|C,0,
 0.327195,-1.28902,0.000014|C,0,-1.055706,-1.207505,0.000015|C,0,-1.663
 44,0.048544,-0.000051|H,0,-1.645023,-2.116855,0.000054|O,0,0.979466,-2
 .452242,0.000047|O,0,2.413654,-0.259227,0.000167|H,0,1.926481,-2.19742
 ,-0.000064|C,0,1.36798,2.426288,0.000002|H,0,0.761848,3.333677,-0.0000
 46|H,0,2.02475,2.440262,0.874774|H,0,2.024873,2.440243,-0.874676|H,0,-
 1.368839,2.188534,-0.000076|C,0,-3.161792,0.179601,-0.000032|H,0,-3.50
 5673,0.734219,0.879509|H,0,-3.505685,0.734355,-0.87948|H,0,-3.651863,-
 0.794769,-0.0001||Version=EM64W-G16RevA.03|State=2-A|HF=-460.7021609|S
 2=0.770011|S2-1=0.|S2A=0.750272|RMSD=4.450e-008|Dipole=-1.0772341,0.49
 53693,-0.0001847|Quadrupole=0.1076784,0.8960138,-1.0036923,-0.3676334,
 -0.0009456,0.0004268|PG=C01 [X(C8H9O2)]||@

 Writing a WFN file to "N.wfn"


 ERROR IS THE FORCE THAT WELDS MEN TOGETHER....
 TRUTH IS COMMUNICATED TO MEN ONLY BY DEEDS OF TRUTH.
           TOLSTOI,MY RELIGION
 Job cpu time:       0 days  0 hours  0 minutes 37.0 seconds.
 Elapsed time:       0 days  0 hours  0 minutes 37.5 seconds.
 File lengths (MBytes):  RWF=     32 Int=      0 D2E=      0 Chk=      3 Scr=      1
 Normal termination of Gaussian 16 at Wed Dec 03 17:00:55 2025.
