 Generated by Multiwfn (http://sobereva.com/multiwfn)
GAUSSIAN             73 MOL ORBITALS    316 PRIMITIVES       19 NUCLEI
  C    1    (CENTRE  1)  -1.62991764  2.31988961 -0.00012848  CHARGE =  6.0
  C    2    (CENTRE  2)   0.96394312  2.26096832 -0.00009446  CHARGE =  6.0
  C    3    (CENTRE  3)   2.21200742 -0.17714481 -0.00018517  CHARGE =  6.0
  C    4    (CENTRE  4)   0.61830911 -2.43589499  0.00002648  CHARGE =  6.0
  C    5    (CENTRE  5)  -1.99499506 -2.28185434  0.00002837  CHARGE =  6.0
  C    6    (CENTRE  6)  -3.14344622  0.09173410 -0.00009635  CHARGE =  6.0
  H    7    (CENTRE  7)  -3.10864254 -4.00027695  0.00010207  CHARGE =  1.0
  O    8    (CENTRE  8)   1.85092298 -4.63406581  0.00008884  CHARGE =  8.0
  O    9    (CENTRE  9)   4.56114491 -0.48986769  0.00031561  CHARGE =  8.0
  H   10    (CENTRE 10)   3.64052189 -4.15252177 -0.00012092  CHARGE =  1.0
  C   11    (CENTRE 11)   2.58510670  4.58501988  0.00000381  CHARGE =  6.0
  H   12    (CENTRE 12)   1.43968298  6.29973641 -0.00008690  CHARGE =  1.0
  H   13    (CENTRE 13)   3.82622212  4.61142709  1.65308331  CHARGE =  1.0
  H   14    (CENTRE 14)   3.82645456  4.61139119 -1.65289806  CHARGE =  1.0
  H   15    (CENTRE 15)  -2.58673160  4.13572919 -0.00014359  CHARGE =  1.0
  C   16    (CENTRE 16)  -5.97492117  0.33939553 -0.00006045  CHARGE =  6.0
  H   17    (CENTRE 17)  -6.62476223  1.38747156  1.66203116  CHARGE =  1.0
  H   18    (CENTRE 18)  -6.62478491  1.38772856 -1.66197631  CHARGE =  1.0
  H   19    (CENTRE 19)  -6.90102088 -1.50189705 -0.00018895  CHARGE =  1.0
CENTRE ASSIGNMENTS    1  1  1  1  1  1  1  1  1  1  1  1  1  1  1  1  1  1  1  1
CENTRE ASSIGNMENTS    1  1  1  1  1  1  1  1  2  2  2  2  2  2  2  2  2  2  2  2
CENTRE ASSIGNMENTS    2  2  2  2  2  2  2  2  2  2  2  2  2  2  2  2  3  3  3  3
CENTRE ASSIGNMENTS    3  3  3  3  3  3  3  3  3  3  3  3  3  3  3  3  3  3  3  3
CENTRE ASSIGNMENTS    3  3  3  3  4  4  4  4  4  4  4  4  4  4  4  4  4  4  4  4
CENTRE ASSIGNMENTS    4  4  4  4  4  4  4  4  4  4  4  4  5  5  5  5  5  5  5  5
CENTRE ASSIGNMENTS    5  5  5  5  5  5  5  5  5  5  5  5  5  5  5  5  5  5  5  5
CENTRE ASSIGNMENTS    6  6  6  6  6  6  6  6  6  6  6  6  6  6  6  6  6  6  6  6
CENTRE ASSIGNMENTS    6  6  6  6  6  6  6  6  7  7  7  7  8  8  8  8  8  8  8  8
CENTRE ASSIGNMENTS    8  8  8  8  8  8  8  8  8  8  8  8  8  8  8  8  8  8  8  8
CENTRE ASSIGNMENTS    9  9  9  9  9  9  9  9  9  9  9  9  9  9  9  9  9  9  9  9
CENTRE ASSIGNMENTS    9  9  9  9  9  9  9  9 10 10 10 10 11 11 11 11 11 11 11 11
CENTRE ASSIGNMENTS   11 11 11 11 11 11 11 11 11 11 11 11 11 11 11 11 11 11 11 11
CENTRE ASSIGNMENTS   12 12 12 12 13 13 13 13 14 14 14 14 15 15 15 15 16 16 16 16
CENTRE ASSIGNMENTS   16 16 16 16 16 16 16 16 16 16 16 16 16 16 16 16 16 16 16 16
CENTRE ASSIGNMENTS   16 16 16 16 17 17 17 17 18 18 18 18 19 19 19 19
TYPE ASSIGNMENTS      1  1  1  1  1  1  1  1  1  2  2  2  3  3  3  4  4  4  1  2
TYPE ASSIGNMENTS      3  4  5  6  7  8  9 10  1  1  1  1  1  1  1  1  1  2  2  2
TYPE ASSIGNMENTS      3  3  3  4  4  4  1  2  3  4  5  6  7  8  9 10  1  1  1  1
TYPE ASSIGNMENTS      1  1  1  1  1  2  2  2  3  3  3  4  4  4  1  2  3  4  5  6
TYPE ASSIGNMENTS      7  8  9 10  1  1  1  1  1  1  1  1  1  2  2  2  3  3  3  4
TYPE ASSIGNMENTS      4  4  1  2  3  4  5  6  7  8  9 10  1  1  1  1  1  1  1  1
TYPE ASSIGNMENTS      1  2  2  2  3  3  3  4  4  4  1  2  3  4  5  6  7  8  9 10
TYPE ASSIGNMENTS      1  1  1  1  1  1  1  1  1  2  2  2  3  3  3  4  4  4  1  2
TYPE ASSIGNMENTS      3  4  5  6  7  8  9 10  1  1  1  1  1  1  1  1  1  1  1  1
TYPE ASSIGNMENTS      1  2  2  2  3  3  3  4  4  4  1  2  3  4  5  6  7  8  9 10
TYPE ASSIGNMENTS      1  1  1  1  1  1  1  1  1  2  2  2  3  3  3  4  4  4  1  2
TYPE ASSIGNMENTS      3  4  5  6  7  8  9 10  1  1  1  1  1  1  1  1  1  1  1  1
TYPE ASSIGNMENTS      1  2  2  2  3  3  3  4  4  4  1  2  3  4  5  6  7  8  9 10
TYPE ASSIGNMENTS      1  1  1  1  1  1  1  1  1  1  1  1  1  1  1  1  1  1  1  1
TYPE ASSIGNMENTS      1  1  1  1  1  2  2  2  3  3  3  4  4  4  1  2  3  4  5  6
TYPE ASSIGNMENTS      7  8  9 10  1  1  1  1  1  1  1  1  1  1  1  1
EXPONENTS  0.3047525D+04 0.4573695D+03 0.1039487D+03 0.2921016D+02 0.9286663D+01
EXPONENTS  0.3163927D+01 0.7868272D+01 0.1881289D+01 0.5442493D+00 0.7868272D+01
EXPONENTS  0.1881289D+01 0.5442493D+00 0.7868272D+01 0.1881289D+01 0.5442493D+00
EXPONENTS  0.7868272D+01 0.1881289D+01 0.5442493D+00 0.1687145D+00 0.1687145D+00
EXPONENTS  0.1687145D+00 0.1687145D+00 0.8000000D+00 0.8000000D+00 0.8000000D+00
EXPONENTS  0.8000000D+00 0.8000000D+00 0.8000000D+00 0.3047525D+04 0.4573695D+03
EXPONENTS  0.1039487D+03 0.2921016D+02 0.9286663D+01 0.3163927D+01 0.7868272D+01
EXPONENTS  0.1881289D+01 0.5442493D+00 0.7868272D+01 0.1881289D+01 0.5442493D+00
EXPONENTS  0.7868272D+01 0.1881289D+01 0.5442493D+00 0.7868272D+01 0.1881289D+01
EXPONENTS  0.5442493D+00 0.1687145D+00 0.1687145D+00 0.1687145D+00 0.1687145D+00
EXPONENTS  0.8000000D+00 0.8000000D+00 0.8000000D+00 0.8000000D+00 0.8000000D+00
EXPONENTS  0.8000000D+00 0.3047525D+04 0.4573695D+03 0.1039487D+03 0.2921016D+02
EXPONENTS  0.9286663D+01 0.3163927D+01 0.7868272D+01 0.1881289D+01 0.5442493D+00
EXPONENTS  0.7868272D+01 0.1881289D+01 0.5442493D+00 0.7868272D+01 0.1881289D+01
EXPONENTS  0.5442493D+00 0.7868272D+01 0.1881289D+01 0.5442493D+00 0.1687145D+00
EXPONENTS  0.1687145D+00 0.1687145D+00 0.1687145D+00 0.8000000D+00 0.8000000D+00
EXPONENTS  0.8000000D+00 0.8000000D+00 0.8000000D+00 0.8000000D+00 0.3047525D+04
EXPONENTS  0.4573695D+03 0.1039487D+03 0.2921016D+02 0.9286663D+01 0.3163927D+01
EXPONENTS  0.7868272D+01 0.1881289D+01 0.5442493D+00 0.7868272D+01 0.1881289D+01
EXPONENTS  0.5442493D+00 0.7868272D+01 0.1881289D+01 0.5442493D+00 0.7868272D+01
EXPONENTS  0.1881289D+01 0.5442493D+00 0.1687145D+00 0.1687145D+00 0.1687145D+00
EXPONENTS  0.1687145D+00 0.8000000D+00 0.8000000D+00 0.8000000D+00 0.8000000D+00
EXPONENTS  0.8000000D+00 0.8000000D+00 0.3047525D+04 0.4573695D+03 0.1039487D+03
EXPONENTS  0.2921016D+02 0.9286663D+01 0.3163927D+01 0.7868272D+01 0.1881289D+01
EXPONENTS  0.5442493D+00 0.7868272D+01 0.1881289D+01 0.5442493D+00 0.7868272D+01
EXPONENTS  0.1881289D+01 0.5442493D+00 0.7868272D+01 0.1881289D+01 0.5442493D+00
EXPONENTS  0.1687145D+00 0.1687145D+00 0.1687145D+00 0.1687145D+00 0.8000000D+00
EXPONENTS  0.8000000D+00 0.8000000D+00 0.8000000D+00 0.8000000D+00 0.8000000D+00
EXPONENTS  0.3047525D+04 0.4573695D+03 0.1039487D+03 0.2921016D+02 0.9286663D+01
EXPONENTS  0.3163927D+01 0.7868272D+01 0.1881289D+01 0.5442493D+00 0.7868272D+01
EXPONENTS  0.1881289D+01 0.5442493D+00 0.7868272D+01 0.1881289D+01 0.5442493D+00
EXPONENTS  0.7868272D+01 0.1881289D+01 0.5442493D+00 0.1687145D+00 0.1687145D+00
EXPONENTS  0.1687145D+00 0.1687145D+00 0.8000000D+00 0.8000000D+00 0.8000000D+00
EXPONENTS  0.8000000D+00 0.8000000D+00 0.8000000D+00 0.1873114D+02 0.2825394D+01
EXPONENTS  0.6401217D+00 0.1612778D+00 0.5484672D+04 0.8252349D+03 0.1880470D+03
EXPONENTS  0.5296450D+02 0.1689757D+02 0.5799635D+01 0.1553962D+02 0.3599934D+01
EXPONENTS  0.1013762D+01 0.1553962D+02 0.3599934D+01 0.1013762D+01 0.1553962D+02
EXPONENTS  0.3599934D+01 0.1013762D+01 0.1553962D+02 0.3599934D+01 0.1013762D+01
EXPONENTS  0.2700058D+00 0.2700058D+00 0.2700058D+00 0.2700058D+00 0.8000000D+00
EXPONENTS  0.8000000D+00 0.8000000D+00 0.8000000D+00 0.8000000D+00 0.8000000D+00
EXPONENTS  0.5484672D+04 0.8252349D+03 0.1880470D+03 0.5296450D+02 0.1689757D+02
EXPONENTS  0.5799635D+01 0.1553962D+02 0.3599934D+01 0.1013762D+01 0.1553962D+02
EXPONENTS  0.3599934D+01 0.1013762D+01 0.1553962D+02 0.3599934D+01 0.1013762D+01
EXPONENTS  0.1553962D+02 0.3599934D+01 0.1013762D+01 0.2700058D+00 0.2700058D+00
EXPONENTS  0.2700058D+00 0.2700058D+00 0.8000000D+00 0.8000000D+00 0.8000000D+00
EXPONENTS  0.8000000D+00 0.8000000D+00 0.8000000D+00 0.1873114D+02 0.2825394D+01
EXPONENTS  0.6401217D+00 0.1612778D+00 0.3047525D+04 0.4573695D+03 0.1039487D+03
EXPONENTS  0.2921016D+02 0.9286663D+01 0.3163927D+01 0.7868272D+01 0.1881289D+01
EXPONENTS  0.5442493D+00 0.7868272D+01 0.1881289D+01 0.5442493D+00 0.7868272D+01
EXPONENTS  0.1881289D+01 0.5442493D+00 0.7868272D+01 0.1881289D+01 0.5442493D+00
EXPONENTS  0.1687145D+00 0.1687145D+00 0.1687145D+00 0.1687145D+00 0.8000000D+00
EXPONENTS  0.8000000D+00 0.8000000D+00 0.8000000D+00 0.8000000D+00 0.8000000D+00
EXPONENTS  0.1873114D+02 0.2825394D+01 0.6401217D+00 0.1612778D+00 0.1873114D+02
EXPONENTS  0.2825394D+01 0.6401217D+00 0.1612778D+00 0.1873114D+02 0.2825394D+01
EXPONENTS  0.6401217D+00 0.1612778D+00 0.1873114D+02 0.2825394D+01 0.6401217D+00
EXPONENTS  0.1612778D+00 0.3047525D+04 0.4573695D+03 0.1039487D+03 0.2921016D+02
EXPONENTS  0.9286663D+01 0.3163927D+01 0.7868272D+01 0.1881289D+01 0.5442493D+00
EXPONENTS  0.7868272D+01 0.1881289D+01 0.5442493D+00 0.7868272D+01 0.1881289D+01
EXPONENTS  0.5442493D+00 0.7868272D+01 0.1881289D+01 0.5442493D+00 0.1687145D+00
EXPONENTS  0.1687145D+00 0.1687145D+00 0.1687145D+00 0.8000000D+00 0.8000000D+00
EXPONENTS  0.8000000D+00 0.8000000D+00 0.8000000D+00 0.8000000D+00 0.1873114D+02
EXPONENTS  0.2825394D+01 0.6401217D+00 0.1612778D+00 0.1873114D+02 0.2825394D+01
EXPONENTS  0.6401217D+00 0.1612778D+00 0.1873114D+02 0.2825394D+01 0.6401217D+00
EXPONENTS  0.1612778D+00
MO    1     MO 0.0        OCC NO =    1.0000000  ORB. ENERGY =  -19.192727
  0.78471166D-05  0.14476398D-04  0.23369395D-04  0.30420008D-04  0.25957448D-04
  0.89624830D-05 -0.31093736D-04 -0.14331074D-04  0.40185829D-04 -0.22158462D-04
 -0.16989703D-04 -0.84790527D-05 -0.41421761D-04 -0.31759579D-04 -0.15850256D-04
  0.10355655D-07  0.79400593D-08  0.39626461D-08 -0.23663620D-03 -0.57775122D-04
  0.10564154D-03  0.21566900D-08 -0.25726392D-04  0.16827112D-04  0.35562038D-04
 -0.22497058D-04  0.64981173D-08  0.12786758D-07 -0.43149063D-05 -0.79601596D-05
 -0.12850166D-04 -0.16727098D-04 -0.14273263D-04 -0.49282146D-05  0.30624732D-04
  0.14114911D-04 -0.39579684D-04  0.41785856D-04  0.32038744D-04  0.15989579D-04
 -0.69565506D-04 -0.53338418D-04 -0.26619609D-04  0.14254349D-07  0.10929331D-07
  0.54545022D-08  0.43159655D-03 -0.85576980D-04 -0.20134511D-03 -0.27908079D-07
  0.15637126D-04  0.56849651D-04 -0.17644114D-05 -0.10236084D-04  0.98414470D-08
  0.45477667D-07  0.30466855D-04  0.56205399D-04  0.90732941D-04  0.11810733D-03
  0.10078120D-03  0.34797326D-04 -0.14134685D-03 -0.65146633D-04  0.18267796D-03
  0.54393629D-04  0.41705585D-04  0.20814010D-04  0.66361080D-04  0.50881467D-04
  0.25393418D-04  0.81778513D-08  0.62702577D-08  0.31292980D-08 -0.48680294D-03
  0.54269437D-03 -0.70159616D-04  0.17282823D-07  0.62811731D-04 -0.74944248D-04
  0.85299697D-04 -0.39369342D-04  0.97059153D-07  0.17290537D-07 -0.31272896D-04
 -0.57692387D-04 -0.93133401D-04 -0.12123202D-03 -0.10344750D-03 -0.35717935D-04
 -0.68976950D-04 -0.31791413D-04  0.89146442D-04  0.22860637D-03  0.17528086D-03
  0.87477435D-04 -0.51384090D-03 -0.39398061D-03 -0.19662394D-03  0.39666401D-07
  0.30413681D-07  0.15178558D-07  0.37921731D-04 -0.31770073D-03  0.79434411D-03
 -0.57899398D-07 -0.12866872D-03 -0.15060052D-03 -0.13512006D-03  0.20707611D-03
 -0.69848558D-08 -0.43239660D-07  0.70760591D-05  0.13053947D-04  0.21073119D-04
  0.27430939D-04  0.23406870D-04  0.80818297D-05 -0.61038097D-04 -0.28132403D-04
  0.78886195D-04 -0.78712246D-05 -0.60351558D-05 -0.30119657D-05  0.21008301D-04
  0.16107833D-04  0.80389375D-05  0.22641247D-08  0.17359872D-08  0.86637927D-09
 -0.36997313D-03 -0.12128633D-03 -0.29448930D-03  0.21140943D-07 -0.68619315D-04
 -0.50593969D-04  0.29847485D-04 -0.54331753D-05  0.13337240D-07  0.18038966D-08
  0.90496984D-06  0.16694926D-05  0.26950788D-05  0.35081918D-05  0.29935464D-05
  0.10335996D-05  0.54711409D-05  0.25216438D-05 -0.70709525D-05  0.80434058D-04
  0.61671734D-04  0.30778518D-04 -0.62377231D-04 -0.47826904D-04 -0.23868977D-04
  0.21144836D-07  0.16212519D-07  0.80911834D-08  0.33421596D-03  0.42255942D-04
 -0.27606767D-04 -0.51872868D-08  0.54246535D-05  0.42394923D-04  0.22904184D-04
  0.54723228D-05 -0.38858594D-08 -0.90357845D-10 -0.12929355D-04 -0.21930634D-04
 -0.24967251D-04 -0.13000365D-03  0.82558378D+00  0.15195149D+01  0.24588619D+01
  0.32322428D+01  0.27722759D+01  0.94788820D+00 -0.15776105D-01 -0.70392673D-02
  0.20787051D-01  0.12684497D-02  0.97727211D-03  0.42907510D-03  0.29166427D-02
  0.22471160D-02  0.98660494D-03 -0.38701410D-06 -0.29817350D-06 -0.13091423D-06
  0.41090658D-02 -0.24594366D-03  0.32480462D-03  0.91383942D-08 -0.93439784D-02
 -0.93118478D-02 -0.93181468D-02 -0.22323905D-03  0.80767022D-08  0.27627844D-07
  0.30533887D-04  0.56198652D-04  0.90940027D-04  0.11954321D-03  0.10253152D-03
  0.35057267D-04 -0.19239323D-03 -0.85845483D-04  0.25350286D-03 -0.88445997D-04
 -0.68142873D-04 -0.29918392D-04  0.91123453D-04  0.70205708D-04  0.30824087D-04
 -0.10801285D-06 -0.83218075D-07 -0.36537217D-07 -0.60035971D-03  0.16791998D-03
 -0.83601818D-04  0.84880297D-07  0.12420957D-03  0.24195767D-03  0.20092906D-03
  0.30538796D-04 -0.87528729D-07  0.29993218D-07  0.82371385D-04  0.13971746D-03
  0.15906339D-03 -0.21866012D-03  0.41991114D-05  0.77465406D-05  0.12505318D-04
  0.16278209D-04  0.13890225D-04  0.47959610D-05 -0.16221820D-04 -0.74766219D-05
  0.20965228D-04 -0.51114813D-05 -0.39191596D-05 -0.19559353D-05 -0.35837338D-04
 -0.27477798D-04 -0.13713347D-04 -0.14001558D-07 -0.10735506D-07 -0.53577700D-08
  0.53027888D-04 -0.24597088D-04  0.11745558D-04  0.10589437D-07  0.22032689D-04
 -0.12066956D-04  0.12480834D-04 -0.11701189D-04  0.10484856D-07 -0.20119056D-07
 -0.37299160D-05 -0.63266435D-05 -0.72026601D-05 -0.13688117D-04  0.44057120D-05
  0.74729214D-05  0.85076569D-05 -0.21930437D-05  0.44128833D-05  0.74850854D-05
  0.85215051D-05 -0.21922198D-05 -0.59624687D-05 -0.10113475D-04 -0.11513834D-04
 -0.32456003D-04  0.63772567D-05  0.11764793D-04  0.18992024D-04  0.24721973D-04
  0.21095304D-04  0.72837015D-05 -0.23211895D-04 -0.10698341D-04  0.29999266D-04
 -0.14119844D-04 -0.10826201D-04 -0.54030329D-05  0.64914789D-06  0.49772543D-06
  0.24839987D-06 -0.42449412D-08 -0.32547517D-08 -0.16243492D-08 -0.69170286D-04
 -0.22833314D-04  0.48613271D-05  0.42882099D-08 -0.52128769D-05  0.21436921D-04
  0.21242411D-04  0.63680671D-05  0.40990519D-08  0.37557919D-08  0.35021384D-05
  0.59402895D-05  0.67628097D-05  0.30041125D-05  0.35036340D-05  0.59428265D-05
  0.67656979D-05  0.30067817D-05  0.27814540D-05  0.47178725D-05  0.53711311D-05
  0.67816594D-05
MO    2     MO 0.0        OCC NO =    1.0000000  ORB. ENERGY =  -19.141583
 -0.45504070D-05 -0.83946124D-05 -0.13551507D-04 -0.17640036D-04 -0.15052275D-04
 -0.51971887D-05  0.28452882D-04  0.13113907D-04 -0.36772765D-04  0.13560607D-03
  0.10397413D-03  0.51890380D-04 -0.16118672D-04 -0.12358775D-04 -0.61678949D-05
 -0.23992692D-07 -0.18396074D-07 -0.91809305D-08  0.66449556D-03  0.19232342D-03
 -0.22228491D-03 -0.13179839D-07  0.74926064D-04 -0.31640681D-05  0.44159728D-05
  0.29841962D-04 -0.33990604D-07 -0.30984314D-07  0.83801173D-05  0.15459680D-04
  0.24956717D-04  0.32486230D-04  0.27720559D-04  0.95712429D-05 -0.68684754D-04
 -0.31656740D-04  0.88768804D-04 -0.13675129D-03 -0.10485222D-03 -0.52328606D-04
 -0.59836457D-04 -0.45878800D-04 -0.22896737D-04 -0.68573130D-07 -0.52577527D-07
 -0.26239871D-07 -0.70383739D-03  0.46789941D-03  0.52567711D-03  0.98175486D-07
 -0.11290551D-03 -0.18760995D-04  0.20321135D-04  0.46674715D-04 -0.30398028D-07
 -0.68363810D-07 -0.47955124D-04 -0.88467839D-04 -0.14281452D-03 -0.18590208D-03
 -0.15863058D-03 -0.54771326D-04 -0.70562037D-04 -0.32521978D-04  0.91195022D-04
  0.22584470D-03  0.17316339D-03  0.86420669D-04 -0.40244173D-04 -0.30856679D-04
 -0.15399646D-04  0.70392335D-07  0.53972378D-07  0.26935999D-07 -0.24216339D-04
 -0.12491450D-02  0.16533497D-03 -0.16500987D-06 -0.89608099D-03 -0.15964406D-03
 -0.21888579D-03  0.21295924D-03 -0.43957235D-06  0.44853418D-07  0.26089079D-04
  0.48129256D-04  0.77695542D-04  0.10113651D-03  0.86299967D-04  0.29797305D-04
 -0.11798358D-03 -0.54378526D-04  0.15248306D-03 -0.42196712D-04 -0.32353762D-04
 -0.16146795D-04 -0.96454600D-04 -0.73955269D-04 -0.36908862D-04 -0.23345131D-07
 -0.17899566D-07 -0.89331377D-08 -0.60398158D-03  0.35295985D-03 -0.55453212D-03
  0.95009401D-07 -0.53574820D-04  0.79888842D-04  0.62888022D-04 -0.12589736D-03
 -0.14917117D-07  0.60340789D-07 -0.52150622D-05 -0.96207715D-05 -0.15530908D-04
 -0.20216628D-04 -0.17250885D-04 -0.59563161D-05  0.32245862D-04  0.14862088D-04
 -0.41674847D-04  0.12724206D-03  0.97561141D-04  0.48689847D-04  0.10234130D-04
  0.78468816D-05  0.39161439D-05 -0.26407246D-07 -0.20247401D-07 -0.10104872D-07
  0.65254951D-03  0.15468885D-03  0.26704092D-03 -0.28871035D-07  0.44819604D-04
  0.26020661D-04 -0.85720805D-06 -0.16003750D-04 -0.27628600D-07  0.16617310D-07
  0.12843973D-04  0.23694623D-04  0.38250468D-04  0.49790744D-04  0.42486532D-04
  0.14669579D-04 -0.55259995D-04 -0.25469281D-04  0.71418523D-04  0.44504740D-04
  0.34123412D-04  0.17029974D-04  0.20406736D-05  0.15646591D-05  0.78087453D-06
 -0.47239532D-07 -0.36220277D-07 -0.18076457D-07 -0.47121658D-03 -0.26060265D-03
  0.58232479D-04  0.18500070D-07  0.20937708D-04 -0.54190167D-04  0.52243007D-04
 -0.35659066D-05  0.56070141D-08  0.87299787D-08  0.14246088D-04  0.24164062D-04
  0.27509930D-04  0.76546304D-04  0.74109024D-04  0.13640017D-03  0.22072122D-03
  0.29014422D-03  0.24885501D-03  0.85087754D-04 -0.17426815D-03 -0.77758109D-04
  0.22962074D-03 -0.15274116D-03 -0.11767883D-03 -0.51667344D-04  0.10113906D-03
  0.77922191D-04  0.34212039D-04  0.16352593D-06  0.12598792D-06  0.55315481D-07
 -0.55380219D-03  0.19013130D-03 -0.15671936D-03 -0.60393846D-07  0.22492015D-03
  0.11481244D-03  0.17684636D-03  0.13197126D-03 -0.10823790D-07 -0.75806737D-07
  0.82551945D+00  0.15193965D+01  0.24586703D+01  0.32319909D+01  0.27720598D+01
  0.94781434D+00 -0.15627417D-01 -0.69729231D-02  0.20591135D-01 -0.31505004D-02
 -0.24272907D-02 -0.10657114D-02  0.21843349D-03  0.16829122D-03  0.73888912D-04
 -0.59956822D-06 -0.46193499D-06 -0.20281434D-06  0.47652509D-02 -0.66638770D-03
  0.80753026D-04 -0.21393806D-06 -0.91325786D-02 -0.96442709D-02 -0.95318382D-02
 -0.14896965D-03  0.23741998D-06 -0.14730347D-07 -0.11939794D-04 -0.20252150D-04
 -0.23056357D-04 -0.10729663D-03  0.10690926D-04  0.19722672D-04  0.31838508D-04
  0.41444277D-04  0.35364476D-04  0.12210504D-04 -0.35740093D-04 -0.16472576D-04
  0.46190822D-04  0.11200279D-03  0.85876634D-04  0.42858459D-04  0.54714902D-04
  0.41951916D-04  0.20936946D-04  0.43894881D-07  0.33655811D-07  0.16796608D-07
 -0.41885459D-03  0.60698484D-04  0.12393213D-03 -0.32305417D-07  0.23607794D-04
  0.32627446D-04  0.11197306D-04 -0.10087855D-03 -0.11601504D-07  0.48426046D-07
  0.87791566D-05  0.14891111D-04  0.16953004D-04 -0.10284692D-04  0.17573023D-04
  0.29807173D-04  0.33934412D-04  0.13183691D-04  0.17555152D-04  0.29776860D-04
  0.33899903D-04  0.13175724D-04  0.90526083D-05  0.15354937D-04  0.17481053D-04
  0.70609663D-04 -0.54365835D-06 -0.10029435D-05 -0.16190618D-05 -0.21075374D-05
 -0.17983655D-05 -0.62093238D-06 -0.11630785D-05 -0.53606181D-06  0.15031733D-05
 -0.32282094D-04 -0.24751862D-04 -0.12352914D-04 -0.67551920D-05 -0.51794528D-05
 -0.25849099D-05  0.10754330D-07  0.82457381D-08  0.41152012D-08 -0.96306481D-04
 -0.27853418D-04  0.41735027D-05 -0.96714434D-08 -0.99495683D-05 -0.50616745D-05
 -0.47090457D-05 -0.59028290D-05 -0.96698076D-08 -0.92217034D-08  0.45192568D-06
  0.76655149D-06  0.87269178D-06  0.60437952D-06  0.44904607D-06  0.76166712D-06
  0.86713110D-06  0.59578938D-06  0.18739361D-05  0.31785504D-05  0.36186673D-05
  0.42687689D-05
MO    3     MO 0.0        OCC NO =    1.0000000  ORB. ENERGY =  -10.264326
 -0.57520041D-04 -0.10611324D-03 -0.17129968D-03 -0.22298128D-03 -0.19027033D-03
 -0.65695773D-04  0.11175592D-03  0.51508203D-04 -0.14443438D-03 -0.36496888D-04
 -0.27983499D-04 -0.13965727D-04  0.10121902D-03  0.77608326D-04  0.38731994D-04
 -0.21134426D-07 -0.16204537D-07 -0.80871997D-08  0.75343919D-03  0.24004610D-03
 -0.35785610D-03  0.75324523D-09  0.73722217D-05 -0.33242565D-04 -0.12262335D-03
  0.36585966D-04 -0.22284373D-07 -0.29797441D-07  0.45527634D-04  0.83989594D-04
  0.13558525D-03  0.17649171D-03  0.15060069D-03  0.51998800D-04 -0.66196483D-04
 -0.30509898D-04  0.85552940D-04 -0.76222227D-05 -0.58442369D-05 -0.29166838D-05
  0.16173500D-03  0.12400814D-03  0.61888753D-04 -0.49652289D-07 -0.38070226D-07
 -0.18999711D-07 -0.11748786D-02  0.19310116D-03  0.40963887D-03  0.53590834D-07
  0.25363563D-04 -0.73081757D-05  0.16207801D-04 -0.97512999D-04 -0.44845378D-07
 -0.73086202D-07  0.96574067D-02  0.17816030D-01  0.28760596D-01  0.37437750D-01
  0.31945700D-01  0.11030083D-01 -0.35167883D-04 -0.16208845D-04  0.45451293D-04
  0.18291731D-03  0.14024939D-03  0.69994277D-04  0.25271178D-03  0.19376337D-03
  0.96701500D-04 -0.34051264D-08 -0.26108349D-08 -0.13029896D-08  0.18517731D-02
 -0.11084753D-02 -0.65635359D-04  0.96931228D-08 -0.46220787D-03 -0.77566226D-03
 -0.55810511D-03 -0.87193985D-04 -0.62871653D-07  0.66459729D-07  0.53242581D+00
  0.98222166D+00  0.15856103D+01  0.20639935D+01  0.17612094D+01  0.60810328D+00
 -0.20010299D-01 -0.92227287D-02  0.25861494D-01  0.57934517D-03  0.44420513D-03
  0.22168949D-03 -0.10354250D-02 -0.79389819D-03 -0.39621083D-03 -0.19667254D-07
 -0.15079603D-07 -0.75257787D-08 -0.34493531D-02  0.88014834D-03 -0.14957613D-02
  0.11577139D-06 -0.10099302D-01 -0.98158595D-02 -0.10520412D-01 -0.85108088D-03
  0.31070129D-07  0.54294241D-07  0.20845962D-02  0.38456730D-02  0.62081086D-02
  0.80811128D-02  0.68956282D-02  0.23808947D-02  0.28351286D-03  0.13067082D-03
 -0.36641461D-03 -0.36046759D-03 -0.27638368D-03 -0.13793483D-03 -0.13094991D-03
 -0.10040409D-03 -0.50108676D-04 -0.15833156D-08 -0.12139860D-08 -0.60586409D-09
  0.24235989D-02  0.69885598D-03  0.88069248D-03 -0.57845958D-07 -0.40186344D-03
 -0.28633557D-03 -0.37943165D-03  0.21748843D-03 -0.33539008D-07 -0.47388970D-08
  0.27862337D-04  0.51400571D-04  0.82976459D-04  0.10801070D-03  0.92165722D-04
  0.31822609D-04 -0.74043430D-04 -0.34126549D-04  0.95694407D-04 -0.14021588D-03
 -0.10750864D-03 -0.53654349D-04  0.95644665D-04  0.73334263D-04  0.36598937D-04
 -0.33393277D-07 -0.25603847D-07 -0.12778114D-07 -0.13038583D-02 -0.38858041D-03
  0.23148587D-03 -0.51630648D-08  0.32232363D-04  0.38529277D-04  0.32484846D-04
 -0.81367103D-05  0.36606795D-10 -0.61816385D-08  0.36002388D-04  0.61066864D-04
  0.69522467D-04  0.32481278D-03  0.12317443D-03  0.22670671D-03  0.36685425D-03
  0.48224018D-03  0.41361460D-03  0.14142186D-03 -0.73503234D-03 -0.32797000D-03
  0.96849979D-03  0.74107747D-04  0.57096024D-04  0.25068230D-04 -0.94120455D-04
 -0.72514737D-04 -0.31837875D-04  0.86704734D-07  0.66801323D-07  0.29329379D-07
 -0.18425346D-02  0.34886528D-03 -0.73305894D-03 -0.13247671D-07  0.51336003D-03
 -0.10047602D-03  0.10468874D-02  0.99084534D-03  0.29435923D-07  0.39157906D-07
 -0.80370133D-04 -0.14792395D-03 -0.23936887D-03 -0.31465708D-03 -0.26987955D-03
 -0.92276402D-04  0.28286994D-03  0.12621602D-03 -0.37271759D-03 -0.16815747D-04
 -0.12955626D-04 -0.56882178D-05 -0.56727646D-04 -0.43705593D-04 -0.19189109D-04
  0.16796447D-06  0.12940757D-06  0.56816892D-07  0.83371218D-03 -0.13134368D-03
  0.83515526D-04 -0.13487441D-06 -0.23272036D-03 -0.25302488D-03 -0.30323213D-03
  0.51524752D-05  0.12868797D-06 -0.60195460D-07  0.62798874D-04  0.10651878D-03
  0.12126786D-03 -0.12545261D-04 -0.24835928D-04 -0.45817438D-04 -0.73963551D-04
 -0.96278567D-04 -0.82154676D-04 -0.28366035D-04  0.66217882D-04  0.30519761D-04
 -0.85580597D-04 -0.19967949D-04 -0.15310156D-04 -0.76408411D-05  0.58451751D-04
  0.44817095D-04  0.22366872D-04  0.31691221D-07  0.24298818D-07  0.12126813D-07
  0.57433677D-05  0.38566020D-04 -0.60177093D-04 -0.24875899D-07 -0.68723691D-04
  0.14801027D-04 -0.46579155D-04  0.60898543D-04 -0.22944994D-07  0.44846643D-07
  0.42678417D-05  0.72390674D-05  0.82414223D-05  0.28853096D-04 -0.15281526D-04
 -0.25920360D-04 -0.29509414D-04 -0.51490700D-05 -0.15296557D-04 -0.25945856D-04
 -0.29538440D-04 -0.51530796D-05  0.22056481D-04  0.37411967D-04  0.42592202D-04
  0.12976071D-03 -0.25253143D-04 -0.46587118D-04 -0.75206054D-04 -0.97895936D-04
 -0.83534780D-04 -0.28842552D-04  0.65664481D-04  0.30264699D-04 -0.84865376D-04
 -0.11456605D-05 -0.87841983D-06 -0.43839306D-06 -0.90829635D-06 -0.69642403D-06
 -0.34756440D-06  0.36377118D-08  0.27891667D-08  0.13919896D-08  0.70258865D-04
  0.33878202D-04 -0.52013440D-04  0.85576151D-09  0.55799796D-05 -0.35859384D-04
 -0.76750701D-04 -0.10615810D-03  0.17971205D-08  0.74097373D-08 -0.56724249D-05
 -0.96215062D-05 -0.10953745D-04  0.25360021D-05 -0.56719610D-05 -0.96207193D-05
 -0.10952849D-04  0.25391926D-05 -0.12801279D-04 -0.21713391D-04 -0.24719929D-04
 -0.15537410D-04
MO    4     MO 0.0        OCC NO =    1.0000000  ORB. ENERGY =  -10.255054
  0.38383365D-04  0.70809814D-04  0.11430900D-03  0.14879635D-03  0.12696819D-03
  0.43839066D-04 -0.87170580D-04 -0.40176841D-04  0.11266005D-03 -0.21170274D-03
 -0.16232023D-03 -0.81009171D-04  0.34430557D-04  0.26399167D-04  0.13175035D-04
  0.48314951D-07  0.37044840D-07  0.18487971D-07 -0.16492217D-02 -0.41957768D-03
  0.69296828D-03 -0.97336250D-08  0.27983865D-04  0.32224046D-04  0.33501756D-04
  0.19979531D-04  0.16198301D-07  0.67358252D-07  0.20346281D-02  0.37534915D-02
  0.60592992D-02  0.78874071D-02  0.67303388D-02  0.23238242D-02  0.21490521D-03
  0.99049616D-04 -0.27774546D-03  0.75569055D-04  0.57941559D-04  0.28916899D-04
  0.50684419D-03  0.38861598D-03  0.19394661D-03  0.75552110D-07  0.57928566D-07
  0.28910414D-07  0.25090282D-02 -0.72872813D-03 -0.14820624D-02 -0.97370714D-07
 -0.34902378D-03 -0.41111852D-03 -0.33334867D-03  0.28814326D-03  0.68274965D-07
  0.32327838D-07  0.53250760D+00  0.98237255D+00  0.15858539D+01  0.20643106D+01
  0.17614799D+01  0.60819669D+00 -0.20008683D-01 -0.92219835D-02  0.25859404D-01
  0.75831272D-03  0.58142610D-03  0.29017237D-03 -0.30072488D-03 -0.23057676D-03
 -0.11507396D-03  0.33986847D-06  0.26058959D-06  0.13005247D-06 -0.36361633D-02
  0.22511000D-02 -0.31144689D-03  0.21814349D-07 -0.91884044D-02 -0.10174162D-01
 -0.10359287D-01 -0.28369447D-03  0.66226243D-06 -0.92285008D-07 -0.99356816D-02
 -0.18329393D-01 -0.29589323D-01 -0.38516507D-01 -0.32866205D-01 -0.11347911D-01
  0.68919949D-03  0.31765141D-03 -0.89072772D-03 -0.15811245D-03 -0.12123060D-03
 -0.60502565D-04 -0.21904377D-03 -0.16794887D-03 -0.83818256D-04  0.53445319D-07
  0.40978481D-07  0.20451134D-07  0.23987271D-02 -0.49434209D-03  0.13214319D-02
 -0.12196173D-06 -0.35450198D-03 -0.30760112D-03 -0.16409004D-03 -0.32873967D-03
  0.91553571D-07 -0.26330546D-07 -0.20203183D-04 -0.37270928D-04 -0.60166835D-04
 -0.78319342D-04 -0.66830036D-04 -0.23074805D-04 -0.98209121D-04 -0.45264494D-04
  0.12692637D-03 -0.18005951D-03 -0.13805821D-03 -0.68900725D-04 -0.36703451D-04
 -0.28141878D-04 -0.14044769D-04  0.49796577D-07  0.38180857D-07  0.19054924D-07
 -0.16617632D-02 -0.40878420D-03 -0.70548823D-03  0.38748467D-07  0.94396920D-04
 -0.60615790D-05  0.45550661D-04 -0.66623016D-04  0.13072740D-07 -0.28421218D-07
 -0.10451035D-03 -0.19280119D-03 -0.31124091D-03 -0.40514318D-03 -0.34570941D-03
 -0.11936515D-03  0.16168927D-03  0.74522438D-04 -0.20896869D-03 -0.12373441D-03
 -0.94871698D-04 -0.47347626D-04  0.69379545D-05  0.53195835D-05  0.26548450D-05
  0.61922204D-07  0.47478019D-07  0.23694859D-07  0.13658615D-02  0.74560264D-03
 -0.11452275D-03 -0.82800002D-08 -0.43817553D-04  0.65441748D-04 -0.14786782D-03
  0.66853597D-05  0.18049668D-08 -0.15170777D-07 -0.35548954D-04 -0.60297755D-04
 -0.68646863D-04 -0.20006383D-03 -0.87761631D-04 -0.16152825D-03 -0.26138320D-03
 -0.34359553D-03 -0.29469989D-03 -0.10076290D-03  0.32318578D-03  0.14420486D-03
 -0.42583890D-03  0.16966268D-03  0.13071595D-03  0.57391341D-04  0.12055306D-04
  0.92879634D-05  0.40779162D-05 -0.13961100D-06 -0.10756275D-06 -0.47225841D-07
  0.97337550D-03 -0.21323911D-03  0.15852194D-03  0.50797425D-07 -0.30443120D-03
 -0.24630906D-03 -0.33699326D-03 -0.12684048D-03 -0.10266435D-07  0.50353341D-07
  0.13781243D-03  0.25364843D-03  0.41045104D-03  0.53954938D-03  0.46276837D-03
  0.15822837D-03 -0.92546754D-03 -0.41294181D-03  0.12194227D-02  0.10569205D-03
  0.81430026D-04  0.35752167D-04  0.26735388D-05  0.20598175D-05  0.90437085D-06
 -0.45805760D-06 -0.35290869D-06 -0.15494592D-06 -0.27051972D-02  0.96677226D-03
 -0.12370702D-03  0.45917737D-06  0.14258996D-03  0.11030809D-02  0.12283061D-02
  0.20337179D-03 -0.77274490D-06  0.92453288D-07  0.42667109D-05  0.72371492D-05
  0.82392386D-05  0.30734312D-04 -0.17413671D-04 -0.32124823D-04 -0.51859424D-04
 -0.67505562D-04 -0.57602618D-04 -0.19888800D-04  0.75434040D-04  0.34767480D-04
 -0.97491644D-04 -0.10952877D-03 -0.83979715D-04 -0.41911763D-04 -0.16489921D-03
 -0.12643425D-03 -0.63099554D-04 -0.53424581D-07 -0.40962580D-07 -0.20443199D-07
  0.75555604D-03 -0.19122625D-03 -0.17128536D-03  0.22765118D-07  0.72716944D-04
  0.51658511D-04 -0.30694436D-04  0.10061564D-03  0.33252053D-07 -0.30977360D-07
 -0.25076039D-04 -0.42533709D-04 -0.48423124D-04 -0.15861557D-04 -0.12382620D-04
 -0.21003268D-04 -0.23911478D-04 -0.22515219D-05 -0.12366565D-04 -0.20976034D-04
 -0.23880473D-04 -0.22390782D-05 -0.31352151D-04 -0.53179182D-04 -0.60542619D-04
 -0.20700293D-03  0.26474700D-05  0.48840651D-05  0.78843955D-05  0.10263140D-04
  0.87575562D-05  0.30237737D-05  0.75985631D-05  0.35021708D-05 -0.98204524D-05
  0.79626307D-04  0.61052402D-04  0.30469427D-04  0.75149862D-05  0.57620148D-05
  0.28756492D-05 -0.18045912D-07 -0.13836461D-07 -0.69053636D-08  0.27856879D-03
  0.82012153D-04 -0.11035296D-04  0.78916872D-08  0.17070767D-04  0.15333643D-04
  0.56600323D-05  0.10033155D-04  0.19693229D-08  0.11257518D-07 -0.24767089D-05
 -0.42009670D-05 -0.47826525D-05 -0.17412074D-05 -0.24727057D-05 -0.41941769D-05