Title Card Required                                                     
SP        UB3LYP                                                      6-311G(d,p)         
Number of atoms                            I               19
Info1-9                                    I   N=           9
          49          48           0           0           0         110
           1          18        -502
Full Title                                 C   N=           2
Title Card Required     
Route                                      C   N=           5
# ub3lyp/6-311g(d,p) geom=connectivity temperature=823.15   
Charge                                     I                0
Multiplicity                               I                2
Number of electrons                        I               73
Number of alpha electrons                  I               37
Number of beta electrons                   I               36
Number of basis functions                  I              234
Number of independent functions            I              234
Number of point charges in /Mol/           I                0
Number of translation vectors              I                0
Atomic numbers                             I   N=          19
           6           6           6           6           6           6
           1           8           8           1           6           1
           1           1           1           6           1           1
           1
Nuclear charges                            R   N=          19
  6.00000000E+00  6.00000000E+00  6.00000000E+00  6.00000000E+00  6.00000000E+00
  6.00000000E+00  1.00000000E+00  8.00000000E+00  8.00000000E+00  1.00000000E+00
  6.00000000E+00  1.00000000E+00  1.00000000E+00  1.00000000E+00  1.00000000E+00
  6.00000000E+00  1.00000000E+00  1.00000000E+00  1.00000000E+00
Current cartesian coordinates              R   N=          57
 -1.62991713E+00  2.31989015E+00 -1.28501376E-04  9.63943627E-01  2.26096849E+00
 -9.44863062E-05  2.21200758E+00 -1.77144817E-01 -1.85193160E-04  6.18308939E-01
 -2.43589477E+00  2.64561657E-05 -1.99499521E+00 -2.28185374E+00  2.83458919E-05
 -3.14344602E+00  9.17348650E-02 -9.63760324E-05 -3.10864294E+00 -4.00027620E+00
  1.02045211E-04  1.85092249E+00 -4.63406577E+00  8.88171279E-05  4.56114502E+00
 -4.89868034E-01  3.15584263E-04  3.64052147E+00 -4.15252198E+00 -1.20942472E-04
  2.58510754E+00  4.58501982E+00  3.77945225E-06  1.43968407E+00  6.29973652E+00
 -8.69274017E-05  3.82622297E+00  4.61142685E+00  1.65308328E+00  3.82645541E+00
  4.61139095E+00 -1.65289809E+00 -2.58673082E+00  4.13572987E+00 -1.43619185E-04
 -5.97492094E+00  3.39396702E-01 -6.04712360E-05 -6.62476185E+00  1.38747283E+00
  1.66203113E+00 -6.62478453E+00  1.38772983E+00 -1.66197633E+00 -6.90102091E+00
 -1.50189574E+00 -1.88972612E-04
Number of symbols in /Mol/                 I                0
Force Field                                I                0
Atom Types                                 C   N=          19
                                                            
                                                            
                                                            
                                                
Int Atom Types                             I   N=          19
           0           0           0           0           0           0
           0           0           0           0           0           0
           0           0           0           0           0           0
           0
MM charges                                 R   N=          19
  0.00000000E+00  0.00000000E+00  0.00000000E+00  0.00000000E+00  0.00000000E+00
  0.00000000E+00  0.00000000E+00  0.00000000E+00  0.00000000E+00  0.00000000E+00
  0.00000000E+00  0.00000000E+00  0.00000000E+00  0.00000000E+00  0.00000000E+00
  0.00000000E+00  0.00000000E+00  0.00000000E+00  0.00000000E+00
Integer atomic weights                     I   N=          19
          12          12          12          12          12          12
           1          16          16           1          12           1
           1           1           1          12           1           1
           1
Real atomic weights                        R   N=          19
  1.20000000E+01  1.20000000E+01  1.20000000E+01  1.20000000E+01  1.20000000E+01
  1.20000000E+01  1.00782504E+00  1.59949146E+01  1.59949146E+01  1.00782504E+00
  1.20000000E+01  1.00782504E+00  1.00782504E+00  1.00782504E+00  1.00782504E+00
  1.20000000E+01  1.00782504E+00  1.00782504E+00  1.00782504E+00
Atom fragment info                         I   N=          19
           0           0           0           0           0           0
           0           0           0           0           0           0
           0           0           0           0           0           0
           0
Atom residue num                           I   N=          19
           0           0           0           0           0           0
           0           0           0           0           0           0
           0           0           0           0           0           0
           0
Nuclear spins                              I   N=          19
           0           0           0           0           0           0
           1           0           0           1           0           1
           1           1           1           0           1           1
           1
Nuclear ZEff                               R   N=          19
 -3.60000000E+00 -3.60000000E+00 -3.60000000E+00 -3.60000000E+00 -3.60000000E+00
 -3.60000000E+00 -1.00000000E+00 -5.60000000E+00 -5.60000000E+00 -1.00000000E+00
 -3.60000000E+00 -1.00000000E+00 -1.00000000E+00 -1.00000000E+00 -1.00000000E+00
 -3.60000000E+00 -1.00000000E+00 -1.00000000E+00 -1.00000000E+00
Nuclear ZNuc                               R   N=          19
  6.00000000E+00  6.00000000E+00  6.00000000E+00  6.00000000E+00  6.00000000E+00
  6.00000000E+00  1.00000000E+00  8.00000000E+00  8.00000000E+00  1.00000000E+00
  6.00000000E+00  1.00000000E+00  1.00000000E+00  1.00000000E+00  1.00000000E+00
  6.00000000E+00  1.00000000E+00  1.00000000E+00  1.00000000E+00
Nuclear QMom                               R   N=          19
  0.00000000E+00  0.00000000E+00  0.00000000E+00  0.00000000E+00  0.00000000E+00
  0.00000000E+00  0.00000000E+00  0.00000000E+00  0.00000000E+00  0.00000000E+00
  0.00000000E+00  0.00000000E+00  0.00000000E+00  0.00000000E+00  0.00000000E+00
  0.00000000E+00  0.00000000E+00  0.00000000E+00  0.00000000E+00
Nuclear GFac                               R   N=          19
  0.00000000E+00  0.00000000E+00  0.00000000E+00  0.00000000E+00  0.00000000E+00
  0.00000000E+00  2.79284600E+00  0.00000000E+00  0.00000000E+00  2.79284600E+00
  0.00000000E+00  2.79284600E+00  2.79284600E+00  2.79284600E+00  2.79284600E+00
  0.00000000E+00  2.79284600E+00  2.79284600E+00  2.79284600E+00
MicOpt                                     I   N=          19
          -1          -1          -1          -1          -1          -1
          -1          -1          -1          -1          -1          -1
          -1          -1          -1          -1          -1          -1
          -1
Number of residues                         I                0
Number of secondary structures             I                0
SymInf integers                            I   N=          26
           1           1           1           1           1           0
           0           0           0           0           0           0
           0           0           0           0           0           0
           0           0           0           0           0           0
           0           0
RotTr to input orientation                 R   N=          12
  1.00000000E+00 -1.44190793E-07  0.00000000E+00  1.44190793E-07  1.00000000E+00
  0.00000000E+00  0.00000000E+00  0.00000000E+00  1.00000000E+00  1.81206615E-07
  3.10639911E-07 -2.58866592E-08
Number of contracted shells                I               86
Number of primitive shells                 I              174
Pure/Cartesian d shells                    I                0
Pure/Cartesian f shells                    I                0
Highest angular momentum                   I                2
Largest degree of contraction              I                6
Shell types                                I   N=          86
           0          -1          -1          -1          -2           0
          -1          -1          -1          -2           0          -1
          -1          -1          -2           0          -1          -1
          -1          -2           0          -1          -1          -1
          -2           0          -1          -1          -1          -2
           0           0           0           1           0          -1
          -1          -1          -2           0          -1          -1
          -1          -2           0           0           0           1
           0          -1          -1          -1          -2           0
           0           0           1           0           0           0
           1           0           0           0           1           0
           0           0           1           0          -1          -1
          -1          -2           0           0           0           1
           0           0           0           1           0           0
           0           1
Number of primitives per shell             I   N=          86
           6           3           1           1           1           6
           3           1           1           1           6           3
           1           1           1           6           3           1
           1           1           6           3           1           1
           1           6           3           1           1           1
           3           1           1           1           6           3
           1           1           1           6           3           1
           1           1           3           1           1           1
           6           3           1           1           1           3
           1           1           1           3           1           1
           1           3           1           1           1           3
           1           1           1           6           3           1
           1           1           3           1           1           1
           3           1           1           1           3           1
           1           1
Shell to atom map                          I   N=          86
           1           1           1           1           1           2
           2           2           2           2           3           3
           3           3           3           4           4           4
           4           4           5           5           5           5
           5           6           6           6           6           6
           7           7           7           7           8           8
           8           8           8           9           9           9
           9           9          10          10          10          10
          11          11          11          11          11          12
          12          12          12          13          13          13
          13          14          14          14          14          15
          15          15          15          16          16          16
          16          16          17          17          17          17
          18          18          18          18          19          19
          19          19
Primitive exponents                        R   N=         174
  4.56324000E+03  6.82024000E+02  1.54973000E+02  4.44553000E+01  1.30290000E+01
  1.82773000E+00  2.09642000E+01  4.80331000E+00  1.45933000E+00  4.83456000E-01
  1.45585000E-01  6.26000000E-01  4.56324000E+03  6.82024000E+02  1.54973000E+02
  4.44553000E+01  1.30290000E+01  1.82773000E+00  2.09642000E+01  4.80331000E+00
  1.45933000E+00  4.83456000E-01  1.45585000E-01  6.26000000E-01  4.56324000E+03
  6.82024000E+02  1.54973000E+02  4.44553000E+01  1.30290000E+01  1.82773000E+00
  2.09642000E+01  4.80331000E+00  1.45933000E+00  4.83456000E-01  1.45585000E-01
  6.26000000E-01  4.56324000E+03  6.82024000E+02  1.54973000E+02  4.44553000E+01
  1.30290000E+01  1.82773000E+00  2.09642000E+01  4.80331000E+00  1.45933000E+00
  4.83456000E-01  1.45585000E-01  6.26000000E-01  4.56324000E+03  6.82024000E+02
  1.54973000E+02  4.44553000E+01  1.30290000E+01  1.82773000E+00  2.09642000E+01
  4.80331000E+00  1.45933000E+00  4.83456000E-01  1.45585000E-01  6.26000000E-01
  4.56324000E+03  6.82024000E+02  1.54973000E+02  4.44553000E+01  1.30290000E+01
  1.82773000E+00  2.09642000E+01  4.80331000E+00  1.45933000E+00  4.83456000E-01
  1.45585000E-01  6.26000000E-01  3.38650000E+01  5.09479000E+00  1.15879000E+00
  3.25840000E-01  1.02741000E-01  7.50000000E-01  8.58850000E+03  1.29723000E+03
  2.99296000E+02  8.73771000E+01  2.56789000E+01  3.74004000E+00  4.21175000E+01
  9.62837000E+00  2.85332000E+00  9.05661000E-01  2.55611000E-01  1.29200000E+00
  8.58850000E+03  1.29723000E+03  2.99296000E+02  8.73771000E+01  2.56789000E+01
  3.74004000E+00  4.21175000E+01  9.62837000E+00  2.85332000E+00  9.05661000E-01
  2.55611000E-01  1.29200000E+00  3.38650000E+01  5.09479000E+00  1.15879000E+00
  3.25840000E-01  1.02741000E-01  7.50000000E-01  4.56324000E+03  6.82024000E+02
  1.54973000E+02  4.44553000E+01  1.30290000E+01  1.82773000E+00  2.09642000E+01
  4.80331000E+00  1.45933000E+00  4.83456000E-01  1.45585000E-01  6.26000000E-01
  3.38650000E+01  5.09479000E+00  1.15879000E+00  3.25840000E-01  1.02741000E-01
  7.50000000E-01  3.38650000E+01  5.09479000E+00  1.15879000E+00  3.25840000E-01
  1.02741000E-01  7.50000000E-01  3.38650000E+01  5.09479000E+00  1.15879000E+00
  3.25840000E-01  1.02741000E-01  7.50000000E-01  3.38650000E+01  5.09479000E+00
  1.15879000E+00  3.25840000E-01  1.02741000E-01  7.50000000E-01  4.56324000E+03
  6.82024000E+02  1.54973000E+02  4.44553000E+01  1.30290000E+01  1.82773000E+00
  2.09642000E+01  4.80331000E+00  1.45933000E+00  4.83456000E-01  1.45585000E-01
  6.26000000E-01  3.38650000E+01  5.09479000E+00  1.15879000E+00  3.25840000E-01
  1.02741000E-01  7.50000000E-01  3.38650000E+01  5.09479000E+00  1.15879000E+00
  3.25840000E-01  1.02741000E-01  7.50000000E-01  3.38650000E+01  5.09479000E+00
  1.15879000E+00  3.25840000E-01  1.02741000E-01  7.50000000E-01
Contraction coefficients                   R   N=         174
  1.96665025E-03  1.52306019E-02  7.61269097E-02  2.60801033E-01  6.16462078E-01
  2.21006028E-01  1.14660081E-01  9.19999648E-01 -3.03068213E-03  1.00000000E+00
  1.00000000E+00  1.00000000E+00  1.96665025E-03  1.52306019E-02  7.61269097E-02
  2.60801033E-01  6.16462078E-01  2.21006028E-01  1.14660081E-01  9.19999648E-01
 -3.03068213E-03  1.00000000E+00  1.00000000E+00  1.00000000E+00  1.96665025E-03
  1.52306019E-02  7.61269097E-02  2.60801033E-01  6.16462078E-01  2.21006028E-01
  1.14660081E-01  9.19999648E-01 -3.03068213E-03  1.00000000E+00  1.00000000E+00
  1.00000000E+00  1.96665025E-03  1.52306019E-02  7.61269097E-02  2.60801033E-01
  6.16462078E-01  2.21006028E-01  1.14660081E-01  9.19999648E-01 -3.03068213E-03
  1.00000000E+00  1.00000000E+00  1.00000000E+00  1.96665025E-03  1.52306019E-02
  7.61269097E-02  2.60801033E-01  6.16462078E-01  2.21006028E-01  1.14660081E-01
  9.19999648E-01 -3.03068213E-03  1.00000000E+00  1.00000000E+00  1.00000000E+00
  1.96665025E-03  1.52306019E-02  7.61269097E-02  2.60801033E-01  6.16462078E-01
  2.21006028E-01  1.14660081E-01  9.19999648E-01 -3.03068213E-03  1.00000000E+00
  1.00000000E+00  1.00000000E+00  2.54938145E-02  1.90373109E-01  8.52161486E-01
  1.00000000E+00  1.00000000E+00  1.00000000E+00  1.89515008E-03  1.43859006E-02
  7.07320031E-02  2.40001011E-01  5.94797026E-01  2.80802012E-01  1.13889012E-01
  9.20811101E-01 -3.27447036E-03  1.00000000E+00  1.00000000E+00  1.00000000E+00
  1.89515008E-03  1.43859006E-02  7.07320031E-02  2.40001011E-01  5.94797026E-01
  2.80802012E-01  1.13889012E-01  9.20811101E-01 -3.27447036E-03  1.00000000E+00
  1.00000000E+00  1.00000000E+00  2.54938145E-02  1.90373109E-01  8.52161486E-01
  1.00000000E+00  1.00000000E+00  1.00000000E+00  1.96665025E-03  1.52306019E-02
  7.61269097E-02  2.60801033E-01  6.16462078E-01  2.21006028E-01  1.14660081E-01
  9.19999648E-01 -3.03068213E-03  1.00000000E+00  1.00000000E+00  1.00000000E+00
  2.54938145E-02  1.90373109E-01  8.52161486E-01  1.00000000E+00  1.00000000E+00
  1.00000000E+00  2.54938145E-02  1.90373109E-01  8.52161486E-01  1.00000000E+00
  1.00000000E+00  1.00000000E+00  2.54938145E-02  1.90373109E-01  8.52161486E-01
  1.00000000E+00  1.00000000E+00  1.00000000E+00  2.54938145E-02  1.90373109E-01
  8.52161486E-01  1.00000000E+00  1.00000000E+00  1.00000000E+00  1.96665025E-03
  1.52306019E-02  7.61269097E-02  2.60801033E-01  6.16462078E-01  2.21006028E-01
  1.14660081E-01  9.19999648E-01 -3.03068213E-03  1.00000000E+00  1.00000000E+00
  1.00000000E+00  2.54938145E-02  1.90373109E-01  8.52161486E-01  1.00000000E+00
  1.00000000E+00  1.00000000E+00  2.54938145E-02  1.90373109E-01  8.52161486E-01
  1.00000000E+00  1.00000000E+00  1.00000000E+00  2.54938145E-02  1.90373109E-01
  8.52161486E-01  1.00000000E+00  1.00000000E+00  1.00000000E+00
P(S=P) Contraction coefficients            R   N=         174
  0.00000000E+00  0.00000000E+00  0.00000000E+00  0.00000000E+00  0.00000000E+00
  0.00000000E+00  4.02486927E-02  2.37593957E-01  8.15853851E-01  1.00000000E+00
  1.00000000E+00  0.00000000E+00  0.00000000E+00  0.00000000E+00  0.00000000E+00
  0.00000000E+00  0.00000000E+00  0.00000000E+00  4.02486927E-02  2.37593957E-01
  8.15853851E-01  1.00000000E+00  1.00000000E+00  0.00000000E+00  0.00000000E+00
  0.00000000E+00  0.00000000E+00  0.00000000E+00  0.00000000E+00  0.00000000E+00
  4.02486927E-02  2.37593957E-01  8.15853851E-01  1.00000000E+00  1.00000000E+00
  0.00000000E+00  0.00000000E+00  0.00000000E+00  0.00000000E+00  0.00000000E+00
  0.00000000E+00  0.00000000E+00  4.02486927E-02  2.37593957E-01  8.15853851E-01
  1.00000000E+00  1.00000000E+00  0.00000000E+00  0.00000000E+00  0.00000000E+00
  0.00000000E+00  0.00000000E+00  0.00000000E+00  0.00000000E+00  4.02486927E-02
  2.37593957E-01  8.15853851E-01  1.00000000E+00  1.00000000E+00  0.00000000E+00
  0.00000000E+00  0.00000000E+00  0.00000000E+00  0.00000000E+00  0.00000000E+00
  0.00000000E+00  4.02486927E-02  2.37593957E-01  8.15853851E-01  1.00000000E+00
  1.00000000E+00  0.00000000E+00  0.00000000E+00  0.00000000E+00  0.00000000E+00
  0.00000000E+00  0.00000000E+00  0.00000000E+00  0.00000000E+00  0.00000000E+00
  0.00000000E+00  0.00000000E+00  0.00000000E+00  0.00000000E+00  3.65113974E-02
  2.37152983E-01  8.19701941E-01  1.00000000E+00  1.00000000E+00  0.00000000E+00
  0.00000000E+00  0.00000000E+00  0.00000000E+00  0.00000000E+00  0.00000000E+00
  0.00000000E+00  3.65113974E-02  2.37152983E-01  8.19701941E-01  1.00000000E+00
  1.00000000E+00  0.00000000E+00  0.00000000E+00  0.00000000E+00  0.00000000E+00
  0.00000000E+00  0.00000000E+00  0.00000000E+00  0.00000000E+00  0.00000000E+00
  0.00000000E+00  0.00000000E+00  0.00000000E+00  0.00000000E+00  4.02486927E-02
  2.37593957E-01  8.15853851E-01  1.00000000E+00  1.00000000E+00  0.00000000E+00
  0.00000000E+00  0.00000000E+00  0.00000000E+00  0.00000000E+00  0.00000000E+00
  0.00000000E+00  0.00000000E+00  0.00000000E+00  0.00000000E+00  0.00000000E+00
  0.00000000E+00  0.00000000E+00  0.00000000E+00  0.00000000E+00  0.00000000E+00
  0.00000000E+00  0.00000000E+00  0.00000000E+00  0.00000000E+00  0.00000000E+00
  0.00000000E+00  0.00000000E+00  0.00000000E+00  0.00000000E+00  0.00000000E+00
  0.00000000E+00  0.00000000E+00  0.00000000E+00  0.00000000E+00  0.00000000E+00
  4.02486927E-02  2.37593957E-01  8.15853851E-01  1.00000000E+00  1.00000000E+00
  0.00000000E+00  0.00000000E+00  0.00000000E+00  0.00000000E+00  0.00000000E+00
  0.00000000E+00  0.00000000E+00  0.00000000E+00  0.00000000E+00  0.00000000E+00
  0.00000000E+00  0.00000000E+00  0.00000000E+00  0.00000000E+00  0.00000000E+00
  0.00000000E+00  0.00000000E+00  0.00000000E+00  0.00000000E+00
Coordinates of each shell                  R   N=         258
 -1.62991764E+00  2.31988961E+00 -1.28475490E-04 -1.62991764E+00  2.31988961E+00
 -1.28475490E-04 -1.62991764E+00  2.31988961E+00 -1.28475490E-04 -1.62991764E+00
  2.31988961E+00 -1.28475490E-04 -1.62991764E+00  2.31988961E+00 -1.28475490E-04
  9.63943120E-01  2.26096832E+00 -9.44604196E-05  9.63943120E-01  2.26096832E+00
 -9.44604196E-05  9.63943120E-01  2.26096832E+00 -9.44604196E-05  9.63943120E-01
  2.26096832E+00 -9.44604196E-05  9.63943120E-01  2.26096832E+00 -9.44604196E-05
  2.21200742E+00 -1.77144808E-01 -1.85167274E-04  2.21200742E+00 -1.77144808E-01
 -1.85167274E-04  2.21200742E+00 -1.77144808E-01 -1.85167274E-04  2.21200742E+00
 -1.77144808E-01 -1.85167274E-04  2.21200742E+00 -1.77144808E-01 -1.85167274E-04
  6.18309109E-01 -2.43589499E+00  2.64820524E-05  6.18309109E-01 -2.43589499E+00
  2.64820524E-05  6.18309109E-01 -2.43589499E+00  2.64820524E-05  6.18309109E-01
 -2.43589499E+00  2.64820524E-05  6.18309109E-01 -2.43589499E+00  2.64820524E-05
 -1.99499506E+00 -2.28185434E+00  2.83717785E-05 -1.99499506E+00 -2.28185434E+00
  2.83717785E-05 -1.99499506E+00 -2.28185434E+00  2.83717785E-05 -1.99499506E+00
 -2.28185434E+00  2.83717785E-05 -1.99499506E+00 -2.28185434E+00  2.83717785E-05
 -3.14344622E+00  9.17341011E-02 -9.63501457E-05 -3.14344622E+00  9.17341011E-02
 -9.63501457E-05 -3.14344622E+00  9.17341011E-02 -9.63501457E-05 -3.14344622E+00
  9.17341011E-02 -9.63501457E-05 -3.14344622E+00  9.17341011E-02 -9.63501457E-05
 -3.10864254E+00 -4.00027695E+00  1.02071097E-04 -3.10864254E+00 -4.00027695E+00
  1.02071097E-04 -3.10864254E+00 -4.00027695E+00  1.02071097E-04 -3.10864254E+00
 -4.00027695E+00  1.02071097E-04  1.85092298E+00 -4.63406581E+00  8.88430145E-05
  1.85092298E+00 -4.63406581E+00  8.88430145E-05  1.85092298E+00 -4.63406581E+00
  8.88430145E-05  1.85092298E+00 -4.63406581E+00  8.88430145E-05  1.85092298E+00
 -4.63406581E+00  8.88430145E-05  4.56114491E+00 -4.89867687E-01  3.15610149E-04
  4.56114491E+00 -4.89867687E-01  3.15610149E-04  4.56114491E+00 -4.89867687E-01
  3.15610149E-04  4.56114491E+00 -4.89867687E-01  3.15610149E-04  4.56114491E+00
 -4.89867687E-01  3.15610149E-04  3.64052189E+00 -4.15252177E+00 -1.20916585E-04
  3.64052189E+00 -4.15252177E+00 -1.20916585E-04  3.64052189E+00 -4.15252177E+00
 -1.20916585E-04  3.64052189E+00 -4.15252177E+00 -1.20916585E-04  2.58510670E+00
  4.58501988E+00  3.80533891E-06  2.58510670E+00  4.58501988E+00  3.80533891E-06
  2.58510670E+00  4.58501988E+00  3.80533891E-06  2.58510670E+00  4.58501988E+00
  3.80533891E-06  2.58510670E+00  4.58501988E+00  3.80533891E-06  1.43968298E+00
  6.29973641E+00 -8.69015151E-05  1.43968298E+00  6.29973641E+00 -8.69015151E-05
  1.43968298E+00  6.29973641E+00 -8.69015151E-05  1.43968298E+00  6.29973641E+00
 -8.69015151E-05  3.82622212E+00  4.61142709E+00  1.65308331E+00  3.82622212E+00
  4.61142709E+00  1.65308331E+00  3.82622212E+00  4.61142709E+00  1.65308331E+00
  3.82622212E+00  4.61142709E+00  1.65308331E+00  3.82645456E+00  4.61139119E+00
 -1.65289806E+00  3.82645456E+00  4.61139119E+00 -1.65289806E+00  3.82645456E+00
  4.61139119E+00 -1.65289806E+00  3.82645456E+00  4.61139119E+00 -1.65289806E+00
 -2.58673160E+00  4.13572919E+00 -1.43593299E-04 -2.58673160E+00  4.13572919E+00
 -1.43593299E-04 -2.58673160E+00  4.13572919E+00 -1.43593299E-04 -2.58673160E+00
  4.13572919E+00 -1.43593299E-04 -5.97492117E+00  3.39395530E-01 -6.04453493E-05
 -5.97492117E+00  3.39395530E-01 -6.04453493E-05 -5.97492117E+00  3.39395530E-01
 -6.04453493E-05 -5.97492117E+00  3.39395530E-01 -6.04453493E-05 -5.97492117E+00
  3.39395530E-01 -6.04453493E-05 -6.62476223E+00  1.38747156E+00  1.66203116E+00
 -6.62476223E+00  1.38747156E+00  1.66203116E+00 -6.62476223E+00  1.38747156E+00
  1.66203116E+00 -6.62476223E+00  1.38747156E+00  1.66203116E+00 -6.62478491E+00
  1.38772856E+00 -1.66197631E+00 -6.62478491E+00  1.38772856E+00 -1.66197631E+00
 -6.62478491E+00  1.38772856E+00 -1.66197631E+00 -6.62478491E+00  1.38772856E+00
 -1.66197631E+00 -6.90102088E+00 -1.50189705E+00 -1.88946726E-04 -6.90102088E+00
 -1.50189705E+00 -1.88946726E-04 -6.90102088E+00 -1.50189705E+00 -1.88946726E-04
 -6.90102088E+00 -1.50189705E+00 -1.88946726E-04
Num ILSW                                   I              100
ILSW                                       I   N=         100
           1           0           0           0           2           0
           0           0           0           0         402          -1
           5           0           0           0           0           0
           0           0           1           0           0           0
           1           0           0           0           0           0
           0           0      100000           0          -1           0
           0           0           0           0           0           0
           0           0           0           1           0           0
           0 -2000000000           1           0           0           0
           0           0           4          52           0           0
           0           0           5           0           0           0
           0           0           0           0           0           1
           0           0           0           0           0           0
           0           0           0           0           0           0
           0           0           0           0           0           0
           0           0           0           0           0           0
           0           0           0           0
Num RLSW                                   I               52
RLSW                                       R   N=          52
  8.00000000E-01  7.20000000E-01  1.00000000E+00  8.10000000E-01  2.00000000E-01
  0.00000000E+00  0.00000000E+00  1.00000000E+00  0.00000000E+00  0.00000000E+00
  0.00000000E+00  0.00000000E+00  1.00000000E+00  0.00000000E+00  0.00000000E+00
  0.00000000E+00  0.00000000E+00  1.00000000E+00  0.00000000E+00  0.00000000E+00
  0.00000000E+00  0.00000000E+00  1.00000000E+00  0.00000000E+00  0.00000000E+00
  0.00000000E+00  0.00000000E+00  1.00000000E+00  0.00000000E+00  0.00000000E+00
  0.00000000E+00  0.00000000E+00  1.00000000E+00  0.00000000E+00  0.00000000E+00
  0.00000000E+00  0.00000000E+00  0.00000000E+00  1.00000000E+00  1.00000000E+00
  0.00000000E+00  1.00000000E+00  0.00000000E+00  0.00000000E+00  0.00000000E+00
  0.00000000E+00  0.00000000E+00  0.00000000E+00  0.00000000E+00  0.00000000E+00
  0.00000000E+00  0.00000000E+00
MxBond                                     I                4
NBond                                      I   N=          19
           3           3           3           3           3           3
           1           2           1           1           4           1
           1           1           1           4           1           1
           1
IBond                                      I   N=          76
           2           6          15           0           1           3
          11           0           2           4           9           0
           3           5           8           0           4           6
           7           0           1           5          16           0
           5           0           0           0           4          10
           0           0           3           0           0           0
           8           0           0           0           2          12
          13          14          11           0           0           0
          11           0           0           0          11           0
           0           0           1           0           0           0
           6          17          18          19          16           0
           0           0          16           0           0           0
          16           0           0           0
RBond                                      R   N=          76
  2.00000000E+00  1.50000000E+00  1.00000000E+00  0.00000000E+00  2.00000000E+00
  1.00000000E+00  1.00000000E+00  0.00000000E+00  1.00000000E+00  1.00000000E+00
  2.00000000E+00  0.00000000E+00  1.00000000E+00  2.00000000E+00  1.50000000E+00
  0.00000000E+00  2.00000000E+00  1.50000000E+00  1.00000000E+00  0.00000000E+00
  1.50000000E+00  1.50000000E+00  1.00000000E+00  0.00000000E+00  1.00000000E+00
  0.00000000E+00  0.00000000E+00  0.00000000E+00  1.50000000E+00  1.00000000E+00
  0.00000000E+00  0.00000000E+00  2.00000000E+00  0.00000000E+00  0.00000000E+00
  0.00000000E+00  1.00000000E+00  0.00000000E+00  0.00000000E+00  0.00000000E+00
  1.00000000E+00  1.00000000E+00  1.00000000E+00  1.00000000E+00  1.00000000E+00
  0.00000000E+00  0.00000000E+00  0.00000000E+00  1.00000000E+00  0.00000000E+00
  0.00000000E+00  0.00000000E+00  1.00000000E+00  0.00000000E+00  0.00000000E+00
  0.00000000E+00  1.00000000E+00  0.00000000E+00  0.00000000E+00  0.00000000E+00
  1.00000000E+00  1.00000000E+00  1.00000000E+00  1.00000000E+00  1.00000000E+00
  0.00000000E+00  0.00000000E+00  0.00000000E+00  1.00000000E+00  0.00000000E+00
  0.00000000E+00  0.00000000E+00  1.00000000E+00  0.00000000E+00  0.00000000E+00
  0.00000000E+00
Virial Ratio                               R      2.003805262531927E+00
SCF Energy                                 R     -4.608279431780764E+02
Total Energy                               R     -4.608279431780764E+02
S**2                                       R      7.695097344400637E-01
S**2 after annihilation                    R      7.502596665754410E-01
RMS Density                                R      3.740971300182564E-09