 Entering Link 1 = D:\Gaussian\G16W\l1.exe PID=     30472.
  
 Copyright (c) 1988,1990,1992,1993,1995,1998,2003,2009,2016,
            Gaussian, Inc.  All Rights Reserved.
  
 This is part of the Gaussian(R) 16 program.  It is based on
 the Gaussian(R) 09 system (copyright 2009, Gaussian, Inc.),
 the Gaussian(R) 03 system (copyright 2003, Gaussian, Inc.),
 the Gaussian(R) 98 system (copyright 1998, Gaussian, Inc.),
 the Gaussian(R) 94 system (copyright 1995, Gaussian, Inc.),
 the Gaussian 92(TM) system (copyright 1992, Gaussian, Inc.),
 the Gaussian 90(TM) system (copyright 1990, Gaussian, Inc.),
 the Gaussian 88(TM) system (copyright 1988, Gaussian, Inc.),
 the Gaussian 86(TM) system (copyright 1986, Carnegie Mellon
 University), and the Gaussian 82(TM) system (copyright 1983,
 Carnegie Mellon University). Gaussian is a federally registered
 trademark of Gaussian, Inc.
  
 This software contains proprietary and confidential information,
 including trade secrets, belonging to Gaussian, Inc.
  
 This software is provided under written license and may be
 used, copied, transmitted, or stored only in accord with that
 written license.
  
 The following legend is applicable only to US Government
 contracts under FAR:
  
                    RESTRICTED RIGHTS LEGEND
  
 Use, reproduction and disclosure by the US Government is
 subject to restrictions as set forth in subparagraphs (a)
 and (c) of the Commercial Computer Software - Restricted
 Rights clause in FAR 52.227-19.
  
 Gaussian, Inc.
 340 Quinnipiac St., Bldg. 40, Wallingford CT 06492
  
  
 ---------------------------------------------------------------
 Warning -- This program may not be used in any manner that
 competes with the business of Gaussian, Inc. or will provide
 assistance to any competitor of Gaussian, Inc.  The licensee
 of this program is prohibited from giving any competitor of
 Gaussian, Inc. access to this program.  By using this program,
 the user acknowledges that Gaussian, Inc. is engaged in the
 business of creating and licensing software in the field of
 computational chemistry and represents and warrants to the
 licensee that it is not a competitor of Gaussian, Inc. and that
 it will not use this program in any manner prohibited above.
 ---------------------------------------------------------------
  

 Cite this work as:
 Gaussian 16, Revision A.03,
 M. J. Frisch, G. W. Trucks, H. B. Schlegel, G. E. Scuseria, 
 M. A. Robb, J. R. Cheeseman, G. Scalmani, V. Barone, 
 G. A. Petersson, H. Nakatsuji, X. Li, M. Caricato, A. V. Marenich, 
 J. Bloino, B. G. Janesko, R. Gomperts, B. Mennucci, H. P. Hratchian, 
 J. V. Ortiz, A. F. Izmaylov, J. L. Sonnenberg, D. Williams-Young, 
 F. Ding, F. Lipparini, F. Egidi, J. Goings, B. Peng, A. Petrone, 
 T. Henderson, D. Ranasinghe, V. G. Zakrzewski, J. Gao, N. Rega, 
 G. Zheng, W. Liang, M. Hada, M. Ehara, K. Toyota, R. Fukuda, 
 J. Hasegawa, M. Ishida, T. Nakajima, Y. Honda, O. Kitao, H. Nakai, 
 T. Vreven, K. Throssell, J. A. Montgomery, Jr., J. E. Peralta, 
 F. Ogliaro, M. J. Bearpark, J. J. Heyd, E. N. Brothers, K. N. Kudin, 
 V. N. Staroverov, T. A. Keith, R. Kobayashi, J. Normand, 
 K. Raghavachari, A. P. Rendell, J. C. Burant, S. S. Iyengar, 
 J. Tomasi, M. Cossi, J. M. Millam, M. Klene, C. Adamo, R. Cammi, 
 J. W. Ochterski, R. L. Martin, K. Morokuma, O. Farkas, 
 J. B. Foresman, and D. J. Fox, Gaussian, Inc., Wallingford CT, 2016.
 
 ******************************************
 Gaussian 16:  EM64W-G16RevA.03 17-Dec-2016
                02-Dec-2025 
 ******************************************
 %nprocshared=14
 Will use up to   14 processors via shared memory.
 %mem=80GB
 %chk=SR-10.chk
 ---------------------------------------------------------
 # ub3lyp/6-311g(d,p) geom=connectivity temperature=823.15
 ---------------------------------------------------------
 1/38=1,57=2,112=823150,172=1/1;
 2/12=2,17=6,18=5,40=1/2;
 3/5=4,6=6,7=101,11=2,25=1,30=1,74=-5,116=2/1,2,3;
 4//1;
 5/5=2,38=5/2;
 6/7=2,8=2,9=2,10=2,28=1/1;
 99/5=1,9=1/99;
 -------------------
 Title Card Required
 -------------------
 Symbolic Z-matrix:
 Charge =  0 Multiplicity = 2
 C                    -0.86252   1.22763  -0.00007 
 C                     0.5101    1.19645  -0.00005 
 C                     1.17054  -0.09374  -0.0001 
 C                     0.3272   -1.28902   0.00001 
 C                    -1.05571  -1.20751   0.00002 
 C                    -1.66344   0.04854  -0.00005 
 H                    -1.64502  -2.11686   0.00005 
 O                     0.97947  -2.45224   0.00005 
 O                     2.41365  -0.25923   0.00017 
 H                     1.92648  -2.19742  -0.00006 
 C                     1.36798   2.42629   0. 
 H                     0.76185   3.33368  -0.00005 
 H                     2.02475   2.44026   0.87477 
 H                     2.02487   2.44024  -0.87468 
 H                    -1.36884   2.18853  -0.00008 
 C                    -3.16179   0.1796   -0.00003 
 H                    -3.50567   0.73422   0.87951 
 H                    -3.50569   0.73436  -0.87948 
 H                    -3.65186  -0.79477  -0.0001 
 
                          Input orientation:                          
 ---------------------------------------------------------------------
 Center     Atomic      Atomic             Coordinates (Angstroms)
 Number     Number       Type             X           Y           Z
 ---------------------------------------------------------------------
      1          6           0       -0.862515    1.227633   -0.000068
      2          6           0        0.510097    1.196453   -0.000050
      3          6           0        1.170544   -0.093741   -0.000098
      4          6           0        0.327195   -1.289020    0.000014
      5          6           0       -1.055706   -1.207505    0.000015
      6          6           0       -1.663440    0.048544   -0.000051
      7          1           0       -1.645023   -2.116855    0.000054
      8          8           0        0.979466   -2.452242    0.000047
      9          8           0        2.413654   -0.259227    0.000167
     10          1           0        1.926481   -2.197420   -0.000064
     11          6           0        1.367980    2.426288    0.000002
     12          1           0        0.761848    3.333677   -0.000046
     13          1           0        2.024750    2.440262    0.874774
     14          1           0        2.024873    2.440243   -0.874676
     15          1           0       -1.368839    2.188534   -0.000076
     16          6           0       -3.161792    0.179601   -0.000032
     17          1           0       -3.505673    0.734219    0.879509
     18          1           0       -3.505685    0.734355   -0.879480
     19          1           0       -3.651863   -0.794769   -0.000100
 ---------------------------------------------------------------------
                    Distance matrix (angstroms):
                    1          2          3          4          5
     1  C    0.000000
     2  C    1.372966   0.000000
     3  C    2.424739   1.449411   0.000000
     4  C    2.783694   2.492194   1.462850   0.000000
     5  C    2.442789   2.868929   2.489309   1.385301   0.000000
     6  C    1.425388   2.458039   2.837554   2.398271   1.395349
     7  H    3.434810   3.952537   3.467046   2.138914   1.083611
     8  O    4.115140   3.678761   2.366229   1.333620   2.385644
     9  O    3.597782   2.396358   1.254077   2.326754   3.596622
    10  H    4.416954   3.677570   2.235376   1.839268   3.142192
    11  C    2.532169   1.499486   2.527751   3.858335   4.367918
    12  H    2.659695   2.152000   3.451699   4.643086   4.891404
    13  H    3.251479   2.146288   2.813581   4.189802   4.853928
    14  H    3.251518   2.146283   2.813510   4.189820   4.853979
    15  H    1.086138   2.124765   3.414271   3.869097   3.410445
    16  C    2.526865   3.810086   4.340950   3.785483   2.521837
    17  H    2.829028   4.136870   4.829724   4.422430   3.247482
    18  H    2.828964   4.136839   4.829718   4.422502   3.247573
    19  H    3.445370   4.613770   4.873094   4.009637   2.628761
                    6          7          8          9         10
     6  C    0.000000
     7  H    2.165477   0.000000
     8  O    3.638528   2.645832   0.000000
     9  O    4.088694   4.463591   2.620345   0.000000
    10  H    4.234606   3.572413   0.980700   1.998482   0.000000
    11  C    3.852684   5.451453   4.893976   2.881913   4.657317
    12  H    4.083396   5.958299   5.790010   3.954418   5.652380
    13  H    4.482006   5.916053   5.078815   2.864162   4.720497
    14  H    4.482058   5.916116   5.078821   2.864200   4.720439
    15  H    2.160173   4.314238   5.201090   4.505418   5.485957
    16  C    1.504073   2.752144   4.906793   5.592689   5.616115
    17  H    2.153508   3.516260   5.571666   6.066186   6.235098
    18  H    2.153508   3.516396   5.571763   6.066264   6.235151
    19  H    2.159862   2.403189   4.918986   6.089113   5.751987
                   11         12         13         14         15
    11  C    0.000000
    12  H    1.091215   0.000000
    13  H    1.093969   1.777195   0.000000
    14  H    1.093967   1.777198   1.749450   0.000000
    15  H    2.747127   2.418921   3.513570   3.513625   0.000000
    16  C    5.056326   5.034198   5.725041   5.725120   2.692674
    17  H    5.233462   5.073710   5.787589   6.047696   2.730341
    18  H    5.233425   5.073630   6.047581   5.787672   2.730220
    19  H    5.964397   6.043584   6.592023   6.592080   3.756634
                   16         17         18         19
    16  C    0.000000
    17  H    1.095193   0.000000
    18  H    1.095191   1.758989   0.000000
    19  H    1.090672   1.769997   1.769999   0.000000
 Stoichiometry    C8H9O2(2)
 Framework group  C1[X(C8H9O2)]
 Deg. of freedom    51
 Full point group                 C1      NOp   1
 Largest Abelian subgroup         C1      NOp   1
 Largest concise Abelian subgroup C1      NOp   1
                         Standard orientation:                         
 ---------------------------------------------------------------------
 Center     Atomic      Atomic             Coordinates (Angstroms)
 Number     Number       Type             X           Y           Z
 ---------------------------------------------------------------------
      1          6           0       -0.862515    1.227633   -0.000068
      2          6           0        0.510097    1.196453   -0.000050
      3          6           0        1.170544   -0.093741   -0.000098
      4          6           0        0.327195   -1.289020    0.000014
      5          6           0       -1.055706   -1.207505    0.000015
      6          6           0       -1.663440    0.048544   -0.000051
      7          1           0       -1.645023   -2.116855    0.000054
      8          8           0        0.979466   -2.452242    0.000047
      9          8           0        2.413654   -0.259227    0.000167
     10          1           0        1.926481   -2.197420   -0.000064
     11          6           0        1.367980    2.426288    0.000002
     12          1           0        0.761847    3.333677   -0.000046
     13          1           0        2.024750    2.440262    0.874774
     14          1           0        2.024873    2.440243   -0.874676
     15          1           0       -1.368839    2.188534   -0.000076
     16          6           0       -3.161792    0.179600   -0.000032
     17          1           0       -3.505673    0.734218    0.879509
     18          1           0       -3.505685    0.734354   -0.879480
     19          1           0       -3.651863   -0.794770   -0.000100
 ---------------------------------------------------------------------
 Rotational constants (GHZ):           1.7878178           1.3098515           0.7630600
 Standard basis: 6-311G(d,p) (5D, 7F)
 There are   244 symmetry adapted cartesian basis functions of A   symmetry.
 There are   234 symmetry adapted basis functions of A   symmetry.
   234 basis functions,   392 primitive gaussians,   244 cartesian basis functions
    37 alpha electrons       36 beta electrons
       nuclear repulsion energy       505.9615208771 Hartrees.
 NAtoms=   19 NActive=   19 NUniq=   19 SFac= 1.00D+00 NAtFMM=   60 NAOKFM=F Big=F
 Integral buffers will be    131072 words long.
 Raffenetti 2 integral format.
 Two-electron integral symmetry is turned on.
 One-electron integrals computed using PRISM.
 NBasis=   234 RedAO= T EigKep=  2.07D-04  NBF=   234
 NBsUse=   234 1.00D-06 EigRej= -1.00D+00 NBFU=   234
 ExpMin= 1.03D-01 ExpMax= 8.59D+03 ExpMxC= 1.30D+03 IAcc=3 IRadAn=         5 AccDes= 0.00D+00
 Harris functional with IExCor=  402 and IRadAn=       5 diagonalized for initial guess.
 HarFok:  IExCor=  402 AccDes= 0.00D+00 IRadAn=         5 IDoV= 1 UseB2=F ITyADJ=14
 ICtDFT=  3500011 ScaDFX=  1.000000  1.000000  1.000000  1.000000
 FoFCou: FMM=F IPFlag=           0 FMFlag=      100000 FMFlg1=           0
         NFxFlg=           0 DoJE=T BraDBF=F KetDBF=T FulRan=T
         wScrn=  0.000000 ICntrl=       500 IOpCl=  0 I1Cent=   200000004 NGrid=           0
         NMat0=    1 NMatS0=      1 NMatT0=    0 NMatD0=    1 NMtDS0=    0 NMtDT0=    0
 Petite list used in FoFCou.
 Initial guess <Sx>= 0.0000 <Sy>= 0.0000 <Sz>= 0.5000 <S**2>= 0.7500 S= 0.5000
 Requested convergence on RMS density matrix=1.00D-08 within 128 cycles.
 Requested convergence on MAX density matrix=1.00D-06.
 Requested convergence on             energy=1.00D-06.
 No special actions if energy rises.
 Integral accuracy reduced to 1.0D-05 until final iterations.
 Initial convergence to 1.0D-05 achieved.  Increase integral accuracy.
 SCF Done:  E(UB3LYP) =  -460.827943178     A.U. after   19 cycles
            NFock= 19  Conv=0.37D-08     -V/T= 2.0038
 <Sx>= 0.0000 <Sy>= 0.0000 <Sz>= 0.5000 <S**2>= 0.7695 S= 0.5097
 <L.S>= 0.000000000000E+00
 Annihilation of the first spin contaminant:
 S**2 before annihilation     0.7695,   after     0.7503

 **********************************************************************

            Population analysis using the SCF density.

 **********************************************************************

 Orbital symmetries:
 Alpha Orbitals:
       Occupied  (A) (A) (A) (A) (A) (A) (A) (A) (A) (A) (A) (A)
                 (A) (A) (A) (A) (A) (A) (A) (A) (A) (A) (A) (A)
                 (A) (A) (A) (A) (A) (A) (A) (A) (A) (A) (A) (A)
                 (A)
       Virtual   (A) (A) (A) (A) (A) (A) (A) (A) (A) (A) (A) (A)
                 (A) (A) (A) (A) (A) (A) (A) (A) (A) (A) (A) (A)
                 (A) (A) (A) (A) (A) (A) (A) (A) (A) (A) (A) (A)
                 (A) (A) (A) (A) (A) (A) (A) (A) (A) (A) (A) (A)
                 (A) (A) (A) (A) (A) (A) (A) (A) (A) (A) (A) (A)
                 (A) (A) (A) (A) (A) (A) (A) (A) (A) (A) (A) (A)
                 (A) (A) (A) (A) (A) (A) (A) (A) (A) (A) (A) (A)
                 (A) (A) (A) (A) (A) (A) (A) (A) (A) (A) (A) (A)
                 (A) (A) (A) (A) (A) (A) (A) (A) (A) (A) (A) (A)
                 (A) (A) (A) (A) (A) (A) (A) (A) (A) (A) (A) (A)
                 (A) (A) (A) (A) (A) (A) (A) (A) (A) (A) (A) (A)
                 (A) (A) (A) (A) (A) (A) (A) (A) (A) (A) (A) (A)
                 (A) (A) (A) (A) (A) (A) (A) (A) (A) (A) (A) (A)
                 (A) (A) (A) (A) (A) (A) (A) (A) (A) (A) (A) (A)
                 (A) (A) (A) (A) (A) (A) (A) (A) (A) (A) (A) (A)
                 (A) (A) (A) (A) (A) (A) (A) (A) (A) (A) (A) (A)
                 (A) (A) (A) (A) (A)
 Beta  Orbitals:
       Occupied  (A) (A) (A) (A) (A) (A) (A) (A) (A) (A) (A) (A)
                 (A) (A) (A) (A) (A) (A) (A) (A) (A) (A) (A) (A)
                 (A) (A) (A) (A) (A) (A) (A) (A) (A) (A) (A) (A)
       Virtual   (A) (A) (A) (A) (A) (A) (A) (A) (A) (A) (A) (A)
                 (A) (A) (A) (A) (A) (A) (A) (A) (A) (A) (A) (A)
                 (A) (A) (A) (A) (A) (A) (A) (A) (A) (A) (A) (A)
                 (A) (A) (A) (A) (A) (A) (A) (A) (A) (A) (A) (A)
                 (A) (A) (A) (A) (A) (A) (A) (A) (A) (A) (A) (A)
                 (A) (A) (A) (A) (A) (A) (A) (A) (A) (A) (A) (A)
                 (A) (A) (A) (A) (A) (A) (A) (A) (A) (A) (A) (A)
                 (A) (A) (A) (A) (A) (A) (A) (A) (A) (A) (A) (A)
                 (A) (A) (A) (A) (A) (A) (A) (A) (A) (A) (A) (A)
                 (A) (A) (A) (A) (A) (A) (A) (A) (A) (A) (A) (A)
                 (A) (A) (A) (A) (A) (A) (A) (A) (A) (A) (A) (A)
                 (A) (A) (A) (A) (A) (A) (A) (A) (A) (A) (A) (A)
                 (A) (A) (A) (A) (A) (A) (A) (A) (A) (A) (A) (A)
                 (A) (A) (A) (A) (A) (A) (A) (A) (A) (A) (A) (A)
                 (A) (A) (A) (A) (A) (A) (A) (A) (A) (A) (A) (A)
                 (A) (A) (A) (A) (A) (A) (A) (A) (A) (A) (A) (A)
                 (A) (A) (A) (A) (A) (A)
 The electronic state is 2-A.
 Alpha  occ. eigenvalues --  -19.16585 -19.11407 -10.25401 -10.24413 -10.21259
 Alpha  occ. eigenvalues --  -10.19765 -10.18471 -10.18392 -10.18120 -10.17132
 Alpha  occ. eigenvalues --   -1.09535  -1.03181  -0.87099  -0.79559  -0.76637
 Alpha  occ. eigenvalues --   -0.70597  -0.67978  -0.62083  -0.59720  -0.54824
 Alpha  occ. eigenvalues --   -0.51041  -0.48797  -0.46169  -0.44188  -0.43656
 Alpha  occ. eigenvalues --   -0.43189  -0.42063  -0.41850  -0.41447  -0.38528
 Alpha  occ. eigenvalues --   -0.37969  -0.37953  -0.36129  -0.33409  -0.27635
 Alpha  occ. eigenvalues --   -0.25500  -0.20895
 Alpha virt. eigenvalues --   -0.01453  -0.01056   0.04049   0.05718   0.06884
 Alpha virt. eigenvalues --    0.07735   0.08684   0.09928   0.12229   0.12279
 Alpha virt. eigenvalues --    0.13240   0.16283   0.18928   0.19821   0.22583
 Alpha virt. eigenvalues --    0.24838   0.27776   0.27952   0.28571   0.29817
 Alpha virt. eigenvalues --    0.30589   0.32024   0.34590   0.35070   0.36313
 Alpha virt. eigenvalues --    0.37949   0.38081   0.40253   0.41749   0.44470
 Alpha virt. eigenvalues --    0.46121   0.46304   0.47948   0.48132   0.50895
 Alpha virt. eigenvalues --    0.51662   0.52467   0.53175   0.55202   0.55220
 Alpha virt. eigenvalues --    0.56352   0.57730   0.58049   0.59119   0.60768
 Alpha virt. eigenvalues --    0.61113   0.63382   0.63916   0.64493   0.65018
 Alpha virt. eigenvalues --    0.68120   0.74708   0.76169   0.77552   0.79473
 Alpha virt. eigenvalues --    0.80200   0.83752   0.85102   0.87554   0.90453
 Alpha virt. eigenvalues --    0.91182   0.91691   0.93079   0.95250   0.95475
 Alpha virt. eigenvalues --    0.97626   0.99231   1.00181   1.06764   1.06817
 Alpha virt. eigenvalues --    1.09554   1.11755   1.15741   1.20306   1.22787
 Alpha virt. eigenvalues --    1.31760   1.32362   1.35530   1.36726   1.38310
 Alpha virt. eigenvalues --    1.39038   1.42074   1.43825   1.45163   1.45167
 Alpha virt. eigenvalues --    1.46228   1.48391   1.49500   1.49974   1.52463
 Alpha virt. eigenvalues --    1.55734   1.55920   1.56283   1.56703   1.58560
 Alpha virt. eigenvalues --    1.62342   1.64064   1.66629   1.67037   1.68307
 Alpha virt. eigenvalues --    1.71933   1.73537   1.76603   1.77630   1.81038
 Alpha virt. eigenvalues --    1.81074   1.86077   1.86404   1.88572   1.90152
 Alpha virt. eigenvalues --    1.91745   1.96242   1.97838   2.00365   2.03570
 Alpha virt. eigenvalues --    2.04936   2.08512   2.10268   2.12779   2.18023
 Alpha virt. eigenvalues --    2.19559   2.20636   2.23406   2.27786   2.32209
 Alpha virt. eigenvalues --    2.35150   2.35239   2.37269   2.42309   2.43485
 Alpha virt. eigenvalues --    2.44992   2.48047   2.49468   2.49534   2.51650
 Alpha virt. eigenvalues --    2.53774   2.55452   2.56370   2.58853   2.61240
 Alpha virt. eigenvalues --    2.62938   2.65298   2.66596   2.69934   2.72518
 Alpha virt. eigenvalues --    2.80388   2.82560   2.84574   2.85532   2.87944
 Alpha virt. eigenvalues --    2.92195   2.92253   2.95416   2.98816   3.02957
 Alpha virt. eigenvalues --    3.07287   3.08432   3.14453   3.15116   3.17522
 Alpha virt. eigenvalues --    3.17863   3.29861   3.29976   3.38146   3.40414
 Alpha virt. eigenvalues --    3.51117   3.53797   3.58102   3.60420   3.66547
 Alpha virt. eigenvalues --    3.76494   3.77506   3.80490   3.81386   3.85128
 Alpha virt. eigenvalues --    3.99185   4.07498   4.08845   4.28734   4.32685
 Alpha virt. eigenvalues --    4.77266   4.78833   4.89067   5.08829   5.34336
 Alpha virt. eigenvalues --    5.61359   5.70786  23.49481  23.78619  23.87290
 Alpha virt. eigenvalues --   23.88570  23.93006  23.94604  24.09586  24.13976
 Alpha virt. eigenvalues --   49.88547  49.97100
  Beta  occ. eigenvalues --  -19.16311 -19.10487 -10.25025 -10.24395 -10.20807
  Beta  occ. eigenvalues --  -10.19534 -10.18536 -10.18414 -10.18293 -10.17146
  Beta  occ. eigenvalues --   -1.08896  -1.01635  -0.86473  -0.79130  -0.76038
  Beta  occ. eigenvalues --   -0.70541  -0.67377  -0.61727  -0.59269  -0.54472
  Beta  occ. eigenvalues --   -0.50758  -0.48532  -0.44574  -0.43750  -0.42979
  Beta  occ. eigenvalues --   -0.42777  -0.41560  -0.41284  -0.41254  -0.38323
  Beta  occ. eigenvalues --   -0.37774  -0.35851  -0.35146  -0.31479  -0.26773
  Beta  occ. eigenvalues --   -0.24761
  Beta virt. eigenvalues --   -0.12811   0.00215   0.01339   0.04060   0.05775
  Beta virt. eigenvalues --    0.07029   0.07735   0.08739   0.10520   0.12300
  Beta virt. eigenvalues --    0.12383   0.13268   0.17554   0.19325   0.20133
  Beta virt. eigenvalues --    0.22901   0.25188   0.28074   0.28114   0.28761
  Beta virt. eigenvalues --    0.29967   0.30773   0.32161   0.34700   0.35290
  Beta virt. eigenvalues --    0.36506   0.38168   0.38732   0.40565   0.42045
  Beta virt. eigenvalues --    0.44714   0.46432   0.46755   0.48179   0.48311
  Beta virt. eigenvalues --    0.51101   0.51798   0.53133   0.53378   0.55402
  Beta virt. eigenvalues --    0.55979   0.56424   0.57981   0.58109   0.59291
  Beta virt. eigenvalues --    0.60802   0.61351   0.63579   0.64442   0.64699
  Beta virt. eigenvalues --    0.65157   0.68384   0.74876   0.76481   0.77995
  Beta virt. eigenvalues --    0.79709   0.81361   0.83901   0.85249   0.87698
  Beta virt. eigenvalues --    0.90754   0.91298   0.92975   0.94162   0.95536
  Beta virt. eigenvalues --    0.95631   0.98496   0.99668   1.00445   1.06950
  Beta virt. eigenvalues --    1.07195   1.09922   1.11972   1.16695   1.20944
  Beta virt. eigenvalues --    1.23092   1.32127   1.32484   1.36008   1.36913
  Beta virt. eigenvalues --    1.38598   1.39164   1.42184   1.44001   1.45254
  Beta virt. eigenvalues --    1.45590   1.46342   1.48609   1.49910   1.50189
  Beta virt. eigenvalues --    1.52694   1.55981   1.56072   1.56714   1.57084
  Beta virt. eigenvalues --    1.58786   1.62648   1.64409   1.66772   1.67724
  Beta virt. eigenvalues --    1.68571   1.72335   1.73952   1.76858   1.77774
  Beta virt. eigenvalues --    1.81214   1.81792   1.86580   1.86583   1.89088
  Beta virt. eigenvalues --    1.90479   1.92049   1.96354   1.98112   2.00741
  Beta virt. eigenvalues --    2.03812   2.05302   2.08776   2.10356   2.12927
  Beta virt. eigenvalues --    2.18503   2.19810   2.21220   2.23494   2.28137
  Beta virt. eigenvalues --    2.32322   2.35248   2.35666   2.37348   2.42512
  Beta virt. eigenvalues --    2.43584   2.45202   2.48189   2.49657   2.50053
  Beta virt. eigenvalues --    2.52130   2.54387   2.55549   2.56684   2.59019
  Beta virt. eigenvalues --    2.61332   2.63040   2.65270   2.66798   2.70876
  Beta virt. eigenvalues --    2.72892   2.80505   2.83099   2.84825   2.87455
  Beta virt. eigenvalues --    2.88145   2.92337   2.94233   2.97045   2.99383
  Beta virt. eigenvalues --    3.03947   3.07608   3.09194   3.14839   3.16257
  Beta virt. eigenvalues --    3.17764   3.18002   3.30248   3.32084   3.38565
  Beta virt. eigenvalues --    3.40940   3.51349   3.54032   3.58386   3.60567
  Beta virt. eigenvalues --    3.67233   3.76671   3.77598   3.80557   3.81636
  Beta virt. eigenvalues --    3.85179   3.99431   4.07875   4.09177   4.29100
  Beta virt. eigenvalues --    4.33050   4.78916   4.79424   4.92530   5.09572
  Beta virt. eigenvalues --    5.34645   5.61932   5.71224  23.49695  23.78836
  Beta virt. eigenvalues --   23.87440  23.88743  23.93019  23.94765  24.09592
  Beta virt. eigenvalues --   24.14022  49.88887  49.97956
          Condensed to atoms (all electrons):
               1          2          3          4          5          6
     1  C    4.918060   0.485949   0.000152  -0.069701  -0.027016   0.431202
     2  C    0.485949   5.474776   0.204427  -0.037549  -0.054387  -0.017242
     3  C    0.000152   0.204427   4.975070   0.249063  -0.012563  -0.050497
     4  C   -0.069701  -0.037549   0.249063   5.089064   0.424828  -0.021536
     5  C   -0.027016  -0.054387  -0.012563   0.424828   4.923347   0.493350
     6  C    0.431202  -0.017242  -0.050497  -0.021536   0.493350   5.097974
     7  H    0.007747  -0.002223   0.010472  -0.033044   0.400155  -0.040772
     8  O   -0.000134   0.006118  -0.078962   0.391635  -0.053474   0.003535
     9  O    0.006743  -0.123979   0.619194  -0.105376   0.008915  -0.001215
    10  H   -0.000761   0.009562  -0.017352  -0.070389   0.007727  -0.000128
    11  C   -0.074043   0.326769  -0.059136   0.011685  -0.002237   0.009738
    12  H   -0.012150  -0.038609   0.008714   0.000069  -0.000082   0.000743
    13  H    0.001384  -0.032132  -0.006587   0.000533  -0.000040  -0.000246
    14  H    0.001382  -0.032134  -0.006589   0.000535  -0.000040  -0.000246
    15  H    0.421333  -0.034641   0.007586  -0.001760   0.007508  -0.053558
    16  C   -0.058591   0.005857  -0.000239   0.007488  -0.056573   0.361013
    17  H   -0.004147   0.000290   0.000044  -0.000398   0.001205  -0.037564
    18  H   -0.004149   0.000290   0.000044  -0.000398   0.001209  -0.037564
    19  H    0.006423  -0.000278  -0.000089   0.000830  -0.007077  -0.033298
               7          8          9         10         11         12
     1  C    0.007747  -0.000134   0.006743  -0.000761  -0.074043  -0.012150
     2  C   -0.002223   0.006118  -0.123979   0.009562   0.326769  -0.038609
     3  C    0.010472  -0.078962   0.619194  -0.017352  -0.059136   0.008714
     4  C   -0.033044   0.391635  -0.105376  -0.070389   0.011685   0.000069
     5  C    0.400155  -0.053474   0.008915   0.007727  -0.002237  -0.000082
     6  C   -0.040772   0.003535  -0.001215  -0.000128   0.009738   0.000743
     7  H    0.564525   0.003627  -0.000196  -0.001213   0.000076  -0.000002
     8  O    0.003627   7.743372  -0.017579   0.318158  -0.000091   0.000003
     9  O   -0.000196  -0.017579   7.901237   0.054047   0.015886   0.000241
    10  H   -0.001213   0.318158   0.054047   0.442825  -0.000250   0.000001
    11  C    0.000076  -0.000091   0.015886  -0.000250   4.803347   0.409878
    12  H   -0.000002   0.000003   0.000241   0.000001   0.409878   0.581808
    13  H    0.000002  -0.000003   0.004775  -0.000051   0.399030  -0.027705
    14  H    0.000002  -0.000003   0.004772  -0.000051   0.399039  -0.027706
    15  H   -0.000360   0.000014  -0.000138   0.000019  -0.011768   0.003486
    16  C   -0.010033  -0.000087  -0.000001   0.000028  -0.000187  -0.000035
    17  H    0.000212   0.000003   0.000000  -0.000001  -0.000004  -0.000002
    18  H    0.000212   0.000003   0.000000  -0.000001  -0.000004  -0.000002
    19  H    0.002733  -0.000016   0.000000   0.000003   0.000010   0.000002
              13         14         15         16         17         18
     1  C    0.001384   0.001382   0.421333  -0.058591  -0.004147  -0.004149
     2  C   -0.032132  -0.032134  -0.034641   0.005857   0.000290   0.000290
     3  C   -0.006587  -0.006589   0.007586  -0.000239   0.000044   0.000044
     4  C    0.000533   0.000535  -0.001760   0.007488  -0.000398  -0.000398
     5  C   -0.000040  -0.000040   0.007508  -0.056573   0.001205   0.001209
     6  C   -0.000246  -0.000246  -0.053558   0.361013  -0.037564  -0.037564
     7  H    0.000002   0.000002  -0.000360  -0.010033   0.000212   0.000212
     8  O   -0.000003  -0.000003   0.000014  -0.000087   0.000003   0.000003
     9  O    0.004775   0.004772  -0.000138  -0.000001   0.000000   0.000000
    10  H   -0.000051  -0.000051   0.000019   0.000028  -0.000001  -0.000001
    11  C    0.399030   0.399039  -0.011768  -0.000187  -0.000004  -0.000004
    12  H   -0.027705  -0.027706   0.003486  -0.000035  -0.000002  -0.000002
    13  H    0.560078  -0.029071   0.000004   0.000015  -0.000007   0.000004
    14  H   -0.029071   0.560082   0.000004   0.000015   0.000004  -0.000007
    15  H    0.000004   0.000004   0.580972  -0.004660   0.001149   0.001149
    16  C    0.000015   0.000015  -0.004660   4.802375   0.401527   0.401530
    17  H   -0.000007   0.000004   0.001149   0.401527   0.562444  -0.029713
    18  H    0.000004  -0.000007   0.001149   0.401530  -0.029713   0.562446
    19  H   -0.000001  -0.000001  -0.000005   0.408389  -0.025510  -0.025511
              19
     1  C    0.006423
     2  C   -0.000278
     3  C   -0.000089
     4  C    0.000830
     5  C   -0.007077
     6  C   -0.033298
     7  H    0.002733
     8  O   -0.000016
     9  O    0.000000
    10  H    0.000003
    11  C    0.000010
    12  H    0.000002
    13  H   -0.000001
    14  H   -0.000001
    15  H   -0.000005
    16  C    0.408389
    17  H   -0.025510
    18  H   -0.025511
    19  H    0.558940
          Atomic-Atomic Spin Densities.
               1          2          3          4          5          6
     1  C   -0.054574  -0.035623  -0.001966  -0.002217  -0.000025   0.035302
     2  C   -0.035623   0.202676   0.039261   0.004012   0.001391  -0.014880
     3  C   -0.001966   0.039261   0.010453   0.044748   0.001268  -0.004822
     4  C   -0.002217   0.004012   0.044748   0.284295   0.012061  -0.016627
     5  C   -0.000025   0.001391   0.001268   0.012061  -0.146724  -0.007552
     6  C    0.035302  -0.014880  -0.004822  -0.016627  -0.007552   0.346890
     7  H    0.000079  -0.000071   0.000060  -0.000276   0.000272   0.000074
     8  O    0.000022  -0.000239  -0.003132  -0.056808   0.000620   0.000482
     9  O    0.000322  -0.007942  -0.057844  -0.012958  -0.000236   0.000236
    10  H   -0.000007  -0.000182   0.000770   0.000543  -0.000358  -0.000030
    11  C    0.002641  -0.007617  -0.001153  -0.000550  -0.000011  -0.000063
    12  H    0.000115  -0.000302  -0.000011  -0.000014   0.000006   0.000001
    13  H    0.000479  -0.004304  -0.001153  -0.000129  -0.000001   0.000075
    14  H    0.000478  -0.004302  -0.001158  -0.000128  -0.000001   0.000076
    15  H    0.000509  -0.000175   0.000014   0.000005   0.000016   0.000071
    16  C    0.000142   0.000103  -0.000079  -0.000097   0.001025  -0.012114
    17  H   -0.000986   0.000200   0.000024   0.000092   0.000122  -0.007445
    18  H   -0.000982   0.000199   0.000024   0.000091   0.000123  -0.007444
    19  H   -0.000042  -0.000009   0.000006   0.000013   0.000256  -0.000635
               7          8          9         10         11         12
     1  C    0.000079   0.000022   0.000322  -0.000007   0.002641   0.000115
     2  C   -0.000071  -0.000239  -0.007942  -0.000182  -0.007617  -0.000302
     3  C    0.000060  -0.003132  -0.057844   0.000770  -0.001153  -0.000011
     4  C   -0.000276  -0.056808  -0.012958   0.000543  -0.000550  -0.000014
     5  C    0.000272   0.000620  -0.000236  -0.000358  -0.000011   0.000006
     6  C    0.000074   0.000482   0.000236  -0.000030  -0.000063   0.000001
     7  H    0.005194  -0.000014   0.000005   0.000038  -0.000004   0.000000
     8  O   -0.000014   0.137853   0.003284   0.001780   0.000003   0.000000
     9  O    0.000005   0.003284   0.411723  -0.001906   0.000033  -0.000010
    10  H    0.000038   0.001780  -0.001906  -0.004888   0.000020   0.000000
    11  C   -0.000004   0.000003   0.000033   0.000020  -0.014057   0.000666
    12  H    0.000000   0.000000  -0.000010   0.000000   0.000666  -0.000329
    13  H    0.000000   0.000004   0.000755   0.000004   0.003383  -0.000096
    14  H    0.000000   0.000004   0.000755   0.000004   0.003389  -0.000095
    15  H    0.000005   0.000000   0.000004  -0.000001   0.000319  -0.000017
    16  C    0.000051   0.000002   0.000000   0.000000   0.000002  -0.000002
    17  H   -0.000005  -0.000001   0.000000   0.000000  -0.000003   0.000000
    18  H   -0.000005  -0.000001   0.000000   0.000000  -0.000003   0.000000
    19  H   -0.000034   0.000000   0.000000   0.000000   0.000000   0.000000
              13         14         15         16         17         18
     1  C    0.000479   0.000478   0.000509   0.000142  -0.000986  -0.000982
     2  C   -0.004304  -0.004302  -0.000175   0.000103   0.000200   0.000199
     3  C   -0.001153  -0.001158   0.000014  -0.000079   0.000024   0.000024
     4  C   -0.000129  -0.000128   0.000005  -0.000097   0.000092   0.000091
     5  C   -0.000001  -0.000001   0.000016   0.001025   0.000122   0.000123
     6  C    0.000075   0.000076   0.000071  -0.012114  -0.007445  -0.007444
     7  H    0.000000   0.000000   0.000005   0.000051  -0.000005  -0.000005
     8  O    0.000004   0.000004   0.000000   0.000002  -0.000001  -0.000001
     9  O    0.000755   0.000755   0.000004   0.000000   0.000000   0.000000
    10  H    0.000004   0.000004  -0.000001   0.000000   0.000000   0.000000
    11  C    0.003383   0.003389   0.000319   0.000002  -0.000003  -0.000003
    12  H   -0.000096  -0.000095  -0.000017  -0.000002   0.000000   0.000000
    13  H    0.011074  -0.003345   0.000006   0.000000  -0.000006   0.000003
    14  H   -0.003345   0.011068   0.000006   0.000000   0.000003  -0.000006
    15  H    0.000006   0.000006   0.000730   0.000117  -0.000054  -0.000054
    16  C    0.000000   0.000000   0.000117  -0.023515   0.004615   0.004614
    17  H   -0.000006   0.000003  -0.000054   0.004615   0.024403  -0.006031
    18  H    0.000003  -0.000006  -0.000054   0.004614  -0.006031   0.024392
    19  H    0.000000   0.000000   0.000001   0.001044  -0.000160  -0.000158
              19
     1  C   -0.000042
     2  C   -0.000009
     3  C    0.000006
     4  C    0.000013
     5  C    0.000256
     6  C   -0.000635
     7  H   -0.000034
     8  O    0.000000
     9  O    0.000000
    10  H    0.000000
    11  C    0.000000
    12  H    0.000000
    13  H    0.000000
    14  H    0.000000
    15  H    0.000001
    16  C    0.001044
    17  H   -0.000160
    18  H   -0.000158
    19  H    0.000076
 Mulliken charges and spin densities:
               1          2
     1  C   -0.029683  -0.056334
     2  C   -0.140864   0.172194
     3  C    0.157248   0.025309
     4  C    0.164420   0.256056
     5  C   -0.054754  -0.137749
     6  C   -0.103690   0.311594
     7  H    0.098079   0.005369
     8  O   -0.316118   0.083859
     9  O   -0.367324   0.336220
    10  H    0.257829  -0.004214
    11  C   -0.227738  -0.013006
    12  H    0.101349  -0.000087
    13  H    0.130017   0.006749
    14  H    0.130011   0.006746
    15  H    0.083665   0.001503
    16  C   -0.257831  -0.024094
    17  H    0.130466   0.014768
    18  H    0.130461   0.014763
    19  H    0.114457   0.000356
 Sum of Mulliken charges =   0.00000   1.00000
 Mulliken charges and spin densities with hydrogens summed into heavy atoms:
               1          2
     1  C    0.053982  -0.054831
     2  C   -0.140864   0.172194
     3  C    0.157248   0.025309
     4  C    0.164420   0.256056
     5  C    0.043325  -0.132380
     6  C   -0.103690   0.311594
     8  O   -0.058289   0.079645
     9  O   -0.367324   0.336220
    11  C    0.133640   0.000402
    16  C    0.117553   0.005793
 Electronic spatial extent (au):  <R**2>=           1491.6918
 Charge=              0.0000 electrons
 Dipole moment (field-independent basis, Debye):
    X=             -2.8279    Y=              1.2530    Z=             -0.0004  Tot=              3.0930
 Quadrupole moment (field-independent basis, Debye-Ang):
   XX=            -58.3631   YY=            -57.0679   ZZ=            -60.2468
   XY=             -0.4438   XZ=             -0.0013   YZ=              0.0005
 Traceless Quadrupole moment (field-independent basis, Debye-Ang):
   XX=              0.1962   YY=              1.4914   ZZ=             -1.6875
   XY=             -0.4438   XZ=             -0.0013   YZ=              0.0005
 Octapole moment (field-independent basis, Debye-Ang**2):
  XXX=            -16.6403  YYY=              3.4633  ZZZ=              0.0016  XYY=              6.3570
  XXY=             -8.1070  XXZ=             -0.0025  XZZ=              6.9388  YZZ=             -2.9818
  YYZ=             -0.0007  XYZ=              0.0014
 Hexadecapole moment (field-independent basis, Debye-Ang**3):
 XXXX=          -1102.2390 YYYY=           -810.3109 ZZZZ=            -75.4447 XXXY=            -26.4053
 XXXZ=             -0.0167 YYYX=            -13.8356 YYYZ=              0.0077 ZZZX=             -0.0095
 ZZZY=              0.0063 XXYY=           -277.2341 XXZZ=           -189.4743 YYZZ=           -149.1415
 XXYZ=              0.0036 YYXZ=             -0.0045 ZZXY=             -5.5754
 N-N= 5.059615208771D+02 E-N=-2.087356874468D+03  KE= 4.590810193759D+02
                          Isotropic Fermi Contact Couplings
        Atom                 a.u.       MegaHertz       Gauss      10(-4) cm-1
     1  C(13)             -0.01334     -15.00042      -5.35252      -5.00360
     2  C(13)              0.00650       7.30960       2.60825       2.43822
     3  C(13)             -0.01954     -21.97112      -7.83984      -7.32878
     4  C(13)              0.01179      13.25145       4.72845       4.42021
     5  C(13)             -0.01972     -22.17031      -7.91092      -7.39522
     6  C(13)              0.02067      23.23805       8.29191       7.75138
     7  H(1)               0.00132       5.91427       2.11036       1.97279
     8  O(17)              0.01150      -6.96977      -2.48699      -2.32487
     9  O(17)              0.02816     -17.07254      -6.09191      -5.69479
    10  H(1)              -0.00143      -6.39469      -2.28179      -2.13304
    11  C(13)             -0.00555      -6.23697      -2.22550      -2.08043
    12  H(1)              -0.00001      -0.03528      -0.01259      -0.01177
    13  H(1)               0.00368      16.43170       5.86324       5.48103
    14  H(1)               0.00367      16.42678       5.86148       5.47938
    15  H(1)               0.00034       1.53079       0.54622       0.51062
    16  C(13)             -0.00990     -11.12498      -3.96967      -3.71090
    17  H(1)               0.00794      35.49232      12.66454      11.83896
    18  H(1)               0.00794      35.48153      12.66069      11.83536
    19  H(1)               0.00012       0.55435       0.19781       0.18491
 --------------------------------------------------------
       Center         ----  Spin Dipole Couplings  ----
                      3XX-RR        3YY-RR        3ZZ-RR
 --------------------------------------------------------
     1   Atom        0.020243      0.014462     -0.034705
     2   Atom       -0.099783     -0.091289      0.191072
     3   Atom       -0.008581     -0.042931      0.051512
     4   Atom       -0.160277     -0.152842      0.313119
     5   Atom        0.064342      0.056973     -0.121315
     6   Atom       -0.174817     -0.186700      0.361518
     7   Atom        0.005579     -0.000111     -0.005468
     8   Atom       -0.225874     -0.228015      0.453889
     9   Atom       -0.714651     -0.701880      1.416531
    10   Atom        0.013200     -0.000834     -0.012366
    11   Atom       -0.004625      0.004926     -0.000301
    12   Atom       -0.002174      0.004608     -0.002434
    13   Atom       -0.001358      0.004567     -0.003209
    14   Atom       -0.001357      0.004566     -0.003209
    15   Atom       -0.001091      0.005779     -0.004687
    16   Atom        0.002450     -0.008998      0.006548
    17   Atom        0.004402     -0.002305     -0.002097
    18   Atom        0.004402     -0.002304     -0.002098
    19   Atom        0.003952     -0.001429     -0.002523
 --------------------------------------------------------
                        XY            XZ            YZ
 --------------------------------------------------------
     1   Atom        0.002288      0.000005     -0.000004
     2   Atom       -0.000618      0.000017     -0.000037
     3   Atom       -0.004073     -0.000002     -0.000001
     4   Atom        0.001401      0.000043      0.000064
     5   Atom       -0.003740     -0.000003     -0.000008
     6   Atom        0.000146      0.000005      0.000026
     7   Atom       -0.003116      0.000000      0.000000
     8   Atom        0.002220      0.000072      0.000048
     9   Atom        0.000118     -0.000503      0.000066
    10   Atom        0.006380     -0.000003      0.000001
    11   Atom        0.000944      0.000000      0.000000
    12   Atom       -0.000174      0.000000      0.000000
    13   Atom        0.002168      0.001225      0.002654
    14   Atom        0.002168     -0.001225     -0.002655
    15   Atom        0.000659      0.000000      0.000000
    16   Atom        0.000171      0.000000      0.000000
    17   Atom       -0.002335     -0.002603      0.001776
    18   Atom       -0.002335      0.002603     -0.001776
    19   Atom        0.003149      0.000000      0.000000
 --------------------------------------------------------


 ---------------------------------------------------------------------------------
              Anisotropic Spin Dipole Couplings in Principal Axis System
 ---------------------------------------------------------------------------------

       Atom             a.u.   MegaHertz   Gauss  10(-4) cm-1        Axes

              Baa    -0.0347    -4.657    -1.662    -1.553 -0.0001  0.0001  1.0000
     1 C(13)  Bbb     0.0137     1.834     0.654     0.612 -0.3285  0.9445 -0.0001
              Bcc     0.0210     2.823     1.007     0.942  0.9445  0.3285  0.0001
 
              Baa    -0.0998   -13.396    -4.780    -4.468  0.9974  0.0722  0.0000
     2 C(13)  Bbb    -0.0912   -12.244    -4.369    -4.084 -0.0722  0.9974  0.0001
              Bcc     0.1911    25.640     9.149     8.553  0.0001 -0.0001  1.0000
 
              Baa    -0.0434    -5.825    -2.078    -1.943  0.1162  0.9932  0.0000
     3 C(13)  Bbb    -0.0081    -1.088    -0.388    -0.363  0.9932 -0.1162  0.0000
              Bcc     0.0515     6.912     2.467     2.306  0.0000  0.0000  1.0000
 
              Baa    -0.1605   -21.542    -7.687    -7.186  0.9838 -0.1792 -0.0001
     4 C(13)  Bbb    -0.1526   -20.476    -7.306    -6.830  0.1792  0.9838 -0.0002
              Bcc     0.3131    42.018    14.993    14.016  0.0001  0.0001  1.0000
 
              Baa    -0.1213   -16.279    -5.809    -5.430  0.0000  0.0000  1.0000
     5 C(13)  Bbb     0.0554     7.435     2.653     2.480  0.3861  0.9224  0.0000
              Bcc     0.0659     8.844     3.156     2.950  0.9224 -0.3861  0.0000
 
              Baa    -0.1867   -25.054    -8.940    -8.357 -0.0122  0.9999  0.0000
     6 C(13)  Bbb    -0.1748   -23.459    -8.371    -7.825  0.9999  0.0122  0.0000
              Bcc     0.3615    48.512    17.310    16.182  0.0000  0.0000  1.0000
 
              Baa    -0.0055    -2.918    -1.041    -0.973  0.0000  0.0001  1.0000
     7 H(1)   Bbb    -0.0015    -0.793    -0.283    -0.264  0.4036  0.9149 -0.0001
              Bcc     0.0070     3.710     1.324     1.238  0.9149 -0.4036  0.0000
 
              Baa    -0.2294    16.600     5.923     5.537 -0.5318  0.8469  0.0000
     8 O(17)  Bbb    -0.2245    16.243     5.796     5.418  0.8469  0.5318 -0.0001
              Bcc     0.4539   -32.843   -11.719   -10.955  0.0001  0.0001  1.0000
 
              Baa    -0.7147    51.712    18.452    17.249  1.0000 -0.0093  0.0002
     9 O(17)  Bbb    -0.7019    50.787    18.122    16.941  0.0093  1.0000  0.0000
              Bcc     1.4165  -102.499   -36.574   -34.190 -0.0002  0.0000  1.0000
 
              Baa    -0.0124    -6.598    -2.354    -2.201  0.0002 -0.0002  1.0000
    10 H(1)   Bbb    -0.0033    -1.761    -0.629    -0.588 -0.3606  0.9327  0.0003
              Bcc     0.0157     8.359     2.983     2.788  0.9327  0.3606 -0.0001
 
              Baa    -0.0047    -0.633    -0.226    -0.211  0.9952 -0.0974  0.0000
    11 C(13)  Bbb    -0.0003    -0.040    -0.014    -0.013  0.0000  0.0000  1.0000
              Bcc     0.0050     0.673     0.240     0.225  0.0974  0.9952  0.0000
 
              Baa    -0.0024    -1.299    -0.463    -0.433  0.0001  0.0000  1.0000
    12 H(1)   Bbb    -0.0022    -1.162    -0.415    -0.388  0.9997  0.0256 -0.0001
              Bcc     0.0046     2.461     0.878     0.821 -0.0256  0.9997  0.0000
 
              Baa    -0.0042    -2.219    -0.792    -0.740 -0.2362 -0.2286  0.9444
    13 H(1)   Bbb    -0.0020    -1.076    -0.384    -0.359  0.9215 -0.3611  0.1430
              Bcc     0.0062     3.295     1.176     1.099  0.3084  0.9041  0.2960
 
              Baa    -0.0042    -2.219    -0.792    -0.740  0.2360  0.2287  0.9445
    14 H(1)   Bbb    -0.0020    -1.076    -0.384    -0.359  0.9215 -0.3611 -0.1428
              Bcc     0.0062     3.295     1.176     1.099  0.3084  0.9040 -0.2960
 
              Baa    -0.0047    -2.501    -0.892    -0.834  0.0000  0.0000  1.0000
    15 H(1)   Bbb    -0.0012    -0.616    -0.220    -0.205  0.9955 -0.0947  0.0000
              Bcc     0.0058     3.117     1.112     1.040  0.0947  0.9955  0.0000
 
              Baa    -0.0090    -1.208    -0.431    -0.403 -0.0150  0.9999  0.0000
    16 C(13)  Bbb     0.0025     0.329     0.117     0.110  0.9999  0.0150  0.0001
              Bcc     0.0065     0.879     0.314     0.293 -0.0001  0.0000  1.0000
 
              Baa    -0.0040    -2.125    -0.758    -0.709 -0.0177  0.7154 -0.6985
    17 H(1)   Bbb    -0.0023    -1.204    -0.430    -0.402  0.4645  0.6246  0.6278
              Bcc     0.0062     3.328     1.188     1.110  0.8854 -0.3133 -0.3433
 
              Baa    -0.0040    -2.125    -0.758    -0.709 -0.0177  0.7152  0.6987
    18 H(1)   Bbb    -0.0023    -1.204    -0.430    -0.402 -0.4645 -0.6247  0.6277
              Bcc     0.0062     3.328     1.188     1.110  0.8854 -0.3134  0.3433
 
              Baa    -0.0029    -1.537    -0.548    -0.513 -0.4186  0.9082  0.0003
    19 H(1)   Bbb    -0.0025    -1.346    -0.480    -0.449  0.0001 -0.0003  1.0000
              Bcc     0.0054     2.883     1.029     0.962  0.9082  0.4186  0.0000
 

 ---------------------------------------------------------------------------------

 1|1|UNPC-PC-20250526LCFF|SP|UB3LYP|6-311G(d,p)|C8H9O2(2)|ADMINISTRATOR
 |02-Dec-2025|0||# ub3lyp/6-311g(d,p) geom=connectivity temperature=823
 .15||Title Card Required||0,2|C,0,-0.862515,1.227633,-0.000068|C,0,0.5
 10097,1.196453,-0.00005|C,0,1.170544,-0.093741,-0.000098|C,0,0.327195,
 -1.28902,0.000014|C,0,-1.055706,-1.207505,0.000015|C,0,-1.66344,0.0485
 44,-0.000051|H,0,-1.645023,-2.116855,0.000054|O,0,0.979466,-2.452242,0
 .000047|O,0,2.413654,-0.259227,0.000167|H,0,1.926481,-2.19742,-0.00006
 4|C,0,1.36798,2.426288,0.000002|H,0,0.761848,3.333677,-0.000046|H,0,2.
 02475,2.440262,0.874774|H,0,2.024873,2.440243,-0.874676|H,0,-1.368839,
 2.188534,-0.000076|C,0,-3.161792,0.179601,-0.000032|H,0,-3.505673,0.73
 4219,0.879509|H,0,-3.505685,0.734355,-0.87948|H,0,-3.651863,-0.794769,
 -0.0001||Version=EM64W-G16RevA.03|State=2-A|HF=-460.8279432|S2=0.76951
 |S2-1=0.|S2A=0.75026|RMSD=3.741e-009|Dipole=-1.1125646,0.4929509,-0.00
 01732|Quadrupole=0.1458336,1.1088041,-1.2546377,-0.329988,-0.0009351,0
 .0004031|PG=C01 [X(C8H9O2)]||@


 MARY HAD A LITTLE LAMB
      HIS FEET WERE BLACK AS SOOT,
           AND EVERYWHERE THAT MARY WENT
                HIS SOOTY FOOT HE PUT.

                    -- NONAME
 Job cpu time:       0 days  0 hours  0 minutes 39.0 seconds.
 Elapsed time:       0 days  0 hours  0 minutes 39.3 seconds.
 File lengths (MBytes):  RWF=     57 Int=      0 D2E=      0 Chk=      5 Scr=      1
 Normal termination of Gaussian 16 at Tue Dec 02 11:30:59 2025.
