 Generated by Multiwfn (http://sobereva.com/multiwfn)
GAUSSIAN             75 MOL ORBITALS    320 PRIMITIVES       20 NUCLEI
  C    1    (CENTRE  1)   1.73633895  2.32595034 -0.00053673  CHARGE =  6.0
  C    2    (CENTRE  2)  -0.90816459  2.23659485 -0.00020792  CHARGE =  6.0
  C    3    (CENTRE  3)  -2.07876696 -0.12341599  0.00017380  CHARGE =  6.0
  C    4    (CENTRE  4)  -0.61323538 -2.32664779  0.00008688  CHARGE =  6.0
  C    5    (CENTRE  5)   2.00480821 -2.19805780 -0.00025894  CHARGE =  6.0
  C    6    (CENTRE  6)   3.22358158  0.15115892 -0.00045170  CHARGE =  6.0
  H    7    (CENTRE  7)   3.10350429 -3.93433069 -0.00044981  CHARGE =  1.0
  O    8    (CENTRE  8)  -1.97531046 -4.54841192  0.00014924  CHARGE =  8.0
  O    9    (CENTRE  9)  -4.65934673 -0.27043270  0.00029475  CHARGE =  8.0
  H   10    (CENTRE 10)  -0.83950391 -5.96689713 -0.00019469  CHARGE =  1.0
  C   11    (CENTRE 11)  -2.50602611  4.59211402 -0.00050083  CHARGE =  6.0
  H   12    (CENTRE 12)  -1.32537612  6.28303519 -0.00117735  CHARGE =  1.0
  H   13    (CENTRE 13)  -3.74019301  4.65620229  1.65700630  CHARGE =  1.0
  H   14    (CENTRE 14)  -3.74087709  4.65532734 -1.65752986  CHARGE =  1.0
  H   15    (CENTRE 15)  -5.10885602 -2.03890452  0.00031175  CHARGE =  1.0
  H   16    (CENTRE 16)   2.65030702  4.16250517 -0.00096192  CHARGE =  1.0
  C   17    (CENTRE 17)   6.07446589  0.29741405  0.00089946  CHARGE =  6.0
  H   18    (CENTRE 18)   6.87977450 -0.61384218  1.67514011  CHARGE =  1.0
  H   19    (CENTRE 19)   6.88287932 -0.64078023 -1.65675129  CHARGE =  1.0
  H   20    (CENTRE 20)   6.71758897  2.25777809 -0.01416922  CHARGE =  1.0
CENTRE ASSIGNMENTS    1  1  1  1  1  1  1  1  1  1  1  1  1  1  1  1  1  1  1  1
CENTRE ASSIGNMENTS    1  1  1  1  1  1  1  1  2  2  2  2  2  2  2  2  2  2  2  2
CENTRE ASSIGNMENTS    2  2  2  2  2  2  2  2  2  2  2  2  2  2  2  2  3  3  3  3
CENTRE ASSIGNMENTS    3  3  3  3  3  3  3  3  3  3  3  3  3  3  3  3  3  3  3  3
CENTRE ASSIGNMENTS    3  3  3  3  4  4  4  4  4  4  4  4  4  4  4  4  4  4  4  4
CENTRE ASSIGNMENTS    4  4  4  4  4  4  4  4  4  4  4  4  5  5  5  5  5  5  5  5
CENTRE ASSIGNMENTS    5  5  5  5  5  5  5  5  5  5  5  5  5  5  5  5  5  5  5  5
CENTRE ASSIGNMENTS    6  6  6  6  6  6  6  6  6  6  6  6  6  6  6  6  6  6  6  6
CENTRE ASSIGNMENTS    6  6  6  6  6  6  6  6  7  7  7  7  8  8  8  8  8  8  8  8
CENTRE ASSIGNMENTS    8  8  8  8  8  8  8  8  8  8  8  8  8  8  8  8  8  8  8  8
CENTRE ASSIGNMENTS    9  9  9  9  9  9  9  9  9  9  9  9  9  9  9  9  9  9  9  9
CENTRE ASSIGNMENTS    9  9  9  9  9  9  9  9 10 10 10 10 11 11 11 11 11 11 11 11
CENTRE ASSIGNMENTS   11 11 11 11 11 11 11 11 11 11 11 11 11 11 11 11 11 11 11 11
CENTRE ASSIGNMENTS   12 12 12 12 13 13 13 13 14 14 14 14 15 15 15 15 16 16 16 16
CENTRE ASSIGNMENTS   17 17 17 17 17 17 17 17 17 17 17 17 17 17 17 17 17 17 17 17
CENTRE ASSIGNMENTS   17 17 17 17 17 17 17 17 18 18 18 18 19 19 19 19 20 20 20 20
TYPE ASSIGNMENTS      1  1  1  1  1  1  1  1  1  2  2  2  3  3  3  4  4  4  1  2
TYPE ASSIGNMENTS      3  4  5  6  7  8  9 10  1  1  1  1  1  1  1  1  1  2  2  2
TYPE ASSIGNMENTS      3  3  3  4  4  4  1  2  3  4  5  6  7  8  9 10  1  1  1  1
TYPE ASSIGNMENTS      1  1  1  1  1  2  2  2  3  3  3  4  4  4  1  2  3  4  5  6
TYPE ASSIGNMENTS      7  8  9 10  1  1  1  1  1  1  1  1  1  2  2  2  3  3  3  4
TYPE ASSIGNMENTS      4  4  1  2  3  4  5  6  7  8  9 10  1  1  1  1  1  1  1  1
TYPE ASSIGNMENTS      1  2  2  2  3  3  3  4  4  4  1  2  3  4  5  6  7  8  9 10
TYPE ASSIGNMENTS      1  1  1  1  1  1  1  1  1  2  2  2  3  3  3  4  4  4  1  2
TYPE ASSIGNMENTS      3  4  5  6  7  8  9 10  1  1  1  1  1  1  1  1  1  1  1  1
TYPE ASSIGNMENTS      1  2  2  2  3  3  3  4  4  4  1  2  3  4  5  6  7  8  9 10
TYPE ASSIGNMENTS      1  1  1  1  1  1  1  1  1  2  2  2  3  3  3  4  4  4  1  2
TYPE ASSIGNMENTS      3  4  5  6  7  8  9 10  1  1  1  1  1  1  1  1  1  1  1  1
TYPE ASSIGNMENTS      1  2  2  2  3  3  3  4  4  4  1  2  3  4  5  6  7  8  9 10
TYPE ASSIGNMENTS      1  1  1  1  1  1  1  1  1  1  1  1  1  1  1  1  1  1  1  1
TYPE ASSIGNMENTS      1  1  1  1  1  1  1  1  1  2  2  2  3  3  3  4  4  4  1  2
TYPE ASSIGNMENTS      3  4  5  6  7  8  9 10  1  1  1  1  1  1  1  1  1  1  1  1
EXPONENTS  0.3047525D+04 0.4573695D+03 0.1039487D+03 0.2921016D+02 0.9286663D+01
EXPONENTS  0.3163927D+01 0.7868272D+01 0.1881289D+01 0.5442493D+00 0.7868272D+01
EXPONENTS  0.1881289D+01 0.5442493D+00 0.7868272D+01 0.1881289D+01 0.5442493D+00
EXPONENTS  0.7868272D+01 0.1881289D+01 0.5442493D+00 0.1687145D+00 0.1687145D+00
EXPONENTS  0.1687145D+00 0.1687145D+00 0.8000000D+00 0.8000000D+00 0.8000000D+00
EXPONENTS  0.8000000D+00 0.8000000D+00 0.8000000D+00 0.3047525D+04 0.4573695D+03
EXPONENTS  0.1039487D+03 0.2921016D+02 0.9286663D+01 0.3163927D+01 0.7868272D+01
EXPONENTS  0.1881289D+01 0.5442493D+00 0.7868272D+01 0.1881289D+01 0.5442493D+00
EXPONENTS  0.7868272D+01 0.1881289D+01 0.5442493D+00 0.7868272D+01 0.1881289D+01
EXPONENTS  0.5442493D+00 0.1687145D+00 0.1687145D+00 0.1687145D+00 0.1687145D+00
EXPONENTS  0.8000000D+00 0.8000000D+00 0.8000000D+00 0.8000000D+00 0.8000000D+00
EXPONENTS  0.8000000D+00 0.3047525D+04 0.4573695D+03 0.1039487D+03 0.2921016D+02
EXPONENTS  0.9286663D+01 0.3163927D+01 0.7868272D+01 0.1881289D+01 0.5442493D+00
EXPONENTS  0.7868272D+01 0.1881289D+01 0.5442493D+00 0.7868272D+01 0.1881289D+01
EXPONENTS  0.5442493D+00 0.7868272D+01 0.1881289D+01 0.5442493D+00 0.1687145D+00
EXPONENTS  0.1687145D+00 0.1687145D+00 0.1687145D+00 0.8000000D+00 0.8000000D+00
EXPONENTS  0.8000000D+00 0.8000000D+00 0.8000000D+00 0.8000000D+00 0.3047525D+04
EXPONENTS  0.4573695D+03 0.1039487D+03 0.2921016D+02 0.9286663D+01 0.3163927D+01
EXPONENTS  0.7868272D+01 0.1881289D+01 0.5442493D+00 0.7868272D+01 0.1881289D+01
EXPONENTS  0.5442493D+00 0.7868272D+01 0.1881289D+01 0.5442493D+00 0.7868272D+01
EXPONENTS  0.1881289D+01 0.5442493D+00 0.1687145D+00 0.1687145D+00 0.1687145D+00
EXPONENTS  0.1687145D+00 0.8000000D+00 0.8000000D+00 0.8000000D+00 0.8000000D+00
EXPONENTS  0.8000000D+00 0.8000000D+00 0.3047525D+04 0.4573695D+03 0.1039487D+03
EXPONENTS  0.2921016D+02 0.9286663D+01 0.3163927D+01 0.7868272D+01 0.1881289D+01
EXPONENTS  0.5442493D+00 0.7868272D+01 0.1881289D+01 0.5442493D+00 0.7868272D+01
EXPONENTS  0.1881289D+01 0.5442493D+00 0.7868272D+01 0.1881289D+01 0.5442493D+00
EXPONENTS  0.1687145D+00 0.1687145D+00 0.1687145D+00 0.1687145D+00 0.8000000D+00
EXPONENTS  0.8000000D+00 0.8000000D+00 0.8000000D+00 0.8000000D+00 0.8000000D+00
EXPONENTS  0.3047525D+04 0.4573695D+03 0.1039487D+03 0.2921016D+02 0.9286663D+01
EXPONENTS  0.3163927D+01 0.7868272D+01 0.1881289D+01 0.5442493D+00 0.7868272D+01
EXPONENTS  0.1881289D+01 0.5442493D+00 0.7868272D+01 0.1881289D+01 0.5442493D+00
EXPONENTS  0.7868272D+01 0.1881289D+01 0.5442493D+00 0.1687145D+00 0.1687145D+00
EXPONENTS  0.1687145D+00 0.1687145D+00 0.8000000D+00 0.8000000D+00 0.8000000D+00
EXPONENTS  0.8000000D+00 0.8000000D+00 0.8000000D+00 0.1873114D+02 0.2825394D+01
EXPONENTS  0.6401217D+00 0.1612778D+00 0.5484672D+04 0.8252349D+03 0.1880470D+03
EXPONENTS  0.5296450D+02 0.1689757D+02 0.5799635D+01 0.1553962D+02 0.3599934D+01
EXPONENTS  0.1013762D+01 0.1553962D+02 0.3599934D+01 0.1013762D+01 0.1553962D+02
EXPONENTS  0.3599934D+01 0.1013762D+01 0.1553962D+02 0.3599934D+01 0.1013762D+01
EXPONENTS  0.2700058D+00 0.2700058D+00 0.2700058D+00 0.2700058D+00 0.8000000D+00
EXPONENTS  0.8000000D+00 0.8000000D+00 0.8000000D+00 0.8000000D+00 0.8000000D+00
EXPONENTS  0.5484672D+04 0.8252349D+03 0.1880470D+03 0.5296450D+02 0.1689757D+02
EXPONENTS  0.5799635D+01 0.1553962D+02 0.3599934D+01 0.1013762D+01 0.1553962D+02
EXPONENTS  0.3599934D+01 0.1013762D+01 0.1553962D+02 0.3599934D+01 0.1013762D+01
EXPONENTS  0.1553962D+02 0.3599934D+01 0.1013762D+01 0.2700058D+00 0.2700058D+00
EXPONENTS  0.2700058D+00 0.2700058D+00 0.8000000D+00 0.8000000D+00 0.8000000D+00
EXPONENTS  0.8000000D+00 0.8000000D+00 0.8000000D+00 0.1873114D+02 0.2825394D+01
EXPONENTS  0.6401217D+00 0.1612778D+00 0.3047525D+04 0.4573695D+03 0.1039487D+03
EXPONENTS  0.2921016D+02 0.9286663D+01 0.3163927D+01 0.7868272D+01 0.1881289D+01
EXPONENTS  0.5442493D+00 0.7868272D+01 0.1881289D+01 0.5442493D+00 0.7868272D+01
EXPONENTS  0.1881289D+01 0.5442493D+00 0.7868272D+01 0.1881289D+01 0.5442493D+00
EXPONENTS  0.1687145D+00 0.1687145D+00 0.1687145D+00 0.1687145D+00 0.8000000D+00
EXPONENTS  0.8000000D+00 0.8000000D+00 0.8000000D+00 0.8000000D+00 0.8000000D+00
EXPONENTS  0.1873114D+02 0.2825394D+01 0.6401217D+00 0.1612778D+00 0.1873114D+02
EXPONENTS  0.2825394D+01 0.6401217D+00 0.1612778D+00 0.1873114D+02 0.2825394D+01
EXPONENTS  0.6401217D+00 0.1612778D+00 0.1873114D+02 0.2825394D+01 0.6401217D+00
EXPONENTS  0.1612778D+00 0.1873114D+02 0.2825394D+01 0.6401217D+00 0.1612778D+00
EXPONENTS  0.3047525D+04 0.4573695D+03 0.1039487D+03 0.2921016D+02 0.9286663D+01
EXPONENTS  0.3163927D+01 0.7868272D+01 0.1881289D+01 0.5442493D+00 0.7868272D+01
EXPONENTS  0.1881289D+01 0.5442493D+00 0.7868272D+01 0.1881289D+01 0.5442493D+00
EXPONENTS  0.7868272D+01 0.1881289D+01 0.5442493D+00 0.1687145D+00 0.1687145D+00
EXPONENTS  0.1687145D+00 0.1687145D+00 0.8000000D+00 0.8000000D+00 0.8000000D+00
EXPONENTS  0.8000000D+00 0.8000000D+00 0.8000000D+00 0.1873114D+02 0.2825394D+01
EXPONENTS  0.6401217D+00 0.1612778D+00 0.1873114D+02 0.2825394D+01 0.6401217D+00
EXPONENTS  0.1612778D+00 0.1873114D+02 0.2825394D+01 0.6401217D+00 0.1612778D+00
MO    1     MO 0.0        OCC NO =    1.0000000  ORB. ENERGY =  -19.007518
  0.54006633D-05  0.99631692D-05  0.16083644D-04  0.20936126D-04  0.17864834D-04
  0.61682979D-05 -0.21191628D-04 -0.97672020D-05  0.27388254D-04 -0.19379172D-04
 -0.14858720D-04 -0.74155425D-05 -0.18259414D-04 -0.14000160D-04 -0.69870612D-05
  0.52442683D-07  0.40209723D-07  0.20067470D-07 -0.16442407D-03  0.10758730D-03
  0.47434317D-04 -0.42758318D-07 -0.14516960D-04  0.87820890D-05  0.25114772D-04
  0.25834517D-04  0.10786603D-07  0.15388074D-07  0.38635438D-05  0.71274839D-05
  0.11505969D-04  0.14977353D-04  0.12780202D-04  0.44126968D-05 -0.69509487D-05
 -0.32036859D-05  0.89834697D-05 -0.11826400D-04 -0.90677333D-05 -0.45254344D-05
 -0.79384315D-04 -0.60866858D-04 -0.30376828D-04  0.39487400D-08  0.30276434D-08
  0.15110062D-08  0.24621049D-03  0.11248196D-03 -0.36811274D-04  0.77069483D-08
  0.25464165D-04  0.19625451D-04  0.28305132D-04 -0.16584221D-04  0.13140779D-07
 -0.15119539D-07  0.12727265D-04  0.23479319D-04  0.37902901D-04  0.49338316D-04
  0.42100474D-04  0.14536282D-04 -0.63616101D-04 -0.29320603D-04  0.82218030D-04
 -0.77432339D-04 -0.59370206D-04 -0.29629894D-04 -0.25721336D-04 -0.19721489D-04
 -0.98424051D-05  0.12815931D-07  0.98264427D-08  0.49040836D-08 -0.10760201D-03
 -0.37089984D-03 -0.17039697D-04  0.24517366D-07  0.80863287D-04 -0.48915148D-04
  0.32486256D-04  0.16661795D-04  0.69676136D-08 -0.20257654D-07 -0.27039724D-04
 -0.49883011D-04 -0.80526646D-04 -0.10482177D-03 -0.89444603D-04 -0.30883072D-04
 -0.37347046D-04 -0.17213219D-04  0.48267663D-04 -0.34886755D-03 -0.26748951D-03
 -0.13349601D-03 -0.43592324D-03 -0.33423829D-03 -0.16680833D-03  0.43807441D-07
  0.33588767D-07  0.16763149D-07  0.25628752D-04  0.48337933D-03  0.57661065D-03
 -0.53422558D-07  0.92062512D-05 -0.12203872D-04 -0.90619901D-04  0.10272706D-03
 -0.49270497D-07 -0.22485219D-07  0.15016423D-04  0.27702368D-04  0.44720211D-04
  0.58212428D-04  0.49672770D-04  0.17150814D-04 -0.91996852D-04 -0.42401265D-04
  0.11889757D-03  0.90837100D-04  0.69648127D-04  0.34759297D-04  0.44816182D-04
  0.34362206D-04  0.17149149D-04 -0.47461499D-07 -0.36390467D-07 -0.18161394D-07
 -0.68716251D-03  0.10640762D-03 -0.32066484D-03 -0.11843234D-07 -0.72226685D-04
 -0.71653580D-04  0.62482691D-04 -0.36594619D-04  0.52319355D-07 -0.10633111D-07
 -0.53204589D-05 -0.98152077D-05 -0.15844789D-04 -0.20625207D-04 -0.17599526D-04
 -0.60766935D-05  0.31274081D-04  0.14414195D-04 -0.40418908D-04 -0.48060097D-04
 -0.36849434D-04 -0.18390450D-04 -0.52092997D-04 -0.39941606D-04 -0.19933661D-04
  0.53317245D-10  0.40880281D-10  0.20402126D-10  0.37371579D-03 -0.11004240D-03
 -0.15000183D-03  0.43532097D-07  0.73511326D-05  0.53253806D-04 -0.96823586D-05
  0.63193733D-04  0.50697686D-07 -0.33792654D-07 -0.19734458D-04 -0.33473376D-04
 -0.38108256D-04 -0.71109521D-04  0.82561317D+00  0.15195690D+01  0.24589494D+01
  0.32323579D+01  0.27723745D+01  0.94792194D+00 -0.15780843D-01 -0.70413813D-02
  0.20793293D-01  0.29798383D-02  0.22958048D-02  0.10079819D-02 -0.53826917D-03
 -0.41470738D-03 -0.18207887D-03 -0.57375640D-06 -0.44204838D-06 -0.19408305D-06
  0.39059100D-02  0.94225390D-04  0.38998761D-03  0.16179253D-07 -0.93384224D-02
 -0.92483203D-02 -0.92741503D-02  0.91021183D-04  0.31866033D-07 -0.11149479D-07
  0.25080722D-04  0.46161917D-04  0.74698695D-04  0.98193526D-04  0.84220016D-04
  0.28796254D-04 -0.10390709D-03 -0.46363143D-04  0.13691098D-03  0.23483760D-03
  0.18092971D-03  0.79437888D-04  0.69459610D-04  0.53514885D-04  0.23495917D-04
 -0.20259679D-08 -0.15608990D-08 -0.68531874D-09 -0.30995178D-03 -0.21081364D-03
 -0.10114554D-03  0.52818850D-08  0.95067591D-06  0.16792114D-03  0.11714931D-03
  0.21067520D-04  0.59109606D-08 -0.10441415D-07  0.98268011D-04  0.16668115D-03
  0.18976059D-03 -0.18041535D-03  0.28173771D-05  0.51975106D-05  0.83903937D-05
  0.10921800D-04  0.93195914D-05  0.32178309D-05 -0.13295165D-04 -0.61277295D-05
  0.17182793D-04  0.11518941D-05  0.88319933D-06  0.44077837D-06 -0.10960717D-04
 -0.84039829D-05 -0.41941765D-05  0.18033862D-08  0.13827222D-08  0.69007528D-09
  0.65114410D-05 -0.84462881D-05  0.23634232D-06 -0.28362702D-08 -0.96408701D-05
  0.14618404D-06  0.13207531D-04  0.13280979D-04  0.44444094D-08  0.10090663D-07
  0.23295511D-06  0.39513596D-06  0.44984833D-06  0.39370216D-05  0.19486803D-05
  0.33053307D-05  0.37630021D-05 -0.58273857D-05  0.19464911D-05  0.33016173D-05
  0.37587746D-05 -0.58300380D-05 -0.22750922D-05 -0.38589870D-05 -0.43933204D-05
 -0.14507517D-03 -0.51188231D-05 -0.86824928D-05 -0.98847112D-05 -0.25829015D-04
  0.40867416D-05  0.75392402D-05  0.12170671D-04  0.15842598D-04  0.13518517D-04
  0.46676192D-05 -0.14622209D-04 -0.67393627D-05  0.18897876D-04 -0.22277883D-05
 -0.17081268D-05 -0.85247496D-06  0.14586800D-05  0.11184233D-05  0.55817160D-06
  0.60136517D-07  0.46108867D-07  0.23011556D-07 -0.93094385D-05  0.67061167D-05
  0.29496471D-04 -0.64383431D-07 -0.47352313D-05  0.23038534D-04  0.67209039D-05
 -0.49074888D-04  0.38741028D-07 -0.43977831D-06  0.30684220D-05  0.52046244D-05
  0.59252810D-05  0.60903130D-05  0.31098367D-05  0.52748716D-05  0.60052549D-05
  0.61361308D-05 -0.52315343D-06 -0.88736723D-06 -0.10102362D-05 -0.12143594D-04
MO    2     MO 0.0        OCC NO =    1.0000000  ORB. ENERGY =  -18.980200
 -0.35985721D-05 -0.66386628D-05 -0.10716860D-04 -0.13950168D-04 -0.11903703D-04
 -0.41100627D-05  0.28056885D-04  0.12931393D-04 -0.36260975D-04 -0.94043552D-04
 -0.72106631D-04 -0.35986262D-04 -0.17828398D-04 -0.13669684D-04 -0.68221306D-05
 -0.18102262D-08 -0.13879666D-08 -0.69269261D-09  0.55528799D-03 -0.17726508D-03
 -0.17920622D-03  0.55891294D-07  0.66753949D-04  0.10705079D-04  0.22631564D-05
 -0.81120547D-05 -0.31399266D-07  0.15105998D-08  0.47176932D-06  0.87032227D-06
  0.14049700D-05  0.18288535D-05  0.15605640D-05  0.53882524D-06 -0.45191716D-04
 -0.20828820D-04  0.58406187D-04  0.92735992D-04  0.71104077D-04  0.35485918D-04
 -0.51037653D-04 -0.39132435D-04 -0.19529828D-04  0.13454368D-07  0.10315956D-07
  0.51483849D-08 -0.34728875D-03 -0.48161132D-03  0.38336869D-03 -0.14646987D-07
 -0.94305093D-04 -0.77595770D-04 -0.20577062D-05 -0.30374908D-04  0.17198669D-07
  0.30116938D-07 -0.36482851D-04 -0.67303737D-04 -0.10864910D-03 -0.14142885D-03
 -0.12068149D-03 -0.41668418D-04 -0.20448487D-04 -0.94246888D-05  0.26427811D-04
 -0.54781595D-03 -0.42003052D-03 -0.20962467D-03  0.11276663D-04  0.86462300D-05
  0.43150748D-05  0.20275619D-07  0.15546059D-07  0.77585729D-08  0.20985004D-03
  0.96543087D-03 -0.14243681D-03 -0.57788157D-07 -0.35383944D-04 -0.70255827D-04
 -0.13248983D-03 -0.41535866D-04 -0.60500144D-07  0.54001398D-08  0.24336481D-04
  0.44896056D-04  0.72476155D-04  0.94342419D-04  0.80502557D-04  0.27795598D-04
 -0.11546907D-03 -0.53219589D-04  0.14923328D-03  0.44791126D-04  0.34342994D-04
  0.17139561D-04 -0.64109732D-04 -0.49155276D-04 -0.24531928D-04  0.10527139D-07
  0.80715422D-08  0.40282653D-08 -0.77013028D-03 -0.23476352D-03 -0.53589076D-03
  0.18346380D-07 -0.38609513D-04  0.20926163D-04  0.70275016D-04  0.10613853D-03
  0.29319377D-07 -0.61264818D-08 -0.73733517D-05 -0.13602394D-04 -0.21958482D-04
 -0.28583419D-04 -0.24390283D-04 -0.84213785D-05  0.38537527D-04  0.17761911D-04
 -0.49806253D-04 -0.98744751D-04 -0.75711212D-04 -0.37785201D-04 -0.85281037D-05
 -0.65388090D-05 -0.32633240D-05  0.22429773D-07  0.17197727D-07  0.85828713D-08
  0.58578872D-03 -0.12724833D-03  0.26927352D-03  0.18501624D-07  0.40897962D-04
  0.14856705D-04 -0.14048585D-04  0.43174919D-05 -0.35394240D-07 -0.19468679D-08
  0.10147324D-04  0.18719832D-04  0.30219613D-04  0.39336957D-04  0.33566296D-04
  0.11589635D-04 -0.47044381D-04 -0.21682712D-04  0.60800588D-04 -0.22647719D-04
 -0.17364834D-04 -0.86662693D-05  0.18522207D-05  0.14201653D-05  0.70876203D-06
  0.97196759D-08  0.74524310D-08  0.37192854D-08 -0.42770456D-03  0.23391494D-03
  0.74257400D-04 -0.26346267D-07  0.40497428D-05 -0.43269350D-04  0.36400013D-04
 -0.13350957D-04  0.44841871D-08  0.20595039D-07  0.13720008D-04  0.23271731D-04
  0.26494043D-04  0.81105366D-04  0.45556279D-04  0.83847873D-04  0.13568169D-03
  0.17835737D-03  0.15297608D-03  0.52305121D-04 -0.15743540D-03 -0.70247369D-04
  0.20744142D-03  0.12887735D-03  0.99293054D-04  0.43594999D-04  0.10429273D-03
  0.80351925D-04  0.35278823D-04  0.30027977D-08  0.23134937D-08  0.10157484D-08
 -0.46912103D-03 -0.14116097D-03 -0.11016471D-03  0.33675760D-08  0.14728486D-03
  0.11373885D-03  0.16437258D-03 -0.65800813D-04  0.55750722D-08 -0.77935479D-08
  0.82559213D+00  0.15195302D+01  0.24588867D+01  0.32322755D+01  0.27723039D+01
  0.94789778D+00 -0.15723237D-01 -0.70156779D-02  0.20717391D-01  0.15066959D-02
  0.11608279D-02  0.50966599D-03 -0.27442093D-02 -0.21142653D-02 -0.92827636D-03
 -0.26830917D-07 -0.20671775D-07 -0.90760227D-08  0.41273028D-02  0.42415456D-03
  0.12920778D-03 -0.15156152D-07 -0.92764902D-02 -0.94268752D-02 -0.93269183D-02
  0.10892698D-03 -0.78324854D-08  0.56845258D-08  0.18455860D-04  0.31304632D-04
  0.35639217D-04 -0.25490575D-04  0.16723370D-04  0.30851352D-04  0.49803647D-04
  0.64829551D-04  0.55319173D-04  0.19100381D-04 -0.53722889D-04 -0.24760831D-04
  0.69431954D-04 -0.14475407D-03 -0.11098824D-03 -0.55390911D-04 -0.18663170D-04
 -0.14309735D-04 -0.71415605D-05  0.42983031D-07  0.32956662D-07  0.16447684D-07
 -0.40780331D-03 -0.21895566D-04  0.16997408D-03 -0.52367228D-07  0.73776212D-04
  0.37860646D-04  0.18388058D-04  0.11259958D-03 -0.60046343D-07 -0.27427215D-07
  0.19963853D-05  0.33862473D-05  0.38551229D-05 -0.43345416D-04  0.30574188D-04
  0.51859609D-04  0.59040332D-04  0.98611317D-05  0.30588617D-04  0.51884084D-04
  0.59068195D-04  0.98162861D-05  0.90240730D-04  0.15306536D-03  0.17425950D-03
 -0.19842518D-03  0.61476944D-05  0.10427653D-04  0.11871515D-04  0.65760230D-04
 -0.78287643D-06 -0.14442542D-05 -0.23314740D-05 -0.30348864D-05 -0.25896741D-05
 -0.89415223D-06  0.15903835D-06  0.73300632D-07 -0.20554262D-06  0.26955983D-04
  0.20668138D-04  0.10314849D-04 -0.25149162D-05 -0.19282782D-05 -0.96234597D-06
 -0.37196251D-07 -0.28519726D-07 -0.14233342D-07 -0.82863081D-04  0.24532146D-04
 -0.84185908D-05  0.86695660D-07 -0.56657955D-05 -0.71656557D-05 -0.54426813D-05
  0.15304928D-04 -0.40610903D-07  0.80504534D-07  0.90771875D-06  0.15396628D-05
  0.17528517D-05 -0.15150279D-05  0.91595639D-06  0.15536354D-05  0.17687590D-05
 -0.14899629D-05  0.15074638D-05  0.25569440D-05  0.29109903D-05  0.64841571D-05
MO    3     MO 0.0        OCC NO =    1.0000000  ORB. ENERGY =  -10.030441
 -0.62354751D-04 -0.11503234D-03 -0.18569786D-03 -0.24172344D-03 -0.20626305D-03
 -0.71217675D-04  0.12786879D-03  0.58934609D-04 -0.16525880D-03  0.22653397D-04
  0.17369188D-04  0.86684421D-05  0.56631223D-04  0.43421230D-04  0.21670237D-04
 -0.10804198D-06 -0.82839739D-07 -0.41342836D-07  0.10620695D-02 -0.30892479D-03
 -0.45845555D-03  0.15035952D-06  0.19287615D-04 -0.21373580D-04 -0.12103385D-03
 -0.35913110D-04 -0.51688060D-07 -0.56315407D-07  0.39681288D-04  0.73204227D-04
  0.11817432D-03  0.15382785D-03  0.13126159D-03  0.45321471D-04 -0.76971421D-04
 -0.35476057D-04  0.99478568D-04  0.31491829D-04  0.24145937D-04  0.12050515D-04
  0.97401115D-04  0.74680997D-04  0.37271051D-04  0.25983093D-07  0.19922188D-07
  0.99425678D-08 -0.14170403D-02 -0.36435788D-03  0.55577802D-03 -0.60105473D-07
  0.27927217D-04  0.52317358D-04  0.33913857D-04  0.13329043D-03 -0.68018476D-07
  0.27082098D-08  0.84208850D-02  0.15534888D-01  0.25078127D-01  0.32644270D-01
  0.27855414D-01  0.96178052D-02  0.73004499D-04  0.33647707D-04 -0.94351683D-04
 -0.20238600D-03 -0.15517675D-03 -0.77444073D-04  0.29611085D-03  0.22703902D-03
  0.11330838D-03 -0.20763401D-07 -0.15920059D-07 -0.79452251D-08  0.24113023D-02
  0.13880332D-02 -0.18585155D-03 -0.13843946D-06 -0.48929963D-03 -0.70847880D-03
 -0.52881378D-03 -0.93574017D-04 -0.60776643D-07  0.54551683D-07  0.53249529D+00
  0.98234983D+00  0.15858172D+01  0.20642628D+01  0.17614392D+01  0.60818263D+00
 -0.19831731D-01 -0.91404267D-02  0.25630711D-01 -0.71136701D-03 -0.54543110D-03
 -0.27220835D-03 -0.12627500D-02 -0.96819659D-03 -0.48319795D-03 -0.23533515D-07
 -0.18044007D-07 -0.90052241D-08 -0.41335074D-02 -0.95655903D-03 -0.16839590D-02
  0.16796189D-06 -0.98191460D-02 -0.95764626D-02 -0.10383981D-01  0.78803183D-03
 -0.35521245D-07  0.85959814D-07  0.17091161D-02  0.31529855D-02  0.50898962D-02
  0.66255325D-02  0.56535789D-02  0.19520449D-02  0.31874678D-03  0.14691010D-03
 -0.41195126D-03  0.35447223D-03  0.27178683D-03  0.13564067D-03 -0.11602968D-03
 -0.88964197D-04 -0.44399369D-04  0.38740204D-07  0.29703532D-07  0.14824144D-07
  0.27350615D-02 -0.81087671D-03  0.99259202D-03  0.77972554D-07 -0.36675712D-03
 -0.28822695D-03 -0.37620828D-03 -0.25098968D-03 -0.96631669D-08  0.59231651D-07
  0.46058616D-04  0.84969154D-04  0.13716656D-03  0.17855011D-03  0.15235713D-03
  0.52605255D-04 -0.10679711D-03 -0.49222689D-04  0.13802556D-03  0.71751047D-04
  0.55014152D-04  0.27455918D-04  0.83760196D-04  0.64222005D-04  0.32051282D-04
  0.21564151D-08  0.16534023D-08  0.82516364D-09 -0.14887770D-02  0.61950266D-03
  0.23144017D-03 -0.12830074D-06  0.16708954D-04  0.30110683D-04  0.61360196D-04
 -0.99440736D-07 -0.16831634D-06  0.50157442D-07  0.39580494D-04  0.67136010D-04
  0.76431974D-04  0.37336978D-03  0.12963504D-03  0.23859768D-03  0.38609608D-03
  0.50753411D-03  0.43530905D-03  0.14883956D-03 -0.71752792D-03 -0.32015956D-03
  0.94543547D-03 -0.76218622D-04 -0.58722340D-04 -0.25782270D-04  0.20657638D-04
  0.15915596D-04  0.69878040D-05  0.14178166D-06  0.10923512D-06  0.47960103D-07
 -0.17090371D-02 -0.41906081D-03 -0.71960450D-03 -0.41787717D-07  0.47403679D-03
 -0.23218233D-03  0.10011110D-02 -0.12194189D-02  0.31394775D-07 -0.29932205D-07
 -0.85810560D-04 -0.15793724D-03 -0.25557227D-03 -0.33595690D-03 -0.28814828D-03
 -0.98522790D-04  0.31583884D-03  0.14092668D-03 -0.41615836D-03 -0.13349217D-03
 -0.10284852D-03 -0.45156040D-04 -0.10202721D-03 -0.78606465D-04 -0.34512472D-04
 -0.41184436D-07 -0.31730388D-07 -0.13931349D-07  0.92319214D-03  0.24145094D-03
  0.10265225D-03  0.17955137D-07 -0.21752165D-03 -0.31468491D-03 -0.32088912D-03
 -0.68252446D-05  0.26762016D-07  0.24630173D-07  0.33106934D-04  0.56155627D-04
  0.63931196D-04 -0.67221908D-04 -0.35383570D-04 -0.65275777D-04 -0.10537534D-03
 -0.13716739D-03 -0.11704518D-03 -0.40412888D-04  0.59364391D-04  0.27360993D-04
 -0.76723081D-04 -0.52807938D-05 -0.40489778D-05 -0.20207237D-05  0.86719800D-04
  0.66491242D-04  0.33183790D-04 -0.27941878D-07 -0.21424060D-07 -0.10692107D-07
 -0.10826561D-03 -0.53114320D-04 -0.25823004D-04  0.15525040D-07 -0.63547790D-04
  0.12832783D-04 -0.49128824D-04 -0.34115677D-04 -0.94635177D-09 -0.13036143D-07
  0.62143983D-05  0.10540796D-04  0.12000323D-04  0.27890719D-04 -0.12047312D-04
 -0.20434521D-04 -0.23263980D-04 -0.77059423D-06 -0.12040884D-04 -0.20423619D-04
 -0.23251568D-04 -0.77447082D-06 -0.40921589D-05 -0.69410760D-05 -0.79021697D-05
  0.46170800D-04  0.24868560D-04  0.42181785D-04  0.48022471D-04  0.15302463D-03
 -0.51565796D-04 -0.95128825D-04 -0.15356742D-03 -0.19989915D-03 -0.17057431D-03
 -0.58895209D-04  0.56925194D-04  0.26236770D-04 -0.73570642D-04  0.46971329D-04
  0.36014636D-04  0.17973827D-04  0.25832600D-04  0.19806799D-04  0.98849810D-05
 -0.20413867D-06 -0.15652059D-06 -0.78114743D-07 -0.57493467D-04  0.10514890D-04
 -0.71210164D-04  0.31135767D-06 -0.75350258D-05 -0.76254403D-04 -0.44518832D-04
  0.10128604D-03 -0.89594784D-07  0.10465635D-05 -0.93684079D-05 -0.15890593D-04
 -0.18090878D-04 -0.19589750D-04 -0.94468544D-05 -0.16023653D-04 -0.18242363D-04
 -0.19550516D-04  0.29693598D-05  0.50365962D-05  0.57339867D-05  0.29586124D-04
MO    4     MO 0.0        OCC NO =    1.0000000  ORB. ENERGY =  -10.014032
 -0.15421130D-04 -0.28448974D-04 -0.45925464D-04 -0.59781309D-04 -0.51011499D-04
 -0.17613045D-04  0.12933141D-04  0.59608727D-05 -0.16714909D-04 -0.12130825D-03
 -0.93011473D-04 -0.46419244D-04 -0.27445177D-04 -0.21043221D-04 -0.10502042D-04
 -0.71626520D-06 -0.54918672D-06 -0.27408266D-06 -0.24811284D-03  0.47674034D-04
  0.97885193D-04  0.42158710D-06 -0.85446128D-04  0.83258785D-04 -0.57620601D-04
  0.84292740D-05  0.40417317D-06 -0.19345136D-06 -0.10671347D-04 -0.19686551D-04
 -0.31780197D-04 -0.41368374D-04 -0.35299708D-04 -0.12188141D-04  0.57573375D-04
  0.26535516D-04 -0.74408357D-04 -0.39835351D-04 -0.30543220D-04 -0.15243208D-04
  0.31439366D-04  0.24105711D-04  0.12030439D-04  0.48912068D-06  0.37502671D-06
  0.18716461D-06  0.33287866D-03  0.11776451D-03 -0.20700895D-03 -0.36941099D-06
  0.44547093D-04 -0.80923518D-05 -0.57414071D-04  0.88207853D-05 -0.18450149D-06
  0.87538950D-07  0.12128041D-02  0.22373867D-02  0.36118358D-02  0.47015371D-02
  0.40118301D-02  0.13851885D-02 -0.51000865D-04 -0.23506252D-04  0.65913985D-04
 -0.15163457D-04 -0.11626377D-04 -0.58023771D-05  0.80121679D-05  0.61432222D-05
  0.30658984D-05 -0.16721078D-06 -0.12820662D-06 -0.63984089D-07 -0.14118809D-03
 -0.16135931D-03 -0.15864397D-03  0.30978353D-06 -0.52047242D-04  0.14633434D-04
 -0.35484708D-04 -0.34171244D-04  0.10943913D-06  0.16524315D-07 -0.69117060D-05
 -0.12750748D-04 -0.20583661D-04 -0.26793810D-04 -0.22863207D-04 -0.78941159D-05
  0.77471665D-04  0.35706620D-04 -0.10012509D-03 -0.47892588D-04 -0.36720999D-04
 -0.18326352D-04  0.21197226D-04  0.16252688D-04  0.81112306D-05  0.45324691D-06
  0.34752098D-06  0.17343732D-06  0.41136781D-03  0.37706896D-03  0.76738672D-04
 -0.41369892D-06  0.17959769D-04 -0.68420763D-04 -0.86962122D-04  0.15821953D-04
 -0.11731988D-06 -0.64501440D-07 -0.13737969D-05 -0.25343870D-05 -0.40912865D-05
 -0.53256394D-05 -0.45443778D-05 -0.15690644D-05  0.21085166D-05  0.97181338D-06
 -0.27250661D-05 -0.12210836D-03 -0.93624944D-04 -0.46725409D-04  0.95502353D-05
  0.73225147D-05  0.36544480D-05 -0.66779160D-06 -0.51202025D-06 -0.25553399D-06
 -0.33962540D-03  0.30379461D-03  0.60053334D-04  0.38940652D-06 -0.61131287D-04
  0.14949875D-03 -0.28470524D-04  0.66807860D-05  0.41745050D-06  0.20185241D-06
  0.14995520D-02  0.27663806D-02  0.44657960D-02  0.58131394D-02  0.49603624D-02
  0.17126939D-02  0.44185427D-04  0.20365023D-04 -0.57105651D-04 -0.30302468D-03
 -0.23234011D-03 -0.11595400D-03 -0.70080796D-04 -0.53733509D-04 -0.26816787D-04
  0.48448633D-06  0.37147339D-06  0.18539126D-06  0.89454688D-03  0.41276095D-03
  0.17013350D-03 -0.20250737D-06 -0.39273562D-03 -0.20377622D-03 -0.18319311D-03
 -0.87338546D-04  0.33968756D-06  0.89882074D-07 -0.15957470D-04 -0.27066889D-04
 -0.30814697D-04 -0.61020569D-05 -0.16386959D-04 -0.30160752D-04 -0.48805790D-04
 -0.64156578D-04 -0.55026724D-04 -0.18814571D-04  0.57304066D-04  0.25568963D-04
 -0.75505489D-04  0.21267523D-04  0.16385480D-04  0.71941083D-05 -0.82934421D-04
 -0.63896501D-04 -0.28054005D-04 -0.32610945D-06 -0.25124975D-06 -0.11031217D-06
  0.17725374D-03 -0.24659136D-04  0.93460870D-04  0.17994639D-06 -0.94337839D-04
 -0.18263492D-04 -0.55663125D-04  0.43873313D-05  0.14103161D-06  0.23454023D-06
  0.47367427D-05  0.87181351D-05  0.14107588D-04  0.18544820D-04  0.15905784D-04
  0.54384577D-05 -0.17343947D-04 -0.77388355D-05  0.22852885D-04 -0.31124267D-04
 -0.23979569D-04 -0.10528323D-04 -0.34905811D-05 -0.26893046D-05 -0.11807496D-05
  0.16892233D-06  0.13014555D-06  0.57140906D-07 -0.10671586D-03 -0.14541257D-04
  0.19661157D-04 -0.11466228D-06  0.30545502D-04  0.23189556D-04 -0.67598171D-05
  0.22133793D-04 -0.18605601D-06 -0.94260156D-08  0.31169536D-05  0.52869432D-05
  0.60189979D-05  0.24127062D-04 -0.22596246D-04 -0.41685661D-04 -0.67293583D-04
 -0.87596250D-04 -0.74746039D-04 -0.25808011D-04  0.21315909D-04  0.98244831D-05
 -0.27548876D-04  0.15144685D-04  0.11611984D-04  0.57951938D-05 -0.97409162D-05
 -0.74687167D-05 -0.37274131D-05 -0.42607629D-07 -0.32668827D-07 -0.16304034D-07
  0.13403648D-03  0.20342763D-04 -0.48452973D-04  0.14575835D-06 -0.84536033D-05
  0.49424136D-05 -0.16333036D-04 -0.12094293D-04  0.18861634D-07 -0.25706830D-06
 -0.55860831D-05 -0.94750542D-05 -0.10787014D-04  0.15520557D-04 -0.34841738D-05
 -0.59098182D-05 -0.67281191D-05 -0.45858128D-05 -0.34440597D-05 -0.58417771D-05
 -0.66506567D-05 -0.45092721D-05  0.25948842D-05  0.44014147D-05  0.50108550D-05
  0.88618912D-06 -0.74047995D-05 -0.12559941D-04 -0.14299049D-04 -0.59170505D-04
  0.53256051D+00  0.98247015D+00  0.15860115D+01  0.20645157D+01  0.17616550D+01
  0.60825712D+00 -0.20005660D-01 -0.92205906D-02  0.25855499D-01  0.32663212D-03