 Entering Link 1 = D:\Gaussian\G16W\l1.exe PID=     43840.
  
 Copyright (c) 1988,1990,1992,1993,1995,1998,2003,2009,2016,
            Gaussian, Inc.  All Rights Reserved.
  
 This is part of the Gaussian(R) 16 program.  It is based on
 the Gaussian(R) 09 system (copyright 2009, Gaussian, Inc.),
 the Gaussian(R) 03 system (copyright 2003, Gaussian, Inc.),
 the Gaussian(R) 98 system (copyright 1998, Gaussian, Inc.),
 the Gaussian(R) 94 system (copyright 1995, Gaussian, Inc.),
 the Gaussian 92(TM) system (copyright 1992, Gaussian, Inc.),
 the Gaussian 90(TM) system (copyright 1990, Gaussian, Inc.),
 the Gaussian 88(TM) system (copyright 1988, Gaussian, Inc.),
 the Gaussian 86(TM) system (copyright 1986, Carnegie Mellon
 University), and the Gaussian 82(TM) system (copyright 1983,
 Carnegie Mellon University). Gaussian is a federally registered
 trademark of Gaussian, Inc.
  
 This software contains proprietary and confidential information,
 including trade secrets, belonging to Gaussian, Inc.
  
 This software is provided under written license and may be
 used, copied, transmitted, or stored only in accord with that
 written license.
  
 The following legend is applicable only to US Government
 contracts under FAR:
  
                    RESTRICTED RIGHTS LEGEND
  
 Use, reproduction and disclosure by the US Government is
 subject to restrictions as set forth in subparagraphs (a)
 and (c) of the Commercial Computer Software - Restricted
 Rights clause in FAR 52.227-19.
  
 Gaussian, Inc.
 340 Quinnipiac St., Bldg. 40, Wallingford CT 06492
  
  
 ---------------------------------------------------------------
 Warning -- This program may not be used in any manner that
 competes with the business of Gaussian, Inc. or will provide
 assistance to any competitor of Gaussian, Inc.  The licensee
 of this program is prohibited from giving any competitor of
 Gaussian, Inc. access to this program.  By using this program,
 the user acknowledges that Gaussian, Inc. is engaged in the
 business of creating and licensing software in the field of
 computational chemistry and represents and warrants to the
 licensee that it is not a competitor of Gaussian, Inc. and that
 it will not use this program in any manner prohibited above.
 ---------------------------------------------------------------
  

 Cite this work as:
 Gaussian 16, Revision A.03,
 M. J. Frisch, G. W. Trucks, H. B. Schlegel, G. E. Scuseria, 
 M. A. Robb, J. R. Cheeseman, G. Scalmani, V. Barone, 
 G. A. Petersson, H. Nakatsuji, X. Li, M. Caricato, A. V. Marenich, 
 J. Bloino, B. G. Janesko, R. Gomperts, B. Mennucci, H. P. Hratchian, 
 J. V. Ortiz, A. F. Izmaylov, J. L. Sonnenberg, D. Williams-Young, 
 F. Ding, F. Lipparini, F. Egidi, J. Goings, B. Peng, A. Petrone, 
 T. Henderson, D. Ranasinghe, V. G. Zakrzewski, J. Gao, N. Rega, 
 G. Zheng, W. Liang, M. Hada, M. Ehara, K. Toyota, R. Fukuda, 
 J. Hasegawa, M. Ishida, T. Nakajima, Y. Honda, O. Kitao, H. Nakai, 
 T. Vreven, K. Throssell, J. A. Montgomery, Jr., J. E. Peralta, 
 F. Ogliaro, M. J. Bearpark, J. J. Heyd, E. N. Brothers, K. N. Kudin, 
 V. N. Staroverov, T. A. Keith, R. Kobayashi, J. Normand, 
 K. Raghavachari, A. P. Rendell, J. C. Burant, S. S. Iyengar, 
 J. Tomasi, M. Cossi, J. M. Millam, M. Klene, C. Adamo, R. Cammi, 
 J. W. Ochterski, R. L. Martin, K. Morokuma, O. Farkas, 
 J. B. Foresman, and D. J. Fox, Gaussian, Inc., Wallingford CT, 2016.
 
 ******************************************
 Gaussian 16:  EM64W-G16RevA.03 17-Dec-2016
                03-Dec-2025 
 ******************************************
 %nprocs=   4
 Will use up to    4 processors via shared memory.
 ------------------------------------
 #P B3LYP/6-31G* SCF=conver=7 out=wfn
 ------------------------------------
 1/38=1,172=1/1;
 2/12=2,17=6,18=5,40=1/2;
 3/5=1,6=6,7=1,11=2,25=1,30=1,74=-5/1,2,3;
 4//1;
 5/5=2,6=7,38=5/2;
 6/7=2,8=2,9=2,10=2,28=1/1;
 99/5=1,6=100,9=1/99;
 Leave Link    1 at Wed Dec 03 17:04:50 2025, MaxMem=           0 cpu:               1.0 elap:               0.1
 (Enter D:\Gaussian\G16W\l101.exe)
 ----------------------------------------------------
 Generated by Multiwfn (http://sobereva.com/multiwfn)
 ----------------------------------------------------
 Symbolic Z-matrix:
 Charge = -1 Multiplicity = 2
 C                     0.91883   1.23084  -0.00028 
 C                    -0.48058   1.18356  -0.00011 
 C                    -1.10004  -0.06531   0.00009 
 C                    -0.32451  -1.23121   0.00005 
 C                     1.0609   -1.16316  -0.00014 
 C                     1.70585   0.07999  -0.00024 
 H                     1.6423   -2.08196  -0.00024 
 O                    -1.04529  -2.40692   0.00008 
 O                    -2.46562  -0.14311   0.00016 
 H                    -0.44425  -3.15755  -0.0001 
 C                    -1.32613   2.43004  -0.00027 
 H                    -0.70136   3.32484  -0.00062 
 H                    -1.97923   2.46396   0.87685 
 H                    -1.97959   2.46349  -0.87713 
 H                    -2.70349  -1.07894   0.00017 
 H                     1.40248   2.2027   -0.00051 
 C                     3.21447   0.15739   0.00048 
 H                     3.64062  -0.32483   0.88645 
 H                     3.64226  -0.33909  -0.87672 
 H                     3.5548    1.19477  -0.0075 
 
 ITRead=  0  0  0  0  0  0  0  0  0  0  0  0  0  0  0  0  0  0  0  0
 MicOpt= -1 -1 -1 -1 -1 -1 -1 -1 -1 -1 -1 -1 -1 -1 -1 -1 -1 -1 -1 -1
 NAtoms=     20 NQM=       20 NQMF=       0 NMMI=      0 NMMIF=      0
                NMic=       0 NMicF=      0.
                    Isotopes and Nuclear Properties:
 (Nuclear quadrupole moments (NQMom) in fm**2, nuclear magnetic moments (NMagM)
  in nuclear magnetons)

  Atom         1           2           3           4           5           6           7           8           9          10
 IAtWgt=          12          12          12          12          12          12           1          16          16           1
 AtmWgt=  12.0000000  12.0000000  12.0000000  12.0000000  12.0000000  12.0000000   1.0078250  15.9949146  15.9949146   1.0078250
 NucSpn=           0           0           0           0           0           0           1           0           0           1
 AtZEff=   0.0000000   0.0000000   0.0000000   0.0000000   0.0000000   0.0000000   0.0000000   0.0000000   0.0000000   0.0000000
 NQMom=    0.0000000   0.0000000   0.0000000   0.0000000   0.0000000   0.0000000   0.0000000   0.0000000   0.0000000   0.0000000
 NMagM=    0.0000000   0.0000000   0.0000000   0.0000000   0.0000000   0.0000000   2.7928460   0.0000000   0.0000000   2.7928460
 AtZNuc=   6.0000000   6.0000000   6.0000000   6.0000000   6.0000000   6.0000000   1.0000000   8.0000000   8.0000000   1.0000000

  Atom        11          12          13          14          15          16          17          18          19          20
 IAtWgt=          12           1           1           1           1           1          12           1           1           1
 AtmWgt=  12.0000000   1.0078250   1.0078250   1.0078250   1.0078250   1.0078250  12.0000000   1.0078250   1.0078250   1.0078250
 NucSpn=           0           1           1           1           1           1           0           1           1           1
 AtZEff=   0.0000000   0.0000000   0.0000000   0.0000000   0.0000000   0.0000000   0.0000000   0.0000000   0.0000000   0.0000000
 NQMom=    0.0000000   0.0000000   0.0000000   0.0000000   0.0000000   0.0000000   0.0000000   0.0000000   0.0000000   0.0000000
 NMagM=    0.0000000   2.7928460   2.7928460   2.7928460   2.7928460   2.7928460   0.0000000   2.7928460   2.7928460   2.7928460
 AtZNuc=   6.0000000   1.0000000   1.0000000   1.0000000   1.0000000   1.0000000   6.0000000   1.0000000   1.0000000   1.0000000
 Leave Link  101 at Wed Dec 03 17:04:50 2025, MaxMem=   104857600 cpu:               0.0 elap:               0.1
 (Enter D:\Gaussian\G16W\l202.exe)
                          Input orientation:                          
 ---------------------------------------------------------------------
 Center     Atomic      Atomic             Coordinates (Angstroms)
 Number     Number       Type             X           Y           Z
 ---------------------------------------------------------------------
      1          6           0        0.918831    1.230840   -0.000284
      2          6           0       -0.480580    1.183555   -0.000110
      3          6           0       -1.100036   -0.065309    0.000092
      4          6           0       -0.324510   -1.231209    0.000046
      5          6           0        1.060899   -1.163162   -0.000137
      6          6           0        1.705846    0.079990   -0.000239
      7          1           0        1.642304   -2.081958   -0.000238
      8          8           0       -1.045289   -2.406916    0.000079
      9          8           0       -2.465620   -0.143107    0.000156
     10          1           0       -0.444246   -3.157546   -0.000103
     11          6           0       -1.326132    2.430042   -0.000265
     12          1           0       -0.701359    3.324839   -0.000623
     13          1           0       -1.979225    2.463956    0.876850
     14          1           0       -1.979587    2.463493   -0.877127
     15          1           0       -2.703490   -1.078942    0.000165
     16          1           0        1.402482    2.202703   -0.000509
     17          6           0        3.214469    0.157385    0.000476
     18          1           0        3.640620   -0.324831    0.886446
     19          1           0        3.642263   -0.339086   -0.876715
     20          1           0        3.554795    1.194765   -0.007498
 ---------------------------------------------------------------------
                    Distance matrix (angstroms):
                    1          2          3          4          5
     1  C    0.000000
     2  C    1.400210   0.000000
     3  C    2.399130   1.394054   0.000000
     4  C    2.758185   2.419802   1.400273   0.000000
     5  C    2.398214   2.807710   2.423824   1.387079   0.000000
     6  C    1.394220   2.449146   2.809642   2.416938   1.400494
     7  H    3.390877   3.894896   3.404013   2.142926   1.087298
     8  O    4.134131   3.634608   2.342247   1.379061   2.446007
     9  O    3.652703   2.387554   1.367798   2.401732   3.671083
    10  H    4.595205   4.341253   3.161011   1.930055   2.498605
    11  C    2.545181   1.506216   2.505573   3.795788   4.313819
    12  H    2.647612   2.152636   3.413510   4.571607   4.821588
    13  H    3.269353   2.157411   2.817598   4.142597   4.813257
    14  H    3.269421   2.157411   2.817439   4.142407   4.813138
    15  H    4.296080   3.171785   1.896976   2.383848   3.765331
    16  H    1.085558   2.141164   3.377347   3.843729   3.383153
    17  C    2.534218   3.834894   4.320248   3.801653   2.526204
    18  H    3.257996   4.477220   4.829782   4.162869   2.853732
    19  H    3.263416   4.481596   4.830439   4.159313   2.847970
    20  H    2.636221   4.035397   4.822374   4.575414   3.432112
                    6          7          8          9         10
     6  C    0.000000
     7  H    2.162882   0.000000
     8  O    3.708564   2.707167   0.000000
     9  O    4.177428   4.542486   2.672484   0.000000
    10  H    3.886455   2.347463   0.961612   3.629435   0.000000
    11  C    3.836096   5.400903   4.845104   2.814166   5.656754
    12  H    4.040258   5.892895   5.742064   3.890921   6.487482
    13  H    4.475749   5.877932   5.036503   2.793197   5.892919
    14  H    4.475761   5.877768   5.036198   2.792887   5.892582
    15  H    4.559097   4.460041   2.124417   0.965593   3.069980
    16  H    2.144281   4.291367   5.219212   4.523830   5.669451
    17  C    1.510607   2.736121   4.972040   5.688032   4.937101
    18  H    2.166435   2.804812   5.203697   6.172900   5.049393
    19  H    2.166459   2.793859   5.197868   6.173617   5.041004
    20  H    2.159025   3.794020   5.842340   6.167281   5.910583
                   11         12         13         14         15
    11  C    0.000000
    12  H    1.091331   0.000000
    13  H    1.094080   1.773138   0.000000
    14  H    1.094079   1.773145   1.753977   0.000000
    15  H    3.769627   4.837542   3.720922   3.720554   0.000000
    16  H    2.738068   2.384394   3.503420   3.503550   5.256253
    17  C    5.077601   5.036514   5.750022   5.750351   6.045721
    18  H    5.748409   5.741059   6.273761   6.517029   6.449954
    19  H    5.755101   5.749690   6.521745   6.281691   6.448634
    20  H    5.034820   4.759423   5.746155   5.744154   6.658523
                   16         17         18         19         20
    16  H    0.000000
    17  C    2.732512   0.000000
    18  H    3.490613   1.095025   0.000000
    19  H    3.499292   1.094968   1.763219   0.000000
    20  H    2.376645   1.091807   1.765127   1.765188   0.000000
 Stoichiometry    C8H10O2(1-,2)
 Framework group  C1[X(C8H10O2)]
 Deg. of freedom    54
 Full point group                 C1      NOp   1
 Largest Abelian subgroup         C1      NOp   1
 Largest concise Abelian subgroup C1      NOp   1
                         Standard orientation:                         
 ---------------------------------------------------------------------
 Center     Atomic      Atomic             Coordinates (Angstroms)
 Number     Number       Type             X           Y           Z
 ---------------------------------------------------------------------
      1          6           0        0.918831    1.230840   -0.000284
      2          6           0       -0.480580    1.183555   -0.000110
      3          6           0       -1.100036   -0.065309    0.000092
      4          6           0       -0.324510   -1.231209    0.000046
      5          6           0        1.060899   -1.163162   -0.000137
      6          6           0        1.705846    0.079990   -0.000239
      7          1           0        1.642304   -2.081958   -0.000238
      8          8           0       -1.045289   -2.406916    0.000079
      9          8           0       -2.465620   -0.143107    0.000156
     10          1           0       -0.444246   -3.157546   -0.000103
     11          6           0       -1.326132    2.430042   -0.000265
     12          1           0       -0.701359    3.324839   -0.000623
     13          1           0       -1.979225    2.463956    0.876850
     14          1           0       -1.979587    2.463493   -0.877127
     15          1           0       -2.703490   -1.078942    0.000165
     16          1           0        1.402482    2.202703   -0.000509
     17          6           0        3.214469    0.157385    0.000476
     18          1           0        3.640620   -0.324831    0.886446
     19          1           0        3.642263   -0.339086   -0.876715
     20          1           0        3.554795    1.194765   -0.007498
 ---------------------------------------------------------------------
 Rotational constants (GHZ):           1.7929805           1.2627976           0.7477819
 Leave Link  202 at Wed Dec 03 17:04:50 2025, MaxMem=   104857600 cpu:               0.0 elap:               0.1
 (Enter D:\Gaussian\G16W\l301.exe)
 Standard basis: 6-31G(d) (6D, 7F)
 Ernie: Thresh=  0.10000D-02 Tol=  0.10000D-05 Strict=F.
 There are   170 symmetry adapted cartesian basis functions of A   symmetry.
 There are   170 symmetry adapted basis functions of A   symmetry.
   170 basis functions,   320 primitive gaussians,   170 cartesian basis functions
    38 alpha electrons       37 beta electrons
       nuclear repulsion energy       518.4505527102 Hartrees.
 IExCor=  402 DFT=T Ex+Corr=B3LYP ExCW=0 ScaHFX=  0.200000
 ScaDFX=  0.800000  0.720000  1.000000  0.810000 ScalE2=  1.000000  1.000000
 IRadAn=      5 IRanWt=     -1 IRanGd=            0 ICorTp=0 IEmpDi=  4
 NAtoms=   20 NActive=   20 NUniq=   20 SFac= 1.00D+00 NAtFMM=   60 NAOKFM=F Big=F
 Integral buffers will be    131072 words long.
 Raffenetti 2 integral format.
 Two-electron integral symmetry is turned on.
 Leave Link  301 at Wed Dec 03 17:04:50 2025, MaxMem=   104857600 cpu:               0.0 elap:               0.1
 (Enter D:\Gaussian\G16W\l302.exe)
 NPDir=0 NMtPBC=     1 NCelOv=     1 NCel=       1 NClECP=     1 NCelD=      1
         NCelK=      1 NCelE2=     1 NClLst=     1 CellRange=     0.0.
 One-electron integrals computed using PRISM.
 One-electron integral symmetry used in STVInt
 NBasis=   170 RedAO= T EigKep=  3.38D-04  NBF=   170
 NBsUse=   170 1.00D-06 EigRej= -1.00D+00 NBFU=   170
 Precomputing XC quadrature grid using
 IXCGrd= 4 IRadAn=           5 IRanWt=          -1 IRanGd=           0 AccXCQ= 0.00D+00.
 Generated NRdTot=       0 NPtTot=           0 NUsed=           0 NTot=          32
 NSgBfM=   170   170   170   170   170 MxSgAt=    20 MxSgA2=    20.
 Leave Link  302 at Wed Dec 03 17:04:50 2025, MaxMem=   104857600 cpu:               0.0 elap:               0.4
 (Enter D:\Gaussian\G16W\l303.exe)
 DipDrv:  MaxL=1.
 Leave Link  303 at Wed Dec 03 17:04:50 2025, MaxMem=   104857600 cpu:               0.0 elap:               0.1
 (Enter D:\Gaussian\G16W\l401.exe)
 ExpMin= 1.61D-01 ExpMax= 5.48D+03 ExpMxC= 8.25D+02 IAcc=3 IRadAn=         5 AccDes= 0.00D+00
 Harris functional with IExCor=  402 and IRadAn=       5 diagonalized for initial guess.
 HarFok:  IExCor=  402 AccDes= 0.00D+00 IRadAn=         5 IDoV= 1 UseB2=F ITyADJ=14
 ICtDFT=  3500011 ScaDFX=  1.000000  1.000000  1.000000  1.000000
 FoFCou: FMM=F IPFlag=           0 FMFlag=      100000 FMFlg1=           0
         NFxFlg=           0 DoJE=T BraDBF=F KetDBF=T FulRan=T
         wScrn=  0.000000 ICntrl=       500 IOpCl=  0 I1Cent=   200000004 NGrid=           0
         NMat0=    1 NMatS0=      1 NMatT0=    0 NMatD0=    1 NMtDS0=    0 NMtDT0=    0
 Petite list used in FoFCou.
 Harris En= -461.504541270694    
 JPrj=0 DoOrth=F DoCkMO=F.
 Initial guess <Sx>= 0.0000 <Sy>= 0.0000 <Sz>= 0.5000 <S**2>= 0.7500 S= 0.5000
 Leave Link  401 at Wed Dec 03 17:04:52 2025, MaxMem=   104857600 cpu:               2.0 elap:               1.2
 (Enter D:\Gaussian\G16W\l502.exe)
 Integral symmetry usage will be decided dynamically.
 UHF open shell SCF:
 Using DIIS extrapolation, IDIIS=  1040.
 NGot=   104857600 LenX=   104796738 LenY=   104767397
 Requested convergence on RMS density matrix=1.00D-07 within 128 cycles.
 Requested convergence on MAX density matrix=1.00D-05.
 Requested convergence on             energy=1.00D-05.
 No special actions if energy rises.
 Fock matrices will be formed incrementally for  20 cycles.
 Integral accuracy reduced to 1.0D-05 until final iterations.

 Cycle   1  Pass 0  IDiag  1:
 FoFJK:  IHMeth= 1 ICntrl=       0 DoSepK=F KAlg= 0 I1Cent=           0 FoldK=F
 IRaf= 930000000 NMat=       1 IRICut=       1 DoRegI=T DoRafI=F ISym2E= 0 IDoP0=0 IntGTp=1.
 FoFCou: FMM=F IPFlag=           0 FMFlag=      100000 FMFlg1=           0
         NFxFlg=           0 DoJE=F BraDBF=F KetDBF=F FulRan=T
         wScrn=  0.000000 ICntrl=         0 IOpCl=  1 I1Cent=           0 NGrid=           0
         NMat0=    1 NMatS0=      1 NMatT0=    0 NMatD0=    1 NMtDS0=    0 NMtDT0=    0
 Symmetry not used in FoFCou.
 E= -460.801999115608    
 DIIS: error= 4.80D-02 at cycle   1 NSaved=   1.
 NSaved= 1 IEnMin= 1 EnMin= -460.801999115608     IErMin= 1 ErrMin= 4.80D-02
 ErrMax= 4.80D-02  0.00D+00 EMaxC= 1.00D-01 BMatC= 1.59D+00 BMatP= 1.59D+00
 IDIUse=3 WtCom= 5.20D-01 WtEn= 4.80D-01
 Coeff-Com:  0.100D+01
 Coeff-En:   0.100D+01
 Coeff:      0.100D+01
 Gap=     0.060 Goal=   None    Shift=    0.000
 Gap=     0.257 Goal=   None    Shift=    0.000
 GapD=    0.060 DampG=0.500 DampE=0.500 DampFc=0.2500 IDamp=-1.
 Damping current iteration by 2.50D-01
 RMSDP=2.31D-02 MaxDP=2.29D+00              OVMax= 9.84D-01

 Cycle   2  Pass 0  IDiag  1:
 RMSU=  5.76D-03    CP:  9.91D-01
 E= -460.959631017817     Delta-E=       -0.157631902208 Rises=F Damp=T
 DIIS: error= 2.28D-02 at cycle   2 NSaved=   2.
 NSaved= 2 IEnMin= 2 EnMin= -460.959631017817     IErMin= 2 ErrMin= 2.28D-02
 ErrMax= 2.28D-02  0.00D+00 EMaxC= 1.00D-01 BMatC= 3.54D-01 BMatP= 1.59D+00
 IDIUse=3 WtCom= 7.72D-01 WtEn= 2.28D-01
 Coeff-Com: -0.723D+00 0.172D+01
 Coeff-En:   0.000D+00 0.100D+01
 Coeff:     -0.558D+00 0.156D+01
 Gap=     0.041 Goal=   None    Shift=    0.000
 Gap=     0.302 Goal=   None    Shift=    0.000
 RMSDP=6.50D-03 MaxDP=5.33D-01 DE=-1.58D-01 OVMax= 9.79D-01

 Cycle   3  Pass 0  IDiag  1:
 RMSU=  5.03D-03    CP:  9.74D-01  2.90D-01
 E= -461.179478956792     Delta-E=       -0.219847938975 Rises=F Damp=F
 DIIS: error= 1.77D-02 at cycle   3 NSaved=   3.
 NSaved= 3 IEnMin= 3 EnMin= -461.179478956792     IErMin= 3 ErrMin= 1.77D-02
 ErrMax= 1.77D-02  0.00D+00 EMaxC= 1.00D-01 BMatC= 2.14D-01 BMatP= 3.54D-01
 IDIUse=3 WtCom= 8.23D-01 WtEn= 1.77D-01
 Coeff-Com: -0.462D+00 0.109D+01 0.372D+00
 Coeff-En:   0.000D+00 0.000D+00 0.100D+01
 Coeff:     -0.380D+00 0.897D+00 0.483D+00
 Gap=     0.059 Goal=   None    Shift=    0.000
 Gap=     0.237 Goal=   None    Shift=    0.000
 RMSDP=2.04D-03 MaxDP=6.10D-02 DE=-2.20D-01 OVMax= 9.60D-02

 Cycle   4  Pass 0  IDiag  1:
 RMSU=  1.90D-03    CP:  9.79D-01  3.28D-01  8.58D-01
 E= -461.227732665927     Delta-E=       -0.048253709136 Rises=F Damp=F
 DIIS: error= 4.98D-03 at cycle   4 NSaved=   4.
 NSaved= 4 IEnMin= 4 EnMin= -461.227732665927     IErMin= 4 ErrMin= 4.98D-03
 ErrMax= 4.98D-03  0.00D+00 EMaxC= 1.00D-01 BMatC= 2.88D-02 BMatP= 2.14D-01
 IDIUse=3 WtCom= 9.50D-01 WtEn= 4.98D-02
 Coeff-Com: -0.174D+00 0.349D+00 0.248D+00 0.576D+00
 Coeff-En:   0.000D+00 0.000D+00 0.185D-01 0.981D+00
 Coeff:     -0.165D+00 0.332D+00 0.237D+00 0.597D+00
 Gap=     0.047 Goal=   None    Shift=    0.000
 Gap=     0.220 Goal=   None    Shift=    0.000
 RMSDP=6.44D-04 MaxDP=1.86D-02 DE=-4.83D-02 OVMax= 3.53D-02

 Cycle   5  Pass 0  IDiag  1:
 RMSU=  5.36D-04    CP:  9.78D-01  3.37D-01  8.88D-01  8.31D-01
 E= -461.232742984571     Delta-E=       -0.005010318644 Rises=F Damp=F
 DIIS: error= 2.53D-03 at cycle   5 NSaved=   5.
 NSaved= 5 IEnMin= 5 EnMin= -461.232742984571     IErMin= 5 ErrMin= 2.53D-03
 ErrMax= 2.53D-03  0.00D+00 EMaxC= 1.00D-01 BMatC= 4.07D-03 BMatP= 2.88D-02
 IDIUse=3 WtCom= 9.75D-01 WtEn= 2.53D-02
 Coeff-Com: -0.731D-01 0.117D+00 0.498D-01 0.279D+00 0.627D+00
 Coeff-En:   0.000D+00 0.000D+00 0.000D+00 0.748D-01 0.925D+00
 Coeff:     -0.713D-01 0.114D+00 0.485D-01 0.274D+00 0.635D+00
 Gap=     0.052 Goal=   None    Shift=    0.000
 Gap=     0.206 Goal=   None    Shift=    0.000
 RMSDP=3.77D-04 MaxDP=1.11D-02 DE=-5.01D-03 OVMax= 2.60D-02

 Cycle   6  Pass 0  IDiag  1:
 RMSU=  2.78D-04    CP:  9.78D-01  3.45D-01  8.86D-01  9.40D-01  7.37D-01
 E= -461.233462485318     Delta-E=       -0.000719500747 Rises=F Damp=F
 DIIS: error= 1.18D-03 at cycle   6 NSaved=   6.
 NSaved= 6 IEnMin= 6 EnMin= -461.233462485318     IErMin= 6 ErrMin= 1.18D-03
 ErrMax= 1.18D-03  0.00D+00 EMaxC= 1.00D-01 BMatC= 1.66D-03 BMatP= 4.07D-03
 IDIUse=3 WtCom= 9.88D-01 WtEn= 1.18D-02
 Coeff-Com: -0.280D-01 0.345D-01-0.198D-01 0.664D-01 0.464D+00 0.483D+00
 Coeff-En:   0.000D+00 0.000D+00 0.000D+00 0.000D+00 0.269D+00 0.731D+00
 Coeff:     -0.277D-01 0.341D-01-0.195D-01 0.656D-01 0.462D+00 0.486D+00
 Gap=     0.055 Goal=   None    Shift=    0.000
 Gap=     0.205 Goal=   None    Shift=    0.000
 RMSDP=1.83D-04 MaxDP=4.22D-03 DE=-7.20D-04 OVMax= 1.07D-02

 Cycle   7  Pass 0  IDiag  1:
 RMSU=  7.95D-05    CP:  9.78D-01  3.47D-01  8.89D-01  9.25D-01  9.33D-01
                    CP:  5.62D-01
 E= -461.233909973480     Delta-E=       -0.000447488162 Rises=F Damp=F
 DIIS: error= 2.52D-04 at cycle   7 NSaved=   7.
 NSaved= 7 IEnMin= 7 EnMin= -461.233909973480     IErMin= 7 ErrMin= 2.52D-04
 ErrMax= 2.52D-04  0.00D+00 EMaxC= 1.00D-01 BMatC= 7.19D-05 BMatP= 1.66D-03
 IDIUse=3 WtCom= 9.97D-01 WtEn= 2.52D-03
 Coeff-Com: -0.772D-02 0.838D-02-0.171D-01-0.810D-02 0.126D+00 0.213D+00
 Coeff-Com:  0.686D+00
 Coeff-En:   0.000D+00 0.000D+00 0.000D+00 0.000D+00 0.000D+00 0.000D+00
 Coeff-En:   0.100D+01
 Coeff:     -0.770D-02 0.836D-02-0.171D-01-0.808D-02 0.125D+00 0.213D+00
 Coeff:      0.686D+00
 Gap=     0.056 Goal=   None    Shift=    0.000
 Gap=     0.205 Goal=   None    Shift=    0.000
 RMSDP=5.89D-05 MaxDP=1.81D-03 DE=-4.47D-04 OVMax= 5.47D-03

 Cycle   8  Pass 0  IDiag  1:
 RMSU=  4.24D-05    CP:  9.78D-01  3.48D-01  8.91D-01  9.33D-01  9.33D-01
                    CP:  6.96D-01  9.97D-01
 E= -461.233934547356     Delta-E=       -0.000024573876 Rises=F Damp=F
 DIIS: error= 1.31D-04 at cycle   8 NSaved=   8.
 NSaved= 8 IEnMin= 8 EnMin= -461.233934547356     IErMin= 8 ErrMin= 1.31D-04
 ErrMax= 1.31D-04  0.00D+00 EMaxC= 1.00D-01 BMatC= 1.74D-05 BMatP= 7.19D-05
 IDIUse=3 WtCom= 9.99D-01 WtEn= 1.31D-03
 Coeff-Com:  0.153D-02-0.227D-02-0.435D-02-0.165D-01-0.441D-01-0.111D-01
 Coeff-Com:  0.359D+00 0.718D+00
 Coeff-En:   0.000D+00 0.000D+00 0.000D+00 0.000D+00 0.000D+00 0.000D+00
 Coeff-En:   0.000D+00 0.100D+01
 Coeff:      0.152D-02-0.227D-02-0.434D-02-0.164D-01-0.441D-01-0.111D-01
 Coeff:      0.358D+00 0.718D+00
 Gap=     0.057 Goal=   None    Shift=    0.000
 Gap=     0.204 Goal=   None    Shift=    0.000
 RMSDP=3.04D-05 MaxDP=8.12D-04 DE=-2.46D-05 OVMax= 2.42D-03

 Cycle   9  Pass 0  IDiag  1:
 RMSU=  2.01D-05    CP:  9.78D-01  3.48D-01  8.90D-01  9.34D-01  9.54D-01
                    CP:  7.34D-01  1.19D+00  1.13D+00
 E= -461.233942217705     Delta-E=       -0.000007670349 Rises=F Damp=F
 DIIS: error= 5.55D-05 at cycle   9 NSaved=   9.
 NSaved= 9 IEnMin= 9 EnMin= -461.233942217705     IErMin= 9 ErrMin= 5.55D-05
 ErrMax= 5.55D-05  0.00D+00 EMaxC= 1.00D-01 BMatC= 1.73D-06 BMatP= 1.74D-05
 IDIUse=1 WtCom= 1.00D+00 WtEn= 0.00D+00
 Coeff-Com:  0.195D-02-0.235D-02 0.140D-02-0.401D-02-0.372D-01-0.426D-01
 Coeff-Com:  0.350D-01 0.210D+00 0.838D+00
 Coeff:      0.195D-02-0.235D-02 0.140D-02-0.401D-02-0.372D-01-0.426D-01
 Coeff:      0.350D-01 0.210D+00 0.838D+00
 Gap=     0.057 Goal=   None    Shift=    0.000
 Gap=     0.204 Goal=   None    Shift=    0.000
 RMSDP=2.65D-05 MaxDP=8.40D-04 DE=-7.67D-06 OVMax= 3.27D-03

 Cycle  10  Pass 0  IDiag  1:
 RMSU=  1.20D-05    CP:  9.78D-01  3.48D-01  8.91D-01  9.34D-01  9.61D-01
                    CP:  7.64D-01  1.30D+00  1.56D+00  1.38D+00
 E= -461.233944253566     Delta-E=       -0.000002035861 Rises=F Damp=F
 DIIS: error= 5.51D-05 at cycle  10 NSaved=  10.
 NSaved=10 IEnMin=10 EnMin= -461.233944253566     IErMin=10 ErrMin= 5.51D-05
 ErrMax= 5.51D-05  0.00D+00 EMaxC= 1.00D-01 BMatC= 1.73D-06 BMatP= 1.73D-06
 IDIUse=1 WtCom= 1.00D+00 WtEn= 0.00D+00
 Coeff-Com:  0.924D-03-0.991D-03 0.209D-02 0.156D-02-0.144D-01-0.257D-01
 Coeff-Com: -0.437D-01-0.414D-01 0.589D+00 0.532D+00
 Coeff:      0.924D-03-0.991D-03 0.209D-02 0.156D-02-0.144D-01-0.257D-01
 Coeff:     -0.437D-01-0.414D-01 0.589D+00 0.532D+00
 Gap=     0.057 Goal=   None    Shift=    0.000
 Gap=     0.204 Goal=   None    Shift=    0.000
 RMSDP=1.36D-05 MaxDP=4.16D-04 DE=-2.04D-06 OVMax= 1.63D-03

 Cycle  11  Pass 0  IDiag  1:
 RMSU=  4.11D-06    CP:  9.78D-01  3.48D-01  8.91D-01  9.33D-01  9.65D-01
                    CP:  7.77D-01  1.35D+00  1.74D+00  1.74D+00  1.32D+00
 E= -461.233945318769     Delta-E=       -0.000001065204 Rises=F Damp=F
 DIIS: error= 2.40D-05 at cycle  11 NSaved=  11.
 NSaved=11 IEnMin=11 EnMin= -461.233945318769     IErMin=11 ErrMin= 2.40D-05
 ErrMax= 2.40D-05  0.00D+00 EMaxC= 1.00D-01 BMatC= 3.15D-07 BMatP= 1.73D-06
 IDIUse=1 WtCom= 1.00D+00 WtEn= 0.00D+00
 Coeff-Com: -0.205D-03 0.127D-03-0.370D-03 0.131D-02 0.917D-02 0.114D-01
 Coeff-Com:  0.476D-02-0.106D+00-0.153D+00-0.296D+00 0.153D+01
 Coeff:     -0.205D-03 0.127D-03-0.370D-03 0.131D-02 0.917D-02 0.114D-01
 Coeff:      0.476D-02-0.106D+00-0.153D+00-0.296D+00 0.153D+01
 Gap=     0.057 Goal=   None    Shift=    0.000
 Gap=     0.204 Goal=   None    Shift=    0.000
 RMSDP=2.67D-05 MaxDP=8.35D-04 DE=-1.07D-06 OVMax= 3.40D-03

 Cycle  12  Pass 0  IDiag  1:
 RMSU=  3.15D-06    CP:  9.78D-01  3.48D-01  8.92D-01  9.32D-01  9.70D-01
                    CP:  8.02D-01  1.43D+00  2.14D+00  2.35D+00  2.30D+00
                    CP:  2.17D+00
 E= -461.233946423330     Delta-E=       -0.000001104561 Rises=F Damp=F
 DIIS: error= 2.01D-05 at cycle  12 NSaved=  12.
 NSaved=12 IEnMin=12 EnMin= -461.233946423330     IErMin=12 ErrMin= 2.01D-05
 ErrMax= 2.01D-05  0.00D+00 EMaxC= 1.00D-01 BMatC= 2.33D-07 BMatP= 3.15D-07
 IDIUse=1 WtCom= 1.00D+00 WtEn= 0.00D+00
 Coeff-Com: -0.369D-03 0.403D-03-0.937D-03-0.957D-04 0.574D-02 0.102D-01
 Coeff-Com:  0.283D-01-0.259D-01-0.163D+00-0.464D+00 0.548D+00 0.106D+01
 Coeff:     -0.369D-03 0.403D-03-0.937D-03-0.957D-04 0.574D-02 0.102D-01
 Coeff:      0.283D-01-0.259D-01-0.163D+00-0.464D+00 0.548D+00 0.106D+01
 Gap=     0.057 Goal=   None    Shift=    0.000
 Gap=     0.204 Goal=   None    Shift=    0.000
 RMSDP=1.97D-05 MaxDP=6.03D-04 DE=-1.10D-06 OVMax= 2.50D-03

 Cycle  13  Pass 0  IDiag  1:
 RMSU=  2.04D-06    CP:  9.78D-01  3.48D-01  8.92D-01  9.31D-01  9.74D-01
                    CP:  8.19D-01  1.48D+00  2.42D+00  2.80D+00  3.00D+00
                    CP:  3.00D+00  1.64D+00
 E= -461.233946944578     Delta-E=       -0.000000521247 Rises=F Damp=F
 DIIS: error= 1.18D-05 at cycle  13 NSaved=  13.
 NSaved=13 IEnMin=13 EnMin= -461.233946944578     IErMin=13 ErrMin= 1.18D-05
 ErrMax= 1.18D-05  0.00D+00 EMaxC= 1.00D-01 BMatC= 9.03D-08 BMatP= 2.33D-07
 IDIUse=1 WtCom= 1.00D+00 WtEn= 0.00D+00
 Coeff-Com: -0.931D-04 0.134D-03-0.594D-03-0.105D-02-0.290D-02-0.982D-03
 Coeff-Com:  0.229D-01 0.413D-01 0.180D-01-0.237D+00-0.473D+00 0.603D+00
 Coeff-Com:  0.103D+01
 Coeff:     -0.931D-04 0.134D-03-0.594D-03-0.105D-02-0.290D-02-0.982D-03
 Coeff:      0.229D-01 0.413D-01 0.180D-01-0.237D+00-0.473D+00 0.603D+00
 Coeff:      0.103D+01
 Gap=     0.057 Goal=   None    Shift=    0.000
 Gap=     0.204 Goal=   None    Shift=    0.000
 RMSDP=2.00D-05 MaxDP=6.05D-04 DE=-5.21D-07 OVMax= 2.55D-03

 Cycle  14  Pass 0  IDiag  1:
 RMSU=  1.01D-05    CP:  9.78D-01  3.48D-01  8.93D-01  9.30D-01  9.79D-01
                    CP:  8.37D-01  1.54D+00  2.71D+00  3.00D+00  3.00D+00
                    CP:  3.00D+00  2.55D+00  3.00D+00
 E= -461.233947199386     Delta-E=       -0.000000254809 Rises=F Damp=F
 DIIS: error= 7.54D-06 at cycle  14 NSaved=  14.
 NSaved=14 IEnMin=14 EnMin= -461.233947199386     IErMin=14 ErrMin= 7.54D-06
 ErrMax= 7.54D-06  0.00D+00 EMaxC= 1.00D-01 BMatC= 2.25D-08 BMatP= 9.03D-08
 IDIUse=1 WtCom= 1.00D+00 WtEn= 0.00D+00
 Coeff-Com:  0.996D-04-0.120D-03 0.466D-04-0.297D-03-0.283D-02-0.348D-02
 Coeff-Com: -0.108D-02 0.148D-01 0.675D-01 0.356D-01-0.261D+00-0.252D+00
 Coeff-Com:  0.340D+00 0.106D+01
 Coeff:      0.996D-04-0.120D-03 0.466D-04-0.297D-03-0.283D-02-0.348D-02
 Coeff:     -0.108D-02 0.148D-01 0.675D-01 0.356D-01-0.261D+00-0.252D+00
 Coeff:      0.340D+00 0.106D+01
 Gap=     0.057 Goal=   None    Shift=    0.000
 Gap=     0.204 Goal=   None    Shift=    0.000
 RMSDP=1.11D-05 MaxDP=3.38D-04 DE=-2.55D-07 OVMax= 1.40D-03

 Cycle  15  Pass 0  IDiag  1:
 RMSU=  3.21D-06    CP:  9.78D-01  3.48D-01  8.93D-01  9.30D-01  9.81D-01
                    CP:  8.47D-01  1.57D+00  2.86D+00  3.00D+00  3.00D+00
                    CP:  3.00D+00  3.00D+00  3.00D+00  1.68D+00
 E= -461.233947246669     Delta-E=       -0.000000047283 Rises=F Damp=F
 DIIS: error= 2.91D-06 at cycle  15 NSaved=  15.
 NSaved=15 IEnMin=15 EnMin= -461.233947246669     IErMin=15 ErrMin= 2.91D-06
 ErrMax= 2.91D-06  0.00D+00 EMaxC= 1.00D-01 BMatC= 3.69D-09 BMatP= 2.25D-08
 IDIUse=1 WtCom= 1.00D+00 WtEn= 0.00D+00
 Coeff-Com:  0.418D-04-0.491D-04 0.129D-03 0.141D-03-0.309D-03-0.746D-03
 Coeff-Com: -0.349D-02-0.279D-02 0.216D-01 0.382D-01 0.260D-01-0.207D+00
 Coeff-Com: -0.512D-01 0.357D+00 0.822D+00
 Coeff:      0.418D-04-0.491D-04 0.129D-03 0.141D-03-0.309D-03-0.746D-03
 Coeff:     -0.349D-02-0.279D-02 0.216D-01 0.382D-01 0.260D-01-0.207D+00
 Coeff:     -0.512D-01 0.357D+00 0.822D+00
 Gap=     0.057 Goal=   None    Shift=    0.000
 Gap=     0.204 Goal=   None    Shift=    0.000
 RMSDP=1.86D-06 MaxDP=5.88D-05 DE=-4.73D-08 OVMax= 2.33D-04

 Initial convergence to 1.0D-05 achieved.  Increase integral accuracy.
 Cycle  16  Pass 1  IDiag  1:
 E= -461.233937680123     Delta-E=        0.000009566547 Rises=F Damp=F
 DIIS: error= 1.30D-05 at cycle   1 NSaved=   1.
 NSaved= 1 IEnMin= 1 EnMin= -461.233937680123     IErMin= 1 ErrMin= 1.30D-05
 ErrMax= 1.30D-05  0.00D+00 EMaxC= 1.00D-01 BMatC= 9.72D-08 BMatP= 9.72D-08
 IDIUse=1 WtCom= 1.00D+00 WtEn= 0.00D+00
 Coeff-Com:  0.100D+01
 Coeff:      0.100D+01
 Gap=     0.057 Goal=   None    Shift=    0.000
 Gap=     0.204 Goal=   None    Shift=    0.000
 RMSDP=1.86D-06 MaxDP=5.88D-05 DE= 9.57D-06 OVMax= 8.63D-05

 Cycle  17  Pass 1  IDiag  1:
 RMSU=  5.75D-06    CP:  1.00D+00
 E= -461.233937698343     Delta-E=       -0.000000018220 Rises=F Damp=F
 DIIS: error= 2.16D-06 at cycle   2 NSaved=   2.
 NSaved= 2 IEnMin= 2 EnMin= -461.233937698343     IErMin= 2 ErrMin= 2.16D-06
 ErrMax= 2.16D-06  0.00D+00 EMaxC= 1.00D-01 BMatC= 3.59D-09 BMatP= 9.72D-08
 IDIUse=1 WtCom= 1.00D+00 WtEn= 0.00D+00
 Coeff-Com:  0.366D-01 0.963D+00
 Coeff:      0.366D-01 0.963D+00
 Gap=     0.057 Goal=   None    Shift=    0.000
 Gap=     0.204 Goal=   None    Shift=    0.000
 RMSDP=8.52D-07 MaxDP=2.77D-05 DE=-1.82D-08 OVMax= 8.42D-05

 Cycle  18  Pass 1  IDiag  1:
 RMSU=  8.45D-07    CP:  1.00D+00  1.02D+00
 E= -461.233937698300     Delta-E=        0.000000000043 Rises=F Damp=F
 DIIS: error= 3.16D-06 at cycle   3 NSaved=   3.
 NSaved= 3 IEnMin= 2 EnMin= -461.233937698343     IErMin= 2 ErrMin= 2.16D-06
 ErrMax= 3.16D-06  0.00D+00 EMaxC= 1.00D-01 BMatC= 8.43D-09 BMatP= 3.59D-09
 IDIUse=1 WtCom= 1.00D+00 WtEn= 0.00D+00
 Coeff-Com: -0.939D-02 0.617D+00 0.392D+00
 Coeff:     -0.939D-02 0.617D+00 0.392D+00
 Gap=     0.057 Goal=   None    Shift=    0.000
 Gap=     0.204 Goal=   None    Shift=    0.000
 RMSDP=3.59D-07 MaxDP=1.02D-05 DE= 4.30D-11 OVMax= 2.13D-05

 Cycle  19  Pass 1  IDiag  1:
 RMSU=  3.35D-07    CP:  1.00D+00  1.03D+00  8.86D-01
 E= -461.233937700711     Delta-E=       -0.000000002411 Rises=F Damp=F
 DIIS: error= 7.87D-07 at cycle   4 NSaved=   4.
 NSaved= 4 IEnMin= 4 EnMin= -461.233937700711     IErMin= 4 ErrMin= 7.87D-07
 ErrMax= 7.87D-07  0.00D+00 EMaxC= 1.00D-01 BMatC= 2.16D-10 BMatP= 3.59D-09
 IDIUse=1 WtCom= 1.00D+00 WtEn= 0.00D+00
 Coeff-Com: -0.227D-02 0.195D-01-0.166D-01 0.999D+00
 Coeff:     -0.227D-02 0.195D-01-0.166D-01 0.999D+00
 Gap=     0.057 Goal=   None    Shift=    0.000
 Gap=     0.204 Goal=   None    Shift=    0.000
 RMSDP=4.20D-07 MaxDP=1.23D-05 DE=-2.41D-09 OVMax= 5.26D-05

 Cycle  20  Pass 1  IDiag  1:
 RMSU=  1.13D-07    CP:  1.00D+00  1.04D+00  1.25D+00  1.77D+00
 E= -461.233937701262     Delta-E=       -0.000000000551 Rises=F Damp=F
 DIIS: error= 6.52D-07 at cycle   5 NSaved=   5.
 NSaved= 5 IEnMin= 5 EnMin= -461.233937701262     IErMin= 5 ErrMin= 6.52D-07
 ErrMax= 6.52D-07  0.00D+00 EMaxC= 1.00D-01 BMatC= 1.74D-10 BMatP= 2.16D-10
 IDIUse=1 WtCom= 1.00D+00 WtEn= 0.00D+00
 Coeff-Com:  0.448D-02-0.364D+00-0.293D+00 0.597D+00 0.106D+01
 Coeff:      0.448D-02-0.364D+00-0.293D+00 0.597D+00 0.106D+01
 Gap=     0.057 Goal=   None    Shift=    0.000
 Gap=     0.204 Goal=   None    Shift=    0.000
 RMSDP=6.34D-07 MaxDP=1.93D-05 DE=-5.51D-10 OVMax= 8.05D-05

 Cycle  21  Pass 1  IDiag  1:
 RMSU=  7.74D-08    CP:  1.00D+00  1.06D+00  1.79D+00  3.00D+00  1.68D+00
 E= -461.233937701857     Delta-E=       -0.000000000595 Rises=F Damp=F
 DIIS: error= 4.17D-07 at cycle   6 NSaved=   6.
 NSaved= 6 IEnMin= 6 EnMin= -461.233937701857     IErMin= 6 ErrMin= 4.17D-07
 ErrMax= 4.17D-07  0.00D+00 EMaxC= 1.00D-01 BMatC= 1.10D-10 BMatP= 1.74D-10
 IDIUse=1 WtCom= 1.00D+00 WtEn= 0.00D+00
 Coeff-Com:  0.458D-02-0.288D+00-0.234D+00-0.645D-01 0.811D+00 0.771D+00
 Coeff:      0.458D-02-0.288D+00-0.234D+00-0.645D-01 0.811D+00 0.771D+00
 Gap=     0.057 Goal=   None    Shift=    0.000
 Gap=     0.204 Goal=   None    Shift=    0.000
 RMSDP=5.06D-07 MaxDP=1.48D-05 DE=-5.95D-10 OVMax= 6.41D-05

 Cycle  22  Pass 1  IDiag  1:
 RMSU=  3.23D-07    CP:  1.00D+00  1.07D+00  2.23D+00  3.00D+00  2.59D+00
                    CP:  1.17D+00
 E= -461.233937702162     Delta-E=       -0.000000000305 Rises=F Damp=F
 DIIS: error= 3.23D-07 at cycle   7 NSaved=   7.
 NSaved= 7 IEnMin= 7 EnMin= -461.233937702162     IErMin= 7 ErrMin= 3.23D-07
 ErrMax= 3.23D-07  0.00D+00 EMaxC= 1.00D-01 BMatC= 3.89D-11 BMatP= 1.10D-10
 IDIUse=1 WtCom= 1.00D+00 WtEn= 0.00D+00
 Coeff-Com:  0.150D-02-0.523D-01-0.550D-01-0.312D+00 0.160D+00 0.524D+00
 Coeff-Com:  0.733D+00
 Coeff:      0.150D-02-0.523D-01-0.550D-01-0.312D+00 0.160D+00 0.524D+00
 Coeff:      0.733D+00
 Gap=     0.057 Goal=   None    Shift=    0.000
 Gap=     0.204 Goal=   None    Shift=    0.000
 RMSDP=3.31D-07 MaxDP=1.03D-05 DE=-3.05D-10 OVMax= 4.20D-05

 Cycle  23  Pass 1  IDiag  1:
 RMSU=  4.06D-08    CP:  1.00D+00  1.08D+00  2.51D+00  3.00D+00  3.00D+00
                    CP:  1.83D+00  1.64D+00
 E= -461.233937702286     Delta-E=       -0.000000000124 Rises=F Damp=F
 DIIS: error= 2.20D-07 at cycle   8 NSaved=   8.
 NSaved= 8 IEnMin= 8 EnMin= -461.233937702286     IErMin= 8 ErrMin= 2.20D-07
 ErrMax= 2.20D-07  0.00D+00 EMaxC= 1.00D-01 BMatC= 1.30D-11 BMatP= 3.89D-11
 IDIUse=1 WtCom= 1.00D+00 WtEn= 0.00D+00
 Coeff-Com: -0.148D-02 0.109D+00 0.719D-01-0.962D-02-0.266D+00-0.295D+00
 Coeff-Com:  0.310D+00 0.108D+01
 Coeff:     -0.148D-02 0.109D+00 0.719D-01-0.962D-02-0.266D+00-0.295D+00
 Coeff:      0.310D+00 0.108D+01
 Gap=     0.057 Goal=   None    Shift=    0.000
 Gap=     0.204 Goal=   None    Shift=    0.000
 RMSDP=1.70D-07 MaxDP=5.18D-06 DE=-1.24D-10 OVMax= 2.16D-05

 Cycle  24  Pass 1  IDiag  1:
 RMSU=  4.25D-08    CP:  1.00D+00  1.08D+00  2.65D+00  3.00D+00  3.00D+00
                    CP:  2.18D+00  1.98D+00  1.21D+00
 E= -461.233937702312     Delta-E=       -0.000000000026 Rises=F Damp=F
 DIIS: error= 1.06D-07 at cycle   9 NSaved=   9.
 NSaved= 9 IEnMin= 9 EnMin= -461.233937702312     IErMin= 9 ErrMin= 1.06D-07
 ErrMax= 1.06D-07  0.00D+00 EMaxC= 1.00D-01 BMatC= 5.79D-12 BMatP= 1.30D-11
 IDIUse=1 WtCom= 1.00D+00 WtEn= 0.00D+00
 Coeff-Com: -0.129D-02 0.795D-01 0.557D-01 0.938D-01-0.206D+00-0.398D+00
 Coeff-Com: -0.202D-01 0.641D+00 0.755D+00
 Coeff:     -0.129D-02 0.795D-01 0.557D-01 0.938D-01-0.206D+00-0.398D+00
 Coeff:     -0.202D-01 0.641D+00 0.755D+00
 Gap=     0.057 Goal=   None    Shift=    0.000
 Gap=     0.204 Goal=   None    Shift=    0.000
 RMSDP=1.19D-07 MaxDP=3.71D-06 DE=-2.65D-11 OVMax= 1.50D-05

 Cycle  25  Pass 1  IDiag  1:
 RMSU=  1.19D-08    CP:  1.00D+00  1.09D+00  2.75D+00  3.00D+00  3.00D+00
                    CP:  2.44D+00  2.21D+00  1.53D+00  1.59D+00
 E= -461.233937702304     Delta-E=        0.000000000009 Rises=F Damp=F
 DIIS: error= 3.95D-08 at cycle  10 NSaved=  10.
 NSaved=10 IEnMin= 9 EnMin= -461.233937702312     IErMin=10 ErrMin= 3.95D-08
 ErrMax= 3.95D-08  0.00D+00 EMaxC= 1.00D-01 BMatC= 9.44D-13 BMatP= 5.79D-12
 IDIUse=1 WtCom= 1.00D+00 WtEn= 0.00D+00
 Coeff-Com: -0.180D-03 0.120D-02 0.701D-03 0.776D-01 0.120D-02-0.142D+00
 Coeff-Com: -0.129D+00-0.662D-01 0.379D+00 0.878D+00
 Coeff:     -0.180D-03 0.120D-02 0.701D-03 0.776D-01 0.120D-02-0.142D+00
 Coeff:     -0.129D+00-0.662D-01 0.379D+00 0.878D+00
 Gap=     0.057 Goal=   None    Shift=    0.000
 Gap=     0.204 Goal=   None    Shift=    0.000
 RMSDP=4.62D-08 MaxDP=1.47D-06 DE= 8.87D-12 OVMax= 5.78D-06

 SCF Done:  E(UB3LYP) =  -461.233937702     A.U. after   25 cycles
            NFock= 25  Conv=0.46D-07     -V/T= 2.0080
 <Sx>= 0.0000 <Sy>= 0.0000 <Sz>= 0.5000 <S**2>= 0.7568 S= 0.5034
 <L.S>= 0.000000000000E+00
 KE= 4.575782913091D+02 PE=-2.125973382705D+03 EE= 6.887106009837D+02
 Annihilation of the first spin contaminant:
 S**2 before annihilation     0.7568,   after     0.7500
 Leave Link  502 at Wed Dec 03 17:05:47 2025, MaxMem=   104857600 cpu:              55.0 elap:              55.2
 (Enter D:\Gaussian\G16W\l601.exe)
 Copying SCF densities to generalized density rwf, IOpCl= 1 IROHF=0.

 **********************************************************************

            Population analysis using the SCF density.

 **********************************************************************

 Orbital symmetries:
 Alpha Orbitals:
       Occupied  (A) (A) (A) (A) (A) (A) (A) (A) (A) (A) (A) (A)
                 (A) (A) (A) (A) (A) (A) (A) (A) (A) (A) (A) (A)
                 (A) (A) (A) (A) (A) (A) (A) (A) (A) (A) (A) (A)
                 (A) (A)
       Virtual   (A) (A) (A) (A) (A) (A) (A) (A) (A) (A) (A) (A)
                 (A) (A) (A) (A) (A) (A) (A) (A) (A) (A) (A) (A)
                 (A) (A) (A) (A) (A) (A) (A) (A) (A) (A) (A) (A)
                 (A) (A) (A) (A) (A) (A) (A) (A) (A) (A) (A) (A)
                 (A) (A) (A) (A) (A) (A) (A) (A) (A) (A) (A) (A)
                 (A) (A) (A) (A) (A) (A) (A) (A) (A) (A) (A) (A)
                 (A) (A) (A) (A) (A) (A) (A) (A) (A) (A) (A) (A)
                 (A) (A) (A) (A) (A) (A) (A) (A) (A) (A) (A) (A)
                 (A) (A) (A) (A) (A) (A) (A) (A) (A) (A) (A) (A)
                 (A) (A) (A) (A) (A) (A) (A) (A) (A) (A) (A) (A)
                 (A) (A) (A) (A) (A) (A) (A) (A) (A) (A) (A) (A)
 Beta  Orbitals:
       Occupied  (A) (A) (A) (A) (A) (A) (A) (A) (A) (A) (A) (A)
                 (A) (A) (A) (A) (A) (A) (A) (A) (A) (A) (A) (A)
                 (A) (A) (A) (A) (A) (A) (A) (A) (A) (A) (A) (A)
                 (A)
       Virtual   (A) (A) (A) (A) (A) (A) (A) (A) (A) (A) (A) (A)
                 (A) (A) (A) (A) (A) (A) (A) (A) (A) (A) (A) (A)
                 (A) (A) (A) (A) (A) (A) (A) (A) (A) (A) (A) (A)
                 (A) (A) (A) (A) (A) (A) (A) (A) (A) (A) (A) (A)
                 (A) (A) (A) (A) (A) (A) (A) (A) (A) (A) (A) (A)
                 (A) (A) (A) (A) (A) (A) (A) (A) (A) (A) (A) (A)
                 (A) (A) (A) (A) (A) (A) (A) (A) (A) (A) (A) (A)
                 (A) (A) (A) (A) (A) (A) (A) (A) (A) (A) (A) (A)
                 (A) (A) (A) (A) (A) (A) (A) (A) (A) (A) (A) (A)
                 (A) (A) (A) (A) (A) (A) (A) (A) (A) (A) (A) (A)
                 (A) (A) (A) (A) (A) (A) (A) (A) (A) (A) (A) (A)
                 (A)
 The electronic state is 2-A.
 Alpha  occ. eigenvalues --  -19.00752 -18.98020 -10.03044 -10.01403 -10.01387
 Alpha  occ. eigenvalues --  -10.00347  -9.97300  -9.97205  -9.95444  -9.95020
 Alpha  occ. eigenvalues --   -0.88914  -0.85657  -0.64116  -0.58096  -0.55371
 Alpha  occ. eigenvalues --   -0.49716  -0.48646  -0.43729  -0.38085  -0.34643
 Alpha  occ. eigenvalues --   -0.33119  -0.28920  -0.25109  -0.24989  -0.24192
 Alpha  occ. eigenvalues --   -0.23736  -0.22608  -0.22200  -0.20779  -0.20069
 Alpha  occ. eigenvalues --   -0.17490  -0.17442  -0.15170  -0.13607  -0.11700
 Alpha  occ. eigenvalues --   -0.03336  -0.00952   0.15537
 Alpha virt. eigenvalues --    0.21188   0.22635   0.25987   0.26982   0.28319
 Alpha virt. eigenvalues --    0.29780   0.31059   0.31464   0.32273   0.34760
 Alpha virt. eigenvalues --    0.36311   0.39722   0.41038   0.42386   0.44060
 Alpha virt. eigenvalues --    0.47529   0.53178   0.55309   0.56866   0.59317
 Alpha virt. eigenvalues --    0.65155   0.68149   0.69698   0.73342   0.74171
 Alpha virt. eigenvalues --    0.74269   0.74911   0.75456   0.76521   0.82276
 Alpha virt. eigenvalues --    0.82441   0.83182   0.83712   0.85668   0.87604
 Alpha virt. eigenvalues --    0.88005   0.89574   0.90636   0.93583   0.95395
 Alpha virt. eigenvalues --    0.95806   0.97950   0.99615   1.02395   1.03374
 Alpha virt. eigenvalues --    1.03993   1.04312   1.05417   1.07915   1.09112
 Alpha virt. eigenvalues --    1.10865   1.11378   1.12107   1.14693   1.19382
 Alpha virt. eigenvalues --    1.19806   1.22558   1.24142   1.26944   1.30011
 Alpha virt. eigenvalues --    1.32057   1.36869   1.39562   1.45289   1.45847
 Alpha virt. eigenvalues --    1.51466   1.53395   1.55355   1.58974   1.59232
 Alpha virt. eigenvalues --    1.59925   1.61550   1.62662   1.69954   1.70397
 Alpha virt. eigenvalues --    1.88425   1.89927   1.92766   1.93790   1.97229
 Alpha virt. eigenvalues --    1.98467   2.03525   2.04533   2.05945   2.06081
 Alpha virt. eigenvalues --    2.07315   2.09166   2.11740   2.13448   2.15474
 Alpha virt. eigenvalues --    2.17575   2.19739   2.27504   2.32003   2.34443
 Alpha virt. eigenvalues --    2.35648   2.43031   2.45382   2.48038   2.50432
 Alpha virt. eigenvalues --    2.50975   2.53151   2.54990   2.55098   2.58017
 Alpha virt. eigenvalues --    2.60243   2.60740   2.65333   2.67439   2.75727
 Alpha virt. eigenvalues --    2.80618   2.87200   2.88540   2.94139   2.96875
 Alpha virt. eigenvalues --    3.03276   3.07548   3.12104   3.12904   3.26244
 Alpha virt. eigenvalues --    3.42520   3.65706   4.05531   4.28968   4.31412
 Alpha virt. eigenvalues --    4.36766   4.39222   4.44474   4.50967   4.65811
 Alpha virt. eigenvalues --    4.76290   5.14006
  Beta  occ. eigenvalues --  -19.00744 -18.97957 -10.03021 -10.01421 -10.01186
  Beta  occ. eigenvalues --  -10.00397  -9.97375  -9.97028  -9.94932  -9.94495
  Beta  occ. eigenvalues --   -0.88836  -0.85521  -0.63522  -0.57568  -0.54944
  Beta  occ. eigenvalues --   -0.49576  -0.48023  -0.43527  -0.37609  -0.34489
  Beta  occ. eigenvalues --   -0.32733  -0.28665  -0.24773  -0.24583  -0.23655
  Beta  occ. eigenvalues --   -0.23539  -0.22470  -0.21771  -0.20617  -0.19900
  Beta  occ. eigenvalues --   -0.17227  -0.17049  -0.14970  -0.13363  -0.10412
  Beta  occ. eigenvalues --   -0.01010   0.00872
  Beta virt. eigenvalues --    0.21222   0.22901   0.23224   0.26117   0.27061
  Beta virt. eigenvalues --    0.28413   0.29956   0.31599   0.31926   0.32406
  Beta virt. eigenvalues --    0.35537   0.36409   0.41311   0.42071   0.42703
  Beta virt. eigenvalues --    0.44562   0.47984   0.53416   0.55726   0.57255
  Beta virt. eigenvalues --    0.59645   0.65397   0.68797   0.70055   0.73520
  Beta virt. eigenvalues --    0.74863   0.75085   0.75138   0.75870   0.76785
  Beta virt. eigenvalues --    0.82583   0.82860   0.83982   0.84854   0.85968
  Beta virt. eigenvalues --    0.87886   0.88658   0.89834   0.90826   0.93843
  Beta virt. eigenvalues --    0.95506   0.97007   0.98326   1.00826   1.02427
  Beta virt. eigenvalues --    1.03720   1.04063   1.04727   1.05730   1.08077
  Beta virt. eigenvalues --    1.09155   1.11112   1.11543   1.12260   1.14849
  Beta virt. eigenvalues --    1.19660   1.20157   1.22861   1.24318   1.27258
  Beta virt. eigenvalues --    1.30365   1.32261   1.37104   1.39977   1.46131
  Beta virt. eigenvalues --    1.46398   1.51567   1.53941   1.55712   1.59663
  Beta virt. eigenvalues --    1.59944   1.60158   1.61851   1.63517   1.70579
  Beta virt. eigenvalues --    1.71105   1.88519   1.90101   1.93014   1.94119
  Beta virt. eigenvalues --    1.97474   1.99184   2.04076   2.05038   2.06223
  Beta virt. eigenvalues --    2.06585   2.07635   2.09314   2.11924   2.14457
  Beta virt. eigenvalues --    2.15842   2.17915   2.20186   2.28329   2.32506
  Beta virt. eigenvalues --    2.34682   2.36211   2.43874   2.45699   2.48145
  Beta virt. eigenvalues --    2.50544   2.52226   2.53526   2.55439   2.55661
  Beta virt. eigenvalues --    2.58371   2.61073   2.61720   2.65470   2.67587
  Beta virt. eigenvalues --    2.76028   2.81417   2.88347   2.89878   2.94434
  Beta virt. eigenvalues --    2.97354   3.03582   3.07742   3.12275   3.13163
  Beta virt. eigenvalues --    3.27070   3.42726   3.65954   4.05626   4.29466
  Beta virt. eigenvalues --    4.31878   4.37013   4.39650   4.44537   4.51301
  Beta virt. eigenvalues --    4.66606   4.76731   5.14423
          Condensed to atoms (all electrons):
               1          2          3          4          5          6
     1  C    5.125689   0.482476   0.005740  -0.075557  -0.040841   0.566467
     2  C    0.482476   4.959140   0.445477  -0.054132  -0.028054  -0.026862
     3  C    0.005740   0.445477   4.872324   0.473699  -0.064184  -0.042089
     4  C   -0.075557  -0.054132   0.473699   4.931178   0.379669   0.044507
     5  C   -0.040841  -0.028054  -0.064184   0.379669   5.518408   0.391963
     6  C    0.566467  -0.026862  -0.042089   0.044507   0.391963   4.716696
     7  H    0.007760   0.000900   0.005249  -0.060171   0.313255  -0.046344
     8  O    0.000819   0.002450  -0.041363   0.198263  -0.057421   0.003124
     9  O    0.003975  -0.055024   0.257717  -0.080802   0.005654  -0.000038
    10  H   -0.000058  -0.000023   0.005754  -0.032354  -0.004662   0.000223
    11  C   -0.068152   0.334570  -0.069412   0.013656   0.000561   0.008532
    12  H   -0.004221  -0.023090   0.003944  -0.000209   0.000021  -0.000246
    13  H    0.001414  -0.047100   0.000106   0.000153  -0.000077   0.000010
    14  H    0.001431  -0.047131   0.000086   0.000152  -0.000077   0.000016
    15  H    0.000052   0.006489  -0.042221  -0.016703   0.001288  -0.000162
    16  H    0.320480  -0.058582   0.008331   0.000196   0.008750  -0.054467
    17  C   -0.045375   0.007570   0.001064   0.006871  -0.089184   0.357784
    18  H   -0.001339   0.000066  -0.000025  -0.000311   0.007259  -0.043599
    19  H   -0.001139   0.000060  -0.000025  -0.000313   0.007097  -0.043314
    20  H   -0.003878  -0.000222  -0.000003  -0.000093   0.003393  -0.024247
               7          8          9         10         11         12
     1  C    0.007760   0.000819   0.003975  -0.000058  -0.068152  -0.004221
     2  C    0.000900   0.002450  -0.055024  -0.000023   0.334570  -0.023090
     3  C    0.005249  -0.041363   0.257717   0.005754  -0.069412   0.003944
     4  C   -0.060171   0.198263  -0.080802  -0.032354   0.013656  -0.000209
     5  C    0.313255  -0.057421   0.005654  -0.004662   0.000561   0.000021
     6  C   -0.046344   0.003124  -0.000038   0.000223   0.008532  -0.000246
     7  H    0.795989  -0.007231  -0.000074   0.010468   0.000013   0.000000
     8  O   -0.007231   8.365918  -0.008893   0.236949  -0.000079   0.000000
     9  O   -0.000074  -0.008893   8.332694   0.000165  -0.003784   0.000294
    10  H    0.010468   0.236949   0.000165   0.406384   0.000008   0.000000
    11  C    0.000013  -0.000079  -0.003784   0.000008   5.294198   0.341025
    12  H    0.000000   0.000000   0.000294   0.000000   0.341025   0.654153
    13  H    0.000000  -0.000001   0.002611   0.000000   0.335146  -0.035243
    14  H    0.000000  -0.000001   0.002612   0.000000   0.335203  -0.035222
    15  H   -0.000021   0.025592   0.244396  -0.001464  -0.000654   0.000001
    16  H   -0.000289   0.000003  -0.000070  -0.000001  -0.017673   0.009966
    17  C   -0.014615  -0.000068   0.000001  -0.000016  -0.000292  -0.000009
    18  H    0.002912   0.000000   0.000000   0.000001   0.000005   0.000000
    19  H    0.003064   0.000000   0.000000   0.000001   0.000005   0.000000
    20  H    0.000020   0.000000   0.000000   0.000000  -0.000008  -0.000001
              13         14         15         16         17         18
     1  C    0.001414   0.001431   0.000052   0.320480  -0.045375  -0.001339
     2  C   -0.047100  -0.047131   0.006489  -0.058582   0.007570   0.000066
     3  C    0.000106   0.000086  -0.042221   0.008331   0.001064  -0.000025
     4  C    0.000153   0.000152  -0.016703   0.000196   0.006871  -0.000311
     5  C   -0.000077  -0.000077   0.001288   0.008750  -0.089184   0.007259
     6  C    0.000010   0.000016  -0.000162  -0.054467   0.357784  -0.043599
     7  H    0.000000   0.000000  -0.000021  -0.000289  -0.014615   0.002912
     8  O   -0.000001  -0.000001   0.025592   0.000003  -0.000068   0.000000
     9  O    0.002611   0.002612   0.244396  -0.000070   0.000001   0.000000
    10  H    0.000000   0.000000  -0.001464  -0.000001  -0.000016   0.000001
    11  C    0.335146   0.335203  -0.000654  -0.017673  -0.000292   0.000005
    12  H   -0.035243  -0.035222   0.000001   0.009966  -0.000009   0.000000
    13  H    0.723216  -0.075049  -0.000071   0.000157   0.000005  -0.000001
    14  H   -0.075049   0.723157  -0.000070   0.000148   0.000005   0.000000
    15  H   -0.000071  -0.000070   0.395458   0.000009   0.000000   0.000000
    16  H    0.000157   0.000148   0.000009   0.771820  -0.016761   0.000162
    17  C    0.000005   0.000005   0.000000  -0.016761   5.334957   0.314655
    18  H   -0.000001   0.000000   0.000000   0.000162   0.314655   0.753165
    19  H    0.000000  -0.000001   0.000000   0.000165   0.314168  -0.084111
    20  H    0.000000   0.000000   0.000000   0.010181   0.348324  -0.034689
              19         20
     1  C   -0.001139  -0.003878
     2  C    0.000060  -0.000222
     3  C   -0.000025  -0.000003
     4  C   -0.000313  -0.000093
     5  C    0.007097   0.003393
     6  C   -0.043314  -0.024247
     7  H    0.003064   0.000020
     8  O    0.000000   0.000000
     9  O    0.000000   0.000000
    10  H    0.000001   0.000000
    11  C    0.000005  -0.000008
    12  H    0.000000  -0.000001
    13  H    0.000000   0.000000
    14  H   -0.000001   0.000000
    15  H    0.000000   0.000000
    16  H    0.000165   0.010181
    17  C    0.314168   0.348324
    18  H   -0.084111  -0.034689
    19  H    0.753256  -0.034634
    20  H   -0.034634   0.634208
          Atomic-Atomic Spin Densities.
               1          2          3          4          5          6
     1  C   -0.070900  -0.046834   0.004975   0.007234  -0.013012   0.047335
     2  C   -0.046834   0.549930  -0.123692  -0.021969   0.018680  -0.022223
     3  C    0.004975  -0.123692   0.214118   0.071345  -0.028854   0.010150
     4  C    0.007234  -0.021969   0.071345   0.046901  -0.105011   0.009124
     5  C   -0.013012   0.018680  -0.028854  -0.105011   0.673774  -0.140835
     6  C    0.047335  -0.022223   0.010150   0.009124  -0.140835   0.206728
     7  H   -0.000264  -0.000047  -0.000226  -0.001011   0.006825  -0.000601
     8  O   -0.000040   0.000343  -0.005216  -0.005593   0.004168  -0.000057
     9  O   -0.000149   0.006499  -0.025235  -0.004217   0.000452  -0.000062
    10  H    0.000003  -0.000014   0.000056   0.000154  -0.000011   0.000018
    11  C   -0.003460   0.047672  -0.007464  -0.000737   0.000198  -0.000673
    12  H    0.000408  -0.001333   0.000071   0.000002   0.000001   0.000006
    13  H    0.001013  -0.023869   0.005492   0.000223  -0.000083   0.000114
    14  H    0.001037  -0.023916   0.005454   0.000221  -0.000083   0.000122
    15  H   -0.000002   0.000118  -0.000015   0.000147   0.000015  -0.000003
    16  H    0.002115  -0.000889   0.000101  -0.000060   0.000248  -0.000922
    17  C    0.002276  -0.000951   0.000160   0.000551  -0.017272   0.047776
    18  H   -0.001279   0.000201  -0.000055  -0.000232   0.009576  -0.017514
    19  H   -0.001158   0.000196  -0.000054  -0.000235   0.009421  -0.017290
    20  H    0.000354   0.000005   0.000001  -0.000006   0.000116  -0.000607
               7          8          9         10         11         12
     1  C   -0.000264  -0.000040  -0.000149   0.000003  -0.003460   0.000408
     2  C   -0.000047   0.000343   0.006499  -0.000014   0.047672  -0.001333
     3  C   -0.000226  -0.005216  -0.025235   0.000056  -0.007464   0.000071
     4  C   -0.001011  -0.005593  -0.004217   0.000154  -0.000737   0.000002
     5  C    0.006825   0.004168   0.000452  -0.000011   0.000198   0.000001
     6  C   -0.000601  -0.000057  -0.000062   0.000018  -0.000673   0.000006
     7  H   -0.031582   0.000353   0.000001  -0.000290   0.000000   0.000000
     8  O    0.000353   0.006035   0.000505   0.000240   0.000003   0.000000
     9  O    0.000001   0.000505   0.036024  -0.000004   0.001457  -0.000002
    10  H   -0.000290   0.000240  -0.000004  -0.000829   0.000000   0.000000
    11  C    0.000000   0.000003   0.001457   0.000000  -0.037135   0.002250
    12  H    0.000000   0.000000  -0.000002   0.000000   0.002250   0.000094
    13  H    0.000000  -0.000001  -0.001347   0.000000  -0.018085  -0.000410
    14  H    0.000000  -0.000001  -0.001349   0.000000  -0.017990  -0.000397
    15  H    0.000000  -0.000045   0.000062   0.000019   0.000000   0.000000
    16  H    0.000003   0.000000   0.000000   0.000000   0.000594  -0.000065
    17  C    0.000576  -0.000001   0.000000   0.000000  -0.000010   0.000000
    18  H   -0.000020   0.000001   0.000000   0.000000   0.000001   0.000000
    19  H    0.000026   0.000001   0.000000   0.000000   0.000001   0.000000
    20  H   -0.000009   0.000000   0.000000   0.000000   0.000000   0.000000
              13         14         15         16         17         18
     1  C    0.001013   0.001037  -0.000002   0.002115   0.002276  -0.001279
     2  C   -0.023869  -0.023916   0.000118  -0.000889  -0.000951   0.000201
     3  C    0.005492   0.005454  -0.000015   0.000101   0.000160  -0.000055
     4  C    0.000223   0.000221   0.000147  -0.000060   0.000551  -0.000232
     5  C   -0.000083  -0.000083   0.000015   0.000248  -0.017272   0.009576
     6  C    0.000114   0.000122  -0.000003  -0.000922   0.047776  -0.017514
     7  H    0.000000   0.000000   0.000000   0.000003   0.000576  -0.000020
     8  O   -0.000001  -0.000001  -0.000045   0.000000  -0.000001   0.000001
     9  O   -0.001347  -0.001349   0.000062   0.000000   0.000000   0.000000
    10  H    0.000000   0.000000   0.000019   0.000000   0.000000   0.000000
    11  C   -0.018085  -0.017990   0.000000   0.000594  -0.000010   0.000001
    12  H   -0.000410  -0.000397   0.000000  -0.000065   0.000000   0.000000
    13  H    0.096682  -0.030919   0.000001  -0.000003   0.000002  -0.000001
    14  H   -0.030919   0.096624   0.000002  -0.000011   0.000002   0.000000
    15  H    0.000001   0.000002  -0.001303   0.000000   0.000000   0.000000
    16  H   -0.000003  -0.000011   0.000000   0.000178   0.000413  -0.000011
    17  C    0.000002   0.000002   0.000000   0.000413   0.025384  -0.033660
    18  H   -0.000001   0.000000   0.000000  -0.000011  -0.033660   0.106459
    19  H    0.000000  -0.000001   0.000000   0.000000  -0.034185  -0.037446
    20  H    0.000000   0.000000   0.000000  -0.000087   0.001378  -0.000105
              19         20
     1  C   -0.001158   0.000354
     2  C    0.000196   0.000005
     3  C   -0.000054   0.000001
     4  C   -0.000235  -0.000006
     5  C    0.009421   0.000116
     6  C   -0.017290  -0.000607
     7  H    0.000026  -0.000009
     8  O    0.000001   0.000000
     9  O    0.000000   0.000000
    10  H    0.000000   0.000000
    11  C    0.000001   0.000000
    12  H    0.000000   0.000000
    13  H    0.000000   0.000000
    14  H   -0.000001   0.000000
    15  H    0.000000   0.000000
    16  H    0.000000  -0.000087
    17  C   -0.034185   0.001378
    18  H   -0.037446  -0.000105
    19  H    0.106907  -0.000225
    20  H   -0.000225  -0.001376
 Mulliken charges and spin densities:
               1          2
     1  C   -0.275745  -0.070349
     2  C    0.101021   0.357907
     3  C    0.179833   0.121111
     4  C    0.272299  -0.003169
     5  C   -0.352820   0.418311
     6  C    0.192045   0.120586
     7  H   -0.010886  -0.026266
     8  O   -0.718064   0.000695
     9  O   -0.701433   0.012634
    10  H    0.378624  -0.000658
    11  C   -0.502866  -0.033379
    12  H    0.088837   0.000623
    13  H    0.094725   0.028809
    14  H    0.094741   0.028795
    15  H    0.388080  -0.001003
    16  H    0.017475   0.001603
    17  C   -0.519085  -0.007562
    18  H    0.085848   0.025916
    19  H    0.085720   0.025958
    20  H    0.101649  -0.000561
 Sum of Mulliken charges =  -1.00000   1.00000
 Mulliken charges and spin densities with hydrogens summed into heavy atoms:
               1          2
     1  C   -0.258271  -0.068746
     2  C    0.101021   0.357907
     3  C    0.179833   0.121111
     4  C    0.272299  -0.003169
     5  C   -0.363705   0.392044
     6  C    0.192045   0.120586
     8  O   -0.339440   0.000037
     9  O   -0.313352   0.011631
    11  C   -0.224563   0.024848
    17  C   -0.245868   0.043751
 Electronic spatial extent (au):  <R**2>=           1560.5046
 Charge=             -1.0000 electrons
 Dipole moment (field-independent basis, Debye):
    X=             -0.2290    Y=             -2.2795    Z=             -0.0001  Tot=              2.2910
 Quadrupole moment (field-independent basis, Debye-Ang):
   XX=            -79.2500   YY=            -64.8778   ZZ=            -65.9375
   XY=              3.2852   XZ=             -0.0027   YZ=             -0.0004
 Traceless Quadrupole moment (field-independent basis, Debye-Ang):
   XX=             -9.2283   YY=              5.1440   ZZ=              4.0843
   XY=              3.2852   XZ=             -0.0027   YZ=             -0.0004
 Octapole moment (field-independent basis, Debye-Ang**2):
  XXX=            -38.7775  YYY=            -45.9547  ZZZ=              0.0060  XYY=              1.5170
  XXY=            -12.9873  XXZ=             -0.0194  XZZ=             -8.7352  YZZ=             -5.0291
  YYZ=             -0.0065  XYZ=             -0.0060
 Hexadecapole moment (field-independent basis, Debye-Ang**3):
 XXXX=          -1334.6986 YYYY=           -797.7400 ZZZZ=            -81.5614 XXXY=             55.6016
 XXXZ=             -0.1189 YYYX=             33.1352 YYYZ=              0.0264 ZZZX=             -0.0186
 ZZZY=              0.0263 XXYY=           -358.3183 XXZZ=           -220.0075 YYZZ=           -161.4337
 XXYZ=             -0.0130 YYXZ=             -0.0266 ZZXY=              6.5542
 N-N= 5.184505527102D+02 E-N=-2.125973380535D+03  KE= 4.575782913091D+02
                          Isotropic Fermi Contact Couplings
        Atom                 a.u.       MegaHertz       Gauss      10(-4) cm-1
     1  C(13)             -0.01576     -17.72114      -6.32334      -5.91114
     2  C(13)              0.03723      41.84933      14.93288      13.95944
     3  C(13)              0.00566       6.36517       2.27125       2.12319
     4  C(13)             -0.01027     -11.54940      -4.12111      -3.85247
     5  C(13)              0.03965      44.57559      15.90568      14.86882
     6  C(13)              0.00811       9.11892       3.25386       3.04175
     7  H(1)              -0.00667     -29.80171     -10.63399      -9.94078
     8  O(17)             -0.00010       0.06094       0.02175       0.02033
     9  O(17)              0.00352      -2.13470      -0.76172      -0.71206
    10  H(1)              -0.00025      -1.09580      -0.39101      -0.36552
    11  C(13)             -0.01465     -16.46909      -5.87658      -5.49350
    12  H(1)               0.00020       0.89059       0.31778       0.29707
    13  H(1)               0.00968      43.24697      15.43159      14.42564
    14  H(1)               0.00967      43.21846      15.42142      14.41613
    15  H(1)              -0.00045      -2.00588      -0.71575      -0.66909
    16  H(1)               0.00035       1.56762       0.55936       0.52290
    17  C(13)             -0.00717      -8.05498      -2.87422      -2.68685
    18  H(1)               0.00434      19.39056       6.91903       6.46799
    19  H(1)               0.00430      19.19978       6.85096       6.40436
    20  H(1)              -0.00017      -0.77782      -0.27754      -0.25945
 --------------------------------------------------------
       Center         ----  Spin Dipole Couplings  ----
                      3XX-RR        3YY-RR        3ZZ-RR
 --------------------------------------------------------
     1   Atom        0.026628      0.014936     -0.041564
     2   Atom       -0.208764     -0.199680      0.408445
     3   Atom       -0.092946     -0.084165      0.177111
     4   Atom       -0.015631     -0.028283      0.043914
     5   Atom       -0.213522     -0.209713      0.423235
     6   Atom       -0.081858     -0.078271      0.160129
     7   Atom       -0.013258      0.013116      0.000143
     8   Atom       -0.010427     -0.003462      0.013889
     9   Atom       -0.053703     -0.052837      0.106540
    10   Atom       -0.001156      0.005064     -0.003908
    11   Atom       -0.001335      0.005593     -0.004258
    12   Atom       -0.004849      0.008118     -0.003269
    13   Atom        0.001610      0.002093     -0.003702
    14   Atom        0.001612      0.002090     -0.003702
    15   Atom        0.003403      0.002069     -0.005473
    16   Atom        0.002171      0.003242     -0.005413
    17   Atom        0.003650     -0.006063      0.002413
    18   Atom        0.006455     -0.002875     -0.003580
    19   Atom        0.006476     -0.002887     -0.003589
    20   Atom        0.004358     -0.001854     -0.002504
 --------------------------------------------------------
                        XY            XZ            YZ
 --------------------------------------------------------
     1   Atom       -0.005197     -0.000077     -0.000015
     2   Atom       -0.003564     -0.000058      0.000085
     3   Atom        0.001228      0.000035      0.000048
     4   Atom       -0.003985      0.000045      0.000041
     5   Atom       -0.004510      0.000142     -0.000429
     6   Atom        0.004705     -0.000096     -0.000004
     7   Atom       -0.028014     -0.000028      0.000029
     8   Atom        0.001857     -0.000061     -0.000037
     9   Atom        0.002573     -0.000087      0.000065
    10   Atom        0.002975      0.000001     -0.000003
    11   Atom       -0.006367     -0.000003      0.000004
    12   Atom       -0.002201      0.000001     -0.000001
    13   Atom       -0.006232     -0.001692      0.002736
    14   Atom       -0.006232      0.001692     -0.002735
    15   Atom        0.005585     -0.000005     -0.000004
    16   Atom        0.000324      0.000007      0.000010
    17   Atom        0.002368     -0.000054      0.000121
    18   Atom       -0.000469      0.002935      0.000146
    19   Atom       -0.000496     -0.002899     -0.000135
    20   Atom        0.004532     -0.000027     -0.000013
 --------------------------------------------------------


 ---------------------------------------------------------------------------------
              Anisotropic Spin Dipole Couplings in Principal Axis System
 ---------------------------------------------------------------------------------

       Atom             a.u.   MegaHertz   Gauss  10(-4) cm-1        Axes

              Baa    -0.0416    -5.577    -1.990    -1.860  0.0012  0.0004  1.0000
     1 C(13)  Bbb     0.0130     1.739     0.621     0.580  0.3554  0.9347 -0.0008
              Bcc     0.0286     3.838     1.370     1.280  0.9347 -0.3554 -0.0010
 
              Baa    -0.2100   -28.179   -10.055    -9.400  0.9452  0.3266  0.0000
     2 C(13)  Bbb    -0.1984   -26.630    -9.502    -8.883 -0.3266  0.9452 -0.0002
              Bcc     0.4084    54.809    19.557    18.282 -0.0001  0.0001  1.0000
 
              Baa    -0.0931   -12.495    -4.459    -4.168  0.9907 -0.1359 -0.0001
     3 C(13)  Bbb    -0.0840   -11.272    -4.022    -3.760  0.1359  0.9907 -0.0002
              Bcc     0.1771    23.767     8.481     7.928  0.0001  0.0002  1.0000
 
              Baa    -0.0294    -3.950    -1.409    -1.317  0.2774  0.9608 -0.0007
     4 C(13)  Bbb    -0.0145    -1.943    -0.693    -0.648  0.9608 -0.2774 -0.0005
              Bcc     0.0439     5.893     2.103     1.966  0.0007  0.0005  1.0000
 
              Baa    -0.2165   -29.054   -10.367    -9.691  0.8334  0.5527  0.0002
     5 C(13)  Bbb    -0.2067   -27.740    -9.898    -9.253 -0.5527  0.8334  0.0007
              Bcc     0.4232    56.794    20.266    18.944  0.0002 -0.0007  1.0000
 
              Baa    -0.0851   -11.420    -4.075    -3.809  0.8235 -0.5673  0.0003
     6 C(13)  Bbb    -0.0750   -10.068    -3.593    -3.358  0.5673  0.8235  0.0002
              Bcc     0.1601    21.488     7.667     7.168 -0.0004  0.0000  1.0000
 
              Baa    -0.0310   -16.558    -5.908    -5.523  0.8444  0.5358  0.0003
     7 H(1)   Bbb     0.0001     0.076     0.027     0.025  0.0005 -0.0012  1.0000
              Bcc     0.0309    16.482     5.881     5.498 -0.5358  0.8444  0.0013
 
              Baa    -0.0109     0.788     0.281     0.263  0.9702 -0.2424  0.0020
     8 O(17)  Bbb    -0.0030     0.217     0.077     0.072  0.2424  0.9702  0.0030
              Bcc     0.0139    -1.005    -0.359    -0.335 -0.0027 -0.0024  1.0000
 
              Baa    -0.0559     4.043     1.443     1.349  0.7635 -0.6458  0.0007
     9 O(17)  Bbb    -0.0507     3.666     1.308     1.223  0.6458  0.7635  0.0000
              Bcc     0.1065    -7.709    -2.751    -2.572 -0.0005  0.0004  1.0000
 
              Baa    -0.0039    -2.085    -0.744    -0.695 -0.0012  0.0007  1.0000
    10 H(1)   Bbb    -0.0024    -1.254    -0.447    -0.418  0.9281 -0.3724  0.0014
              Bcc     0.0063     3.339     1.191     1.114  0.3724  0.9281 -0.0002
 
              Baa    -0.0051    -0.687    -0.245    -0.229  0.8596  0.5109  0.0008
    11 C(13)  Bbb    -0.0043    -0.571    -0.204    -0.191 -0.0005 -0.0007  1.0000
              Bcc     0.0094     1.258     0.449     0.420 -0.5109  0.8596  0.0004
 
              Baa    -0.0052    -2.781    -0.992    -0.928  0.9866  0.1629 -0.0002
    12 H(1)   Bbb    -0.0033    -1.744    -0.622    -0.582  0.0002  0.0002  1.0000
              Bcc     0.0085     4.526     1.615     1.510 -0.1629  0.9866 -0.0001
 
              Baa    -0.0051    -2.720    -0.970    -0.907 -0.3717 -0.5937  0.7136
    13 H(1)   Bbb    -0.0038    -2.016    -0.719    -0.673  0.6493  0.3831  0.6570
              Bcc     0.0089     4.736     1.690     1.580 -0.6635  0.7076  0.2431
 
              Baa    -0.0051    -2.720    -0.970    -0.907  0.3718  0.5939  0.7135
    14 H(1)   Bbb    -0.0038    -2.016    -0.719    -0.673 -0.6491 -0.3831  0.6572
              Bcc     0.0089     4.736     1.690     1.580 -0.6636  0.7075 -0.2431
 
              Baa    -0.0055    -2.920    -1.042    -0.974  0.0004  0.0002  1.0000
    15 H(1)   Bbb    -0.0029    -1.541    -0.550    -0.514 -0.6639  0.7479  0.0001
              Bcc     0.0084     4.461     1.592     1.488  0.7479  0.6639 -0.0004
 
              Baa    -0.0054    -2.888    -1.031    -0.963 -0.0009 -0.0011  1.0000
    16 H(1)   Bbb     0.0021     1.110     0.396     0.370  0.9631 -0.2690  0.0005
              Bcc     0.0033     1.778     0.634     0.593  0.2690  0.9631  0.0013
 
              Baa    -0.0066    -0.887    -0.317    -0.296 -0.2249  0.9743 -0.0145
    17 C(13)  Bbb     0.0024     0.324     0.116     0.108  0.0106  0.0173  0.9998
              Bcc     0.0042     0.563     0.201     0.188  0.9743  0.2247 -0.0142
 
              Baa    -0.0044    -2.359    -0.842    -0.787 -0.2636 -0.1696  0.9496
    18 H(1)   Bbb    -0.0028    -1.519    -0.542    -0.507 -0.0053  0.9847  0.1744
              Bcc     0.0073     3.877     1.384     1.293  0.9646 -0.0409  0.2605
 
              Baa    -0.0044    -2.353    -0.839    -0.785  0.2609  0.1693  0.9504
    19 H(1)   Bbb    -0.0029    -1.527    -0.545    -0.509 -0.0020  0.9846 -0.1748
              Bcc     0.0073     3.879     1.384     1.294  0.9654 -0.0437 -0.2572
 
              Baa    -0.0042    -2.263    -0.808    -0.755 -0.4662  0.8847 -0.0007
    20 H(1)   Bbb    -0.0025    -1.336    -0.477    -0.446  0.0026  0.0021  1.0000
              Bcc     0.0067     3.600     1.284     1.201  0.8847  0.4662 -0.0032
 

 ---------------------------------------------------------------------------------

 No NMR shielding tensors so no spin-rotation constants.
 Leave Link  601 at Wed Dec 03 17:05:47 2025, MaxMem=   104857600 cpu:               0.0 elap:               0.2
 (Enter D:\Gaussian\G16W\l9999.exe)
 1|1|UNPC-PC-20250526LCFF|SP|UB3LYP|6-31G(d)|C8H10O2(1-,2)|ADMINISTRATO
 R|03-Dec-2025|0||#P B3LYP/6-31G* SCF=conver=7 out=wfn||Generated by Mu
 ltiwfn (http://sobereva.com/multiwfn)||-1,2|C,0,0.918831,1.23084,-0.00
 0284|C,0,-0.48058,1.183555,-0.00011|C,0,-1.100036,-0.065309,0.000092|C
 ,0,-0.32451,-1.231209,0.000046|C,0,1.060899,-1.163162,-0.000137|C,0,1.
 705846,0.07999,-0.000239|H,0,1.642304,-2.081958,-0.000238|O,0,-1.04528
 9,-2.406916,0.000079|O,0,-2.46562,-0.143107,0.000156|H,0,-0.444246,-3.
 157546,-0.000103|C,0,-1.326132,2.430042,-0.000265|H,0,-0.701359,3.3248
 39,-0.000623|H,0,-1.979225,2.463956,0.87685|H,0,-1.979587,2.463493,-0.
 877127|H,0,-2.70349,-1.078942,0.000165|H,0,1.402482,2.202703,-0.000509
 |C,0,3.214469,0.157385,0.000476|H,0,3.64062,-0.324831,0.886446|H,0,3.6
 42263,-0.339086,-0.876715|H,0,3.554795,1.194765,-0.007498||Version=EM6
 4W-G16RevA.03|State=2-A|HF=-461.2339377|S2=0.756826|S2-1=0.|S2A=0.7500
 26|RMSD=4.625e-008|Dipole=-0.090081,-0.89682,-0.0000242|Quadrupole=-6.
 8609815,3.8244231,3.0365585,2.4424872,-0.0020181,-0.0002841|PG=C01 [X(
 C8H10O2)]||@

 Writing a WFN file to "N+1.wfn"


 "I COULD HAVE DONE IT IN A MUCH MORE COMPLICATED WAY"
 SAID THE RED QUEEN, IMMENSELY PROUD.

                                      -- LEWIS CARROLL
 Job cpu time:       0 days  0 hours  0 minutes 58.0 seconds.
 Elapsed time:       0 days  0 hours  0 minutes 57.4 seconds.
 File lengths (MBytes):  RWF=     33 Int=      0 D2E=      0 Chk=      3 Scr=      1
 Normal termination of Gaussian 16 at Wed Dec 03 17:05:47 2025.
