 Entering Link 1 = D:\Gaussian\G16W\l1.exe PID=     42756.
  
 Copyright (c) 1988,1990,1992,1993,1995,1998,2003,2009,2016,
            Gaussian, Inc.  All Rights Reserved.
  
 This is part of the Gaussian(R) 16 program.  It is based on
 the Gaussian(R) 09 system (copyright 2009, Gaussian, Inc.),
 the Gaussian(R) 03 system (copyright 2003, Gaussian, Inc.),
 the Gaussian(R) 98 system (copyright 1998, Gaussian, Inc.),
 the Gaussian(R) 94 system (copyright 1995, Gaussian, Inc.),
 the Gaussian 92(TM) system (copyright 1992, Gaussian, Inc.),
 the Gaussian 90(TM) system (copyright 1990, Gaussian, Inc.),
 the Gaussian 88(TM) system (copyright 1988, Gaussian, Inc.),
 the Gaussian 86(TM) system (copyright 1986, Carnegie Mellon
 University), and the Gaussian 82(TM) system (copyright 1983,
 Carnegie Mellon University). Gaussian is a federally registered
 trademark of Gaussian, Inc.
  
 This software contains proprietary and confidential information,
 including trade secrets, belonging to Gaussian, Inc.
  
 This software is provided under written license and may be
 used, copied, transmitted, or stored only in accord with that
 written license.
  
 The following legend is applicable only to US Government
 contracts under FAR:
  
                    RESTRICTED RIGHTS LEGEND
  
 Use, reproduction and disclosure by the US Government is
 subject to restrictions as set forth in subparagraphs (a)
 and (c) of the Commercial Computer Software - Restricted
 Rights clause in FAR 52.227-19.
  
 Gaussian, Inc.
 340 Quinnipiac St., Bldg. 40, Wallingford CT 06492
  
  
 ---------------------------------------------------------------
 Warning -- This program may not be used in any manner that
 competes with the business of Gaussian, Inc. or will provide
 assistance to any competitor of Gaussian, Inc.  The licensee
 of this program is prohibited from giving any competitor of
 Gaussian, Inc. access to this program.  By using this program,
 the user acknowledges that Gaussian, Inc. is engaged in the
 business of creating and licensing software in the field of
 computational chemistry and represents and warrants to the
 licensee that it is not a competitor of Gaussian, Inc. and that
 it will not use this program in any manner prohibited above.
 ---------------------------------------------------------------
  

 Cite this work as:
 Gaussian 16, Revision A.03,
 M. J. Frisch, G. W. Trucks, H. B. Schlegel, G. E. Scuseria, 
 M. A. Robb, J. R. Cheeseman, G. Scalmani, V. Barone, 
 G. A. Petersson, H. Nakatsuji, X. Li, M. Caricato, A. V. Marenich, 
 J. Bloino, B. G. Janesko, R. Gomperts, B. Mennucci, H. P. Hratchian, 
 J. V. Ortiz, A. F. Izmaylov, J. L. Sonnenberg, D. Williams-Young, 
 F. Ding, F. Lipparini, F. Egidi, J. Goings, B. Peng, A. Petrone, 
 T. Henderson, D. Ranasinghe, V. G. Zakrzewski, J. Gao, N. Rega, 
 G. Zheng, W. Liang, M. Hada, M. Ehara, K. Toyota, R. Fukuda, 
 J. Hasegawa, M. Ishida, T. Nakajima, Y. Honda, O. Kitao, H. Nakai, 
 T. Vreven, K. Throssell, J. A. Montgomery, Jr., J. E. Peralta, 
 F. Ogliaro, M. J. Bearpark, J. J. Heyd, E. N. Brothers, K. N. Kudin, 
 V. N. Staroverov, T. A. Keith, R. Kobayashi, J. Normand, 
 K. Raghavachari, A. P. Rendell, J. C. Burant, S. S. Iyengar, 
 J. Tomasi, M. Cossi, J. M. Millam, M. Klene, C. Adamo, R. Cammi, 
 J. W. Ochterski, R. L. Martin, K. Morokuma, O. Farkas, 
 J. B. Foresman, and D. J. Fox, Gaussian, Inc., Wallingford CT, 2016.
 
 ******************************************
 Gaussian 16:  EM64W-G16RevA.03 17-Dec-2016
                03-Dec-2025 
 ******************************************
 %nprocs=   4
 Will use up to    4 processors via shared memory.
 ------------------------------------
 #P B3LYP/6-31G* SCF=conver=7 out=wfn
 ------------------------------------
 1/38=1,172=1/1;
 2/12=2,17=6,18=5,40=1/2;
 3/5=1,6=6,7=1,11=2,25=1,30=1,74=-5/1,2,3;
 4//1;
 5/5=2,6=7,38=5/2;
 6/7=2,8=2,9=2,10=2,28=1/1;
 99/5=1,6=100,9=1/99;
 Leave Link    1 at Wed Dec 03 17:05:59 2025, MaxMem=           0 cpu:               0.0 elap:               0.1
 (Enter D:\Gaussian\G16W\l101.exe)
 ----------------------------------------------------
 Generated by Multiwfn (http://sobereva.com/multiwfn)
 ----------------------------------------------------
 Symbolic Z-matrix:
 Charge =  1 Multiplicity = 2
 C                     0.91883   1.23084  -0.00028 
 C                    -0.48058   1.18356  -0.00011 
 C                    -1.10004  -0.06531   0.00009 
 C                    -0.32451  -1.23121   0.00005 
 C                     1.0609   -1.16316  -0.00014 
 C                     1.70585   0.07999  -0.00024 
 H                     1.6423   -2.08196  -0.00024 
 O                    -1.04529  -2.40692   0.00008 
 O                    -2.46562  -0.14311   0.00016 
 H                    -0.44425  -3.15755  -0.0001 
 C                    -1.32613   2.43004  -0.00027 
 H                    -0.70136   3.32484  -0.00062 
 H                    -1.97923   2.46396   0.87685 
 H                    -1.97959   2.46349  -0.87713 
 H                    -2.70349  -1.07894   0.00017 
 H                     1.40248   2.2027   -0.00051 
 C                     3.21447   0.15739   0.00048 
 H                     3.64062  -0.32483   0.88645 
 H                     3.64226  -0.33909  -0.87672 
 H                     3.5548    1.19477  -0.0075 
 
 ITRead=  0  0  0  0  0  0  0  0  0  0  0  0  0  0  0  0  0  0  0  0
 MicOpt= -1 -1 -1 -1 -1 -1 -1 -1 -1 -1 -1 -1 -1 -1 -1 -1 -1 -1 -1 -1
 NAtoms=     20 NQM=       20 NQMF=       0 NMMI=      0 NMMIF=      0
                NMic=       0 NMicF=      0.
                    Isotopes and Nuclear Properties:
 (Nuclear quadrupole moments (NQMom) in fm**2, nuclear magnetic moments (NMagM)
  in nuclear magnetons)

  Atom         1           2           3           4           5           6           7           8           9          10
 IAtWgt=          12          12          12          12          12          12           1          16          16           1
 AtmWgt=  12.0000000  12.0000000  12.0000000  12.0000000  12.0000000  12.0000000   1.0078250  15.9949146  15.9949146   1.0078250
 NucSpn=           0           0           0           0           0           0           1           0           0           1
 AtZEff=   0.0000000   0.0000000   0.0000000   0.0000000   0.0000000   0.0000000   0.0000000   0.0000000   0.0000000   0.0000000
 NQMom=    0.0000000   0.0000000   0.0000000   0.0000000   0.0000000   0.0000000   0.0000000   0.0000000   0.0000000   0.0000000
 NMagM=    0.0000000   0.0000000   0.0000000   0.0000000   0.0000000   0.0000000   2.7928460   0.0000000   0.0000000   2.7928460
 AtZNuc=   6.0000000   6.0000000   6.0000000   6.0000000   6.0000000   6.0000000   1.0000000   8.0000000   8.0000000   1.0000000

  Atom        11          12          13          14          15          16          17          18          19          20
 IAtWgt=          12           1           1           1           1           1          12           1           1           1
 AtmWgt=  12.0000000   1.0078250   1.0078250   1.0078250   1.0078250   1.0078250  12.0000000   1.0078250   1.0078250   1.0078250
 NucSpn=           0           1           1           1           1           1           0           1           1           1
 AtZEff=   0.0000000   0.0000000   0.0000000   0.0000000   0.0000000   0.0000000   0.0000000   0.0000000   0.0000000   0.0000000
 NQMom=    0.0000000   0.0000000   0.0000000   0.0000000   0.0000000   0.0000000   0.0000000   0.0000000   0.0000000   0.0000000
 NMagM=    0.0000000   2.7928460   2.7928460   2.7928460   2.7928460   2.7928460   0.0000000   2.7928460   2.7928460   2.7928460
 AtZNuc=   6.0000000   1.0000000   1.0000000   1.0000000   1.0000000   1.0000000   6.0000000   1.0000000   1.0000000   1.0000000
 Leave Link  101 at Wed Dec 03 17:05:59 2025, MaxMem=   104857600 cpu:               0.0 elap:               0.1
 (Enter D:\Gaussian\G16W\l202.exe)
                          Input orientation:                          
 ---------------------------------------------------------------------
 Center     Atomic      Atomic             Coordinates (Angstroms)
 Number     Number       Type             X           Y           Z
 ---------------------------------------------------------------------
      1          6           0        0.918831    1.230840   -0.000284
      2          6           0       -0.480580    1.183555   -0.000110
      3          6           0       -1.100036   -0.065309    0.000092
      4          6           0       -0.324510   -1.231209    0.000046
      5          6           0        1.060899   -1.163162   -0.000137
      6          6           0        1.705846    0.079990   -0.000239
      7          1           0        1.642304   -2.081958   -0.000238
      8          8           0       -1.045289   -2.406916    0.000079
      9          8           0       -2.465620   -0.143107    0.000156
     10          1           0       -0.444246   -3.157546   -0.000103
     11          6           0       -1.326132    2.430042   -0.000265
     12          1           0       -0.701359    3.324839   -0.000623
     13          1           0       -1.979225    2.463956    0.876850
     14          1           0       -1.979587    2.463493   -0.877127
     15          1           0       -2.703490   -1.078942    0.000165
     16          1           0        1.402482    2.202703   -0.000509
     17          6           0        3.214469    0.157385    0.000476
     18          1           0        3.640620   -0.324831    0.886446
     19          1           0        3.642263   -0.339086   -0.876715
     20          1           0        3.554795    1.194765   -0.007498
 ---------------------------------------------------------------------
                    Distance matrix (angstroms):
                    1          2          3          4          5
     1  C    0.000000
     2  C    1.400210   0.000000
     3  C    2.399130   1.394054   0.000000
     4  C    2.758185   2.419802   1.400273   0.000000
     5  C    2.398214   2.807710   2.423824   1.387079   0.000000
     6  C    1.394220   2.449146   2.809642   2.416938   1.400494
     7  H    3.390877   3.894896   3.404013   2.142926   1.087298
     8  O    4.134131   3.634608   2.342247   1.379061   2.446007
     9  O    3.652703   2.387554   1.367798   2.401732   3.671083
    10  H    4.595205   4.341253   3.161011   1.930055   2.498605
    11  C    2.545181   1.506216   2.505573   3.795788   4.313819
    12  H    2.647612   2.152636   3.413510   4.571607   4.821588
    13  H    3.269353   2.157411   2.817598   4.142597   4.813257
    14  H    3.269421   2.157411   2.817439   4.142407   4.813138
    15  H    4.296080   3.171785   1.896976   2.383848   3.765331
    16  H    1.085558   2.141164   3.377347   3.843729   3.383153
    17  C    2.534218   3.834894   4.320248   3.801653   2.526204
    18  H    3.257996   4.477220   4.829782   4.162869   2.853732
    19  H    3.263416   4.481596   4.830439   4.159313   2.847970
    20  H    2.636221   4.035397   4.822374   4.575414   3.432112
                    6          7          8          9         10
     6  C    0.000000
     7  H    2.162882   0.000000
     8  O    3.708564   2.707167   0.000000
     9  O    4.177428   4.542486   2.672484   0.000000
    10  H    3.886455   2.347463   0.961612   3.629435   0.000000
    11  C    3.836096   5.400903   4.845104   2.814166   5.656754
    12  H    4.040258   5.892895   5.742064   3.890921   6.487482
    13  H    4.475749   5.877932   5.036503   2.793197   5.892919
    14  H    4.475761   5.877768   5.036198   2.792887   5.892582
    15  H    4.559097   4.460041   2.124417   0.965593   3.069980
    16  H    2.144281   4.291367   5.219212   4.523830   5.669451
    17  C    1.510607   2.736121   4.972040   5.688032   4.937101
    18  H    2.166435   2.804812   5.203697   6.172900   5.049393
    19  H    2.166459   2.793859   5.197868   6.173617   5.041004
    20  H    2.159025   3.794020   5.842340   6.167281   5.910583
                   11         12         13         14         15
    11  C    0.000000
    12  H    1.091331   0.000000
    13  H    1.094080   1.773138   0.000000
    14  H    1.094079   1.773145   1.753977   0.000000
    15  H    3.769627   4.837542   3.720922   3.720554   0.000000
    16  H    2.738068   2.384394   3.503420   3.503550   5.256253
    17  C    5.077601   5.036514   5.750022   5.750351   6.045721
    18  H    5.748409   5.741059   6.273761   6.517029   6.449954
    19  H    5.755101   5.749690   6.521745   6.281691   6.448634
    20  H    5.034820   4.759423   5.746155   5.744154   6.658523
                   16         17         18         19         20
    16  H    0.000000
    17  C    2.732512   0.000000
    18  H    3.490613   1.095025   0.000000
    19  H    3.499292   1.094968   1.763219   0.000000
    20  H    2.376645   1.091807   1.765127   1.765188   0.000000
 Stoichiometry    C8H10O2(1+,2)
 Framework group  C1[X(C8H10O2)]
 Deg. of freedom    54
 Full point group                 C1      NOp   1
 Largest Abelian subgroup         C1      NOp   1
 Largest concise Abelian subgroup C1      NOp   1
                         Standard orientation:                         
 ---------------------------------------------------------------------
 Center     Atomic      Atomic             Coordinates (Angstroms)
 Number     Number       Type             X           Y           Z
 ---------------------------------------------------------------------
      1          6           0        0.918831    1.230840   -0.000284
      2          6           0       -0.480580    1.183555   -0.000110
      3          6           0       -1.100036   -0.065309    0.000092
      4          6           0       -0.324510   -1.231209    0.000046
      5          6           0        1.060899   -1.163162   -0.000137
      6          6           0        1.705846    0.079990   -0.000239
      7          1           0        1.642304   -2.081958   -0.000238
      8          8           0       -1.045289   -2.406916    0.000079
      9          8           0       -2.465620   -0.143107    0.000156
     10          1           0       -0.444246   -3.157546   -0.000103
     11          6           0       -1.326132    2.430042   -0.000265
     12          1           0       -0.701359    3.324839   -0.000623
     13          1           0       -1.979225    2.463956    0.876850
     14          1           0       -1.979587    2.463493   -0.877127
     15          1           0       -2.703490   -1.078942    0.000165
     16          1           0        1.402482    2.202703   -0.000509
     17          6           0        3.214469    0.157385    0.000476
     18          1           0        3.640620   -0.324831    0.886446
     19          1           0        3.642263   -0.339086   -0.876715
     20          1           0        3.554795    1.194765   -0.007498
 ---------------------------------------------------------------------
 Rotational constants (GHZ):           1.7929805           1.2627976           0.7477819
 Leave Link  202 at Wed Dec 03 17:05:59 2025, MaxMem=   104857600 cpu:               0.0 elap:               0.1
 (Enter D:\Gaussian\G16W\l301.exe)
 Standard basis: 6-31G(d) (6D, 7F)
 Ernie: Thresh=  0.10000D-02 Tol=  0.10000D-05 Strict=F.
 There are   170 symmetry adapted cartesian basis functions of A   symmetry.
 There are   170 symmetry adapted basis functions of A   symmetry.
   170 basis functions,   320 primitive gaussians,   170 cartesian basis functions
    37 alpha electrons       36 beta electrons
       nuclear repulsion energy       518.4505527102 Hartrees.
 IExCor=  402 DFT=T Ex+Corr=B3LYP ExCW=0 ScaHFX=  0.200000
 ScaDFX=  0.800000  0.720000  1.000000  0.810000 ScalE2=  1.000000  1.000000
 IRadAn=      5 IRanWt=     -1 IRanGd=            0 ICorTp=0 IEmpDi=  4
 NAtoms=   20 NActive=   20 NUniq=   20 SFac= 1.00D+00 NAtFMM=   60 NAOKFM=F Big=F
 Integral buffers will be    131072 words long.
 Raffenetti 2 integral format.
 Two-electron integral symmetry is turned on.
 Leave Link  301 at Wed Dec 03 17:05:59 2025, MaxMem=   104857600 cpu:               0.0 elap:               0.1
 (Enter D:\Gaussian\G16W\l302.exe)
 NPDir=0 NMtPBC=     1 NCelOv=     1 NCel=       1 NClECP=     1 NCelD=      1
         NCelK=      1 NCelE2=     1 NClLst=     1 CellRange=     0.0.
 One-electron integrals computed using PRISM.
 One-electron integral symmetry used in STVInt
 NBasis=   170 RedAO= T EigKep=  3.38D-04  NBF=   170
 NBsUse=   170 1.00D-06 EigRej= -1.00D+00 NBFU=   170
 Precomputing XC quadrature grid using
 IXCGrd= 4 IRadAn=           5 IRanWt=          -1 IRanGd=           0 AccXCQ= 0.00D+00.
 Generated NRdTot=       0 NPtTot=           0 NUsed=           0 NTot=          32
 NSgBfM=   170   170   170   170   170 MxSgAt=    20 MxSgA2=    20.
 Leave Link  302 at Wed Dec 03 17:06:00 2025, MaxMem=   104857600 cpu:               1.0 elap:               0.4
 (Enter D:\Gaussian\G16W\l303.exe)
 DipDrv:  MaxL=1.
 Leave Link  303 at Wed Dec 03 17:06:00 2025, MaxMem=   104857600 cpu:               0.0 elap:               0.1
 (Enter D:\Gaussian\G16W\l401.exe)
 ExpMin= 1.61D-01 ExpMax= 5.48D+03 ExpMxC= 8.25D+02 IAcc=3 IRadAn=         5 AccDes= 0.00D+00
 Harris functional with IExCor=  402 and IRadAn=       5 diagonalized for initial guess.
 HarFok:  IExCor=  402 AccDes= 0.00D+00 IRadAn=         5 IDoV= 1 UseB2=F ITyADJ=14
 ICtDFT=  3500011 ScaDFX=  1.000000  1.000000  1.000000  1.000000
 FoFCou: FMM=F IPFlag=           0 FMFlag=      100000 FMFlg1=           0
         NFxFlg=           0 DoJE=T BraDBF=F KetDBF=T FulRan=T
         wScrn=  0.000000 ICntrl=       500 IOpCl=  0 I1Cent=   200000004 NGrid=           0
         NMat0=    1 NMatS0=      1 NMatT0=    0 NMatD0=    1 NMtDS0=    0 NMtDT0=    0
 Petite list used in FoFCou.
 Harris En= -461.080462133449    
 JPrj=0 DoOrth=F DoCkMO=F.
 Initial guess <Sx>= 0.0000 <Sy>= 0.0000 <Sz>= 0.5000 <S**2>= 0.7500 S= 0.5000
 Leave Link  401 at Wed Dec 03 17:06:01 2025, MaxMem=   104857600 cpu:               1.0 elap:               1.2
 (Enter D:\Gaussian\G16W\l502.exe)
 Integral symmetry usage will be decided dynamically.
 UHF open shell SCF:
 Using DIIS extrapolation, IDIIS=  1040.
 NGot=   104857600 LenX=   104796738 LenY=   104767397
 Requested convergence on RMS density matrix=1.00D-07 within 128 cycles.
 Requested convergence on MAX density matrix=1.00D-05.
 Requested convergence on             energy=1.00D-05.
 No special actions if energy rises.
 Fock matrices will be formed incrementally for  20 cycles.
 Integral accuracy reduced to 1.0D-05 until final iterations.

 Cycle   1  Pass 0  IDiag  1:
 FoFJK:  IHMeth= 1 ICntrl=       0 DoSepK=F KAlg= 0 I1Cent=           0 FoldK=F
 IRaf= 930000000 NMat=       1 IRICut=       1 DoRegI=T DoRafI=F ISym2E= 0 IDoP0=0 IntGTp=1.
 FoFCou: FMM=F IPFlag=           0 FMFlag=      100000 FMFlg1=           0
         NFxFlg=           0 DoJE=F BraDBF=F KetDBF=F FulRan=T
         wScrn=  0.000000 ICntrl=         0 IOpCl=  1 I1Cent=           0 NGrid=           0
         NMat0=    1 NMatS0=      1 NMatT0=    0 NMatD0=    1 NMtDS0=    0 NMtDT0=    0
 Symmetry not used in FoFCou.
 E= -460.827499430964    
 DIIS: error= 3.63D-02 at cycle   1 NSaved=   1.
 NSaved= 1 IEnMin= 1 EnMin= -460.827499430964     IErMin= 1 ErrMin= 3.63D-02
 ErrMax= 3.63D-02  0.00D+00 EMaxC= 1.00D-01 BMatC= 8.83D-01 BMatP= 8.83D-01
 IDIUse=3 WtCom= 6.37D-01 WtEn= 3.63D-01
 Coeff-Com:  0.100D+01
 Coeff-En:   0.100D+01
 Coeff:      0.100D+01
 Gap=     0.250 Goal=   None    Shift=    0.000
 Gap=     0.023 Goal=   None    Shift=    0.000
 GapD=    0.023 DampG=0.250 DampE=0.500 DampFc=0.2500 IDamp=-1.
 Damping current iteration by 2.50D-01
 RMSDP=5.98D-03 MaxDP=1.31D-01              OVMax= 3.82D-01

 Cycle   2  Pass 0  IDiag  1:
 RMSU=  1.47D-03    CP:  9.89D-01
 E= -460.904011282120     Delta-E=       -0.076511851156 Rises=F Damp=T
 DIIS: error= 1.74D-02 at cycle   2 NSaved=   2.
 NSaved= 2 IEnMin= 2 EnMin= -460.904011282120     IErMin= 2 ErrMin= 1.74D-02
 ErrMax= 1.74D-02  0.00D+00 EMaxC= 1.00D-01 BMatC= 2.25D-01 BMatP= 8.83D-01
 IDIUse=3 WtCom= 8.26D-01 WtEn= 1.74D-01
 Coeff-Com: -0.747D+00 0.175D+01
 Coeff-En:   0.000D+00 0.100D+01
 Coeff:     -0.617D+00 0.162D+01
 Gap=     0.231 Goal=   None    Shift=    0.000
 Gap=     0.051 Goal=   None    Shift=    0.000
 RMSDP=2.47D-03 MaxDP=4.13D-02 DE=-7.65D-02 OVMax= 3.44D-01

 Cycle   3  Pass 0  IDiag  1:
 RMSU=  2.21D-03    CP:  9.66D-01  1.63D+00
 E= -461.016448327361     Delta-E=       -0.112437045240 Rises=F Damp=F
 DIIS: error= 1.41D-02 at cycle   3 NSaved=   3.
 NSaved= 3 IEnMin= 3 EnMin= -461.016448327361     IErMin= 3 ErrMin= 1.41D-02
 ErrMax= 1.41D-02  0.00D+00 EMaxC= 1.00D-01 BMatC= 1.00D-01 BMatP= 2.25D-01
 IDIUse=3 WtCom= 8.59D-01 WtEn= 1.41D-01
 Coeff-Com: -0.439D+00 0.974D+00 0.466D+00
 Coeff-En:   0.000D+00 0.000D+00 0.100D+01
 Coeff:     -0.377D+00 0.837D+00 0.541D+00
 Gap=     0.238 Goal=   None    Shift=    0.000
 Gap=     0.063 Goal=   None    Shift=    0.000
 RMSDP=1.50D-03 MaxDP=3.75D-02 DE=-1.12D-01 OVMax= 1.58D-01

 Cycle   4  Pass 0  IDiag  1:
 RMSU=  9.90D-04    CP:  9.69D-01  1.92D+00  5.25D-01
 E= -461.035136232569     Delta-E=       -0.018687905208 Rises=F Damp=F
 DIIS: error= 9.76D-03 at cycle   4 NSaved=   4.
 NSaved= 4 IEnMin= 4 EnMin= -461.035136232569     IErMin= 4 ErrMin= 9.76D-03
 ErrMax= 9.76D-03  0.00D+00 EMaxC= 1.00D-01 BMatC= 3.44D-02 BMatP= 1.00D-01
 IDIUse=3 WtCom= 9.02D-01 WtEn= 9.76D-02
 Coeff-Com: -0.101D+00 0.225D+00 0.362D+00 0.514D+00
 Coeff-En:   0.000D+00 0.000D+00 0.293D+00 0.707D+00
 Coeff:     -0.911D-01 0.203D+00 0.355D+00 0.533D+00
 Gap=     0.229 Goal=   None    Shift=    0.000
 Gap=     0.068 Goal=   None    Shift=    0.000
 RMSDP=6.59D-04 MaxDP=2.14D-02 DE=-1.87D-02 OVMax= 7.92D-02

 Cycle   5  Pass 0  IDiag  1:
 RMSU=  3.07D-04    CP:  9.69D-01  1.78D+00  6.93D-01  5.94D-01
 E= -461.043775560950     Delta-E=       -0.008639328381 Rises=F Damp=F
 DIIS: error= 2.68D-03 at cycle   5 NSaved=   5.
 NSaved= 5 IEnMin= 5 EnMin= -461.043775560950     IErMin= 5 ErrMin= 2.68D-03
 ErrMax= 2.68D-03  0.00D+00 EMaxC= 1.00D-01 BMatC= 3.71D-03 BMatP= 3.44D-02
 IDIUse=3 WtCom= 9.73D-01 WtEn= 2.68D-02
 Coeff-Com: -0.862D-02 0.238D-01 0.171D+00 0.349D+00 0.465D+00
 Coeff-En:   0.000D+00 0.000D+00 0.000D+00 0.527D-01 0.947D+00
 Coeff:     -0.839D-02 0.232D-01 0.167D+00 0.341D+00 0.478D+00
 Gap=     0.229 Goal=   None    Shift=    0.000
 Gap=     0.070 Goal=   None    Shift=    0.000
 RMSDP=2.06D-04 MaxDP=6.15D-03 DE=-8.64D-03 OVMax= 1.60D-02

 Cycle   6  Pass 0  IDiag  1:
 RMSU=  1.25D-04    CP:  9.69D-01  1.79D+00  6.76D-01  6.63D-01  5.36D-01
 E= -461.044666962538     Delta-E=       -0.000891401589 Rises=F Damp=F
 DIIS: error= 5.48D-04 at cycle   6 NSaved=   6.
 NSaved= 6 IEnMin= 6 EnMin= -461.044666962538     IErMin= 6 ErrMin= 5.48D-04
 ErrMax= 5.48D-04  0.00D+00 EMaxC= 1.00D-01 BMatC= 1.93D-04 BMatP= 3.71D-03
 IDIUse=3 WtCom= 9.95D-01 WtEn= 5.48D-03
 Coeff-Com:  0.257D-02-0.543D-02 0.430D-01 0.104D+00 0.233D+00 0.623D+00
 Coeff-En:   0.000D+00 0.000D+00 0.000D+00 0.000D+00 0.000D+00 0.100D+01
 Coeff:      0.255D-02-0.540D-02 0.427D-01 0.103D+00 0.232D+00 0.625D+00
 Gap=     0.228 Goal=   None    Shift=    0.000
 Gap=     0.071 Goal=   None    Shift=    0.000
 RMSDP=6.41D-05 MaxDP=3.37D-03 DE=-8.91D-04 OVMax= 9.28D-03

 Cycle   7  Pass 0  IDiag  1:
 RMSU=  5.51D-05    CP:  9.69D-01  1.79D+00  6.81D-01  6.65D-01  6.26D-01
                    CP:  9.04D-01
 E= -461.044720215818     Delta-E=       -0.000053253279 Rises=F Damp=F
 DIIS: error= 2.94D-04 at cycle   7 NSaved=   7.
 NSaved= 7 IEnMin= 7 EnMin= -461.044720215818     IErMin= 7 ErrMin= 2.94D-04
 ErrMax= 2.94D-04  0.00D+00 EMaxC= 1.00D-01 BMatC= 5.18D-05 BMatP= 1.93D-04
 IDIUse=3 WtCom= 9.97D-01 WtEn= 2.94D-03
 Coeff-Com:  0.341D-02-0.804D-02-0.102D-01-0.126D-01 0.373D-01 0.377D+00
 Coeff-Com:  0.613D+00
 Coeff-En:   0.000D+00 0.000D+00 0.000D+00 0.000D+00 0.000D+00 0.000D+00
 Coeff-En:   0.100D+01
 Coeff:      0.340D-02-0.801D-02-0.101D-01-0.126D-01 0.372D-01 0.376D+00
 Coeff:      0.614D+00
 Gap=     0.228 Goal=   None    Shift=    0.000
 Gap=     0.072 Goal=   None    Shift=    0.000
 RMSDP=3.54D-05 MaxDP=1.10D-03 DE=-5.33D-05 OVMax= 5.56D-03

 Cycle   8  Pass 0  IDiag  1:
 RMSU=  2.45D-05    CP:  9.69D-01  1.80D+00  6.82D-01  6.73D-01  6.73D-01
                    CP:  1.06D+00  1.00D+00
 E= -461.044740636785     Delta-E=       -0.000020420967 Rises=F Damp=F
 DIIS: error= 1.26D-04 at cycle   8 NSaved=   8.
 NSaved= 8 IEnMin= 8 EnMin= -461.044740636785     IErMin= 8 ErrMin= 1.26D-04
 ErrMax= 1.26D-04  0.00D+00 EMaxC= 1.00D-01 BMatC= 6.51D-06 BMatP= 5.18D-05
 IDIUse=3 WtCom= 9.99D-01 WtEn= 1.26D-03
 Coeff-Com:  0.335D-03-0.895D-03-0.120D-01-0.270D-01-0.458D-01 0.146D-01
 Coeff-Com:  0.221D+00 0.850D+00
 Coeff-En:   0.000D+00 0.000D+00 0.000D+00 0.000D+00 0.000D+00 0.000D+00
 Coeff-En:   0.000D+00 0.100D+01
 Coeff:      0.334D-03-0.894D-03-0.120D-01-0.270D-01-0.457D-01 0.146D-01
 Coeff:      0.220D+00 0.850D+00
 Gap=     0.228 Goal=   None    Shift=    0.000
 Gap=     0.072 Goal=   None    Shift=    0.000
 RMSDP=2.84D-05 MaxDP=1.02D-03 DE=-2.04D-05 OVMax= 6.18D-03

 Cycle   9  Pass 0  IDiag  1:
 RMSU=  1.29D-05    CP:  9.69D-01  1.80D+00  6.83D-01  6.78D-01  7.04D-01
                    CP:  1.16D+00  1.30D+00  1.43D+00
 E= -461.044748234304     Delta-E=       -0.000007597519 Rises=F Damp=F
 DIIS: error= 1.01D-04 at cycle   9 NSaved=   9.
 NSaved= 9 IEnMin= 9 EnMin= -461.044748234304     IErMin= 9 ErrMin= 1.01D-04
 ErrMax= 1.01D-04  0.00D+00 EMaxC= 1.00D-01 BMatC= 4.62D-06 BMatP= 6.51D-06
 IDIUse=3 WtCom= 9.99D-01 WtEn= 1.01D-03
 Coeff-Com: -0.518D-03 0.131D-02-0.466D-02-0.135D-01-0.438D-01-0.818D-01
 Coeff-Com: -0.239D-01 0.574D+00 0.593D+00
 Coeff-En:   0.000D+00 0.000D+00 0.000D+00 0.000D+00 0.000D+00 0.000D+00
 Coeff-En:   0.000D+00 0.000D+00 0.100D+01
 Coeff:     -0.517D-03 0.131D-02-0.465D-02-0.135D-01-0.438D-01-0.817D-01
 Coeff:     -0.239D-01 0.574D+00 0.593D+00
 Gap=     0.228 Goal=   None    Shift=    0.000
 Gap=     0.072 Goal=   None    Shift=    0.000
 RMSDP=1.68D-05 MaxDP=5.31D-04 DE=-7.60D-06 OVMax= 3.49D-03

 Cycle  10  Pass 0  IDiag  1:
 RMSU=  6.78D-06    CP:  9.69D-01  1.80D+00  6.83D-01  6.80D-01  7.15D-01
                    CP:  1.22D+00  1.46D+00  1.77D+00  1.10D+00
 E= -461.044751847945     Delta-E=       -0.000003613641 Rises=F Damp=F
 DIIS: error= 5.31D-05 at cycle  10 NSaved=  10.
 NSaved=10 IEnMin=10 EnMin= -461.044751847945     IErMin=10 ErrMin= 5.31D-05
 ErrMax= 5.31D-05  0.00D+00 EMaxC= 1.00D-01 BMatC= 7.31D-07 BMatP= 4.62D-06
 IDIUse=1 WtCom= 1.00D+00 WtEn= 0.00D+00
 Coeff-Com:  0.261D-03-0.246D-03 0.350D-02 0.771D-02 0.681D-02 0.110D-01
 Coeff-Com: -0.588D-01-0.174D+00-0.524D-01 0.126D+01
 Coeff:      0.261D-03-0.246D-03 0.350D-02 0.771D-02 0.681D-02 0.110D-01
 Coeff:     -0.588D-01-0.174D+00-0.524D-01 0.126D+01
 Gap=     0.228 Goal=   None    Shift=    0.000
 Gap=     0.072 Goal=   None    Shift=    0.000
 RMSDP=1.83D-05 MaxDP=7.58D-04 DE=-3.61D-06 OVMax= 4.27D-03

 Cycle  11  Pass 0  IDiag  1:
 RMSU=  4.58D-06    CP:  9.69D-01  1.80D+00  6.83D-01  6.83D-01  7.28D-01
                    CP:  1.28D+00  1.62D+00  2.12D+00  1.67D+00  1.82D+00
 E= -461.044754005748     Delta-E=       -0.000002157803 Rises=F Damp=F
 DIIS: error= 4.37D-05 at cycle  11 NSaved=  11.
 NSaved=11 IEnMin=11 EnMin= -461.044754005748     IErMin=11 ErrMin= 4.37D-05
 ErrMax= 4.37D-05  0.00D+00 EMaxC= 1.00D-01 BMatC= 8.47D-07 BMatP= 7.31D-07
 IDIUse=1 WtCom= 1.00D+00 WtEn= 0.00D+00
 Coeff-Com:  0.420D-03-0.721D-03 0.463D-02 0.114D-01 0.227D-01 0.472D-01
 Coeff-Com: -0.353D-01-0.389D+00-0.377D+00 0.102D+01 0.696D+00
 Coeff:      0.420D-03-0.721D-03 0.463D-02 0.114D-01 0.227D-01 0.472D-01
 Coeff:     -0.353D-01-0.389D+00-0.377D+00 0.102D+01 0.696D+00
 Gap=     0.228 Goal=   None    Shift=    0.000
 Gap=     0.072 Goal=   None    Shift=    0.000
 RMSDP=1.37D-05 MaxDP=4.86D-04 DE=-2.16D-06 OVMax= 2.95D-03

 Cycle  12  Pass 0  IDiag  1:
 RMSU=  1.91D-06    CP:  9.69D-01  1.80D+00  6.84D-01  6.85D-01  7.38D-01
                    CP:  1.32D+00  1.74D+00  2.43D+00  2.06D+00  2.60D+00
                    CP:  1.06D+00
 E= -461.044755084092     Delta-E=       -0.000001078344 Rises=F Damp=F
 DIIS: error= 1.75D-05 at cycle  12 NSaved=  12.
 NSaved=12 IEnMin=12 EnMin= -461.044755084092     IErMin=12 ErrMin= 1.75D-05
 ErrMax= 1.75D-05  0.00D+00 EMaxC= 1.00D-01 BMatC= 7.61D-08 BMatP= 7.31D-07
 IDIUse=1 WtCom= 1.00D+00 WtEn= 0.00D+00
 Coeff-Com:  0.147D-03-0.313D-03 0.838D-03 0.227D-02 0.792D-02 0.247D-01
 Coeff-Com:  0.151D-01-0.944D-01-0.171D+00 0.368D-01 0.101D+00 0.108D+01
 Coeff:      0.147D-03-0.313D-03 0.838D-03 0.227D-02 0.792D-02 0.247D-01
 Coeff:      0.151D-01-0.944D-01-0.171D+00 0.368D-01 0.101D+00 0.108D+01
 Gap=     0.228 Goal=   None    Shift=    0.000
 Gap=     0.072 Goal=   None    Shift=    0.000
 RMSDP=8.32D-06 MaxDP=3.28D-04 DE=-1.08D-06 OVMax= 1.95D-03

 Initial convergence to 1.0D-05 achieved.  Increase integral accuracy.
 Cycle  13  Pass 1  IDiag  1:
 E= -461.044750033443     Delta-E=        0.000005050648 Rises=F Damp=F
 DIIS: error= 1.39D-05 at cycle   1 NSaved=   1.
 NSaved= 1 IEnMin= 1 EnMin= -461.044750033443     IErMin= 1 ErrMin= 1.39D-05
 ErrMax= 1.39D-05  0.00D+00 EMaxC= 1.00D-01 BMatC= 1.67D-07 BMatP= 1.67D-07
 IDIUse=1 WtCom= 1.00D+00 WtEn= 0.00D+00
 Coeff-Com:  0.100D+01
 Coeff:      0.100D+01
 Gap=     0.228 Goal=   None    Shift=    0.000
 Gap=     0.072 Goal=   None    Shift=    0.000
 RMSDP=8.32D-06 MaxDP=3.28D-04 DE= 5.05D-06 OVMax= 1.57D-04

 Cycle  14  Pass 1  IDiag  1:
 RMSU=  5.30D-06    CP:  1.00D+00
 E= -461.044750047602     Delta-E=       -0.000000014158 Rises=F Damp=F
 DIIS: error= 1.48D-05 at cycle   2 NSaved=   2.
 NSaved= 2 IEnMin= 2 EnMin= -461.044750047602     IErMin= 1 ErrMin= 1.39D-05
 ErrMax= 1.48D-05  0.00D+00 EMaxC= 1.00D-01 BMatC= 1.42D-07 BMatP= 1.67D-07
 IDIUse=1 WtCom= 1.00D+00 WtEn= 0.00D+00
 Coeff-Com:  0.475D+00 0.525D+00
 Coeff:      0.475D+00 0.525D+00
 Gap=     0.228 Goal=   None    Shift=    0.000
 Gap=     0.072 Goal=   None    Shift=    0.000
 RMSDP=1.99D-06 MaxDP=7.91D-05 DE=-1.42D-08 OVMax= 3.65D-04

 Cycle  15  Pass 1  IDiag  1:
 RMSU=  1.96D-06    CP:  1.00D+00  9.33D-01
 E= -461.044750083213     Delta-E=       -0.000000035611 Rises=F Damp=F
 DIIS: error= 8.76D-06 at cycle   3 NSaved=   3.
 NSaved= 3 IEnMin= 3 EnMin= -461.044750083213     IErMin= 3 ErrMin= 8.76D-06
 ErrMax= 8.76D-06  0.00D+00 EMaxC= 1.00D-01 BMatC= 5.55D-08 BMatP= 1.42D-07
 IDIUse=1 WtCom= 1.00D+00 WtEn= 0.00D+00
 Coeff-Com: -0.445D-02 0.379D+00 0.626D+00
 Coeff:     -0.445D-02 0.379D+00 0.626D+00
 Gap=     0.228 Goal=   None    Shift=    0.000
 Gap=     0.072 Goal=   None    Shift=    0.000
 RMSDP=8.75D-07 MaxDP=2.68D-05 DE=-3.56D-08 OVMax= 1.25D-04

 Cycle  16  Pass 1  IDiag  1:
 RMSU=  8.08D-07    CP:  1.00D+00  9.96D-01  9.79D-01
 E= -461.044750101319     Delta-E=       -0.000000018106 Rises=F Damp=F
 DIIS: error= 4.33D-06 at cycle   4 NSaved=   4.
 NSaved= 4 IEnMin= 4 EnMin= -461.044750101319     IErMin= 4 ErrMin= 4.33D-06
 ErrMax= 4.33D-06  0.00D+00 EMaxC= 1.00D-01 BMatC= 6.32D-09 BMatP= 5.55D-08
 IDIUse=1 WtCom= 1.00D+00 WtEn= 0.00D+00
 Coeff-Com: -0.263D-01 0.209D+00 0.235D+00 0.582D+00
 Coeff:     -0.263D-01 0.209D+00 0.235D+00 0.582D+00
 Gap=     0.228 Goal=   None    Shift=    0.000
 Gap=     0.072 Goal=   None    Shift=    0.000
 RMSDP=4.88D-07 MaxDP=1.93D-05 DE=-1.81D-08 OVMax= 1.04D-04

 Cycle  17  Pass 1  IDiag  1:
 RMSU=  2.76D-07    CP:  1.00D+00  1.02D+00  1.09D+00  1.38D+00
 E= -461.044750105436     Delta-E=       -0.000000004117 Rises=F Damp=F
 DIIS: error= 3.01D-06 at cycle   5 NSaved=   5.
 NSaved= 5 IEnMin= 5 EnMin= -461.044750105436     IErMin= 5 ErrMin= 3.01D-06
 ErrMax= 3.01D-06  0.00D+00 EMaxC= 1.00D-01 BMatC= 4.72D-09 BMatP= 6.32D-09
 IDIUse=1 WtCom= 1.00D+00 WtEn= 0.00D+00
 Coeff-Com: -0.731D-02-0.149D+00-0.639D+00 0.437D+00 0.136D+01
 Coeff:     -0.731D-02-0.149D+00-0.639D+00 0.437D+00 0.136D+01
 Gap=     0.228 Goal=   None    Shift=    0.000
 Gap=     0.072 Goal=   None    Shift=    0.000
 RMSDP=1.28D-06 MaxDP=3.93D-05 DE=-4.12D-09 OVMax= 2.89D-04

 Cycle  18  Pass 1  IDiag  1:
 RMSU=  1.93D-07    CP:  1.00D+00  1.08D+00  1.40D+00  2.71D+00  1.51D+00
 E= -461.044750112962     Delta-E=       -0.000000007526 Rises=F Damp=F
 DIIS: error= 1.96D-06 at cycle   6 NSaved=   6.
 NSaved= 6 IEnMin= 6 EnMin= -461.044750112962     IErMin= 6 ErrMin= 1.96D-06
 ErrMax= 1.96D-06  0.00D+00 EMaxC= 1.00D-01 BMatC= 1.93D-09 BMatP= 4.72D-09
 IDIUse=1 WtCom= 1.00D+00 WtEn= 0.00D+00
 Coeff-Com:  0.660D-02-0.219D+00-0.721D+00 0.130D+00 0.118D+01 0.620D+00
 Coeff:      0.660D-02-0.219D+00-0.721D+00 0.130D+00 0.118D+01 0.620D+00
 Gap=     0.228 Goal=   None    Shift=    0.000
 Gap=     0.072 Goal=   None    Shift=    0.000
 RMSDP=8.16D-07 MaxDP=3.04D-05 DE=-7.53D-09 OVMax= 1.86D-04

 Cycle  19  Pass 1  IDiag  1:
 RMSU=  4.27D-07    CP:  1.00D+00  1.11D+00  1.60D+00  3.00D+00  2.20D+00
                    CP:  8.24D-01
 E= -461.044750115070     Delta-E=       -0.000000002108 Rises=F Damp=F
 DIIS: error= 4.95D-07 at cycle   7 NSaved=   7.
 NSaved= 7 IEnMin= 7 EnMin= -461.044750115070     IErMin= 7 ErrMin= 4.95D-07
 ErrMax= 4.95D-07  0.00D+00 EMaxC= 1.00D-01 BMatC= 1.69D-10 BMatP= 1.93D-09
 IDIUse=1 WtCom= 1.00D+00 WtEn= 0.00D+00
 Coeff-Com:  0.432D-02-0.889D-01-0.292D+00 0.783D-02 0.408D+00 0.340D+00
 Coeff-Com:  0.621D+00
 Coeff:      0.432D-02-0.889D-01-0.292D+00 0.783D-02 0.408D+00 0.340D+00
 Coeff:      0.621D+00
 Gap=     0.228 Goal=   None    Shift=    0.000
 Gap=     0.072 Goal=   None    Shift=    0.000
 RMSDP=1.78D-07 MaxDP=5.38D-06 DE=-2.11D-09 OVMax= 3.91D-05

 Cycle  20  Pass 1  IDiag  1:
 RMSU=  5.94D-08    CP:  1.00D+00  1.12D+00  1.64D+00  3.00D+00  2.30D+00
                    CP:  9.49D-01  1.33D+00
 E= -461.044750115205     Delta-E=       -0.000000000135 Rises=F Damp=F
 DIIS: error= 2.28D-07 at cycle   8 NSaved=   8.
 NSaved= 8 IEnMin= 8 EnMin= -461.044750115205     IErMin= 8 ErrMin= 2.28D-07
 ErrMax= 2.28D-07  0.00D+00 EMaxC= 1.00D-01 BMatC= 3.52D-11 BMatP= 1.69D-10
 IDIUse=1 WtCom= 1.00D+00 WtEn= 0.00D+00
 Coeff-Com:  0.785D-03 0.502D-02 0.970D-02-0.244D-01-0.642D-01 0.423D-01
 Coeff-Com:  0.346D+00 0.685D+00
 Coeff:      0.785D-03 0.502D-02 0.970D-02-0.244D-01-0.642D-01 0.423D-01
 Coeff:      0.346D+00 0.685D+00
 Gap=     0.228 Goal=   None    Shift=    0.000
 Gap=     0.072 Goal=   None    Shift=    0.000
 RMSDP=6.12D-08 MaxDP=2.76D-06 DE=-1.35D-10 OVMax= 1.28D-05

 SCF Done:  E(UB3LYP) =  -461.044750115     A.U. after   20 cycles
            NFock= 20  Conv=0.61D-07     -V/T= 2.0093
 <Sx>= 0.0000 <Sy>= 0.0000 <Sz>= 0.5000 <S**2>= 0.7594 S= 0.5047
 <L.S>= 0.000000000000E+00
 KE= 4.567951926793D+02 PE=-2.096481139209D+03 EE= 6.601906437041D+02
 Annihilation of the first spin contaminant:
 S**2 before annihilation     0.7594,   after     0.7501
 Leave Link  502 at Wed Dec 03 17:06:43 2025, MaxMem=   104857600 cpu:              42.0 elap:              41.6
 (Enter D:\Gaussian\G16W\l601.exe)
 Copying SCF densities to generalized density rwf, IOpCl= 1 IROHF=0.

 **********************************************************************

            Population analysis using the SCF density.

 **********************************************************************

 Orbital symmetries:
 Alpha Orbitals:
       Occupied  (A) (A) (A) (A) (A) (A) (A) (A) (A) (A) (A) (A)
                 (A) (A) (A) (A) (A) (A) (A) (A) (A) (A) (A) (A)
                 (A) (A) (A) (A) (A) (A) (A) (A) (A) (A) (A) (A)
                 (A)
       Virtual   (A) (A) (A) (A) (A) (A) (A) (A) (A) (A) (A) (A)
                 (A) (A) (A) (A) (A) (A) (A) (A) (A) (A) (A) (A)
                 (A) (A) (A) (A) (A) (A) (A) (A) (A) (A) (A) (A)
                 (A) (A) (A) (A) (A) (A) (A) (A) (A) (A) (A) (A)
                 (A) (A) (A) (A) (A) (A) (A) (A) (A) (A) (A) (A)
                 (A) (A) (A) (A) (A) (A) (A) (A) (A) (A) (A) (A)
                 (A) (A) (A) (A) (A) (A) (A) (A) (A) (A) (A) (A)
                 (A) (A) (A) (A) (A) (A) (A) (A) (A) (A) (A) (A)
                 (A) (A) (A) (A) (A) (A) (A) (A) (A) (A) (A) (A)
                 (A) (A) (A) (A) (A) (A) (A) (A) (A) (A) (A) (A)
                 (A) (A) (A) (A) (A) (A) (A) (A) (A) (A) (A) (A)
                 (A)
 Beta  Orbitals:
       Occupied  (A) (A) (A) (A) (A) (A) (A) (A) (A) (A) (A) (A)
                 (A) (A) (A) (A) (A) (A) (A) (A) (A) (A) (A) (A)
                 (A) (A) (A) (A) (A) (A) (A) (A) (A) (A) (A) (A)
       Virtual   (A) (A) (A) (A) (A) (A) (A) (A) (A) (A) (A) (A)
                 (A) (A) (A) (A) (A) (A) (A) (A) (A) (A) (A) (A)
                 (A) (A) (A) (A) (A) (A) (A) (A) (A) (A) (A) (A)
                 (A) (A) (A) (A) (A) (A) (A) (A) (A) (A) (A) (A)
                 (A) (A) (A) (A) (A) (A) (A) (A) (A) (A) (A) (A)
                 (A) (A) (A) (A) (A) (A) (A) (A) (A) (A) (A) (A)
                 (A) (A) (A) (A) (A) (A) (A) (A) (A) (A) (A) (A)
                 (A) (A) (A) (A) (A) (A) (A) (A) (A) (A) (A) (A)
                 (A) (A) (A) (A) (A) (A) (A) (A) (A) (A) (A) (A)
                 (A) (A) (A) (A) (A) (A) (A) (A) (A) (A) (A) (A)
                 (A) (A) (A) (A) (A) (A) (A) (A) (A) (A) (A) (A)
                 (A) (A)
 The electronic state is 2-A.
 Alpha  occ. eigenvalues --  -19.40407 -19.39281 -10.47466 -10.46902 -10.41222
 Alpha  occ. eigenvalues --  -10.39455 -10.38203 -10.38027 -10.34375 -10.33301
 Alpha  occ. eigenvalues --   -1.28796  -1.25753  -1.06446  -0.97497  -0.95478
 Alpha  occ. eigenvalues --   -0.87107  -0.86490  -0.82934  -0.77299  -0.74804
 Alpha  occ. eigenvalues --   -0.72322  -0.68714  -0.64884  -0.63957  -0.60366
 Alpha  occ. eigenvalues --   -0.59923  -0.59031  -0.58849  -0.58239  -0.55806
 Alpha  occ. eigenvalues --   -0.55611  -0.54033  -0.53582  -0.52326  -0.50802
 Alpha  occ. eigenvalues --   -0.42638  -0.42541
 Alpha virt. eigenvalues --   -0.19761  -0.18768  -0.11813  -0.07609  -0.04518
 Alpha virt. eigenvalues --   -0.04176  -0.02649  -0.01730  -0.00677   0.01963
 Alpha virt. eigenvalues --    0.02454   0.04233   0.04799   0.05034   0.07036
 Alpha virt. eigenvalues --    0.08612   0.09345   0.15682   0.16072   0.18312
 Alpha virt. eigenvalues --    0.21060   0.28752   0.31135   0.31867   0.33492
 Alpha virt. eigenvalues --    0.37019   0.37665   0.38517   0.39086   0.39446
 Alpha virt. eigenvalues --    0.42856   0.43431   0.43954   0.45816   0.48689
 Alpha virt. eigenvalues --    0.49941   0.51160   0.53111   0.54796   0.57379
 Alpha virt. eigenvalues --    0.58872   0.59318   0.60597   0.61946   0.67217
 Alpha virt. eigenvalues --    0.67732   0.69271   0.70923   0.72367   0.75680
 Alpha virt. eigenvalues --    0.75713   0.76351   0.77008   0.78877   0.81108
 Alpha virt. eigenvalues --    0.82658   0.82940   0.83706   0.88380   0.89958
 Alpha virt. eigenvalues --    0.92341   0.94694   1.01027   1.02118   1.02370
 Alpha virt. eigenvalues --    1.07766   1.12086   1.14083   1.17334   1.19184
 Alpha virt. eigenvalues --    1.20057   1.21322   1.23049   1.23811   1.28032
 Alpha virt. eigenvalues --    1.34243   1.49983   1.52514   1.53430   1.53586
 Alpha virt. eigenvalues --    1.56114   1.58323   1.64803   1.64865   1.66538
 Alpha virt. eigenvalues --    1.67736   1.69482   1.70037   1.73532   1.74117
 Alpha virt. eigenvalues --    1.76240   1.78751   1.81736   1.88987   1.91106
 Alpha virt. eigenvalues --    1.96173   1.98778   2.03191   2.07817   2.09601
 Alpha virt. eigenvalues --    2.11456   2.12731   2.13439   2.16168   2.18328
 Alpha virt. eigenvalues --    2.19211   2.21209   2.21515   2.27724   2.28922
 Alpha virt. eigenvalues --    2.35706   2.38647   2.46294   2.46738   2.53343
 Alpha virt. eigenvalues --    2.56972   2.62007   2.66899   2.71100   2.72047
 Alpha virt. eigenvalues --    2.85806   3.00478   3.23867   3.67600   3.88088
 Alpha virt. eigenvalues --    3.90224   3.96947   4.00373   4.09198   4.11502
 Alpha virt. eigenvalues --    4.25820   4.36192   4.72306
  Beta  occ. eigenvalues --  -19.39842 -19.39028 -10.47015 -10.46668 -10.40827
  Beta  occ. eigenvalues --  -10.39445 -10.38141 -10.38094 -10.34383 -10.33301
  Beta  occ. eigenvalues --   -1.27852  -1.24963  -1.05641  -0.96751  -0.94820
  Beta  occ. eigenvalues --   -0.86778  -0.86287  -0.82581  -0.76830  -0.74443
  Beta  occ. eigenvalues --   -0.72046  -0.68390  -0.63678  -0.62417  -0.60097
  Beta  occ. eigenvalues --   -0.59539  -0.58812  -0.57538  -0.57038  -0.55436
  Beta  occ. eigenvalues --   -0.54291  -0.53907  -0.53419  -0.52153  -0.48951
  Beta  occ. eigenvalues --   -0.41985
  Beta virt. eigenvalues --   -0.34777  -0.17879  -0.16363  -0.11559  -0.07395
  Beta virt. eigenvalues --   -0.04381  -0.02670  -0.02548  -0.01629  -0.00579
  Beta virt. eigenvalues --    0.02019   0.02644   0.04555   0.05264   0.05415
  Beta virt. eigenvalues --    0.07481   0.09101   0.09780   0.15991   0.16320
  Beta virt. eigenvalues --    0.18837   0.21315   0.28902   0.31462   0.32760
  Beta virt. eigenvalues --    0.33880   0.37789   0.37947   0.38782   0.39471
  Beta virt. eigenvalues --    0.39595   0.43148   0.43596   0.44251   0.46260
  Beta virt. eigenvalues --    0.49443   0.50593   0.51297   0.53303   0.55010
  Beta virt. eigenvalues --    0.57620   0.59518   0.59737   0.60754   0.62636
  Beta virt. eigenvalues --    0.67329   0.67701   0.69443   0.71601   0.72886
  Beta virt. eigenvalues --    0.75815   0.76288   0.76632   0.77116   0.79200
  Beta virt. eigenvalues --    0.81323   0.83064   0.83996   0.84016   0.88576
  Beta virt. eigenvalues --    0.90094   0.92727   0.94962   1.01263   1.02275
  Beta virt. eigenvalues --    1.03547   1.07858   1.13174   1.14386   1.17851
  Beta virt. eigenvalues --    1.19866   1.20877   1.22003   1.23379   1.24067
  Beta virt. eigenvalues --    1.28812   1.34496   1.50807   1.52937   1.53870
  Beta virt. eigenvalues --    1.54295   1.56603   1.59003   1.65473   1.65601
  Beta virt. eigenvalues --    1.67187   1.68038   1.69852   1.70386   1.73718
  Beta virt. eigenvalues --    1.74509   1.76527   1.79300   1.82041   1.89537
  Beta virt. eigenvalues --    1.91734   1.96464   1.99302   2.03906   2.08664
  Beta virt. eigenvalues --    2.10442   2.11599   2.13808   2.13846   2.16257
  Beta virt. eigenvalues --    2.18468   2.19418   2.21835   2.22296   2.28199
  Beta virt. eigenvalues --    2.29548   2.36081   2.39933   2.47286   2.47581
  Beta virt. eigenvalues --    2.53891   2.57270   2.62194   2.67204   2.71435
  Beta virt. eigenvalues --    2.72211   2.86556   3.00700   3.24055   3.68197
  Beta virt. eigenvalues --    3.88546   3.90639   3.97537   4.00701   4.09276
  Beta virt. eigenvalues --    4.11805   4.26143   4.36662   4.72940
          Condensed to atoms (all electrons):
               1          2          3          4          5          6
     1  C    5.037469   0.550036  -0.024795  -0.050702  -0.053781   0.475320
     2  C    0.550036   4.767813   0.459601  -0.063203  -0.034499  -0.018139
     3  C   -0.024795   0.459601   4.777244   0.329074  -0.051207  -0.031339
     4  C   -0.050702  -0.063203   0.329074   4.764492   0.466861   0.016384
     5  C   -0.053781  -0.034499  -0.051207   0.466861   5.168723   0.475133
     6  C    0.475320  -0.018139  -0.031339   0.016384   0.475133   4.657249
     7  H    0.005014   0.000321   0.003742  -0.039664   0.355552  -0.028318
     8  O    0.000349   0.003148  -0.048290   0.284712  -0.057376   0.003104
     9  O    0.003507  -0.066969   0.344671  -0.065723   0.004535  -0.000259
    10  H   -0.000003  -0.000116   0.005774  -0.019856  -0.003317   0.000305
    11  C   -0.046922   0.349067  -0.058210   0.008682   0.000210   0.005868
    12  H   -0.004463  -0.027942   0.005200  -0.000151   0.000007   0.000242
    13  H    0.000611  -0.024065  -0.005498  -0.000016   0.000004  -0.000154
    14  H    0.000607  -0.024063  -0.005491  -0.000015   0.000004  -0.000155
    15  H   -0.000097   0.006016  -0.023040  -0.013370   0.000864  -0.000080
    16  H    0.359424  -0.035312   0.005707  -0.000007   0.006066  -0.039214
    17  C   -0.041009   0.005967   0.000579   0.003981  -0.055531   0.352644
    18  H    0.000861  -0.000193   0.000008  -0.000053  -0.003010  -0.022040
    19  H    0.000933  -0.000192   0.000008  -0.000045  -0.003018  -0.022188
    20  H   -0.002382   0.000356  -0.000006  -0.000122   0.003575  -0.031667
               7          8          9         10         11         12
     1  C    0.005014   0.000349   0.003507  -0.000003  -0.046922  -0.004463
     2  C    0.000321   0.003148  -0.066969  -0.000116   0.349067  -0.027942
     3  C    0.003742  -0.048290   0.344671   0.005774  -0.058210   0.005200
     4  C   -0.039664   0.284712  -0.065723  -0.019856   0.008682  -0.000151
     5  C    0.355552  -0.057376   0.004535  -0.003317   0.000210   0.000007
     6  C   -0.028318   0.003104  -0.000259   0.000305   0.005868   0.000242
     7  H    0.513589  -0.004002  -0.000037   0.004978   0.000006   0.000000
     8  O   -0.004002   8.174743  -0.009149   0.249602  -0.000052   0.000000
     9  O   -0.000037  -0.009149   8.083562   0.000128  -0.004155   0.000208
    10  H    0.004978   0.249602   0.000128   0.300324   0.000004   0.000000
    11  C    0.000006  -0.000052  -0.004155   0.000004   5.174114   0.368790
    12  H    0.000000   0.000000   0.000208   0.000000   0.368790   0.500249
    13  H    0.000000   0.000000   0.001891   0.000000   0.368369  -0.022644
    14  H    0.000000   0.000000   0.001892   0.000000   0.368361  -0.022643
    15  H   -0.000009   0.021331   0.242017  -0.000674  -0.000148  -0.000001
    16  H   -0.000131   0.000002  -0.000038  -0.000001  -0.007172   0.005269
    17  C   -0.005864  -0.000043   0.000000  -0.000010  -0.000157  -0.000004
    18  H    0.001425   0.000000   0.000000   0.000000   0.000002   0.000000
    19  H    0.001476   0.000000   0.000000   0.000000   0.000002   0.000000
    20  H    0.000029   0.000000   0.000000   0.000000  -0.000003  -0.000001
              13         14         15         16         17         18
     1  C    0.000611   0.000607  -0.000097   0.359424  -0.041009   0.000861
     2  C   -0.024065  -0.024063   0.006016  -0.035312   0.005967  -0.000193
     3  C   -0.005498  -0.005491  -0.023040   0.005707   0.000579   0.000008
     4  C   -0.000016  -0.000015  -0.013370  -0.000007   0.003981  -0.000053
     5  C    0.000004   0.000004   0.000864   0.006066  -0.055531  -0.003010
     6  C   -0.000154  -0.000155  -0.000080  -0.039214   0.352644  -0.022040
     7  H    0.000000   0.000000  -0.000009  -0.000131  -0.005864   0.001425
     8  O    0.000000   0.000000   0.021331   0.000002  -0.000043   0.000000
     9  O    0.001891   0.001892   0.242017  -0.000038   0.000000   0.000000
    10  H    0.000000   0.000000  -0.000674  -0.000001  -0.000010   0.000000
    11  C    0.368369   0.368361  -0.000148  -0.007172  -0.000157   0.000002
    12  H   -0.022644  -0.022643  -0.000001   0.005269  -0.000004   0.000000
    13  H    0.492803  -0.025410  -0.000022   0.000082   0.000002   0.000000
    14  H   -0.025410   0.492804  -0.000022   0.000083   0.000002   0.000000
    15  H   -0.000022  -0.000022   0.293176   0.000003   0.000000   0.000000
    16  H    0.000082   0.000083   0.000003   0.507297  -0.006778   0.000096
    17  C    0.000002   0.000002   0.000000  -0.006778   5.196800   0.363268
    18  H    0.000000   0.000000   0.000000   0.000096   0.363268   0.480484
    19  H    0.000000   0.000000   0.000000   0.000092   0.363426  -0.021339
    20  H    0.000000   0.000000   0.000000   0.005154   0.372900  -0.022491
              19         20
     1  C    0.000933  -0.002382
     2  C   -0.000192   0.000356
     3  C    0.000008  -0.000006
     4  C   -0.000045  -0.000122
     5  C   -0.003018   0.003575
     6  C   -0.022188  -0.031667
     7  H    0.001476   0.000029
     8  O    0.000000   0.000000
     9  O    0.000000   0.000000
    10  H    0.000000   0.000000
    11  C    0.000002  -0.000003
    12  H    0.000000  -0.000001
    13  H    0.000000   0.000000
    14  H    0.000000   0.000000
    15  H    0.000000   0.000000
    16  H    0.000092   0.005154
    17  C    0.363426   0.372900
    18  H   -0.021339  -0.022491
    19  H    0.480874  -0.022560
    20  H   -0.022560   0.490805
          Atomic-Atomic Spin Densities.
               1          2          3          4          5          6
     1  C    0.074804  -0.027136  -0.006631  -0.002758  -0.001091   0.037533
     2  C   -0.027136  -0.000209   0.032436  -0.001057   0.000993  -0.006031
     3  C   -0.006631   0.032436   0.318673   0.044928  -0.003163  -0.006536
     4  C   -0.002758  -0.001057   0.044928   0.158467  -0.004970  -0.005899
     5  C   -0.001091   0.000993  -0.003163  -0.004970  -0.102028   0.009512
     6  C    0.037533  -0.006031  -0.006536  -0.005899   0.009512   0.279569
     7  H    0.000044  -0.000061   0.000155  -0.000080   0.001153  -0.000564
     8  O    0.000023  -0.000040  -0.006869  -0.034249   0.002253   0.000211
     9  O    0.000271  -0.002763  -0.070191  -0.005045   0.000071   0.000067
    10  H    0.000003  -0.000010   0.000017   0.000181   0.000178  -0.000004
    11  C    0.001696  -0.000209  -0.003250  -0.000051  -0.000031   0.000121
    12  H    0.000011   0.000018   0.000050  -0.000006   0.000002   0.000002
    13  H    0.000201  -0.000306  -0.000760  -0.000014   0.000001   0.000007
    14  H    0.000202  -0.000307  -0.000760  -0.000014   0.000001   0.000007
    15  H   -0.000007  -0.000117   0.000609   0.000268  -0.000010   0.000001
    16  H    0.000775   0.000368   0.000058  -0.000041  -0.000002  -0.000824
    17  C   -0.002054   0.000019  -0.000001   0.000035   0.000663  -0.012005
    18  H   -0.000362   0.000014   0.000011   0.000049  -0.000148  -0.005147
    19  H   -0.000347   0.000013   0.000011   0.000049  -0.000144  -0.005069
    20  H    0.000249   0.000011   0.000000  -0.000002  -0.000042  -0.000368
               7          8          9         10         11         12
     1  C    0.000044   0.000023   0.000271   0.000003   0.001696   0.000011
     2  C   -0.000061  -0.000040  -0.002763  -0.000010  -0.000209   0.000018
     3  C    0.000155  -0.006869  -0.070191   0.000017  -0.003250   0.000050
     4  C   -0.000080  -0.034249  -0.005045   0.000181  -0.000051  -0.000006
     5  C    0.001153   0.002253   0.000071   0.000178  -0.000031   0.000002
     6  C   -0.000564   0.000211   0.000067  -0.000004   0.000121   0.000002
     7  H    0.001916   0.000005   0.000000  -0.000057  -0.000001   0.000000
     8  O    0.000005   0.123394   0.001715  -0.000843   0.000001   0.000000
     9  O    0.000000   0.001715   0.268994  -0.000004   0.000365  -0.000004
    10  H   -0.000057  -0.000843  -0.000004  -0.002577   0.000000   0.000000
    11  C   -0.000001   0.000001   0.000365   0.000000  -0.000578   0.000052
    12  H    0.000000   0.000000  -0.000004   0.000000   0.000052  -0.000647
    13  H    0.000000   0.000000   0.000307   0.000000   0.001175   0.000016
    14  H    0.000000   0.000000   0.000308   0.000000   0.001174   0.000016
    15  H    0.000001  -0.000176  -0.001937   0.000011   0.000011   0.000000
    16  H    0.000002   0.000000   0.000000   0.000000   0.000163  -0.000049
    17  C    0.000095   0.000000   0.000000   0.000000   0.000002   0.000000
    18  H   -0.000023   0.000000   0.000000   0.000000   0.000000   0.000000
    19  H   -0.000023   0.000000   0.000000   0.000000   0.000000   0.000000
    20  H    0.000003   0.000000   0.000000   0.000000   0.000000   0.000000
              13         14         15         16         17         18
     1  C    0.000201   0.000202  -0.000007   0.000775  -0.002054  -0.000362
     2  C   -0.000306  -0.000307  -0.000117   0.000368   0.000019   0.000014
     3  C   -0.000760  -0.000760   0.000609   0.000058  -0.000001   0.000011
     4  C   -0.000014  -0.000014   0.000268  -0.000041   0.000035   0.000049
     5  C    0.000001   0.000001  -0.000010  -0.000002   0.000663  -0.000148
     6  C    0.000007   0.000007   0.000001  -0.000824  -0.012005  -0.005147
     7  H    0.000000   0.000000   0.000001   0.000002   0.000095  -0.000023
     8  O    0.000000   0.000000  -0.000176   0.000000   0.000000   0.000000
     9  O    0.000307   0.000308  -0.001937   0.000000   0.000000   0.000000
    10  H    0.000000   0.000000   0.000011   0.000000   0.000000   0.000000
    11  C    0.001175   0.001174   0.000011   0.000163   0.000002   0.000000
    12  H    0.000016   0.000016   0.000000  -0.000049   0.000000   0.000000
    13  H    0.001689  -0.000279   0.000001   0.000000   0.000000   0.000000
    14  H   -0.000279   0.001693   0.000001   0.000000   0.000000   0.000000
    15  H    0.000001   0.000001  -0.004678   0.000000   0.000000   0.000000
    16  H    0.000000   0.000000   0.000000  -0.004718   0.000171  -0.000002
    17  C    0.000000   0.000000   0.000000   0.000171  -0.015628   0.006294
    18  H    0.000000   0.000000   0.000000  -0.000002   0.006294   0.022669
    19  H    0.000000   0.000000   0.000000  -0.000001   0.006199  -0.004457
    20  H    0.000000   0.000000   0.000000  -0.000053   0.000852  -0.000245
              19         20
     1  C   -0.000347   0.000249
     2  C    0.000013   0.000011
     3  C    0.000011   0.000000
     4  C    0.000049  -0.000002
     5  C   -0.000144  -0.000042
     6  C   -0.005069  -0.000368
     7  H   -0.000023   0.000003
     8  O    0.000000   0.000000
     9  O    0.000000   0.000000
    10  H    0.000000   0.000000
    11  C    0.000000   0.000000
    12  H    0.000000   0.000000
    13  H    0.000000   0.000000
    14  H    0.000000   0.000000
    15  H    0.000000   0.000000
    16  H   -0.000001  -0.000053
    17  C    0.006199   0.000852
    18  H   -0.004457  -0.000245
    19  H    0.022260  -0.000179
    20  H   -0.000179  -0.000290
 Mulliken charges and spin densities:
               1          2
     1  C   -0.209977   0.075426
     2  C    0.152366  -0.004374
     3  C    0.316266   0.298786
     4  C    0.378741   0.149790
     5  C   -0.219797  -0.096802
     6  C    0.207304   0.284584
     7  H    0.191894   0.002564
     8  O   -0.618081   0.085425
     9  O   -0.536082   0.192155
    10  H    0.462859  -0.003105
    11  C   -0.526655   0.000639
    12  H    0.197881  -0.000541
    13  H    0.214048   0.002039
    14  H    0.214046   0.002042
    15  H    0.474057  -0.006023
    16  H    0.199379  -0.004152
    17  C   -0.550175  -0.015358
    18  H    0.222980   0.018654
    19  H    0.222530   0.018311
    20  H    0.206413  -0.000064
 Sum of Mulliken charges =   1.00000   1.00000
 Mulliken charges and spin densities with hydrogens summed into heavy atoms:
               1          2
     1  C   -0.010598   0.071274
     2  C    0.152366  -0.004374
     3  C    0.316266   0.298786
     4  C    0.378741   0.149790
     5  C   -0.027903  -0.094237
     6  C    0.207304   0.284584
     8  O   -0.155222   0.082321
     9  O   -0.062025   0.186132
    11  C    0.099321   0.004180
    17  C    0.101749   0.021545
 Electronic spatial extent (au):  <R**2>=           1498.8233
 Charge=              1.0000 electrons
 Dipole moment (field-independent basis, Debye):
    X=              1.5200    Y=             -2.1440    Z=              0.0018  Tot=              2.6281
 Quadrupole moment (field-independent basis, Debye-Ang):
   XX=            -36.1102   YY=            -33.7351   ZZ=            -57.2565
   XY=              0.8941   XZ=              0.0084   YZ=              0.0000
 Traceless Quadrupole moment (field-independent basis, Debye-Ang):
   XX=              6.2571   YY=              8.6322   ZZ=            -14.8892
   XY=              0.8941   XZ=              0.0084   YZ=              0.0000
 Octapole moment (field-independent basis, Debye-Ang**2):
  XXX=             10.2796  YYY=            -36.3611  ZZZ=              0.0251  XYY=             -6.7485
  XXY=             -8.7978  XXZ=              0.0314  XZZ=             -5.0860  YZZ=             -3.4123
  YYZ=             -0.0226  XYZ=              0.0022
 Hexadecapole moment (field-independent basis, Debye-Ang**3):
 XXXX=           -867.5147 YYYY=           -535.0235 ZZZZ=            -65.5103 XXXY=             40.6670
 XXXZ=              0.0898 YYYX=              4.3855 YYYZ=              0.0167 ZZZX=              0.0631
 ZZZY=              0.0260 XXYY=           -264.8239 XXZZ=           -178.3201 YYZZ=           -139.0429
 XXYZ=              0.0168 YYXZ=             -0.0723 ZZXY=             -1.3414
 N-N= 5.184505527102D+02 E-N=-2.096481132623D+03  KE= 4.567951926793D+02
                          Isotropic Fermi Contact Couplings
        Atom                 a.u.       MegaHertz       Gauss      10(-4) cm-1
     1  C(13)              0.00297       3.33863       1.19130       1.11365
     2  C(13)             -0.00552      -6.20684      -2.21476      -2.07038
     3  C(13)              0.02345      26.35797       9.40518       8.79207
     4  C(13)              0.00931      10.46712       3.73493       3.49146
     5  C(13)             -0.01560     -17.53615      -6.25733      -5.84943
     6  C(13)              0.02810      31.58520      11.27039      10.53569
     7  H(1)               0.00080       3.58898       1.28064       1.19716
     8  O(17)              0.01687     -10.22842      -3.64975      -3.41183
     9  O(17)              0.03836     -23.25378      -8.29753      -7.75663
    10  H(1)              -0.00161      -7.21254      -2.57361      -2.40584
    11  C(13)             -0.00116      -1.30520      -0.46573      -0.43537
    12  H(1)              -0.00022      -0.96190      -0.34323      -0.32086
    13  H(1)               0.00124       5.52725       1.97226       1.84369
    14  H(1)               0.00124       5.53196       1.97394       1.84526
    15  H(1)              -0.00320     -14.30083      -5.10289      -4.77024
    16  H(1)              -0.00154      -6.87037      -2.45152      -2.29171
    17  C(13)             -0.00805      -9.04571      -3.22774      -3.01733
    18  H(1)               0.01043      46.60895      16.63123      15.54707
    19  H(1)               0.01023      45.72977      16.31752      15.25381
    20  H(1)               0.00000       0.01657       0.00591       0.00553
 --------------------------------------------------------
       Center         ----  Spin Dipole Couplings  ----
                      3XX-RR        3YY-RR        3ZZ-RR
 --------------------------------------------------------
     1   Atom       -0.049830     -0.046721      0.096551
     2   Atom       -0.016417     -0.007386      0.023803
     3   Atom       -0.184050     -0.191053      0.375103
     4   Atom       -0.106746     -0.092522      0.199268
     5   Atom        0.038857      0.036479     -0.075336
     6   Atom       -0.148830     -0.156166      0.304997
     7   Atom        0.002533      0.002573     -0.005106
     8   Atom       -0.202045     -0.186761      0.388806
     9   Atom       -0.431455     -0.428767      0.860222
    10   Atom       -0.003618      0.011784     -0.008166
    11   Atom       -0.004783      0.004526      0.000257
    12   Atom       -0.001375      0.003806     -0.002432
    13   Atom       -0.001429      0.004357     -0.002929
    14   Atom       -0.001428      0.004357     -0.002928
    15   Atom       -0.016589      0.033314     -0.016725
    16   Atom       -0.007517      0.012331     -0.004813
    17   Atom       -0.004032     -0.014224      0.018256
    18   Atom        0.003861     -0.002502     -0.001358
    19   Atom        0.003859     -0.002360     -0.001499
    20   Atom        0.004264     -0.000900     -0.003364
 --------------------------------------------------------
                        XY            XZ            YZ
 --------------------------------------------------------
     1   Atom       -0.001119      0.000032     -0.000034
     2   Atom        0.004367      0.000020      0.000005
     3   Atom       -0.002583      0.000048      0.000050
     4   Atom       -0.004502      0.000054     -0.000014
     5   Atom        0.002049     -0.000007      0.000025
     6   Atom       -0.001982     -0.000155      0.000005
     7   Atom        0.001361      0.000000      0.000000
     8   Atom       -0.004115      0.000152     -0.000013
     9   Atom        0.005984      0.000081      0.000011
    10   Atom       -0.016310     -0.000002      0.000005
    11   Atom       -0.000703      0.000003     -0.000002
    12   Atom       -0.000191      0.000000     -0.000001
    13   Atom       -0.002095     -0.001169      0.002458
    14   Atom       -0.002095      0.001169     -0.002459
    15   Atom        0.018463      0.000000     -0.000001
    16   Atom        0.004784      0.000004      0.000000
    17   Atom       -0.000880     -0.000018     -0.000021
    18   Atom       -0.003076      0.004061     -0.003026
    19   Atom       -0.003145     -0.003979      0.003025
    20   Atom        0.003617     -0.000020      0.000004
 --------------------------------------------------------


 ---------------------------------------------------------------------------------
              Anisotropic Spin Dipole Couplings in Principal Axis System
 ---------------------------------------------------------------------------------

       Atom             a.u.   MegaHertz   Gauss  10(-4) cm-1        Axes

              Baa    -0.0502    -6.735    -2.403    -2.247  0.9517  0.3069 -0.0001
     1 C(13)  Bbb    -0.0464    -6.221    -2.220    -2.075 -0.3069  0.9517  0.0003
              Bcc     0.0966    12.956     4.623     4.322  0.0002 -0.0002  1.0000
 
              Baa    -0.0182    -2.440    -0.871    -0.814  0.9270 -0.3749 -0.0004
     2 C(13)  Bbb    -0.0056    -0.754    -0.269    -0.252  0.3749  0.9270 -0.0004
              Bcc     0.0238     3.194     1.140     1.065  0.0005  0.0002  1.0000
 
              Baa    -0.1919   -25.752    -9.189    -8.590  0.3125  0.9499 -0.0001
     3 C(13)  Bbb    -0.1832   -24.584    -8.772    -8.200  0.9499 -0.3125 -0.0001
              Bcc     0.3751    50.335    17.961    16.790  0.0001  0.0001  1.0000
 
              Baa    -0.1081   -14.499    -5.174    -4.836  0.9604  0.2785 -0.0002
     4 C(13)  Bbb    -0.0912   -12.240    -4.368    -4.083 -0.2785  0.9604  0.0001
              Bcc     0.1993    26.740     9.541     8.919  0.0002 -0.0001  1.0000
 
              Baa    -0.0753   -10.109    -3.607    -3.372  0.0001 -0.0002  1.0000
     5 C(13)  Bbb     0.0353     4.737     1.690     1.580 -0.4990  0.8666  0.0002
              Bcc     0.0400     5.373     1.917     1.792  0.8666  0.4990  0.0001
 
              Baa    -0.1567   -21.023    -7.502    -7.013  0.2451  0.9695  0.0001
     6 C(13)  Bbb    -0.1483   -19.904    -7.102    -6.639  0.9695 -0.2451  0.0003
              Bcc     0.3050    40.928    14.604    13.652 -0.0003  0.0000  1.0000
 
              Baa    -0.0051    -2.724    -0.972    -0.909  0.0000  0.0000  1.0000
     7 H(1)   Bbb     0.0012     0.636     0.227     0.212  0.7123 -0.7019  0.0000
              Bcc     0.0039     2.089     0.745     0.697  0.7019  0.7123  0.0000
 
              Baa    -0.2031    14.695     5.244     4.902  0.9697  0.2445 -0.0002
     8 O(17)  Bbb    -0.1857    13.439     4.795     4.483 -0.2445  0.9697  0.0001
              Bcc     0.3888   -28.134   -10.039    -9.384  0.0003  0.0000  1.0000
 
              Baa    -0.4362    31.566    11.264    10.529  0.7808 -0.6248  0.0000
     9 O(17)  Bbb    -0.4240    30.679    10.947    10.233  0.6248  0.7808  0.0000
              Bcc     0.8602   -62.245   -22.211   -20.763  0.0001  0.0000  1.0000
 
              Baa    -0.0140    -7.445    -2.657    -2.483  0.8447  0.5353 -0.0002
    10 H(1)   Bbb    -0.0082    -4.357    -1.555    -1.453  0.0003  0.0000  1.0000
              Bcc     0.0221    11.802     4.211     3.937 -0.5353  0.8447  0.0002
 
              Baa    -0.0048    -0.649    -0.232    -0.216  0.9972  0.0748 -0.0006
    11 C(13)  Bbb     0.0003     0.034     0.012     0.012  0.0005  0.0007  1.0000
              Bcc     0.0046     0.614     0.219     0.205 -0.0748  0.9972 -0.0006
 
              Baa    -0.0024    -1.297    -0.463    -0.433  0.0000  0.0002  1.0000
    12 H(1)   Bbb    -0.0014    -0.737    -0.263    -0.246  0.9993  0.0368  0.0000
              Bcc     0.0038     2.034     0.726     0.679 -0.0368  0.9993 -0.0002
 
              Baa    -0.0038    -2.040    -0.728    -0.681  0.2725 -0.2122  0.9385
    13 H(1)   Bbb    -0.0020    -1.089    -0.389    -0.363  0.9119  0.3682 -0.1815
              Bcc     0.0059     3.130     1.117     1.044 -0.3070  0.9052  0.2938
 
              Baa    -0.0038    -2.040    -0.728    -0.681 -0.2723  0.2124  0.9385
    14 H(1)   Bbb    -0.0020    -1.089    -0.389    -0.363  0.9119  0.3682  0.1813
              Bcc     0.0059     3.130     1.117     1.044 -0.3071  0.9052 -0.2939
 
              Baa    -0.0227   -12.100    -4.317    -4.036  0.9497 -0.3132 -0.0001
    15 H(1)   Bbb    -0.0167    -8.923    -3.184    -2.977  0.0001  0.0000  1.0000
              Bcc     0.0394    21.023     7.502     7.013  0.3132  0.9497  0.0000
 
              Baa    -0.0086    -4.594    -1.639    -1.532  0.9749 -0.2227 -0.0010
    16 H(1)   Bbb    -0.0048    -2.568    -0.916    -0.857  0.0010 -0.0003  1.0000
              Bcc     0.0134     7.162     2.556     2.389  0.2227  0.9749  0.0000
 
              Baa    -0.0143    -1.919    -0.685    -0.640  0.0854  0.9963  0.0007
    17 C(13)  Bbb    -0.0040    -0.531    -0.189    -0.177  0.9963 -0.0854  0.0007
              Bcc     0.0183     2.450     0.874     0.817 -0.0008 -0.0006  1.0000
 
              Baa    -0.0050    -2.679    -0.956    -0.894 -0.0474  0.7436  0.6670
    18 H(1)   Bbb    -0.0028    -1.469    -0.524    -0.490  0.6074  0.5515 -0.5717
              Bcc     0.0078     4.148     1.480     1.384  0.7929 -0.3780  0.4778
 
              Baa    -0.0050    -2.666    -0.951    -0.889 -0.0499  0.7266 -0.6853
    19 H(1)   Bbb    -0.0027    -1.465    -0.523    -0.489  0.6060  0.5674  0.5575
              Bcc     0.0077     4.131     1.474     1.378  0.7939 -0.3874 -0.4686
 
              Baa    -0.0034    -1.795    -0.641    -0.599  0.0110 -0.0178  0.9998
    20 H(1)   Bbb    -0.0028    -1.473    -0.526    -0.491 -0.4576  0.8889  0.0208
              Bcc     0.0061     3.269     1.166     1.090  0.8891  0.4577 -0.0016
 

 ---------------------------------------------------------------------------------

 No NMR shielding tensors so no spin-rotation constants.
 Leave Link  601 at Wed Dec 03 17:06:43 2025, MaxMem=   104857600 cpu:               0.0 elap:               0.2
 (Enter D:\Gaussian\G16W\l9999.exe)
 1|1|UNPC-PC-20250526LCFF|SP|UB3LYP|6-31G(d)|C8H10O2(1+,2)|ADMINISTRATO
 R|03-Dec-2025|0||#P B3LYP/6-31G* SCF=conver=7 out=wfn||Generated by Mu
 ltiwfn (http://sobereva.com/multiwfn)||1,2|C,0,0.918831,1.23084,-0.000
 284|C,0,-0.48058,1.183555,-0.00011|C,0,-1.100036,-0.065309,0.000092|C,
 0,-0.32451,-1.231209,0.000046|C,0,1.060899,-1.163162,-0.000137|C,0,1.7
 05846,0.07999,-0.000239|H,0,1.642304,-2.081958,-0.000238|O,0,-1.045289
 ,-2.406916,0.000079|O,0,-2.46562,-0.143107,0.000156|H,0,-0.444246,-3.1
 57546,-0.000103|C,0,-1.326132,2.430042,-0.000265|H,0,-0.701359,3.32483
 9,-0.000623|H,0,-1.979225,2.463956,0.87685|H,0,-1.979587,2.463493,-0.8
 77127|H,0,-2.70349,-1.078942,0.000165|H,0,1.402482,2.202703,-0.000509|
 C,0,3.214469,0.157385,0.000476|H,0,3.64062,-0.324831,0.886446|H,0,3.64
 2263,-0.339086,-0.876715|H,0,3.554795,1.194765,-0.007498||Version=EM64
 W-G16RevA.03|State=2-A|HF=-461.0447501|S2=0.759368|S2-1=0.|S2A=0.75005
 1|RMSD=6.116e-008|Dipole=0.5980246,-0.8435089,0.0006978|Quadrupole=4.6
 519895,6.4177947,-11.0697841,0.6647505,0.0062357,-0.0000153|PG=C01 [X(
 C8H10O2)]||@

 Writing a WFN file to "N-1.wfn"


 WORK FAITHFULLY FOR EIGHT HOURS A DAY AND DON'T WORRY.
 IN TIME YOU MAY BECOME BOSS AND WORK TWELVE HOURS A DAY
 AND HAVE ALL THE WORRY.
 Job cpu time:       0 days  0 hours  0 minutes 44.0 seconds.
 Elapsed time:       0 days  0 hours  0 minutes 44.0 seconds.
 File lengths (MBytes):  RWF=     33 Int=      0 D2E=      0 Chk=      3 Scr=      1
 Normal termination of Gaussian 16 at Wed Dec 03 17:06:43 2025.
