 Generated by Multiwfn (http://sobereva.com/multiwfn)
GAUSSIAN             73 MOL ORBITALS    320 PRIMITIVES       20 NUCLEI
  C    1    (CENTRE  1)   1.73633895  2.32595034 -0.00053673  CHARGE =  6.0
  C    2    (CENTRE  2)  -0.90816459  2.23659485 -0.00020792  CHARGE =  6.0
  C    3    (CENTRE  3)  -2.07876696 -0.12341599  0.00017380  CHARGE =  6.0
  C    4    (CENTRE  4)  -0.61323538 -2.32664779  0.00008688  CHARGE =  6.0
  C    5    (CENTRE  5)   2.00480821 -2.19805780 -0.00025894  CHARGE =  6.0
  C    6    (CENTRE  6)   3.22358158  0.15115892 -0.00045170  CHARGE =  6.0
  H    7    (CENTRE  7)   3.10350429 -3.93433069 -0.00044981  CHARGE =  1.0
  O    8    (CENTRE  8)  -1.97531046 -4.54841192  0.00014924  CHARGE =  8.0
  O    9    (CENTRE  9)  -4.65934673 -0.27043270  0.00029475  CHARGE =  8.0
  H   10    (CENTRE 10)  -0.83950391 -5.96689713 -0.00019469  CHARGE =  1.0
  C   11    (CENTRE 11)  -2.50602611  4.59211402 -0.00050083  CHARGE =  6.0
  H   12    (CENTRE 12)  -1.32537612  6.28303519 -0.00117735  CHARGE =  1.0
  H   13    (CENTRE 13)  -3.74019301  4.65620229  1.65700630  CHARGE =  1.0
  H   14    (CENTRE 14)  -3.74087709  4.65532734 -1.65752986  CHARGE =  1.0
  H   15    (CENTRE 15)  -5.10885602 -2.03890452  0.00031175  CHARGE =  1.0
  H   16    (CENTRE 16)   2.65030702  4.16250517 -0.00096192  CHARGE =  1.0
  C   17    (CENTRE 17)   6.07446589  0.29741405  0.00089946  CHARGE =  6.0
  H   18    (CENTRE 18)   6.87977450 -0.61384218  1.67514011  CHARGE =  1.0
  H   19    (CENTRE 19)   6.88287932 -0.64078023 -1.65675129  CHARGE =  1.0
  H   20    (CENTRE 20)   6.71758897  2.25777809 -0.01416922  CHARGE =  1.0
CENTRE ASSIGNMENTS    1  1  1  1  1  1  1  1  1  1  1  1  1  1  1  1  1  1  1  1
CENTRE ASSIGNMENTS    1  1  1  1  1  1  1  1  2  2  2  2  2  2  2  2  2  2  2  2
CENTRE ASSIGNMENTS    2  2  2  2  2  2  2  2  2  2  2  2  2  2  2  2  3  3  3  3
CENTRE ASSIGNMENTS    3  3  3  3  3  3  3  3  3  3  3  3  3  3  3  3  3  3  3  3
CENTRE ASSIGNMENTS    3  3  3  3  4  4  4  4  4  4  4  4  4  4  4  4  4  4  4  4
CENTRE ASSIGNMENTS    4  4  4  4  4  4  4  4  4  4  4  4  5  5  5  5  5  5  5  5
CENTRE ASSIGNMENTS    5  5  5  5  5  5  5  5  5  5  5  5  5  5  5  5  5  5  5  5
CENTRE ASSIGNMENTS    6  6  6  6  6  6  6  6  6  6  6  6  6  6  6  6  6  6  6  6
CENTRE ASSIGNMENTS    6  6  6  6  6  6  6  6  7  7  7  7  8  8  8  8  8  8  8  8
CENTRE ASSIGNMENTS    8  8  8  8  8  8  8  8  8  8  8  8  8  8  8  8  8  8  8  8
CENTRE ASSIGNMENTS    9  9  9  9  9  9  9  9  9  9  9  9  9  9  9  9  9  9  9  9
CENTRE ASSIGNMENTS    9  9  9  9  9  9  9  9 10 10 10 10 11 11 11 11 11 11 11 11
CENTRE ASSIGNMENTS   11 11 11 11 11 11 11 11 11 11 11 11 11 11 11 11 11 11 11 11
CENTRE ASSIGNMENTS   12 12 12 12 13 13 13 13 14 14 14 14 15 15 15 15 16 16 16 16
CENTRE ASSIGNMENTS   17 17 17 17 17 17 17 17 17 17 17 17 17 17 17 17 17 17 17 17
CENTRE ASSIGNMENTS   17 17 17 17 17 17 17 17 18 18 18 18 19 19 19 19 20 20 20 20
TYPE ASSIGNMENTS      1  1  1  1  1  1  1  1  1  2  2  2  3  3  3  4  4  4  1  2
TYPE ASSIGNMENTS      3  4  5  6  7  8  9 10  1  1  1  1  1  1  1  1  1  2  2  2
TYPE ASSIGNMENTS      3  3  3  4  4  4  1  2  3  4  5  6  7  8  9 10  1  1  1  1
TYPE ASSIGNMENTS      1  1  1  1  1  2  2  2  3  3  3  4  4  4  1  2  3  4  5  6
TYPE ASSIGNMENTS      7  8  9 10  1  1  1  1  1  1  1  1  1  2  2  2  3  3  3  4
TYPE ASSIGNMENTS      4  4  1  2  3  4  5  6  7  8  9 10  1  1  1  1  1  1  1  1
TYPE ASSIGNMENTS      1  2  2  2  3  3  3  4  4  4  1  2  3  4  5  6  7  8  9 10
TYPE ASSIGNMENTS      1  1  1  1  1  1  1  1  1  2  2  2  3  3  3  4  4  4  1  2
TYPE ASSIGNMENTS      3  4  5  6  7  8  9 10  1  1  1  1  1  1  1  1  1  1  1  1
TYPE ASSIGNMENTS      1  2  2  2  3  3  3  4  4  4  1  2  3  4  5  6  7  8  9 10
TYPE ASSIGNMENTS      1  1  1  1  1  1  1  1  1  2  2  2  3  3  3  4  4  4  1  2
TYPE ASSIGNMENTS      3  4  5  6  7  8  9 10  1  1  1  1  1  1  1  1  1  1  1  1
TYPE ASSIGNMENTS      1  2  2  2  3  3  3  4  4  4  1  2  3  4  5  6  7  8  9 10
TYPE ASSIGNMENTS      1  1  1  1  1  1  1  1  1  1  1  1  1  1  1  1  1  1  1  1
TYPE ASSIGNMENTS      1  1  1  1  1  1  1  1  1  2  2  2  3  3  3  4  4  4  1  2
TYPE ASSIGNMENTS      3  4  5  6  7  8  9 10  1  1  1  1  1  1  1  1  1  1  1  1
EXPONENTS  0.3047525D+04 0.4573695D+03 0.1039487D+03 0.2921016D+02 0.9286663D+01
EXPONENTS  0.3163927D+01 0.7868272D+01 0.1881289D+01 0.5442493D+00 0.7868272D+01
EXPONENTS  0.1881289D+01 0.5442493D+00 0.7868272D+01 0.1881289D+01 0.5442493D+00
EXPONENTS  0.7868272D+01 0.1881289D+01 0.5442493D+00 0.1687145D+00 0.1687145D+00
EXPONENTS  0.1687145D+00 0.1687145D+00 0.8000000D+00 0.8000000D+00 0.8000000D+00
EXPONENTS  0.8000000D+00 0.8000000D+00 0.8000000D+00 0.3047525D+04 0.4573695D+03
EXPONENTS  0.1039487D+03 0.2921016D+02 0.9286663D+01 0.3163927D+01 0.7868272D+01
EXPONENTS  0.1881289D+01 0.5442493D+00 0.7868272D+01 0.1881289D+01 0.5442493D+00
EXPONENTS  0.7868272D+01 0.1881289D+01 0.5442493D+00 0.7868272D+01 0.1881289D+01
EXPONENTS  0.5442493D+00 0.1687145D+00 0.1687145D+00 0.1687145D+00 0.1687145D+00
EXPONENTS  0.8000000D+00 0.8000000D+00 0.8000000D+00 0.8000000D+00 0.8000000D+00
EXPONENTS  0.8000000D+00 0.3047525D+04 0.4573695D+03 0.1039487D+03 0.2921016D+02
EXPONENTS  0.9286663D+01 0.3163927D+01 0.7868272D+01 0.1881289D+01 0.5442493D+00
EXPONENTS  0.7868272D+01 0.1881289D+01 0.5442493D+00 0.7868272D+01 0.1881289D+01
EXPONENTS  0.5442493D+00 0.7868272D+01 0.1881289D+01 0.5442493D+00 0.1687145D+00
EXPONENTS  0.1687145D+00 0.1687145D+00 0.1687145D+00 0.8000000D+00 0.8000000D+00
EXPONENTS  0.8000000D+00 0.8000000D+00 0.8000000D+00 0.8000000D+00 0.3047525D+04
EXPONENTS  0.4573695D+03 0.1039487D+03 0.2921016D+02 0.9286663D+01 0.3163927D+01
EXPONENTS  0.7868272D+01 0.1881289D+01 0.5442493D+00 0.7868272D+01 0.1881289D+01
EXPONENTS  0.5442493D+00 0.7868272D+01 0.1881289D+01 0.5442493D+00 0.7868272D+01
EXPONENTS  0.1881289D+01 0.5442493D+00 0.1687145D+00 0.1687145D+00 0.1687145D+00
EXPONENTS  0.1687145D+00 0.8000000D+00 0.8000000D+00 0.8000000D+00 0.8000000D+00
EXPONENTS  0.8000000D+00 0.8000000D+00 0.3047525D+04 0.4573695D+03 0.1039487D+03
EXPONENTS  0.2921016D+02 0.9286663D+01 0.3163927D+01 0.7868272D+01 0.1881289D+01
EXPONENTS  0.5442493D+00 0.7868272D+01 0.1881289D+01 0.5442493D+00 0.7868272D+01
EXPONENTS  0.1881289D+01 0.5442493D+00 0.7868272D+01 0.1881289D+01 0.5442493D+00
EXPONENTS  0.1687145D+00 0.1687145D+00 0.1687145D+00 0.1687145D+00 0.8000000D+00
EXPONENTS  0.8000000D+00 0.8000000D+00 0.8000000D+00 0.8000000D+00 0.8000000D+00
EXPONENTS  0.3047525D+04 0.4573695D+03 0.1039487D+03 0.2921016D+02 0.9286663D+01
EXPONENTS  0.3163927D+01 0.7868272D+01 0.1881289D+01 0.5442493D+00 0.7868272D+01
EXPONENTS  0.1881289D+01 0.5442493D+00 0.7868272D+01 0.1881289D+01 0.5442493D+00
EXPONENTS  0.7868272D+01 0.1881289D+01 0.5442493D+00 0.1687145D+00 0.1687145D+00
EXPONENTS  0.1687145D+00 0.1687145D+00 0.8000000D+00 0.8000000D+00 0.8000000D+00
EXPONENTS  0.8000000D+00 0.8000000D+00 0.8000000D+00 0.1873114D+02 0.2825394D+01
EXPONENTS  0.6401217D+00 0.1612778D+00 0.5484672D+04 0.8252349D+03 0.1880470D+03
EXPONENTS  0.5296450D+02 0.1689757D+02 0.5799635D+01 0.1553962D+02 0.3599934D+01
EXPONENTS  0.1013762D+01 0.1553962D+02 0.3599934D+01 0.1013762D+01 0.1553962D+02
EXPONENTS  0.3599934D+01 0.1013762D+01 0.1553962D+02 0.3599934D+01 0.1013762D+01
EXPONENTS  0.2700058D+00 0.2700058D+00 0.2700058D+00 0.2700058D+00 0.8000000D+00
EXPONENTS  0.8000000D+00 0.8000000D+00 0.8000000D+00 0.8000000D+00 0.8000000D+00
EXPONENTS  0.5484672D+04 0.8252349D+03 0.1880470D+03 0.5296450D+02 0.1689757D+02
EXPONENTS  0.5799635D+01 0.1553962D+02 0.3599934D+01 0.1013762D+01 0.1553962D+02
EXPONENTS  0.3599934D+01 0.1013762D+01 0.1553962D+02 0.3599934D+01 0.1013762D+01
EXPONENTS  0.1553962D+02 0.3599934D+01 0.1013762D+01 0.2700058D+00 0.2700058D+00
EXPONENTS  0.2700058D+00 0.2700058D+00 0.8000000D+00 0.8000000D+00 0.8000000D+00
EXPONENTS  0.8000000D+00 0.8000000D+00 0.8000000D+00 0.1873114D+02 0.2825394D+01
EXPONENTS  0.6401217D+00 0.1612778D+00 0.3047525D+04 0.4573695D+03 0.1039487D+03
EXPONENTS  0.2921016D+02 0.9286663D+01 0.3163927D+01 0.7868272D+01 0.1881289D+01
EXPONENTS  0.5442493D+00 0.7868272D+01 0.1881289D+01 0.5442493D+00 0.7868272D+01
EXPONENTS  0.1881289D+01 0.5442493D+00 0.7868272D+01 0.1881289D+01 0.5442493D+00
EXPONENTS  0.1687145D+00 0.1687145D+00 0.1687145D+00 0.1687145D+00 0.8000000D+00
EXPONENTS  0.8000000D+00 0.8000000D+00 0.8000000D+00 0.8000000D+00 0.8000000D+00
EXPONENTS  0.1873114D+02 0.2825394D+01 0.6401217D+00 0.1612778D+00 0.1873114D+02
EXPONENTS  0.2825394D+01 0.6401217D+00 0.1612778D+00 0.1873114D+02 0.2825394D+01
EXPONENTS  0.6401217D+00 0.1612778D+00 0.1873114D+02 0.2825394D+01 0.6401217D+00
EXPONENTS  0.1612778D+00 0.1873114D+02 0.2825394D+01 0.6401217D+00 0.1612778D+00
EXPONENTS  0.3047525D+04 0.4573695D+03 0.1039487D+03 0.2921016D+02 0.9286663D+01
EXPONENTS  0.3163927D+01 0.7868272D+01 0.1881289D+01 0.5442493D+00 0.7868272D+01
EXPONENTS  0.1881289D+01 0.5442493D+00 0.7868272D+01 0.1881289D+01 0.5442493D+00
EXPONENTS  0.7868272D+01 0.1881289D+01 0.5442493D+00 0.1687145D+00 0.1687145D+00
EXPONENTS  0.1687145D+00 0.1687145D+00 0.8000000D+00 0.8000000D+00 0.8000000D+00
EXPONENTS  0.8000000D+00 0.8000000D+00 0.8000000D+00 0.1873114D+02 0.2825394D+01
EXPONENTS  0.6401217D+00 0.1612778D+00 0.1873114D+02 0.2825394D+01 0.6401217D+00
EXPONENTS  0.1612778D+00 0.1873114D+02 0.2825394D+01 0.6401217D+00 0.1612778D+00
MO    1     MO 0.0        OCC NO =    1.0000000  ORB. ENERGY =  -19.404068
 -0.41645833D-05 -0.76828430D-05 -0.12402491D-04 -0.16144358D-04 -0.13776010D-04
 -0.47565251D-05  0.30713367D-04  0.14155763D-04 -0.39694236D-04 -0.96720934D-04
 -0.74159477D-04 -0.37010777D-04 -0.18417530D-04 -0.14121394D-04 -0.70475651D-05
 -0.29204324D-08 -0.22392024D-08 -0.11175189D-08  0.58209290D-03 -0.18653033D-03
 -0.18665733D-03  0.58912213D-07  0.69827006D-04  0.10411250D-04  0.26047989D-06
 -0.91741930D-05 -0.32704128D-07  0.15012895D-09  0.52517472D-06  0.96884480D-06
  0.15640159D-05  0.20358840D-05  0.17372235D-05  0.59982153D-06 -0.46764962D-04
 -0.21553928D-04  0.60439464D-04  0.10048614D-03  0.77046396D-04  0.38451551D-04
 -0.50538961D-04 -0.38750070D-04 -0.19339001D-04  0.13605335D-07  0.10431708D-07
  0.52061532D-08 -0.36729268D-03 -0.49964677D-03  0.39408417D-03 -0.14414382D-07
 -0.99022511D-04 -0.78053835D-04 -0.37109607D-05 -0.33385960D-04  0.18300523D-07
  0.29928771D-07 -0.37130684D-04 -0.68498861D-04 -0.11057840D-03 -0.14394022D-03
 -0.12282445D-03 -0.42408332D-04 -0.27176373D-04 -0.12525566D-04  0.35122993D-04
 -0.56050657D-03 -0.42976089D-03 -0.21448080D-03  0.11789554D-04  0.90394822D-05
  0.45113352D-05  0.17077433D-07  0.13093892D-07  0.65347700D-08  0.22564992D-03
  0.98991429D-03 -0.14562399D-03 -0.59903442D-07 -0.58105192D-04 -0.69597511D-04
 -0.13693641D-03 -0.46052515D-04 -0.55405936D-07  0.77865416D-08  0.24944415D-04
  0.46017575D-04  0.74286634D-04  0.96699125D-04  0.82513539D-04  0.28489942D-04
 -0.11851194D-03 -0.54622046D-04  0.15316592D-03  0.51925980D-04  0.39813548D-04
  0.19869751D-04 -0.67086174D-04 -0.51437423D-04 -0.25670879D-04  0.97298950D-08
  0.74602664D-08  0.37231958D-08 -0.79995601D-03 -0.24828123D-03 -0.55158237D-03
  0.19739398D-07 -0.42602297D-04  0.23430416D-04  0.70945239D-04  0.11089212D-03
  0.31078636D-07 -0.61353472D-08 -0.80422659D-05 -0.14836410D-04 -0.23950566D-04
 -0.31176521D-04 -0.26602982D-04 -0.91853703D-05  0.41576105D-04  0.19162389D-04
 -0.53733339D-04 -0.10206969D-03 -0.78260562D-04 -0.39057505D-04 -0.86567763D-05
 -0.66374670D-05 -0.33125612D-05  0.23289119D-07  0.17856619D-07  0.89117044D-08
  0.61550939D-03 -0.13585746D-03  0.27919690D-03  0.20219015D-07  0.43702815D-04
  0.14991984D-04 -0.16604108D-04  0.57011924D-05 -0.37738153D-07 -0.93803802D-09
  0.10619047D-04  0.19590068D-04  0.31624444D-04  0.41165629D-04  0.35126706D-04
  0.12128407D-04 -0.49227572D-04 -0.22688943D-04  0.63622164D-04 -0.23932320D-04
 -0.18349785D-04 -0.91578288D-05  0.18304088D-05  0.14034413D-05  0.70041559D-06
  0.10412259D-07  0.79834599D-08  0.39843060D-08 -0.44534664D-03  0.24492213D-03
  0.76962335D-04 -0.29191099D-07  0.38220058D-05 -0.44931167D-04  0.37977056D-04
 -0.13826858D-04  0.23015656D-08  0.21319662D-07  0.14114178D-04  0.23940317D-04
  0.27255205D-04  0.84524960D-04  0.37556353D-04  0.69123737D-04  0.11185526D-03
  0.14703686D-03  0.12611266D-03  0.43120062D-04 -0.16063972D-03 -0.71677129D-04
  0.21166352D-03  0.13405338D-03  0.10328090D-03  0.45345878D-04  0.10173161D-03
  0.78378724D-04  0.34412481D-04  0.43713814D-08  0.33679137D-08  0.14786955D-08
 -0.48199033D-03 -0.14485143D-03 -0.11302729D-03  0.32061026D-08  0.15009343D-03
  0.11397461D-03  0.16514177D-03 -0.67296578D-04  0.55212504D-08 -0.84208446D-08
  0.82556146D+00  0.15194738D+01  0.24587954D+01  0.32321554D+01  0.27722009D+01
  0.94786257D+00 -0.15776267D-01 -0.70393394D-02  0.20787264D-01  0.18893156D-02
  0.14556158D-02  0.63909375D-03 -0.27808484D-02 -0.21424938D-02 -0.94067018D-03
 -0.48003443D-07 -0.36984065D-07 -0.16237997D-07  0.41808677D-02  0.41683221D-03
  0.13050978D-03 -0.13645144D-07 -0.93698958D-02 -0.95238968D-02 -0.93625055D-02
  0.10977133D-03  0.12918107D-07 -0.49563414D-09  0.19168620D-04  0.32513607D-04
  0.37015593D-04 -0.26131746D-04  0.16628399D-04  0.30676149D-04  0.49520816D-04
  0.64461388D-04  0.55005019D-04  0.18991911D-04 -0.54071302D-04 -0.24921414D-04
  0.69882245D-04 -0.14650484D-03 -0.11233062D-03 -0.56060852D-04 -0.14834495D-04
 -0.11374149D-04 -0.56764977D-05  0.42979476D-07  0.32953936D-07  0.16446324D-07
 -0.41668650D-03 -0.22878295D-04  0.17343388D-03 -0.53438256D-07  0.74266352D-04
  0.35187070D-04  0.16627272D-04  0.11388793D-03 -0.60929831D-07 -0.26883531D-07
  0.21464358D-05  0.36407614D-05  0.41448781D-05 -0.43935351D-04  0.30984821D-04
  0.52556121D-04  0.59833286D-04  0.96796275D-05  0.30999393D-04  0.52580838D-04
  0.59861426D-04  0.96339814D-05  0.94239784D-04  0.15984851D-03  0.18198188D-03
 -0.20527881D-03  0.63518283D-05  0.10773903D-04  0.12265708D-04  0.68497599D-04
 -0.95478413D-06 -0.17613903D-05 -0.28434301D-05 -0.37013011D-05 -0.31583269D-05
 -0.10904944D-05  0.55181534D-06  0.25433119D-06 -0.71317120D-06  0.28936191D-04
  0.22186436D-04  0.11072586D-04 -0.21681903D-05 -0.16624308D-05 -0.82966947D-06
 -0.45392874D-07 -0.34804377D-07 -0.17369823D-07 -0.86404508D-04  0.25413592D-04
 -0.90225016D-05  0.95995710D-07 -0.61416605D-05 -0.79203883D-05 -0.64027403D-05
  0.15871870D-04 -0.41147957D-07  0.84972269D-07  0.89943911D-06  0.15256190D-05
  0.17368633D-05 -0.16498798D-05  0.90773771D-06  0.15396950D-05  0.17528883D-05
 -0.16163232D-05  0.15397069D-05  0.26116343D-05  0.29732533D-05  0.70946689D-05
MO    2     MO 0.0        OCC NO =    1.0000000  ORB. ENERGY =  -19.392814
  0.54799745D-05  0.10109483D-04  0.16319840D-04  0.21243583D-04  0.18127187D-04
  0.62588822D-05 -0.21504001D-04 -0.99111742D-05  0.27791967D-04 -0.19630933D-04
 -0.15051754D-04 -0.75118802D-05 -0.18702605D-04 -0.14339971D-04 -0.71566506D-05
  0.52900765D-07  0.40560951D-07  0.20242757D-07 -0.16597958D-03  0.10807674D-03
  0.51434112D-04 -0.43222866D-07 -0.14462480D-04  0.86215929D-05  0.25263048D-04
  0.25918593D-04  0.10931606D-07  0.14673065D-07  0.35099383D-05  0.64751509D-05
  0.10452901D-04  0.13606571D-04  0.11610512D-04  0.40088308D-05 -0.53848063D-05
 -0.24818523D-05  0.69593729D-05 -0.11364766D-04 -0.87137815D-05 -0.43487877D-05
 -0.79805338D-04 -0.61189671D-04 -0.30537934D-04  0.38225204D-08  0.29308662D-08
  0.14627076D-08  0.25872428D-03  0.10917123D-03 -0.43642421D-04  0.91259258D-08
  0.26101720D-04  0.20461478D-04  0.26649535D-04 -0.13108608D-04  0.12509024D-07
 -0.16159381D-07  0.12484007D-04  0.23030555D-04  0.37178456D-04  0.48395303D-04
  0.41295800D-04  0.14258447D-04 -0.63023585D-04 -0.29047513D-04  0.81452257D-04
 -0.77576156D-04 -0.59480476D-04 -0.29684926D-04 -0.19087394D-04 -0.14635003D-04
 -0.73038921D-05  0.11345265D-07  0.86988294D-08  0.43413255D-08 -0.11127830D-03
 -0.37343487D-03 -0.28574257D-04  0.25913242D-07  0.83252463D-04 -0.52867264D-04
  0.30021676D-04  0.14679323D-04  0.66150416D-08 -0.18844749D-07 -0.26933426D-04
 -0.49686912D-04 -0.80210082D-04 -0.10440969D-03 -0.89092982D-04 -0.30761666D-04
 -0.47458527D-04 -0.21873592D-04  0.61335835D-04 -0.35336505D-03 -0.27093791D-03
 -0.13521701D-03 -0.43903284D-03 -0.33662253D-03 -0.16799824D-03  0.41905008D-07
  0.32130102D-07  0.16035173D-07  0.26894221D-04  0.48853501D-03  0.57361095D-03
 -0.55094496D-07  0.27411284D-05 -0.32493087D-04 -0.92902541D-04  0.79046235D-04
 -0.46720238D-07 -0.17301032D-07  0.15110264D-04  0.27875486D-04  0.44999677D-04
  0.58576209D-04  0.49983185D-04  0.17257993D-04 -0.93024499D-04 -0.42874907D-04
  0.12022571D-03  0.94322684D-04  0.72320652D-04  0.36093074D-04  0.47829184D-04
  0.36672385D-04  0.18302090D-04 -0.46601324D-07 -0.35730940D-07 -0.17832243D-07
 -0.69877739D-03  0.10588516D-03 -0.32405026D-03 -0.10897965D-07 -0.72377056D-04
 -0.73434464D-04  0.61294695D-04 -0.46376120D-04  0.50844574D-07 -0.85640054D-08
 -0.56541486D-05 -0.10430800D-04 -0.16838546D-04 -0.21918783D-04 -0.18703337D-04
 -0.64578129D-05  0.32675422D-04  0.15060072D-04 -0.42230015D-04 -0.47977800D-04
 -0.36786334D-04 -0.18358959D-04 -0.52435214D-04 -0.40203997D-04 -0.20064612D-04
 -0.26686900D-09 -0.20461822D-09 -0.10211883D-09  0.38292390D-03 -0.11429567D-03
 -0.15269841D-03  0.42725183D-07  0.63930034D-05  0.55562092D-04 -0.11267788D-04
  0.64568265D-04  0.48862629D-07 -0.34457791D-07 -0.20278176D-04 -0.34395625D-04
 -0.39158203D-04 -0.70182398D-04  0.82560017D+00  0.15195450D+01  0.24589107D+01
  0.32323069D+01  0.27723309D+01  0.94790701D+00 -0.15818162D-01 -0.70580331D-02
  0.20842466D-01  0.31861048D-02  0.24547220D-02  0.10777552D-02 -0.14119734D-03
 -0.10878494D-03 -0.47762449D-04 -0.59273958D-06 -0.45667389D-06 -0.20050444D-06
  0.39125139D-02  0.86024139D-04  0.37134041D-03  0.17402683D-07 -0.93746242D-02
 -0.92837959D-02 -0.92810345D-02  0.88723998D-04  0.55829936D-07 -0.63128284D-08
  0.33388623D-04  0.61452890D-04  0.99442376D-04  0.13071979D-03  0.11211760D-03
  0.38334912D-04 -0.10369876D-03 -0.46270184D-04  0.13663647D-03  0.23268198D-03
  0.17926892D-03  0.78708713D-04  0.70712233D-04  0.54479964D-04  0.23919639D-04
 -0.88622982D-09 -0.68279230D-09 -0.29978260D-09 -0.31020281D-03 -0.21175760D-03
 -0.99383989D-04  0.48950733D-08 -0.18851643D-05  0.16646478D-03  0.11466991D-03
  0.24942412D-04  0.53696256D-08 -0.10440704D-07  0.10096788D-03  0.17126063D-03
  0.19497418D-03 -0.18715590D-03  0.26495402D-05  0.48878843D-05  0.78905608D-05
  0.10271166D-04  0.87644043D-05  0.30261382D-05 -0.12758576D-04 -0.58804162D-05
  0.16489301D-04  0.17112008D-05  0.13120403D-05  0.65480005D-06 -0.98487987D-05
 -0.75514342D-05 -0.37686949D-05  0.16221378D-08  0.12437524D-08  0.62071960D-09
  0.80739764D-05 -0.77827821D-05  0.12529453D-07 -0.28549654D-08 -0.89549347D-05
 -0.91303363D-06  0.12161614D-04  0.12965630D-04  0.42574484D-08  0.10273562D-07
  0.17879978D-06  0.30327828D-06  0.34527160D-06  0.39662453D-05  0.18964981D-05
  0.32168197D-05  0.36622355D-05 -0.58251502D-05  0.18943161D-05  0.32131186D-05
  0.36580219D-05 -0.58277015D-05 -0.20082796D-05 -0.34064224D-05 -0.38780915D-05
 -0.14617539D-03 -0.55689828D-05 -0.94460488D-05 -0.10753993D-04 -0.27274521D-04
  0.39896303D-05  0.73600890D-05  0.11881466D-04  0.15466138D-04  0.13197284D-04
  0.45567049D-05 -0.14287522D-04 -0.65851058D-05  0.18465324D-04 -0.23116849D-05
 -0.17724534D-05 -0.88457847D-06  0.19372743D-05  0.14853790D-05  0.74130825D-06
  0.56284642D-07  0.43155493D-07  0.21537616D-07 -0.73462861D-05  0.60050818D-05
  0.29774342D-04 -0.62300819D-07 -0.46343746D-05  0.22931142D-04  0.61289196D-05
 -0.50189011D-04  0.41529602D-07 -0.44601242D-06  0.30434103D-05  0.51621999D-05
  0.58769821D-05  0.60648026D-05  0.30851729D-05  0.52330372D-05  0.59576279D-05
  0.61159533D-05 -0.62018104D-06 -0.10519444D-05 -0.11976015D-05 -0.12111250D-04
MO    3     MO 0.0        OCC NO =    1.0000000  ORB. ENERGY =  -10.474662
  0.31715502D-04  0.58508909D-04  0.94451520D-04  0.12294782D-03  0.10491159D-03
  0.36223452D-04 -0.93115808D-04 -0.42916991D-04  0.12034372D-03  0.17188861D-03
  0.13179329D-03  0.65774087D-04  0.29447373D-04  0.22578378D-04  0.11268193D-04
 -0.14644468D-07 -0.11228450D-07 -0.56037833D-08 -0.16216668D-02  0.36839707D-03
  0.71554075D-03 -0.13445123D-06  0.41391360D-04  0.21908290D-04  0.52410334D-04
  0.48390971D-05  0.23196400D-07 -0.14166231D-07  0.17269888D-02  0.31859570D-02
  0.51431225D-02  0.66948173D-02  0.57126998D-02  0.19724579D-02  0.26862696D-03
  0.12380992D-03 -0.34717593D-03 -0.63583618D-04 -0.48751885D-04 -0.24330607D-04
  0.48240865D-03  0.36988036D-03  0.18459622D-03 -0.79572296D-07 -0.61010990D-07
 -0.30448760D-07  0.24872393D-02  0.69485199D-03 -0.15083207D-02  0.11534435D-06
 -0.36245548D-03 -0.20671798D-03 -0.31185376D-03 -0.12925781D-03  0.25567811D-07
  0.25348602D-07  0.53192641D+00  0.98130035D+00  0.15841230D+01  0.20620575D+01
  0.17595574D+01  0.60753289D+00 -0.20094826D-01 -0.92616871D-02  0.25970737D-01
 -0.78851325D-03 -0.60458195D-03 -0.30172876D-03 -0.38457923D-03 -0.29487096D-03
 -0.14716127D-03 -0.14927561D-08 -0.11445507D-08 -0.57121102D-09 -0.42198240D-02
 -0.20721871D-02 -0.16620659D-03  0.25770572D-06 -0.97482238D-02 -0.10389276D-01
 -0.10466319D-01 -0.50461516D-04  0.32900146D-07  0.24323899D-07  0.24858370D-01
  0.45858838D-01  0.74030384D-01  0.96365564D-01  0.82228910D-01  0.28391667D-01
 -0.56175534D-03 -0.25891252D-03  0.72601774D-03  0.12267662D-03  0.94060649D-04
  0.46942856D-04 -0.29393190D-03 -0.22536833D-03 -0.11247459D-03 -0.29138807D-07
 -0.22341789D-07 -0.11150119D-07  0.25338754D-02  0.44796039D-03  0.12855757D-02
 -0.79159784D-07 -0.10376724D-02 -0.87429622D-03 -0.84947996D-03  0.22725863D-03
  0.45746077D-07 -0.42352332D-07  0.95131134D-04  0.17549837D-03  0.28330878D-03
  0.36878385D-03  0.31468393D-03  0.10865280D-03 -0.76218411D-04 -0.35128996D-04
  0.98505371D-04  0.16635046D-03  0.12754698D-03  0.63654883D-04 -0.25323893D-04
 -0.19416755D-04 -0.96903214D-05 -0.77852440D-08 -0.59692313D-08 -0.29790648D-08
 -0.15528970D-02  0.38781439D-03 -0.64425806D-03 -0.43346067D-07  0.92189791D-04
 -0.10054803D-04  0.29240771D-04 -0.10860435D-04  0.40867388D-08  0.13478467D-07
 -0.70174860D-04 -0.12945891D-03 -0.20898683D-03 -0.27203876D-03 -0.23213116D-03
 -0.80149312D-04  0.16083772D-03  0.74129957D-04 -0.20786814D-03  0.10819217D-03
  0.82954896D-04  0.41400307D-04  0.19998217D-04  0.15333364D-04  0.76524234D-05
 -0.70164033D-08 -0.53797330D-08 -0.26848638D-08  0.13489771D-02 -0.76529846D-03
 -0.57794509D-04  0.33012318D-07 -0.12983158D-04  0.70859348D-04 -0.13759972D-03
 -0.61662973D-05 -0.54216636D-07 -0.28216273D-07 -0.29833262D-04 -0.50602858D-04
 -0.57609566D-04 -0.18689177D-03 -0.68518979D-04 -0.12611150D-03 -0.20407221D-03
 -0.26825863D-03 -0.23008387D-03 -0.78669582D-04  0.25781807D-03  0.11503792D-03
 -0.33970852D-03 -0.48024062D-04 -0.36999951D-04 -0.16244971D-04 -0.10203896D-03
 -0.78615522D-04 -0.34516448D-04 -0.20361215D-07 -0.15687218D-07 -0.68875338D-08
  0.76588116D-03  0.13382755D-03  0.15866477D-03  0.14889625D-07 -0.20937454D-03
 -0.19579852D-03 -0.24398998D-03  0.20428914D-04  0.28949941D-07  0.82197857D-08
  0.14759190D-03  0.27164788D-03  0.43957755D-03  0.57783699D-03  0.49560743D-03
  0.16945660D-03 -0.75854175D-03 -0.33845985D-03  0.99947647D-03  0.60004926D-04
  0.46230561D-04  0.20297706D-04  0.47039426D-04  0.36241342D-04  0.15911901D-04
  0.13237193D-06  0.10198544D-06  0.44777100D-07 -0.18954724D-02 -0.79791251D-03
 -0.35999218D-04 -0.33755919D-07 -0.26471600D-03  0.84255346D-03  0.10446002D-02
 -0.17437009D-03  0.22176284D-07  0.20744341D-07 -0.12777659D-04 -0.21673328D-04
 -0.24674317D-04  0.70635568D-04 -0.17462468D-04 -0.32214844D-04 -0.52004747D-04
 -0.67694729D-04 -0.57764035D-04 -0.19944533D-04  0.83761174D-04  0.38605449D-04
 -0.10825371D-03  0.12073778D-03  0.92574075D-04  0.46200951D-04 -0.15142442D-03
 -0.11610264D-03 -0.57943353D-04  0.18565001D-07  0.14234465D-07  0.71039957D-08
  0.76225432D-03  0.18427186D-03 -0.19045836D-03  0.44578471D-07  0.51393062D-04
  0.63944133D-04 -0.29567738D-04 -0.10781341D-03  0.30916638D-07 -0.60056516D-07
 -0.22730998D-04 -0.38556075D-04 -0.43894729D-04 -0.76648904D-05 -0.17302658D-04
 -0.29348583D-04 -0.33412324D-04  0.11571327D-05 -0.17305481D-04 -0.29353371D-04
 -0.33417775D-04  0.11875411D-05  0.43394040D-04  0.73604505D-04  0.83796128D-04
 -0.32023258D-04 -0.31362641D-04 -0.53196975D-04 -0.60562876D-04 -0.21027994D-03
  0.75296874D-06  0.13890803D-05  0.22424063D-05  0.29189467D-05  0.24907425D-05
  0.85999354D-06  0.10546216D-04  0.48607413D-05 -0.13630026D-04 -0.82573915D-04
 -0.63312441D-04 -0.31597345D-04 -0.37618396D-05 -0.28843400D-05 -0.14394878D-05
  0.54544561D-07  0.41821310D-07  0.20871765D-07  0.29409603D-03 -0.89550766D-04
 -0.75959916D-06 -0.22057145D-06  0.13520457D-04  0.13769168D-04  0.76677939D-05
  0.18677154D-06  0.12184636D-06  0.68943715D-07 -0.42550744D-05 -0.72174115D-05
 -0.82167679D-05 -0.16225252D-05 -0.42912764D-05 -0.72788169D-05 -0.82866758D-05
 -0.17697327D-05 -0.48793824D-05 -0.82763561D-05 -0.94223389D-05 -0.73726512D-05
MO    4     MO 0.0        OCC NO =    1.0000000  ORB. ENERGY =  -10.469023
 -0.57648032D-04 -0.10634936D-03 -0.17168085D-03 -0.22347745D-03 -0.19069371D-03
 -0.65841956D-04  0.13109891D-03  0.60423367D-04 -0.16943343D-03  0.28317462D-04
  0.21712034D-04  0.10835827D-04  0.57468132D-04  0.44062919D-04  0.21990485D-04
 -0.11531101D-06 -0.88413165D-07 -0.44124366D-07  0.11237328D-02 -0.33455191D-03
 -0.48967810D-03  0.15734745D-06  0.10314608D-04 -0.23669793D-04 -0.12570035D-03
 -0.40736578D-04 -0.53002049D-07 -0.50107762D-07 -0.71157441D-04 -0.13127158D-03
 -0.21191304D-03 -0.27584781D-03 -0.23538144D-03 -0.81271554D-04 -0.84589060D-04
 -0.38987020D-04  0.10932367D-03  0.21119674D-04  0.16193227D-04  0.80815551D-05
  0.84014684D-04  0.64417131D-04  0.32148663D-04  0.36177370D-07  0.27738513D-07
  0.13843462D-07 -0.15479808D-02 -0.38454735D-03  0.61312471D-03 -0.66530085D-07
  0.58148852D-04  0.68447029D-04  0.45034185D-04  0.14613903D-03 -0.77418437D-07
 -0.23437081D-10 -0.25184547D-01 -0.46460571D-01 -0.75001767D-01 -0.97630016D-01
 -0.83307869D-01 -0.28764205D-01  0.13192178D-02  0.60802630D-03 -0.17049692D-02
 -0.17802958D-03 -0.13650179D-03 -0.68123959D-04  0.36539113D-03  0.28015874D-03
  0.13981885D-03 -0.16540291D-07 -0.12682046D-07 -0.63292297D-08  0.27052472D-02
  0.14846019D-02 -0.18909815D-03 -0.15054985D-06  0.73006129D-04 -0.14569709D-03
  0.12581636D-03  0.40387430D-04 -0.50358200D-07  0.33234786D-07  0.53196592D+00
  0.98137324D+00  0.15842407D+01  0.20622107D+01  0.17596881D+01  0.60757801D+00
 -0.19952159D-01 -0.91959318D-02  0.25786353D-01 -0.84966410D-03 -0.65146854D-03
 -0.32512846D-03 -0.48558346D-03 -0.37231460D-03 -0.18581108D-03 -0.39234382D-08
 -0.30082436D-08 -0.15013244D-08 -0.43067272D-02 -0.92647171D-03 -0.18134255D-02
  0.17152263D-06 -0.99503837D-02 -0.97124737D-02 -0.10391899D-01  0.57006198D-03
 -0.32478314D-08  0.12476511D-07  0.15957262D-02  0.29438032D-02  0.47522111D-02
  0.61859668D-02  0.52784967D-02  0.18225381D-02  0.33524713D-03  0.15451510D-03
 -0.43327646D-03  0.29961134D-03  0.22972297D-03  0.11464786D-03 -0.13105117D-03
 -0.10048173D-03 -0.50147424D-04  0.58413164D-07  0.44787509D-07  0.22352106D-07
  0.28238987D-02 -0.80919457D-03  0.10726171D-02  0.71005817D-07 -0.32133244D-03
 -0.27813316D-03 -0.37248008D-03 -0.21890879D-03 -0.22275323D-07  0.51642599D-07
  0.41584165D-04  0.76714664D-04  0.12384125D-03  0.16120452D-03  0.13755611D-03
  0.47494818D-04 -0.11900818D-03 -0.54850760D-04  0.15380726D-03  0.70695164D-04
  0.54204568D-04  0.27051878D-04  0.89693249D-04  0.68771094D-04  0.34321596D-04
 -0.42701405D-08 -0.32740729D-08 -0.16339918D-08 -0.15941432D-02  0.66822809D-03
  0.26408103D-03 -0.12470803D-06  0.18623323D-04  0.14511467D-04  0.70695295D-04
 -0.95987505D-05 -0.15465227D-06  0.56836691D-07  0.46067353D-04  0.78138949D-04
  0.88958432D-04  0.39156974D-03  0.13047623D-03  0.24014591D-03  0.38860142D-03
  0.51082744D-03  0.43813373D-03  0.14980536D-03 -0.70448185D-03 -0.31433843D-03
  0.92824559D-03 -0.12118747D-04 -0.93368413D-05 -0.40993763D-05  0.87087748D-04
  0.67096415D-04  0.29458940D-04  0.13270453D-06  0.10224169D-06  0.44889608D-07
 -0.17182648D-02 -0.41697794D-03 -0.67495113D-03 -0.45754646D-07  0.49162750D-03
 -0.12224164D-03  0.97221091D-03 -0.10422521D-02  0.13836676D-07 -0.53752233D-07
 -0.92466946D-04 -0.17018854D-03 -0.27539719D-03 -0.36201731D-03 -0.31050014D-03
 -0.10616527D-03  0.35554881D-03  0.15864519D-03 -0.46848136D-03 -0.13969970D-03
 -0.10763108D-03 -0.47255843D-04 -0.95382243D-04 -0.73486876D-04 -0.32264697D-04
 -0.47416993D-07 -0.36532237D-07 -0.16039620D-07  0.10034365D-02  0.28223543D-03
  0.10026553D-03  0.19055338D-07 -0.18507046D-03 -0.35139715D-03 -0.38596476D-03
  0.12251418D-04  0.22177840D-07  0.24088858D-07  0.36074464D-04  0.61189119D-04
  0.69661649D-04 -0.72095298D-04 -0.19443854D-04 -0.35870115D-04 -0.57905487D-04
 -0.75375739D-04 -0.64318255D-04 -0.22207548D-04  0.56293245D-04  0.25945505D-04
 -0.72753904D-04 -0.80087586D-05 -0.61406081D-05 -0.30645938D-05  0.84001800D-04
  0.64407253D-04  0.32143733D-04 -0.29131552D-07 -0.22336227D-07 -0.11147343D-07
 -0.12527187D-03 -0.57572656D-04 -0.19589620D-04  0.15263876D-07 -0.65226711D-04
  0.88261903D-05 -0.47588465D-04 -0.31900301D-04 -0.35910467D-08 -0.12586570D-07
  0.64694827D-05  0.10973467D-04  0.12492904D-04  0.25706990D-04 -0.11353189D-04
 -0.19257157D-04 -0.21923593D-04 -0.15982878D-05 -0.11345773D-04 -0.19244578D-04
 -0.21909272D-04 -0.16026090D-05 -0.78776020D-05 -0.13361904D-04 -0.15212055D-04
  0.46293881D-04  0.27316704D-04  0.46334299D-04  0.52749962D-04  0.16439534D-03
 -0.21228823D-04 -0.39163033D-04 -0.63221278D-04 -0.82295319D-04 -0.70222745D-04
 -0.24246226D-04  0.54007952D-04  0.24892216D-04 -0.69800371D-04  0.49731766D-04