 Entering Link 1 = D:\Gaussian\G16W\l1.exe PID=     33488.
  
 Copyright (c) 1988,1990,1992,1993,1995,1998,2003,2009,2016,
            Gaussian, Inc.  All Rights Reserved.
  
 This is part of the Gaussian(R) 16 program.  It is based on
 the Gaussian(R) 09 system (copyright 2009, Gaussian, Inc.),
 the Gaussian(R) 03 system (copyright 2003, Gaussian, Inc.),
 the Gaussian(R) 98 system (copyright 1998, Gaussian, Inc.),
 the Gaussian(R) 94 system (copyright 1995, Gaussian, Inc.),
 the Gaussian 92(TM) system (copyright 1992, Gaussian, Inc.),
 the Gaussian 90(TM) system (copyright 1990, Gaussian, Inc.),
 the Gaussian 88(TM) system (copyright 1988, Gaussian, Inc.),
 the Gaussian 86(TM) system (copyright 1986, Carnegie Mellon
 University), and the Gaussian 82(TM) system (copyright 1983,
 Carnegie Mellon University). Gaussian is a federally registered
 trademark of Gaussian, Inc.
  
 This software contains proprietary and confidential information,
 including trade secrets, belonging to Gaussian, Inc.
  
 This software is provided under written license and may be
 used, copied, transmitted, or stored only in accord with that
 written license.
  
 The following legend is applicable only to US Government
 contracts under FAR:
  
                    RESTRICTED RIGHTS LEGEND
  
 Use, reproduction and disclosure by the US Government is
 subject to restrictions as set forth in subparagraphs (a)
 and (c) of the Commercial Computer Software - Restricted
 Rights clause in FAR 52.227-19.
  
 Gaussian, Inc.
 340 Quinnipiac St., Bldg. 40, Wallingford CT 06492
  
  
 ---------------------------------------------------------------
 Warning -- This program may not be used in any manner that
 competes with the business of Gaussian, Inc. or will provide
 assistance to any competitor of Gaussian, Inc.  The licensee
 of this program is prohibited from giving any competitor of
 Gaussian, Inc. access to this program.  By using this program,
 the user acknowledges that Gaussian, Inc. is engaged in the
 business of creating and licensing software in the field of
 computational chemistry and represents and warrants to the
 licensee that it is not a competitor of Gaussian, Inc. and that
 it will not use this program in any manner prohibited above.
 ---------------------------------------------------------------
  

 Cite this work as:
 Gaussian 16, Revision A.03,
 M. J. Frisch, G. W. Trucks, H. B. Schlegel, G. E. Scuseria, 
 M. A. Robb, J. R. Cheeseman, G. Scalmani, V. Barone, 
 G. A. Petersson, H. Nakatsuji, X. Li, M. Caricato, A. V. Marenich, 
 J. Bloino, B. G. Janesko, R. Gomperts, B. Mennucci, H. P. Hratchian, 
 J. V. Ortiz, A. F. Izmaylov, J. L. Sonnenberg, D. Williams-Young, 
 F. Ding, F. Lipparini, F. Egidi, J. Goings, B. Peng, A. Petrone, 
 T. Henderson, D. Ranasinghe, V. G. Zakrzewski, J. Gao, N. Rega, 
 G. Zheng, W. Liang, M. Hada, M. Ehara, K. Toyota, R. Fukuda, 
 J. Hasegawa, M. Ishida, T. Nakajima, Y. Honda, O. Kitao, H. Nakai, 
 T. Vreven, K. Throssell, J. A. Montgomery, Jr., J. E. Peralta, 
 F. Ogliaro, M. J. Bearpark, J. J. Heyd, E. N. Brothers, K. N. Kudin, 
 V. N. Staroverov, T. A. Keith, R. Kobayashi, J. Normand, 
 K. Raghavachari, A. P. Rendell, J. C. Burant, S. S. Iyengar, 
 J. Tomasi, M. Cossi, J. M. Millam, M. Klene, C. Adamo, R. Cammi, 
 J. W. Ochterski, R. L. Martin, K. Morokuma, O. Farkas, 
 J. B. Foresman, and D. J. Fox, Gaussian, Inc., Wallingford CT, 2016.
 
 ******************************************
 Gaussian 16:  EM64W-G16RevA.03 17-Dec-2016
                03-Dec-2025 
 ******************************************
 %nprocs=   4
 Will use up to    4 processors via shared memory.
 ------------------------------------
 #P B3LYP/6-31G* SCF=conver=7 out=wfn
 ------------------------------------
 1/38=1,172=1/1;
 2/12=2,17=6,18=5,40=1/2;
 3/5=1,6=6,7=1,11=2,25=1,30=1,74=-5/1,2,3;
 4//1;
 5/5=2,6=7,38=5/2;
 6/7=2,8=2,9=2,10=2,28=1/1;
 99/5=1,6=100,9=1/99;
 Leave Link    1 at Wed Dec 03 17:04:20 2025, MaxMem=           0 cpu:               0.0 elap:               0.1
 (Enter D:\Gaussian\G16W\l101.exe)
 ----------------------------------------------------
 Generated by Multiwfn (http://sobereva.com/multiwfn)
 ----------------------------------------------------
 Symbolic Z-matrix:
 Charge =  0 Multiplicity = 1
 C                     0.91883   1.23084  -0.00028 
 C                    -0.48058   1.18356  -0.00011 
 C                    -1.10004  -0.06531   0.00009 
 C                    -0.32451  -1.23121   0.00005 
 C                     1.0609   -1.16316  -0.00014 
 C                     1.70585   0.07999  -0.00024 
 H                     1.6423   -2.08196  -0.00024 
 O                    -1.04529  -2.40692   0.00008 
 O                    -2.46562  -0.14311   0.00016 
 H                    -0.44425  -3.15755  -0.0001 
 C                    -1.32613   2.43004  -0.00027 
 H                    -0.70136   3.32484  -0.00062 
 H                    -1.97923   2.46396   0.87685 
 H                    -1.97959   2.46349  -0.87713 
 H                    -2.70349  -1.07894   0.00017 
 H                     1.40248   2.2027   -0.00051 
 C                     3.21447   0.15739   0.00048 
 H                     3.64062  -0.32483   0.88645 
 H                     3.64226  -0.33909  -0.87672 
 H                     3.5548    1.19477  -0.0075 
 
 ITRead=  0  0  0  0  0  0  0  0  0  0  0  0  0  0  0  0  0  0  0  0
 MicOpt= -1 -1 -1 -1 -1 -1 -1 -1 -1 -1 -1 -1 -1 -1 -1 -1 -1 -1 -1 -1
 NAtoms=     20 NQM=       20 NQMF=       0 NMMI=      0 NMMIF=      0
                NMic=       0 NMicF=      0.
                    Isotopes and Nuclear Properties:
 (Nuclear quadrupole moments (NQMom) in fm**2, nuclear magnetic moments (NMagM)
  in nuclear magnetons)

  Atom         1           2           3           4           5           6           7           8           9          10
 IAtWgt=          12          12          12          12          12          12           1          16          16           1
 AtmWgt=  12.0000000  12.0000000  12.0000000  12.0000000  12.0000000  12.0000000   1.0078250  15.9949146  15.9949146   1.0078250
 NucSpn=           0           0           0           0           0           0           1           0           0           1
 AtZEff=   0.0000000   0.0000000   0.0000000   0.0000000   0.0000000   0.0000000   0.0000000   0.0000000   0.0000000   0.0000000
 NQMom=    0.0000000   0.0000000   0.0000000   0.0000000   0.0000000   0.0000000   0.0000000   0.0000000   0.0000000   0.0000000
 NMagM=    0.0000000   0.0000000   0.0000000   0.0000000   0.0000000   0.0000000   2.7928460   0.0000000   0.0000000   2.7928460
 AtZNuc=   6.0000000   6.0000000   6.0000000   6.0000000   6.0000000   6.0000000   1.0000000   8.0000000   8.0000000   1.0000000

  Atom        11          12          13          14          15          16          17          18          19          20
 IAtWgt=          12           1           1           1           1           1          12           1           1           1
 AtmWgt=  12.0000000   1.0078250   1.0078250   1.0078250   1.0078250   1.0078250  12.0000000   1.0078250   1.0078250   1.0078250
 NucSpn=           0           1           1           1           1           1           0           1           1           1
 AtZEff=   0.0000000   0.0000000   0.0000000   0.0000000   0.0000000   0.0000000   0.0000000   0.0000000   0.0000000   0.0000000
 NQMom=    0.0000000   0.0000000   0.0000000   0.0000000   0.0000000   0.0000000   0.0000000   0.0000000   0.0000000   0.0000000
 NMagM=    0.0000000   2.7928460   2.7928460   2.7928460   2.7928460   2.7928460   0.0000000   2.7928460   2.7928460   2.7928460
 AtZNuc=   6.0000000   1.0000000   1.0000000   1.0000000   1.0000000   1.0000000   6.0000000   1.0000000   1.0000000   1.0000000
 Leave Link  101 at Wed Dec 03 17:04:20 2025, MaxMem=   104857600 cpu:               0.0 elap:               0.1
 (Enter D:\Gaussian\G16W\l202.exe)
                          Input orientation:                          
 ---------------------------------------------------------------------
 Center     Atomic      Atomic             Coordinates (Angstroms)
 Number     Number       Type             X           Y           Z
 ---------------------------------------------------------------------
      1          6           0        0.918831    1.230840   -0.000284
      2          6           0       -0.480580    1.183555   -0.000110
      3          6           0       -1.100036   -0.065309    0.000092
      4          6           0       -0.324510   -1.231209    0.000046
      5          6           0        1.060899   -1.163162   -0.000137
      6          6           0        1.705846    0.079990   -0.000239
      7          1           0        1.642304   -2.081958   -0.000238
      8          8           0       -1.045289   -2.406916    0.000079
      9          8           0       -2.465620   -0.143107    0.000156
     10          1           0       -0.444246   -3.157546   -0.000103
     11          6           0       -1.326132    2.430042   -0.000265
     12          1           0       -0.701359    3.324839   -0.000623
     13          1           0       -1.979225    2.463956    0.876850
     14          1           0       -1.979587    2.463493   -0.877127
     15          1           0       -2.703490   -1.078942    0.000165
     16          1           0        1.402482    2.202703   -0.000509
     17          6           0        3.214469    0.157385    0.000476
     18          1           0        3.640620   -0.324831    0.886446
     19          1           0        3.642263   -0.339086   -0.876715
     20          1           0        3.554795    1.194765   -0.007498
 ---------------------------------------------------------------------
                    Distance matrix (angstroms):
                    1          2          3          4          5
     1  C    0.000000
     2  C    1.400210   0.000000
     3  C    2.399130   1.394054   0.000000
     4  C    2.758185   2.419802   1.400273   0.000000
     5  C    2.398214   2.807710   2.423824   1.387079   0.000000
     6  C    1.394220   2.449146   2.809642   2.416938   1.400494
     7  H    3.390877   3.894896   3.404013   2.142926   1.087298
     8  O    4.134131   3.634608   2.342247   1.379061   2.446007
     9  O    3.652703   2.387554   1.367798   2.401732   3.671083
    10  H    4.595205   4.341253   3.161011   1.930055   2.498605
    11  C    2.545181   1.506216   2.505573   3.795788   4.313819
    12  H    2.647612   2.152636   3.413510   4.571607   4.821588
    13  H    3.269353   2.157411   2.817598   4.142597   4.813257
    14  H    3.269421   2.157411   2.817439   4.142407   4.813138
    15  H    4.296080   3.171785   1.896976   2.383848   3.765331
    16  H    1.085558   2.141164   3.377347   3.843729   3.383153
    17  C    2.534218   3.834894   4.320248   3.801653   2.526204
    18  H    3.257996   4.477220   4.829782   4.162869   2.853732
    19  H    3.263416   4.481596   4.830439   4.159313   2.847970
    20  H    2.636221   4.035397   4.822374   4.575414   3.432112
                    6          7          8          9         10
     6  C    0.000000
     7  H    2.162882   0.000000
     8  O    3.708564   2.707167   0.000000
     9  O    4.177428   4.542486   2.672484   0.000000
    10  H    3.886455   2.347463   0.961612   3.629435   0.000000
    11  C    3.836096   5.400903   4.845104   2.814166   5.656754
    12  H    4.040258   5.892895   5.742064   3.890921   6.487482
    13  H    4.475749   5.877932   5.036503   2.793197   5.892919
    14  H    4.475761   5.877768   5.036198   2.792887   5.892582
    15  H    4.559097   4.460041   2.124417   0.965593   3.069980
    16  H    2.144281   4.291367   5.219212   4.523830   5.669451
    17  C    1.510607   2.736121   4.972040   5.688032   4.937101
    18  H    2.166435   2.804812   5.203697   6.172900   5.049393
    19  H    2.166459   2.793859   5.197868   6.173617   5.041004
    20  H    2.159025   3.794020   5.842340   6.167281   5.910583
                   11         12         13         14         15
    11  C    0.000000
    12  H    1.091331   0.000000
    13  H    1.094080   1.773138   0.000000
    14  H    1.094079   1.773145   1.753977   0.000000
    15  H    3.769627   4.837542   3.720922   3.720554   0.000000
    16  H    2.738068   2.384394   3.503420   3.503550   5.256253
    17  C    5.077601   5.036514   5.750022   5.750351   6.045721
    18  H    5.748409   5.741059   6.273761   6.517029   6.449954
    19  H    5.755101   5.749690   6.521745   6.281691   6.448634
    20  H    5.034820   4.759423   5.746155   5.744154   6.658523
                   16         17         18         19         20
    16  H    0.000000
    17  C    2.732512   0.000000
    18  H    3.490613   1.095025   0.000000
    19  H    3.499292   1.094968   1.763219   0.000000
    20  H    2.376645   1.091807   1.765127   1.765188   0.000000
 Stoichiometry    C8H10O2
 Framework group  C1[X(C8H10O2)]
 Deg. of freedom    54
 Full point group                 C1      NOp   1
 Largest Abelian subgroup         C1      NOp   1
 Largest concise Abelian subgroup C1      NOp   1
                         Standard orientation:                         
 ---------------------------------------------------------------------
 Center     Atomic      Atomic             Coordinates (Angstroms)
 Number     Number       Type             X           Y           Z
 ---------------------------------------------------------------------
      1          6           0        0.918831    1.230840   -0.000284
      2          6           0       -0.480580    1.183555   -0.000110
      3          6           0       -1.100036   -0.065309    0.000092
      4          6           0       -0.324510   -1.231209    0.000046
      5          6           0        1.060899   -1.163162   -0.000137
      6          6           0        1.705846    0.079990   -0.000239
      7          1           0        1.642304   -2.081958   -0.000238
      8          8           0       -1.045289   -2.406916    0.000079
      9          8           0       -2.465620   -0.143107    0.000156
     10          1           0       -0.444246   -3.157546   -0.000103
     11          6           0       -1.326132    2.430042   -0.000265
     12          1           0       -0.701359    3.324839   -0.000623
     13          1           0       -1.979225    2.463956    0.876850
     14          1           0       -1.979587    2.463493   -0.877127
     15          1           0       -2.703490   -1.078942    0.000165
     16          1           0        1.402482    2.202703   -0.000509
     17          6           0        3.214469    0.157385    0.000476
     18          1           0        3.640620   -0.324831    0.886446
     19          1           0        3.642263   -0.339086   -0.876715
     20          1           0        3.554795    1.194765   -0.007498
 ---------------------------------------------------------------------
 Rotational constants (GHZ):           1.7929805           1.2627976           0.7477819
 Leave Link  202 at Wed Dec 03 17:04:20 2025, MaxMem=   104857600 cpu:               0.0 elap:               0.1
 (Enter D:\Gaussian\G16W\l301.exe)
 Standard basis: 6-31G(d) (6D, 7F)
 Ernie: Thresh=  0.10000D-02 Tol=  0.10000D-05 Strict=F.
 There are   170 symmetry adapted cartesian basis functions of A   symmetry.
 There are   170 symmetry adapted basis functions of A   symmetry.
   170 basis functions,   320 primitive gaussians,   170 cartesian basis functions
    37 alpha electrons       37 beta electrons
       nuclear repulsion energy       518.4505527102 Hartrees.
 IExCor=  402 DFT=T Ex+Corr=B3LYP ExCW=0 ScaHFX=  0.200000
 ScaDFX=  0.800000  0.720000  1.000000  0.810000 ScalE2=  1.000000  1.000000
 IRadAn=      5 IRanWt=     -1 IRanGd=            0 ICorTp=0 IEmpDi=  4
 NAtoms=   20 NActive=   20 NUniq=   20 SFac= 1.00D+00 NAtFMM=   60 NAOKFM=F Big=F
 Integral buffers will be    131072 words long.
 Raffenetti 2 integral format.
 Two-electron integral symmetry is turned on.
 Leave Link  301 at Wed Dec 03 17:04:20 2025, MaxMem=   104857600 cpu:               0.0 elap:               0.1
 (Enter D:\Gaussian\G16W\l302.exe)
 NPDir=0 NMtPBC=     1 NCelOv=     1 NCel=       1 NClECP=     1 NCelD=      1
         NCelK=      1 NCelE2=     1 NClLst=     1 CellRange=     0.0.
 One-electron integrals computed using PRISM.
 One-electron integral symmetry used in STVInt
 NBasis=   170 RedAO= T EigKep=  3.38D-04  NBF=   170
 NBsUse=   170 1.00D-06 EigRej= -1.00D+00 NBFU=   170
 Precomputing XC quadrature grid using
 IXCGrd= 4 IRadAn=           5 IRanWt=          -1 IRanGd=           0 AccXCQ= 0.00D+00.
 Generated NRdTot=       0 NPtTot=           0 NUsed=           0 NTot=          32
 NSgBfM=   170   170   170   170   170 MxSgAt=    20 MxSgA2=    20.
 Leave Link  302 at Wed Dec 03 17:04:21 2025, MaxMem=   104857600 cpu:               0.0 elap:               0.4
 (Enter D:\Gaussian\G16W\l303.exe)
 DipDrv:  MaxL=1.
 Leave Link  303 at Wed Dec 03 17:04:21 2025, MaxMem=   104857600 cpu:               0.0 elap:               0.1
 (Enter D:\Gaussian\G16W\l401.exe)
 ExpMin= 1.61D-01 ExpMax= 5.48D+03 ExpMxC= 8.25D+02 IAcc=3 IRadAn=         5 AccDes= 0.00D+00
 Harris functional with IExCor=  402 and IRadAn=       5 diagonalized for initial guess.
 HarFok:  IExCor=  402 AccDes= 0.00D+00 IRadAn=         5 IDoV= 1 UseB2=F ITyADJ=14
 ICtDFT=  3500011 ScaDFX=  1.000000  1.000000  1.000000  1.000000
 FoFCou: FMM=F IPFlag=           0 FMFlag=      100000 FMFlg1=           0
         NFxFlg=           0 DoJE=T BraDBF=F KetDBF=T FulRan=T
         wScrn=  0.000000 ICntrl=       500 IOpCl=  0 I1Cent=   200000004 NGrid=           0
         NMat0=    1 NMatS0=      1 NMatT0=    0 NMatD0=    1 NMtDS0=    0 NMtDT0=    0
 Petite list used in FoFCou.
 Harris En= -461.368698419512    
 JPrj=0 DoOrth=F DoCkMO=F.
 Leave Link  401 at Wed Dec 03 17:04:22 2025, MaxMem=   104857600 cpu:               1.0 elap:               1.2
 (Enter D:\Gaussian\G16W\l502.exe)
 Integral symmetry usage will be decided dynamically.
 Closed shell SCF:
 Using DIIS extrapolation, IDIIS=  1040.
 NGot=   104857600 LenX=   104796738 LenY=   104767397
 Requested convergence on RMS density matrix=1.00D-07 within 128 cycles.
 Requested convergence on MAX density matrix=1.00D-05.
 Requested convergence on             energy=1.00D-05.
 No special actions if energy rises.
 Fock matrices will be formed incrementally for  20 cycles.
 Integral accuracy reduced to 1.0D-05 until final iterations.

 Cycle   1  Pass 0  IDiag  1:
 FoFJK:  IHMeth= 1 ICntrl=       0 DoSepK=F KAlg= 0 I1Cent=           0 FoldK=F
 IRaf= 930000000 NMat=       1 IRICut=       1 DoRegI=T DoRafI=F ISym2E= 0 IDoP0=0 IntGTp=1.
 FoFCou: FMM=F IPFlag=           0 FMFlag=      100000 FMFlg1=           0
         NFxFlg=           0 DoJE=F BraDBF=F KetDBF=F FulRan=T
         wScrn=  0.000000 ICntrl=         0 IOpCl=  0 I1Cent=           0 NGrid=           0
         NMat0=    1 NMatS0=      1 NMatT0=    0 NMatD0=    1 NMtDS0=    0 NMtDT0=    0
 Symmetry not used in FoFCou.
 E= -461.036190462516    
 DIIS: error= 3.94D-02 at cycle   1 NSaved=   1.
 NSaved= 1 IEnMin= 1 EnMin= -461.036190462516     IErMin= 1 ErrMin= 3.94D-02
 ErrMax= 3.94D-02  0.00D+00 EMaxC= 1.00D-01 BMatC= 2.82D-01 BMatP= 2.82D-01
 IDIUse=3 WtCom= 6.06D-01 WtEn= 3.94D-01
 Coeff-Com:  0.100D+01
 Coeff-En:   0.100D+01
 Coeff:      0.100D+01
 Gap=     0.222 Goal=   None    Shift=    0.000
 GapD=    0.222 DampG=1.000 DampE=0.500 DampFc=0.5000 IDamp=-1.
 Damping current iteration by 5.00D-01
 RMSDP=7.21D-03 MaxDP=1.40D-01              OVMax= 1.87D-01

 Cycle   2  Pass 0  IDiag  1:
 RMSU=  3.57D-03    CP:  9.80D-01
 E= -461.162137537845     Delta-E=       -0.125947075329 Rises=F Damp=T
 DIIS: error= 6.79D-03 at cycle   2 NSaved=   2.
 NSaved= 2 IEnMin= 2 EnMin= -461.162137537845     IErMin= 2 ErrMin= 6.79D-03
 ErrMax= 6.79D-03  0.00D+00 EMaxC= 1.00D-01 BMatC= 1.51D-02 BMatP= 2.82D-01
 IDIUse=3 WtCom= 9.32D-01 WtEn= 6.79D-02
 Coeff-Com:  0.586D-01 0.941D+00
 Coeff-En:   0.104D+00 0.896D+00
 Coeff:      0.616D-01 0.938D+00
 Gap=     0.259 Goal=   None    Shift=    0.000
 RMSDP=2.13D-03 MaxDP=4.51D-02 DE=-1.26D-01 OVMax= 1.62D-01

 Cycle   3  Pass 0  IDiag  1:
 RMSU=  1.94D-03    CP:  9.69D-01  7.67D-01
 E= -461.302509802788     Delta-E=       -0.140372264944 Rises=F Damp=F
 DIIS: error= 7.20D-03 at cycle   3 NSaved=   3.
 NSaved= 3 IEnMin= 3 EnMin= -461.302509802788     IErMin= 2 ErrMin= 6.79D-03
 ErrMax= 7.20D-03  0.00D+00 EMaxC= 1.00D-01 BMatC= 1.41D-02 BMatP= 1.51D-02
 IDIUse=3 WtCom= 9.28D-01 WtEn= 7.20D-02
 Coeff-Com: -0.481D-02 0.490D+00 0.514D+00
 Coeff-En:   0.000D+00 0.000D+00 0.100D+01
 Coeff:     -0.446D-02 0.455D+00 0.549D+00
 Gap=     0.212 Goal=   None    Shift=    0.000
 RMSDP=1.17D-03 MaxDP=3.55D-02 DE=-1.40D-01 OVMax= 8.25D-02

 Cycle   4  Pass 0  IDiag  1:
 RMSU=  8.38D-04    CP:  9.71D-01  8.54D-01  6.11D-01
 E= -461.313688093810     Delta-E=       -0.011178291022 Rises=F Damp=F
 DIIS: error= 3.47D-03 at cycle   4 NSaved=   4.
 NSaved= 4 IEnMin= 4 EnMin= -461.313688093810     IErMin= 4 ErrMin= 3.47D-03
 ErrMax= 3.47D-03  0.00D+00 EMaxC= 1.00D-01 BMatC= 3.72D-03 BMatP= 1.41D-02
 IDIUse=3 WtCom= 9.65D-01 WtEn= 3.47D-02
 Coeff-Com: -0.927D-02 0.724D-01 0.347D+00 0.590D+00
 Coeff-En:   0.000D+00 0.000D+00 0.252D+00 0.748D+00
 Coeff:     -0.895D-02 0.699D-01 0.344D+00 0.595D+00
 Gap=     0.210 Goal=   None    Shift=    0.000
 RMSDP=4.50D-04 MaxDP=1.12D-02 DE=-1.12D-02 OVMax= 3.10D-02

 Cycle   5  Pass 0  IDiag  1:
 RMSU=  1.31D-04    CP:  9.70D-01  8.28D-01  7.40D-01  5.96D-01
 E= -461.317658793574     Delta-E=       -0.003970699764 Rises=F Damp=F
 DIIS: error= 8.35D-04 at cycle   5 NSaved=   5.
 NSaved= 5 IEnMin= 5 EnMin= -461.317658793574     IErMin= 5 ErrMin= 8.35D-04
 ErrMax= 8.35D-04  0.00D+00 EMaxC= 1.00D-01 BMatC= 1.42D-04 BMatP= 3.72D-03
 IDIUse=3 WtCom= 9.92D-01 WtEn= 8.35D-03
 Coeff-Com: -0.366D-02 0.181D-01 0.166D+00 0.323D+00 0.496D+00
 Coeff-En:   0.000D+00 0.000D+00 0.000D+00 0.000D+00 0.100D+01
 Coeff:     -0.363D-02 0.180D-01 0.164D+00 0.321D+00 0.501D+00
 Gap=     0.210 Goal=   None    Shift=    0.000
 RMSDP=9.25D-05 MaxDP=2.14D-03 DE=-3.97D-03 OVMax= 4.55D-03

 Cycle   6  Pass 0  IDiag  1:
 RMSU=  6.69D-05    CP:  9.70D-01  8.34D-01  7.29D-01  6.20D-01  5.96D-01
 E= -461.317775694346     Delta-E=       -0.000116900772 Rises=F Damp=F
 DIIS: error= 2.93D-04 at cycle   6 NSaved=   6.
 NSaved= 6 IEnMin= 6 EnMin= -461.317775694346     IErMin= 6 ErrMin= 2.93D-04
 ErrMax= 2.93D-04  0.00D+00 EMaxC= 1.00D-01 BMatC= 1.33D-05 BMatP= 1.42D-04
 IDIUse=3 WtCom= 9.97D-01 WtEn= 2.93D-03
 Coeff-Com: -0.463D-03-0.905D-03 0.348D-01 0.774D-01 0.269D+00 0.620D+00
 Coeff-En:   0.000D+00 0.000D+00 0.000D+00 0.000D+00 0.617D-01 0.938D+00
 Coeff:     -0.462D-03-0.903D-03 0.347D-01 0.772D-01 0.269D+00 0.621D+00
 Gap=     0.210 Goal=   None    Shift=    0.000
 RMSDP=2.84D-05 MaxDP=6.11D-04 DE=-1.17D-04 OVMax= 1.11D-03

 Cycle   7  Pass 0  IDiag  1:
 RMSU=  1.02D-05    CP:  9.70D-01  8.32D-01  7.34D-01  6.23D-01  6.64D-01
                    CP:  6.71D-01
 E= -461.317787349092     Delta-E=       -0.000011654746 Rises=F Damp=F
 DIIS: error= 4.19D-05 at cycle   7 NSaved=   7.
 NSaved= 7 IEnMin= 7 EnMin= -461.317787349092     IErMin= 7 ErrMin= 4.19D-05
 ErrMax= 4.19D-05  0.00D+00 EMaxC= 1.00D-01 BMatC= 5.47D-07 BMatP= 1.33D-05
 IDIUse=1 WtCom= 1.00D+00 WtEn= 0.00D+00
 Coeff-Com: -0.123D-03-0.859D-03 0.146D-01 0.330D-01 0.131D+00 0.325D+00
 Coeff-Com:  0.497D+00
 Coeff:     -0.123D-03-0.859D-03 0.146D-01 0.330D-01 0.131D+00 0.325D+00
 Coeff:      0.497D+00
 Gap=     0.210 Goal=   None    Shift=    0.000
 RMSDP=6.53D-06 MaxDP=1.88D-04 DE=-1.17D-05 OVMax= 3.82D-04

 Initial convergence to 1.0D-05 achieved.  Increase integral accuracy.
 Cycle   8  Pass 1  IDiag  1:
 E= -461.317780554556     Delta-E=        0.000006794536 Rises=F Damp=F
 DIIS: error= 1.40D-05 at cycle   1 NSaved=   1.
 NSaved= 1 IEnMin= 1 EnMin= -461.317780554556     IErMin= 1 ErrMin= 1.40D-05
 ErrMax= 1.40D-05  0.00D+00 EMaxC= 1.00D-01 BMatC= 9.12D-08 BMatP= 9.12D-08
 IDIUse=1 WtCom= 1.00D+00 WtEn= 0.00D+00
 Coeff-Com:  0.100D+01
 Coeff:      0.100D+01
 Gap=     0.210 Goal=   None    Shift=    0.000
 RMSDP=6.53D-06 MaxDP=1.88D-04 DE= 6.79D-06 OVMax= 3.57D-04

 Cycle   9  Pass 1  IDiag  1:
 RMSU=  7.60D-06    CP:  1.00D+00
 E= -461.317780371566     Delta-E=        0.000000182990 Rises=F Damp=F
 DIIS: error= 2.81D-05 at cycle   2 NSaved=   2.
 NSaved= 2 IEnMin= 1 EnMin= -461.317780554556     IErMin= 1 ErrMin= 1.40D-05
 ErrMax= 2.81D-05  0.00D+00 EMaxC= 1.00D-01 BMatC= 2.46D-07 BMatP= 9.12D-08
 IDIUse=1 WtCom= 1.00D+00 WtEn= 0.00D+00
 Coeff-Com:  0.631D+00 0.369D+00
 Coeff:      0.631D+00 0.369D+00
 Gap=     0.210 Goal=   None    Shift=    0.000
 RMSDP=3.69D-06 MaxDP=9.46D-05 DE= 1.83D-07 OVMax= 2.55D-04

 Cycle  10  Pass 1  IDiag  1:
 RMSU=  2.55D-06    CP:  1.00D+00  6.50D-01
 E= -461.317780642510     Delta-E=       -0.000000270943 Rises=F Damp=F
 DIIS: error= 3.89D-06 at cycle   3 NSaved=   3.
 NSaved= 3 IEnMin= 3 EnMin= -461.317780642510     IErMin= 3 ErrMin= 3.89D-06
 ErrMax= 3.89D-06  0.00D+00 EMaxC= 1.00D-01 BMatC= 3.40D-09 BMatP= 9.12D-08
 IDIUse=1 WtCom= 1.00D+00 WtEn= 0.00D+00
 Coeff-Com:  0.716D-01 0.118D+00 0.810D+00
 Coeff:      0.716D-01 0.118D+00 0.810D+00
 Gap=     0.210 Goal=   None    Shift=    0.000
 RMSDP=5.75D-07 MaxDP=1.64D-05 DE=-2.71D-07 OVMax= 3.41D-05

 Cycle  11  Pass 1  IDiag  1:
 RMSU=  4.13D-07    CP:  1.00D+00  6.92D-01  9.05D-01
 E= -461.317780644995     Delta-E=       -0.000000002485 Rises=F Damp=F
 DIIS: error= 2.19D-06 at cycle   4 NSaved=   4.
 NSaved= 4 IEnMin= 4 EnMin= -461.317780644995     IErMin= 4 ErrMin= 2.19D-06
 ErrMax= 2.19D-06  0.00D+00 EMaxC= 1.00D-01 BMatC= 1.39D-09 BMatP= 3.40D-09
 IDIUse=1 WtCom= 1.00D+00 WtEn= 0.00D+00
 Coeff-Com: -0.222D-02 0.464D-01 0.504D+00 0.452D+00
 Coeff:     -0.222D-02 0.464D-01 0.504D+00 0.452D+00
 Gap=     0.210 Goal=   None    Shift=    0.000
 RMSDP=2.23D-07 MaxDP=6.29D-06 DE=-2.48D-09 OVMax= 1.24D-05

 Cycle  12  Pass 1  IDiag  1:
 RMSU=  7.16D-08    CP:  1.00D+00  6.91D-01  9.24D-01  5.02D-01
 E= -461.317780646319     Delta-E=       -0.000000001325 Rises=F Damp=F
 DIIS: error= 2.11D-07 at cycle   5 NSaved=   5.
 NSaved= 5 IEnMin= 5 EnMin= -461.317780646319     IErMin= 5 ErrMin= 2.11D-07
 ErrMax= 2.11D-07  0.00D+00 EMaxC= 1.00D-01 BMatC= 1.00D-11 BMatP= 1.39D-09
 IDIUse=1 WtCom= 1.00D+00 WtEn= 0.00D+00
 Coeff-Com: -0.287D-02 0.150D-01 0.176D+00 0.172D+00 0.640D+00
 Coeff:     -0.287D-02 0.150D-01 0.176D+00 0.172D+00 0.640D+00
 Gap=     0.210 Goal=   None    Shift=    0.000
 RMSDP=3.30D-08 MaxDP=8.83D-07 DE=-1.32D-09 OVMax= 2.23D-06

 SCF Done:  E(RB3LYP) =  -461.317780646     A.U. after   12 cycles
            NFock= 12  Conv=0.33D-07     -V/T= 2.0092
 KE= 4.571295151776D+02 PE=-2.111512264146D+03 EE= 6.746144156114D+02
 Leave Link  502 at Wed Dec 03 17:04:37 2025, MaxMem=   104857600 cpu:              15.0 elap:              14.5
 (Enter D:\Gaussian\G16W\l601.exe)
 Copying SCF densities to generalized density rwf, IOpCl= 0 IROHF=0.

 **********************************************************************

            Population analysis using the SCF density.

 **********************************************************************

 Orbital symmetries:
       Occupied  (A) (A) (A) (A) (A) (A) (A) (A) (A) (A) (A) (A)
                 (A) (A) (A) (A) (A) (A) (A) (A) (A) (A) (A) (A)
                 (A) (A) (A) (A) (A) (A) (A) (A) (A) (A) (A) (A)
                 (A)
       Virtual   (A) (A) (A) (A) (A) (A) (A) (A) (A) (A) (A) (A)
                 (A) (A) (A) (A) (A) (A) (A) (A) (A) (A) (A) (A)
                 (A) (A) (A) (A) (A) (A) (A) (A) (A) (A) (A) (A)
                 (A) (A) (A) (A) (A) (A) (A) (A) (A) (A) (A) (A)
                 (A) (A) (A) (A) (A) (A) (A) (A) (A) (A) (A) (A)
                 (A) (A) (A) (A) (A) (A) (A) (A) (A) (A) (A) (A)
                 (A) (A) (A) (A) (A) (A) (A) (A) (A) (A) (A) (A)
                 (A) (A) (A) (A) (A) (A) (A) (A) (A) (A) (A) (A)
                 (A) (A) (A) (A) (A) (A) (A) (A) (A) (A) (A) (A)
                 (A) (A) (A) (A) (A) (A) (A) (A) (A) (A) (A) (A)
                 (A) (A) (A) (A) (A) (A) (A) (A) (A) (A) (A) (A)
                 (A)
 The electronic state is 1-A.
 Alpha  occ. eigenvalues --  -19.18595 -19.16547 -10.24179 -10.23215 -10.18619
 Alpha  occ. eigenvalues --  -10.18465 -10.18165 -10.17843 -10.17228 -10.17150
 Alpha  occ. eigenvalues --   -1.07129  -1.04014  -0.84692  -0.77180  -0.74699
 Alpha  occ. eigenvalues --   -0.68121  -0.67724  -0.62564  -0.57171  -0.53838
 Alpha  occ. eigenvalues --   -0.52326  -0.48096  -0.44081  -0.43072  -0.41487
 Alpha  occ. eigenvalues --   -0.40927  -0.40307  -0.39626  -0.39365  -0.37971
 Alpha  occ. eigenvalues --   -0.36023  -0.35369  -0.34484  -0.33074  -0.30635
 Alpha  occ. eigenvalues --   -0.22438  -0.19817
 Alpha virt. eigenvalues --    0.01216   0.02851   0.05558   0.09908   0.11936
 Alpha virt. eigenvalues --    0.13200   0.14453   0.14620   0.15053   0.17045
 Alpha virt. eigenvalues --    0.19551   0.19668   0.22077   0.23297   0.25165
 Alpha virt. eigenvalues --    0.26569   0.28638   0.34600   0.36045   0.37823
 Alpha virt. eigenvalues --    0.40408   0.47191   0.49879   0.51589   0.54260
 Alpha virt. eigenvalues --    0.55788   0.56258   0.56914   0.57197   0.57989
 Alpha virt. eigenvalues --    0.63030   0.63290   0.64337   0.64650   0.67557
 Alpha virt. eigenvalues --    0.69263   0.69451   0.71480   0.72987   0.75607
 Alpha virt. eigenvalues --    0.77602   0.78172   0.79133   0.81449   0.85010
 Alpha virt. eigenvalues --    0.85265   0.87238   0.87483   0.89215   0.91649
 Alpha virt. eigenvalues --    0.92884   0.93917   0.95521   0.95863   0.97336
 Alpha virt. eigenvalues --    1.01164   1.02721   1.03338   1.06891   1.08650
 Alpha virt. eigenvalues --    1.11462   1.13714   1.19103   1.20977   1.24540
 Alpha virt. eigenvalues --    1.27067   1.33505   1.33907   1.37012   1.39674
 Alpha virt. eigenvalues --    1.40053   1.41833   1.42641   1.43152   1.49353
 Alpha virt. eigenvalues --    1.52444   1.70753   1.71855   1.74418   1.74779
 Alpha virt. eigenvalues --    1.77233   1.78906   1.84652   1.85363   1.86705
 Alpha virt. eigenvalues --    1.87361   1.88750   1.89790   1.92829   1.94048
 Alpha virt. eigenvalues --    1.96131   1.98817   2.01143   2.08647   2.11839
 Alpha virt. eigenvalues --    2.15588   2.17555   2.23540   2.27371   2.29883
 Alpha virt. eigenvalues --    2.30693   2.32990   2.33952   2.34536   2.36619
 Alpha virt. eigenvalues --    2.38845   2.41163   2.41363   2.47533   2.49611
 Alpha virt. eigenvalues --    2.56406   2.60808   2.67481   2.67977   2.74359
 Alpha virt. eigenvalues --    2.77493   2.82807   2.87626   2.92029   2.92837
 Alpha virt. eigenvalues --    3.06748   3.21940   3.45017   3.87997   4.09119
 Alpha virt. eigenvalues --    4.11026   4.17882   4.19773   4.26747   4.31434
 Alpha virt. eigenvalues --    4.45675   4.56651   4.93919
          Condensed to atoms (all electrons):
               1          2          3          4          5          6
     1  C    5.066907   0.526821  -0.019802  -0.066323  -0.039410   0.539849
     2  C    0.526821   4.754040   0.536665  -0.048639  -0.043658  -0.015822
     3  C   -0.019802   0.536665   4.726102   0.402467  -0.043536  -0.040799
     4  C   -0.066323  -0.048639   0.402467   4.828808   0.453739   0.014256
     5  C   -0.039410  -0.043658  -0.043536   0.453739   5.210722   0.495388
     6  C    0.539849  -0.015822  -0.040799   0.014256   0.495388   4.631992
     7  H    0.005889   0.000647   0.003895  -0.047918   0.340170  -0.035495
     8  O    0.000596   0.002613  -0.046779   0.248238  -0.061742   0.003333
     9  O    0.003905  -0.070336   0.314305  -0.074804   0.005152  -0.000118
    10  H   -0.000026  -0.000096   0.006125  -0.026324  -0.004487   0.000347
    11  C   -0.057324   0.329846  -0.058481   0.011025   0.000238   0.007106
    12  H   -0.004099  -0.028190   0.004716  -0.000152   0.000009   0.000062
    13  H    0.000735  -0.025466  -0.005592  -0.000063   0.000006  -0.000128
    14  H    0.000732  -0.025458  -0.005581  -0.000062   0.000006  -0.000130
    15  H   -0.000030   0.006814  -0.032417  -0.015541   0.001096  -0.000119
    16  H    0.348547  -0.047076   0.006641   0.000079   0.007421  -0.045217
    17  C   -0.044229   0.007082   0.000721   0.004971  -0.064273   0.343433
    18  H    0.000068  -0.000160   0.000023  -0.000009  -0.002654  -0.027531
    19  H    0.000156  -0.000160   0.000023  -0.000003  -0.002663  -0.027570
    20  H   -0.002784   0.000120  -0.000003  -0.000110   0.003487  -0.029316
               7          8          9         10         11         12
     1  C    0.005889   0.000596   0.003905  -0.000026  -0.057324  -0.004099
     2  C    0.000647   0.002613  -0.070336  -0.000096   0.329846  -0.028190
     3  C    0.003895  -0.046779   0.314305   0.006125  -0.058481   0.004716
     4  C   -0.047918   0.248238  -0.074804  -0.026324   0.011025  -0.000152
     5  C    0.340170  -0.061742   0.005152  -0.004487   0.000238   0.000009
     6  C   -0.035495   0.003333  -0.000118   0.000347   0.007106   0.000062
     7  H    0.628090  -0.004822  -0.000052   0.006955   0.000011   0.000000
     8  O   -0.004822   8.281656  -0.008520   0.245923  -0.000063   0.000000
     9  O   -0.000052  -0.008520   8.236141   0.000178  -0.002509   0.000261
    10  H    0.006955   0.245923   0.000178   0.356768   0.000005   0.000000
    11  C    0.000011  -0.000063  -0.002509   0.000005   5.206539   0.359582
    12  H    0.000000   0.000000   0.000261   0.000000   0.359582   0.571138
    13  H    0.000000   0.000001   0.003159   0.000000   0.365817  -0.028517
    14  H    0.000000   0.000001   0.003162   0.000000   0.365797  -0.028513
    15  H   -0.000015   0.023155   0.246962  -0.000994  -0.000408  -0.000001
    16  H   -0.000200   0.000002  -0.000053  -0.000001  -0.011243   0.007159
    17  C   -0.008831  -0.000055   0.000000  -0.000012  -0.000214  -0.000005
    18  H    0.002063   0.000000   0.000000   0.000001   0.000002   0.000000
    19  H    0.002137   0.000000   0.000000   0.000001   0.000002   0.000000
    20  H    0.000007   0.000000   0.000000   0.000000  -0.000006  -0.000001
              13         14         15         16         17         18
     1  C    0.000735   0.000732  -0.000030   0.348547  -0.044229   0.000068
     2  C   -0.025466  -0.025458   0.006814  -0.047076   0.007082  -0.000160
     3  C   -0.005592  -0.005581  -0.032417   0.006641   0.000721   0.000023
     4  C   -0.000063  -0.000062  -0.015541   0.000079   0.004971  -0.000009
     5  C    0.000006   0.000006   0.001096   0.007421  -0.064273  -0.002654
     6  C   -0.000128  -0.000130  -0.000119  -0.045217   0.343433  -0.027531
     7  H    0.000000   0.000000  -0.000015  -0.000200  -0.008831   0.002063
     8  O    0.000001   0.000001   0.023155   0.000002  -0.000055   0.000000
     9  O    0.003159   0.003162   0.246962  -0.000053   0.000000   0.000000
    10  H    0.000000   0.000000  -0.000994  -0.000001  -0.000012   0.000001
    11  C    0.365817   0.365797  -0.000408  -0.011243  -0.000214   0.000002
    12  H   -0.028517  -0.028513  -0.000001   0.007159  -0.000005   0.000000
    13  H    0.556220  -0.033390  -0.000045   0.000108   0.000002   0.000000
    14  H   -0.033390   0.556215  -0.000045   0.000109   0.000003   0.000000
    15  H   -0.000045  -0.000045   0.345633   0.000006   0.000000   0.000000
    16  H    0.000108   0.000109   0.000006   0.627156  -0.010855   0.000125
    17  C    0.000002   0.000003   0.000000  -0.010855   5.214184   0.362303
    18  H    0.000000   0.000000   0.000000   0.000125   0.362303   0.572330
    19  H    0.000000   0.000000   0.000000   0.000119   0.362342  -0.035577
    20  H    0.000000   0.000000   0.000000   0.007221   0.365785  -0.027969
              19         20
     1  C    0.000156  -0.002784
     2  C   -0.000160   0.000120
     3  C    0.000023  -0.000003
     4  C   -0.000003  -0.000110
     5  C   -0.002663   0.003487
     6  C   -0.027570  -0.029316
     7  H    0.002137   0.000007
     8  O    0.000000   0.000000
     9  O    0.000000   0.000000
    10  H    0.000001   0.000000
    11  C    0.000002  -0.000006
    12  H    0.000000  -0.000001
    13  H    0.000000   0.000000
    14  H    0.000000   0.000000
    15  H    0.000000   0.000000
    16  H    0.000119   0.007221
    17  C    0.362342   0.365785
    18  H   -0.035577  -0.027969
    19  H    0.572336  -0.027905
    20  H   -0.027905   0.556023
 Mulliken charges:
               1
     1  C   -0.260177
     2  C    0.140415
     3  C    0.251307
     4  C    0.316364
     5  C   -0.255010
     6  C    0.186478
     7  H    0.107470
     8  O   -0.683536
     9  O   -0.656832
    10  H    0.415638
    11  C   -0.515724
    12  H    0.146552
    13  H    0.167151
    14  H    0.167155
    15  H    0.425950
    16  H    0.109952
    17  C   -0.532352
    18  H    0.156986
    19  H    0.156764
    20  H    0.155449
 Sum of Mulliken charges =   0.00000
 Mulliken charges with hydrogens summed into heavy atoms:
               1
     1  C   -0.150225
     2  C    0.140415
     3  C    0.251307
     4  C    0.316364
     5  C   -0.147540
     6  C    0.186478
     8  O   -0.267898
     9  O   -0.230882
    11  C   -0.034866
    17  C   -0.063154
 Electronic spatial extent (au):  <R**2>=           1528.8976
 Charge=              0.0000 electrons
 Dipole moment (field-independent basis, Debye):
    X=              1.2817    Y=             -1.9057    Z=              0.0005  Tot=              2.2966
 Quadrupole moment (field-independent basis, Debye-Ang):
   XX=            -58.0274   YY=            -48.2875   ZZ=            -61.2380
   XY=              0.3910   XZ=              0.0023   YZ=              0.0004
 Traceless Quadrupole moment (field-independent basis, Debye-Ang):
   XX=             -2.1765   YY=              7.5635   ZZ=             -5.3870
   XY=              0.3910   XZ=              0.0023   YZ=              0.0004
 Octapole moment (field-independent basis, Debye-Ang**2):
  XXX=             -9.5942  YYY=            -37.8821  ZZZ=              0.0163  XYY=             -2.2345
  XXY=             -9.9784  XXZ=              0.0037  XZZ=             -6.4291  YZZ=             -3.9307
  YYZ=             -0.0153  XYZ=              0.0000
 Hexadecapole moment (field-independent basis, Debye-Ang**3):
 XXXX=          -1099.7235 YYYY=           -661.3358 ZZZZ=            -72.3096 XXXY=             40.7978
 XXXZ=             -0.0191 YYYX=              9.4912 YYYZ=              0.0247 ZZZX=              0.0270
 ZZZY=              0.0269 XXYY=           -305.8799 XXZZ=           -197.0483 YYZZ=           -148.1389
 XXYZ=              0.0100 YYXZ=             -0.0536 ZZXY=              0.4887
 N-N= 5.184505527102D+02 E-N=-2.111512239545D+03  KE= 4.571295151776D+02
 No NMR shielding tensors so no spin-rotation constants.
 Leave Link  601 at Wed Dec 03 17:04:37 2025, MaxMem=   104857600 cpu:               0.0 elap:               0.2
 (Enter D:\Gaussian\G16W\l9999.exe)
 1|1|UNPC-PC-20250526LCFF|SP|RB3LYP|6-31G(d)|C8H10O2|ADMINISTRATOR|03-D
 ec-2025|0||#P B3LYP/6-31G* SCF=conver=7 out=wfn||Generated by Multiwfn
  (http://sobereva.com/multiwfn)||0,1|C,0,0.918831,1.23084,-0.000284|C,
 0,-0.48058,1.183555,-0.00011|C,0,-1.100036,-0.065309,0.000092|C,0,-0.3
 2451,-1.231209,0.000046|C,0,1.060899,-1.163162,-0.000137|C,0,1.705846,
 0.07999,-0.000239|H,0,1.642304,-2.081958,-0.000238|O,0,-1.045289,-2.40
 6916,0.000079|O,0,-2.46562,-0.143107,0.000156|H,0,-0.444246,-3.157546,
 -0.000103|C,0,-1.326132,2.430042,-0.000265|H,0,-0.701359,3.324839,-0.0
 00623|H,0,-1.979225,2.463956,0.87685|H,0,-1.979587,2.463493,-0.877127|
 H,0,-2.70349,-1.078942,0.000165|H,0,1.402482,2.202703,-0.000509|C,0,3.
 214469,0.157385,0.000476|H,0,3.64062,-0.324831,0.886446|H,0,3.642263,-
 0.339086,-0.876715|H,0,3.554795,1.194765,-0.007498||Version=EM64W-G16R
 evA.03|State=1-A|HF=-461.3177806|RMSD=3.302e-008|Dipole=0.5042744,-0.7
 497483,0.0001904|Quadrupole=-1.6181445,5.6232735,-4.005129,0.290692,0.
 0016852,0.0003052|PG=C01 [X(C8H10O2)]||@

 Writing a WFN file to "N.wfn"


 IT IS A CAPITAL MISTAKE TO THEORIZE BEFORE ONE HAS
 DATA.  INSENSIBLY ONE BEGINS TO TWIST FACTS TO SUIT
 THEORIES RATHER THAN THEORIES TO SUIT FACTS.

                                         -- SHERLOCK HOLMES
 Job cpu time:       0 days  0 hours  0 minutes 17.0 seconds.
 Elapsed time:       0 days  0 hours  0 minutes 16.7 seconds.
 File lengths (MBytes):  RWF=     19 Int=      0 D2E=      0 Chk=      3 Scr=      1
 Normal termination of Gaussian 16 at Wed Dec 03 17:04:37 2025.
