 Generated by Multiwfn (http://sobereva.com/multiwfn)
GAUSSIAN             37 MOL ORBITALS    320 PRIMITIVES       20 NUCLEI
  C    1    (CENTRE  1)   1.73633895  2.32595034 -0.00053673  CHARGE =  6.0
  C    2    (CENTRE  2)  -0.90816459  2.23659485 -0.00020792  CHARGE =  6.0
  C    3    (CENTRE  3)  -2.07876696 -0.12341599  0.00017380  CHARGE =  6.0
  C    4    (CENTRE  4)  -0.61323538 -2.32664779  0.00008688  CHARGE =  6.0
  C    5    (CENTRE  5)   2.00480821 -2.19805780 -0.00025894  CHARGE =  6.0
  C    6    (CENTRE  6)   3.22358158  0.15115892 -0.00045170  CHARGE =  6.0
  H    7    (CENTRE  7)   3.10350429 -3.93433069 -0.00044981  CHARGE =  1.0
  O    8    (CENTRE  8)  -1.97531046 -4.54841192  0.00014924  CHARGE =  8.0
  O    9    (CENTRE  9)  -4.65934673 -0.27043270  0.00029475  CHARGE =  8.0
  H   10    (CENTRE 10)  -0.83950391 -5.96689713 -0.00019469  CHARGE =  1.0
  C   11    (CENTRE 11)  -2.50602611  4.59211402 -0.00050083  CHARGE =  6.0
  H   12    (CENTRE 12)  -1.32537612  6.28303519 -0.00117735  CHARGE =  1.0
  H   13    (CENTRE 13)  -3.74019301  4.65620229  1.65700630  CHARGE =  1.0
  H   14    (CENTRE 14)  -3.74087709  4.65532734 -1.65752986  CHARGE =  1.0
  H   15    (CENTRE 15)  -5.10885602 -2.03890452  0.00031175  CHARGE =  1.0
  H   16    (CENTRE 16)   2.65030702  4.16250517 -0.00096192  CHARGE =  1.0
  C   17    (CENTRE 17)   6.07446589  0.29741405  0.00089946  CHARGE =  6.0
  H   18    (CENTRE 18)   6.87977450 -0.61384218  1.67514011  CHARGE =  1.0
  H   19    (CENTRE 19)   6.88287932 -0.64078023 -1.65675129  CHARGE =  1.0
  H   20    (CENTRE 20)   6.71758897  2.25777809 -0.01416922  CHARGE =  1.0
CENTRE ASSIGNMENTS    1  1  1  1  1  1  1  1  1  1  1  1  1  1  1  1  1  1  1  1
CENTRE ASSIGNMENTS    1  1  1  1  1  1  1  1  2  2  2  2  2  2  2  2  2  2  2  2
CENTRE ASSIGNMENTS    2  2  2  2  2  2  2  2  2  2  2  2  2  2  2  2  3  3  3  3
CENTRE ASSIGNMENTS    3  3  3  3  3  3  3  3  3  3  3  3  3  3  3  3  3  3  3  3
CENTRE ASSIGNMENTS    3  3  3  3  4  4  4  4  4  4  4  4  4  4  4  4  4  4  4  4
CENTRE ASSIGNMENTS    4  4  4  4  4  4  4  4  4  4  4  4  5  5  5  5  5  5  5  5
CENTRE ASSIGNMENTS    5  5  5  5  5  5  5  5  5  5  5  5  5  5  5  5  5  5  5  5
CENTRE ASSIGNMENTS    6  6  6  6  6  6  6  6  6  6  6  6  6  6  6  6  6  6  6  6
CENTRE ASSIGNMENTS    6  6  6  6  6  6  6  6  7  7  7  7  8  8  8  8  8  8  8  8
CENTRE ASSIGNMENTS    8  8  8  8  8  8  8  8  8  8  8  8  8  8  8  8  8  8  8  8
CENTRE ASSIGNMENTS    9  9  9  9  9  9  9  9  9  9  9  9  9  9  9  9  9  9  9  9
CENTRE ASSIGNMENTS    9  9  9  9  9  9  9  9 10 10 10 10 11 11 11 11 11 11 11 11
CENTRE ASSIGNMENTS   11 11 11 11 11 11 11 11 11 11 11 11 11 11 11 11 11 11 11 11
CENTRE ASSIGNMENTS   12 12 12 12 13 13 13 13 14 14 14 14 15 15 15 15 16 16 16 16
CENTRE ASSIGNMENTS   17 17 17 17 17 17 17 17 17 17 17 17 17 17 17 17 17 17 17 17
CENTRE ASSIGNMENTS   17 17 17 17 17 17 17 17 18 18 18 18 19 19 19 19 20 20 20 20
TYPE ASSIGNMENTS      1  1  1  1  1  1  1  1  1  2  2  2  3  3  3  4  4  4  1  2
TYPE ASSIGNMENTS      3  4  5  6  7  8  9 10  1  1  1  1  1  1  1  1  1  2  2  2
TYPE ASSIGNMENTS      3  3  3  4  4  4  1  2  3  4  5  6  7  8  9 10  1  1  1  1
TYPE ASSIGNMENTS      1  1  1  1  1  2  2  2  3  3  3  4  4  4  1  2  3  4  5  6
TYPE ASSIGNMENTS      7  8  9 10  1  1  1  1  1  1  1  1  1  2  2  2  3  3  3  4
TYPE ASSIGNMENTS      4  4  1  2  3  4  5  6  7  8  9 10  1  1  1  1  1  1  1  1
TYPE ASSIGNMENTS      1  2  2  2  3  3  3  4  4  4  1  2  3  4  5  6  7  8  9 10
TYPE ASSIGNMENTS      1  1  1  1  1  1  1  1  1  2  2  2  3  3  3  4  4  4  1  2
TYPE ASSIGNMENTS      3  4  5  6  7  8  9 10  1  1  1  1  1  1  1  1  1  1  1  1
TYPE ASSIGNMENTS      1  2  2  2  3  3  3  4  4  4  1  2  3  4  5  6  7  8  9 10
TYPE ASSIGNMENTS      1  1  1  1  1  1  1  1  1  2  2  2  3  3  3  4  4  4  1  2
TYPE ASSIGNMENTS      3  4  5  6  7  8  9 10  1  1  1  1  1  1  1  1  1  1  1  1
TYPE ASSIGNMENTS      1  2  2  2  3  3  3  4  4  4  1  2  3  4  5  6  7  8  9 10
TYPE ASSIGNMENTS      1  1  1  1  1  1  1  1  1  1  1  1  1  1  1  1  1  1  1  1
TYPE ASSIGNMENTS      1  1  1  1  1  1  1  1  1  2  2  2  3  3  3  4  4  4  1  2
TYPE ASSIGNMENTS      3  4  5  6  7  8  9 10  1  1  1  1  1  1  1  1  1  1  1  1
EXPONENTS  0.3047525D+04 0.4573695D+03 0.1039487D+03 0.2921016D+02 0.9286663D+01
EXPONENTS  0.3163927D+01 0.7868272D+01 0.1881289D+01 0.5442493D+00 0.7868272D+01
EXPONENTS  0.1881289D+01 0.5442493D+00 0.7868272D+01 0.1881289D+01 0.5442493D+00
EXPONENTS  0.7868272D+01 0.1881289D+01 0.5442493D+00 0.1687145D+00 0.1687145D+00
EXPONENTS  0.1687145D+00 0.1687145D+00 0.8000000D+00 0.8000000D+00 0.8000000D+00
EXPONENTS  0.8000000D+00 0.8000000D+00 0.8000000D+00 0.3047525D+04 0.4573695D+03
EXPONENTS  0.1039487D+03 0.2921016D+02 0.9286663D+01 0.3163927D+01 0.7868272D+01
EXPONENTS  0.1881289D+01 0.5442493D+00 0.7868272D+01 0.1881289D+01 0.5442493D+00
EXPONENTS  0.7868272D+01 0.1881289D+01 0.5442493D+00 0.7868272D+01 0.1881289D+01
EXPONENTS  0.5442493D+00 0.1687145D+00 0.1687145D+00 0.1687145D+00 0.1687145D+00
EXPONENTS  0.8000000D+00 0.8000000D+00 0.8000000D+00 0.8000000D+00 0.8000000D+00
EXPONENTS  0.8000000D+00 0.3047525D+04 0.4573695D+03 0.1039487D+03 0.2921016D+02
EXPONENTS  0.9286663D+01 0.3163927D+01 0.7868272D+01 0.1881289D+01 0.5442493D+00
EXPONENTS  0.7868272D+01 0.1881289D+01 0.5442493D+00 0.7868272D+01 0.1881289D+01
EXPONENTS  0.5442493D+00 0.7868272D+01 0.1881289D+01 0.5442493D+00 0.1687145D+00
EXPONENTS  0.1687145D+00 0.1687145D+00 0.1687145D+00 0.8000000D+00 0.8000000D+00
EXPONENTS  0.8000000D+00 0.8000000D+00 0.8000000D+00 0.8000000D+00 0.3047525D+04
EXPONENTS  0.4573695D+03 0.1039487D+03 0.2921016D+02 0.9286663D+01 0.3163927D+01
EXPONENTS  0.7868272D+01 0.1881289D+01 0.5442493D+00 0.7868272D+01 0.1881289D+01
EXPONENTS  0.5442493D+00 0.7868272D+01 0.1881289D+01 0.5442493D+00 0.7868272D+01
EXPONENTS  0.1881289D+01 0.5442493D+00 0.1687145D+00 0.1687145D+00 0.1687145D+00
EXPONENTS  0.1687145D+00 0.8000000D+00 0.8000000D+00 0.8000000D+00 0.8000000D+00
EXPONENTS  0.8000000D+00 0.8000000D+00 0.3047525D+04 0.4573695D+03 0.1039487D+03
EXPONENTS  0.2921016D+02 0.9286663D+01 0.3163927D+01 0.7868272D+01 0.1881289D+01
EXPONENTS  0.5442493D+00 0.7868272D+01 0.1881289D+01 0.5442493D+00 0.7868272D+01
EXPONENTS  0.1881289D+01 0.5442493D+00 0.7868272D+01 0.1881289D+01 0.5442493D+00
EXPONENTS  0.1687145D+00 0.1687145D+00 0.1687145D+00 0.1687145D+00 0.8000000D+00
EXPONENTS  0.8000000D+00 0.8000000D+00 0.8000000D+00 0.8000000D+00 0.8000000D+00
EXPONENTS  0.3047525D+04 0.4573695D+03 0.1039487D+03 0.2921016D+02 0.9286663D+01
EXPONENTS  0.3163927D+01 0.7868272D+01 0.1881289D+01 0.5442493D+00 0.7868272D+01
EXPONENTS  0.1881289D+01 0.5442493D+00 0.7868272D+01 0.1881289D+01 0.5442493D+00
EXPONENTS  0.7868272D+01 0.1881289D+01 0.5442493D+00 0.1687145D+00 0.1687145D+00
EXPONENTS  0.1687145D+00 0.1687145D+00 0.8000000D+00 0.8000000D+00 0.8000000D+00
EXPONENTS  0.8000000D+00 0.8000000D+00 0.8000000D+00 0.1873114D+02 0.2825394D+01
EXPONENTS  0.6401217D+00 0.1612778D+00 0.5484672D+04 0.8252349D+03 0.1880470D+03
EXPONENTS  0.5296450D+02 0.1689757D+02 0.5799635D+01 0.1553962D+02 0.3599934D+01
EXPONENTS  0.1013762D+01 0.1553962D+02 0.3599934D+01 0.1013762D+01 0.1553962D+02
EXPONENTS  0.3599934D+01 0.1013762D+01 0.1553962D+02 0.3599934D+01 0.1013762D+01
EXPONENTS  0.2700058D+00 0.2700058D+00 0.2700058D+00 0.2700058D+00 0.8000000D+00
EXPONENTS  0.8000000D+00 0.8000000D+00 0.8000000D+00 0.8000000D+00 0.8000000D+00
EXPONENTS  0.5484672D+04 0.8252349D+03 0.1880470D+03 0.5296450D+02 0.1689757D+02
EXPONENTS  0.5799635D+01 0.1553962D+02 0.3599934D+01 0.1013762D+01 0.1553962D+02
EXPONENTS  0.3599934D+01 0.1013762D+01 0.1553962D+02 0.3599934D+01 0.1013762D+01
EXPONENTS  0.1553962D+02 0.3599934D+01 0.1013762D+01 0.2700058D+00 0.2700058D+00
EXPONENTS  0.2700058D+00 0.2700058D+00 0.8000000D+00 0.8000000D+00 0.8000000D+00
EXPONENTS  0.8000000D+00 0.8000000D+00 0.8000000D+00 0.1873114D+02 0.2825394D+01
EXPONENTS  0.6401217D+00 0.1612778D+00 0.3047525D+04 0.4573695D+03 0.1039487D+03
EXPONENTS  0.2921016D+02 0.9286663D+01 0.3163927D+01 0.7868272D+01 0.1881289D+01
EXPONENTS  0.5442493D+00 0.7868272D+01 0.1881289D+01 0.5442493D+00 0.7868272D+01
EXPONENTS  0.1881289D+01 0.5442493D+00 0.7868272D+01 0.1881289D+01 0.5442493D+00
EXPONENTS  0.1687145D+00 0.1687145D+00 0.1687145D+00 0.1687145D+00 0.8000000D+00
EXPONENTS  0.8000000D+00 0.8000000D+00 0.8000000D+00 0.8000000D+00 0.8000000D+00
EXPONENTS  0.1873114D+02 0.2825394D+01 0.6401217D+00 0.1612778D+00 0.1873114D+02
EXPONENTS  0.2825394D+01 0.6401217D+00 0.1612778D+00 0.1873114D+02 0.2825394D+01
EXPONENTS  0.6401217D+00 0.1612778D+00 0.1873114D+02 0.2825394D+01 0.6401217D+00
EXPONENTS  0.1612778D+00 0.1873114D+02 0.2825394D+01 0.6401217D+00 0.1612778D+00
EXPONENTS  0.3047525D+04 0.4573695D+03 0.1039487D+03 0.2921016D+02 0.9286663D+01
EXPONENTS  0.3163927D+01 0.7868272D+01 0.1881289D+01 0.5442493D+00 0.7868272D+01
EXPONENTS  0.1881289D+01 0.5442493D+00 0.7868272D+01 0.1881289D+01 0.5442493D+00
EXPONENTS  0.7868272D+01 0.1881289D+01 0.5442493D+00 0.1687145D+00 0.1687145D+00
EXPONENTS  0.1687145D+00 0.1687145D+00 0.8000000D+00 0.8000000D+00 0.8000000D+00
EXPONENTS  0.8000000D+00 0.8000000D+00 0.8000000D+00 0.1873114D+02 0.2825394D+01
EXPONENTS  0.6401217D+00 0.1612778D+00 0.1873114D+02 0.2825394D+01 0.6401217D+00
EXPONENTS  0.1612778D+00 0.1873114D+02 0.2825394D+01 0.6401217D+00 0.1612778D+00
MO    1     MO 0.0        OCC NO =    2.0000000  ORB. ENERGY =  -19.185949
  0.53515715D-05  0.98726044D-05  0.15937445D-04  0.20745817D-04  0.17702444D-04
  0.61122284D-05 -0.21004808D-04 -0.96810969D-05  0.27146806D-04 -0.19571052D-04
 -0.15005842D-04 -0.74889666D-05 -0.18147347D-04 -0.13914235D-04 -0.69441783D-05
  0.52175273D-07  0.40004690D-07  0.19965144D-07 -0.16222644D-03  0.10692109D-03
  0.47819004D-04 -0.42495205D-07 -0.14389117D-04  0.85875607D-05  0.24864767D-04
  0.25778911D-04  0.10592739D-07  0.14970447D-07  0.37698790D-05  0.69546907D-05
  0.11227027D-04  0.14614254D-04  0.12470369D-04  0.43057187D-05 -0.66652966D-05
 -0.30720291D-05  0.86142903D-05 -0.11371453D-04 -0.87189090D-05 -0.43513466D-05
 -0.78874902D-04 -0.60476272D-04 -0.30181898D-04  0.41362839D-08  0.31714401D-08
  0.15827709D-08  0.24627642D-03  0.11007281D-03 -0.37520034D-04  0.79650898D-08
  0.25743175D-04  0.19429045D-04  0.27617951D-04 -0.14682229D-04  0.12937851D-07
 -0.15227501D-07  0.12375233D-04  0.22829889D-04  0.36854520D-04  0.47973635D-04
  0.40935989D-04  0.14134213D-04 -0.62272674D-04 -0.28701418D-04  0.80481773D-04
 -0.77389213D-04 -0.59337140D-04 -0.29613391D-04 -0.23013096D-04 -0.17644982D-04
 -0.88060827D-05  0.11497346D-07  0.88154355D-08  0.43995202D-08 -0.10381379D-03
 -0.36666489D-03 -0.20775329D-04  0.24951107D-07  0.82223360D-04 -0.51079109D-04
  0.30539180D-04  0.15457750D-04  0.67099553D-08 -0.19917410D-07 -0.26894228D-04
 -0.49614599D-04 -0.80093346D-04 -0.10425774D-03 -0.88963317D-04 -0.30716896D-04
 -0.43399533D-04 -0.20002805D-04  0.56089954D-04 -0.34783657D-03 -0.26669902D-03
 -0.13310150D-03 -0.43283507D-03 -0.33187048D-03 -0.16562663D-03  0.41837669D-07
  0.32078471D-07  0.16009405D-07  0.25131604D-04  0.48141275D-03  0.56810213D-03
 -0.54667635D-07  0.38408562D-05 -0.26424872D-04 -0.91402302D-04  0.85983879D-04
 -0.46081693D-07 -0.18433582D-07  0.14940495D-04  0.27562296D-04  0.44494091D-04
  0.57918087D-04  0.49421608D-04  0.17064094D-04 -0.91798873D-04 -0.42310016D-04
  0.11864170D-03  0.91660616D-04  0.70279546D-04  0.35074419D-04  0.46067552D-04
  0.35321677D-04  0.17627992D-04 -0.45936972D-07 -0.35221556D-07 -0.17578025D-07
 -0.68644273D-03  0.10493282D-03 -0.31846049D-03 -0.10858958D-07 -0.71486225D-04
 -0.71918341D-04  0.61158578D-04 -0.42999785D-04  0.49997255D-07 -0.93054846D-08
 -0.54116854D-05 -0.99835029D-05 -0.16116469D-04 -0.20978854D-04 -0.17901294D-04
 -0.61808867D-05  0.31528791D-04  0.14531591D-04 -0.40748098D-04 -0.47364447D-04
 -0.36316054D-04 -0.18124256D-04 -0.51850461D-04 -0.39755644D-04 -0.19840853D-04
 -0.51630530D-09 -0.39587016D-09 -0.19756695D-09  0.37304217D-03 -0.11053248D-03
 -0.15034548D-03  0.42799902D-07  0.65291779D-05  0.54105185D-04 -0.10325797D-04
  0.63451266D-04  0.49702277D-07 -0.33698410D-07 -0.19766361D-04 -0.33527489D-04
 -0.38169861D-04 -0.69457801D-04  0.82561675D+00  0.15195755D+01  0.24589601D+01
  0.32323719D+01  0.27723866D+01  0.94792605D+00 -0.15787441D-01 -0.70443253D-02
  0.20801987D-01  0.31285249D-02  0.24103597D-02  0.10582778D-02 -0.31954179D-03
 -0.24618972D-03 -0.10809055D-03 -0.66517842D-06 -0.51248411D-06 -0.22500813D-06
  0.38872054D-02  0.86238937D-04  0.37744546D-03  0.20231998D-07 -0.93248981D-02
 -0.92329711D-02 -0.92630243D-02  0.91119692D-04  0.40544658D-07 -0.45679489D-08
  0.23005895D-04  0.42343129D-04  0.68519175D-04  0.90070373D-04  0.77252836D-04
  0.26414057D-04 -0.10172445D-03 -0.45389253D-04  0.13403507D-03  0.23256514D-03
  0.17917890D-03  0.78669188D-04  0.70062558D-04  0.53979424D-04  0.23699875D-04
 -0.85175335D-09 -0.65623004D-09 -0.28812033D-09 -0.30431108D-03 -0.20965608D-03
 -0.10036748D-03  0.49429387D-08 -0.23153671D-05  0.16484878D-03  0.11380656D-03
  0.22749596D-04  0.56299337D-08 -0.10413709D-07  0.99111771D-04  0.16811232D-03
  0.19138994D-03 -0.18269552D-03  0.27155494D-05  0.50096585D-05  0.80871421D-05
  0.10527056D-04  0.89827560D-05  0.31015298D-05 -0.12933157D-04 -0.59608801D-05
  0.16714930D-04  0.13458200D-05  0.10318894D-05  0.51498512D-06 -0.10277488D-04
 -0.78801257D-05 -0.39327350D-05  0.17275115D-08  0.13245462D-08  0.66104141D-09
  0.66012496D-05 -0.83483825D-05  0.11818448D-06 -0.28061091D-08 -0.94715231D-05
 -0.15401498D-06  0.12665523D-04  0.12929994D-04  0.44895151D-08  0.10111739D-07
  0.23759532D-06  0.40300663D-06  0.45880880D-06  0.40136308D-05  0.18999538D-05
  0.32226812D-05  0.36689087D-05 -0.57968477D-05  0.18977689D-05  0.32189753D-05
  0.36646896D-05 -0.57994075D-05 -0.22274929D-05 -0.37782495D-05 -0.43014035D-05
 -0.14550475D-03 -0.52307595D-05 -0.88723581D-05 -0.10100866D-04 -0.25997198D-04
  0.39970188D-05  0.73737193D-05  0.11903469D-04  0.15494780D-04  0.13221724D-04
  0.45651435D-05 -0.14290145D-04 -0.65863148D-05  0.18468714D-04 -0.23352327D-05
 -0.17905083D-05 -0.89358915D-06  0.16356686D-05  0.12541269D-05  0.62589722D-06
  0.58791644D-07  0.45077703D-07  0.22496933D-07 -0.82844807D-05  0.63242047D-05
  0.29493644D-04 -0.63478322D-07 -0.45304766D-05  0.22755350D-04  0.63392987D-05
 -0.49337577D-04  0.39707057D-07 -0.44049471D-06  0.30321836D-05  0.51431574D-05
  0.58553029D-05  0.60296834D-05  0.30736263D-05  0.52134519D-05  0.59353307D-05
  0.60771030D-05 -0.57727923D-06 -0.97917484D-06 -0.11147559D-05 -0.12111355D-04
MO    2     MO 0.0        OCC NO =    2.0000000  ORB. ENERGY =  -19.165467
 -0.36690961D-05 -0.67687659D-05 -0.10926887D-04 -0.14223560D-04 -0.12136990D-04
 -0.41906108D-05  0.28179683D-04  0.12987990D-04 -0.36419680D-04 -0.93156325D-04
 -0.71426361D-04 -0.35646760D-04 -0.17428073D-04 -0.13362741D-04 -0.66689441D-05
 -0.22611988D-08 -0.17337438D-08 -0.86525968D-09  0.55255005D-03 -0.17701546D-03
 -0.17758627D-03  0.55452783D-07  0.66808033D-04  0.10260874D-04  0.16962132D-05
 -0.93226962D-05 -0.30779680D-07  0.14123753D-08  0.38600558D-06  0.71210493D-06
  0.11495582D-05  0.14963831D-05  0.12768664D-05  0.44087130D-06 -0.44656033D-04
 -0.20581925D-04  0.57713866D-04  0.93568921D-04  0.71742714D-04  0.35804642D-04
 -0.50134767D-04 -0.38440159D-04 -0.19184334D-04  0.13275083D-07  0.10178492D-07
  0.50797808D-08 -0.34387781D-03 -0.47900630D-03  0.37815765D-03 -0.13228501D-07
 -0.95291349D-04 -0.74610990D-04 -0.35260180D-05 -0.33175109D-04  0.17148101D-07
  0.28158669D-07 -0.36360691D-04 -0.67078374D-04 -0.10828529D-03 -0.14095528D-03
 -0.12027740D-03 -0.41528894D-04 -0.25905394D-04 -0.11939773D-04  0.33480368D-04
 -0.54160769D-03 -0.41527042D-03 -0.20724904D-03  0.11647678D-04  0.89307004D-05
  0.44570454D-05  0.17741489D-07  0.13603049D-07  0.67888746D-08  0.21056471D-03
  0.95445691D-03 -0.14363598D-03 -0.58482878D-07 -0.56363997D-04 -0.71037631D-04
 -0.13254701D-03 -0.44968729D-04 -0.53440601D-07  0.75937661D-08  0.24031499D-04
  0.44333423D-04  0.71567891D-04  0.93160129D-04  0.79493707D-04  0.27447267D-04
 -0.11434872D-03 -0.52703221D-04  0.14778533D-03  0.46285429D-04  0.35488731D-04
  0.17711364D-04 -0.63900458D-04 -0.48994818D-04 -0.24451848D-04  0.95089753D-08
  0.72908792D-08  0.36386597D-08 -0.76561095D-03 -0.23225476D-03 -0.53098947D-03
  0.18706857D-07 -0.41359532D-04  0.22794734D-04  0.68703007D-04  0.10776599D-03
  0.29402736D-07 -0.55165198D-08 -0.73989918D-05 -0.13649695D-04 -0.22034840D-04
 -0.28682815D-04 -0.24475098D-04 -0.84506631D-05  0.38508651D-04  0.17748602D-04
 -0.49768932D-04 -0.98045400D-04 -0.75174994D-04 -0.37517590D-04 -0.86763578D-05
 -0.66524808D-05 -0.33200542D-05  0.22739544D-07  0.17435240D-07  0.87014066D-08
  0.58200735D-03 -0.12664514D-03  0.26736985D-03  0.18380394D-07  0.41385134D-04
  0.14507086D-04 -0.14560130D-04  0.55913775D-05 -0.35363324D-07 -0.17156100D-08
  0.10088376D-04  0.18611084D-04  0.30044061D-04  0.39108440D-04  0.33371303D-04
  0.11522309D-04 -0.46790794D-04 -0.21565834D-04  0.60472850D-04 -0.22641186D-04
 -0.17359825D-04 -0.86637694D-05  0.17237230D-05  0.13216415D-05  0.65959173D-06
  0.93517551D-08  0.71703327D-08  0.35784985D-08 -0.42444546D-03  0.23261200D-03
  0.74040949D-04 -0.26465505D-07  0.39610611D-05 -0.43275509D-04  0.36250328D-04
 -0.13212122D-04  0.39383211D-08  0.20524082D-07  0.13645675D-04  0.23145647D-04
  0.26350501D-04  0.80597829D-04  0.45989437D-04  0.84645114D-04  0.13697177D-03
  0.18005323D-03  0.15443061D-03  0.52802447D-04 -0.15491819D-03 -0.69124193D-04
  0.20412467D-03  0.12943152D-03  0.99720009D-04  0.43782455D-04  0.10077446D-03
  0.77641291D-04  0.34088709D-04  0.45095687D-08  0.34743796D-08  0.15254398D-08
 -0.46231723D-03 -0.14049413D-03 -0.10835688D-03  0.30771523D-08  0.14373712D-03
  0.10998486D-03  0.16053091D-03 -0.65414652D-04  0.54560291D-08 -0.81062968D-08
  0.82560119D+00  0.15195469D+01  0.24589137D+01  0.32323109D+01  0.27723343D+01
  0.94790818D+00 -0.15719151D-01 -0.70138544D-02  0.20712006D-01  0.17545333D-02
  0.13517733D-02  0.59350130D-03 -0.27334561D-02 -0.21059806D-02 -0.92463891D-03
 -0.12351040D-06 -0.95158104D-07 -0.41779533D-07  0.41010044D-02  0.40961240D-03
  0.12749614D-03 -0.10579560D-07 -0.92453303D-02 -0.93994562D-02 -0.93111130D-02
  0.10898618D-03  0.47243642D-08 -0.19079110D-08  0.18489614D-04  0.31361885D-04
  0.35704397D-04 -0.25176962D-04  0.16456955D-04  0.30359868D-04  0.49010241D-04
  0.63796771D-04  0.54437900D-04  0.18796099D-04 -0.53164784D-04 -0.24503600D-04
  0.68710653D-04 -0.14380540D-03 -0.11026086D-03 -0.55027895D-04 -0.18479218D-04
 -0.14168692D-04 -0.70711703D-05  0.43086907D-07  0.33036308D-07  0.16487433D-07
 -0.40289721D-03 -0.21151774D-04  0.16888790D-03 -0.52508594D-07  0.72863466D-04
  0.36278911D-04  0.17391794D-04  0.11216260D-03 -0.59766929D-07 -0.26782057D-07
  0.18515211D-05  0.31405302D-05  0.35753826D-05 -0.43474805D-04  0.30454050D-04
  0.51655833D-04  0.58808340D-04  0.94826259D-05  0.30468229D-04  0.51679883D-04
  0.58835720D-04  0.94377718D-05  0.90690700D-04  0.15382859D-03  0.17512842D-03
 -0.20025910D-03  0.60807082D-05  0.10314032D-04  0.11742161D-04  0.65332601D-04
 -0.81505594D-06 -0.15036191D-05 -0.24273074D-05 -0.31596330D-05 -0.26961205D-05
 -0.93090563D-06  0.25221726D-06  0.11624671D-06 -0.32596790D-06  0.27068376D-04
  0.20754314D-04  0.10357857D-04 -0.24603859D-05 -0.18864678D-05 -0.94147966D-06
 -0.38491375D-07 -0.29512745D-07 -0.14728928D-07 -0.82362125D-04  0.24348203D-04
 -0.84341095D-05  0.87449253D-07 -0.57401614D-05 -0.72289749D-05 -0.56214399D-05
  0.15251199D-04 -0.39989773D-07  0.80090732D-07  0.89576807D-06  0.15193922D-05
  0.17297743D-05 -0.15309762D-05  0.90398763D-06  0.15333341D-05  0.17456467D-05
 -0.15044654D-05  0.14865623D-05  0.25214910D-05  0.28706284D-05  0.65291125D-05
MO    3     MO 0.0        OCC NO =    2.0000000  ORB. ENERGY =  -10.241794
 -0.60045990D-04 -0.11077313D-03 -0.17882217D-03 -0.23277333D-03 -0.19862591D-03
 -0.68580753D-04  0.12495621D-03  0.57592204D-04 -0.16149455D-03  0.31225059D-04
  0.23941395D-04  0.11948434D-04  0.59449631D-04  0.45582206D-04  0.22748716D-04
 -0.10959520D-06 -0.84030645D-07 -0.41937181D-07  0.10171238D-02 -0.30172269D-03
 -0.44319896D-03  0.14634719D-06  0.16145341D-04 -0.21725496D-04 -0.12070127D-03
 -0.36791808D-04 -0.51250210D-07 -0.52680023D-07  0.89303578D-04  0.16474766D-03
  0.26595381D-03  0.34619284D-03  0.29540698D-03  0.10199693D-03 -0.70360656D-04
 -0.32429162D-04  0.90934756D-04  0.24174132D-04  0.18535191D-04  0.92503593D-05
  0.11185455D-03  0.85762976D-04  0.42801736D-04  0.28502043D-07  0.21853559D-07
  0.10906458D-07 -0.13795150D-02 -0.33833759D-03  0.52387166D-03 -0.58824059D-07
  0.26014689D-04  0.50102785D-04  0.26998587D-04  0.13125088D-03 -0.71802179D-07
  0.24026119D-08  0.14265157D-01  0.26316429D-01  0.42482877D-01  0.55300083D-01
  0.47187661D-01  0.16292765D-01 -0.15371184D-03 -0.70845645D-04  0.19865858D-03
 -0.22650337D-03 -0.17366842D-03 -0.86672712D-04  0.31273509D-03  0.23978543D-03
  0.11966974D-03 -0.16904887D-07 -0.12961595D-07 -0.64687444D-08  0.23629709D-02
  0.13478399D-02 -0.17854419D-03 -0.13653239D-06 -0.61136291D-03 -0.85617376D-03
 -0.64525334D-03 -0.33687823D-04 -0.52385946D-07  0.34816493D-07  0.53236459D+00
  0.98210871D+00  0.15854280D+01  0.20637561D+01  0.17610069D+01  0.60803335D+00
 -0.19818997D-01 -0.91345576D-02  0.25614253D-01 -0.65989719D-03 -0.50596731D-03
 -0.25251315D-03 -0.92402197D-03 -0.70848144D-03 -0.35358189D-03 -0.12111337D-06
 -0.92862047D-07 -0.46344670D-07 -0.40853820D-02 -0.93906584D-03 -0.16862876D-02
  0.17531979D-06 -0.97980903D-02 -0.95844670D-02 -0.10412517D-01  0.69002434D-03
 -0.58676854D-07  0.16052119D-07  0.24188173D-02  0.44622456D-02  0.72034480D-02
  0.93767490D-02  0.80011969D-02  0.27626210D-02  0.29292401D-03  0.13500841D-03
 -0.37857767D-03  0.36149184D-03  0.27716901D-03  0.13832676D-03 -0.12261141D-03
 -0.94010653D-04 -0.46917905D-04  0.51051975D-07  0.39143416D-07  0.19535308D-07
  0.27107245D-02 -0.79340583D-03  0.99750929D-03  0.71010048D-07 -0.39460566D-03
 -0.30427631D-03 -0.38471104D-03 -0.24409955D-03 -0.13383571D-07  0.56393604D-07
  0.38902678D-04  0.71767845D-04  0.11585555D-03  0.15080951D-03  0.12868603D-03
  0.44432192D-04 -0.10397514D-03 -0.47922048D-04  0.13437842D-03  0.76715072D-04
  0.58820251D-04  0.29355428D-04  0.86082530D-04  0.66002624D-04  0.32939935D-04
 -0.21940187D-08 -0.16822344D-08 -0.83955285D-09 -0.14771673D-02  0.60577453D-03
  0.24129177D-03 -0.12350461D-06  0.18406985D-04  0.30635952D-04  0.58682993D-04
 -0.31664202D-05 -0.16332663D-06  0.49541728D-07  0.40746546D-04  0.69113854D-04
  0.78683680D-04  0.37195836D-03  0.12854962D-03  0.23659993D-03  0.38286334D-03
  0.50328458D-03  0.43166426D-03  0.14759334D-03 -0.70398757D-03 -0.31411788D-03
  0.92759432D-03 -0.51403433D-04 -0.39603574D-04 -0.17388102D-04  0.43201447D-04
  0.33284386D-04  0.14613638D-04  0.13491111D-06  0.10394174D-06  0.45636022D-07
 -0.16943022D-02 -0.41285177D-03 -0.69565638D-03 -0.45938923D-07  0.47742364D-03
 -0.18505632D-03  0.98335029D-03 -0.11337039D-02  0.22148881D-07 -0.44821646D-07
 -0.83121132D-04 -0.15298725D-03 -0.24756226D-03 -0.32542751D-03 -0.27911729D-03
 -0.95434941D-04  0.30420624D-03  0.13573623D-03 -0.40083091D-03 -0.13244769D-03
 -0.10204380D-03 -0.44802726D-04 -0.95871777D-04 -0.73864036D-04 -0.32430290D-04
 -0.40791264D-07 -0.31427470D-07 -0.13798352D-07  0.88713656D-03  0.22878187D-03
  0.97148451D-04  0.17993009D-07 -0.21413740D-03 -0.29861245D-03 -0.30773393D-03
 -0.86738347D-05  0.27589424D-07  0.26899289D-07  0.34434234D-04  0.58406978D-04
  0.66494280D-04 -0.66144873D-04 -0.23641785D-04 -0.43614477D-04 -0.70407289D-04
 -0.91649371D-04 -0.78204574D-04 -0.27002160D-04  0.60507023D-04  0.27887632D-04
 -0.78199830D-04 -0.20662737D-05 -0.15842877D-05 -0.79067057D-06  0.77806488D-04
  0.59657080D-04  0.29773064D-04 -0.27752683D-07 -0.21278997D-07 -0.10619711D-07
 -0.85121146D-04 -0.47978860D-04 -0.30820423D-04  0.17217792D-07 -0.62714841D-04
  0.14567754D-04 -0.48553957D-04 -0.37109717D-04 -0.10318159D-08 -0.15131641D-07
  0.54064069D-05  0.91702893D-05  0.10440050D-04  0.26571300D-04 -0.12377178D-04
 -0.20994037D-04 -0.23900969D-04 -0.11005212D-05 -0.12370355D-04 -0.20982463D-04
 -0.23887792D-04 -0.11035136D-05 -0.42907346D-05 -0.72778980D-05 -0.82856296D-05
  0.44438653D-04  0.24744926D-04  0.41972078D-04  0.47783728D-04  0.14923437D-03
 -0.25972420D-04 -0.47914043D-04 -0.77348121D-04 -0.10068427D-03 -0.85914071D-04
 -0.29664064D-04  0.55475586D-04  0.25568647D-04 -0.71697155D-04  0.43504100D-04
  0.33356184D-04  0.16647074D-04  0.23489542D-04  0.18010291D-04  0.89883975D-05
 -0.18712557D-06 -0.14347602D-06 -0.71604588D-07 -0.52161283D-04  0.90526974D-05
 -0.71913665D-04  0.29307424D-06 -0.70658859D-05 -0.76053757D-04 -0.43205397D-04
  0.10466280D-03 -0.91943609D-07  0.10594612D-05 -0.93682760D-05 -0.15890369D-04
 -0.18090624D-04 -0.19593205D-04 -0.94470521D-05 -0.16023988D-04 -0.18242744D-04
 -0.19583971D-04  0.29366176D-05  0.49810592D-05  0.56707599D-05  0.29224448D-04
MO    4     MO 0.0        OCC NO =    2.0000000  ORB. ENERGY =  -10.232151
  0.45692416D-04  0.84293586D-04  0.13607598D-03  0.17713050D-03  0.15114578D-03
  0.52187004D-04 -0.10096875D-03 -0.46536404D-04  0.13049294D-03  0.16489665D-03
  0.12643230D-03  0.63098577D-04  0.24510858D-04  0.18793371D-04  0.93792095D-05
 -0.42755440D-08 -0.32782160D-08 -0.16360595D-08 -0.16989778D-02  0.39223581D-03
  0.74734318D-03 -0.14575098D-06  0.47620945D-04  0.25829359D-04  0.61747791D-04
  0.60680872D-05  0.24474093D-07 -0.86471438D-08  0.29750804D-02  0.54884424D-02
  0.88600478D-02  0.11533150D-01  0.98412575D-02  0.33979497D-02  0.22383303D-03
  0.10316444D-03 -0.28928386D-03 -0.44599039D-04 -0.34195715D-04 -0.17066058D-04
  0.51232937D-03  0.39282166D-03  0.19604554D-03 -0.84415342D-07 -0.64724330D-07
 -0.32301977D-07  0.25856963D-02  0.72453976D-03 -0.15453944D-02  0.11764709D-06
 -0.41130651D-03 -0.27392203D-03 -0.33435028D-03 -0.17993088D-03  0.38176606D-07
  0.33498231D-07  0.53237126D+00  0.98212102D+00  0.15854478D+01  0.20637820D+01
  0.17610289D+01  0.60804097D+00 -0.19887873D-01 -0.91663025D-02  0.25703269D-01
 -0.10108085D-02 -0.77502382D-03 -0.38679120D-03 -0.29626219D-03 -0.22715506D-03
 -0.11336630D-03 -0.11711408D-06 -0.89795649D-07 -0.44814322D-07 -0.43422204D-02
 -0.21826527D-02 -0.17412623D-03  0.27714537D-06 -0.93332618D-02 -0.10014946D-01
 -0.10399422D-01 -0.23025706D-04 -0.17844494D-07 -0.30210602D-07 -0.14590283D-01
 -0.26916222D-01 -0.43451129D-01 -0.56560459D-01 -0.48263142D-01 -0.16664103D-01
  0.91481512D-03  0.42163745D-03 -0.11823154D-02  0.18752083D-03  0.14377908D-03
  0.71755836D-04 -0.25735281D-03 -0.19732181D-03 -0.98477413D-04 -0.20695177D-07
 -0.15867749D-07 -0.79191190D-08  0.28230724D-02  0.54047320D-03  0.14117817D-02
 -0.97348746D-07 -0.31407091D-03 -0.15896445D-03 -0.71801134D-04  0.18113879D-03
  0.48578931D-07 -0.40228916D-07 -0.51145758D-04 -0.94353936D-04 -0.15231651D-03
 -0.19827084D-03 -0.16918486D-03 -0.58415468D-04 -0.10094193D-03 -0.46524044D-04
  0.13045828D-03  0.13872426D-03  0.10636497D-03  0.53083573D-04 -0.13686338D-04
 -0.10493816D-04 -0.52371495D-05 -0.12576587D-07 -0.96429289D-08 -0.48124974D-08
 -0.17747158D-02  0.45444025D-03 -0.72118470D-03 -0.48835911D-07  0.12251446D-03
  0.12703399D-04  0.60652937D-04  0.45930997D-05  0.41181576D-08  0.81832108D-08
 -0.82909157D-04 -0.15295121D-03 -0.24691067D-03 -0.32140433D-03 -0.27425490D-03
 -0.94693625D-04  0.16905500D-03  0.77917295D-04 -0.21848823D-03  0.10185565D-03
  0.78096455D-04  0.38975605D-04  0.11090879D-04  0.85037823D-05  0.42439833D-05
 -0.61684386D-08 -0.47295675D-08 -0.23603856D-08  0.14612561D-02 -0.81194189D-03
 -0.77199980D-04  0.43318905D-07 -0.13200862D-04  0.67443412D-04 -0.14131231D-03
 -0.35858484D-05 -0.39557089D-07 -0.31894856D-07 -0.32891365D-04 -0.55789980D-04
 -0.63514921D-04 -0.21636834D-03 -0.79288024D-04 -0.14593229D-03 -0.23614599D-03
 -0.31042052D-03 -0.26624587D-03 -0.91033986D-04  0.31477902D-03  0.14045379D-03
 -0.41476191D-03 -0.39744844D-04 -0.30621260D-04 -0.13444382D-04 -0.10483629D-03
 -0.80770711D-04 -0.35462693D-04 -0.32284116D-07 -0.24873171D-07 -0.10920662D-07
  0.90801709D-03  0.16324681D-03  0.21606697D-03  0.19771017D-07 -0.25264159D-03
 -0.18338928D-03 -0.31893410D-03  0.10219889D-03  0.30948021D-07  0.13120800D-07
  0.16014603D-03  0.29475418D-03  0.47696790D-03  0.62698765D-03  0.53776367D-03
  0.18387053D-03 -0.81129235D-03 -0.36199707D-03  0.10689822D-02  0.53552315D-05
  0.41259172D-05  0.18114999D-05  0.50516231D-04  0.38920032D-04  0.17087991D-04
  0.14357538D-06  0.11061709D-06  0.48566861D-07 -0.20278308D-02 -0.86210676D-03
 -0.42068541D-04 -0.35713683D-07 -0.32947853D-03  0.90024183D-03  0.11181571D-02
 -0.18844945D-03  0.35561717D-07  0.21965350D-07 -0.15354870D-04 -0.26044766D-04
 -0.29651046D-04  0.76365654D-04 -0.20530754D-04 -0.37875231D-04 -0.61142367D-04
 -0.79589195D-04 -0.67913604D-04 -0.23448936D-04  0.83547241D-04  0.38506847D-04
 -0.10797722D-03  0.12222025D-03  0.93710732D-04  0.46768223D-04 -0.15415307D-03
 -0.11819480D-03 -0.58987489D-04  0.19357423D-07  0.14842044D-07  0.74072201D-08
  0.77563105D-03  0.18594547D-03 -0.19318834D-03  0.45129881D-07  0.52026771D-04
  0.65679253D-04 -0.28082683D-04 -0.10696823D-03  0.34163299D-07 -0.59558722D-07
 -0.22969205D-04 -0.38960120D-04 -0.44354719D-04 -0.74011013D-05 -0.17185565D-04
 -0.29149971D-04 -0.33186212D-04  0.19427341D-06 -0.17189414D-04 -0.29156500D-04
 -0.33193644D-04  0.22626593D-06  0.46613836D-04  0.79065889D-04  0.90013720D-04
 -0.39038303D-04 -0.33005990D-04 -0.55984406D-04 -0.63736267D-04 -0.22138995D-03
  0.45523145D-05  0.83981314D-05  0.13557188D-04  0.17647431D-04  0.15058584D-04
  0.51993673D-05  0.57877405D-05  0.26675643D-05 -0.74801287D-05 -0.86316396D-04