 Entering Link 1 = D:\Gaussian\G16W\l1.exe PID=     37072.
  
 Copyright (c) 1988,1990,1992,1993,1995,1998,2003,2009,2016,
            Gaussian, Inc.  All Rights Reserved.
  
 This is part of the Gaussian(R) 16 program.  It is based on
 the Gaussian(R) 09 system (copyright 2009, Gaussian, Inc.),
 the Gaussian(R) 03 system (copyright 2003, Gaussian, Inc.),
 the Gaussian(R) 98 system (copyright 1998, Gaussian, Inc.),
 the Gaussian(R) 94 system (copyright 1995, Gaussian, Inc.),
 the Gaussian 92(TM) system (copyright 1992, Gaussian, Inc.),
 the Gaussian 90(TM) system (copyright 1990, Gaussian, Inc.),
 the Gaussian 88(TM) system (copyright 1988, Gaussian, Inc.),
 the Gaussian 86(TM) system (copyright 1986, Carnegie Mellon
 University), and the Gaussian 82(TM) system (copyright 1983,
 Carnegie Mellon University). Gaussian is a federally registered
 trademark of Gaussian, Inc.
  
 This software contains proprietary and confidential information,
 including trade secrets, belonging to Gaussian, Inc.
  
 This software is provided under written license and may be
 used, copied, transmitted, or stored only in accord with that
 written license.
  
 The following legend is applicable only to US Government
 contracts under FAR:
  
                    RESTRICTED RIGHTS LEGEND
  
 Use, reproduction and disclosure by the US Government is
 subject to restrictions as set forth in subparagraphs (a)
 and (c) of the Commercial Computer Software - Restricted
 Rights clause in FAR 52.227-19.
  
 Gaussian, Inc.
 340 Quinnipiac St., Bldg. 40, Wallingford CT 06492
  
  
 ---------------------------------------------------------------
 Warning -- This program may not be used in any manner that
 competes with the business of Gaussian, Inc. or will provide
 assistance to any competitor of Gaussian, Inc.  The licensee
 of this program is prohibited from giving any competitor of
 Gaussian, Inc. access to this program.  By using this program,
 the user acknowledges that Gaussian, Inc. is engaged in the
 business of creating and licensing software in the field of
 computational chemistry and represents and warrants to the
 licensee that it is not a competitor of Gaussian, Inc. and that
 it will not use this program in any manner prohibited above.
 ---------------------------------------------------------------
  

 Cite this work as:
 Gaussian 16, Revision A.03,
 M. J. Frisch, G. W. Trucks, H. B. Schlegel, G. E. Scuseria, 
 M. A. Robb, J. R. Cheeseman, G. Scalmani, V. Barone, 
 G. A. Petersson, H. Nakatsuji, X. Li, M. Caricato, A. V. Marenich, 
 J. Bloino, B. G. Janesko, R. Gomperts, B. Mennucci, H. P. Hratchian, 
 J. V. Ortiz, A. F. Izmaylov, J. L. Sonnenberg, D. Williams-Young, 
 F. Ding, F. Lipparini, F. Egidi, J. Goings, B. Peng, A. Petrone, 
 T. Henderson, D. Ranasinghe, V. G. Zakrzewski, J. Gao, N. Rega, 
 G. Zheng, W. Liang, M. Hada, M. Ehara, K. Toyota, R. Fukuda, 
 J. Hasegawa, M. Ishida, T. Nakajima, Y. Honda, O. Kitao, H. Nakai, 
 T. Vreven, K. Throssell, J. A. Montgomery, Jr., J. E. Peralta, 
 F. Ogliaro, M. J. Bearpark, J. J. Heyd, E. N. Brothers, K. N. Kudin, 
 V. N. Staroverov, T. A. Keith, R. Kobayashi, J. Normand, 
 K. Raghavachari, A. P. Rendell, J. C. Burant, S. S. Iyengar, 
 J. Tomasi, M. Cossi, J. M. Millam, M. Klene, C. Adamo, R. Cammi, 
 J. W. Ochterski, R. L. Martin, K. Morokuma, O. Farkas, 
 J. B. Foresman, and D. J. Fox, Gaussian, Inc., Wallingford CT, 2016.
 
 ******************************************
 Gaussian 16:  EM64W-G16RevA.03 17-Dec-2016
                02-Dec-2025 
 ******************************************
 %nprocshared=14
 Will use up to   14 processors via shared memory.
 %mem=80GB
 %chk=SR-11.chk
 ---------------------------------------------------------
 # ub3lyp/6-311g(d,p) geom=connectivity temperature=823.15
 ---------------------------------------------------------
 1/38=1,57=2,112=823150,172=1/1;
 2/12=2,17=6,18=5,40=1/2;
 3/5=4,6=6,7=101,11=2,25=1,30=1,74=-5,116=2/1,2,3;
 4//1;
 5/5=2,38=5/2;
 6/7=2,8=2,9=2,10=2,28=1/1;
 99/5=1,9=1/99;
 -------------------
 Title Card Required
 -------------------
 Symbolic Z-matrix:
 Charge =  0 Multiplicity = 1
 C                     0.91883   1.23084  -0.00028 
 C                    -0.48058   1.18356  -0.00011 
 C                    -1.10004  -0.06531   0.00009 
 C                    -0.32451  -1.23121   0.00005 
 C                     1.0609   -1.16316  -0.00014 
 C                     1.70585   0.07999  -0.00024 
 H                     1.6423   -2.08196  -0.00024 
 O                    -1.04529  -2.40692   0.00008 
 O                    -2.46562  -0.14311   0.00016 
 H                    -0.44425  -3.15755  -0.0001 
 C                    -1.32613   2.43004  -0.00027 
 H                    -0.70136   3.32484  -0.00062 
 H                    -1.97923   2.46396   0.87685 
 H                    -1.97959   2.46349  -0.87713 
 H                    -2.70349  -1.07894   0.00017 
 H                     1.40248   2.2027   -0.00051 
 C                     3.21447   0.15739   0.00048 
 H                     3.64062  -0.32483   0.88645 
 H                     3.64226  -0.33909  -0.87672 
 H                     3.5548    1.19477  -0.0075 
 
                          Input orientation:                          
 ---------------------------------------------------------------------
 Center     Atomic      Atomic             Coordinates (Angstroms)
 Number     Number       Type             X           Y           Z
 ---------------------------------------------------------------------
      1          6           0        0.918831    1.230840   -0.000284
      2          6           0       -0.480580    1.183555   -0.000110
      3          6           0       -1.100036   -0.065309    0.000092
      4          6           0       -0.324510   -1.231209    0.000046
      5          6           0        1.060899   -1.163162   -0.000137
      6          6           0        1.705846    0.079990   -0.000239
      7          1           0        1.642304   -2.081958   -0.000238
      8          8           0       -1.045289   -2.406916    0.000079
      9          8           0       -2.465620   -0.143107    0.000156
     10          1           0       -0.444246   -3.157546   -0.000103
     11          6           0       -1.326132    2.430042   -0.000265
     12          1           0       -0.701359    3.324839   -0.000623
     13          1           0       -1.979225    2.463956    0.876850
     14          1           0       -1.979587    2.463493   -0.877127
     15          1           0       -2.703490   -1.078942    0.000165
     16          1           0        1.402482    2.202703   -0.000509
     17          6           0        3.214469    0.157385    0.000476
     18          1           0        3.640620   -0.324831    0.886446
     19          1           0        3.642263   -0.339086   -0.876715
     20          1           0        3.554795    1.194765   -0.007498
 ---------------------------------------------------------------------
                    Distance matrix (angstroms):
                    1          2          3          4          5
     1  C    0.000000
     2  C    1.400210   0.000000
     3  C    2.399130   1.394054   0.000000
     4  C    2.758185   2.419802   1.400273   0.000000
     5  C    2.398214   2.807710   2.423824   1.387079   0.000000
     6  C    1.394220   2.449146   2.809642   2.416938   1.400494
     7  H    3.390877   3.894896   3.404013   2.142926   1.087298
     8  O    4.134131   3.634608   2.342247   1.379061   2.446007
     9  O    3.652703   2.387554   1.367798   2.401732   3.671083
    10  H    4.595205   4.341253   3.161011   1.930055   2.498605
    11  C    2.545181   1.506216   2.505573   3.795788   4.313819
    12  H    2.647612   2.152636   3.413510   4.571607   4.821588
    13  H    3.269353   2.157411   2.817598   4.142597   4.813257
    14  H    3.269421   2.157411   2.817439   4.142407   4.813138
    15  H    4.296080   3.171785   1.896976   2.383848   3.765331
    16  H    1.085558   2.141164   3.377347   3.843729   3.383153
    17  C    2.534218   3.834894   4.320248   3.801653   2.526204
    18  H    3.257996   4.477220   4.829782   4.162869   2.853732
    19  H    3.263416   4.481596   4.830439   4.159313   2.847970
    20  H    2.636221   4.035397   4.822374   4.575414   3.432112
                    6          7          8          9         10
     6  C    0.000000
     7  H    2.162882   0.000000
     8  O    3.708564   2.707167   0.000000
     9  O    4.177428   4.542486   2.672484   0.000000
    10  H    3.886455   2.347463   0.961612   3.629435   0.000000
    11  C    3.836096   5.400903   4.845104   2.814166   5.656754
    12  H    4.040258   5.892895   5.742064   3.890921   6.487482
    13  H    4.475749   5.877932   5.036503   2.793197   5.892919
    14  H    4.475761   5.877768   5.036198   2.792887   5.892582
    15  H    4.559097   4.460041   2.124417   0.965593   3.069980
    16  H    2.144281   4.291367   5.219212   4.523830   5.669451
    17  C    1.510607   2.736121   4.972040   5.688032   4.937101
    18  H    2.166435   2.804812   5.203697   6.172900   5.049393
    19  H    2.166459   2.793859   5.197868   6.173617   5.041004
    20  H    2.159025   3.794020   5.842340   6.167281   5.910583
                   11         12         13         14         15
    11  C    0.000000
    12  H    1.091331   0.000000
    13  H    1.094080   1.773138   0.000000
    14  H    1.094079   1.773145   1.753977   0.000000
    15  H    3.769627   4.837542   3.720922   3.720554   0.000000
    16  H    2.738068   2.384394   3.503420   3.503550   5.256253
    17  C    5.077601   5.036514   5.750022   5.750351   6.045721
    18  H    5.748409   5.741059   6.273761   6.517029   6.449954
    19  H    5.755101   5.749690   6.521745   6.281691   6.448634
    20  H    5.034820   4.759423   5.746155   5.744154   6.658523
                   16         17         18         19         20
    16  H    0.000000
    17  C    2.732512   0.000000
    18  H    3.490613   1.095025   0.000000
    19  H    3.499292   1.094968   1.763219   0.000000
    20  H    2.376645   1.091807   1.765127   1.765188   0.000000
 Stoichiometry    C8H10O2
 Framework group  C1[X(C8H10O2)]
 Deg. of freedom    54
 Full point group                 C1      NOp   1
 Largest Abelian subgroup         C1      NOp   1
 Largest concise Abelian subgroup C1      NOp   1
                         Standard orientation:                         
 ---------------------------------------------------------------------
 Center     Atomic      Atomic             Coordinates (Angstroms)
 Number     Number       Type             X           Y           Z
 ---------------------------------------------------------------------
      1          6           0        0.918831    1.230840   -0.000284
      2          6           0       -0.480580    1.183555   -0.000110
      3          6           0       -1.100036   -0.065309    0.000092
      4          6           0       -0.324510   -1.231209    0.000046
      5          6           0        1.060899   -1.163162   -0.000137
      6          6           0        1.705846    0.079990   -0.000239
      7          1           0        1.642304   -2.081958   -0.000238
      8          8           0       -1.045289   -2.406916    0.000079
      9          8           0       -2.465620   -0.143107    0.000156
     10          1           0       -0.444246   -3.157546   -0.000103
     11          6           0       -1.326132    2.430042   -0.000265
     12          1           0       -0.701359    3.324839   -0.000623
     13          1           0       -1.979225    2.463956    0.876850
     14          1           0       -1.979587    2.463493   -0.877127
     15          1           0       -2.703490   -1.078942    0.000165
     16          1           0        1.402482    2.202703   -0.000509
     17          6           0        3.214469    0.157385    0.000476
     18          1           0        3.640620   -0.324831    0.886446
     19          1           0        3.642263   -0.339086   -0.876715
     20          1           0        3.554795    1.194765   -0.007498
 ---------------------------------------------------------------------
 Rotational constants (GHZ):           1.7929805           1.2627976           0.7477819
 Standard basis: 6-311G(d,p) (5D, 7F)
 There are   250 symmetry adapted cartesian basis functions of A   symmetry.
 There are   240 symmetry adapted basis functions of A   symmetry.
   240 basis functions,   400 primitive gaussians,   250 cartesian basis functions
    37 alpha electrons       37 beta electrons
       nuclear repulsion energy       518.4505527102 Hartrees.
 NAtoms=   20 NActive=   20 NUniq=   20 SFac= 1.00D+00 NAtFMM=   60 NAOKFM=F Big=F
 Integral buffers will be    131072 words long.
 Raffenetti 2 integral format.
 Two-electron integral symmetry is turned on.
 One-electron integrals computed using PRISM.
 NBasis=   240 RedAO= T EigKep=  1.66D-04  NBF=   240
 NBsUse=   240 1.00D-06 EigRej= -1.00D+00 NBFU=   240
 ExpMin= 1.03D-01 ExpMax= 8.59D+03 ExpMxC= 1.30D+03 IAcc=3 IRadAn=         5 AccDes= 0.00D+00
 Harris functional with IExCor=  402 and IRadAn=       5 diagonalized for initial guess.
 HarFok:  IExCor=  402 AccDes= 0.00D+00 IRadAn=         5 IDoV= 1 UseB2=F ITyADJ=14
 ICtDFT=  3500011 ScaDFX=  1.000000  1.000000  1.000000  1.000000
 FoFCou: FMM=F IPFlag=           0 FMFlag=      100000 FMFlg1=           0
         NFxFlg=           0 DoJE=T BraDBF=F KetDBF=T FulRan=T
         wScrn=  0.000000 ICntrl=       500 IOpCl=  0 I1Cent=   200000004 NGrid=           0
         NMat0=    1 NMatS0=      1 NMatT0=    0 NMatD0=    1 NMtDS0=    0 NMtDT0=    0
 Petite list used in FoFCou.
 Initial guess <Sx>= 0.0000 <Sy>= 0.0000 <Sz>= 0.0000 <S**2>= 0.0000 S= 0.0000
 Requested convergence on RMS density matrix=1.00D-08 within 128 cycles.
 Requested convergence on MAX density matrix=1.00D-06.
 Requested convergence on             energy=1.00D-06.
 No special actions if energy rises.
 Integral accuracy reduced to 1.0D-05 until final iterations.
 Initial convergence to 1.0D-05 achieved.  Increase integral accuracy.
 SCF Done:  E(UB3LYP) =  -461.451330645     A.U. after   14 cycles
            NFock= 14  Conv=0.29D-08     -V/T= 2.0038
 <Sx>= 0.0000 <Sy>= 0.0000 <Sz>= 0.0000 <S**2>= 0.0000 S= 0.0000
 <L.S>= 0.000000000000E+00
 Annihilation of the first spin contaminant:
 S**2 before annihilation     0.0000,   after     0.0000

 **********************************************************************

            Population analysis using the SCF density.

 **********************************************************************

 Orbital symmetries:
 Alpha Orbitals:
       Occupied  (A) (A) (A) (A) (A) (A) (A) (A) (A) (A) (A) (A)
                 (A) (A) (A) (A) (A) (A) (A) (A) (A) (A) (A) (A)
                 (A) (A) (A) (A) (A) (A) (A) (A) (A) (A) (A) (A)
                 (A)
       Virtual   (A) (A) (A) (A) (A) (A) (A) (A) (A) (A) (A) (A)
                 (A) (A) (A) (A) (A) (A) (A) (A) (A) (A) (A) (A)
                 (A) (A) (A) (A) (A) (A) (A) (A) (A) (A) (A) (A)
                 (A) (A) (A) (A) (A) (A) (A) (A) (A) (A) (A) (A)
                 (A) (A) (A) (A) (A) (A) (A) (A) (A) (A) (A) (A)
                 (A) (A) (A) (A) (A) (A) (A) (A) (A) (A) (A) (A)
                 (A) (A) (A) (A) (A) (A) (A) (A) (A) (A) (A) (A)
                 (A) (A) (A) (A) (A) (A) (A) (A) (A) (A) (A) (A)
                 (A) (A) (A) (A) (A) (A) (A) (A) (A) (A) (A) (A)
                 (A) (A) (A) (A) (A) (A) (A) (A) (A) (A) (A) (A)
                 (A) (A) (A) (A) (A) (A) (A) (A) (A) (A) (A) (A)
                 (A) (A) (A) (A) (A) (A) (A) (A) (A) (A) (A) (A)
                 (A) (A) (A) (A) (A) (A) (A) (A) (A) (A) (A) (A)
                 (A) (A) (A) (A) (A) (A) (A) (A) (A) (A) (A) (A)
                 (A) (A) (A) (A) (A) (A) (A) (A) (A) (A) (A) (A)
                 (A) (A) (A) (A) (A) (A) (A) (A) (A) (A) (A) (A)
                 (A) (A) (A) (A) (A) (A) (A) (A) (A) (A) (A)
 Beta  Orbitals:
       Occupied  (A) (A) (A) (A) (A) (A) (A) (A) (A) (A) (A) (A)
                 (A) (A) (A) (A) (A) (A) (A) (A) (A) (A) (A) (A)
                 (A) (A) (A) (A) (A) (A) (A) (A) (A) (A) (A) (A)
                 (A)
       Virtual   (A) (A) (A) (A) (A) (A) (A) (A) (A) (A) (A) (A)
                 (A) (A) (A) (A) (A) (A) (A) (A) (A) (A) (A) (A)
                 (A) (A) (A) (A) (A) (A) (A) (A) (A) (A) (A) (A)
                 (A) (A) (A) (A) (A) (A) (A) (A) (A) (A) (A) (A)
                 (A) (A) (A) (A) (A) (A) (A) (A) (A) (A) (A) (A)
                 (A) (A) (A) (A) (A) (A) (A) (A) (A) (A) (A) (A)
                 (A) (A) (A) (A) (A) (A) (A) (A) (A) (A) (A) (A)
                 (A) (A) (A) (A) (A) (A) (A) (A) (A) (A) (A) (A)
                 (A) (A) (A) (A) (A) (A) (A) (A) (A) (A) (A) (A)
                 (A) (A) (A) (A) (A) (A) (A) (A) (A) (A) (A) (A)
                 (A) (A) (A) (A) (A) (A) (A) (A) (A) (A) (A) (A)
                 (A) (A) (A) (A) (A) (A) (A) (A) (A) (A) (A) (A)
                 (A) (A) (A) (A) (A) (A) (A) (A) (A) (A) (A) (A)
                 (A) (A) (A) (A) (A) (A) (A) (A) (A) (A) (A) (A)
                 (A) (A) (A) (A) (A) (A) (A) (A) (A) (A) (A) (A)
                 (A) (A) (A) (A) (A) (A) (A) (A) (A) (A) (A) (A)
                 (A) (A) (A) (A) (A) (A) (A) (A) (A) (A) (A)
 The electronic state is 1-A.
 Alpha  occ. eigenvalues --  -19.15857 -19.13868 -10.23133 -10.22131 -10.17518
 Alpha  occ. eigenvalues --  -10.17384 -10.16908 -10.16553 -10.15965 -10.15911
 Alpha  occ. eigenvalues --   -1.07787  -1.04679  -0.85458  -0.77848  -0.75372
 Alpha  occ. eigenvalues --   -0.68716  -0.68347  -0.63247  -0.57890  -0.54592
 Alpha  occ. eigenvalues --   -0.53065  -0.48917  -0.44803  -0.43883  -0.42180
 Alpha  occ. eigenvalues --   -0.41463  -0.41064  -0.40316  -0.39984  -0.38645
 Alpha  occ. eigenvalues --   -0.36725  -0.36276  -0.35274  -0.33886  -0.31498
 Alpha  occ. eigenvalues --   -0.23308  -0.20719
 Alpha virt. eigenvalues --    0.00000   0.01642   0.01954   0.05090   0.06336
 Alpha virt. eigenvalues --    0.07776   0.09119   0.10361   0.11188   0.12257
 Alpha virt. eigenvalues --    0.13466   0.15611   0.18705   0.19618   0.21746
 Alpha virt. eigenvalues --    0.22938   0.24567   0.28947   0.29382   0.30698
 Alpha virt. eigenvalues --    0.31905   0.32980   0.33690   0.34341   0.35376
 Alpha virt. eigenvalues --    0.36704   0.39249   0.40137   0.42372   0.42737
 Alpha virt. eigenvalues --    0.43952   0.45172   0.47878   0.48375   0.49390
 Alpha virt. eigenvalues --    0.49464   0.50646   0.51996   0.53351   0.53990
 Alpha virt. eigenvalues --    0.55626   0.57176   0.57533   0.59121   0.60233
 Alpha virt. eigenvalues --    0.60912   0.61781   0.62318   0.64954   0.66217
 Alpha virt. eigenvalues --    0.66981   0.68415   0.70598   0.77800   0.78306
 Alpha virt. eigenvalues --    0.79553   0.80394   0.84112   0.85610   0.87230
 Alpha virt. eigenvalues --    0.87791   0.89840   0.90329   0.91441   0.95760
 Alpha virt. eigenvalues --    0.95949   0.99070   1.00028   1.02054   1.02747
 Alpha virt. eigenvalues --    1.06916   1.10481   1.11284   1.16786   1.17790
 Alpha virt. eigenvalues --    1.20829   1.23678   1.31875   1.32355   1.36906
 Alpha virt. eigenvalues --    1.38064   1.40080   1.41583   1.41919   1.43661
 Alpha virt. eigenvalues --    1.45867   1.46574   1.47998   1.49929   1.50351
 Alpha virt. eigenvalues --    1.51919   1.52316   1.55381   1.56607   1.57368
 Alpha virt. eigenvalues --    1.57702   1.58374   1.59148   1.59608   1.63157
 Alpha virt. eigenvalues --    1.69755   1.70005   1.70915   1.71442   1.73440
 Alpha virt. eigenvalues --    1.78260   1.78650   1.80702   1.83888   1.86962
 Alpha virt. eigenvalues --    1.87925   1.89280   1.91139   1.93517   1.95413
 Alpha virt. eigenvalues --    1.97410   1.97907   1.98844   2.02842   2.05425
 Alpha virt. eigenvalues --    2.06411   2.09782   2.14929   2.18557   2.20599
 Alpha virt. eigenvalues --    2.23676   2.23763   2.30536   2.32470   2.32908
 Alpha virt. eigenvalues --    2.36124   2.36431   2.37829   2.42744   2.42983
 Alpha virt. eigenvalues --    2.47229   2.48521   2.51721   2.52709   2.53898
 Alpha virt. eigenvalues --    2.54817   2.55816   2.56784   2.58740   2.61232
 Alpha virt. eigenvalues --    2.62648   2.65575   2.67816   2.72463   2.74420
 Alpha virt. eigenvalues --    2.74837   2.82021   2.87089   2.87456   2.90181
 Alpha virt. eigenvalues --    2.90979   2.94297   2.95355   3.03174   3.05984
 Alpha virt. eigenvalues --    3.07930   3.09616   3.15113   3.15877   3.17011
 Alpha virt. eigenvalues --    3.19647   3.22431   3.33725   3.37031   3.43077
 Alpha virt. eigenvalues --    3.44036   3.53325   3.60387   3.63064   3.69993
 Alpha virt. eigenvalues --    3.78567   3.78880   3.81931   3.84745   3.87600
 Alpha virt. eigenvalues --    3.87728   4.01671   4.06855   4.11406   4.30539
 Alpha virt. eigenvalues --    4.35375   4.77052   4.85775   4.85899   5.35467
 Alpha virt. eigenvalues --    5.37739   5.65550   5.73638  23.44362  23.87435
 Alpha virt. eigenvalues --   23.88490  23.93544  23.94219  24.05072  24.08869
 Alpha virt. eigenvalues --   24.16455  49.88210  49.94367
  Beta  occ. eigenvalues --  -19.15857 -19.13868 -10.23133 -10.22131 -10.17518
  Beta  occ. eigenvalues --  -10.17384 -10.16908 -10.16553 -10.15965 -10.15911
  Beta  occ. eigenvalues --   -1.07787  -1.04679  -0.85458  -0.77848  -0.75372
  Beta  occ. eigenvalues --   -0.68716  -0.68347  -0.63247  -0.57890  -0.54592
  Beta  occ. eigenvalues --   -0.53065  -0.48917  -0.44803  -0.43883  -0.42180
  Beta  occ. eigenvalues --   -0.41463  -0.41064  -0.40316  -0.39984  -0.38645
  Beta  occ. eigenvalues --   -0.36725  -0.36276  -0.35274  -0.33886  -0.31498
  Beta  occ. eigenvalues --   -0.23308  -0.20719
  Beta virt. eigenvalues --    0.00000   0.01642   0.01954   0.05090   0.06336
  Beta virt. eigenvalues --    0.07776   0.09119   0.10361   0.11188   0.12257
  Beta virt. eigenvalues --    0.13466   0.15611   0.18705   0.19618   0.21746
  Beta virt. eigenvalues --    0.22938   0.24567   0.28947   0.29382   0.30698
  Beta virt. eigenvalues --    0.31905   0.32980   0.33690   0.34341   0.35376
  Beta virt. eigenvalues --    0.36704   0.39249   0.40137   0.42372   0.42737
  Beta virt. eigenvalues --    0.43952   0.45172   0.47878   0.48375   0.49390
  Beta virt. eigenvalues --    0.49464   0.50646   0.51996   0.53351   0.53990
  Beta virt. eigenvalues --    0.55626   0.57176   0.57533   0.59121   0.60233
  Beta virt. eigenvalues --    0.60912   0.61781   0.62318   0.64954   0.66217
  Beta virt. eigenvalues --    0.66981   0.68415   0.70598   0.77800   0.78306
  Beta virt. eigenvalues --    0.79553   0.80394   0.84112   0.85610   0.87230
  Beta virt. eigenvalues --    0.87791   0.89840   0.90329   0.91441   0.95760
  Beta virt. eigenvalues --    0.95949   0.99070   1.00028   1.02054   1.02747
  Beta virt. eigenvalues --    1.06916   1.10481   1.11284   1.16786   1.17790
  Beta virt. eigenvalues --    1.20829   1.23678   1.31875   1.32355   1.36906
  Beta virt. eigenvalues --    1.38064   1.40080   1.41583   1.41919   1.43661
  Beta virt. eigenvalues --    1.45867   1.46574   1.47998   1.49929   1.50351
  Beta virt. eigenvalues --    1.51919   1.52316   1.55381   1.56607   1.57368
  Beta virt. eigenvalues --    1.57702   1.58374   1.59148   1.59608   1.63157
  Beta virt. eigenvalues --    1.69755   1.70005   1.70915   1.71442   1.73440
  Beta virt. eigenvalues --    1.78260   1.78650   1.80702   1.83888   1.86962
  Beta virt. eigenvalues --    1.87925   1.89280   1.91139   1.93517   1.95413
  Beta virt. eigenvalues --    1.97410   1.97907   1.98844   2.02842   2.05425
  Beta virt. eigenvalues --    2.06411   2.09782   2.14929   2.18557   2.20599
  Beta virt. eigenvalues --    2.23676   2.23763   2.30536   2.32470   2.32908
  Beta virt. eigenvalues --    2.36124   2.36431   2.37829   2.42744   2.42983
  Beta virt. eigenvalues --    2.47229   2.48521   2.51721   2.52709   2.53898
  Beta virt. eigenvalues --    2.54817   2.55816   2.56784   2.58740   2.61232
  Beta virt. eigenvalues --    2.62648   2.65575   2.67816   2.72463   2.74420
  Beta virt. eigenvalues --    2.74837   2.82021   2.87089   2.87456   2.90181
  Beta virt. eigenvalues --    2.90979   2.94297   2.95355   3.03174   3.05984
  Beta virt. eigenvalues --    3.07930   3.09616   3.15113   3.15877   3.17011
  Beta virt. eigenvalues --    3.19647   3.22431   3.33725   3.37031   3.43077
  Beta virt. eigenvalues --    3.44036   3.53325   3.60387   3.63064   3.69993
  Beta virt. eigenvalues --    3.78567   3.78880   3.81931   3.84745   3.87600
  Beta virt. eigenvalues --    3.87728   4.01671   4.06855   4.11406   4.30539
  Beta virt. eigenvalues --    4.35375   4.77052   4.85775   4.85899   5.35467
  Beta virt. eigenvalues --    5.37739   5.65550   5.73638  23.44362  23.87435
  Beta virt. eigenvalues --   23.88490  23.93544  23.94219  24.05072  24.08869
  Beta virt. eigenvalues --   24.16455  49.88210  49.94367
          Condensed to atoms (all electrons):
               1          2          3          4          5          6
     1  C    4.813867   0.546450  -0.044995  -0.071194  -0.050846   0.554363
     2  C    0.546450   5.105818   0.510861  -0.062465  -0.052358  -0.044665
     3  C   -0.044995   0.510861   4.858643   0.340223  -0.012941  -0.049001
     4  C   -0.071194  -0.062465   0.340223   5.113933   0.378780   0.000501
     5  C   -0.050846  -0.052358  -0.012941   0.378780   5.107614   0.430421
     6  C    0.554363  -0.044665  -0.049001   0.000501   0.430421   5.037394
     7  H    0.006952   0.000417   0.005112  -0.045735   0.396606  -0.023308
     8  O    0.000464   0.002444  -0.066071   0.337437  -0.069881   0.005849
     9  O    0.004751  -0.094592   0.412822  -0.088007   0.006551  -0.000848
    10  H   -0.000078  -0.000413   0.008163  -0.045767  -0.005400   0.000939
    11  C   -0.065358   0.341719  -0.069025   0.015632  -0.001809   0.009298
    12  H   -0.012071  -0.036428   0.009664  -0.000151  -0.000027   0.000561
    13  H    0.001620  -0.033633  -0.009369   0.000419  -0.000007  -0.000216
    14  H    0.001623  -0.033616  -0.009357   0.000422  -0.000009  -0.000221
    15  H   -0.000179   0.011126  -0.045354  -0.023525   0.002855  -0.000502
    16  H    0.412918  -0.044859   0.011519  -0.001665   0.011136  -0.046873
    17  C   -0.055688   0.007999  -0.000233   0.003973  -0.051702   0.355054
    18  H    0.000695  -0.000303   0.000053   0.000229  -0.004876  -0.038429
    19  H    0.000857  -0.000305   0.000051   0.000245  -0.004931  -0.038514
    20  H   -0.007859   0.000586   0.000005  -0.000227   0.006601  -0.034133
               7          8          9         10         11         12
     1  C    0.006952   0.000464   0.004751  -0.000078  -0.065358  -0.012071
     2  C    0.000417   0.002444  -0.094592  -0.000413   0.341719  -0.036428
     3  C    0.005112  -0.066071   0.412822   0.008163  -0.069025   0.009664
     4  C   -0.045735   0.337437  -0.088007  -0.045767   0.015632  -0.000151
     5  C    0.396606  -0.069881   0.006551  -0.005400  -0.001809  -0.000027
     6  C   -0.023308   0.005849  -0.000848   0.000939   0.009298   0.000561
     7  H    0.587394  -0.003533  -0.000109   0.005594   0.000043   0.000001
     8  O   -0.003533   7.857607  -0.004146   0.332014  -0.000091   0.000003
     9  O   -0.000109  -0.004146   7.787941  -0.000178   0.006748   0.000196
    10  H    0.005594   0.332014  -0.000178   0.445247   0.000037  -0.000001
    11  C    0.000043  -0.000091   0.006748   0.000037   4.799296   0.406104
    12  H    0.000001   0.000003   0.000196  -0.000001   0.406104   0.585914
    13  H   -0.000001   0.000001   0.005081   0.000001   0.400682  -0.028300
    14  H   -0.000001   0.000001   0.005087   0.000001   0.400643  -0.028301
    15  H   -0.000055   0.023963   0.330940  -0.001986  -0.000676   0.000023
    16  H   -0.000425   0.000011  -0.000100  -0.000010  -0.012722   0.004381
    17  C   -0.005820  -0.000094   0.000001  -0.000010  -0.000200  -0.000041
    18  H    0.001310  -0.000005   0.000000   0.000002   0.000013   0.000002
    19  H    0.001344  -0.000006   0.000000   0.000002   0.000013   0.000002
    20  H   -0.000024   0.000002   0.000000   0.000000  -0.000042  -0.000007
              13         14         15         16         17         18
     1  C    0.001620   0.001623  -0.000179   0.412918  -0.055688   0.000695
     2  C   -0.033633  -0.033616   0.011126  -0.044859   0.007999  -0.000303
     3  C   -0.009369  -0.009357  -0.045354   0.011519  -0.000233   0.000053
     4  C    0.000419   0.000422  -0.023525  -0.001665   0.003973   0.000229
     5  C   -0.000007  -0.000009   0.002855   0.011136  -0.051702  -0.004876
     6  C   -0.000216  -0.000221  -0.000502  -0.046873   0.355054  -0.038429
     7  H   -0.000001  -0.000001  -0.000055  -0.000425  -0.005820   0.001310
     8  O    0.000001   0.000001   0.023963   0.000011  -0.000094  -0.000005
     9  O    0.005081   0.005087   0.330940  -0.000100   0.000001   0.000000
    10  H    0.000001   0.000001  -0.001986  -0.000010  -0.000010   0.000002
    11  C    0.400682   0.400643  -0.000676  -0.012722  -0.000200   0.000013
    12  H   -0.028300  -0.028301   0.000023   0.004381  -0.000041   0.000002
    13  H    0.574135  -0.033315  -0.000191   0.000057   0.000014  -0.000002
    14  H   -0.033315   0.574139  -0.000191   0.000061   0.000014   0.000000
    15  H   -0.000191  -0.000191   0.447910   0.000038   0.000004   0.000000
    16  H    0.000057   0.000061   0.000038   0.603663  -0.010953   0.000121
    17  C    0.000014   0.000014   0.000004  -0.010953   4.807701   0.401077
    18  H   -0.000002   0.000000   0.000000   0.000121   0.401077   0.584749
    19  H    0.000000  -0.000002   0.000000   0.000116   0.401308  -0.034716
    20  H    0.000002   0.000001   0.000000   0.004266   0.407427  -0.027274
              19         20
     1  C    0.000857  -0.007859
     2  C   -0.000305   0.000586
     3  C    0.000051   0.000005
     4  C    0.000245  -0.000227
     5  C   -0.004931   0.006601
     6  C   -0.038514  -0.034133
     7  H    0.001344  -0.000024
     8  O   -0.000006   0.000002
     9  O    0.000000   0.000000
    10  H    0.000002   0.000000
    11  C    0.000013  -0.000042
    12  H    0.000002  -0.000007
    13  H    0.000000   0.000002
    14  H   -0.000002   0.000001
    15  H    0.000000   0.000000
    16  H    0.000116   0.004266
    17  C    0.401308   0.407427
    18  H   -0.034716  -0.027274
    19  H    0.584729  -0.027263
    20  H   -0.027263   0.572498
          Atomic-Atomic Spin Densities.
               1          2          3          4          5          6
     1  C    0.000000   0.000000   0.000000   0.000000   0.000000   0.000000
     2  C    0.000000   0.000000   0.000000   0.000000   0.000000   0.000000
     3  C    0.000000   0.000000   0.000000   0.000000   0.000000   0.000000
     4  C    0.000000   0.000000   0.000000   0.000000   0.000000   0.000000
     5  C    0.000000   0.000000   0.000000   0.000000   0.000000   0.000000
     6  C    0.000000   0.000000   0.000000   0.000000   0.000000   0.000000
     7  H    0.000000   0.000000   0.000000   0.000000   0.000000   0.000000
     8  O    0.000000   0.000000   0.000000   0.000000   0.000000   0.000000
     9  O    0.000000   0.000000   0.000000   0.000000   0.000000   0.000000
    10  H    0.000000   0.000000   0.000000   0.000000   0.000000   0.000000
    11  C    0.000000   0.000000   0.000000   0.000000   0.000000   0.000000
    12  H    0.000000   0.000000   0.000000   0.000000   0.000000   0.000000
    13  H    0.000000   0.000000   0.000000   0.000000   0.000000   0.000000
    14  H    0.000000   0.000000   0.000000   0.000000   0.000000   0.000000
    15  H    0.000000   0.000000   0.000000   0.000000   0.000000   0.000000
    16  H    0.000000   0.000000   0.000000   0.000000   0.000000   0.000000
    17  C    0.000000   0.000000   0.000000   0.000000   0.000000   0.000000
    18  H    0.000000   0.000000   0.000000   0.000000   0.000000   0.000000
    19  H    0.000000   0.000000   0.000000   0.000000   0.000000   0.000000
    20  H    0.000000   0.000000   0.000000   0.000000   0.000000   0.000000
               7          8          9         10         11         12
     1  C    0.000000   0.000000   0.000000   0.000000   0.000000   0.000000
     2  C    0.000000   0.000000   0.000000   0.000000   0.000000   0.000000
     3  C    0.000000   0.000000   0.000000   0.000000   0.000000   0.000000
     4  C    0.000000   0.000000   0.000000   0.000000   0.000000   0.000000
     5  C    0.000000   0.000000   0.000000   0.000000   0.000000   0.000000
     6  C    0.000000   0.000000   0.000000   0.000000   0.000000   0.000000
     7  H    0.000000   0.000000   0.000000   0.000000   0.000000   0.000000
     8  O    0.000000   0.000000   0.000000   0.000000   0.000000   0.000000
     9  O    0.000000   0.000000   0.000000   0.000000   0.000000   0.000000
    10  H    0.000000   0.000000   0.000000   0.000000   0.000000   0.000000
    11  C    0.000000   0.000000   0.000000   0.000000   0.000000   0.000000
    12  H    0.000000   0.000000   0.000000   0.000000   0.000000   0.000000
    13  H    0.000000   0.000000   0.000000   0.000000   0.000000   0.000000
    14  H    0.000000   0.000000   0.000000   0.000000   0.000000   0.000000
    15  H    0.000000   0.000000   0.000000   0.000000   0.000000   0.000000
    16  H    0.000000   0.000000   0.000000   0.000000   0.000000   0.000000
    17  C    0.000000   0.000000   0.000000   0.000000   0.000000   0.000000
    18  H    0.000000   0.000000   0.000000   0.000000   0.000000   0.000000
    19  H    0.000000   0.000000   0.000000   0.000000   0.000000   0.000000
    20  H    0.000000   0.000000   0.000000   0.000000   0.000000   0.000000
              13         14         15         16         17         18
     1  C    0.000000   0.000000   0.000000   0.000000   0.000000   0.000000
     2  C    0.000000   0.000000   0.000000   0.000000   0.000000   0.000000
     3  C    0.000000   0.000000   0.000000   0.000000   0.000000   0.000000
     4  C    0.000000   0.000000   0.000000   0.000000   0.000000   0.000000
     5  C    0.000000   0.000000   0.000000   0.000000   0.000000   0.000000
     6  C    0.000000   0.000000   0.000000   0.000000   0.000000   0.000000
     7  H    0.000000   0.000000   0.000000   0.000000   0.000000   0.000000
     8  O    0.000000   0.000000   0.000000   0.000000   0.000000   0.000000
     9  O    0.000000   0.000000   0.000000   0.000000   0.000000   0.000000
    10  H    0.000000   0.000000   0.000000   0.000000   0.000000   0.000000
    11  C    0.000000   0.000000   0.000000   0.000000   0.000000   0.000000
    12  H    0.000000   0.000000   0.000000   0.000000   0.000000   0.000000
    13  H    0.000000   0.000000   0.000000   0.000000   0.000000   0.000000
    14  H    0.000000   0.000000   0.000000   0.000000   0.000000   0.000000
    15  H    0.000000   0.000000   0.000000   0.000000   0.000000   0.000000
    16  H    0.000000   0.000000   0.000000   0.000000   0.000000   0.000000
    17  C    0.000000   0.000000   0.000000   0.000000   0.000000   0.000000
    18  H    0.000000   0.000000   0.000000   0.000000   0.000000   0.000000
    19  H    0.000000   0.000000   0.000000   0.000000   0.000000   0.000000
    20  H    0.000000   0.000000   0.000000   0.000000   0.000000   0.000000
              19         20
     1  C    0.000000   0.000000
     2  C    0.000000   0.000000
     3  C    0.000000   0.000000
     4  C    0.000000   0.000000
     5  C    0.000000   0.000000
     6  C    0.000000   0.000000
     7  H    0.000000   0.000000
     8  O    0.000000   0.000000
     9  O    0.000000   0.000000
    10  H    0.000000   0.000000
    11  C    0.000000   0.000000
    12  H    0.000000   0.000000
    13  H    0.000000   0.000000
    14  H    0.000000   0.000000
    15  H    0.000000   0.000000
    16  H    0.000000   0.000000
    17  C    0.000000   0.000000
    18  H    0.000000   0.000000
    19  H    0.000000   0.000000
    20  H    0.000000   0.000000
 Mulliken charges and spin densities:
               1          2
     1  C   -0.036293   0.000000
     2  C   -0.123783   0.000000
     3  C    0.149230   0.000000
     4  C    0.146941   0.000000
     5  C   -0.085777   0.000000
     6  C   -0.117671   0.000000
     7  H    0.074239   0.000000
     8  O   -0.415968   0.000000
     9  O   -0.372136   0.000000
    10  H    0.261843   0.000000
    11  C   -0.230308   0.000000
    12  H    0.098478   0.000000
    13  H    0.123023   0.000000
    14  H    0.123021   0.000000
    15  H    0.255800   0.000000
    16  H    0.069318   0.000000
    17  C   -0.259829   0.000000
    18  H    0.117357   0.000000
    19  H    0.117071   0.000000
    20  H    0.105442   0.000000
 Sum of Mulliken charges =   0.00000   0.00000
 Mulliken charges and spin densities with hydrogens summed into heavy atoms:
               1          2
     1  C    0.033026   0.000000
     2  C   -0.123783   0.000000
     3  C    0.149230   0.000000
     4  C    0.146941   0.000000
     5  C   -0.011538   0.000000
     6  C   -0.117671   0.000000
     8  O   -0.154125   0.000000
     9  O   -0.116336   0.000000
    11  C    0.114214   0.000000
    17  C    0.080041   0.000000
 Electronic spatial extent (au):  <R**2>=           1531.0542
 Charge=              0.0000 electrons
 Dipole moment (field-independent basis, Debye):
    X=              1.2764    Y=             -1.8787    Z=              0.0005  Tot=              2.2713
 Quadrupole moment (field-independent basis, Debye-Ang):
   XX=            -58.8295   YY=            -49.0577   ZZ=            -62.5663
   XY=              0.3372   XZ=              0.0021   YZ=              0.0004
 Traceless Quadrupole moment (field-independent basis, Debye-Ang):
   XX=             -2.0116   YY=              7.7601   ZZ=             -5.7485
   XY=              0.3372   XZ=              0.0021   YZ=              0.0004
 Octapole moment (field-independent basis, Debye-Ang**2):
  XXX=             -9.4785  YYY=            -37.9333  ZZZ=              0.0185  XYY=             -2.1901
  XXY=             -9.9313  XXZ=              0.0027  XZZ=             -7.0277  YZZ=             -4.3587
  YYZ=             -0.0172  XYZ=              0.0004
 Hexadecapole moment (field-independent basis, Debye-Ang**3):
 XXXX=          -1120.4776 YYYY=           -674.5377 ZZZZ=            -78.8625 XXXY=             41.0693
 XXXZ=             -0.0256 YYYX=              9.7189 YYYZ=              0.0234 ZZZX=              0.0334
 ZZZY=              0.0277 XXYY=           -311.1219 XXZZ=           -201.8446 YYZZ=           -152.7418
 XXYZ=              0.0126 YYXZ=             -0.0605 ZZXY=              0.5669
 N-N= 5.184505527102D+02 E-N=-2.114171748615D+03  KE= 4.596911869113D+02
                          Isotropic Fermi Contact Couplings
        Atom                 a.u.       MegaHertz       Gauss      10(-4) cm-1
     1  C(13)              0.00000       0.00000       0.00000       0.00000
     2  C(13)              0.00000       0.00000       0.00000       0.00000
     3  C(13)              0.00000       0.00000       0.00000       0.00000
     4  C(13)              0.00000       0.00000       0.00000       0.00000
     5  C(13)              0.00000       0.00000       0.00000       0.00000
     6  C(13)              0.00000       0.00000       0.00000       0.00000
     7  H(1)               0.00000       0.00000       0.00000       0.00000
     8  O(17)              0.00000       0.00000       0.00000       0.00000
     9  O(17)              0.00000       0.00000       0.00000       0.00000
    10  H(1)               0.00000       0.00000       0.00000       0.00000
    11  C(13)              0.00000       0.00000       0.00000       0.00000
    12  H(1)               0.00000       0.00000       0.00000       0.00000
    13  H(1)               0.00000       0.00000       0.00000       0.00000
    14  H(1)               0.00000       0.00000       0.00000       0.00000
    15  H(1)               0.00000       0.00000       0.00000       0.00000
    16  H(1)               0.00000       0.00000       0.00000       0.00000
    17  C(13)              0.00000       0.00000       0.00000       0.00000
    18  H(1)               0.00000       0.00000       0.00000       0.00000
    19  H(1)               0.00000       0.00000       0.00000       0.00000
    20  H(1)               0.00000       0.00000       0.00000       0.00000
 --------------------------------------------------------
       Center         ----  Spin Dipole Couplings  ----
                      3XX-RR        3YY-RR        3ZZ-RR
 --------------------------------------------------------
     1   Atom        0.000000      0.000000      0.000000
     2   Atom        0.000000      0.000000      0.000000
     3   Atom        0.000000      0.000000      0.000000
     4   Atom        0.000000      0.000000      0.000000
     5   Atom        0.000000      0.000000      0.000000
     6   Atom        0.000000      0.000000      0.000000
     7   Atom        0.000000      0.000000      0.000000
     8   Atom        0.000000      0.000000      0.000000
     9   Atom        0.000000      0.000000      0.000000
    10   Atom        0.000000      0.000000      0.000000
    11   Atom        0.000000      0.000000      0.000000
    12   Atom        0.000000      0.000000      0.000000
    13   Atom        0.000000      0.000000      0.000000
    14   Atom        0.000000      0.000000      0.000000
    15   Atom        0.000000      0.000000      0.000000
    16   Atom        0.000000      0.000000      0.000000
    17   Atom        0.000000      0.000000      0.000000
    18   Atom        0.000000      0.000000      0.000000
    19   Atom        0.000000      0.000000      0.000000
    20   Atom        0.000000      0.000000      0.000000
 --------------------------------------------------------
                        XY            XZ            YZ
 --------------------------------------------------------
     1   Atom        0.000000      0.000000      0.000000
     2   Atom        0.000000      0.000000      0.000000
     3   Atom        0.000000      0.000000      0.000000
     4   Atom        0.000000      0.000000      0.000000
     5   Atom        0.000000      0.000000      0.000000
     6   Atom        0.000000      0.000000      0.000000
     7   Atom        0.000000      0.000000      0.000000
     8   Atom        0.000000      0.000000      0.000000
     9   Atom        0.000000      0.000000      0.000000
    10   Atom        0.000000      0.000000      0.000000
    11   Atom        0.000000      0.000000      0.000000
    12   Atom        0.000000      0.000000      0.000000
    13   Atom        0.000000      0.000000      0.000000
    14   Atom        0.000000      0.000000      0.000000
    15   Atom        0.000000      0.000000      0.000000
    16   Atom        0.000000      0.000000      0.000000
    17   Atom        0.000000      0.000000      0.000000
    18   Atom        0.000000      0.000000      0.000000
    19   Atom        0.000000      0.000000      0.000000
    20   Atom        0.000000      0.000000      0.000000
 --------------------------------------------------------


 ---------------------------------------------------------------------------------
              Anisotropic Spin Dipole Couplings in Principal Axis System
 ---------------------------------------------------------------------------------

       Atom             a.u.   MegaHertz   Gauss  10(-4) cm-1        Axes

              Baa     0.0000     0.000     0.000     0.000 -0.5788  0.8153  0.0149
     1 C(13)  Bbb     0.0000     0.000     0.000     0.000  0.0025 -0.0164  0.9999
              Bcc     0.0000     0.000     0.000     0.000  0.8154  0.5788  0.0074
 
              Baa     0.0000     0.000     0.000     0.000  0.6143  0.7891  0.0041
     2 C(13)  Bbb     0.0000     0.000     0.000     0.000  0.7806 -0.6084  0.1430
              Bcc     0.0000     0.000     0.000     0.000 -0.1153  0.0846  0.9897
 
              Baa     0.0000     0.000     0.000     0.000 -0.2045  0.9788  0.0080
     3 C(13)  Bbb     0.0000     0.000     0.000     0.000  0.8520  0.1820 -0.4909
              Bcc     0.0000     0.000     0.000     0.000  0.4820  0.0936  0.8712
 
              Baa     0.0000     0.000     0.000     0.000  0.0703 -0.0525  0.9961
     4 C(13)  Bbb     0.0000     0.000     0.000     0.000 -0.6670  0.7401  0.0861
              Bcc     0.0000     0.000     0.000     0.000  0.7417  0.6705 -0.0170
 
              Baa     0.0000     0.000     0.000     0.000 -0.5451  0.8379 -0.0274
     5 C(13)  Bbb     0.0000     0.000     0.000     0.000  0.8383  0.5453  0.0004
              Bcc     0.0000     0.000     0.000     0.000 -0.0153  0.0228  0.9996
 
              Baa     0.0000     0.000     0.000     0.000 -0.3313  0.0781  0.9403
     6 C(13)  Bbb     0.0000     0.000     0.000     0.000  0.8701 -0.3601  0.3365
              Bcc     0.0000     0.000     0.000     0.000  0.3648  0.9297  0.0514
 
              Baa     0.0000     0.000     0.000     0.000 -0.6020  0.7985  0.0024
     7 H(1)   Bbb     0.0000     0.000     0.000     0.000 -0.0303 -0.0259  0.9992
              Bcc     0.0000     0.000     0.000     0.000  0.7979  0.6014  0.0398
 
              Baa     0.0000     0.000     0.000     0.000 -0.4170  0.9088 -0.0105
     8 O(17)  Bbb     0.0000     0.000     0.000     0.000  0.9074  0.4156 -0.0616
              Bcc     0.0000     0.000     0.000     0.000  0.0517  0.0352  0.9980
 
              Baa     0.0000     0.000     0.000     0.000  0.3262  0.9453 -0.0104
     9 O(17)  Bbb     0.0000     0.000     0.000     0.000  0.9447 -0.3263 -0.0330
              Bcc     0.0000     0.000     0.000     0.000  0.0346 -0.0009  0.9994
 
              Baa     0.0000     0.000     0.000     0.000 -0.3904  0.9203 -0.0249
    10 H(1)   Bbb     0.0000     0.000     0.000     0.000  0.9207  0.3902 -0.0105
              Bcc     0.0000     0.000     0.000     0.000  0.0000  0.0271  0.9996
 
              Baa     0.0000     0.000     0.000     0.000  0.8109 -0.2488  0.5296
    11 C(13)  Bbb     0.0000     0.000     0.000     0.000 -0.5094  0.1451  0.8482
              Bcc     0.0000     0.000     0.000     0.000  0.2879  0.9576  0.0090
 
              Baa     0.0000     0.000     0.000     0.000 -0.5435  0.8366  0.0694
    12 H(1)   Bbb     0.0000     0.000     0.000     0.000  0.1633  0.0243  0.9863
              Bcc     0.0000     0.000     0.000     0.000  0.8234  0.5473 -0.1498
 
              Baa     0.0000     0.000     0.000     0.000 -0.5030  0.8269  0.2514
    13 H(1)   Bbb     0.0000     0.000     0.000     0.000  0.4862  0.0303  0.8733
              Bcc     0.0000     0.000     0.000     0.000  0.7145  0.5615 -0.4173
 
              Baa     0.0000     0.000     0.000     0.000 -0.5209  0.8254 -0.2176
    14 H(1)   Bbb     0.0000     0.000     0.000     0.000 -0.4995 -0.0881  0.8618
              Bcc     0.0000     0.000     0.000     0.000  0.6922  0.5576  0.4582
 
              Baa     0.0000     0.000     0.000     0.000 -0.2202  0.9733 -0.0642
    15 H(1)   Bbb     0.0000     0.000     0.000     0.000 -0.1078  0.0411  0.9933
              Bcc     0.0000     0.000     0.000     0.000  0.9695  0.2256  0.0959
 
              Baa     0.0000     0.000     0.000     0.000  0.9799 -0.1936  0.0475
    16 H(1)   Bbb     0.0000     0.000     0.000     0.000 -0.0290  0.0977  0.9948
              Bcc     0.0000     0.000     0.000     0.000  0.1972  0.9762 -0.0902
 
              Baa     0.0000     0.000     0.000     0.000  0.2339  0.5186  0.8224
    17 C(13)  Bbb     0.0000     0.000     0.000     0.000  0.5013  0.6604 -0.5590
              Bcc     0.0000     0.000     0.000     0.000  0.8331 -0.5430  0.1055
 
              Baa     0.0000     0.000     0.000     0.000  0.3827  0.7109 -0.5900
    18 H(1)   Bbb     0.0000     0.000     0.000     0.000 -0.3941  0.7032  0.5917
              Bcc     0.0000     0.000     0.000     0.000  0.8356  0.0061  0.5493
 
              Baa     0.0000     0.000     0.000     0.000  0.2727  0.8286  0.4890
    19 H(1)   Bbb     0.0000     0.000     0.000     0.000  0.6382 -0.5361  0.5525
              Bcc     0.0000     0.000     0.000     0.000  0.7200  0.1614 -0.6750
 
              Baa     0.0000     0.000     0.000     0.000 -0.0873  0.9675  0.2372
    20 H(1)   Bbb     0.0000     0.000     0.000     0.000  0.0883 -0.2297  0.9692
              Bcc     0.0000     0.000     0.000     0.000  0.9923  0.1056 -0.0653
 

 ---------------------------------------------------------------------------------

 1|1|UNPC-PC-20250526LCFF|SP|UB3LYP|6-311G(d,p)|C8H10O2|ADMINISTRATOR|0
 2-Dec-2025|0||# ub3lyp/6-311g(d,p) geom=connectivity temperature=823.1
 5||Title Card Required||0,1|C,0,0.918831,1.23084,-0.000284|C,0,-0.4805
 8,1.183555,-0.00011|C,0,-1.100036,-0.065309,0.000092|C,0,-0.32451,-1.2
 31209,0.000046|C,0,1.060899,-1.163162,-0.000137|C,0,1.705846,0.07999,-
 0.000239|H,0,1.642304,-2.081958,-0.000238|O,0,-1.045289,-2.406916,0.00
 0079|O,0,-2.46562,-0.143107,0.000156|H,0,-0.444246,-3.157546,-0.000103
 |C,0,-1.326132,2.430042,-0.000265|H,0,-0.701359,3.324839,-0.000623|H,0
 ,-1.979225,2.463956,0.87685|H,0,-1.979587,2.463493,-0.877127|H,0,-2.70
 349,-1.078942,0.000165|H,0,1.402482,2.202703,-0.000509|C,0,3.214469,0.
 157385,0.000476|H,0,3.64062,-0.324831,0.886446|H,0,3.642263,-0.339086,
 -0.876715|H,0,3.554795,1.194765,-0.007498||Version=EM64W-G16RevA.03|St
 ate=1-A|HF=-461.4513306|S2=0.|S2-1=0.|S2A=0.|RMSD=2.900e-009|Dipole=0.
 5021697,-0.7391498,0.0001871|Quadrupole=-1.4955961,5.7694474,-4.273851
 3,0.250668,0.0015797,0.0003055|PG=C01 [X(C8H10O2)]||@


      LET US REMEMBER, PLEASE, THAT THE SEARCH FOR THE CONSTITUTION
      OF THE WORLD IS ONE OF THE GREATEST AND NOBLEST PROBLEMS PRESENTED 
      BY NATURE.

                                                  -- GALILEO
 Job cpu time:       0 days  0 hours  0 minutes 34.0 seconds.
 Elapsed time:       0 days  0 hours  0 minutes 33.1 seconds.
 File lengths (MBytes):  RWF=     59 Int=      0 D2E=      0 Chk=      5 Scr=      1
 Normal termination of Gaussian 16 at Tue Dec 02 11:32:31 2025.
