Title Card Required                                                     
SP        UB3LYP                                                      6-311G(d,p)         
Number of atoms                            I               15
Info1-9                                    I   N=           9
          41          40           0           0           0         110
           1          18        -502
Full Title                                 C   N=           2
Title Card Required     
Route                                      C   N=           5
# ub3lyp/6-311g(d,p) geom=connectivity temperature=823.15   
Charge                                     I                0
Multiplicity                               I                2
Number of electrons                        I               57
Number of alpha electrons                  I               29
Number of beta electrons                   I               28
Number of basis functions                  I              186
Number of independent functions            I              186
Number of point charges in /Mol/           I                0
Number of translation vectors              I                0
Atomic numbers                             I   N=          15
           6           6           6           6           6           6
           1           1           1           8           1           6
           1           1           1
Nuclear charges                            R   N=          15
  6.00000000E+00  6.00000000E+00  6.00000000E+00  6.00000000E+00  6.00000000E+00
  6.00000000E+00  1.00000000E+00  1.00000000E+00  1.00000000E+00  8.00000000E+00
  1.00000000E+00  6.00000000E+00  1.00000000E+00  1.00000000E+00  1.00000000E+00
Current cartesian coordinates              R   N=          45
 -6.19699199E-01  3.32993937E+00  2.02233848E-06 -2.71445705E+00  1.79165159E+00
  3.41476826E-05 -2.43326620E+00 -9.36198351E-01 -1.75711376E-06  1.25250870E-01
 -1.92733739E+00 -6.60078020E-05  2.20912012E+00 -3.71426021E-01 -4.52208146E-05
  1.81813617E+00  2.27824407E+00 -3.95516363E-05 -8.32102233E-01  5.36831138E+00
  1.90298736E-05 -4.62202208E+00  2.53502665E+00  1.19185358E-04  3.44716341E+00
  3.52413649E+00 -9.81331461E-05 -4.31181669E+00 -2.37213104E+00  1.52504214E-05
  3.09122818E-01 -3.96847596E+00 -1.11361229E-04  4.86563271E+00 -1.40965138E+00
  5.30449438E-05  5.91271115E+00 -7.70944892E-01 -1.66485614E+00  5.91240879E+00
 -7.71273704E-01  1.66529671E+00  4.86294711E+00 -3.47106291E+00 -1.11361229E-04
Number of symbols in /Mol/                 I                0
Force Field                                I                0
Atom Types                                 C   N=          15
                                                            
                                                            
                                                            
Int Atom Types                             I   N=          15
           0           0           0           0           0           0
           0           0           0           0           0           0
           0           0           0
MM charges                                 R   N=          15
  0.00000000E+00  0.00000000E+00  0.00000000E+00  0.00000000E+00  0.00000000E+00
  0.00000000E+00  0.00000000E+00  0.00000000E+00  0.00000000E+00  0.00000000E+00
  0.00000000E+00  0.00000000E+00  0.00000000E+00  0.00000000E+00  0.00000000E+00
Integer atomic weights                     I   N=          15
          12          12          12          12          12          12
           1           1           1          16           1          12
           1           1           1
Real atomic weights                        R   N=          15
  1.20000000E+01  1.20000000E+01  1.20000000E+01  1.20000000E+01  1.20000000E+01
  1.20000000E+01  1.00782504E+00  1.00782504E+00  1.00782504E+00  1.59949146E+01
  1.00782504E+00  1.20000000E+01  1.00782504E+00  1.00782504E+00  1.00782504E+00
Atom fragment info                         I   N=          15
           0           0           0           0           0           0
           0           0           0           0           0           0
           0           0           0
Atom residue num                           I   N=          15
           0           0           0           0           0           0
           0           0           0           0           0           0
           0           0           0
Nuclear spins                              I   N=          15
           0           0           0           0           0           0
           1           1           1           0           1           0
           1           1           1
Nuclear ZEff                               R   N=          15
 -3.60000000E+00 -3.60000000E+00 -3.60000000E+00 -3.60000000E+00 -3.60000000E+00
 -3.60000000E+00 -1.00000000E+00 -1.00000000E+00 -1.00000000E+00 -5.60000000E+00
 -1.00000000E+00 -3.60000000E+00 -1.00000000E+00 -1.00000000E+00 -1.00000000E+00
Nuclear ZNuc                               R   N=          15
  6.00000000E+00  6.00000000E+00  6.00000000E+00  6.00000000E+00  6.00000000E+00
  6.00000000E+00  1.00000000E+00  1.00000000E+00  1.00000000E+00  8.00000000E+00
  1.00000000E+00  6.00000000E+00  1.00000000E+00  1.00000000E+00  1.00000000E+00
Nuclear QMom                               R   N=          15
  0.00000000E+00  0.00000000E+00  0.00000000E+00  0.00000000E+00  0.00000000E+00
  0.00000000E+00  0.00000000E+00  0.00000000E+00  0.00000000E+00  0.00000000E+00
  0.00000000E+00  0.00000000E+00  0.00000000E+00  0.00000000E+00  0.00000000E+00
Nuclear GFac                               R   N=          15
  0.00000000E+00  0.00000000E+00  0.00000000E+00  0.00000000E+00  0.00000000E+00
  0.00000000E+00  2.79284600E+00  2.79284600E+00  2.79284600E+00  0.00000000E+00
  2.79284600E+00  0.00000000E+00  2.79284600E+00  2.79284600E+00  2.79284600E+00
MicOpt                                     I   N=          15
          -1          -1          -1          -1          -1          -1
          -1          -1          -1          -1          -1          -1
          -1          -1          -1
Number of residues                         I                0
Number of secondary structures             I                0
SymInf integers                            I   N=          26
           1           1           1           1           1           0
           0           0           0           0           0           0
           0           0           0           0           0           0
           0           0           0           0           0           0
           0           0
RotTr to input orientation                 R   N=          12
 -1.00000000E+00  1.43832402E-07  0.00000000E+00  1.43832402E-07  1.00000000E+00
  0.00000000E+00  0.00000000E+00  0.00000000E+00 -1.00000000E+00  9.94592697E-08
  3.31530900E-08  1.32612360E-07
Number of contracted shells                I               68
Number of primitive shells                 I              138
Pure/Cartesian d shells                    I                0
Pure/Cartesian f shells                    I                0
Highest angular momentum                   I                2
Largest degree of contraction              I                6
Shell types                                I   N=          68
           0          -1          -1          -1          -2           0
          -1          -1          -1          -2           0          -1
          -1          -1          -2           0          -1          -1
          -1          -2           0          -1          -1          -1
          -2           0          -1          -1          -1          -2
           0           0           0           1           0           0
           0           1           0           0           0           1
           0          -1          -1          -1          -2           0
           0           0           1           0          -1          -1
          -1          -2           0           0           0           1
           0           0           0           1           0           0
           0           1
Number of primitives per shell             I   N=          68
           6           3           1           1           1           6
           3           1           1           1           6           3
           1           1           1           6           3           1
           1           1           6           3           1           1
           1           6           3           1           1           1
           3           1           1           1           3           1
           1           1           3           1           1           1
           6           3           1           1           1           3
           1           1           1           6           3           1
           1           1           3           1           1           1
           3           1           1           1           3           1
           1           1
Shell to atom map                          I   N=          68
           1           1           1           1           1           2
           2           2           2           2           3           3
           3           3           3           4           4           4
           4           4           5           5           5           5
           5           6           6           6           6           6
           7           7           7           7           8           8
           8           8           9           9           9           9
          10          10          10          10          10          11
          11          11          11          12          12          12
          12          12          13          13          13          13
          14          14          14          14          15          15
          15          15
Primitive exponents                        R   N=         138
  4.56324000E+03  6.82024000E+02  1.54973000E+02  4.44553000E+01  1.30290000E+01
  1.82773000E+00  2.09642000E+01  4.80331000E+00  1.45933000E+00  4.83456000E-01
  1.45585000E-01  6.26000000E-01  4.56324000E+03  6.82024000E+02  1.54973000E+02
  4.44553000E+01  1.30290000E+01  1.82773000E+00  2.09642000E+01  4.80331000E+00
  1.45933000E+00  4.83456000E-01  1.45585000E-01  6.26000000E-01  4.56324000E+03
  6.82024000E+02  1.54973000E+02  4.44553000E+01  1.30290000E+01  1.82773000E+00
  2.09642000E+01  4.80331000E+00  1.45933000E+00  4.83456000E-01  1.45585000E-01
  6.26000000E-01  4.56324000E+03  6.82024000E+02  1.54973000E+02  4.44553000E+01
  1.30290000E+01  1.82773000E+00  2.09642000E+01  4.80331000E+00  1.45933000E+00
  4.83456000E-01  1.45585000E-01  6.26000000E-01  4.56324000E+03  6.82024000E+02
  1.54973000E+02  4.44553000E+01  1.30290000E+01  1.82773000E+00  2.09642000E+01
  4.80331000E+00  1.45933000E+00  4.83456000E-01  1.45585000E-01  6.26000000E-01
  4.56324000E+03  6.82024000E+02  1.54973000E+02  4.44553000E+01  1.30290000E+01
  1.82773000E+00  2.09642000E+01  4.80331000E+00  1.45933000E+00  4.83456000E-01
  1.45585000E-01  6.26000000E-01  3.38650000E+01  5.09479000E+00  1.15879000E+00
  3.25840000E-01  1.02741000E-01  7.50000000E-01  3.38650000E+01  5.09479000E+00
  1.15879000E+00  3.25840000E-01  1.02741000E-01  7.50000000E-01  3.38650000E+01
  5.09479000E+00  1.15879000E+00  3.25840000E-01  1.02741000E-01  7.50000000E-01
  8.58850000E+03  1.29723000E+03  2.99296000E+02  8.73771000E+01  2.56789000E+01
  3.74004000E+00  4.21175000E+01  9.62837000E+00  2.85332000E+00  9.05661000E-01
  2.55611000E-01  1.29200000E+00  3.38650000E+01  5.09479000E+00  1.15879000E+00
  3.25840000E-01  1.02741000E-01  7.50000000E-01  4.56324000E+03  6.82024000E+02
  1.54973000E+02  4.44553000E+01  1.30290000E+01  1.82773000E+00  2.09642000E+01
  4.80331000E+00  1.45933000E+00  4.83456000E-01  1.45585000E-01  6.26000000E-01
  3.38650000E+01  5.09479000E+00  1.15879000E+00  3.25840000E-01  1.02741000E-01
  7.50000000E-01  3.38650000E+01  5.09479000E+00  1.15879000E+00  3.25840000E-01
  1.02741000E-01  7.50000000E-01  3.38650000E+01  5.09479000E+00  1.15879000E+00
  3.25840000E-01  1.02741000E-01  7.50000000E-01
Contraction coefficients                   R   N=         138
  1.96665025E-03  1.52306019E-02  7.61269097E-02  2.60801033E-01  6.16462078E-01
  2.21006028E-01  1.14660081E-01  9.19999648E-01 -3.03068213E-03  1.00000000E+00
  1.00000000E+00  1.00000000E+00  1.96665025E-03  1.52306019E-02  7.61269097E-02
  2.60801033E-01  6.16462078E-01  2.21006028E-01  1.14660081E-01  9.19999648E-01
 -3.03068213E-03  1.00000000E+00  1.00000000E+00  1.00000000E+00  1.96665025E-03
  1.52306019E-02  7.61269097E-02  2.60801033E-01  6.16462078E-01  2.21006028E-01
  1.14660081E-01  9.19999648E-01 -3.03068213E-03  1.00000000E+00  1.00000000E+00
  1.00000000E+00  1.96665025E-03  1.52306019E-02  7.61269097E-02  2.60801033E-01
  6.16462078E-01  2.21006028E-01  1.14660081E-01  9.19999648E-01 -3.03068213E-03
  1.00000000E+00  1.00000000E+00  1.00000000E+00  1.96665025E-03  1.52306019E-02
  7.61269097E-02  2.60801033E-01  6.16462078E-01  2.21006028E-01  1.14660081E-01
  9.19999648E-01 -3.03068213E-03  1.00000000E+00  1.00000000E+00  1.00000000E+00
  1.96665025E-03  1.52306019E-02  7.61269097E-02  2.60801033E-01  6.16462078E-01
  2.21006028E-01  1.14660081E-01  9.19999648E-01 -3.03068213E-03  1.00000000E+00
  1.00000000E+00  1.00000000E+00  2.54938145E-02  1.90373109E-01  8.52161486E-01
  1.00000000E+00  1.00000000E+00  1.00000000E+00  2.54938145E-02  1.90373109E-01
  8.52161486E-01  1.00000000E+00  1.00000000E+00  1.00000000E+00  2.54938145E-02
  1.90373109E-01  8.52161486E-01  1.00000000E+00  1.00000000E+00  1.00000000E+00
  1.89515008E-03  1.43859006E-02  7.07320031E-02  2.40001011E-01  5.94797026E-01
  2.80802012E-01  1.13889012E-01  9.20811101E-01 -3.27447036E-03  1.00000000E+00
  1.00000000E+00  1.00000000E+00  2.54938145E-02  1.90373109E-01  8.52161486E-01
  1.00000000E+00  1.00000000E+00  1.00000000E+00  1.96665025E-03  1.52306019E-02
  7.61269097E-02  2.60801033E-01  6.16462078E-01  2.21006028E-01  1.14660081E-01
  9.19999648E-01 -3.03068213E-03  1.00000000E+00  1.00000000E+00  1.00000000E+00
  2.54938145E-02  1.90373109E-01  8.52161486E-01  1.00000000E+00  1.00000000E+00
  1.00000000E+00  2.54938145E-02  1.90373109E-01  8.52161486E-01  1.00000000E+00
  1.00000000E+00  1.00000000E+00  2.54938145E-02  1.90373109E-01  8.52161486E-01
  1.00000000E+00  1.00000000E+00  1.00000000E+00
P(S=P) Contraction coefficients            R   N=         138
  0.00000000E+00  0.00000000E+00  0.00000000E+00  0.00000000E+00  0.00000000E+00
  0.00000000E+00  4.02486927E-02  2.37593957E-01  8.15853851E-01  1.00000000E+00
  1.00000000E+00  0.00000000E+00  0.00000000E+00  0.00000000E+00  0.00000000E+00
  0.00000000E+00  0.00000000E+00  0.00000000E+00  4.02486927E-02  2.37593957E-01
  8.15853851E-01  1.00000000E+00  1.00000000E+00  0.00000000E+00  0.00000000E+00
  0.00000000E+00  0.00000000E+00  0.00000000E+00  0.00000000E+00  0.00000000E+00
  4.02486927E-02  2.37593957E-01  8.15853851E-01  1.00000000E+00  1.00000000E+00
  0.00000000E+00  0.00000000E+00  0.00000000E+00  0.00000000E+00  0.00000000E+00
  0.00000000E+00  0.00000000E+00  4.02486927E-02  2.37593957E-01  8.15853851E-01
  1.00000000E+00  1.00000000E+00  0.00000000E+00  0.00000000E+00  0.00000000E+00
  0.00000000E+00  0.00000000E+00  0.00000000E+00  0.00000000E+00  4.02486927E-02
  2.37593957E-01  8.15853851E-01  1.00000000E+00  1.00000000E+00  0.00000000E+00
  0.00000000E+00  0.00000000E+00  0.00000000E+00  0.00000000E+00  0.00000000E+00
  0.00000000E+00  4.02486927E-02  2.37593957E-01  8.15853851E-01  1.00000000E+00
  1.00000000E+00  0.00000000E+00  0.00000000E+00  0.00000000E+00  0.00000000E+00
  0.00000000E+00  0.00000000E+00  0.00000000E+00  0.00000000E+00  0.00000000E+00
  0.00000000E+00  0.00000000E+00  0.00000000E+00  0.00000000E+00  0.00000000E+00
  0.00000000E+00  0.00000000E+00  0.00000000E+00  0.00000000E+00  0.00000000E+00
  0.00000000E+00  0.00000000E+00  0.00000000E+00  0.00000000E+00  0.00000000E+00
  0.00000000E+00  3.65113974E-02  2.37152983E-01  8.19701941E-01  1.00000000E+00
  1.00000000E+00  0.00000000E+00  0.00000000E+00  0.00000000E+00  0.00000000E+00
  0.00000000E+00  0.00000000E+00  0.00000000E+00  0.00000000E+00  0.00000000E+00
  0.00000000E+00  0.00000000E+00  0.00000000E+00  0.00000000E+00  4.02486927E-02
  2.37593957E-01  8.15853851E-01  1.00000000E+00  1.00000000E+00  0.00000000E+00
  0.00000000E+00  0.00000000E+00  0.00000000E+00  0.00000000E+00  0.00000000E+00
  0.00000000E+00  0.00000000E+00  0.00000000E+00  0.00000000E+00  0.00000000E+00
  0.00000000E+00  0.00000000E+00  0.00000000E+00  0.00000000E+00  0.00000000E+00
  0.00000000E+00  0.00000000E+00  0.00000000E+00
Coordinates of each shell                  R   N=         204
 -6.19699199E-01  3.32993937E+00  2.02233848E-06 -6.19699199E-01  3.32993937E+00
  2.02233848E-06 -6.19699199E-01  3.32993937E+00  2.02233848E-06 -6.19699199E-01
  3.32993937E+00  2.02233848E-06 -6.19699199E-01  3.32993937E+00  2.02233848E-06
 -2.71445705E+00  1.79165159E+00  3.41476826E-05 -2.71445705E+00  1.79165159E+00
  3.41476826E-05 -2.71445705E+00  1.79165159E+00  3.41476826E-05 -2.71445705E+00
  1.79165159E+00  3.41476826E-05 -2.71445705E+00  1.79165159E+00  3.41476826E-05
 -2.43326620E+00 -9.36198351E-01 -1.75711376E-06 -2.43326620E+00 -9.36198351E-01
 -1.75711376E-06 -2.43326620E+00 -9.36198351E-01 -1.75711376E-06 -2.43326620E+00
 -9.36198351E-01 -1.75711376E-06 -2.43326620E+00 -9.36198351E-01 -1.75711376E-06
  1.25250870E-01 -1.92733739E+00 -6.60078020E-05  1.25250870E-01 -1.92733739E+00
 -6.60078020E-05  1.25250870E-01 -1.92733739E+00 -6.60078020E-05  1.25250870E-01
 -1.92733739E+00 -6.60078020E-05  1.25250870E-01 -1.92733739E+00 -6.60078020E-05
  2.20912012E+00 -3.71426021E-01 -4.52208146E-05  2.20912012E+00 -3.71426021E-01
 -4.52208146E-05  2.20912012E+00 -3.71426021E-01 -4.52208146E-05  2.20912012E+00
 -3.71426021E-01 -4.52208146E-05  2.20912012E+00 -3.71426021E-01 -4.52208146E-05
  1.81813617E+00  2.27824407E+00 -3.95516363E-05  1.81813617E+00  2.27824407E+00
 -3.95516363E-05  1.81813617E+00  2.27824407E+00 -3.95516363E-05  1.81813617E+00
  2.27824407E+00 -3.95516363E-05  1.81813617E+00  2.27824407E+00 -3.95516363E-05
 -8.32102233E-01  5.36831138E+00  1.90298736E-05 -8.32102233E-01  5.36831138E+00
  1.90298736E-05 -8.32102233E-01  5.36831138E+00  1.90298736E-05 -8.32102233E-01
  5.36831138E+00  1.90298736E-05 -4.62202208E+00  2.53502665E+00  1.19185358E-04
 -4.62202208E+00  2.53502665E+00  1.19185358E-04 -4.62202208E+00  2.53502665E+00
  1.19185358E-04 -4.62202208E+00  2.53502665E+00  1.19185358E-04  3.44716341E+00
  3.52413649E+00 -9.81331461E-05  3.44716341E+00  3.52413649E+00 -9.81331461E-05
  3.44716341E+00  3.52413649E+00 -9.81331461E-05  3.44716341E+00  3.52413649E+00
 -9.81331461E-05 -4.31181669E+00 -2.37213104E+00  1.52504214E-05 -4.31181669E+00
 -2.37213104E+00  1.52504214E-05 -4.31181669E+00 -2.37213104E+00  1.52504214E-05
 -4.31181669E+00 -2.37213104E+00  1.52504214E-05 -4.31181669E+00 -2.37213104E+00
  1.52504214E-05  3.09122818E-01 -3.96847596E+00 -1.11361229E-04  3.09122818E-01
 -3.96847596E+00 -1.11361229E-04  3.09122818E-01 -3.96847596E+00 -1.11361229E-04
  3.09122818E-01 -3.96847596E+00 -1.11361229E-04  4.86563271E+00 -1.40965138E+00
  5.30449438E-05  4.86563271E+00 -1.40965138E+00  5.30449438E-05  4.86563271E+00
 -1.40965138E+00  5.30449438E-05  4.86563271E+00 -1.40965138E+00  5.30449438E-05
  4.86563271E+00 -1.40965138E+00  5.30449438E-05  5.91271115E+00 -7.70944892E-01
 -1.66485614E+00  5.91271115E+00 -7.70944892E-01 -1.66485614E+00  5.91271115E+00
 -7.70944892E-01 -1.66485614E+00  5.91271115E+00 -7.70944892E-01 -1.66485614E+00
  5.91240879E+00 -7.71273704E-01  1.66529671E+00  5.91240879E+00 -7.71273704E-01
  1.66529671E+00  5.91240879E+00 -7.71273704E-01  1.66529671E+00  5.91240879E+00
 -7.71273704E-01  1.66529671E+00  4.86294711E+00 -3.47106291E+00 -1.11361229E-04
  4.86294711E+00 -3.47106291E+00 -1.11361229E-04  4.86294711E+00 -3.47106291E+00
 -1.11361229E-04  4.86294711E+00 -3.47106291E+00 -1.11361229E-04
Num ILSW                                   I              100
ILSW                                       I   N=         100
           1           0           0           0           2           0
           0           0           0           0         402          -1
           5           0           0           0           0           0
           0           0           1           0           0           0
           1           0           0           0           0           0
           0           0      100000           0          -1           0
           0           0           0           0           0           0
           0           0           0           1           0           0
           0 -2000000000           1           0           0           0
           0           0           4          52           0           0
           0           0           5           0           0           0
           0           0           0           0           0           1
           0           0           0           0           0           0
           0           0           0           0           0           0
           0           0           0           0           0           0
           0           0           0           0           0           0
           0           0           0           0
Num RLSW                                   I               52
RLSW                                       R   N=          52
  8.00000000E-01  7.20000000E-01  1.00000000E+00  8.10000000E-01  2.00000000E-01
  0.00000000E+00  0.00000000E+00  1.00000000E+00  0.00000000E+00  0.00000000E+00
  0.00000000E+00  0.00000000E+00  1.00000000E+00  0.00000000E+00  0.00000000E+00
  0.00000000E+00  0.00000000E+00  1.00000000E+00  0.00000000E+00  0.00000000E+00
  0.00000000E+00  0.00000000E+00  1.00000000E+00  0.00000000E+00  0.00000000E+00
  0.00000000E+00  0.00000000E+00  1.00000000E+00  0.00000000E+00  0.00000000E+00
  0.00000000E+00  0.00000000E+00  1.00000000E+00  0.00000000E+00  0.00000000E+00
  0.00000000E+00  0.00000000E+00  0.00000000E+00  1.00000000E+00  1.00000000E+00
  0.00000000E+00  1.00000000E+00  0.00000000E+00  0.00000000E+00  0.00000000E+00
  0.00000000E+00  0.00000000E+00  0.00000000E+00  0.00000000E+00  0.00000000E+00
  0.00000000E+00  0.00000000E+00
MxBond                                     I                4
NBond                                      I   N=          15
           3           3           3           3           3           3
           1           1           1           1           1           4
           1           1           1
IBond                                      I   N=          60
           2           6           7           0           1           3
           8           0           2           4          10           0
           3           5          11           0           4           6
          12           0           1           5           9           0
           1           0           0           0           2           0
           0           0           6           0           0           0
           3           0           0           0           4           0
           0           0           5          13          14          15
          12           0           0           0          12           0
           0           0          12           0           0           0
RBond                                      R   N=          60
  2.00000000E+00  1.50000000E+00  1.00000000E+00  0.00000000E+00  2.00000000E+00
  1.00000000E+00  1.00000000E+00  0.00000000E+00  1.00000000E+00  1.00000000E+00
  2.00000000E+00  0.00000000E+00  1.00000000E+00  2.00000000E+00  1.00000000E+00
  0.00000000E+00  2.00000000E+00  1.50000000E+00  1.00000000E+00  0.00000000E+00
  1.50000000E+00  1.50000000E+00  1.00000000E+00  0.00000000E+00  1.00000000E+00
  0.00000000E+00  0.00000000E+00  0.00000000E+00  1.00000000E+00  0.00000000E+00
  0.00000000E+00  0.00000000E+00  1.00000000E+00  0.00000000E+00  0.00000000E+00
  0.00000000E+00  2.00000000E+00  0.00000000E+00  0.00000000E+00  0.00000000E+00
  1.00000000E+00  0.00000000E+00  0.00000000E+00  0.00000000E+00  1.00000000E+00
  1.00000000E+00  1.00000000E+00  1.00000000E+00  1.00000000E+00  0.00000000E+00
  0.00000000E+00  0.00000000E+00  1.00000000E+00  0.00000000E+00  0.00000000E+00
  0.00000000E+00  1.00000000E+00  0.00000000E+00  0.00000000E+00  0.00000000E+00
Virial Ratio                               R      2.003993161890406E+00
SCF Energy                                 R     -3.462352640022102E+02
Total Energy                               R     -3.462352640022102E+02
S**2                                       R      7.879526169362698E-01
S**2 after annihilation                    R      7.509945815572272E-01
RMS Density                                R      5.558656257272047E-09
Job Status                                 I                1
Nuclear derivative order                   I                0
External E-field                           R   N=          35
  0.00000000E+00  0.00000000E+00  0.00000000E+00  0.00000000E+00  0.00000000E+00
  0.00000000E+00  0.00000000E+00  0.00000000E+00  0.00000000E+00  0.00000000E+00
  0.00000000E+00  0.00000000E+00  0.00000000E+00  0.00000000E+00  0.00000000E+00
  0.00000000E+00  0.00000000E+00  0.00000000E+00  0.00000000E+00  0.00000000E+00
  0.00000000E+00  0.00000000E+00  0.00000000E+00  0.00000000E+00  0.00000000E+00
  0.00000000E+00  0.00000000E+00  0.00000000E+00  0.00000000E+00  0.00000000E+00
  0.00000000E+00  0.00000000E+00  0.00000000E+00  0.00000000E+00  0.00000000E+00
IOpCl                                      I                1
IROHF                                      I                0
Alpha Orbital Energies                     R   N=         186
 -1.91101492E+01 -1.02427340E+01 -1.02077285E+01 -1.02044098E+01 -1.01957057E+01
 -1.01945207E+01 -1.01901243E+01 -1.01833651E+01 -1.03363383E+00 -8.72629278E-01
 -7.92700035E-01 -7.44421623E-01 -7.08357506E-01 -6.20362196E-01 -5.89822220E-01
 -5.24999928E-01 -4.94997582E-01 -4.66581168E-01 -4.43157857E-01 -4.36135761E-01
 -4.27639133E-01 -4.17067587E-01 -4.08942779E-01 -3.81068151E-01 -3.70136633E-01
 -3.51699628E-01 -2.79919107E-01 -2.61595440E-01 -2.34210203E-01 -2.62040148E-02
 -1.29324020E-02  3.65938939E-02  5.44447414E-02  7.83777890E-02  9.07995061E-02
  1.00962922E-01  1.14356391E-01  1.28114227E-01  1.46094965E-01  1.83664792E-01
  2.29852143E-01  2.32101221E-01  2.54233015E-01  2.82153424E-01  2.88785370E-01
  2.92028752E-01  3.45971337E-01  3.68224061E-01  3.74926929E-01  3.77476167E-01
  3.93761024E-01  3.99313012E-01  4.27031904E-01  4.35795477E-01  4.42381850E-01
  4.50632323E-01  4.55231256E-01  5.09137525E-01  5.14332391E-01  5.33318158E-01
  5.40953884E-01  5.59333262E-01  5.72906819E-01  5.77864663E-01  5.92977869E-01
  5.97985235E-01  6.10864304E-01  6.21141071E-01  6.38626767E-01  6.43540631E-01
  6.64616625E-01  7.30440052E-01  7.49018772E-01  7.59972254E-01  7.77893620E-01
  8.25987089E-01  8.42382057E-01  8.56375115E-01  8.70603978E-01  8.74605220E-01
  9.40270431E-01  9.44208191E-01  9.80996653E-01  9.87980707E-01  1.00517297E+00
  1.02716926E+00  1.06656737E+00  1.08934475E+00  1.10231377E+00  1.19600305E+00
  1.20886493E+00  1.32273535E+00  1.33158088E+00  1.35035778E+00  1.39299860E+00
  1.43702269E+00  1.43907173E+00  1.44628915E+00  1.47842186E+00  1.48937525E+00
  1.52694448E+00  1.53042791E+00  1.55875582E+00  1.56180239E+00  1.58120211E+00
  1.59053222E+00  1.59161735E+00  1.64254290E+00  1.65060681E+00  1.68636403E+00
  1.72416939E+00  1.76435336E+00  1.77525770E+00  1.83743878E+00  1.83897106E+00
  1.86106313E+00  1.88657483E+00  1.88836515E+00  1.92205054E+00  1.92817912E+00
  1.93059593E+00  1.99456200E+00  1.99610111E+00  2.04516491E+00  2.10693074E+00
  2.14462389E+00  2.15409182E+00  2.22922497E+00  2.24301143E+00  2.25548982E+00
  2.33645624E+00  2.34125005E+00  2.34672346E+00  2.40797240E+00  2.42813215E+00
  2.46591422E+00  2.51050621E+00  2.51642666E+00  2.52603573E+00  2.55595604E+00
  2.59454304E+00  2.60831126E+00  2.62850904E+00  2.64683840E+00  2.67221249E+00
  2.67578227E+00  2.69888019E+00  2.75088703E+00  2.78012670E+00  2.80016949E+00
  2.84619576E+00  2.87058291E+00  2.89456639E+00  2.91643386E+00  2.92573640E+00
  3.01328443E+00  3.05366316E+00  3.12959872E+00  3.17276903E+00  3.24497668E+00
  3.28930084E+00  3.35822868E+00  3.44470845E+00  3.47084723E+00  3.52680176E+00
  3.58696845E+00  3.63894663E+00  3.77001085E+00  3.80443427E+00  3.96278557E+00
  3.98811359E+00  4.07391888E+00  4.09642120E+00  4.29949616E+00  4.76242715E+00
  4.85219875E+00  5.02561267E+00  5.61607980E+00  2.35035236E+01  2.38191879E+01
  2.38775497E+01  2.39140481E+01  2.39760776E+01  2.40921188E+01  2.41488676E+01
  4.99548107E+01
Beta Orbital Energies                      R   N=         186
 -1.90989060E+01 -1.02444019E+01 -1.02064284E+01 -1.02020346E+01 -1.01976920E+01
 -1.01902020E+01 -1.01863820E+01 -1.01832524E+01 -1.01366156E+00 -8.66467818E-01
 -7.90545687E-01 -7.33127572E-01 -7.02167736E-01 -6.17109861E-01 -5.86393828E-01
 -5.20916019E-01 -4.92619047E-01 -4.63394251E-01 -4.39900860E-01 -4.33477598E-01
 -4.20992884E-01 -4.07820140E-01 -3.92502238E-01 -3.77853874E-01 -3.67932935E-01
 -3.19276982E-01 -2.68256538E-01 -2.50940402E-01 -1.40128852E-01 -1.34286238E-02
  9.42084650E-03  3.74343954E-02  5.43000540E-02  7.93632481E-02  9.22135589E-02
  1.05340866E-01  1.15184098E-01  1.29129101E-01  1.58680562E-01  1.83771600E-01
  2.31661473E-01  2.35260680E-01  2.54729676E-01  2.83597848E-01  2.89753888E-01
  2.92642297E-01  3.48785993E-01  3.73806141E-01  3.81857529E-01  3.83435535E-01