 Entering Link 1 = D:\Gaussian\G16W\l1.exe PID=     41828.
  
 Copyright (c) 1988,1990,1992,1993,1995,1998,2003,2009,2016,
            Gaussian, Inc.  All Rights Reserved.
  
 This is part of the Gaussian(R) 16 program.  It is based on
 the Gaussian(R) 09 system (copyright 2009, Gaussian, Inc.),
 the Gaussian(R) 03 system (copyright 2003, Gaussian, Inc.),
 the Gaussian(R) 98 system (copyright 1998, Gaussian, Inc.),
 the Gaussian(R) 94 system (copyright 1995, Gaussian, Inc.),
 the Gaussian 92(TM) system (copyright 1992, Gaussian, Inc.),
 the Gaussian 90(TM) system (copyright 1990, Gaussian, Inc.),
 the Gaussian 88(TM) system (copyright 1988, Gaussian, Inc.),
 the Gaussian 86(TM) system (copyright 1986, Carnegie Mellon
 University), and the Gaussian 82(TM) system (copyright 1983,
 Carnegie Mellon University). Gaussian is a federally registered
 trademark of Gaussian, Inc.
  
 This software contains proprietary and confidential information,
 including trade secrets, belonging to Gaussian, Inc.
  
 This software is provided under written license and may be
 used, copied, transmitted, or stored only in accord with that
 written license.
  
 The following legend is applicable only to US Government
 contracts under FAR:
  
                    RESTRICTED RIGHTS LEGEND
  
 Use, reproduction and disclosure by the US Government is
 subject to restrictions as set forth in subparagraphs (a)
 and (c) of the Commercial Computer Software - Restricted
 Rights clause in FAR 52.227-19.
  
 Gaussian, Inc.
 340 Quinnipiac St., Bldg. 40, Wallingford CT 06492
  
  
 ---------------------------------------------------------------
 Warning -- This program may not be used in any manner that
 competes with the business of Gaussian, Inc. or will provide
 assistance to any competitor of Gaussian, Inc.  The licensee
 of this program is prohibited from giving any competitor of
 Gaussian, Inc. access to this program.  By using this program,
 the user acknowledges that Gaussian, Inc. is engaged in the
 business of creating and licensing software in the field of
 computational chemistry and represents and warrants to the
 licensee that it is not a competitor of Gaussian, Inc. and that
 it will not use this program in any manner prohibited above.
 ---------------------------------------------------------------
  

 Cite this work as:
 Gaussian 16, Revision A.03,
 M. J. Frisch, G. W. Trucks, H. B. Schlegel, G. E. Scuseria, 
 M. A. Robb, J. R. Cheeseman, G. Scalmani, V. Barone, 
 G. A. Petersson, H. Nakatsuji, X. Li, M. Caricato, A. V. Marenich, 
 J. Bloino, B. G. Janesko, R. Gomperts, B. Mennucci, H. P. Hratchian, 
 J. V. Ortiz, A. F. Izmaylov, J. L. Sonnenberg, D. Williams-Young, 
 F. Ding, F. Lipparini, F. Egidi, J. Goings, B. Peng, A. Petrone, 
 T. Henderson, D. Ranasinghe, V. G. Zakrzewski, J. Gao, N. Rega, 
 G. Zheng, W. Liang, M. Hada, M. Ehara, K. Toyota, R. Fukuda, 
 J. Hasegawa, M. Ishida, T. Nakajima, Y. Honda, O. Kitao, H. Nakai, 
 T. Vreven, K. Throssell, J. A. Montgomery, Jr., J. E. Peralta, 
 F. Ogliaro, M. J. Bearpark, J. J. Heyd, E. N. Brothers, K. N. Kudin, 
 V. N. Staroverov, T. A. Keith, R. Kobayashi, J. Normand, 
 K. Raghavachari, A. P. Rendell, J. C. Burant, S. S. Iyengar, 
 J. Tomasi, M. Cossi, J. M. Millam, M. Klene, C. Adamo, R. Cammi, 
 J. W. Ochterski, R. L. Martin, K. Morokuma, O. Farkas, 
 J. B. Foresman, and D. J. Fox, Gaussian, Inc., Wallingford CT, 2016.
 
 ******************************************
 Gaussian 16:  EM64W-G16RevA.03 17-Dec-2016
                03-Dec-2025 
 ******************************************
 %nprocs=   4
 Will use up to    4 processors via shared memory.
 ------------------------------------
 #P B3LYP/6-31G* SCF=conver=7 out=wfn
 ------------------------------------
 1/38=1,172=1/1;
 2/12=2,17=6,18=5,40=1/2;
 3/5=1,6=6,7=1,11=2,25=1,30=1,74=-5/1,2,3;
 4//1;
 5/5=2,6=7,38=5/2;
 6/7=2,8=2,9=2,10=2,28=1/1;
 99/5=1,6=100,9=1/99;
 Leave Link    1 at Wed Dec 03 16:53:25 2025, MaxMem=           0 cpu:               0.0 elap:               0.1
 (Enter D:\Gaussian\G16W\l101.exe)
 ----------------------------------------------------
 Generated by Multiwfn (http://sobereva.com/multiwfn)
 ----------------------------------------------------
 Symbolic Z-matrix:
 Charge = -1 Multiplicity = 1
 C                    -0.32793   1.76213   0. 
 C                    -1.43643   0.9481    0.00002 
 C                    -1.28763  -0.49541  0. 
 C                     0.06628  -1.0199   -0.00003 
 C                     1.16902  -0.19655  -0.00002 
 C                     0.96212   1.20559  -0.00002 
 H                    -0.44033   2.84079   0.00001 
 H                    -2.44587   1.34148   0.00006 
 H                     1.82416   1.86489  -0.00005 
 O                    -2.28172  -1.25528   0.00001 
 H                     0.16358  -2.10003  -0.00006 
 C                     2.57478  -0.74596   0.00003 
 H                     3.12887  -0.40797  -0.881 
 H                     3.12871  -0.40814   0.88124 
 H                     2.57336  -1.83681  -0.00006 
 
 ITRead=  0  0  0  0  0  0  0  0  0  0  0  0  0  0  0
 MicOpt= -1 -1 -1 -1 -1 -1 -1 -1 -1 -1 -1 -1 -1 -1 -1
 NAtoms=     15 NQM=       15 NQMF=       0 NMMI=      0 NMMIF=      0
                NMic=       0 NMicF=      0.
                    Isotopes and Nuclear Properties:
 (Nuclear quadrupole moments (NQMom) in fm**2, nuclear magnetic moments (NMagM)
  in nuclear magnetons)

  Atom         1           2           3           4           5           6           7           8           9          10
 IAtWgt=          12          12          12          12          12          12           1           1           1          16
 AtmWgt=  12.0000000  12.0000000  12.0000000  12.0000000  12.0000000  12.0000000   1.0078250   1.0078250   1.0078250  15.9949146
 NucSpn=           0           0           0           0           0           0           1           1           1           0
 AtZEff=   0.0000000   0.0000000   0.0000000   0.0000000   0.0000000   0.0000000   0.0000000   0.0000000   0.0000000   0.0000000
 NQMom=    0.0000000   0.0000000   0.0000000   0.0000000   0.0000000   0.0000000   0.0000000   0.0000000   0.0000000   0.0000000
 NMagM=    0.0000000   0.0000000   0.0000000   0.0000000   0.0000000   0.0000000   2.7928460   2.7928460   2.7928460   0.0000000
 AtZNuc=   6.0000000   6.0000000   6.0000000   6.0000000   6.0000000   6.0000000   1.0000000   1.0000000   1.0000000   8.0000000

  Atom        11          12          13          14          15
 IAtWgt=           1          12           1           1           1
 AtmWgt=   1.0078250  12.0000000   1.0078250   1.0078250   1.0078250
 NucSpn=           1           0           1           1           1
 AtZEff=   0.0000000   0.0000000   0.0000000   0.0000000   0.0000000
 NQMom=    0.0000000   0.0000000   0.0000000   0.0000000   0.0000000
 NMagM=    2.7928460   0.0000000   2.7928460   2.7928460   2.7928460
 AtZNuc=   1.0000000   6.0000000   1.0000000   1.0000000   1.0000000
 Leave Link  101 at Wed Dec 03 16:53:26 2025, MaxMem=   104857600 cpu:               1.0 elap:               0.1
 (Enter D:\Gaussian\G16W\l202.exe)
                          Input orientation:                          
 ---------------------------------------------------------------------
 Center     Atomic      Atomic             Coordinates (Angstroms)
 Number     Number       Type             X           Y           Z
 ---------------------------------------------------------------------
      1          6           0       -0.327931    1.762128    0.000001
      2          6           0       -1.436429    0.948101    0.000018
      3          6           0       -1.287629   -0.495415   -0.000001
      4          6           0        0.066280   -1.019903   -0.000035
      5          6           0        1.169016   -0.196550   -0.000024
      6          6           0        0.962116    1.205595   -0.000021
      7          1           0       -0.440330    2.840788    0.000010
      8          1           0       -2.445869    1.341478    0.000063
      9          1           0        1.824160    1.864893   -0.000052
     10          8           0       -2.281715   -1.255278    0.000008
     11          1           0        0.163581   -2.100027   -0.000059
     12          6           0        2.574782   -0.745955    0.000028
     13          1           0        3.128872   -0.407966   -0.881004
     14          1           0        3.128712   -0.408140    0.881237
     15          1           0        2.573361   -1.836807   -0.000059
 ---------------------------------------------------------------------
                    Distance matrix (angstroms):
                    1          2          3          4          5
     1  C    0.000000
     2  C    1.375285   0.000000
     3  C    2.453064   1.451165   0.000000
     4  C    2.809822   2.476121   1.451949   0.000000
     5  C    2.465212   2.845799   2.474758   1.376204   0.000000
     6  C    1.404973   2.412327   2.820423   2.399034   1.417328
     7  H    1.084500   2.138803   3.442116   3.893788   3.437356
     8  H    2.159307   1.083381   2.171565   3.447755   3.928476
     9  H    2.154543   3.387026   3.905673   3.378193   2.163044
    10  O    3.594720   2.359955   1.251239   2.359763   3.609494
    11  H    3.893305   3.442545   2.163513   1.084498   2.152702
    12  C    3.836173   4.354267   3.870528   2.523416   1.509312
    13  H    4.175520   4.843252   4.504364   3.245003   2.159134
    14  H    4.175526   4.843186   4.504250   3.244901   2.159120
    15  H    4.622751   4.882021   4.087368   2.636814   2.159312
                    6          7          8          9         10
     6  C    0.000000
     7  H    2.154231   0.000000
     8  H    3.410693   2.504020   0.000000
     9  H    1.085262   2.465824   4.301989   0.000000
    10  O    4.071650   4.490930   2.601939   5.156906   0.000000
    11  H    3.400705   4.977586   4.318933   4.298618   2.587097
    12  C    2.531647   4.685683   5.437308   2.716608   4.883131
    13  H    2.841574   4.906097   5.908855   2.764821   5.546943
    14  H    2.841636   4.906134   5.908772   2.764996   5.546794
    15  H    3.442720   5.564371   5.940889   3.776756   4.889779
                   11         12         13         14         15
    11  H    0.000000
    12  C    2.765394   0.000000
    13  H    3.525916   1.094290   0.000000
    14  H    3.525786   1.094297   1.762241   0.000000
    15  H    2.424113   1.090853   1.768119   1.768103   0.000000
 Stoichiometry    C7H7O(1-)
 Framework group  C1[X(C7H7O)]
 Deg. of freedom    39
 Full point group                 C1      NOp   1
 Largest Abelian subgroup         C1      NOp   1
 Largest concise Abelian subgroup C1      NOp   1
                         Standard orientation:                         
 ---------------------------------------------------------------------
 Center     Atomic      Atomic             Coordinates (Angstroms)
 Number     Number       Type             X           Y           Z
 ---------------------------------------------------------------------
      1          6           0       -0.327931    1.762128    0.000001
      2          6           0       -1.436429    0.948101    0.000018
      3          6           0       -1.287629   -0.495415   -0.000001
      4          6           0        0.066280   -1.019903   -0.000035
      5          6           0        1.169016   -0.196550   -0.000024
      6          6           0        0.962116    1.205595   -0.000021
      7          1           0       -0.440330    2.840788    0.000010
      8          1           0       -2.445869    1.341478    0.000063
      9          1           0        1.824160    1.864893   -0.000052
     10          8           0       -2.281715   -1.255278    0.000008
     11          1           0        0.163581   -2.100027   -0.000059
     12          6           0        2.574782   -0.745955    0.000028
     13          1           0        3.128872   -0.407966   -0.881004
     14          1           0        3.128712   -0.408140    0.881237
     15          1           0        2.573361   -1.836807   -0.000059
 ---------------------------------------------------------------------
 Rotational constants (GHZ):           3.7185286           1.8453412           1.2427983
 Leave Link  202 at Wed Dec 03 16:53:26 2025, MaxMem=   104857600 cpu:               0.0 elap:               0.0
 (Enter D:\Gaussian\G16W\l301.exe)
 Standard basis: 6-31G(d) (6D, 7F)
 Ernie: Thresh=  0.10000D-02 Tol=  0.10000D-05 Strict=F.
 There are   134 symmetry adapted cartesian basis functions of A   symmetry.
 There are   134 symmetry adapted basis functions of A   symmetry.
   134 basis functions,   252 primitive gaussians,   134 cartesian basis functions
    29 alpha electrons       29 beta electrons
       nuclear repulsion energy       331.6110576715 Hartrees.
 IExCor=  402 DFT=T Ex+Corr=B3LYP ExCW=0 ScaHFX=  0.200000
 ScaDFX=  0.800000  0.720000  1.000000  0.810000 ScalE2=  1.000000  1.000000
 IRadAn=      5 IRanWt=     -1 IRanGd=            0 ICorTp=0 IEmpDi=  4
 NAtoms=   15 NActive=   15 NUniq=   15 SFac= 1.00D+00 NAtFMM=   60 NAOKFM=F Big=F
 Integral buffers will be    131072 words long.
 Raffenetti 2 integral format.
 Two-electron integral symmetry is turned on.
 Leave Link  301 at Wed Dec 03 16:53:26 2025, MaxMem=   104857600 cpu:               0.0 elap:               0.1
 (Enter D:\Gaussian\G16W\l302.exe)
 NPDir=0 NMtPBC=     1 NCelOv=     1 NCel=       1 NClECP=     1 NCelD=      1
         NCelK=      1 NCelE2=     1 NClLst=     1 CellRange=     0.0.
 One-electron integrals computed using PRISM.
 One-electron integral symmetry used in STVInt
 NBasis=   134 RedAO= T EigKep=  4.89D-04  NBF=   134
 NBsUse=   134 1.00D-06 EigRej= -1.00D+00 NBFU=   134
 Precomputing XC quadrature grid using
 IXCGrd= 4 IRadAn=           5 IRanWt=          -1 IRanGd=           0 AccXCQ= 0.00D+00.
 Generated NRdTot=       0 NPtTot=           0 NUsed=           0 NTot=          32
 NSgBfM=   134   134   134   134   134 MxSgAt=    15 MxSgA2=    15.
 Leave Link  302 at Wed Dec 03 16:53:26 2025, MaxMem=   104857600 cpu:               0.0 elap:               0.2
 (Enter D:\Gaussian\G16W\l303.exe)
 DipDrv:  MaxL=1.
 Leave Link  303 at Wed Dec 03 16:53:26 2025, MaxMem=   104857600 cpu:               0.0 elap:               0.1
 (Enter D:\Gaussian\G16W\l401.exe)
 ExpMin= 1.61D-01 ExpMax= 5.48D+03 ExpMxC= 8.25D+02 IAcc=3 IRadAn=         5 AccDes= 0.00D+00
 Harris functional with IExCor=  402 and IRadAn=       5 diagonalized for initial guess.
 HarFok:  IExCor=  402 AccDes= 0.00D+00 IRadAn=         5 IDoV= 1 UseB2=F ITyADJ=14
 ICtDFT=  3500011 ScaDFX=  1.000000  1.000000  1.000000  1.000000
 FoFCou: FMM=F IPFlag=           0 FMFlag=      100000 FMFlg1=           0
         NFxFlg=           0 DoJE=T BraDBF=F KetDBF=T FulRan=T
         wScrn=  0.000000 ICntrl=       500 IOpCl=  0 I1Cent=   200000004 NGrid=           0
         NMat0=    1 NMatS0=      1 NMatT0=    0 NMatD0=    1 NMtDS0=    0 NMtDT0=    0
 Petite list used in FoFCou.
 Harris En= -346.447854885361    
 JPrj=0 DoOrth=F DoCkMO=F.
 Leave Link  401 at Wed Dec 03 16:53:27 2025, MaxMem=   104857600 cpu:               1.0 elap:               0.7
 (Enter D:\Gaussian\G16W\l502.exe)
 Keep R1 ints in memory in canonical form, NReq=44746278.
 FoFCou: FMM=F IPFlag=           0 FMFlag=           0 FMFlg1=           0
         NFxFlg=           0 DoJE=F BraDBF=F KetDBF=F FulRan=T
         wScrn=  0.000000 ICntrl=       600 IOpCl=  0 I1Cent=           0 NGrid=           0
         NMat0=    1 NMatS0=   9045 NMatT0=    0 NMatD0=    1 NMtDS0=    0 NMtDT0=    0
 Symmetry not used in FoFCou.
 Two-electron integral symmetry not used.
 Closed shell SCF:
 Using DIIS extrapolation, IDIIS=  1040.
 NGot=   104857600 LenX=    63908728 LenY=    63890331
 Requested convergence on RMS density matrix=1.00D-07 within 128 cycles.
 Requested convergence on MAX density matrix=1.00D-05.
 Requested convergence on             energy=1.00D-05.
 No special actions if energy rises.
 Integral accuracy reduced to 1.0D-05 until final iterations.

 Cycle   1  Pass 0  IDiag  1:
 E= -345.879178605653    
 DIIS: error= 5.15D-02 at cycle   1 NSaved=   1.
 NSaved= 1 IEnMin= 1 EnMin= -345.879178605653     IErMin= 1 ErrMin= 5.15D-02
 ErrMax= 5.15D-02  0.00D+00 EMaxC= 1.00D-01 BMatC= 3.03D-01 BMatP= 3.03D-01
 IDIUse=3 WtCom= 4.85D-01 WtEn= 5.15D-01
 Coeff-Com:  0.100D+01
 Coeff-En:   0.100D+01
 Coeff:      0.100D+01
 Gap=     0.148 Goal=   None    Shift=    0.000
 GapD=    0.148 DampG=1.000 DampE=0.500 DampFc=0.5000 IDamp=-1.
 Damping current iteration by 5.00D-01
 RMSDP=1.46D-02 MaxDP=2.61D-01              OVMax= 3.19D-01

 Cycle   2  Pass 0  IDiag  1:
 E= -346.012100493080     Delta-E=       -0.132921887427 Rises=F Damp=T
 DIIS: error= 1.16D-02 at cycle   2 NSaved=   2.
 NSaved= 2 IEnMin= 2 EnMin= -346.012100493080     IErMin= 2 ErrMin= 1.16D-02
 ErrMax= 1.16D-02  0.00D+00 EMaxC= 1.00D-01 BMatC= 2.16D-02 BMatP= 3.03D-01
 IDIUse=3 WtCom= 8.84D-01 WtEn= 1.16D-01
 Coeff-Com:  0.110D+00 0.890D+00
 Coeff-En:   0.153D+00 0.847D+00
 Coeff:      0.115D+00 0.885D+00
 Gap=     0.281 Goal=   None    Shift=    0.000
 RMSDP=4.22D-03 MaxDP=1.00D-01 DE=-1.33D-01 OVMax= 2.27D-01

 Cycle   3  Pass 0  IDiag  1:
 E= -346.169091217646     Delta-E=       -0.156990724566 Rises=F Damp=F
 DIIS: error= 2.02D-02 at cycle   3 NSaved=   3.
 NSaved= 3 IEnMin= 3 EnMin= -346.169091217646     IErMin= 2 ErrMin= 1.16D-02
 ErrMax= 2.02D-02  0.00D+00 EMaxC= 1.00D-01 BMatC= 3.30D-02 BMatP= 2.16D-02
 IDIUse=2 WtCom= 0.00D+00 WtEn= 1.00D+00
 Coeff-En:   0.000D+00 0.000D+00 0.100D+01
 Coeff:      0.000D+00 0.000D+00 0.100D+01
 Gap=     0.150 Goal=   None    Shift=    0.000
 RMSDP=6.18D-03 MaxDP=1.52D-01 DE=-1.57D-01 OVMax= 3.24D-01

 Cycle   4  Pass 0  IDiag  1:
 E= -346.013748147424     Delta-E=        0.155343070222 Rises=F Damp=F
 DIIS: error= 4.32D-02 at cycle   4 NSaved=   4.
 NSaved= 4 IEnMin= 3 EnMin= -346.169091217646     IErMin= 2 ErrMin= 1.16D-02
 ErrMax= 4.32D-02  0.00D+00 EMaxC= 1.00D-01 BMatC= 2.07D-01 BMatP= 2.16D-02
 IDIUse=2 WtCom= 0.00D+00 WtEn= 1.00D+00
 Coeff-En:   0.000D+00 0.000D+00 0.807D+00 0.193D+00
 Coeff:      0.000D+00 0.000D+00 0.807D+00 0.193D+00
 Gap=     0.167 Goal=   None    Shift=    0.000
 RMSDP=3.50D-03 MaxDP=8.98D-02 DE= 1.55D-01 OVMax= 1.65D-01

 Cycle   5  Pass 0  IDiag  1:
 E= -346.184403206082     Delta-E=       -0.170655058658 Rises=F Damp=F
 DIIS: error= 1.32D-02 at cycle   5 NSaved=   5.
 NSaved= 5 IEnMin= 5 EnMin= -346.184403206082     IErMin= 2 ErrMin= 1.16D-02
 ErrMax= 1.32D-02  0.00D+00 EMaxC= 1.00D-01 BMatC= 1.64D-02 BMatP= 2.16D-02
 IDIUse=3 WtCom= 8.68D-01 WtEn= 1.32D-01
 Coeff-Com: -0.285D-02 0.249D-01 0.323D+00-0.880D-01 0.743D+00
 Coeff-En:   0.000D+00 0.000D+00 0.368D+00 0.000D+00 0.632D+00
 Coeff:     -0.247D-02 0.216D-01 0.329D+00-0.764D-01 0.728D+00
 Gap=     0.173 Goal=   None    Shift=    0.000
 RMSDP=1.20D-03 MaxDP=3.09D-02 DE=-1.71D-01 OVMax= 5.95D-02

 Cycle   6  Pass 0  IDiag  1:
 E= -346.198822319295     Delta-E=       -0.014419113212 Rises=F Damp=F
 DIIS: error= 5.15D-04 at cycle   6 NSaved=   6.
 NSaved= 6 IEnMin= 6 EnMin= -346.198822319295     IErMin= 6 ErrMin= 5.15D-04
 ErrMax= 5.15D-04  0.00D+00 EMaxC= 1.00D-01 BMatC= 5.18D-05 BMatP= 1.64D-02
 IDIUse=3 WtCom= 9.95D-01 WtEn= 5.15D-03
 Coeff-Com: -0.260D-02 0.818D-02 0.133D+00-0.542D-01 0.378D+00 0.538D+00
 Coeff-En:   0.000D+00 0.000D+00 0.000D+00 0.000D+00 0.000D+00 0.100D+01
 Coeff:     -0.259D-02 0.814D-02 0.132D+00-0.539D-01 0.376D+00 0.540D+00
 Gap=     0.172 Goal=   None    Shift=    0.000
 RMSDP=7.66D-05 MaxDP=1.99D-03 DE=-1.44D-02 OVMax= 3.68D-03

 Cycle   7  Pass 0  IDiag  1:
 E= -346.198866506121     Delta-E=       -0.000044186827 Rises=F Damp=F
 DIIS: error= 1.87D-04 at cycle   7 NSaved=   7.
 NSaved= 7 IEnMin= 7 EnMin= -346.198866506121     IErMin= 7 ErrMin= 1.87D-04
 ErrMax= 1.87D-04  0.00D+00 EMaxC= 1.00D-01 BMatC= 7.03D-06 BMatP= 5.18D-05
 IDIUse=3 WtCom= 9.98D-01 WtEn= 1.87D-03
 Coeff-Com: -0.581D-03 0.563D-03 0.428D-01-0.177D-01 0.120D+00 0.291D+00
 Coeff-Com:  0.564D+00
 Coeff-En:   0.000D+00 0.000D+00 0.000D+00 0.000D+00 0.000D+00 0.960D-01
 Coeff-En:   0.904D+00
 Coeff:     -0.580D-03 0.561D-03 0.427D-01-0.177D-01 0.120D+00 0.290D+00
 Coeff:      0.565D+00
 Gap=     0.172 Goal=   None    Shift=    0.000
 RMSDP=2.60D-05 MaxDP=6.26D-04 DE=-4.42D-05 OVMax= 1.26D-03

 Cycle   8  Pass 0  IDiag  1:
 E= -346.198872782413     Delta-E=       -0.000006276292 Rises=F Damp=F
 DIIS: error= 7.86D-05 at cycle   8 NSaved=   8.
 NSaved= 8 IEnMin= 8 EnMin= -346.198872782413     IErMin= 8 ErrMin= 7.86D-05
 ErrMax= 7.86D-05  0.00D+00 EMaxC= 1.00D-01 BMatC= 7.95D-07 BMatP= 7.03D-06
 IDIUse=1 WtCom= 1.00D+00 WtEn= 0.00D+00
 Coeff-Com:  0.135D-04-0.642D-03 0.979D-02-0.418D-02 0.253D-01 0.120D+00
 Coeff-Com:  0.346D+00 0.504D+00
 Coeff:      0.135D-04-0.642D-03 0.979D-02-0.418D-02 0.253D-01 0.120D+00
 Coeff:      0.346D+00 0.504D+00
 Gap=     0.172 Goal=   None    Shift=    0.000
 RMSDP=1.01D-05 MaxDP=2.11D-04 DE=-6.28D-06 OVMax= 5.56D-04

 Cycle   9  Pass 0  IDiag  1:
 E= -346.198873666331     Delta-E=       -0.000000883917 Rises=F Damp=F
 DIIS: error= 6.47D-06 at cycle   9 NSaved=   9.
 NSaved= 9 IEnMin= 9 EnMin= -346.198873666331     IErMin= 9 ErrMin= 6.47D-06
 ErrMax= 6.47D-06  0.00D+00 EMaxC= 1.00D-01 BMatC= 8.72D-09 BMatP= 7.95D-07
 IDIUse=1 WtCom= 1.00D+00 WtEn= 0.00D+00
 Coeff-Com:  0.355D-04-0.181D-03 0.556D-03-0.324D-03 0.117D-02 0.223D-01
 Coeff-Com:  0.671D-01 0.144D+00 0.765D+00
 Coeff:      0.355D-04-0.181D-03 0.556D-03-0.324D-03 0.117D-02 0.223D-01
 Coeff:      0.671D-01 0.144D+00 0.765D+00
 Gap=     0.172 Goal=   None    Shift=    0.000
 RMSDP=1.22D-06 MaxDP=2.03D-05 DE=-8.84D-07 OVMax= 5.21D-05

 Initial convergence to 1.0D-05 achieved.  Increase integral accuracy.
 Cycle  10  Pass 1  IDiag  1:
 E= -346.198883184627     Delta-E=       -0.000009518296 Rises=F Damp=F
 DIIS: error= 7.54D-06 at cycle   1 NSaved=   1.
 NSaved= 1 IEnMin= 1 EnMin= -346.198883184627     IErMin= 1 ErrMin= 7.54D-06
 ErrMax= 7.54D-06  0.00D+00 EMaxC= 1.00D-01 BMatC= 5.23D-09 BMatP= 5.23D-09
 IDIUse=1 WtCom= 1.00D+00 WtEn= 0.00D+00
 Coeff-Com:  0.100D+01
 Coeff:      0.100D+01
 Gap=     0.172 Goal=   None    Shift=    0.000
 RMSDP=1.22D-06 MaxDP=2.03D-05 DE=-9.52D-06 OVMax= 2.75D-05

 Cycle  11  Pass 1  IDiag  1:
 E= -346.198883186087     Delta-E=       -0.000000001460 Rises=F Damp=F
 DIIS: error= 5.33D-06 at cycle   2 NSaved=   2.
 NSaved= 2 IEnMin= 2 EnMin= -346.198883186087     IErMin= 2 ErrMin= 5.33D-06
 ErrMax= 5.33D-06  0.00D+00 EMaxC= 1.00D-01 BMatC= 4.76D-09 BMatP= 5.23D-09
 IDIUse=1 WtCom= 1.00D+00 WtEn= 0.00D+00
 Coeff-Com:  0.486D+00 0.514D+00
 Coeff:      0.486D+00 0.514D+00
 Gap=     0.172 Goal=   None    Shift=    0.000
 RMSDP=6.15D-07 MaxDP=1.35D-05 DE=-1.46D-09 OVMax= 2.45D-05

 Cycle  12  Pass 1  IDiag  1:
 E= -346.198883190379     Delta-E=       -0.000000004291 Rises=F Damp=F
 DIIS: error= 1.28D-06 at cycle   3 NSaved=   3.
 NSaved= 3 IEnMin= 3 EnMin= -346.198883190379     IErMin= 3 ErrMin= 1.28D-06
 ErrMax= 1.28D-06  0.00D+00 EMaxC= 1.00D-01 BMatC= 3.75D-10 BMatP= 4.76D-09
 IDIUse=1 WtCom= 1.00D+00 WtEn= 0.00D+00
 Coeff-Com:  0.408D-01 0.218D+00 0.741D+00
 Coeff:      0.408D-01 0.218D+00 0.741D+00
 Gap=     0.172 Goal=   None    Shift=    0.000
 RMSDP=2.61D-07 MaxDP=5.97D-06 DE=-4.29D-09 OVMax= 1.47D-05

 Cycle  13  Pass 1  IDiag  1:
 E= -346.198883190592     Delta-E=       -0.000000000213 Rises=F Damp=F
 DIIS: error= 9.89D-07 at cycle   4 NSaved=   4.
 NSaved= 4 IEnMin= 4 EnMin= -346.198883190592     IErMin= 4 ErrMin= 9.89D-07
 ErrMax= 9.89D-07  0.00D+00 EMaxC= 1.00D-01 BMatC= 1.72D-10 BMatP= 3.75D-10
 IDIUse=1 WtCom= 1.00D+00 WtEn= 0.00D+00
 Coeff-Com: -0.144D-01 0.105D+00 0.505D+00 0.405D+00
 Coeff:     -0.144D-01 0.105D+00 0.505D+00 0.405D+00
 Gap=     0.172 Goal=   None    Shift=    0.000
 RMSDP=1.29D-07 MaxDP=2.50D-06 DE=-2.13D-10 OVMax= 6.89D-06

 Cycle  14  Pass 1  IDiag  1:
 E= -346.198883190772     Delta-E=       -0.000000000180 Rises=F Damp=F
 DIIS: error= 1.49D-07 at cycle   5 NSaved=   5.
 NSaved= 5 IEnMin= 5 EnMin= -346.198883190772     IErMin= 5 ErrMin= 1.49D-07
 ErrMax= 1.49D-07  0.00D+00 EMaxC= 1.00D-01 BMatC= 3.37D-12 BMatP= 1.72D-10
 IDIUse=1 WtCom= 1.00D+00 WtEn= 0.00D+00
 Coeff-Com: -0.942D-02 0.521D-01 0.259D+00 0.224D+00 0.474D+00
 Coeff:     -0.942D-02 0.521D-01 0.259D+00 0.224D+00 0.474D+00
 Gap=     0.172 Goal=   None    Shift=    0.000
 RMSDP=2.03D-08 MaxDP=4.69D-07 DE=-1.80D-10 OVMax= 8.80D-07

 SCF Done:  E(RB3LYP) =  -346.198883191     A.U. after   14 cycles
            NFock= 14  Conv=0.20D-07     -V/T= 2.0087
 KE= 3.432020331448D+02 PE=-1.479918656546D+03 EE= 4.589066825389D+02
 Leave Link  502 at Wed Dec 03 16:53:36 2025, MaxMem=   104857600 cpu:               9.0 elap:               9.1
 (Enter D:\Gaussian\G16W\l601.exe)
 Copying SCF densities to generalized density rwf, IOpCl= 0 IROHF=0.

 **********************************************************************

            Population analysis using the SCF density.

 **********************************************************************

 Orbital symmetries:
       Occupied  (A) (A) (A) (A) (A) (A) (A) (A) (A) (A) (A) (A)
                 (A) (A) (A) (A) (A) (A) (A) (A) (A) (A) (A) (A)
                 (A) (A) (A) (A) (A)
       Virtual   (A) (A) (A) (A) (A) (A) (A) (A) (A) (A) (A) (A)
                 (A) (A) (A) (A) (A) (A) (A) (A) (A) (A) (A) (A)
                 (A) (A) (A) (A) (A) (A) (A) (A) (A) (A) (A) (A)
                 (A) (A) (A) (A) (A) (A) (A) (A) (A) (A) (A) (A)
                 (A) (A) (A) (A) (A) (A) (A) (A) (A) (A) (A) (A)
                 (A) (A) (A) (A) (A) (A) (A) (A) (A) (A) (A) (A)
                 (A) (A) (A) (A) (A) (A) (A) (A) (A) (A) (A) (A)
                 (A) (A) (A) (A) (A) (A) (A) (A) (A) (A) (A) (A)
                 (A) (A) (A) (A) (A) (A) (A) (A) (A)
 The electronic state is 1-A.
 Alpha  occ. eigenvalues --  -18.86145 -10.03837 -10.02458 -10.01131 -10.00232
 Alpha  occ. eigenvalues --   -9.98306  -9.97394  -9.97228  -0.76580  -0.64885
 Alpha  occ. eigenvalues --   -0.58817  -0.52195  -0.49927  -0.40266  -0.37211
 Alpha  occ. eigenvalues --   -0.30770  -0.28282  -0.27267  -0.25651  -0.23241
 Alpha  occ. eigenvalues --   -0.22058  -0.19116  -0.17627  -0.15620  -0.15217
 Alpha  occ. eigenvalues --   -0.10766  -0.05872  -0.00545   0.02449
 Alpha virt. eigenvalues --    0.19635   0.21995   0.24652   0.27279   0.28733
 Alpha virt. eigenvalues --    0.31295   0.32873   0.34031   0.35056   0.37929
 Alpha virt. eigenvalues --    0.39702   0.46585   0.47924   0.49940   0.54206
 Alpha virt. eigenvalues --    0.58383   0.62915   0.67887   0.68964   0.72494
 Alpha virt. eigenvalues --    0.72770   0.74794   0.76452   0.77738   0.79727
 Alpha virt. eigenvalues --    0.79857   0.82335   0.85045   0.85467   0.87459
 Alpha virt. eigenvalues --    0.88930   0.90568   0.92745   0.95230   0.99720
 Alpha virt. eigenvalues --    1.01395   1.02298   1.03077   1.04270   1.06120
 Alpha virt. eigenvalues --    1.08759   1.10109   1.12290   1.15085   1.19423
 Alpha virt. eigenvalues --    1.24365   1.25818   1.26166   1.32859   1.34630
 Alpha virt. eigenvalues --    1.35417   1.44437   1.45345   1.53105   1.55442
 Alpha virt. eigenvalues --    1.57445   1.63267   1.65372   1.66705   1.68781
 Alpha virt. eigenvalues --    1.70201   1.86804   1.96443   1.97813   2.04398
 Alpha virt. eigenvalues --    2.04415   2.05821   2.07433   2.10842   2.11905
 Alpha virt. eigenvalues --    2.14865   2.17414   2.19232   2.21812   2.25707
 Alpha virt. eigenvalues --    2.31978   2.32719   2.37392   2.39097   2.42931
 Alpha virt. eigenvalues --    2.49569   2.49795   2.52987   2.56989   2.57969
 Alpha virt. eigenvalues --    2.76314   2.81127   2.83611   2.84432   2.92620
 Alpha virt. eigenvalues --    2.94288   2.97668   3.02951   3.09063   3.23144
 Alpha virt. eigenvalues --    3.37874   3.57875   4.18427   4.27802   4.31402
 Alpha virt. eigenvalues --    4.39983   4.44531   4.55616   4.68046   4.96012
          Condensed to atoms (all electrons):
               1          2          3          4          5          6
     1  C    4.979519   0.427364   0.013839  -0.039778  -0.009807   0.516575
     2  C    0.427364   5.364417   0.414606  -0.088821  -0.029476  -0.046936
     3  C    0.013839   0.414606   4.335208   0.389016   0.013249  -0.043134
     4  C   -0.039778  -0.088821   0.389016   5.474963   0.424208  -0.046580
     5  C   -0.009807  -0.029476   0.013249   0.424208   4.729971   0.536320
     6  C    0.516575  -0.046936  -0.043134  -0.046580   0.536320   5.115502
     7  H    0.326163  -0.040071   0.003035   0.000434   0.004199  -0.052346
     8  H   -0.059280   0.312760  -0.032442   0.009699   0.000177   0.006144
     9  H   -0.054481   0.005986   0.000637   0.006657  -0.060758   0.337265
    10  O    0.007307  -0.088240   0.511969  -0.081122   0.007480   0.000450
    11  H   -0.000247   0.010003  -0.035397   0.307398  -0.059234   0.007795
    12  C    0.007094   0.000119   0.005400  -0.040969   0.308738  -0.084689
    13  H   -0.000015   0.000037  -0.000113  -0.000754  -0.026925  -0.000915
    14  H   -0.000015   0.000037  -0.000113  -0.000756  -0.026926  -0.000915
    15  H   -0.000159   0.000000  -0.000114  -0.001959  -0.024391   0.003991
               7          8          9         10         11         12
     1  C    0.326163  -0.059280  -0.054481   0.007307  -0.000247   0.007094
     2  C   -0.040071   0.312760   0.005986  -0.088240   0.010003   0.000119
     3  C    0.003035  -0.032442   0.000637   0.511969  -0.035397   0.005400
     4  C    0.000434   0.009699   0.006657  -0.081122   0.307398  -0.040969
     5  C    0.004199   0.000177  -0.060758   0.007480  -0.059234   0.308738
     6  C   -0.052346   0.006144   0.337265   0.000450   0.007795  -0.084689
     7  H    0.734237  -0.008893  -0.007630  -0.000109   0.000031  -0.000265
     8  H   -0.008893   0.730366  -0.000245   0.002706  -0.000238   0.000016
     9  H   -0.007630  -0.000245   0.758672   0.000002  -0.000238  -0.012022
    10  O   -0.000109   0.002706   0.000002   8.333004   0.003430  -0.000114
    11  H    0.000031  -0.000238  -0.000238   0.003430   0.735803  -0.016394
    12  C   -0.000265   0.000016  -0.012022  -0.000114  -0.016394   5.302482
    13  H    0.000000   0.000000   0.002876   0.000001   0.000250   0.350454
    14  H    0.000000   0.000000   0.002874   0.000001   0.000251   0.350459
    15  H    0.000004   0.000000   0.000045   0.000001   0.008813   0.350195
              13         14         15
     1  C   -0.000015  -0.000015  -0.000159
     2  C    0.000037   0.000037   0.000000
     3  C   -0.000113  -0.000113  -0.000114
     4  C   -0.000754  -0.000756  -0.001959
     5  C   -0.026925  -0.026926  -0.024391
     6  C   -0.000915  -0.000915   0.003991
     7  H    0.000000   0.000000   0.000004
     8  H    0.000000   0.000000   0.000000
     9  H    0.002876   0.002874   0.000045
    10  O    0.000001   0.000001   0.000001
    11  H    0.000250   0.000251   0.008813
    12  C    0.350454   0.350459   0.350195
    13  H    0.632561  -0.042490  -0.032414
    14  H   -0.042490   0.632561  -0.032416
    15  H   -0.032414  -0.032416   0.606309
 Mulliken charges:
               1
     1  C   -0.114080
     2  C   -0.241785
     3  C    0.424354
     4  C   -0.311636
     5  C    0.213173
     6  C   -0.248527
     7  H    0.041212
     8  H    0.039231
     9  H    0.020361
    10  O   -0.696765
    11  H    0.037975
    12  C   -0.520504
    13  H    0.117446
    14  H    0.117450
    15  H    0.122096
 Sum of Mulliken charges =  -1.00000
 Mulliken charges with hydrogens summed into heavy atoms:
               1
     1  C   -0.072868
     2  C   -0.202554
     3  C    0.424354
     4  C   -0.273660
     5  C    0.213173
     6  C   -0.228167
    10  O   -0.696765
    12  C   -0.163513
 Electronic spatial extent (au):  <R**2>=            964.5979
 Charge=             -1.0000 electrons
 Dipole moment (field-independent basis, Debye):
    X=              4.8877    Y=              1.7222    Z=              0.0000  Tot=              5.1822
 Quadrupole moment (field-independent basis, Debye-Ang):
   XX=            -67.0746   YY=            -56.8551   ZZ=            -51.6356
   XY=             -7.5851   XZ=              0.0000   YZ=              0.0000
 Traceless Quadrupole moment (field-independent basis, Debye-Ang):
   XX=             -8.5529   YY=              1.6667   ZZ=              6.8862
   XY=             -7.5851   XZ=              0.0000   YZ=              0.0000
 Octapole moment (field-independent basis, Debye-Ang**2):
  XXX=             20.2115  YYY=             -2.8605  ZZZ=              0.0004  XYY=              7.7804
  XXY=             18.4000  XXZ=             -0.0002  XZZ=             -2.3398  YZZ=             -4.0123
  YYZ=             -0.0001  XYZ=             -0.0002
 Hexadecapole moment (field-independent basis, Debye-Ang**3):
 XXXX=           -928.8734 YYYY=           -456.7248 ZZZZ=            -59.9128 XXXY=            -29.1662
 XXXZ=             -0.0010 YYYX=             -7.3488 YYYZ=              0.0004 ZZZX=              0.0006
 ZZZY=             -0.0002 XXYY=           -241.7014 XXZZ=           -146.1679 YYZZ=            -90.2906
 XXYZ=              0.0001 YYXZ=             -0.0003 ZZXY=              4.3673
 N-N= 3.316110576715D+02 E-N=-1.479918653168D+03  KE= 3.432020331448D+02
 No NMR shielding tensors so no spin-rotation constants.
 Leave Link  601 at Wed Dec 03 16:53:36 2025, MaxMem=   104857600 cpu:               0.0 elap:               0.1
 (Enter D:\Gaussian\G16W\l9999.exe)
 1|1|UNPC-PC-20250526LCFF|SP|RB3LYP|6-31G(d)|C7H7O1(1-)|ADMINISTRATOR|0
 3-Dec-2025|0||#P B3LYP/6-31G* SCF=conver=7 out=wfn||Generated by Multi
 wfn (http://sobereva.com/multiwfn)||-1,1|C,0,-0.32793069,1.76212803,0.
 00000107|C,0,-1.43642881,0.94810119,0.00001807|C,0,-1.28762902,-0.4954
 1483,-0.00000093|C,0,0.06627991,-1.01990302,-0.00003493|C,0,1.16901602
 ,-0.19655019,-0.00002393|C,0,0.96211623,1.20559484,-0.00002093|H,0,-0.
 44032954,2.84078804,0.00001007|H,0,-2.44586875,1.34147833,0.00006307|H
 ,0,1.82416032,1.86489272,-0.00005193|O,0,-2.28171513,-1.25527769,0.000
 00807|H,0,0.16358075,-2.10002704,-0.00005893|C,0,2.57478195,-0.7459553
 9,0.00002807|H,0,3.128872,-0.40796647,-0.88100393|H,0,3.12871199,-0.40
 814047,0.88123707|H,0,2.57336079,-1.83680739,-0.00005893||Version=EM64
 W-G16RevA.03|State=1-A|HF=-346.1988832|RMSD=2.029e-008|Dipole=1.922961
 7,0.6775841,0.0000149|Quadrupole=-6.358853,1.2391623,5.1196907,-5.6393
 059,0.000019,0.000023|PG=C01 [X(C7H7O1)]||@

 Writing a WFN file to "N+1.wfn"


 THE CAUTIOUS SELDOM ERR...CONFUCIUS                   
 Job cpu time:       0 days  0 hours  0 minutes 11.0 seconds.
 Elapsed time:       0 days  0 hours  0 minutes 10.7 seconds.
 File lengths (MBytes):  RWF=     10 Int=      0 D2E=      0 Chk=      2 Scr=      1
 Normal termination of Gaussian 16 at Wed Dec 03 16:53:36 2025.
