 Generated by Multiwfn (http://sobereva.com/multiwfn)
GAUSSIAN             29 MOL ORBITALS    252 PRIMITIVES       15 NUCLEI
  C    1    (CENTRE  1)  -0.61969920  3.32993937  0.00000202  CHARGE =  6.0
  C    2    (CENTRE  2)  -2.71445705  1.79165159  0.00003415  CHARGE =  6.0
  C    3    (CENTRE  3)  -2.43326620 -0.93619835 -0.00000176  CHARGE =  6.0
  C    4    (CENTRE  4)   0.12525088 -1.92733738 -0.00006601  CHARGE =  6.0
  C    5    (CENTRE  5)   2.20912011 -0.37142603 -0.00004522  CHARGE =  6.0
  C    6    (CENTRE  6)   1.81813617  2.27824407 -0.00003955  CHARGE =  6.0
  H    7    (CENTRE  7)  -0.83210224  5.36831137  0.00001903  CHARGE =  1.0
  H    8    (CENTRE  8)  -4.62202208  2.53502664  0.00011919  CHARGE =  1.0
  H    9    (CENTRE  9)   3.44716341  3.52413650 -0.00009813  CHARGE =  1.0
  O   10    (CENTRE 10)  -4.31181669 -2.37213105  0.00001525  CHARGE =  8.0
  H   11    (CENTRE 11)   0.30912282 -3.96847596 -0.00011136  CHARGE =  1.0
  C   12    (CENTRE 12)   4.86563271 -1.40965138  0.00005304  CHARGE =  6.0
  H   13    (CENTRE 13)   5.91271116 -0.77094489 -1.66485614  CHARGE =  1.0
  H   14    (CENTRE 14)   5.91240878 -0.77127370  1.66529671  CHARGE =  1.0
  H   15    (CENTRE 15)   4.86294711 -3.47106291 -0.00011136  CHARGE =  1.0
CENTRE ASSIGNMENTS    1  1  1  1  1  1  1  1  1  1  1  1  1  1  1  1  1  1  1  1
CENTRE ASSIGNMENTS    1  1  1  1  1  1  1  1  2  2  2  2  2  2  2  2  2  2  2  2
CENTRE ASSIGNMENTS    2  2  2  2  2  2  2  2  2  2  2  2  2  2  2  2  3  3  3  3
CENTRE ASSIGNMENTS    3  3  3  3  3  3  3  3  3  3  3  3  3  3  3  3  3  3  3  3
CENTRE ASSIGNMENTS    3  3  3  3  4  4  4  4  4  4  4  4  4  4  4  4  4  4  4  4
CENTRE ASSIGNMENTS    4  4  4  4  4  4  4  4  4  4  4  4  5  5  5  5  5  5  5  5
CENTRE ASSIGNMENTS    5  5  5  5  5  5  5  5  5  5  5  5  5  5  5  5  5  5  5  5
CENTRE ASSIGNMENTS    6  6  6  6  6  6  6  6  6  6  6  6  6  6  6  6  6  6  6  6
CENTRE ASSIGNMENTS    6  6  6  6  6  6  6  6  7  7  7  7  8  8  8  8  9  9  9  9
CENTRE ASSIGNMENTS   10 10 10 10 10 10 10 10 10 10 10 10 10 10 10 10 10 10 10 10
CENTRE ASSIGNMENTS   10 10 10 10 10 10 10 10 11 11 11 11 12 12 12 12 12 12 12 12
CENTRE ASSIGNMENTS   12 12 12 12 12 12 12 12 12 12 12 12 12 12 12 12 12 12 12 12
CENTRE ASSIGNMENTS   13 13 13 13 14 14 14 14 15 15 15 15
TYPE ASSIGNMENTS      1  1  1  1  1  1  1  1  1  2  2  2  3  3  3  4  4  4  1  2
TYPE ASSIGNMENTS      3  4  5  6  7  8  9 10  1  1  1  1  1  1  1  1  1  2  2  2
TYPE ASSIGNMENTS      3  3  3  4  4  4  1  2  3  4  5  6  7  8  9 10  1  1  1  1
TYPE ASSIGNMENTS      1  1  1  1  1  2  2  2  3  3  3  4  4  4  1  2  3  4  5  6
TYPE ASSIGNMENTS      7  8  9 10  1  1  1  1  1  1  1  1  1  2  2  2  3  3  3  4
TYPE ASSIGNMENTS      4  4  1  2  3  4  5  6  7  8  9 10  1  1  1  1  1  1  1  1
TYPE ASSIGNMENTS      1  2  2  2  3  3  3  4  4  4  1  2  3  4  5  6  7  8  9 10
TYPE ASSIGNMENTS      1  1  1  1  1  1  1  1  1  2  2  2  3  3  3  4  4  4  1  2
TYPE ASSIGNMENTS      3  4  5  6  7  8  9 10  1  1  1  1  1  1  1  1  1  1  1  1
TYPE ASSIGNMENTS      1  1  1  1  1  1  1  1  1  2  2  2  3  3  3  4  4  4  1  2
TYPE ASSIGNMENTS      3  4  5  6  7  8  9 10  1  1  1  1  1  1  1  1  1  1  1  1
TYPE ASSIGNMENTS      1  2  2  2  3  3  3  4  4  4  1  2  3  4  5  6  7  8  9 10
TYPE ASSIGNMENTS      1  1  1  1  1  1  1  1  1  1  1  1
EXPONENTS  0.3047525D+04 0.4573695D+03 0.1039487D+03 0.2921016D+02 0.9286663D+01
EXPONENTS  0.3163927D+01 0.7868272D+01 0.1881289D+01 0.5442493D+00 0.7868272D+01
EXPONENTS  0.1881289D+01 0.5442493D+00 0.7868272D+01 0.1881289D+01 0.5442493D+00
EXPONENTS  0.7868272D+01 0.1881289D+01 0.5442493D+00 0.1687145D+00 0.1687145D+00
EXPONENTS  0.1687145D+00 0.1687145D+00 0.8000000D+00 0.8000000D+00 0.8000000D+00
EXPONENTS  0.8000000D+00 0.8000000D+00 0.8000000D+00 0.3047525D+04 0.4573695D+03
EXPONENTS  0.1039487D+03 0.2921016D+02 0.9286663D+01 0.3163927D+01 0.7868272D+01
EXPONENTS  0.1881289D+01 0.5442493D+00 0.7868272D+01 0.1881289D+01 0.5442493D+00
EXPONENTS  0.7868272D+01 0.1881289D+01 0.5442493D+00 0.7868272D+01 0.1881289D+01
EXPONENTS  0.5442493D+00 0.1687145D+00 0.1687145D+00 0.1687145D+00 0.1687145D+00
EXPONENTS  0.8000000D+00 0.8000000D+00 0.8000000D+00 0.8000000D+00 0.8000000D+00
EXPONENTS  0.8000000D+00 0.3047525D+04 0.4573695D+03 0.1039487D+03 0.2921016D+02
EXPONENTS  0.9286663D+01 0.3163927D+01 0.7868272D+01 0.1881289D+01 0.5442493D+00
EXPONENTS  0.7868272D+01 0.1881289D+01 0.5442493D+00 0.7868272D+01 0.1881289D+01
EXPONENTS  0.5442493D+00 0.7868272D+01 0.1881289D+01 0.5442493D+00 0.1687145D+00
EXPONENTS  0.1687145D+00 0.1687145D+00 0.1687145D+00 0.8000000D+00 0.8000000D+00
EXPONENTS  0.8000000D+00 0.8000000D+00 0.8000000D+00 0.8000000D+00 0.3047525D+04
EXPONENTS  0.4573695D+03 0.1039487D+03 0.2921016D+02 0.9286663D+01 0.3163927D+01
EXPONENTS  0.7868272D+01 0.1881289D+01 0.5442493D+00 0.7868272D+01 0.1881289D+01
EXPONENTS  0.5442493D+00 0.7868272D+01 0.1881289D+01 0.5442493D+00 0.7868272D+01
EXPONENTS  0.1881289D+01 0.5442493D+00 0.1687145D+00 0.1687145D+00 0.1687145D+00
EXPONENTS  0.1687145D+00 0.8000000D+00 0.8000000D+00 0.8000000D+00 0.8000000D+00
EXPONENTS  0.8000000D+00 0.8000000D+00 0.3047525D+04 0.4573695D+03 0.1039487D+03
EXPONENTS  0.2921016D+02 0.9286663D+01 0.3163927D+01 0.7868272D+01 0.1881289D+01
EXPONENTS  0.5442493D+00 0.7868272D+01 0.1881289D+01 0.5442493D+00 0.7868272D+01
EXPONENTS  0.1881289D+01 0.5442493D+00 0.7868272D+01 0.1881289D+01 0.5442493D+00
EXPONENTS  0.1687145D+00 0.1687145D+00 0.1687145D+00 0.1687145D+00 0.8000000D+00
EXPONENTS  0.8000000D+00 0.8000000D+00 0.8000000D+00 0.8000000D+00 0.8000000D+00
EXPONENTS  0.3047525D+04 0.4573695D+03 0.1039487D+03 0.2921016D+02 0.9286663D+01
EXPONENTS  0.3163927D+01 0.7868272D+01 0.1881289D+01 0.5442493D+00 0.7868272D+01
EXPONENTS  0.1881289D+01 0.5442493D+00 0.7868272D+01 0.1881289D+01 0.5442493D+00
EXPONENTS  0.7868272D+01 0.1881289D+01 0.5442493D+00 0.1687145D+00 0.1687145D+00
EXPONENTS  0.1687145D+00 0.1687145D+00 0.8000000D+00 0.8000000D+00 0.8000000D+00
EXPONENTS  0.8000000D+00 0.8000000D+00 0.8000000D+00 0.1873114D+02 0.2825394D+01
EXPONENTS  0.6401217D+00 0.1612778D+00 0.1873114D+02 0.2825394D+01 0.6401217D+00
EXPONENTS  0.1612778D+00 0.1873114D+02 0.2825394D+01 0.6401217D+00 0.1612778D+00
EXPONENTS  0.5484672D+04 0.8252349D+03 0.1880470D+03 0.5296450D+02 0.1689757D+02
EXPONENTS  0.5799635D+01 0.1553962D+02 0.3599934D+01 0.1013762D+01 0.1553962D+02
EXPONENTS  0.3599934D+01 0.1013762D+01 0.1553962D+02 0.3599934D+01 0.1013762D+01
EXPONENTS  0.1553962D+02 0.3599934D+01 0.1013762D+01 0.2700058D+00 0.2700058D+00
EXPONENTS  0.2700058D+00 0.2700058D+00 0.8000000D+00 0.8000000D+00 0.8000000D+00
EXPONENTS  0.8000000D+00 0.8000000D+00 0.8000000D+00 0.1873114D+02 0.2825394D+01
EXPONENTS  0.6401217D+00 0.1612778D+00 0.3047525D+04 0.4573695D+03 0.1039487D+03
EXPONENTS  0.2921016D+02 0.9286663D+01 0.3163927D+01 0.7868272D+01 0.1881289D+01
EXPONENTS  0.5442493D+00 0.7868272D+01 0.1881289D+01 0.5442493D+00 0.7868272D+01
EXPONENTS  0.1881289D+01 0.5442493D+00 0.7868272D+01 0.1881289D+01 0.5442493D+00
EXPONENTS  0.1687145D+00 0.1687145D+00 0.1687145D+00 0.1687145D+00 0.8000000D+00
EXPONENTS  0.8000000D+00 0.8000000D+00 0.8000000D+00 0.8000000D+00 0.8000000D+00
EXPONENTS  0.1873114D+02 0.2825394D+01 0.6401217D+00 0.1612778D+00 0.1873114D+02
EXPONENTS  0.2825394D+01 0.6401217D+00 0.1612778D+00 0.1873114D+02 0.2825394D+01
EXPONENTS  0.6401217D+00 0.1612778D+00
MO    1     MO 0.0        OCC NO =    2.0000000  ORB. ENERGY =  -18.861446
  0.27081799D-06  0.49960631D-06  0.80651949D-06  0.10498487D-05  0.89583783D-06
  0.30931127D-06  0.97279334D-05  0.44835956D-05 -0.12572470D-04 -0.80451035D-04
 -0.61684751D-04 -0.30785014D-04 -0.96084113D-04 -0.73671204D-04 -0.36767094D-04
  0.23177674D-08  0.17771170D-08  0.88690595D-09  0.42751154D-03 -0.11879973D-04
 -0.15142372D-03 -0.88379444D-09  0.65333445D-04 -0.14067017D-05  0.25875806D-04
  0.27289016D-04  0.47350575D-09 -0.12894593D-08  0.13726541D-04  0.25322789D-04
  0.40878833D-04  0.53212094D-04  0.45405976D-04  0.15677592D-04 -0.86499630D-04
 -0.39867600D-04  0.11179291D-03  0.56270781D-04  0.43144865D-04  0.21532312D-04
  0.40481560D-04  0.31038692D-04  0.15490483D-04 -0.30155882D-08 -0.23121618D-08
 -0.11539308D-08 -0.54218265D-03 -0.39305021D-03  0.10429837D-03  0.11381800D-07
 -0.54175411D-04 -0.78582383D-04  0.57747408D-04 -0.48420607D-04  0.25378025D-09
  0.13312880D-09 -0.37185581D-04 -0.68600135D-04 -0.11074189D-03 -0.14415303D-03
 -0.12300605D-03 -0.42471031D-04 -0.87696097D-04 -0.40419051D-04  0.11333924D-03
 -0.17143227D-03 -0.13144339D-03 -0.65599465D-04 -0.13299405D-03 -0.10197141D-03
 -0.50890878D-04  0.22578754D-08  0.17311956D-08  0.86398795D-09 -0.16527813D-03
  0.80824713D-03  0.62376697D-03 -0.83876619D-08 -0.60241790D-03 -0.38563563D-03
 -0.17174009D-03 -0.81003205D-03  0.63240930D-08  0.68466775D-08  0.14652820D-04
  0.27031591D-04  0.43637370D-04  0.56802889D-04  0.48470009D-04  0.16735529D-04
 -0.91733575D-04 -0.42279921D-04  0.11855731D-03  0.43571299D-04  0.33407708D-04
  0.16672788D-04  0.46363648D-04  0.35548705D-04  0.17741295D-04 -0.21083717D-09
 -0.16165657D-09 -0.80677957D-10 -0.57402496D-03 -0.28607683D-04 -0.40972838D-03
 -0.77185206D-08 -0.10154096D-03 -0.40378358D-04  0.61456655D-04 -0.34518146D-04
  0.17720431D-08 -0.67371602D-08 -0.25880663D-05 -0.47744769D-05 -0.77074861D-05
 -0.10032857D-04 -0.85610549D-05 -0.29559265D-05  0.23945585D-04  0.11036498D-04
 -0.30947493D-04 -0.11464841D-03 -0.87905129D-04 -0.43870820D-04 -0.35980707D-04
 -0.27587724D-04 -0.13768208D-04  0.66412198D-09  0.50920661D-09  0.25412978D-09
  0.47475461D-03 -0.14896243D-03 -0.84536152D-05 -0.79103905D-09  0.37275445D-04
  0.42055615D-04  0.13006473D-04  0.50949090D-04  0.78075250D-08 -0.15621001D-08
  0.12538755D-04  0.23131555D-04  0.37341502D-04  0.48607541D-04  0.41476903D-04
  0.14320978D-04 -0.46704825D-04 -0.21526211D-04  0.60361744D-04 -0.47519941D-04
 -0.36435277D-04 -0.18183757D-04 -0.37965166D-04 -0.29109281D-04 -0.14527571D-04
  0.21705480D-08  0.16642385D-08  0.83057167D-09 -0.25505550D-03  0.12834895D-03
  0.84070932D-04 -0.24591679D-08  0.31452890D-05 -0.73510623D-05  0.64342319D-04
  0.62586929D-04  0.27166383D-08 -0.16789748D-08  0.28361385D-05  0.48106277D-05
  0.54767297D-05  0.22336155D-04 -0.20141664D-04 -0.34164074D-04 -0.38894591D-04
 -0.15738026D-03 -0.87916556D-05 -0.14912312D-04 -0.16977140D-04 -0.50128207D-04
  0.82562954D+00  0.15195991D+01  0.24589982D+01  0.32324219D+01  0.27724295D+01
  0.94794073D+00 -0.15636021D-01 -0.69767619D-02  0.20602471D-01  0.24303204D-02
  0.18724309D-02  0.82209800D-03  0.18477735D-02  0.14236099D-02  0.62504143D-03
 -0.25459284D-07 -0.19615006D-07 -0.86120440D-08  0.43265515D-02  0.47687607D-03
  0.36543185D-03 -0.32627939D-08 -0.89514957D-02 -0.90959495D-02 -0.92698827D-02
  0.53597817D-03 -0.40350665D-08 -0.52686557D-08 -0.18838117D-04 -0.31953011D-04
 -0.36377374D-04 -0.15457385D-03  0.71729093D-05  0.13232617D-04  0.21361547D-04
  0.27806387D-04  0.23727240D-04  0.81924459D-05 -0.24483967D-04 -0.11284638D-04
  0.31643302D-04 -0.41457539D-06 -0.31787011D-06 -0.15863946D-06 -0.17658664D-05
 -0.13539543D-05 -0.67571811D-06 -0.29168389D-08 -0.22364470D-08 -0.11161438D-08
 -0.35651304D-04  0.16456138D-04  0.69692274D-05  0.80795635D-09 -0.63711651D-05
  0.25585566D-04  0.30750173D-04  0.64247239D-05 -0.15279465D-08 -0.25180044D-08
  0.24304862D-05  0.41225645D-05  0.46933940D-05  0.16980658D-05  0.24305456D-05
  0.41226654D-05  0.46935088D-05  0.16983583D-05  0.35938828D-05  0.60959054D-05
  0.69399728D-05  0.99817030D-05
MO    2     MO 0.0        OCC NO =    2.0000000  ORB. ENERGY =  -10.038368
 -0.24271362D-04 -0.44775924D-04 -0.72282224D-04 -0.94089978D-04 -0.80287149D-04
 -0.27721223D-04  0.66165118D-04  0.30495443D-04 -0.85512404D-04 -0.15143258D-04
 -0.11610890D-04 -0.57946477D-05  0.15773819D-04  0.12094364D-04  0.60359351D-05
  0.10193584D-07  0.78157936D-08  0.39006288D-08  0.31705843D-03  0.12952322D-03
 -0.10687103D-03 -0.76095686D-08  0.22009853D-04 -0.72434138D-05 -0.80076634D-04
 -0.58869847D-04 -0.29539916D-08  0.70197702D-08 -0.15427704D-06 -0.28461101D-06
 -0.45945041D-06 -0.59806792D-06 -0.51033244D-06 -0.17620553D-06 -0.18972815D-05
 -0.87445532D-06  0.24520640D-05 -0.22846859D-04 -0.17517522D-04 -0.87424712D-05
  0.38108973D-05  0.29219544D-05  0.14582600D-05  0.55326965D-10  0.42421207D-10
  0.21171156D-10 -0.10374391D-03 -0.76800116D-04  0.55039865D-04  0.54367836D-08
 -0.64172542D-05  0.77532775D-05 -0.15778741D-04  0.22774125D-04  0.20589744D-08
 -0.16350664D-08 -0.49790399D-04 -0.91853565D-04 -0.14828013D-03 -0.19301668D-03
 -0.16470148D-03 -0.56867463D-04  0.60648779D-04  0.27952967D-04 -0.78383037D-04
 -0.16285579D-04 -0.12486749D-04 -0.62317628D-05  0.12399876D-04  0.95074388D-05
  0.47448783D-05  0.10576783D-07  0.81096062D-08  0.40472618D-08  0.15291496D-03
  0.12720371D-03  0.72445679D-04 -0.71905706D-08 -0.51192314D-05 -0.32020109D-04
 -0.68880222D-04 -0.23658952D-04 -0.12106144D-08  0.11991527D-08 -0.13680909D-04
 -0.25238605D-04 -0.40742935D-04 -0.53035195D-04 -0.45255028D-04 -0.15625474D-04
  0.32149156D-04  0.14817517D-04 -0.41549863D-04 -0.10418206D-03 -0.79880196D-04
 -0.39865816D-04  0.60561107D-04  0.46434416D-04  0.23174028D-04 -0.13046179D-07
 -0.10002983D-07 -0.49921893D-08 -0.11767307D-03  0.57106658D-05 -0.24099272D-04
  0.26401618D-08 -0.52162361D-04  0.71478125D-04 -0.75939380D-04  0.87248792D-04
  0.10945935D-07 -0.84797196D-08  0.23570513D-02  0.43482993D-02  0.70195034D-02
  0.91373077D-02  0.77968812D-02  0.26920757D-02 -0.40593616D-05 -0.18709561D-05
  0.52463561D-05 -0.27303205D-03 -0.20934366D-03 -0.10447716D-03  0.16323789D-03
  0.12516046D-03  0.62463843D-04  0.10053817D-08  0.77086295D-09  0.38471464D-09
  0.78145229D-03  0.40885666D-03 -0.30730883D-03  0.12320908D-07 -0.38678958D-03
 -0.26890349D-03 -0.19480504D-03  0.19459373D-03 -0.20539520D-08  0.10751511D-08
 -0.53165008D-05 -0.98079058D-05 -0.15833001D-04 -0.20609863D-04 -0.17586433D-04
 -0.60721728D-05  0.35700271D-04  0.16454222D-04 -0.46139357D-04 -0.12970111D-03
 -0.99446588D-04 -0.49630817D-04  0.44651852D-04  0.34236208D-04  0.17086267D-04
 -0.12191473D-07 -0.93476479D-08 -0.46651314D-08 -0.58596892D-04  0.14873589D-03
 -0.15994417D-03  0.18613092D-08 -0.27203822D-04  0.12640491D-03 -0.61003209D-04
  0.11102109D-03  0.17354454D-07 -0.12172004D-08 -0.29125166D-05 -0.49401794D-05
 -0.56242196D-05  0.40907577D-04 -0.94791538D-05 -0.16078439D-04 -0.18304734D-04
 -0.23625013D-04 -0.18285361D-04 -0.31015433D-04 -0.35309974D-04  0.19885137D-04
 -0.21063846D-04 -0.38768722D-04 -0.62735110D-04 -0.82467058D-04 -0.70731516D-04
 -0.24184307D-04  0.67524156D-04  0.30129147D-04 -0.88971775D-04 -0.13040473D-04
 -0.10046982D-04 -0.44111660D-05 -0.15836541D-04 -0.12201201D-04 -0.53569844D-05
 -0.75927673D-08 -0.58498179D-08 -0.25683851D-08  0.18642723D-03  0.29637810D-04
  0.32295317D-04  0.35667479D-08 -0.75079581D-04 -0.69464191D-04 -0.85217110D-04
  0.17899127D-04  0.39081156D-08  0.34537207D-08 -0.43685308D-05 -0.74098550D-05
 -0.84358580D-05 -0.22323866D-04  0.53254624D+00  0.98244382D+00  0.15859689D+01
  0.20644603D+01  0.17616077D+01  0.60824082D+00 -0.20048440D-01 -0.92403077D-02
  0.25910787D-01  0.24854045D-03  0.19056505D-03  0.95105315D-04  0.44901854D-05
  0.34427894D-05  0.17181932D-05  0.40607313D-07  0.31135112D-07  0.15538603D-07
 -0.34062671D-02  0.18453078D-03 -0.79557844D-04 -0.12204253D-07 -0.10313724D-01
 -0.10139209D-01 -0.10130323D-01  0.81198345D-04 -0.42667046D-07 -0.10132126D-07
 -0.26392292D-05 -0.44766322D-05 -0.50964876D-05  0.50615423D-03 -0.26328259D-05
 -0.44657711D-05 -0.50841226D-05  0.50616755D-03 -0.79654630D-05 -0.13510933D-04
 -0.15381719D-04  0.49575979D-03
MO    3     MO 0.0        OCC NO =    2.0000000  ORB. ENERGY =  -10.024584
  0.54081418D-04  0.99769656D-04  0.16105916D-03  0.20965117D-03  0.17889572D-03
  0.61768395D-04 -0.81538579D-04 -0.37581056D-04  0.10538120D-03  0.12669061D-03
  0.97138327D-04  0.48478833D-04  0.17479797D-03  0.13402400D-03  0.66887368D-04
 -0.41415998D-08 -0.31755160D-08 -0.15848050D-08 -0.14660776D-02 -0.85833122D-06
  0.60255297D-03  0.38170373D-08  0.21315171D-04  0.40298042D-04  0.23786522D-04
  0.23417851D-04 -0.64899408D-08  0.16093447D-08  0.17293163D-02  0.31902508D-02
  0.51500540D-02  0.67038401D-02  0.57203989D-02  0.19751163D-02  0.22079058D-03
  0.10176218D-03 -0.28535176D-03 -0.20165774D-03 -0.15461836D-03 -0.77165400D-04
  0.29944990D-03  0.22959919D-03  0.11458609D-03  0.11698721D-07  0.89698376D-08
  0.44765776D-08  0.22639085D-02  0.10268811D-02 -0.49831786D-03 -0.31738652D-07
 -0.21440201D-03 -0.63458241D-03 -0.36976481D-03 -0.10636001D-03 -0.54768718D-09
 -0.70956444D-08  0.53261114D+00  0.98256356D+00  0.15861622D+01  0.20647119D+01
  0.17618224D+01  0.60831495D+00 -0.19763429D-01 -0.91089464D-02  0.25542436D-01
 -0.41848435D-03 -0.32086725D-03 -0.16013525D-03 -0.34178317D-03 -0.26205766D-03
 -0.13078514D-03 -0.14256481D-09 -0.10930965D-09 -0.54553179D-10 -0.31572450D-02
 -0.15485547D-02 -0.11892325D-02  0.18596052D-07 -0.94099158D-02 -0.96644184D-02
 -0.10295877D-01  0.96937075D-03 -0.21780641D-07  0.38531966D-08  0.17726329D-02
  0.32701616D-02  0.52790548D-02  0.68717608D-02  0.58636859D-02  0.20245898D-02
  0.23648099D-03  0.10899387D-03 -0.30563019D-03  0.28032243D-03  0.21493346D-03
  0.10726686D-03 -0.27235740D-03 -0.20882638D-03 -0.10421900D-03 -0.83138532D-08
 -0.63745353D-08 -0.31813399D-08  0.24140729D-02 -0.13773359D-03  0.11425763D-02
  0.24810593D-07 -0.61309732D-03 -0.22815048D-03 -0.38778790D-03  0.15007960D-03
  0.19484289D-07  0.14075690D-07  0.93004099D-04  0.17157440D-03  0.27697428D-03
  0.36053822D-03  0.30764792D-03  0.10622343D-03 -0.11565770D-03 -0.53306527D-04
  0.14947707D-03  0.15794784D-03  0.12110438D-03  0.60439575D-04  0.22744067D-04
  0.17438708D-04  0.87031374D-05 -0.90355834D-08 -0.69279123D-08 -0.34575138D-08
 -0.15539694D-02  0.64075214D-03 -0.40382945D-04  0.40911870D-08 -0.19783440D-04
  0.37362048D-04  0.48307795D-04  0.19881787D-04 -0.13865110D-07  0.10244719D-07
 -0.88307080D-04 -0.16290932D-03 -0.26298615D-03 -0.34232983D-03 -0.29211067D-03
 -0.10085879D-03  0.14556280D-03  0.67089760D-04 -0.18812669D-03  0.10480687D-03
  0.80359260D-04  0.40104903D-04  0.83504997D-04  0.64026335D-04  0.31953629D-04
 -0.70625816D-08 -0.54151396D-08 -0.27025342D-08  0.99127607D-03 -0.48067806D-03
 -0.30609318D-03  0.82759471D-08 -0.25846726D-04 -0.13478688D-04 -0.16397618D-03
 -0.79267313D-04 -0.72250845D-08  0.71914383D-08 -0.14104352D-04 -0.23923650D-04
 -0.27236230D-04 -0.12108469D-03  0.42850254D-04  0.72682140D-04  0.82746048D-04
  0.34132912D-03  0.29211767D-04  0.49548686D-04  0.56409427D-04  0.17677407D-03
  0.97955320D-04  0.18029008D-03  0.29174338D-03  0.38350484D-03  0.32892987D-03
  0.11246671D-03 -0.79765823D-03 -0.35591355D-03  0.10510175D-02 -0.11127785D-03
 -0.85733583D-04 -0.37641661D-04 -0.66320426D-04 -0.51096313D-04 -0.22434033D-04
  0.94289245D-08  0.72644780D-08  0.31894971D-08 -0.23569860D-02 -0.69679828D-03
 -0.53925666D-03  0.27547627D-08  0.40084634D-03  0.62749643D-03  0.10787881D-02
 -0.85154588D-03  0.10773116D-07  0.27459185D-08  0.40066639D-04  0.67960602D-04
  0.77370744D-04  0.33061935D-03  0.17003858D-04  0.31368798D-04  0.50638966D-04
  0.65916887D-04  0.56246999D-04  0.19420737D-04  0.52756301D-04  0.24315331D-04
 -0.68182726D-04  0.25684888D-04  0.19693543D-04  0.98284583D-05 -0.13655647D-04
 -0.10470284D-04 -0.52254056D-05  0.10645966D-07  0.81626517D-08  0.40737353D-08
 -0.42666116D-04 -0.15095869D-04 -0.39764947D-04  0.27581915D-09  0.33992995D-04
 -0.68536396D-04 -0.71099605D-04  0.16689586D-04  0.39251747D-08  0.11841722D-07
 -0.33536502D-05 -0.56884255D-05 -0.64760713D-05  0.19824110D-05 -0.33548134D-05
 -0.56903986D-05 -0.64783176D-05  0.19811959D-05 -0.87335807D-05 -0.14813806D-04
 -0.16864994D-04 -0.14580016D-04
MO    4     MO 0.0        OCC NO =    2.0000000  ORB. ENERGY =  -10.011312
  0.12229080D-03  0.22560265D-03  0.36419262D-03  0.47407058D-03  0.40452528D-03
  0.13967286D-03 -0.47082018D-04 -0.21700059D-04  0.60849231D-04 -0.21265337D-04
 -0.16304911D-04 -0.81372936D-05  0.78170312D-05  0.59936037D-05  0.29912283D-05
 -0.61048903D-08 -0.46808426D-08 -0.23360685D-08 -0.61247765D-03  0.11138536D-04
  0.30989524D-03  0.24927397D-08  0.67579098D-04  0.48333192D-04  0.47183635D-04
 -0.64041469D-04 -0.37723003D-08 -0.20056512D-08 -0.55330254D-04 -0.10207352D-03
 -0.16477830D-03 -0.21449239D-03 -0.18302675D-03 -0.63194737D-04  0.73825545D-04
  0.34026126D-04 -0.95412809D-04 -0.24954056D-04 -0.19133187D-04 -0.95488013D-05
  0.17064069D-05  0.13083646D-05  0.65296561D-06 -0.23470779D-08 -0.17995904D-08
 -0.89812175D-09  0.56621542D-03  0.28072075D-03 -0.72096470D-04 -0.79446939D-08
 -0.75929207D-05  0.29744348D-05 -0.71953453D-04  0.11666523D-04  0.16354365D-09
  0.17518289D-08 -0.59784156D-04 -0.11029009D-03 -0.17804241D-03 -0.23175831D-03
 -0.19775979D-03 -0.68281703D-04 -0.51068279D-04 -0.23537323D-04  0.66001111D-04
 -0.21156025D-05 -0.16221098D-05 -0.80954648D-06  0.26590711D-04  0.20388070D-04
  0.10175076D-04 -0.80841334D-08 -0.61984007D-08 -0.30934364D-08 -0.53764961D-03
 -0.27293379D-03 -0.17296300D-03  0.62528135D-08  0.92065631D-04  0.21308351D-04
  0.64799515D-04 -0.17209766D-04 -0.20003680D-08  0.45305297D-08  0.43771904D-02
  0.80750617D-02  0.13035653D-01  0.16968547D-01  0.14479292D-01  0.49993516D-02
  0.10390570D-03  0.47890041D-04 -0.13428867D-03 -0.33919737D-03 -0.26007503D-03
 -0.12979567D-03 -0.32192184D-03 -0.24682925D-03 -0.12318509D-03 -0.69338335D-09
 -0.53164237D-09 -0.26532680D-09  0.15493639D-02  0.25145949D-03  0.51506529D-03
  0.10963941D-07 -0.44636073D-03 -0.39188428D-03 -0.30042018D-03 -0.13148448D-03
 -0.29369977D-08  0.13983205D-07  0.53248070D+00  0.98232291D+00  0.15857738D+01
  0.20642063D+01  0.17613909D+01  0.60816596D+00 -0.19814727D-01 -0.91325894D-02
  0.25608734D-01  0.30523261D-03  0.23403300D-03  0.11679887D-03 -0.95301658D-04
 -0.73071266D-04 -0.36467683D-04  0.37651725D-07  0.28868955D-07  0.14407632D-07
 -0.36796772D-02  0.37508847D-03 -0.38342409D-04 -0.91307748D-08 -0.10106381D-01
 -0.10066470D-01 -0.10406184D-01  0.13866731D-03  0.23658876D-07 -0.30069638D-08
  0.43006100D-02  0.79337857D-02  0.12807590D-01  0.16671677D-01  0.14225972D-01
  0.49118863D-02  0.39629846D-04  0.18265360D-04 -0.51217975D-04 -0.20507039D-04
 -0.15723497D-04 -0.78471269D-05  0.43092767D-03  0.33040800D-03  0.16489675D-03
 -0.12776521D-10 -0.97962257D-11 -0.48890032D-11  0.12720721D-02 -0.18744216D-03
 -0.44917389D-03  0.49794924D-08 -0.34459719D-03 -0.59453014D-03 -0.27906687D-03
  0.14163599D-03 -0.78029050D-08 -0.97787251D-08 -0.13186559D-04 -0.22366900D-04
 -0.25463925D-04 -0.73355714D-04  0.12728853D-04  0.21590543D-04  0.24580071D-04
  0.82134078D-04 -0.14196410D-05 -0.24079798D-05 -0.27413999D-05  0.66479010D-04
  0.58196069D-05  0.10711183D-04  0.17332716D-04  0.22784341D-04  0.19541997D-04
  0.66817406D-05 -0.20862805D-04 -0.93089430D-05  0.27489433D-04 -0.66332228D-04
 -0.51105406D-04 -0.22438026D-04  0.19081559D-04  0.14701313D-04  0.64546681D-05
  0.11486849D-07  0.88499981D-08  0.38856258D-08 -0.14240326D-03  0.23943025D-04
 -0.29393569D-04 -0.44339840D-08  0.62808798D-04 -0.63494886D-05 -0.42458575D-05
 -0.25004517D-05 -0.66797792D-08 -0.14177995D-08 -0.44551188D-05 -0.75567247D-05
 -0.86030640D-05  0.82408070D-04 -0.24701733D-02 -0.45569875D-02 -0.73563908D-02
 -0.95758350D-02 -0.81710773D-02 -0.28212766D-02  0.12464385D-03  0.57448235D-04
 -0.16109085D-03  0.42512724D-03  0.32596061D-03  0.16267719D-03 -0.54011864D-04
 -0.41412872D-04 -0.20667925D-04  0.51984763D-07  0.39858619D-07  0.19892244D-07
  0.49071167D-03 -0.24555544D-03 -0.68575778D-05 -0.26500113D-07 -0.49647106D-03
 -0.15789303D-03  0.53067588D-05  0.36576434D-03 -0.49790432D-07  0.27588055D-07
 -0.31074124D-04 -0.52707595D-04 -0.60005734D-04  0.78294123D-04 -0.31080887D-04
 -0.52719066D-04 -0.60018794D-04  0.78327118D-04 -0.21349774D-04 -0.36213257D-04
 -0.41227513D-04 -0.72626310D-04
MO    5     MO 0.0        OCC NO =    2.0000000  ORB. ENERGY =  -10.002322
  0.53242320D+00  0.98221684D+00  0.15856025D+01  0.20639834D+01  0.17612007D+01
  0.60810029D+00 -0.19872253D-01 -0.91591033D-02  0.25683082D-01  0.59193276D-04
  0.45385650D-04  0.22650620D-04  0.18663478D-04  0.14309971D-04  0.71416786D-05
 -0.23618184D-09 -0.18108925D-09 -0.90376228D-10 -0.36805636D-02 -0.85718634D-04
  0.73780342D-03  0.35990331D-08 -0.10185289D-01 -0.10315887D-01 -0.10570937D-01
  0.88424909D-04 -0.15936697D-07  0.25070292D-08  0.54912456D-02  0.10130276D-01
  0.16353406D-01  0.21287276D-01  0.18164471D-01  0.62717553D-02  0.87944796D-04
  0.40533676D-04 -0.11366066D-03 -0.39684982D-03 -0.30427927D-03 -0.15185668D-03
 -0.20256825D-03 -0.15531649D-03 -0.77513813D-04  0.85946439D-08  0.65898278D-08
  0.32887859D-08  0.16913726D-02  0.67546228D-03 -0.44625850D-04 -0.16139590D-07
 -0.40549851D-03 -0.45688249D-03 -0.35107157D-03 -0.15333325D-03  0.42855053D-08
  0.40932469D-08 -0.31308623D-04 -0.57758296D-04 -0.93239799D-04 -0.12137051D-03
 -0.10356568D-03 -0.35758740D-04 -0.53802359D-04 -0.24797458D-04  0.69534661D-04
  0.19443424D-04  0.14907984D-04  0.74401290D-05 -0.31770499D-04 -0.24359604D-04
 -0.12157150D-04  0.25991762D-09  0.19928835D-09  0.99458851D-10 -0.72855165D-03
 -0.21928598D-03 -0.26190139D-03  0.11929686D-08  0.10400997D-05  0.72905932D-04
  0.60405429D-04  0.54340795D-05  0.11683319D-08  0.21959908D-08 -0.75400964D-04
 -0.13910006D-03 -0.22455062D-03 -0.29229819D-03 -0.24941857D-03 -0.86118239D-04
  0.79750491D-04  0.36756929D-04 -0.10307026D-03  0.82539346D-05  0.63285935D-05
  0.31584117D-05 -0.42760000D-04 -0.32785656D-04 -0.16362340D-04 -0.73072828D-09
 -0.56027610D-09 -0.27961704D-09  0.58068874D-03 -0.15252966D-04  0.32755284D-03
  0.73666542D-08  0.47819111D-05 -0.10736821D-04 -0.76304131D-04  0.53699392D-05
 -0.41122630D-08  0.64787446D-08 -0.14274992D-03 -0.26334573D-03 -0.42512167D-03
 -0.55338209D-03 -0.47220194D-03 -0.16303998D-03 -0.56516940D-04 -0.26048606D-04
  0.73043010D-04  0.35537481D-05  0.27247886D-05  0.13598605D-05 -0.21543473D-04
 -0.16518168D-04 -0.82437237D-05 -0.27000248D-08 -0.20702078D-08 -0.10331788D-08
 -0.80112302D-03  0.34371617D-03 -0.18873417D-03 -0.93901146D-09  0.22522812D-04
  0.62034076D-04  0.56992363D-04 -0.71575848D-05 -0.74186981D-08 -0.20894947D-08
  0.69018140D-02  0.12732499D-01  0.20554202D-01  0.26755463D-01  0.22830485D-01
  0.78828179D-02  0.64608311D-05  0.29777912D-05 -0.83500372D-05  0.42946349D-03
  0.32928536D-03  0.16433647D-03 -0.12479235D-03 -0.95682860D-04 -0.47752453D-04
 -0.87680121D-08 -0.67227556D-08 -0.33551262D-08  0.16666523D-02 -0.64449710D-03
 -0.19523356D-03  0.11080497D-07 -0.52872537D-03 -0.45544793D-03 -0.38013614D-03
  0.23467987D-03  0.43311456D-08 -0.29125301D-08 -0.10890586D-03 -0.18472495D-03
 -0.21030283D-03  0.18327286D-03  0.64432155D-05  0.10928913D-04  0.12442181D-04
  0.14813305D-03  0.62740443D-05  0.10641967D-04  0.12115503D-04  0.14146678D-03
 -0.18011024D-05 -0.33149899D-05 -0.53642794D-05 -0.70514954D-05 -0.60480267D-05
 -0.20679230D-05  0.56148341D-05  0.25053281D-05 -0.73982673D-05  0.61525403D-05
  0.47402006D-05  0.20812034D-05 -0.77879738D-04 -0.60002140D-04 -0.26344171D-04
 -0.30669888D-09 -0.23629495D-09 -0.10374621D-09 -0.67282698D-04 -0.51548534D-05
  0.58357305D-04  0.51746788D-09 -0.27140585D-04  0.37330211D-04 -0.30508856D-04
  0.67064209D-04  0.22970468D-09  0.59897655D-09  0.17786535D-04  0.30169330D-04
  0.34346716D-04  0.96309407D-04 -0.71518153D-06 -0.13193703D-05 -0.21298727D-05
 -0.27724614D-05 -0.23657464D-05 -0.81683537D-06  0.28034076D-04  0.12920880D-04
 -0.36231496D-04  0.26262835D-04  0.20136676D-04  0.10049613D-04 -0.38053325D-04
 -0.29176876D-04 -0.14561306D-04  0.85935780D-09  0.65890105D-09  0.32883781D-09
 -0.64238915D-04  0.28122527D-04  0.35264908D-04  0.54635091D-08 -0.30129232D-04
 -0.22696642D-04 -0.22072170D-04 -0.61225875D-04 -0.10067143D-07 -0.93332460D-08
 -0.59228352D-05 -0.10046250D-04 -0.11437300D-04 -0.96133719D-05 -0.59213265D-05
 -0.10043690D-04 -0.11434387D-04 -0.96168658D-05  0.39514261D-05  0.67023666D-05
  0.76304075D-05  0.19533037D-04
MO    6     MO 0.0        OCC NO =    2.0000000  ORB. ENERGY =   -9.983062
 -0.71506982D-02 -0.13191642D-01 -0.21295400D-01 -0.27720284D-01 -0.23653768D-01
 -0.81670778D-02  0.53391516D-03  0.24608101D-03 -0.69003684D-03 -0.36145669D-03
 -0.27714206D-03 -0.13831331D-03  0.24932727D-03  0.19116834D-03  0.95406399D-04
  0.76504376D-08  0.58658703D-08  0.29274804D-08  0.17541018D-02  0.27443660D-03
 -0.65513229D-03 -0.79592390D-08 -0.36914348D-03 -0.10270931D-03 -0.11087502D-03
  0.10208719D-03  0.95732259D-08  0.85224809D-09 -0.24900265D-03 -0.45936127D-03
 -0.74155152D-03 -0.96527975D-03 -0.82367496D-03 -0.28439517D-03 -0.38929179D-04
 -0.17942423D-04  0.50312427D-04 -0.38180819D-04 -0.29274631D-04 -0.14610092D-04
 -0.24151301D-04 -0.18517685D-04 -0.92416228D-05  0.41301944D-09  0.31667711D-09
  0.15804407D-09 -0.85217836D-03 -0.38899526D-03  0.12836211D-03  0.10792322D-07
  0.10147574D-03  0.58816167D-04  0.45564808D-04  0.41921613D-04 -0.31730161D-08
 -0.21705026D-08  0.21514929D-04  0.39690843D-04  0.64073328D-04  0.83404435D-04
  0.71169156D-04  0.24572999D-04  0.11373063D-03  0.52418342D-04 -0.14698650D-03
 -0.25613367D-04 -0.19638705D-04 -0.98010904D-05 -0.15356268D-04 -0.11774213D-04
 -0.58761573D-05  0.21870237D-08  0.16768711D-08  0.83687618D-09  0.66801211D-03
  0.32170731D-03  0.24024245D-03 -0.46673128D-08 -0.36821423D-04 -0.28775057D-04
 -0.11966913D-03 -0.20157941D-04 -0.27522551D-08 -0.75394675D-09 -0.20206558D-03
 -0.37277154D-03 -0.60176885D-03 -0.78332424D-03 -0.66841199D-03 -0.23078660D-03
 -0.24112871D-04 -0.11113600D-04  0.31163695D-04 -0.22565866D-04 -0.17302075D-04
 -0.86349479D-05 -0.27259094D-04 -0.20900544D-04 -0.10430836D-04  0.55774081D-08
  0.42764028D-08  0.21342247D-08 -0.77798053D-03  0.60147681D-04 -0.41029614D-03