 Entering Link 1 = D:\Gaussian\G16W\l1.exe PID=     42328.
  
 Copyright (c) 1988,1990,1992,1993,1995,1998,2003,2009,2016,
            Gaussian, Inc.  All Rights Reserved.
  
 This is part of the Gaussian(R) 16 program.  It is based on
 the Gaussian(R) 09 system (copyright 2009, Gaussian, Inc.),
 the Gaussian(R) 03 system (copyright 2003, Gaussian, Inc.),
 the Gaussian(R) 98 system (copyright 1998, Gaussian, Inc.),
 the Gaussian(R) 94 system (copyright 1995, Gaussian, Inc.),
 the Gaussian 92(TM) system (copyright 1992, Gaussian, Inc.),
 the Gaussian 90(TM) system (copyright 1990, Gaussian, Inc.),
 the Gaussian 88(TM) system (copyright 1988, Gaussian, Inc.),
 the Gaussian 86(TM) system (copyright 1986, Carnegie Mellon
 University), and the Gaussian 82(TM) system (copyright 1983,
 Carnegie Mellon University). Gaussian is a federally registered
 trademark of Gaussian, Inc.
  
 This software contains proprietary and confidential information,
 including trade secrets, belonging to Gaussian, Inc.
  
 This software is provided under written license and may be
 used, copied, transmitted, or stored only in accord with that
 written license.
  
 The following legend is applicable only to US Government
 contracts under FAR:
  
                    RESTRICTED RIGHTS LEGEND
  
 Use, reproduction and disclosure by the US Government is
 subject to restrictions as set forth in subparagraphs (a)
 and (c) of the Commercial Computer Software - Restricted
 Rights clause in FAR 52.227-19.
  
 Gaussian, Inc.
 340 Quinnipiac St., Bldg. 40, Wallingford CT 06492
  
  
 ---------------------------------------------------------------
 Warning -- This program may not be used in any manner that
 competes with the business of Gaussian, Inc. or will provide
 assistance to any competitor of Gaussian, Inc.  The licensee
 of this program is prohibited from giving any competitor of
 Gaussian, Inc. access to this program.  By using this program,
 the user acknowledges that Gaussian, Inc. is engaged in the
 business of creating and licensing software in the field of
 computational chemistry and represents and warrants to the
 licensee that it is not a competitor of Gaussian, Inc. and that
 it will not use this program in any manner prohibited above.
 ---------------------------------------------------------------
  

 Cite this work as:
 Gaussian 16, Revision A.03,
 M. J. Frisch, G. W. Trucks, H. B. Schlegel, G. E. Scuseria, 
 M. A. Robb, J. R. Cheeseman, G. Scalmani, V. Barone, 
 G. A. Petersson, H. Nakatsuji, X. Li, M. Caricato, A. V. Marenich, 
 J. Bloino, B. G. Janesko, R. Gomperts, B. Mennucci, H. P. Hratchian, 
 J. V. Ortiz, A. F. Izmaylov, J. L. Sonnenberg, D. Williams-Young, 
 F. Ding, F. Lipparini, F. Egidi, J. Goings, B. Peng, A. Petrone, 
 T. Henderson, D. Ranasinghe, V. G. Zakrzewski, J. Gao, N. Rega, 
 G. Zheng, W. Liang, M. Hada, M. Ehara, K. Toyota, R. Fukuda, 
 J. Hasegawa, M. Ishida, T. Nakajima, Y. Honda, O. Kitao, H. Nakai, 
 T. Vreven, K. Throssell, J. A. Montgomery, Jr., J. E. Peralta, 
 F. Ogliaro, M. J. Bearpark, J. J. Heyd, E. N. Brothers, K. N. Kudin, 
 V. N. Staroverov, T. A. Keith, R. Kobayashi, J. Normand, 
 K. Raghavachari, A. P. Rendell, J. C. Burant, S. S. Iyengar, 
 J. Tomasi, M. Cossi, J. M. Millam, M. Klene, C. Adamo, R. Cammi, 
 J. W. Ochterski, R. L. Martin, K. Morokuma, O. Farkas, 
 J. B. Foresman, and D. J. Fox, Gaussian, Inc., Wallingford CT, 2016.
 
 ******************************************
 Gaussian 16:  EM64W-G16RevA.03 17-Dec-2016
                03-Dec-2025 
 ******************************************
 %nprocs=   4
 Will use up to    4 processors via shared memory.
 ------------------------------------
 #P B3LYP/6-31G* SCF=conver=7 out=wfn
 ------------------------------------
 1/38=1,172=1/1;
 2/12=2,17=6,18=5,40=1/2;
 3/5=1,6=6,7=1,11=2,25=1,30=1,74=-5/1,2,3;
 4//1;
 5/5=2,6=7,38=5/2;
 6/7=2,8=2,9=2,10=2,28=1/1;
 99/5=1,6=100,9=1/99;
 Leave Link    1 at Wed Dec 03 16:53:46 2025, MaxMem=           0 cpu:               0.0 elap:               0.1
 (Enter D:\Gaussian\G16W\l101.exe)
 ----------------------------------------------------
 Generated by Multiwfn (http://sobereva.com/multiwfn)
 ----------------------------------------------------
 Symbolic Z-matrix:
 Charge =  1 Multiplicity = 1
 C                    -0.32793   1.76213   0. 
 C                    -1.43643   0.9481    0.00002 
 C                    -1.28763  -0.49541  0. 
 C                     0.06628  -1.0199   -0.00003 
 C                     1.16902  -0.19655  -0.00002 
 C                     0.96212   1.20559  -0.00002 
 H                    -0.44033   2.84079   0.00001 
 H                    -2.44587   1.34148   0.00006 
 H                     1.82416   1.86489  -0.00005 
 O                    -2.28172  -1.25528   0.00001 
 H                     0.16358  -2.10003  -0.00006 
 C                     2.57478  -0.74596   0.00003 
 H                     3.12887  -0.40797  -0.881 
 H                     3.12871  -0.40814   0.88124 
 H                     2.57336  -1.83681  -0.00006 
 
 ITRead=  0  0  0  0  0  0  0  0  0  0  0  0  0  0  0
 MicOpt= -1 -1 -1 -1 -1 -1 -1 -1 -1 -1 -1 -1 -1 -1 -1
 NAtoms=     15 NQM=       15 NQMF=       0 NMMI=      0 NMMIF=      0
                NMic=       0 NMicF=      0.
                    Isotopes and Nuclear Properties:
 (Nuclear quadrupole moments (NQMom) in fm**2, nuclear magnetic moments (NMagM)
  in nuclear magnetons)

  Atom         1           2           3           4           5           6           7           8           9          10
 IAtWgt=          12          12          12          12          12          12           1           1           1          16
 AtmWgt=  12.0000000  12.0000000  12.0000000  12.0000000  12.0000000  12.0000000   1.0078250   1.0078250   1.0078250  15.9949146
 NucSpn=           0           0           0           0           0           0           1           1           1           0
 AtZEff=   0.0000000   0.0000000   0.0000000   0.0000000   0.0000000   0.0000000   0.0000000   0.0000000   0.0000000   0.0000000
 NQMom=    0.0000000   0.0000000   0.0000000   0.0000000   0.0000000   0.0000000   0.0000000   0.0000000   0.0000000   0.0000000
 NMagM=    0.0000000   0.0000000   0.0000000   0.0000000   0.0000000   0.0000000   2.7928460   2.7928460   2.7928460   0.0000000
 AtZNuc=   6.0000000   6.0000000   6.0000000   6.0000000   6.0000000   6.0000000   1.0000000   1.0000000   1.0000000   8.0000000

  Atom        11          12          13          14          15
 IAtWgt=           1          12           1           1           1
 AtmWgt=   1.0078250  12.0000000   1.0078250   1.0078250   1.0078250
 NucSpn=           1           0           1           1           1
 AtZEff=   0.0000000   0.0000000   0.0000000   0.0000000   0.0000000
 NQMom=    0.0000000   0.0000000   0.0000000   0.0000000   0.0000000
 NMagM=    2.7928460   0.0000000   2.7928460   2.7928460   2.7928460
 AtZNuc=   1.0000000   6.0000000   1.0000000   1.0000000   1.0000000
 Leave Link  101 at Wed Dec 03 16:53:46 2025, MaxMem=   104857600 cpu:               0.0 elap:               0.1
 (Enter D:\Gaussian\G16W\l202.exe)
                          Input orientation:                          
 ---------------------------------------------------------------------
 Center     Atomic      Atomic             Coordinates (Angstroms)
 Number     Number       Type             X           Y           Z
 ---------------------------------------------------------------------
      1          6           0       -0.327931    1.762128    0.000001
      2          6           0       -1.436429    0.948101    0.000018
      3          6           0       -1.287629   -0.495415   -0.000001
      4          6           0        0.066280   -1.019903   -0.000035
      5          6           0        1.169016   -0.196550   -0.000024
      6          6           0        0.962116    1.205595   -0.000021
      7          1           0       -0.440330    2.840788    0.000010
      8          1           0       -2.445869    1.341478    0.000063
      9          1           0        1.824160    1.864893   -0.000052
     10          8           0       -2.281715   -1.255278    0.000008
     11          1           0        0.163581   -2.100027   -0.000059
     12          6           0        2.574782   -0.745955    0.000028
     13          1           0        3.128872   -0.407966   -0.881004
     14          1           0        3.128712   -0.408140    0.881237
     15          1           0        2.573361   -1.836807   -0.000059
 ---------------------------------------------------------------------
                    Distance matrix (angstroms):
                    1          2          3          4          5
     1  C    0.000000
     2  C    1.375285   0.000000
     3  C    2.453064   1.451165   0.000000
     4  C    2.809822   2.476121   1.451949   0.000000
     5  C    2.465212   2.845799   2.474758   1.376204   0.000000
     6  C    1.404973   2.412327   2.820423   2.399034   1.417328
     7  H    1.084500   2.138803   3.442116   3.893788   3.437356
     8  H    2.159307   1.083381   2.171565   3.447755   3.928476
     9  H    2.154543   3.387026   3.905673   3.378193   2.163044
    10  O    3.594720   2.359955   1.251239   2.359763   3.609494
    11  H    3.893305   3.442545   2.163513   1.084498   2.152702
    12  C    3.836173   4.354267   3.870528   2.523416   1.509312
    13  H    4.175520   4.843252   4.504364   3.245003   2.159134
    14  H    4.175526   4.843186   4.504250   3.244901   2.159120
    15  H    4.622751   4.882021   4.087368   2.636814   2.159312
                    6          7          8          9         10
     6  C    0.000000
     7  H    2.154231   0.000000
     8  H    3.410693   2.504020   0.000000
     9  H    1.085262   2.465824   4.301989   0.000000
    10  O    4.071650   4.490930   2.601939   5.156906   0.000000
    11  H    3.400705   4.977586   4.318933   4.298618   2.587097
    12  C    2.531647   4.685683   5.437308   2.716608   4.883131
    13  H    2.841574   4.906097   5.908855   2.764821   5.546943
    14  H    2.841636   4.906134   5.908772   2.764996   5.546794
    15  H    3.442720   5.564371   5.940889   3.776756   4.889779
                   11         12         13         14         15
    11  H    0.000000
    12  C    2.765394   0.000000
    13  H    3.525916   1.094290   0.000000
    14  H    3.525786   1.094297   1.762241   0.000000
    15  H    2.424113   1.090853   1.768119   1.768103   0.000000
 Stoichiometry    C7H7O(1+)
 Framework group  C1[X(C7H7O)]
 Deg. of freedom    39
 Full point group                 C1      NOp   1
 Largest Abelian subgroup         C1      NOp   1
 Largest concise Abelian subgroup C1      NOp   1
                         Standard orientation:                         
 ---------------------------------------------------------------------
 Center     Atomic      Atomic             Coordinates (Angstroms)
 Number     Number       Type             X           Y           Z
 ---------------------------------------------------------------------
      1          6           0       -0.327931    1.762128    0.000001
      2          6           0       -1.436429    0.948101    0.000018
      3          6           0       -1.287629   -0.495415   -0.000001
      4          6           0        0.066280   -1.019903   -0.000035
      5          6           0        1.169016   -0.196550   -0.000024
      6          6           0        0.962116    1.205595   -0.000021
      7          1           0       -0.440330    2.840788    0.000010
      8          1           0       -2.445869    1.341478    0.000063
      9          1           0        1.824160    1.864893   -0.000052
     10          8           0       -2.281715   -1.255278    0.000008
     11          1           0        0.163581   -2.100027   -0.000059
     12          6           0        2.574782   -0.745955    0.000028
     13          1           0        3.128872   -0.407966   -0.881004
     14          1           0        3.128712   -0.408140    0.881237
     15          1           0        2.573361   -1.836807   -0.000059
 ---------------------------------------------------------------------
 Rotational constants (GHZ):           3.7185286           1.8453412           1.2427983
 Leave Link  202 at Wed Dec 03 16:53:46 2025, MaxMem=   104857600 cpu:               0.0 elap:               0.1
 (Enter D:\Gaussian\G16W\l301.exe)
 Standard basis: 6-31G(d) (6D, 7F)
 Ernie: Thresh=  0.10000D-02 Tol=  0.10000D-05 Strict=F.
 There are   134 symmetry adapted cartesian basis functions of A   symmetry.
 There are   134 symmetry adapted basis functions of A   symmetry.
   134 basis functions,   252 primitive gaussians,   134 cartesian basis functions
    28 alpha electrons       28 beta electrons
       nuclear repulsion energy       331.6110576715 Hartrees.
 IExCor=  402 DFT=T Ex+Corr=B3LYP ExCW=0 ScaHFX=  0.200000
 ScaDFX=  0.800000  0.720000  1.000000  0.810000 ScalE2=  1.000000  1.000000
 IRadAn=      5 IRanWt=     -1 IRanGd=            0 ICorTp=0 IEmpDi=  4
 NAtoms=   15 NActive=   15 NUniq=   15 SFac= 1.00D+00 NAtFMM=   60 NAOKFM=F Big=F
 Integral buffers will be    131072 words long.
 Raffenetti 2 integral format.
 Two-electron integral symmetry is turned on.
 Leave Link  301 at Wed Dec 03 16:53:46 2025, MaxMem=   104857600 cpu:               0.0 elap:               0.1
 (Enter D:\Gaussian\G16W\l302.exe)
 NPDir=0 NMtPBC=     1 NCelOv=     1 NCel=       1 NClECP=     1 NCelD=      1
         NCelK=      1 NCelE2=     1 NClLst=     1 CellRange=     0.0.
 One-electron integrals computed using PRISM.
 One-electron integral symmetry used in STVInt
 NBasis=   134 RedAO= T EigKep=  4.89D-04  NBF=   134
 NBsUse=   134 1.00D-06 EigRej= -1.00D+00 NBFU=   134
 Precomputing XC quadrature grid using
 IXCGrd= 4 IRadAn=           5 IRanWt=          -1 IRanGd=           0 AccXCQ= 0.00D+00.
 Generated NRdTot=       0 NPtTot=           0 NUsed=           0 NTot=          32
 NSgBfM=   134   134   134   134   134 MxSgAt=    15 MxSgA2=    15.
 Leave Link  302 at Wed Dec 03 16:53:46 2025, MaxMem=   104857600 cpu:               0.0 elap:               0.2
 (Enter D:\Gaussian\G16W\l303.exe)
 DipDrv:  MaxL=1.
 Leave Link  303 at Wed Dec 03 16:53:47 2025, MaxMem=   104857600 cpu:               1.0 elap:               0.1
 (Enter D:\Gaussian\G16W\l401.exe)
 ExpMin= 1.61D-01 ExpMax= 5.48D+03 ExpMxC= 8.25D+02 IAcc=3 IRadAn=         5 AccDes= 0.00D+00
 Harris functional with IExCor=  402 and IRadAn=       5 diagonalized for initial guess.
 HarFok:  IExCor=  402 AccDes= 0.00D+00 IRadAn=         5 IDoV= 1 UseB2=F ITyADJ=14
 ICtDFT=  3500011 ScaDFX=  1.000000  1.000000  1.000000  1.000000
 FoFCou: FMM=F IPFlag=           0 FMFlag=      100000 FMFlg1=           0
         NFxFlg=           0 DoJE=T BraDBF=F KetDBF=T FulRan=T
         wScrn=  0.000000 ICntrl=       500 IOpCl=  0 I1Cent=   200000004 NGrid=           0
         NMat0=    1 NMatS0=      1 NMatT0=    0 NMatD0=    1 NMtDS0=    0 NMtDT0=    0
 Petite list used in FoFCou.
 Harris En= -345.876886296518    
 JPrj=0 DoOrth=F DoCkMO=F.
 Leave Link  401 at Wed Dec 03 16:53:47 2025, MaxMem=   104857600 cpu:               0.0 elap:               0.7
 (Enter D:\Gaussian\G16W\l502.exe)
 Keep R1 ints in memory in canonical form, NReq=44746278.
 FoFCou: FMM=F IPFlag=           0 FMFlag=           0 FMFlg1=           0
         NFxFlg=           0 DoJE=F BraDBF=F KetDBF=F FulRan=T
         wScrn=  0.000000 ICntrl=       600 IOpCl=  0 I1Cent=           0 NGrid=           0
         NMat0=    1 NMatS0=   9045 NMatT0=    0 NMatD0=    1 NMtDS0=    0 NMtDT0=    0
 Symmetry not used in FoFCou.
 Two-electron integral symmetry not used.
 Closed shell SCF:
 Using DIIS extrapolation, IDIIS=  1040.
 NGot=   104857600 LenX=    63908728 LenY=    63890331
 Requested convergence on RMS density matrix=1.00D-07 within 128 cycles.
 Requested convergence on MAX density matrix=1.00D-05.
 Requested convergence on             energy=1.00D-05.
 No special actions if energy rises.
 Integral accuracy reduced to 1.0D-05 until final iterations.

 Cycle   1  Pass 0  IDiag  1:
 E= -345.717890704926    
 DIIS: error= 3.65D-02 at cycle   1 NSaved=   1.
 NSaved= 1 IEnMin= 1 EnMin= -345.717890704926     IErMin= 1 ErrMin= 3.65D-02
 ErrMax= 3.65D-02  0.00D+00 EMaxC= 1.00D-01 BMatC= 1.30D-01 BMatP= 1.30D-01
 IDIUse=3 WtCom= 6.35D-01 WtEn= 3.65D-01
 Coeff-Com:  0.100D+01
 Coeff-En:   0.100D+01
 Coeff:      0.100D+01
 Gap=     0.086 Goal=   None    Shift=    0.000
 GapD=    0.086 DampG=0.500 DampE=0.500 DampFc=0.2500 IDamp=-1.
 Damping current iteration by 2.50D-01
 RMSDP=6.13D-03 MaxDP=1.64D-01              OVMax= 2.49D-01

 Cycle   2  Pass 0  IDiag  1:
 E= -345.760091090866     Delta-E=       -0.042200385940 Rises=F Damp=T
 DIIS: error= 1.71D-02 at cycle   2 NSaved=   2.
 NSaved= 2 IEnMin= 2 EnMin= -345.760091090866     IErMin= 2 ErrMin= 1.71D-02
 ErrMax= 1.71D-02  0.00D+00 EMaxC= 1.00D-01 BMatC= 3.39D-02 BMatP= 1.30D-01
 IDIUse=3 WtCom= 8.29D-01 WtEn= 1.71D-01
 Coeff-Com: -0.585D+00 0.158D+01
 Coeff-En:   0.000D+00 0.100D+01
 Coeff:     -0.485D+00 0.148D+01
 Gap=     0.118 Goal=   None    Shift=    0.000
 RMSDP=2.61D-03 MaxDP=4.67D-02 DE=-4.22D-02 OVMax= 2.11D-01

 Cycle   3  Pass 0  IDiag  1:
 E= -345.808968929087     Delta-E=       -0.048877838221 Rises=F Damp=F
 DIIS: error= 2.25D-02 at cycle   3 NSaved=   3.
 NSaved= 3 IEnMin= 3 EnMin= -345.808968929087     IErMin= 2 ErrMin= 1.71D-02
 ErrMax= 2.25D-02  0.00D+00 EMaxC= 1.00D-01 BMatC= 3.38D-02 BMatP= 3.39D-02
 IDIUse=3 WtCom= 7.75D-01 WtEn= 2.25D-01
 Coeff-Com: -0.470D+00 0.103D+01 0.437D+00
 Coeff-En:   0.000D+00 0.000D+00 0.100D+01
 Coeff:     -0.365D+00 0.801D+00 0.564D+00
 Gap=     0.102 Goal=   None    Shift=    0.000
 RMSDP=2.24D-03 MaxDP=9.07D-02 DE=-4.89D-02 OVMax= 1.74D-01

 Cycle   4  Pass 0  IDiag  1:
 E= -345.816168800096     Delta-E=       -0.007199871009 Rises=F Damp=F
 DIIS: error= 2.28D-02 at cycle   4 NSaved=   4.
 NSaved= 4 IEnMin= 4 EnMin= -345.816168800096     IErMin= 2 ErrMin= 1.71D-02
 ErrMax= 2.28D-02  0.00D+00 EMaxC= 1.00D-01 BMatC= 2.59D-02 BMatP= 3.38D-02
 IDIUse=3 WtCom= 7.72D-01 WtEn= 2.28D-01
 Coeff-Com: -0.263D-01 0.119D+00 0.440D+00 0.468D+00
 Coeff-En:   0.000D+00 0.000D+00 0.456D+00 0.544D+00
 Coeff:     -0.203D-01 0.915D-01 0.443D+00 0.485D+00
 Gap=     0.100 Goal=   None    Shift=    0.000
 RMSDP=1.25D-03 MaxDP=4.48D-02 DE=-7.20D-03 OVMax= 8.64D-02

 Cycle   5  Pass 0  IDiag  1:
 E= -345.840294174794     Delta-E=       -0.024125374699 Rises=F Damp=F
 DIIS: error= 2.84D-03 at cycle   5 NSaved=   5.
 NSaved= 5 IEnMin= 5 EnMin= -345.840294174794     IErMin= 5 ErrMin= 2.84D-03
 ErrMax= 2.84D-03  0.00D+00 EMaxC= 1.00D-01 BMatC= 6.62D-04 BMatP= 2.59D-02
 IDIUse=3 WtCom= 9.72D-01 WtEn= 2.84D-02
 Coeff-Com:  0.167D-01-0.569D-02 0.236D+00 0.298D+00 0.455D+00
 Coeff-En:   0.000D+00 0.000D+00 0.000D+00 0.000D+00 0.100D+01
 Coeff:      0.162D-01-0.553D-02 0.229D+00 0.290D+00 0.470D+00
 Gap=     0.091 Goal=   None    Shift=    0.000
 RMSDP=2.53D-04 MaxDP=6.68D-03 DE=-2.41D-02 OVMax= 1.90D-02

 Cycle   6  Pass 0  IDiag  1:
 E= -345.840934039503     Delta-E=       -0.000639864709 Rises=F Damp=F
 DIIS: error= 1.41D-03 at cycle   6 NSaved=   6.
 NSaved= 6 IEnMin= 6 EnMin= -345.840934039503     IErMin= 6 ErrMin= 1.41D-03
 ErrMax= 1.41D-03  0.00D+00 EMaxC= 1.00D-01 BMatC= 1.30D-04 BMatP= 6.62D-04
 IDIUse=3 WtCom= 9.86D-01 WtEn= 1.41D-02
 Coeff-Com:  0.831D-02-0.126D-01 0.644D-01 0.905D-01 0.323D+00 0.527D+00
 Coeff-En:   0.000D+00 0.000D+00 0.000D+00 0.000D+00 0.201D+00 0.799D+00
 Coeff:      0.819D-02-0.125D-01 0.635D-01 0.893D-01 0.321D+00 0.530D+00
 Gap=     0.092 Goal=   None    Shift=    0.000
 RMSDP=8.92D-05 MaxDP=2.78D-03 DE=-6.40D-04 OVMax= 6.39D-03

 Cycle   7  Pass 0  IDiag  1:
 E= -345.841075313934     Delta-E=       -0.000141274430 Rises=F Damp=F
 DIIS: error= 2.47D-04 at cycle   7 NSaved=   7.
 NSaved= 7 IEnMin= 7 EnMin= -345.841075313934     IErMin= 7 ErrMin= 2.47D-04
 ErrMax= 2.47D-04  0.00D+00 EMaxC= 1.00D-01 BMatC= 7.41D-06 BMatP= 1.30D-04
 IDIUse=3 WtCom= 9.98D-01 WtEn= 2.47D-03
 Coeff-Com:  0.651D-03-0.278D-02 0.615D-02 0.117D-01 0.121D+00 0.280D+00
 Coeff-Com:  0.583D+00
 Coeff-En:   0.000D+00 0.000D+00 0.000D+00 0.000D+00 0.000D+00 0.000D+00
 Coeff-En:   0.100D+01
 Coeff:      0.649D-03-0.278D-02 0.614D-02 0.116D-01 0.121D+00 0.280D+00
 Coeff:      0.584D+00
 Gap=     0.092 Goal=   None    Shift=    0.000
 RMSDP=2.24D-05 MaxDP=6.93D-04 DE=-1.41D-04 OVMax= 1.35D-03

 Cycle   8  Pass 0  IDiag  1:
 E= -345.841082528003     Delta-E=       -0.000007214070 Rises=F Damp=F
 DIIS: error= 5.45D-05 at cycle   8 NSaved=   8.
 NSaved= 8 IEnMin= 8 EnMin= -345.841082528003     IErMin= 8 ErrMin= 5.45D-05
 ErrMax= 5.45D-05  0.00D+00 EMaxC= 1.00D-01 BMatC= 4.26D-07 BMatP= 7.41D-06
 IDIUse=1 WtCom= 1.00D+00 WtEn= 0.00D+00
 Coeff-Com: -0.369D-03-0.123D-03-0.513D-03-0.974D-04 0.397D-01 0.982D-01
 Coeff-Com:  0.278D+00 0.585D+00
 Coeff:     -0.369D-03-0.123D-03-0.513D-03-0.974D-04 0.397D-01 0.982D-01
 Coeff:      0.278D+00 0.585D+00
 Gap=     0.092 Goal=   None    Shift=    0.000
 RMSDP=6.82D-06 MaxDP=1.48D-04 DE=-7.21D-06 OVMax= 5.32D-04

 Initial convergence to 1.0D-05 achieved.  Increase integral accuracy.
 Cycle   9  Pass 1  IDiag  1:
 E= -345.841091030331     Delta-E=       -0.000008502328 Rises=F Damp=F
 DIIS: error= 3.17D-05 at cycle   1 NSaved=   1.
 NSaved= 1 IEnMin= 1 EnMin= -345.841091030331     IErMin= 1 ErrMin= 3.17D-05
 ErrMax= 3.17D-05  0.00D+00 EMaxC= 1.00D-01 BMatC= 8.82D-08 BMatP= 8.82D-08
 IDIUse=1 WtCom= 1.00D+00 WtEn= 0.00D+00
 Coeff-Com:  0.100D+01
 Coeff:      0.100D+01
 Gap=     0.092 Goal=   None    Shift=    0.000
 RMSDP=6.82D-06 MaxDP=1.48D-04 DE=-8.50D-06 OVMax= 7.50D-04

 Cycle  10  Pass 1  IDiag  1:
 E= -345.841090661595     Delta-E=        0.000000368736 Rises=F Damp=F
 DIIS: error= 7.53D-05 at cycle   2 NSaved=   2.
 NSaved= 2 IEnMin= 1 EnMin= -345.841091030331     IErMin= 1 ErrMin= 3.17D-05
 ErrMax= 7.53D-05  0.00D+00 EMaxC= 1.00D-01 BMatC= 4.35D-07 BMatP= 8.82D-08
 IDIUse=1 WtCom= 1.00D+00 WtEn= 0.00D+00
 Coeff-Com:  0.694D+00 0.306D+00
 Coeff:      0.694D+00 0.306D+00
 Gap=     0.092 Goal=   None    Shift=    0.000
 RMSDP=5.12D-06 MaxDP=1.40D-04 DE= 3.69D-07 OVMax= 4.19D-04

 Cycle  11  Pass 1  IDiag  1:
 E= -345.841091136394     Delta-E=       -0.000000474799 Rises=F Damp=F
 DIIS: error= 8.80D-06 at cycle   3 NSaved=   3.
 NSaved= 3 IEnMin= 3 EnMin= -345.841091136394     IErMin= 3 ErrMin= 8.80D-06
 ErrMax= 8.80D-06  0.00D+00 EMaxC= 1.00D-01 BMatC= 7.03D-09 BMatP= 8.82D-08
 IDIUse=1 WtCom= 1.00D+00 WtEn= 0.00D+00
 Coeff-Com:  0.399D+00 0.178D+00 0.422D+00
 Coeff:      0.399D+00 0.178D+00 0.422D+00
 Gap=     0.092 Goal=   None    Shift=    0.000
 RMSDP=8.63D-07 MaxDP=3.29D-05 DE=-4.75D-07 OVMax= 5.29D-05

 Cycle  12  Pass 1  IDiag  1:
 E= -345.841091140941     Delta-E=       -0.000000004546 Rises=F Damp=F
 DIIS: error= 5.53D-06 at cycle   4 NSaved=   4.
 NSaved= 4 IEnMin= 4 EnMin= -345.841091140941     IErMin= 4 ErrMin= 5.53D-06
 ErrMax= 5.53D-06  0.00D+00 EMaxC= 1.00D-01 BMatC= 2.01D-09 BMatP= 7.03D-09
 IDIUse=1 WtCom= 1.00D+00 WtEn= 0.00D+00
 Coeff-Com:  0.128D+00 0.467D-01 0.313D+00 0.512D+00
 Coeff:      0.128D+00 0.467D-01 0.313D+00 0.512D+00
 Gap=     0.092 Goal=   None    Shift=    0.000
 RMSDP=4.15D-07 MaxDP=1.38D-05 DE=-4.55D-09 OVMax= 3.85D-05

 Cycle  13  Pass 1  IDiag  1:
 E= -345.841091142657     Delta-E=       -0.000000001717 Rises=F Damp=F
 DIIS: error= 1.49D-06 at cycle   5 NSaved=   5.
 NSaved= 5 IEnMin= 5 EnMin= -345.841091142657     IErMin= 5 ErrMin= 1.49D-06
 ErrMax= 1.49D-06  0.00D+00 EMaxC= 1.00D-01 BMatC= 3.84D-10 BMatP= 2.01D-09
 IDIUse=1 WtCom= 1.00D+00 WtEn= 0.00D+00
 Coeff-Com: -0.397D-02-0.156D-01 0.995D-01 0.366D+00 0.554D+00
 Coeff:     -0.397D-02-0.156D-01 0.995D-01 0.366D+00 0.554D+00
 Gap=     0.092 Goal=   None    Shift=    0.000
 RMSDP=1.32D-07 MaxDP=2.55D-06 DE=-1.72D-09 OVMax= 5.62D-06

 Cycle  14  Pass 1  IDiag  1:
 E= -345.841091143002     Delta-E=       -0.000000000345 Rises=F Damp=F
 DIIS: error= 4.31D-07 at cycle   6 NSaved=   6.
 NSaved= 6 IEnMin= 6 EnMin= -345.841091143002     IErMin= 6 ErrMin= 4.31D-07
 ErrMax= 4.31D-07  0.00D+00 EMaxC= 1.00D-01 BMatC= 3.21D-11 BMatP= 3.84D-10
 IDIUse=1 WtCom= 1.00D+00 WtEn= 0.00D+00
 Coeff-Com: -0.119D-01-0.148D-01 0.222D-01 0.170D+00 0.235D+00 0.599D+00
 Coeff:     -0.119D-01-0.148D-01 0.222D-01 0.170D+00 0.235D+00 0.599D+00
 Gap=     0.092 Goal=   None    Shift=    0.000
 RMSDP=4.65D-08 MaxDP=1.03D-06 DE=-3.45D-10 OVMax= 2.93D-06

 SCF Done:  E(RB3LYP) =  -345.841091143     A.U. after   14 cycles
            NFock= 14  Conv=0.47D-07     -V/T= 2.0094
 KE= 3.426295576258D+02 PE=-1.454917506678D+03 EE= 4.348358002381D+02
 Leave Link  502 at Wed Dec 03 16:53:57 2025, MaxMem=   104857600 cpu:              10.0 elap:               9.6
 (Enter D:\Gaussian\G16W\l601.exe)
 Copying SCF densities to generalized density rwf, IOpCl= 0 IROHF=0.

 **********************************************************************

            Population analysis using the SCF density.

 **********************************************************************

 Orbital symmetries:
       Occupied  (A) (A) (A) (A) (A) (A) (A) (A) (A) (A) (A) (A)
                 (A) (A) (A) (A) (A) (A) (A) (A) (A) (A) (A) (A)
                 (A) (A) (A) (A)
       Virtual   (A) (A) (A) (A) (A) (A) (A) (A) (A) (A) (A) (A)
                 (A) (A) (A) (A) (A) (A) (A) (A) (A) (A) (A) (A)
                 (A) (A) (A) (A) (A) (A) (A) (A) (A) (A) (A) (A)
                 (A) (A) (A) (A) (A) (A) (A) (A) (A) (A) (A) (A)
                 (A) (A) (A) (A) (A) (A) (A) (A) (A) (A) (A) (A)
                 (A) (A) (A) (A) (A) (A) (A) (A) (A) (A) (A) (A)
                 (A) (A) (A) (A) (A) (A) (A) (A) (A) (A) (A) (A)
                 (A) (A) (A) (A) (A) (A) (A) (A) (A) (A) (A) (A)
                 (A) (A) (A) (A) (A) (A) (A) (A) (A) (A)
 The electronic state is 1-A.
 Alpha  occ. eigenvalues --  -19.39311 -10.49574 -10.46957 -10.44379 -10.43216
 Alpha  occ. eigenvalues --  -10.43028 -10.42588 -10.35926  -1.25815  -1.08900
 Alpha  occ. eigenvalues --   -0.99684  -0.96027  -0.89241  -0.83023  -0.79606
 Alpha  occ. eigenvalues --   -0.73305  -0.70768  -0.66908  -0.64646  -0.63491
 Alpha  occ. eigenvalues --   -0.62953  -0.59705  -0.59549  -0.57364  -0.55788
 Alpha  occ. eigenvalues --   -0.54162  -0.48090  -0.47611
 Alpha virt. eigenvalues --   -0.38400  -0.22030  -0.21045  -0.09136  -0.06853
 Alpha virt. eigenvalues --   -0.04622  -0.03388  -0.02860  -0.00345   0.01108
 Alpha virt. eigenvalues --    0.02593   0.03576   0.05341   0.06528   0.10320
 Alpha virt. eigenvalues --    0.14287   0.16947   0.24685   0.27560   0.29306
 Alpha virt. eigenvalues --    0.31147   0.33062   0.35256   0.36042   0.37075
 Alpha virt. eigenvalues --    0.38044   0.39353   0.42769   0.42973   0.44292
 Alpha virt. eigenvalues --    0.45431   0.51649   0.51862   0.55621   0.55988
 Alpha virt. eigenvalues --    0.58777   0.62288   0.64609   0.65676   0.69666
 Alpha virt. eigenvalues --    0.70993   0.71435   0.73481   0.74373   0.79278
 Alpha virt. eigenvalues --    0.79907   0.80053   0.83291   0.84943   0.93107
 Alpha virt. eigenvalues --    0.94231   0.95847   1.00230   1.03477   1.15045
 Alpha virt. eigenvalues --    1.15374   1.16141   1.18082   1.21612   1.24262
 Alpha virt. eigenvalues --    1.25091   1.25268   1.44392   1.51655   1.55927
 Alpha virt. eigenvalues --    1.57677   1.64015   1.64973   1.67745   1.68305
 Alpha virt. eigenvalues --    1.70092   1.71742   1.73496   1.74025   1.77283
 Alpha virt. eigenvalues --    1.83314   1.89098   1.92989   1.94027   1.95212
 Alpha virt. eigenvalues --    2.02234   2.03870   2.10540   2.13928   2.15556
 Alpha virt. eigenvalues --    2.18896   2.31748   2.36427   2.37909   2.39807
 Alpha virt. eigenvalues --    2.47869   2.50660   2.54213   2.60202   2.65825
 Alpha virt. eigenvalues --    2.77940   2.92681   3.13747   3.72252   3.83978
 Alpha virt. eigenvalues --    3.89201   3.97580   4.04285   4.13728   4.24742
 Alpha virt. eigenvalues --    4.51522
          Condensed to atoms (all electrons):
               1          2          3          4          5          6
     1  C    4.931656   0.483203  -0.010644  -0.020271  -0.032350   0.451410
     2  C    0.483203   5.113545   0.364510  -0.123695  -0.013207  -0.025028
     3  C   -0.010644   0.364510   4.496144   0.348575  -0.007548  -0.029757
     4  C   -0.020271  -0.123695   0.348575   5.215161   0.493439  -0.034115
     5  C   -0.032350  -0.013207  -0.007548   0.493439   4.722664   0.457416
     6  C    0.451410  -0.025028  -0.029757  -0.034115   0.457416   4.967906
     7  H    0.365071  -0.024542   0.002405   0.000086   0.002841  -0.032732
     8  H   -0.030109   0.354416  -0.027873   0.005153  -0.000110   0.003834
     9  H   -0.034476   0.003684   0.000240   0.004448  -0.036213   0.361106
    10  O    0.005224  -0.053989   0.442534  -0.050074   0.005308  -0.000110
    11  H   -0.000444   0.005492  -0.031190   0.353181  -0.031191   0.005365
    12  C    0.005082  -0.000020   0.004354  -0.037753   0.355159  -0.060083
    13  H    0.000015   0.000022  -0.000153   0.000144  -0.026104  -0.002704
    14  H    0.000015   0.000022  -0.000153   0.000142  -0.026104  -0.002704
    15  H   -0.000162   0.000005   0.000302  -0.002585  -0.030718   0.003859
               7          8          9         10         11         12
     1  C    0.365071  -0.030109  -0.034476   0.005224  -0.000444   0.005082
     2  C   -0.024542   0.354416   0.003684  -0.053989   0.005492  -0.000020
     3  C    0.002405  -0.027873   0.000240   0.442534  -0.031190   0.004354
     4  C    0.000086   0.005153   0.004448  -0.050074   0.353181  -0.037753
     5  C    0.002841  -0.000110  -0.036213   0.005308  -0.031191   0.355159
     6  C   -0.032732   0.003834   0.361106  -0.000110   0.005365  -0.060083
     7  H    0.452176  -0.003806  -0.003389  -0.000049   0.000010  -0.000115
     8  H   -0.003806   0.440787  -0.000094  -0.000180  -0.000081   0.000005
     9  H   -0.003389  -0.000094   0.452983   0.000002  -0.000088  -0.004222
    10  O   -0.000049  -0.000180   0.000002   7.962527   0.000002  -0.000063
    11  H    0.000010  -0.000081  -0.000088   0.000002   0.456490  -0.006234
    12  C   -0.000115   0.000005  -0.004222  -0.000063  -0.006234   5.171760
    13  H    0.000001   0.000000   0.001441   0.000001   0.000116   0.368800
    14  H    0.000001   0.000000   0.001440   0.000001   0.000116   0.368799
    15  H    0.000001   0.000000   0.000029   0.000000   0.004164   0.374615
              13         14         15
     1  C    0.000015   0.000015  -0.000162
     2  C    0.000022   0.000022   0.000005
     3  C   -0.000153  -0.000153   0.000302
     4  C    0.000144   0.000142  -0.002585
     5  C   -0.026104  -0.026104  -0.030718
     6  C   -0.002704  -0.002704   0.003859
     7  H    0.000001   0.000001   0.000001
     8  H    0.000000   0.000000   0.000000
     9  H    0.001441   0.001440   0.000029
    10  O    0.000001   0.000001   0.000000
    11  H    0.000116   0.000116   0.004164
    12  C    0.368800   0.368799   0.374615
    13  H    0.483896  -0.023800  -0.020962
    14  H   -0.023800   0.483897  -0.020963
    15  H   -0.020962  -0.020963   0.479122
 Mulliken charges:
               1
     1  C   -0.113220
     2  C   -0.084418
     3  C    0.448253
     4  C   -0.151836
     5  C    0.166719
     6  C   -0.063661
     7  H    0.242044
     8  H    0.258058
     9  H    0.253111
    10  O   -0.311133
    11  H    0.244294
    12  C   -0.540083
    13  H    0.219288
    14  H    0.219293
    15  H    0.213292
 Sum of Mulliken charges =   1.00000
 Mulliken charges with hydrogens summed into heavy atoms:
               1
     1  C    0.128824
     2  C    0.173640
     3  C    0.448253
     4  C    0.092458
     5  C    0.166719
     6  C    0.189450
    10  O   -0.311133
    12  C    0.111789
 Electronic spatial extent (au):  <R**2>=            913.3814
 Charge=              1.0000 electrons
 Dipole moment (field-independent basis, Debye):
    X=              2.2776    Y=              2.8852    Z=              0.0000  Tot=              3.6758
 Quadrupole moment (field-independent basis, Debye-Ang):
   XX=            -31.3245   YY=            -31.4409   ZZ=            -43.9119
   XY=             -3.9150   XZ=              0.0000   YZ=              0.0000
 Traceless Quadrupole moment (field-independent basis, Debye-Ang):
   XX=              4.2346   YY=              4.1182   ZZ=             -8.3528
   XY=             -3.9150   XZ=              0.0000   YZ=              0.0000
 Octapole moment (field-independent basis, Debye-Ang**2):
  XXX=             14.1628  YYY=             11.0134  ZZZ=              0.0005  XYY=              3.3656
  XXY=             10.6140  XXZ=              0.0005  XZZ=             -1.8764  YZZ=             -2.4525
  YYZ=             -0.0003  XYZ=             -0.0007
 Hexadecapole moment (field-independent basis, Debye-Ang**3):
 XXXX=           -644.7372 YYYY=           -311.2053 ZZZZ=            -47.3310 XXXY=            -22.1571
 XXXZ=             -0.0007 YYYX=             -3.2090 YYYZ=              0.0008 ZZZX=              0.0012
 ZZZY=             -0.0004 XXYY=           -165.5188 XXZZ=           -119.6894 YYZZ=            -75.1506
 XXYZ=             -0.0007 YYXZ=             -0.0009 ZZXY=              5.9296
 N-N= 3.316110576715D+02 E-N=-1.454917487133D+03  KE= 3.426295576258D+02
 No NMR shielding tensors so no spin-rotation constants.
 Leave Link  601 at Wed Dec 03 16:53:57 2025, MaxMem=   104857600 cpu:               0.0 elap:               0.1
 (Enter D:\Gaussian\G16W\l9999.exe)
 1|1|UNPC-PC-20250526LCFF|SP|RB3LYP|6-31G(d)|C7H7O1(1+)|ADMINISTRATOR|0
 3-Dec-2025|0||#P B3LYP/6-31G* SCF=conver=7 out=wfn||Generated by Multi
 wfn (http://sobereva.com/multiwfn)||1,1|C,0,-0.32793069,1.76212803,0.0
 0000107|C,0,-1.43642881,0.94810119,0.00001807|C,0,-1.28762902,-0.49541
 483,-0.00000093|C,0,0.06627991,-1.01990302,-0.00003493|C,0,1.16901602,
 -0.19655019,-0.00002393|C,0,0.96211623,1.20559484,-0.00002093|H,0,-0.4
 4032954,2.84078804,0.00001007|H,0,-2.44586875,1.34147833,0.00006307|H,
 0,1.82416032,1.86489272,-0.00005193|O,0,-2.28171513,-1.25527769,0.0000
 0807|H,0,0.16358075,-2.10002704,-0.00005893|C,0,2.57478195,-0.74595539
 ,0.00002807|H,0,3.128872,-0.40796647,-0.88100393|H,0,3.12871199,-0.408
 14047,0.88123707|H,0,2.57336079,-1.83680739,-0.00005893||Version=EM64W
 -G16RevA.03|State=1-A|HF=-345.8410911|RMSD=4.651e-008|Dipole=0.8960698
 ,1.135119,0.0000112|Quadrupole=3.1483197,3.0617869,-6.2101066,-2.91071
 82,-0.000003,0.0000163|PG=C01 [X(C7H7O1)]||@

 Writing a WFN file to "N-1.wfn"


 DON'T WORRY CHARLIE BROWN...WE LEARN MORE FROM LOSING 
 THAN WE DO FROM WINNING.
 THEN THAT MAKES ME THE SMARTEST PERSON IN THE WORLD...
 CHARLES SCHULZ 'PEANUTS'
 Job cpu time:       0 days  0 hours  0 minutes 11.0 seconds.
 Elapsed time:       0 days  0 hours  0 minutes 11.1 seconds.
 File lengths (MBytes):  RWF=     10 Int=      0 D2E=      0 Chk=      2 Scr=      1
 Normal termination of Gaussian 16 at Wed Dec 03 16:53:57 2025.
