 Generated by Multiwfn (http://sobereva.com/multiwfn)
GAUSSIAN             28 MOL ORBITALS    252 PRIMITIVES       15 NUCLEI
  C    1    (CENTRE  1)  -0.61969920  3.32993937  0.00000202  CHARGE =  6.0
  C    2    (CENTRE  2)  -2.71445705  1.79165159  0.00003415  CHARGE =  6.0
  C    3    (CENTRE  3)  -2.43326620 -0.93619835 -0.00000176  CHARGE =  6.0
  C    4    (CENTRE  4)   0.12525088 -1.92733738 -0.00006601  CHARGE =  6.0
  C    5    (CENTRE  5)   2.20912011 -0.37142603 -0.00004522  CHARGE =  6.0
  C    6    (CENTRE  6)   1.81813617  2.27824407 -0.00003955  CHARGE =  6.0
  H    7    (CENTRE  7)  -0.83210224  5.36831137  0.00001903  CHARGE =  1.0
  H    8    (CENTRE  8)  -4.62202208  2.53502664  0.00011919  CHARGE =  1.0
  H    9    (CENTRE  9)   3.44716341  3.52413650 -0.00009813  CHARGE =  1.0
  O   10    (CENTRE 10)  -4.31181669 -2.37213105  0.00001525  CHARGE =  8.0
  H   11    (CENTRE 11)   0.30912282 -3.96847596 -0.00011136  CHARGE =  1.0
  C   12    (CENTRE 12)   4.86563271 -1.40965138  0.00005304  CHARGE =  6.0
  H   13    (CENTRE 13)   5.91271116 -0.77094489 -1.66485614  CHARGE =  1.0
  H   14    (CENTRE 14)   5.91240878 -0.77127370  1.66529671  CHARGE =  1.0
  H   15    (CENTRE 15)   4.86294711 -3.47106291 -0.00011136  CHARGE =  1.0
CENTRE ASSIGNMENTS    1  1  1  1  1  1  1  1  1  1  1  1  1  1  1  1  1  1  1  1
CENTRE ASSIGNMENTS    1  1  1  1  1  1  1  1  2  2  2  2  2  2  2  2  2  2  2  2
CENTRE ASSIGNMENTS    2  2  2  2  2  2  2  2  2  2  2  2  2  2  2  2  3  3  3  3
CENTRE ASSIGNMENTS    3  3  3  3  3  3  3  3  3  3  3  3  3  3  3  3  3  3  3  3
CENTRE ASSIGNMENTS    3  3  3  3  4  4  4  4  4  4  4  4  4  4  4  4  4  4  4  4
CENTRE ASSIGNMENTS    4  4  4  4  4  4  4  4  4  4  4  4  5  5  5  5  5  5  5  5
CENTRE ASSIGNMENTS    5  5  5  5  5  5  5  5  5  5  5  5  5  5  5  5  5  5  5  5
CENTRE ASSIGNMENTS    6  6  6  6  6  6  6  6  6  6  6  6  6  6  6  6  6  6  6  6
CENTRE ASSIGNMENTS    6  6  6  6  6  6  6  6  7  7  7  7  8  8  8  8  9  9  9  9
CENTRE ASSIGNMENTS   10 10 10 10 10 10 10 10 10 10 10 10 10 10 10 10 10 10 10 10
CENTRE ASSIGNMENTS   10 10 10 10 10 10 10 10 11 11 11 11 12 12 12 12 12 12 12 12
CENTRE ASSIGNMENTS   12 12 12 12 12 12 12 12 12 12 12 12 12 12 12 12 12 12 12 12
CENTRE ASSIGNMENTS   13 13 13 13 14 14 14 14 15 15 15 15
TYPE ASSIGNMENTS      1  1  1  1  1  1  1  1  1  2  2  2  3  3  3  4  4  4  1  2
TYPE ASSIGNMENTS      3  4  5  6  7  8  9 10  1  1  1  1  1  1  1  1  1  2  2  2
TYPE ASSIGNMENTS      3  3  3  4  4  4  1  2  3  4  5  6  7  8  9 10  1  1  1  1
TYPE ASSIGNMENTS      1  1  1  1  1  2  2  2  3  3  3  4  4  4  1  2  3  4  5  6
TYPE ASSIGNMENTS      7  8  9 10  1  1  1  1  1  1  1  1  1  2  2  2  3  3  3  4
TYPE ASSIGNMENTS      4  4  1  2  3  4  5  6  7  8  9 10  1  1  1  1  1  1  1  1
TYPE ASSIGNMENTS      1  2  2  2  3  3  3  4  4  4  1  2  3  4  5  6  7  8  9 10
TYPE ASSIGNMENTS      1  1  1  1  1  1  1  1  1  2  2  2  3  3  3  4  4  4  1  2
TYPE ASSIGNMENTS      3  4  5  6  7  8  9 10  1  1  1  1  1  1  1  1  1  1  1  1
TYPE ASSIGNMENTS      1  1  1  1  1  1  1  1  1  2  2  2  3  3  3  4  4  4  1  2
TYPE ASSIGNMENTS      3  4  5  6  7  8  9 10  1  1  1  1  1  1  1  1  1  1  1  1
TYPE ASSIGNMENTS      1  2  2  2  3  3  3  4  4  4  1  2  3  4  5  6  7  8  9 10
TYPE ASSIGNMENTS      1  1  1  1  1  1  1  1  1  1  1  1
EXPONENTS  0.3047525D+04 0.4573695D+03 0.1039487D+03 0.2921016D+02 0.9286663D+01
EXPONENTS  0.3163927D+01 0.7868272D+01 0.1881289D+01 0.5442493D+00 0.7868272D+01
EXPONENTS  0.1881289D+01 0.5442493D+00 0.7868272D+01 0.1881289D+01 0.5442493D+00
EXPONENTS  0.7868272D+01 0.1881289D+01 0.5442493D+00 0.1687145D+00 0.1687145D+00
EXPONENTS  0.1687145D+00 0.1687145D+00 0.8000000D+00 0.8000000D+00 0.8000000D+00
EXPONENTS  0.8000000D+00 0.8000000D+00 0.8000000D+00 0.3047525D+04 0.4573695D+03
EXPONENTS  0.1039487D+03 0.2921016D+02 0.9286663D+01 0.3163927D+01 0.7868272D+01
EXPONENTS  0.1881289D+01 0.5442493D+00 0.7868272D+01 0.1881289D+01 0.5442493D+00
EXPONENTS  0.7868272D+01 0.1881289D+01 0.5442493D+00 0.7868272D+01 0.1881289D+01
EXPONENTS  0.5442493D+00 0.1687145D+00 0.1687145D+00 0.1687145D+00 0.1687145D+00
EXPONENTS  0.8000000D+00 0.8000000D+00 0.8000000D+00 0.8000000D+00 0.8000000D+00
EXPONENTS  0.8000000D+00 0.3047525D+04 0.4573695D+03 0.1039487D+03 0.2921016D+02
EXPONENTS  0.9286663D+01 0.3163927D+01 0.7868272D+01 0.1881289D+01 0.5442493D+00
EXPONENTS  0.7868272D+01 0.1881289D+01 0.5442493D+00 0.7868272D+01 0.1881289D+01
EXPONENTS  0.5442493D+00 0.7868272D+01 0.1881289D+01 0.5442493D+00 0.1687145D+00
EXPONENTS  0.1687145D+00 0.1687145D+00 0.1687145D+00 0.8000000D+00 0.8000000D+00
EXPONENTS  0.8000000D+00 0.8000000D+00 0.8000000D+00 0.8000000D+00 0.3047525D+04
EXPONENTS  0.4573695D+03 0.1039487D+03 0.2921016D+02 0.9286663D+01 0.3163927D+01
EXPONENTS  0.7868272D+01 0.1881289D+01 0.5442493D+00 0.7868272D+01 0.1881289D+01
EXPONENTS  0.5442493D+00 0.7868272D+01 0.1881289D+01 0.5442493D+00 0.7868272D+01
EXPONENTS  0.1881289D+01 0.5442493D+00 0.1687145D+00 0.1687145D+00 0.1687145D+00
EXPONENTS  0.1687145D+00 0.8000000D+00 0.8000000D+00 0.8000000D+00 0.8000000D+00
EXPONENTS  0.8000000D+00 0.8000000D+00 0.3047525D+04 0.4573695D+03 0.1039487D+03
EXPONENTS  0.2921016D+02 0.9286663D+01 0.3163927D+01 0.7868272D+01 0.1881289D+01
EXPONENTS  0.5442493D+00 0.7868272D+01 0.1881289D+01 0.5442493D+00 0.7868272D+01
EXPONENTS  0.1881289D+01 0.5442493D+00 0.7868272D+01 0.1881289D+01 0.5442493D+00
EXPONENTS  0.1687145D+00 0.1687145D+00 0.1687145D+00 0.1687145D+00 0.8000000D+00
EXPONENTS  0.8000000D+00 0.8000000D+00 0.8000000D+00 0.8000000D+00 0.8000000D+00
EXPONENTS  0.3047525D+04 0.4573695D+03 0.1039487D+03 0.2921016D+02 0.9286663D+01
EXPONENTS  0.3163927D+01 0.7868272D+01 0.1881289D+01 0.5442493D+00 0.7868272D+01
EXPONENTS  0.1881289D+01 0.5442493D+00 0.7868272D+01 0.1881289D+01 0.5442493D+00
EXPONENTS  0.7868272D+01 0.1881289D+01 0.5442493D+00 0.1687145D+00 0.1687145D+00
EXPONENTS  0.1687145D+00 0.1687145D+00 0.8000000D+00 0.8000000D+00 0.8000000D+00
EXPONENTS  0.8000000D+00 0.8000000D+00 0.8000000D+00 0.1873114D+02 0.2825394D+01
EXPONENTS  0.6401217D+00 0.1612778D+00 0.1873114D+02 0.2825394D+01 0.6401217D+00
EXPONENTS  0.1612778D+00 0.1873114D+02 0.2825394D+01 0.6401217D+00 0.1612778D+00
EXPONENTS  0.5484672D+04 0.8252349D+03 0.1880470D+03 0.5296450D+02 0.1689757D+02
EXPONENTS  0.5799635D+01 0.1553962D+02 0.3599934D+01 0.1013762D+01 0.1553962D+02
EXPONENTS  0.3599934D+01 0.1013762D+01 0.1553962D+02 0.3599934D+01 0.1013762D+01
EXPONENTS  0.1553962D+02 0.3599934D+01 0.1013762D+01 0.2700058D+00 0.2700058D+00
EXPONENTS  0.2700058D+00 0.2700058D+00 0.8000000D+00 0.8000000D+00 0.8000000D+00
EXPONENTS  0.8000000D+00 0.8000000D+00 0.8000000D+00 0.1873114D+02 0.2825394D+01
EXPONENTS  0.6401217D+00 0.1612778D+00 0.3047525D+04 0.4573695D+03 0.1039487D+03
EXPONENTS  0.2921016D+02 0.9286663D+01 0.3163927D+01 0.7868272D+01 0.1881289D+01
EXPONENTS  0.5442493D+00 0.7868272D+01 0.1881289D+01 0.5442493D+00 0.7868272D+01
EXPONENTS  0.1881289D+01 0.5442493D+00 0.7868272D+01 0.1881289D+01 0.5442493D+00
EXPONENTS  0.1687145D+00 0.1687145D+00 0.1687145D+00 0.1687145D+00 0.8000000D+00
EXPONENTS  0.8000000D+00 0.8000000D+00 0.8000000D+00 0.8000000D+00 0.8000000D+00
EXPONENTS  0.1873114D+02 0.2825394D+01 0.6401217D+00 0.1612778D+00 0.1873114D+02
EXPONENTS  0.2825394D+01 0.6401217D+00 0.1612778D+00 0.1873114D+02 0.2825394D+01
EXPONENTS  0.6401217D+00 0.1612778D+00
MO    1     MO 0.0        OCC NO =    2.0000000  ORB. ENERGY =  -19.393113
  0.17552065D-06  0.32380133D-06  0.52271574D-06  0.68042058D-06  0.58060411D-06
  0.20046865D-06  0.10082338D-04  0.46469404D-05 -0.13030506D-04 -0.81215441D-04
 -0.62270849D-04 -0.31077518D-04 -0.96930202D-04 -0.74319931D-04 -0.37090854D-04
  0.23350229D-08  0.17903475D-08  0.89350887D-09  0.43308489D-03 -0.12753531D-04
 -0.15330055D-03 -0.87332979D-09  0.66358311D-04 -0.20439241D-05  0.25475671D-04
  0.28362575D-04  0.43017659D-09 -0.13300315D-08  0.13682185D-04  0.25240960D-04
  0.40746737D-04  0.53040144D-04  0.45259251D-04  0.15626932D-04 -0.85680633D-04
 -0.39490125D-04  0.11073443D-03  0.58517928D-04  0.44867836D-04  0.22392195D-04
  0.42963249D-04  0.32941494D-04  0.16440114D-04 -0.30615087D-08 -0.23473707D-08
 -0.11715025D-08 -0.54801767D-03 -0.39634684D-03  0.10387090D-03  0.11447352D-07
 -0.53174749D-04 -0.77497616D-04  0.57382050D-04 -0.54700597D-04  0.11301422D-09
  0.34676927D-09 -0.38245837D-04 -0.70556101D-04 -0.11389942D-03 -0.14826321D-03
 -0.12651326D-03 -0.43681989D-04 -0.93633384D-04 -0.43155541D-04  0.12101264D-03
 -0.14637986D-03 -0.11223479D-03 -0.56013027D-04 -0.11408353D-03 -0.87472015D-04
 -0.43654666D-04  0.20478870D-08  0.15701899D-08  0.78363480D-09 -0.15565906D-03
  0.80970735D-03  0.62594023D-03 -0.83606346D-08 -0.64314561D-03 -0.41066624D-03
 -0.17331156D-03 -0.86659626D-03  0.71351764D-08  0.72727631D-08  0.14610008D-04
  0.26952613D-04  0.43509874D-04  0.56636928D-04  0.48328393D-04  0.16686633D-04
 -0.90958068D-04 -0.41922490D-04  0.11755504D-03  0.46071779D-04  0.35324918D-04
  0.17629610D-04  0.47891273D-04  0.36719990D-04  0.18325849D-04 -0.25132513D-09
 -0.19270017D-09 -0.96170890D-10 -0.57980714D-03 -0.31074509D-04 -0.41297589D-03
 -0.77520078D-08 -0.10194411D-03 -0.37752168D-04  0.61053571D-04 -0.40240696D-04
  0.16130393D-08 -0.66378398D-08 -0.26929694D-05 -0.49680026D-05 -0.80198967D-05
 -0.10439523D-04 -0.89080635D-05 -0.30757402D-05  0.24356696D-04  0.11225979D-04
 -0.31478817D-04 -0.11558012D-03 -0.88619507D-04 -0.44227345D-04 -0.35995719D-04
 -0.27599234D-04 -0.13773952D-04  0.70180127D-09  0.53809670D-09  0.26854797D-09
  0.48062988D-03 -0.15168983D-03 -0.97885315D-05 -0.84668046D-09  0.37219029D-04
  0.42543633D-04  0.12559165D-04  0.52979587D-04  0.78674965D-08 -0.15585416D-08
  0.12678430D-04  0.23389227D-04  0.37757465D-04  0.49149000D-04  0.41938931D-04
  0.14480505D-04 -0.47153004D-04 -0.21732776D-04  0.60940973D-04 -0.47945946D-04
 -0.36761910D-04 -0.18346770D-04 -0.38553818D-04 -0.29560622D-04 -0.14752822D-04
  0.21921032D-08  0.16807657D-08  0.83881990D-09 -0.25696023D-03  0.13004812D-03
  0.84905762D-04 -0.24809908D-08  0.35130918D-05 -0.71179361D-05  0.64783525D-04
  0.63194142D-04  0.27176631D-08 -0.17418444D-08  0.28261097D-05  0.47936169D-05
  0.54573635D-05  0.22710087D-04 -0.20661675D-04 -0.35046111D-04 -0.39898759D-04
 -0.15809292D-03 -0.89845204D-05 -0.15239447D-04 -0.17349572D-04 -0.50708592D-04
  0.82565595D+00  0.15196477D+01  0.24590768D+01  0.32325253D+01  0.27725182D+01
  0.94797105D+00 -0.15586997D-01 -0.69548875D-02  0.20537876D-01  0.27598087D-02
  0.21262838D-02  0.93355312D-03  0.21133639D-02  0.16282330D-02  0.71488197D-03
 -0.25145394D-07 -0.19373170D-07 -0.85058652D-08  0.43053572D-02  0.46846628D-03
  0.35823581D-03 -0.33173747D-08 -0.88878229D-02 -0.90398995D-02 -0.92560155D-02
  0.56272876D-03 -0.60842409D-08 -0.43819313D-08 -0.19335773D-04 -0.32797131D-04
 -0.37338374D-04 -0.15537516D-03  0.71596640D-05  0.13208182D-04  0.21322101D-04
  0.27755040D-04  0.23683426D-04  0.81773179D-05 -0.24443658D-04 -0.11266059D-04
  0.31591207D-04 -0.15416989D-06 -0.11820769D-06 -0.58993924D-07 -0.16255680D-05
 -0.12463824D-05 -0.62203218D-06 -0.29743022D-08 -0.22805063D-08 -0.11381325D-08
 -0.35281151D-04  0.16344032D-04  0.74177572D-05  0.83919321D-09 -0.65007174D-05
  0.25826474D-04  0.30656306D-04  0.57783815D-05 -0.15187573D-08 -0.25799107D-08
  0.24434439D-05  0.41445434D-05  0.47184161D-05  0.16431543D-05  0.24435049D-05
  0.41446468D-05  0.47185339D-05  0.16434149D-05  0.35671572D-05  0.60505738D-05
  0.68883645D-05  0.10340618D-04
MO    2     MO 0.0        OCC NO =    2.0000000  ORB. ENERGY =  -10.495738
  0.30170904D-04  0.55659427D-04  0.89851574D-04  0.11696005D-03  0.99802224D-04
  0.34459309D-04 -0.78467933D-04 -0.36165799D-04  0.10141267D-03  0.12405304D-03
  0.95116006D-04  0.47469553D-04  0.17360225D-03  0.13310719D-03  0.66429819D-04
 -0.40705738D-08 -0.31210578D-08 -0.15576266D-08 -0.14445580D-02 -0.39651423D-05
  0.59313914D-03  0.37764668D-08  0.21390698D-04  0.41654281D-04  0.23186293D-04
  0.25391990D-04 -0.63718557D-08  0.15861855D-08  0.17192110D-02  0.31716085D-02
  0.51199596D-02  0.66646661D-02  0.56869717D-02  0.19635747D-02  0.21780159D-03
  0.10038455D-03 -0.28148877D-03 -0.19408695D-03 -0.14881356D-03 -0.74268397D-04
  0.29042781D-03  0.22268162D-03  0.11113374D-03  0.11090965D-07  0.85038486D-08
  0.42440164D-08  0.22440201D-02  0.10104961D-02 -0.49828498D-03 -0.31203549D-07
 -0.21387143D-03 -0.62425172D-03 -0.37033533D-03 -0.10883329D-03 -0.75023919D-09
 -0.65426018D-08  0.53258406D+00  0.98251359D+00  0.15860816D+01  0.20646070D+01
  0.17617329D+01  0.60828402D+00 -0.19899930D-01 -0.91718594D-02  0.25718851D-01
 -0.56154944D-03 -0.43056049D-03 -0.21487986D-03 -0.34670129D-03 -0.26582856D-03
 -0.13266708D-03  0.74288728D-08  0.56959884D-08  0.28426974D-08 -0.31326602D-02
 -0.15279233D-02 -0.11890318D-02  0.17798543D-07 -0.95437068D-02 -0.97990956D-02
 -0.10441173D-01  0.10324505D-02 -0.21865344D-07  0.21542295D-08  0.13709516D-02
  0.25291380D-02  0.40828129D-02  0.53146093D-02  0.45349657D-02  0.15658147D-02
  0.25265009D-03  0.11644619D-03 -0.32652728D-03  0.25872267D-03  0.19837213D-03
  0.99001598D-04 -0.26142189D-03 -0.20044172D-03 -0.10003447D-03 -0.78962648D-08
 -0.60543550D-08 -0.30215475D-08  0.23885899D-02 -0.13259001D-03  0.11358281D-02
  0.24690967D-07 -0.56861211D-03 -0.21385983D-03 -0.37909817D-03  0.12731246D-03
  0.18047031D-07  0.14590901D-07  0.38307624D-04  0.70670087D-04  0.11408343D-03
  0.14850273D-03  0.12671765D-03  0.43752559D-04 -0.11328084D-03 -0.52211033D-04
  0.14640519D-03  0.15602573D-03  0.11963063D-03  0.59704069D-04  0.23723614D-04
  0.18189763D-04  0.90779664D-05 -0.88321092D-08 -0.67719011D-08 -0.33796533D-08
 -0.15419893D-02  0.63787415D-03 -0.38885330D-04  0.40358296D-08 -0.17682144D-04
  0.34916853D-04  0.50424214D-04  0.16717395D-04 -0.13768927D-07  0.10005160D-07
 -0.10156690D-03 -0.18737110D-03 -0.30247505D-03 -0.39373265D-03 -0.33597278D-03
 -0.11600333D-03  0.14523072D-03  0.66936705D-04 -0.18769751D-03  0.10503832D-03
  0.80536722D-04  0.40193469D-04  0.81017470D-04  0.62119058D-04  0.31001763D-04
 -0.70702087D-08 -0.54209876D-08 -0.27054528D-08  0.98243609D-03 -0.47675997D-03
 -0.30195450D-03  0.82495494D-08 -0.25712093D-04 -0.12309444D-04 -0.16221126D-03
 -0.79280393D-04 -0.71934126D-08  0.70927749D-08 -0.13958454D-04 -0.23676179D-04
 -0.26954493D-04 -0.11877569D-03  0.41867308D-04  0.71014879D-04  0.80847929D-04
  0.33612639D-03  0.28923295D-04  0.49059383D-04  0.55852374D-04  0.17483692D-03
  0.94145244D-04  0.17327751D-03  0.28039571D-03  0.36858801D-03  0.31613580D-03
  0.10809220D-03 -0.79713466D-03 -0.35567993D-03  0.10503276D-02 -0.11248915D-03
 -0.86666826D-04 -0.38051405D-04 -0.73209819D-04 -0.56404219D-04 -0.24764490D-04
  0.84668135D-08  0.65232233D-08  0.28640464D-08 -0.23503866D-02 -0.70265847D-03
 -0.53955570D-03  0.29559097D-08  0.38461022D-03  0.61569869D-03  0.10846926D-02
 -0.87415475D-03  0.10766248D-07  0.21946971D-08  0.40740573D-04  0.69103723D-04
  0.78672147D-04  0.32920914D-03 -0.18926912D-04 -0.34916457D-04 -0.56365988D-04
 -0.73371768D-04 -0.62608263D-04 -0.21617129D-04  0.53354521D-04  0.24591050D-04
 -0.68955871D-04  0.25759789D-04  0.19750972D-04  0.98571193D-05 -0.13986029D-04
 -0.10723600D-04 -0.53518280D-05  0.10489260D-07  0.80424990D-08  0.40137707D-08
 -0.43828707D-04 -0.14430686D-04 -0.40005960D-04  0.35999090D-09  0.34413817D-04
 -0.67357930D-04 -0.69877861D-04  0.17992889D-04  0.39245115D-08  0.11948770D-07
 -0.32805842D-05 -0.55644918D-05 -0.63349772D-05  0.20425513D-05 -0.32817621D-05
 -0.55664896D-05 -0.63372516D-05  0.20412486D-05 -0.86346932D-05 -0.14646074D-04
 -0.16674038D-04 -0.14685118D-04
MO    3     MO 0.0        OCC NO =    2.0000000  ORB. ENERGY =  -10.469566
  0.29924363D-02  0.55204607D-02  0.89117352D-02  0.11600431D-01  0.98986691D-02
  0.34177726D-02  0.14659750D-03  0.67566653D-04 -0.18946395D-03 -0.37566872D-03
 -0.28803895D-03 -0.14375162D-03  0.25565979D-03  0.19602371D-03  0.97829570D-04
  0.72100146D-08  0.55281819D-08  0.27589502D-08  0.16919834D-02  0.26432557D-03
 -0.64432232D-03 -0.72410178D-08 -0.60626279D-03 -0.30999893D-03 -0.31385545D-03
  0.14517989D-03  0.97190452D-08  0.17938272D-10  0.82048704D-04  0.15136384D-03
  0.24434817D-03  0.31806871D-03  0.27140861D-03  0.93710869D-04 -0.37271166D-04
 -0.17178246D-04  0.48169596D-04 -0.58590217D-04 -0.44923262D-04 -0.22419856D-04
 -0.25954047D-04 -0.19899917D-04 -0.99314533D-05  0.69408632D-09  0.53218137D-09
  0.26559580D-09 -0.81204084D-03 -0.36547146D-03  0.11644276D-03  0.99326629D-08
  0.87849411D-04  0.46538974D-04  0.26095283D-04  0.38688440D-04 -0.31712283D-08
 -0.22184716D-08  0.31583555D-04  0.58265492D-04  0.94058571D-04  0.12243631D-03
  0.10447513D-03  0.36072751D-04  0.11226582D-03  0.51743214D-04 -0.14509337D-03
 -0.28629917D-04 -0.21951604D-04 -0.10955389D-04 -0.19981460D-04 -0.15320516D-04
 -0.76460114D-05  0.17283440D-08  0.13251846D-08  0.66135998D-09  0.62769777D-03
  0.31631124D-03  0.23353139D-03 -0.43563804D-08 -0.43531464D-04 -0.34222386D-04
 -0.12112850D-03 -0.28174377D-04 -0.26736150D-08 -0.75813088D-09  0.60017514D-04
  0.11072059D-03  0.17873737D-03  0.23266295D-03  0.19853171D-03  0.68548229D-04
 -0.23118188D-04 -0.10655152D-04  0.29878157D-04 -0.31855239D-04 -0.24424577D-04
 -0.12189576D-04 -0.44510138D-04 -0.34127551D-04 -0.17032040D-04  0.48887686D-08
  0.37483977D-08  0.18707131D-08 -0.75369654D-03  0.55331859D-04 -0.39163440D-03
 -0.92401688D-08  0.76257005D-04  0.63518663D-04  0.15606231D-04  0.50878763D-04
  0.73182443D-08 -0.74203821D-08  0.30703822D-02  0.56642556D-02  0.91438649D-02
  0.11902595D-01  0.10156506D-01  0.35067975D-02  0.12117983D-03  0.55851672D-04
 -0.15661392D-03  0.17812386D-03  0.13657408D-03  0.68160038D-04 -0.46869816D-03
 -0.35936802D-03 -0.17934983D-03  0.31364682D-08  0.24048449D-08  0.12001861D-08
  0.16029169D-02 -0.61000691D-03  0.55808772D-03 -0.20211861D-08 -0.32058375D-03
 -0.57643624D-03 -0.29430117D-03 -0.17288337D-04  0.16396860D-08  0.32605445D-08
  0.53249376D+00  0.98234701D+00  0.15858127D+01  0.20642569D+01  0.17614342D+01
  0.60818089D+00 -0.19817475D-01 -0.91338562D-02  0.25612286D-01 -0.44411598D-03
 -0.34051997D-03 -0.16994333D-03 -0.23795988D-03 -0.18245254D-03 -0.91056606D-04
  0.10283784D-07  0.78849534D-08  0.39351444D-08 -0.36461473D-02  0.62212609D-03
  0.51391304D-03 -0.79959847D-08 -0.10210331D-01 -0.10227543D-01 -0.10569291D-01
 -0.20031018D-03 -0.22687869D-07 -0.10445595D-07  0.94347311D-05  0.16003090D-04
  0.18218952D-04  0.16153866D-03 -0.16833576D-04 -0.28552932D-04 -0.32506504D-04
 -0.81264139D-04 -0.97275850D-04 -0.16499825D-03 -0.18784468D-03  0.13102743D-03
 -0.30171292D-04 -0.55531284D-04 -0.89860100D-04 -0.11812362D-03 -0.10131394D-03
 -0.34640957D-04  0.99738323D-04  0.44503045D-04 -0.13141809D-03 -0.75519597D-05
 -0.58183778D-05 -0.25545812D-05  0.23687431D-05  0.18249889D-05  0.80126841D-06
 -0.28060880D-08 -0.21619396D-08 -0.94920791D-09  0.31694760D-03  0.41930237D-04
  0.30013883D-04  0.77689666D-09 -0.10620970D-03 -0.10868855D-03 -0.10559791D-03
 -0.67429218D-06  0.11480281D-08  0.41522571D-09 -0.19254049D-04 -0.32658511D-04
 -0.37180561D-04 -0.96642319D-04 -0.36802394D-05 -0.67893230D-05 -0.10960072D-04
 -0.14266758D-04 -0.12173850D-04 -0.42033379D-05  0.43759902D-04  0.20168899D-04
 -0.56555698D-04 -0.32607174D-04 -0.25001113D-04 -0.12477307D-04 -0.26736817D-06
 -0.20500096D-06 -0.10230984D-06 -0.29906826D-08 -0.22930657D-08 -0.11444005D-08
  0.24430417D-03 -0.11164265D-03  0.65373604D-05 -0.93080346D-08  0.89325626D-04
  0.52832658D-04 -0.20718821D-04 -0.11463330D-04  0.20600445D-07  0.26728335D-08
 -0.73017919D-05 -0.12385221D-04 -0.14100136D-04  0.21077492D-04 -0.73046046D-05
 -0.12389992D-04 -0.14105568D-04  0.21085337D-04 -0.63584614D-05 -0.10785154D-04
 -0.12278517D-04  0.42933813D-05
MO    4     MO 0.0        OCC NO =    2.0000000  ORB. ENERGY =  -10.443790
  0.94589948D-02  0.17449998D-01  0.28169708D-01  0.36668590D-01  0.31289374D-01
  0.10803469D-01 -0.75351826D-04 -0.34729588D-04  0.97385389D-04  0.33519548D-03
  0.25700663D-03  0.12826432D-03  0.35762241D-03  0.27420218D-03  0.13684611D-03
 -0.16773143D-08 -0.12860582D-08 -0.64183319D-09  0.16009518D-02 -0.13254155D-03
 -0.66323067D-03 -0.15647883D-08 -0.63226593D-03 -0.49225559D-03 -0.43627556D-03
 -0.20544928D-03  0.83794431D-08 -0.10685439D-08  0.53239604D+00  0.98216673D+00
  0.15855216D+01  0.20638781D+01  0.17611109D+01  0.60806927D+00 -0.19916485D-01
 -0.91794899D-02  0.25740248D-01  0.59147486D-03  0.45350541D-03  0.22633098D-03
 -0.37518233D-03 -0.28766602D-03 -0.14356550D-03 -0.23578772D-07 -0.18078707D-07
 -0.90225418D-08 -0.35549634D-02 -0.66461187D-03  0.34576407D-03  0.18190361D-07
 -0.10302207D-01 -0.10311790D-01 -0.10661619D-01  0.19561497D-03 -0.29044525D-07
  0.80215429D-08 -0.19538133D-02 -0.36044040D-02 -0.58186256D-02 -0.75741217D-02
 -0.64630118D-02 -0.22315227D-02  0.27925003D-03  0.12870608D-03 -0.36090529D-03
  0.49052931D-04  0.37610676D-04  0.18770363D-04 -0.41366158D-03 -0.31716946D-03
 -0.15828979D-03 -0.42308915D-08 -0.32439793D-08 -0.16189730D-08  0.14885280D-02
  0.22562642D-03  0.60532496D-03  0.18149457D-08 -0.25314234D-03 -0.58637361D-03
 -0.22026264D-03  0.18001903D-03  0.47396755D-08 -0.11556597D-07 -0.15422432D-03
 -0.28451375D-03 -0.45929341D-03 -0.59786355D-03 -0.51015805D-03 -0.17614531D-03
 -0.76479348D-05 -0.35249262D-05  0.98842609D-05  0.51250371D-04  0.39295534D-04
  0.19611226D-04 -0.57792998D-04 -0.44312005D-04 -0.22114796D-04 -0.24718418D-08
 -0.18952515D-08 -0.94586332D-09 -0.61951427D-03 -0.34977061D-04 -0.31893271D-03
 -0.53500915D-08  0.76106444D-04  0.45659037D-04  0.64638304D-05 -0.60294017D-04
 -0.39571054D-08 -0.21087967D-08 -0.13962079D-03 -0.25757309D-03 -0.41580282D-03
 -0.54125173D-03 -0.46185108D-03 -0.15946608D-03  0.93914297D-04  0.43285014D-04
 -0.12137570D-03  0.99540007D-04  0.76320964D-04  0.38089510D-04 -0.27696302D-04
 -0.21235768D-04 -0.10598136D-04  0.61609805D-10  0.47238490D-10  0.23575317D-10
  0.63464866D-03 -0.38230120D-03  0.12610951D-03 -0.24620510D-08 -0.17388245D-04
  0.24565563D-04 -0.93027005D-04  0.32544372D-04 -0.13504127D-08  0.19612559D-08
 -0.10969435D-03 -0.20236465D-03 -0.32667929D-03 -0.42523938D-03 -0.36285753D-03
 -0.12528599D-03 -0.24912398D-04 -0.11482102D-04  0.32197011D-04  0.78910347D-04
  0.60503449D-04  0.30195462D-04 -0.15332903D-04 -0.11756298D-04 -0.58672165D-05
 -0.14873427D-08 -0.11404000D-08 -0.56913954D-09 -0.73984665D-03  0.29095855D-03
  0.19603681D-03 -0.31661213D-08  0.94928272D-04  0.15402253D-04  0.27292377D-04
  0.62896935D-05 -0.39888091D-08 -0.38343286D-08  0.11194030D-04  0.18987193D-04
  0.21616249D-04  0.16098826D-03 -0.90788722D-04 -0.15399486D-03 -0.17531770D-03
  0.15190552D-03 -0.14177830D-04 -0.24048284D-04 -0.27378121D-04 -0.74287199D-04
 -0.13222610D-04 -0.24336660D-04 -0.39381310D-04 -0.51767835D-04 -0.44400971D-04
 -0.15181446D-04  0.70173521D-04  0.31311288D-04 -0.92462654D-04  0.27918718D-04
  0.21509867D-04  0.94439903D-05  0.97392970D-04  0.75036033D-04  0.32944860D-04
  0.57261104D-09  0.44116594D-09  0.19369561D-09  0.16886162D-03  0.43028470D-04
 -0.62938131D-04 -0.10904147D-08  0.18605100D-04 -0.42161128D-05 -0.90789738D-04
 -0.19464870D-04 -0.25348584D-08  0.19042177D-08 -0.16099540D-04 -0.27307867D-04
 -0.31089041D-04 -0.62421217D-04 -0.30326726D-05 -0.55946889D-05 -0.90315625D-05
 -0.11756411D-04 -0.10031767D-04 -0.34637280D-05  0.16687154D-04  0.76910938D-05
 -0.21566630D-04 -0.42409790D-04 -0.32517137D-04 -0.16228330D-04  0.28691115D-04
  0.21998527D-04  0.10978807D-04 -0.85062171D-09 -0.65220277D-09 -0.32549489D-09
  0.18646238D-03 -0.56084117D-04  0.15947319D-04 -0.53418994D-08  0.10594423D-04
  0.44228471D-05 -0.90642136D-05 -0.73170056D-05  0.55683438D-08 -0.27729370D-08
 -0.25801686D-05 -0.43764542D-05 -0.49824385D-05 -0.20530480D-05 -0.25796475D-05
 -0.43755704D-05 -0.49814322D-05 -0.20513829D-05 -0.50164171D-05 -0.85087928D-05
 -0.96869599D-05 -0.64829318D-05
MO    5     MO 0.0        OCC NO =    2.0000000  ORB. ENERGY =  -10.432159
 -0.28615162D-03 -0.52789386D-03 -0.85218437D-03 -0.11092908D-02 -0.94655989D-03
 -0.32682438D-03  0.96409183D-04  0.44434904D-04 -0.12460011D-03  0.28402083D-05
  0.21776915D-05  0.10868207D-05  0.54751456D-04  0.41979944D-04  0.20950934D-04
  0.20108623D-08  0.15418017D-08  0.76946709D-09  0.55588367D-03  0.95188367D-05
 -0.26166202D-03 -0.93290618D-09  0.26075581D-04 -0.47651469D-05 -0.90268484D-04
 -0.40117048D-05 -0.23848416D-08  0.92446261D-09  0.18897428D-03  0.34862064D-03
  0.56278180D-03  0.73257469D-03  0.62510731D-03  0.21583453D-03 -0.67581792D-05
 -0.31148386D-05  0.87343326D-05 -0.42800579D-04 -0.32816769D-04 -0.16377868D-04
  0.79037876D-04  0.60601230D-04  0.30244261D-04  0.41991716D-08  0.32196584D-08
  0.16068352D-08 -0.50648213D-03 -0.24962295D-03  0.38497214D-04  0.47977687D-08
  0.32187697D-04  0.75619280D-04 -0.15754736D-04 -0.24258654D-04 -0.53129129D-08
  0.43752042D-08 -0.15866856D-02 -0.29271251D-02 -0.47252874D-02 -0.61509202D-02
 -0.52485914D-02 -0.18122125D-02  0.25844590D-03  0.11911748D-03 -0.33401785D-03
 -0.38158603D-03 -0.29257597D-03 -0.14601591D-03  0.14526147D-03  0.11137728D-03
  0.55585068D-04  0.87188886D-08  0.66850907D-08  0.33363288D-08  0.13736087D-02
  0.60273471D-03  0.54896520D-04 -0.98494389D-08 -0.51140760D-03 -0.33173744D-03
 -0.22075906D-03  0.33111897D-03  0.18063636D-07 -0.14852846D-07  0.52442743D+00
  0.96746620D+00  0.15617904D+01  0.20329871D+01  0.17347516D+01  0.59896802D+00
 -0.19617930D-01 -0.90418860D-02  0.25354392D-01 -0.29570750D-03 -0.22672976D-03
 -0.11315404D-03  0.57971971D-03  0.44449231D-03  0.22183281D-03  0.11368170D-07
  0.87163918D-08  0.43500904D-08 -0.33702350D-02  0.14702595D-03 -0.67551095D-03
 -0.18735625D-07 -0.10177921D-01 -0.10307961D-01 -0.10539451D-01  0.10530176D-03
 -0.12669684D-08  0.96944166D-08  0.92008495D-01  0.16973771D+00  0.27400929D+00
  0.35667868D+00  0.30435456D+00  0.10508632D+00 -0.31725497D-02 -0.14622253D-02
  0.41002323D-02  0.41000640D-03  0.31436690D-03  0.15689111D-03  0.29007280D-03
  0.22240942D-03  0.11099789D-03  0.10559566D-07  0.80964055D-08  0.40406738D-08
  0.94086894D-03 -0.73093713D-03 -0.52821124D-05 -0.60658443D-08 -0.21264285D-02
 -0.21120431D-02 -0.20350595D-02 -0.14163567D-03 -0.89961258D-08 -0.95485753D-08
 -0.60542141D-03 -0.11168843D-02 -0.18029975D-02 -0.23469671D-02 -0.20026712D-02
 -0.69147425D-03  0.39742548D-04  0.18317304D-04 -0.51363633D-04  0.29194213D-05
  0.22384271D-05  0.11171320D-05  0.15432574D-03  0.11832719D-03  0.59053560D-04
  0.86528360D-08  0.66344458D-08  0.33110534D-08 -0.42644831D-03  0.23915498D-03
  0.11770983D-03 -0.50644605D-08  0.66194103D-05 -0.95706159D-05 -0.79402842D-05
  0.47296738D-04  0.49959767D-08 -0.20829691D-08  0.80567639D-05  0.13665797D-04
  0.15558026D-04  0.80312549D-04 -0.12534262D-04 -0.21260481D-04 -0.24204306D-04
 -0.40935486D-04 -0.14198006D-04 -0.24082506D-04 -0.27417082D-04 -0.67767815D-04
 -0.15089267D-04 -0.27772306D-04 -0.44940833D-04 -0.59075983D-04 -0.50669128D-04
 -0.17324635D-04  0.76534493D-04  0.34149542D-04 -0.10084405D-03  0.94852012D-04
  0.73078362D-04  0.32085337D-04 -0.56691272D-05 -0.43677568D-05 -0.19176805D-05
 -0.32467718D-08 -0.25014626D-08 -0.10982768D-08  0.17901837D-03 -0.39404360D-04
  0.59340205D-04  0.16308709D-08 -0.90177755D-05  0.10583165D-04 -0.97934281D-04
 -0.12770371D-05 -0.34627186D-08  0.20302776D-08 -0.88305956D-04 -0.14978362D-03
 -0.17052335D-03  0.15666693D-03  0.12482353D-03  0.23027505D-03  0.37173533D-03
  0.48388894D-03  0.41290331D-03  0.14256559D-03  0.60987053D-04  0.28108877D-04
 -0.78820225D-04  0.11074085D-04  0.84909063D-05  0.42375573D-05  0.29180520D-04
  0.22373772D-04  0.11166080D-04 -0.76112703D-08 -0.58358393D-08 -0.29124928D-08
  0.36420252D-03 -0.11355319D-03  0.59383831D-04 -0.52475820D-08 -0.12933686D-04
 -0.60324185D-05 -0.43082091D-04 -0.17105613D-05  0.87196330D-08 -0.67555431D-08
 -0.10841518D-04 -0.18389267D-04 -0.20935531D-04  0.67700381D-05 -0.10842911D-04
 -0.18391630D-04 -0.20938220D-04  0.67691730D-05 -0.82244557D-05 -0.13950234D-04
 -0.15881848D-04 -0.13327076D-04
MO    6     MO 0.0        OCC NO =    2.0000000  ORB. ENERGY =  -10.430278
 -0.18327771D-03 -0.33811159D-03 -0.54581694D-03 -0.71049148D-03 -0.60626367D-03
 -0.20932827D-03 -0.51854179D-04 -0.23899544D-04  0.67016816D-04 -0.39004785D-04
 -0.29906396D-04 -0.14925387D-04  0.21510432D-04  0.16492835D-04  0.82310806D-05
 -0.61867708D-08 -0.47436234D-08 -0.23674005D-08 -0.82762679D-03 -0.99032726D-05
  0.38372560D-03  0.34859516D-08  0.78908300D-04  0.60862341D-04  0.62997675D-04
 -0.56760241D-04 -0.33546897D-08 -0.27378440D-08  0.69398012D-04  0.12802578D-03
  0.20667331D-03  0.26902724D-03  0.22956143D-03  0.79262045D-04  0.75037135D-04
  0.34584547D-04 -0.96978679D-04 -0.36193264D-04 -0.27750699D-04 -0.13849544D-04
 -0.35614875D-05 -0.27307228D-05 -0.13628220D-05 -0.22424451D-08 -0.17193647D-08
 -0.85808347D-09  0.68070231D-03  0.35415431D-03 -0.79481276D-04 -0.98905711D-08
 -0.27156950D-04 -0.17481196D-04 -0.83837401D-04  0.22306941D-04  0.16650377D-08
  0.12655819D-08  0.28785668D-03  0.53103936D-03  0.85726219D-03  0.11159006D-02
  0.95220005D-03  0.32877179D-03 -0.10095377D-03 -0.46529498D-04  0.13047357D-03
  0.47752881D-04  0.36613880D-04  0.18272892D-04  0.42625153D-06  0.32682264D-06
  0.16310740D-06 -0.96836842D-08 -0.74248348D-08 -0.37055129D-08 -0.91654016D-03
 -0.41774312D-03 -0.15003666D-03  0.10180003D-07  0.16193238D-03  0.71967371D-04
  0.97780000D-04 -0.85081667D-04 -0.33567292D-08  0.72685520D-08 -0.92271765D-01
 -0.17022339D+00 -0.27479333D+00 -0.35769927D+00 -0.30522543D+00 -0.10538701D+00
  0.37291055D-02  0.17187413D-02 -0.48195301D-02 -0.30044040D-03 -0.23035864D-03
 -0.11496511D-03 -0.46669452D-03 -0.35783176D-03 -0.17858312D-03 -0.31302718D-08
 -0.24000938D-08 -0.11978150D-08  0.23433554D-02  0.15998373D-03  0.73480321D-03