 Entering Link 1 = D:\Gaussian\G16W\l1.exe PID=     27584.
  
 Copyright (c) 1988,1990,1992,1993,1995,1998,2003,2009,2016,
            Gaussian, Inc.  All Rights Reserved.
  
 This is part of the Gaussian(R) 16 program.  It is based on
 the Gaussian(R) 09 system (copyright 2009, Gaussian, Inc.),
 the Gaussian(R) 03 system (copyright 2003, Gaussian, Inc.),
 the Gaussian(R) 98 system (copyright 1998, Gaussian, Inc.),
 the Gaussian(R) 94 system (copyright 1995, Gaussian, Inc.),
 the Gaussian 92(TM) system (copyright 1992, Gaussian, Inc.),
 the Gaussian 90(TM) system (copyright 1990, Gaussian, Inc.),
 the Gaussian 88(TM) system (copyright 1988, Gaussian, Inc.),
 the Gaussian 86(TM) system (copyright 1986, Carnegie Mellon
 University), and the Gaussian 82(TM) system (copyright 1983,
 Carnegie Mellon University). Gaussian is a federally registered
 trademark of Gaussian, Inc.
  
 This software contains proprietary and confidential information,
 including trade secrets, belonging to Gaussian, Inc.
  
 This software is provided under written license and may be
 used, copied, transmitted, or stored only in accord with that
 written license.
  
 The following legend is applicable only to US Government
 contracts under FAR:
  
                    RESTRICTED RIGHTS LEGEND
  
 Use, reproduction and disclosure by the US Government is
 subject to restrictions as set forth in subparagraphs (a)
 and (c) of the Commercial Computer Software - Restricted
 Rights clause in FAR 52.227-19.
  
 Gaussian, Inc.
 340 Quinnipiac St., Bldg. 40, Wallingford CT 06492
  
  
 ---------------------------------------------------------------
 Warning -- This program may not be used in any manner that
 competes with the business of Gaussian, Inc. or will provide
 assistance to any competitor of Gaussian, Inc.  The licensee
 of this program is prohibited from giving any competitor of
 Gaussian, Inc. access to this program.  By using this program,
 the user acknowledges that Gaussian, Inc. is engaged in the
 business of creating and licensing software in the field of
 computational chemistry and represents and warrants to the
 licensee that it is not a competitor of Gaussian, Inc. and that
 it will not use this program in any manner prohibited above.
 ---------------------------------------------------------------
  

 Cite this work as:
 Gaussian 16, Revision A.03,
 M. J. Frisch, G. W. Trucks, H. B. Schlegel, G. E. Scuseria, 
 M. A. Robb, J. R. Cheeseman, G. Scalmani, V. Barone, 
 G. A. Petersson, H. Nakatsuji, X. Li, M. Caricato, A. V. Marenich, 
 J. Bloino, B. G. Janesko, R. Gomperts, B. Mennucci, H. P. Hratchian, 
 J. V. Ortiz, A. F. Izmaylov, J. L. Sonnenberg, D. Williams-Young, 
 F. Ding, F. Lipparini, F. Egidi, J. Goings, B. Peng, A. Petrone, 
 T. Henderson, D. Ranasinghe, V. G. Zakrzewski, J. Gao, N. Rega, 
 G. Zheng, W. Liang, M. Hada, M. Ehara, K. Toyota, R. Fukuda, 
 J. Hasegawa, M. Ishida, T. Nakajima, Y. Honda, O. Kitao, H. Nakai, 
 T. Vreven, K. Throssell, J. A. Montgomery, Jr., J. E. Peralta, 
 F. Ogliaro, M. J. Bearpark, J. J. Heyd, E. N. Brothers, K. N. Kudin, 
 V. N. Staroverov, T. A. Keith, R. Kobayashi, J. Normand, 
 K. Raghavachari, A. P. Rendell, J. C. Burant, S. S. Iyengar, 
 J. Tomasi, M. Cossi, J. M. Millam, M. Klene, C. Adamo, R. Cammi, 
 J. W. Ochterski, R. L. Martin, K. Morokuma, O. Farkas, 
 J. B. Foresman, and D. J. Fox, Gaussian, Inc., Wallingford CT, 2016.
 
 ******************************************
 Gaussian 16:  EM64W-G16RevA.03 17-Dec-2016
                03-Dec-2025 
 ******************************************
 %nprocs=   4
 Will use up to    4 processors via shared memory.
 ------------------------------------
 #P B3LYP/6-31G* SCF=conver=7 out=wfn
 ------------------------------------
 1/38=1,172=1/1;
 2/12=2,17=6,18=5,40=1/2;
 3/5=1,6=6,7=1,11=2,25=1,30=1,74=-5/1,2,3;
 4//1;
 5/5=2,6=7,38=5/2;
 6/7=2,8=2,9=2,10=2,28=1/1;
 99/5=1,6=100,9=1/99;
 Leave Link    1 at Wed Dec 03 16:52:50 2025, MaxMem=           0 cpu:               0.0 elap:               0.1
 (Enter D:\Gaussian\G16W\l101.exe)
 ----------------------------------------------------
 Generated by Multiwfn (http://sobereva.com/multiwfn)
 ----------------------------------------------------
 Symbolic Z-matrix:
 Charge =  0 Multiplicity = 2
 C                    -0.32793   1.76213   0. 
 C                    -1.43643   0.9481    0.00002 
 C                    -1.28763  -0.49541  0. 
 C                     0.06628  -1.0199   -0.00003 
 C                     1.16902  -0.19655  -0.00002 
 C                     0.96212   1.20559  -0.00002 
 H                    -0.44033   2.84079   0.00001 
 H                    -2.44587   1.34148   0.00006 
 H                     1.82416   1.86489  -0.00005 
 O                    -2.28172  -1.25528   0.00001 
 H                     0.16358  -2.10003  -0.00006 
 C                     2.57478  -0.74596   0.00003 
 H                     3.12887  -0.40797  -0.881 
 H                     3.12871  -0.40814   0.88124 
 H                     2.57336  -1.83681  -0.00006 
 
 ITRead=  0  0  0  0  0  0  0  0  0  0  0  0  0  0  0
 MicOpt= -1 -1 -1 -1 -1 -1 -1 -1 -1 -1 -1 -1 -1 -1 -1
 NAtoms=     15 NQM=       15 NQMF=       0 NMMI=      0 NMMIF=      0
                NMic=       0 NMicF=      0.
                    Isotopes and Nuclear Properties:
 (Nuclear quadrupole moments (NQMom) in fm**2, nuclear magnetic moments (NMagM)
  in nuclear magnetons)

  Atom         1           2           3           4           5           6           7           8           9          10
 IAtWgt=          12          12          12          12          12          12           1           1           1          16
 AtmWgt=  12.0000000  12.0000000  12.0000000  12.0000000  12.0000000  12.0000000   1.0078250   1.0078250   1.0078250  15.9949146
 NucSpn=           0           0           0           0           0           0           1           1           1           0
 AtZEff=   0.0000000   0.0000000   0.0000000   0.0000000   0.0000000   0.0000000   0.0000000   0.0000000   0.0000000   0.0000000
 NQMom=    0.0000000   0.0000000   0.0000000   0.0000000   0.0000000   0.0000000   0.0000000   0.0000000   0.0000000   0.0000000
 NMagM=    0.0000000   0.0000000   0.0000000   0.0000000   0.0000000   0.0000000   2.7928460   2.7928460   2.7928460   0.0000000
 AtZNuc=   6.0000000   6.0000000   6.0000000   6.0000000   6.0000000   6.0000000   1.0000000   1.0000000   1.0000000   8.0000000

  Atom        11          12          13          14          15
 IAtWgt=           1          12           1           1           1
 AtmWgt=   1.0078250  12.0000000   1.0078250   1.0078250   1.0078250
 NucSpn=           1           0           1           1           1
 AtZEff=   0.0000000   0.0000000   0.0000000   0.0000000   0.0000000
 NQMom=    0.0000000   0.0000000   0.0000000   0.0000000   0.0000000
 NMagM=    2.7928460   0.0000000   2.7928460   2.7928460   2.7928460
 AtZNuc=   1.0000000   6.0000000   1.0000000   1.0000000   1.0000000
 Leave Link  101 at Wed Dec 03 16:52:50 2025, MaxMem=   104857600 cpu:               0.0 elap:               0.1
 (Enter D:\Gaussian\G16W\l202.exe)
                          Input orientation:                          
 ---------------------------------------------------------------------
 Center     Atomic      Atomic             Coordinates (Angstroms)
 Number     Number       Type             X           Y           Z
 ---------------------------------------------------------------------
      1          6           0       -0.327931    1.762128    0.000001
      2          6           0       -1.436429    0.948101    0.000018
      3          6           0       -1.287629   -0.495415   -0.000001
      4          6           0        0.066280   -1.019903   -0.000035
      5          6           0        1.169016   -0.196550   -0.000024
      6          6           0        0.962116    1.205595   -0.000021
      7          1           0       -0.440330    2.840788    0.000010
      8          1           0       -2.445869    1.341478    0.000063
      9          1           0        1.824160    1.864893   -0.000052
     10          8           0       -2.281715   -1.255278    0.000008
     11          1           0        0.163581   -2.100027   -0.000059
     12          6           0        2.574782   -0.745955    0.000028
     13          1           0        3.128872   -0.407966   -0.881004
     14          1           0        3.128712   -0.408140    0.881237
     15          1           0        2.573361   -1.836807   -0.000059
 ---------------------------------------------------------------------
                    Distance matrix (angstroms):
                    1          2          3          4          5
     1  C    0.000000
     2  C    1.375285   0.000000
     3  C    2.453064   1.451165   0.000000
     4  C    2.809822   2.476121   1.451949   0.000000
     5  C    2.465212   2.845799   2.474758   1.376204   0.000000
     6  C    1.404973   2.412327   2.820423   2.399034   1.417328
     7  H    1.084500   2.138803   3.442116   3.893788   3.437356
     8  H    2.159307   1.083381   2.171565   3.447755   3.928476
     9  H    2.154543   3.387026   3.905673   3.378193   2.163044
    10  O    3.594720   2.359955   1.251239   2.359763   3.609494
    11  H    3.893305   3.442545   2.163513   1.084498   2.152702
    12  C    3.836173   4.354267   3.870528   2.523416   1.509312
    13  H    4.175520   4.843252   4.504364   3.245003   2.159134
    14  H    4.175526   4.843186   4.504250   3.244901   2.159120
    15  H    4.622751   4.882021   4.087368   2.636814   2.159312
                    6          7          8          9         10
     6  C    0.000000
     7  H    2.154231   0.000000
     8  H    3.410693   2.504020   0.000000
     9  H    1.085262   2.465824   4.301989   0.000000
    10  O    4.071650   4.490930   2.601939   5.156906   0.000000
    11  H    3.400705   4.977586   4.318933   4.298618   2.587097
    12  C    2.531647   4.685683   5.437308   2.716608   4.883131
    13  H    2.841574   4.906097   5.908855   2.764821   5.546943
    14  H    2.841636   4.906134   5.908772   2.764996   5.546794
    15  H    3.442720   5.564371   5.940889   3.776756   4.889779
                   11         12         13         14         15
    11  H    0.000000
    12  C    2.765394   0.000000
    13  H    3.525916   1.094290   0.000000
    14  H    3.525786   1.094297   1.762241   0.000000
    15  H    2.424113   1.090853   1.768119   1.768103   0.000000
 Stoichiometry    C7H7O(2)
 Framework group  C1[X(C7H7O)]
 Deg. of freedom    39
 Full point group                 C1      NOp   1
 Largest Abelian subgroup         C1      NOp   1
 Largest concise Abelian subgroup C1      NOp   1
                         Standard orientation:                         
 ---------------------------------------------------------------------
 Center     Atomic      Atomic             Coordinates (Angstroms)
 Number     Number       Type             X           Y           Z
 ---------------------------------------------------------------------
      1          6           0       -0.327931    1.762128    0.000001
      2          6           0       -1.436429    0.948101    0.000018
      3          6           0       -1.287629   -0.495415   -0.000001
      4          6           0        0.066280   -1.019903   -0.000035
      5          6           0        1.169016   -0.196550   -0.000024
      6          6           0        0.962116    1.205595   -0.000021
      7          1           0       -0.440330    2.840788    0.000010
      8          1           0       -2.445869    1.341478    0.000063
      9          1           0        1.824160    1.864893   -0.000052
     10          8           0       -2.281715   -1.255278    0.000008
     11          1           0        0.163581   -2.100027   -0.000059
     12          6           0        2.574782   -0.745955    0.000028
     13          1           0        3.128872   -0.407966   -0.881004
     14          1           0        3.128712   -0.408140    0.881237
     15          1           0        2.573361   -1.836807   -0.000059
 ---------------------------------------------------------------------
 Rotational constants (GHZ):           3.7185286           1.8453412           1.2427983
 Leave Link  202 at Wed Dec 03 16:52:50 2025, MaxMem=   104857600 cpu:               0.0 elap:               0.0
 (Enter D:\Gaussian\G16W\l301.exe)
 Standard basis: 6-31G(d) (6D, 7F)
 Ernie: Thresh=  0.10000D-02 Tol=  0.10000D-05 Strict=F.
 There are   134 symmetry adapted cartesian basis functions of A   symmetry.
 There are   134 symmetry adapted basis functions of A   symmetry.
   134 basis functions,   252 primitive gaussians,   134 cartesian basis functions
    29 alpha electrons       28 beta electrons
       nuclear repulsion energy       331.6110576715 Hartrees.
 IExCor=  402 DFT=T Ex+Corr=B3LYP ExCW=0 ScaHFX=  0.200000
 ScaDFX=  0.800000  0.720000  1.000000  0.810000 ScalE2=  1.000000  1.000000
 IRadAn=      5 IRanWt=     -1 IRanGd=            0 ICorTp=0 IEmpDi=  4
 NAtoms=   15 NActive=   15 NUniq=   15 SFac= 1.00D+00 NAtFMM=   60 NAOKFM=F Big=F
 Integral buffers will be    131072 words long.
 Raffenetti 2 integral format.
 Two-electron integral symmetry is turned on.
 Leave Link  301 at Wed Dec 03 16:52:50 2025, MaxMem=   104857600 cpu:               0.0 elap:               0.1
 (Enter D:\Gaussian\G16W\l302.exe)
 NPDir=0 NMtPBC=     1 NCelOv=     1 NCel=       1 NClECP=     1 NCelD=      1
         NCelK=      1 NCelE2=     1 NClLst=     1 CellRange=     0.0.
 One-electron integrals computed using PRISM.
 One-electron integral symmetry used in STVInt
 NBasis=   134 RedAO= T EigKep=  4.89D-04  NBF=   134
 NBsUse=   134 1.00D-06 EigRej= -1.00D+00 NBFU=   134
 Precomputing XC quadrature grid using
 IXCGrd= 4 IRadAn=           5 IRanWt=          -1 IRanGd=           0 AccXCQ= 0.00D+00.
 Generated NRdTot=       0 NPtTot=           0 NUsed=           0 NTot=          32
 NSgBfM=   134   134   134   134   134 MxSgAt=    15 MxSgA2=    15.
 Leave Link  302 at Wed Dec 03 16:52:50 2025, MaxMem=   104857600 cpu:               0.0 elap:               0.2
 (Enter D:\Gaussian\G16W\l303.exe)
 DipDrv:  MaxL=1.
 Leave Link  303 at Wed Dec 03 16:52:50 2025, MaxMem=   104857600 cpu:               0.0 elap:               0.1
 (Enter D:\Gaussian\G16W\l401.exe)
 ExpMin= 1.61D-01 ExpMax= 5.48D+03 ExpMxC= 8.25D+02 IAcc=3 IRadAn=         5 AccDes= 0.00D+00
 Harris functional with IExCor=  402 and IRadAn=       5 diagonalized for initial guess.
 HarFok:  IExCor=  402 AccDes= 0.00D+00 IRadAn=         5 IDoV= 1 UseB2=F ITyADJ=14
 ICtDFT=  3500011 ScaDFX=  1.000000  1.000000  1.000000  1.000000
 FoFCou: FMM=F IPFlag=           0 FMFlag=      100000 FMFlg1=           0
         NFxFlg=           0 DoJE=T BraDBF=F KetDBF=T FulRan=T
         wScrn=  0.000000 ICntrl=       500 IOpCl=  0 I1Cent=   200000004 NGrid=           0
         NMat0=    1 NMatS0=      1 NMatT0=    0 NMatD0=    1 NMtDS0=    0 NMtDT0=    0
 Petite list used in FoFCou.
 Harris En= -346.162370590940    
 JPrj=0 DoOrth=F DoCkMO=F.
 Initial guess <Sx>= 0.0000 <Sy>= 0.0000 <Sz>= 0.5000 <S**2>= 0.7500 S= 0.5000
 Leave Link  401 at Wed Dec 03 16:52:51 2025, MaxMem=   104857600 cpu:               1.0 elap:               0.7
 (Enter D:\Gaussian\G16W\l502.exe)
 Keep R1 and R2 ints in memory in canonical form, NReq=85656813.
 FoFCou: FMM=F IPFlag=           0 FMFlag=           0 FMFlg1=           0
         NFxFlg=           0 DoJE=F BraDBF=F KetDBF=F FulRan=T
         wScrn=  0.000000 ICntrl=       600 IOpCl=  0 I1Cent=           0 NGrid=           0
         NMat0=    1 NMatS0=   9045 NMatT0=    0 NMatD0=    1 NMtDS0=    0 NMtDT0=    0
 Symmetry not used in FoFCou.
 Two-electron integral symmetry not used.
 UHF open shell SCF:
 Using DIIS extrapolation, IDIIS=  1040.
 NGot=   104857600 LenX=    22998193 LenY=    22979796
 Requested convergence on RMS density matrix=1.00D-07 within 128 cycles.
 Requested convergence on MAX density matrix=1.00D-05.
 Requested convergence on             energy=1.00D-05.
 No special actions if energy rises.
 Integral accuracy reduced to 1.0D-05 until final iterations.

 Cycle   1  Pass 0  IDiag  1:
 E= -345.953280581486    
 DIIS: error= 4.31D-02 at cycle   1 NSaved=   1.
 NSaved= 1 IEnMin= 1 EnMin= -345.953280581486     IErMin= 1 ErrMin= 4.31D-02
 ErrMax= 4.31D-02  0.00D+00 EMaxC= 1.00D-01 BMatC= 7.53D-01 BMatP= 7.53D-01
 IDIUse=3 WtCom= 5.69D-01 WtEn= 4.31D-01
 Coeff-Com:  0.100D+01
 Coeff-En:   0.100D+01
 Coeff:      0.100D+01
 Gap=     0.189 Goal=   None    Shift=    0.000
 Gap=     0.130 Goal=   None    Shift=    0.000
 GapD=    0.130 DampG=1.000 DampE=0.500 DampFc=0.5000 IDamp=-1.
 Damping current iteration by 5.00D-01
 RMSDP=8.09D-03 MaxDP=1.93D-01              OVMax= 3.21D-01

 Cycle   2  Pass 0  IDiag  1:
 E= -346.033266902566     Delta-E=       -0.079986321079 Rises=F Damp=T
 DIIS: error= 1.05D-02 at cycle   2 NSaved=   2.
 NSaved= 2 IEnMin= 2 EnMin= -346.033266902566     IErMin= 2 ErrMin= 1.05D-02
 ErrMax= 1.05D-02  0.00D+00 EMaxC= 1.00D-01 BMatC= 8.14D-02 BMatP= 7.53D-01
 IDIUse=3 WtCom= 8.95D-01 WtEn= 1.05D-01
 Coeff-Com:  0.118D+00 0.882D+00
 Coeff-En:   0.137D+00 0.863D+00
 Coeff:      0.120D+00 0.880D+00
 Gap=     0.271 Goal=   None    Shift=    0.000
 Gap=     0.130 Goal=   None    Shift=    0.000
 RMSDP=2.55D-03 MaxDP=6.61D-02 DE=-8.00D-02 OVMax= 2.20D-01

 Cycle   3  Pass 0  IDiag  1:
 E= -346.117534595441     Delta-E=       -0.084267692875 Rises=F Damp=F
 DIIS: error= 2.36D-02 at cycle   3 NSaved=   3.
 NSaved= 3 IEnMin= 3 EnMin= -346.117534595441     IErMin= 2 ErrMin= 1.05D-02
 ErrMax= 2.36D-02  0.00D+00 EMaxC= 1.00D-01 BMatC= 1.24D-01 BMatP= 8.14D-02
 IDIUse=2 WtCom= 0.00D+00 WtEn= 1.00D+00
 Coeff-En:   0.000D+00 0.000D+00 0.100D+01
 Coeff:      0.000D+00 0.000D+00 0.100D+01
 Gap=     0.189 Goal=   None    Shift=    0.000
 Gap=     0.157 Goal=   None    Shift=    0.000
 RMSDP=4.75D-03 MaxDP=1.51D-01 DE=-8.43D-02 OVMax= 3.17D-01

 Cycle   4  Pass 0  IDiag  1:
 E= -345.985236906601     Delta-E=        0.132297688840 Rises=F Damp=F
 DIIS: error= 5.04D-02 at cycle   4 NSaved=   4.
 NSaved= 4 IEnMin= 3 EnMin= -346.117534595441     IErMin= 2 ErrMin= 1.05D-02
 ErrMax= 5.04D-02  0.00D+00 EMaxC= 1.00D-01 BMatC= 7.34D-01 BMatP= 8.14D-02
 IDIUse=2 WtCom= 0.00D+00 WtEn= 1.00D+00
 Coeff-En:   0.000D+00 0.000D+00 0.796D+00 0.204D+00
 Coeff:      0.000D+00 0.000D+00 0.796D+00 0.204D+00
 Gap=     0.206 Goal=   None    Shift=    0.000
 Gap=     0.090 Goal=   None    Shift=    0.000
 RMSDP=2.74D-03 MaxDP=7.82D-02 DE= 1.32D-01 OVMax= 1.52D-01

 Cycle   5  Pass 0  IDiag  1:
 E= -346.133425091013     Delta-E=       -0.148188184412 Rises=F Damp=F
 DIIS: error= 1.40D-02 at cycle   5 NSaved=   5.
 NSaved= 5 IEnMin= 5 EnMin= -346.133425091013     IErMin= 2 ErrMin= 1.05D-02
 ErrMax= 1.40D-02  0.00D+00 EMaxC= 1.00D-01 BMatC= 5.89D-02 BMatP= 8.14D-02
 IDIUse=3 WtCom= 8.60D-01 WtEn= 1.40D-01
 Coeff-Com: -0.357D-02 0.119D-01 0.280D+00-0.129D+00 0.841D+00
 Coeff-En:   0.000D+00 0.000D+00 0.349D+00 0.000D+00 0.651D+00
 Coeff:     -0.307D-02 0.102D-01 0.289D+00-0.111D+00 0.814D+00
 Gap=     0.209 Goal=   None    Shift=    0.000
 Gap=     0.108 Goal=   None    Shift=    0.000
 RMSDP=9.18D-04 MaxDP=2.97D-02 DE=-1.48D-01 OVMax= 4.67D-02

 Cycle   6  Pass 0  IDiag  1:
 E= -346.146032373151     Delta-E=       -0.012607282138 Rises=F Damp=F
 DIIS: error= 9.36D-04 at cycle   6 NSaved=   6.
 NSaved= 6 IEnMin= 6 EnMin= -346.146032373151     IErMin= 6 ErrMin= 9.36D-04
 ErrMax= 9.36D-04  0.00D+00 EMaxC= 1.00D-01 BMatC= 2.59D-04 BMatP= 5.89D-02
 IDIUse=3 WtCom= 9.91D-01 WtEn= 9.36D-03
 Coeff-Com: -0.422D-02 0.606D-02 0.872D-01-0.820D-01 0.401D+00 0.592D+00
 Coeff-En:   0.000D+00 0.000D+00 0.000D+00 0.000D+00 0.000D+00 0.100D+01
 Coeff:     -0.418D-02 0.600D-02 0.863D-01-0.812D-01 0.397D+00 0.596D+00
 Gap=     0.209 Goal=   None    Shift=    0.000
 Gap=     0.109 Goal=   None    Shift=    0.000
 RMSDP=1.01D-04 MaxDP=3.46D-03 DE=-1.26D-02 OVMax= 8.43D-03

 Cycle   7  Pass 0  IDiag  1:
 E= -346.146138016854     Delta-E=       -0.000105643703 Rises=F Damp=F
 DIIS: error= 7.04D-04 at cycle   7 NSaved=   7.
 NSaved= 7 IEnMin= 7 EnMin= -346.146138016854     IErMin= 7 ErrMin= 7.04D-04
 ErrMax= 7.04D-04  0.00D+00 EMaxC= 1.00D-01 BMatC= 1.40D-04 BMatP= 2.59D-04
 IDIUse=3 WtCom= 9.93D-01 WtEn= 7.04D-03
 Coeff-Com:  0.141D-02-0.904D-02-0.797D-01 0.157D-01-0.191D+00 0.335D+00
 Coeff-Com:  0.928D+00
 Coeff-En:   0.000D+00 0.000D+00 0.000D+00 0.000D+00 0.000D+00 0.000D+00
 Coeff-En:   0.100D+01
 Coeff:      0.140D-02-0.897D-02-0.791D-01 0.156D-01-0.189D+00 0.332D+00
 Coeff:      0.928D+00
 Gap=     0.211 Goal=   None    Shift=    0.000
 Gap=     0.111 Goal=   None    Shift=    0.000
 RMSDP=9.83D-05 MaxDP=3.98D-03 DE=-1.06D-04 OVMax= 7.16D-03

 Cycle   8  Pass 0  IDiag  1:
 E= -346.146210994981     Delta-E=       -0.000072978126 Rises=F Damp=F
 DIIS: error= 2.34D-04 at cycle   8 NSaved=   8.
 NSaved= 8 IEnMin= 8 EnMin= -346.146210994981     IErMin= 8 ErrMin= 2.34D-04
 ErrMax= 2.34D-04  0.00D+00 EMaxC= 1.00D-01 BMatC= 2.66D-05 BMatP= 1.40D-04
 IDIUse=3 WtCom= 9.98D-01 WtEn= 2.34D-03
 Coeff-Com:  0.174D-02-0.718D-02-0.714D-01 0.296D-01-0.215D+00 0.481D-01
 Coeff-Com:  0.548D+00 0.666D+00
 Coeff-En:   0.000D+00 0.000D+00 0.000D+00 0.000D+00 0.000D+00 0.000D+00
 Coeff-En:   0.000D+00 0.100D+01
 Coeff:      0.173D-02-0.716D-02-0.712D-01 0.295D-01-0.214D+00 0.480D-01
 Coeff:      0.547D+00 0.667D+00
 Gap=     0.211 Goal=   None    Shift=    0.000
 Gap=     0.111 Goal=   None    Shift=    0.000
 RMSDP=4.00D-05 MaxDP=1.30D-03 DE=-7.30D-05 OVMax= 3.37D-03

 Cycle   9  Pass 0  IDiag  1:
 E= -346.146223565313     Delta-E=       -0.000012570333 Rises=F Damp=F
 DIIS: error= 1.13D-04 at cycle   9 NSaved=   9.
 NSaved= 9 IEnMin= 9 EnMin= -346.146223565313     IErMin= 9 ErrMin= 1.13D-04
 ErrMax= 1.13D-04  0.00D+00 EMaxC= 1.00D-01 BMatC= 4.21D-06 BMatP= 2.66D-05
 IDIUse=3 WtCom= 9.99D-01 WtEn= 1.13D-03
 Coeff-Com: -0.233D-03 0.806D-03-0.119D-01 0.547D-02-0.328D-01-0.348D-01
 Coeff-Com:  0.275D-01 0.230D+00 0.816D+00
 Coeff-En:   0.000D+00 0.000D+00 0.000D+00 0.000D+00 0.000D+00 0.000D+00
 Coeff-En:   0.000D+00 0.000D+00 0.100D+01
 Coeff:     -0.233D-03 0.805D-03-0.119D-01 0.547D-02-0.328D-01-0.348D-01
 Coeff:      0.275D-01 0.230D+00 0.816D+00
 Gap=     0.211 Goal=   None    Shift=    0.000
 Gap=     0.111 Goal=   None    Shift=    0.000
 RMSDP=1.21D-05 MaxDP=3.85D-04 DE=-1.26D-05 OVMax= 1.06D-03

 Cycle  10  Pass 0  IDiag  1:
 E= -346.146225084674     Delta-E=       -0.000001519361 Rises=F Damp=F
 DIIS: error= 2.78D-05 at cycle  10 NSaved=  10.
 NSaved=10 IEnMin=10 EnMin= -346.146225084674     IErMin=10 ErrMin= 2.78D-05
 ErrMax= 2.78D-05  0.00D+00 EMaxC= 1.00D-01 BMatC= 4.16D-07 BMatP= 4.21D-06
 IDIUse=1 WtCom= 1.00D+00 WtEn= 0.00D+00
 Coeff-Com: -0.229D-03 0.815D-03-0.120D-02 0.908D-03-0.261D-02-0.203D-01
 Coeff-Com: -0.153D-01 0.583D-01 0.356D+00 0.623D+00
 Coeff:     -0.229D-03 0.815D-03-0.120D-02 0.908D-03-0.261D-02-0.203D-01
 Coeff:     -0.153D-01 0.583D-01 0.356D+00 0.623D+00
 Gap=     0.211 Goal=   None    Shift=    0.000
 Gap=     0.111 Goal=   None    Shift=    0.000
 RMSDP=4.18D-06 MaxDP=1.44D-04 DE=-1.52D-06 OVMax= 2.90D-04

 Initial convergence to 1.0D-05 achieved.  Increase integral accuracy.
 Cycle  11  Pass 1  IDiag  1:
 E= -346.146234179443     Delta-E=       -0.000009094768 Rises=F Damp=F
 DIIS: error= 1.63D-05 at cycle   1 NSaved=   1.
 NSaved= 1 IEnMin= 1 EnMin= -346.146234179443     IErMin= 1 ErrMin= 1.63D-05
 ErrMax= 1.63D-05  0.00D+00 EMaxC= 1.00D-01 BMatC= 1.16D-07 BMatP= 1.16D-07
 IDIUse=1 WtCom= 1.00D+00 WtEn= 0.00D+00
 Coeff-Com:  0.100D+01
 Coeff:      0.100D+01
 Gap=     0.211 Goal=   None    Shift=    0.000
 Gap=     0.111 Goal=   None    Shift=    0.000
 RMSDP=4.18D-06 MaxDP=1.44D-04 DE=-9.09D-06 OVMax= 3.10D-04

 Cycle  12  Pass 1  IDiag  1:
 E= -346.146234195488     Delta-E=       -0.000000016046 Rises=F Damp=F
 DIIS: error= 1.99D-05 at cycle   2 NSaved=   2.
 NSaved= 2 IEnMin= 2 EnMin= -346.146234195488     IErMin= 1 ErrMin= 1.63D-05
 ErrMax= 1.99D-05  0.00D+00 EMaxC= 1.00D-01 BMatC= 2.16D-07 BMatP= 1.16D-07
 IDIUse=1 WtCom= 1.00D+00 WtEn= 0.00D+00
 Coeff-Com:  0.592D+00 0.408D+00
 Coeff:      0.592D+00 0.408D+00
 Gap=     0.211 Goal=   None    Shift=    0.000
 Gap=     0.111 Goal=   None    Shift=    0.000
 RMSDP=2.20D-06 MaxDP=5.17D-05 DE=-1.60D-08 OVMax= 1.38D-04

 Cycle  13  Pass 1  IDiag  1:
 E= -346.146234260083     Delta-E=       -0.000000064594 Rises=F Damp=F
 DIIS: error= 5.22D-06 at cycle   3 NSaved=   3.
 NSaved= 3 IEnMin= 3 EnMin= -346.146234260083     IErMin= 3 ErrMin= 5.22D-06
 ErrMax= 5.22D-06  0.00D+00 EMaxC= 1.00D-01 BMatC= 9.98D-09 BMatP= 1.16D-07
 IDIUse=1 WtCom= 1.00D+00 WtEn= 0.00D+00
 Coeff-Com: -0.199D+00 0.237D-02 0.120D+01
 Coeff:     -0.199D+00 0.237D-02 0.120D+01
 Gap=     0.211 Goal=   None    Shift=    0.000
 Gap=     0.111 Goal=   None    Shift=    0.000
 RMSDP=1.26D-06 MaxDP=5.13D-05 DE=-6.46D-08 OVMax= 1.33D-04

 Cycle  14  Pass 1  IDiag  1:
 E= -346.146234272243     Delta-E=       -0.000000012160 Rises=F Damp=F
 DIIS: error= 4.92D-06 at cycle   4 NSaved=   4.
 NSaved= 4 IEnMin= 4 EnMin= -346.146234272243     IErMin= 4 ErrMin= 4.92D-06
 ErrMax= 4.92D-06  0.00D+00 EMaxC= 1.00D-01 BMatC= 7.25D-09 BMatP= 9.98D-09
 IDIUse=1 WtCom= 1.00D+00 WtEn= 0.00D+00
 Coeff-Com: -0.266D+00-0.999D-01 0.766D+00 0.600D+00
 Coeff:     -0.266D+00-0.999D-01 0.766D+00 0.600D+00
 Gap=     0.211 Goal=   None    Shift=    0.000
 Gap=     0.111 Goal=   None    Shift=    0.000
 RMSDP=6.20D-07 MaxDP=2.77D-05 DE=-1.22D-08 OVMax= 5.73D-05

 Cycle  15  Pass 1  IDiag  1:
 E= -346.146234275866     Delta-E=       -0.000000003623 Rises=F Damp=F
 DIIS: error= 2.32D-06 at cycle   5 NSaved=   5.
 NSaved= 5 IEnMin= 5 EnMin= -346.146234275866     IErMin= 5 ErrMin= 2.32D-06
 ErrMax= 2.32D-06  0.00D+00 EMaxC= 1.00D-01 BMatC= 1.73D-09 BMatP= 7.25D-09
 IDIUse=1 WtCom= 1.00D+00 WtEn= 0.00D+00
 Coeff-Com: -0.108D+00-0.672D-01 0.126D+00 0.368D+00 0.681D+00
 Coeff:     -0.108D+00-0.672D-01 0.126D+00 0.368D+00 0.681D+00
 Gap=     0.211 Goal=   None    Shift=    0.000
 Gap=     0.111 Goal=   None    Shift=    0.000
 RMSDP=3.81D-07 MaxDP=1.29D-05 DE=-3.62D-09 OVMax= 2.89D-05

 Cycle  16  Pass 1  IDiag  1:
 E= -346.146234276667     Delta-E=       -0.000000000801 Rises=F Damp=F
 DIIS: error= 1.85D-06 at cycle   6 NSaved=   6.
 NSaved= 6 IEnMin= 6 EnMin= -346.146234276667     IErMin= 6 ErrMin= 1.85D-06
 ErrMax= 1.85D-06  0.00D+00 EMaxC= 1.00D-01 BMatC= 5.54D-10 BMatP= 1.73D-09
 IDIUse=1 WtCom= 1.00D+00 WtEn= 0.00D+00
 Coeff-Com:  0.109D-01-0.146D-01-0.153D+00 0.725D-01 0.469D+00 0.615D+00
 Coeff:      0.109D-01-0.146D-01-0.153D+00 0.725D-01 0.469D+00 0.615D+00
 Gap=     0.211 Goal=   None    Shift=    0.000
 Gap=     0.111 Goal=   None    Shift=    0.000
 RMSDP=1.59D-07 MaxDP=5.53D-06 DE=-8.01D-10 OVMax= 1.29D-05

 Cycle  17  Pass 1  IDiag  1:
 E= -346.146234276882     Delta-E=       -0.000000000215 Rises=F Damp=F
 DIIS: error= 2.75D-07 at cycle   7 NSaved=   7.
 NSaved= 7 IEnMin= 7 EnMin= -346.146234276882     IErMin= 7 ErrMin= 2.75D-07
 ErrMax= 2.75D-07  0.00D+00 EMaxC= 1.00D-01 BMatC= 3.21D-11 BMatP= 5.54D-10
 IDIUse=1 WtCom= 1.00D+00 WtEn= 0.00D+00
 Coeff-Com:  0.147D-01 0.176D-02-0.695D-01-0.132D-01 0.905D-01 0.224D+00
 Coeff-Com:  0.752D+00
 Coeff:      0.147D-01 0.176D-02-0.695D-01-0.132D-01 0.905D-01 0.224D+00
 Coeff:      0.752D+00
 Gap=     0.211 Goal=   None    Shift=    0.000
 Gap=     0.111 Goal=   None    Shift=    0.000
 RMSDP=4.77D-08 MaxDP=1.95D-06 DE=-2.15D-10 OVMax= 3.29D-06

 SCF Done:  E(UB3LYP) =  -346.146234277     A.U. after   17 cycles
            NFock= 17  Conv=0.48D-07     -V/T= 2.0093
 <Sx>= 0.0000 <Sy>= 0.0000 <Sz>= 0.5000 <S**2>= 0.7896 S= 0.5196
 <L.S>= 0.000000000000E+00
 KE= 3.429613618404D+02 PE=-1.467610475767D+03 EE= 4.468918219781D+02
 Annihilation of the first spin contaminant:
 S**2 before annihilation     0.7896,   after     0.7511
 Leave Link  502 at Wed Dec 03 16:53:12 2025, MaxMem=   104857600 cpu:              21.0 elap:              20.8
 (Enter D:\Gaussian\G16W\l601.exe)
 Copying SCF densities to generalized density rwf, IOpCl= 1 IROHF=0.

 **********************************************************************

            Population analysis using the SCF density.

 **********************************************************************

 Orbital symmetries:
 Alpha Orbitals:
       Occupied  (A) (A) (A) (A) (A) (A) (A) (A) (A) (A) (A) (A)
                 (A) (A) (A) (A) (A) (A) (A) (A) (A) (A) (A) (A)
                 (A) (A) (A) (A) (A)
       Virtual   (A) (A) (A) (A) (A) (A) (A) (A) (A) (A) (A) (A)
                 (A) (A) (A) (A) (A) (A) (A) (A) (A) (A) (A) (A)
                 (A) (A) (A) (A) (A) (A) (A) (A) (A) (A) (A) (A)
                 (A) (A) (A) (A) (A) (A) (A) (A) (A) (A) (A) (A)
                 (A) (A) (A) (A) (A) (A) (A) (A) (A) (A) (A) (A)
                 (A) (A) (A) (A) (A) (A) (A) (A) (A) (A) (A) (A)
                 (A) (A) (A) (A) (A) (A) (A) (A) (A) (A) (A) (A)
                 (A) (A) (A) (A) (A) (A) (A) (A) (A) (A) (A) (A)
                 (A) (A) (A) (A) (A) (A) (A) (A) (A)
 Beta  Orbitals:
       Occupied  (A) (A) (A) (A) (A) (A) (A) (A) (A) (A) (A) (A)
                 (A) (A) (A) (A) (A) (A) (A) (A) (A) (A) (A) (A)
                 (A) (A) (A) (A)
       Virtual   (A) (A) (A) (A) (A) (A) (A) (A) (A) (A) (A) (A)
                 (A) (A) (A) (A) (A) (A) (A) (A) (A) (A) (A) (A)
                 (A) (A) (A) (A) (A) (A) (A) (A) (A) (A) (A) (A)
                 (A) (A) (A) (A) (A) (A) (A) (A) (A) (A) (A) (A)
                 (A) (A) (A) (A) (A) (A) (A) (A) (A) (A) (A) (A)
                 (A) (A) (A) (A) (A) (A) (A) (A) (A) (A) (A) (A)
                 (A) (A) (A) (A) (A) (A) (A) (A) (A) (A) (A) (A)
                 (A) (A) (A) (A) (A) (A) (A) (A) (A) (A) (A) (A)
                 (A) (A) (A) (A) (A) (A) (A) (A) (A) (A)
 The electronic state is 2-A.
 Alpha  occ. eigenvalues --  -19.13705 -10.25345 -10.21980 -10.21551 -10.20808
 Alpha  occ. eigenvalues --  -10.20604 -10.20163 -10.19613  -1.02555  -0.86496
 Alpha  occ. eigenvalues --   -0.78588  -0.73746  -0.70246  -0.61359  -0.58246
 Alpha  occ. eigenvalues --   -0.51870  -0.48546  -0.46038  -0.43685  -0.42841
 Alpha  occ. eigenvalues --   -0.41970  -0.40927  -0.40339  -0.37302  -0.36285
 Alpha  occ. eigenvalues --   -0.34317  -0.27154  -0.25197  -0.22550
 Alpha virt. eigenvalues --   -0.01411  -0.00109   0.08805   0.11207   0.13192
 Alpha virt. eigenvalues --    0.13460   0.15091   0.17166   0.17879   0.18482
 Alpha virt. eigenvalues --    0.22507   0.25925   0.27109   0.30305   0.34225
 Alpha virt. eigenvalues --    0.37697   0.44004   0.48110   0.49709   0.52781
 Alpha virt. eigenvalues --    0.53268   0.53797   0.56035   0.57655   0.58471
 Alpha virt. eigenvalues --    0.59742   0.62314   0.64765   0.65344   0.65603
 Alpha virt. eigenvalues --    0.69854   0.71145   0.74177   0.75624   0.78838
 Alpha virt. eigenvalues --    0.81972   0.84078   0.84961   0.86986   0.88794
 Alpha virt. eigenvalues --    0.90773   0.91519   0.93628   0.95885   0.99418
 Alpha virt. eigenvalues --    0.99889   1.04479   1.05332   1.13056   1.14684
 Alpha virt. eigenvalues --    1.15270   1.22790   1.23881   1.34773   1.35779
 Alpha virt. eigenvalues --    1.36399   1.40159   1.44214   1.45365   1.46333
 Alpha virt. eigenvalues --    1.47418   1.65346   1.74248   1.77051   1.79618
 Alpha virt. eigenvalues --    1.84686   1.85298   1.87578   1.89361   1.91056
 Alpha virt. eigenvalues --    1.92337   1.95157   1.95673   1.99497   2.04735
 Alpha virt. eigenvalues --    2.11360   2.13482   2.14853   2.17058   2.22800
 Alpha virt. eigenvalues --    2.26629   2.31828   2.31839   2.36143   2.38288
 Alpha virt. eigenvalues --    2.53947   2.59361   2.59586   2.62053   2.70305
 Alpha virt. eigenvalues --    2.72695   2.76164   2.81621   2.87627   3.00066
 Alpha virt. eigenvalues --    3.15401   3.36094   3.94891   4.06343   4.10729
 Alpha virt. eigenvalues --    4.19424   4.23451   4.34760   4.46444   4.73880
  Beta  occ. eigenvalues --  -19.12615 -10.25506 -10.21755 -10.21421 -10.21012
  Beta  occ. eigenvalues --  -10.20173 -10.19788 -10.19600  -1.00537  -0.85881
  Beta  occ. eigenvalues --   -0.78379  -0.72619  -0.69614  -0.61037  -0.57910
  Beta  occ. eigenvalues --   -0.51465  -0.48313  -0.45743  -0.43429  -0.42607
  Beta  occ. eigenvalues --   -0.41274  -0.40228  -0.38409  -0.36971  -0.36071
  Beta  occ. eigenvalues --   -0.31029  -0.25964  -0.24122
  Beta virt. eigenvalues --   -0.12995  -0.00064   0.02222   0.08981   0.11182
  Beta virt. eigenvalues --    0.13255   0.14560   0.15419   0.17355   0.18022
  Beta virt. eigenvalues --    0.19093   0.22517   0.26260   0.27369   0.30437
  Beta virt. eigenvalues --    0.34439   0.38067   0.44159   0.48631   0.50558
  Beta virt. eigenvalues --    0.53034   0.53518   0.54130   0.56330   0.57890
  Beta virt. eigenvalues --    0.59760   0.60068   0.63479   0.65037   0.65977
  Beta virt. eigenvalues --    0.66109   0.70038   0.71196   0.74205   0.76168
  Beta virt. eigenvalues --    0.79417   0.82204   0.84342   0.85307   0.86972
  Beta virt. eigenvalues --    0.88935   0.90966   0.91780   0.93741   0.95996
  Beta virt. eigenvalues --    0.99592   1.03590   1.05095   1.05725   1.13396
  Beta virt. eigenvalues --    1.14951   1.15528   1.23624   1.24125   1.34975
  Beta virt. eigenvalues --    1.36137   1.36887   1.41058   1.44927   1.45671
  Beta virt. eigenvalues --    1.47199   1.48758   1.66007   1.74508   1.77420
  Beta virt. eigenvalues --    1.81972   1.85603   1.85783   1.88369   1.89607
  Beta virt. eigenvalues --    1.91478   1.93632   1.95901   1.97439   2.00063
  Beta virt. eigenvalues --    2.05102   2.11207   2.13909   2.15961   2.17812
  Beta virt. eigenvalues --    2.23270   2.27617   2.32047   2.32399   2.36455
  Beta virt. eigenvalues --    2.38498   2.54823   2.60194   2.60609   2.62890
  Beta virt. eigenvalues --    2.70855   2.72912   2.76400   2.82028   2.87799
  Beta virt. eigenvalues --    3.00713   3.15558   3.36281   3.95747   4.06795
  Beta virt. eigenvalues --    4.10986   4.20440   4.24045   4.34971   4.46690
  Beta virt. eigenvalues --    4.74230
          Condensed to atoms (all electrons):
               1          2          3          4          5          6
     1  C    4.941340   0.459706  -0.001363  -0.030234  -0.022330   0.491837
     2  C    0.459706   5.196818   0.413251  -0.108285  -0.020712  -0.034525
     3  C   -0.001363   0.413251   4.424507   0.391884  -0.000358  -0.037805
     4  C   -0.030234  -0.108285   0.391884   5.294106   0.471091  -0.037211
     5  C   -0.022330  -0.020712  -0.000358   0.471091   4.701032   0.501364
     6  C    0.491837  -0.034525  -0.037805  -0.037211   0.501364   5.020773
     7  H    0.356618  -0.032532   0.002742   0.000261   0.003474  -0.040823
     8  H   -0.042950   0.345261  -0.031001   0.007053   0.000026   0.004848
     9  H   -0.043194   0.004683   0.000455   0.005454  -0.047061   0.359260
    10  O    0.006078  -0.068194   0.450826  -0.062531   0.006150   0.000148
    11  H   -0.000354   0.007385  -0.034185   0.341352  -0.043634   0.006457
    12  C    0.006061   0.000047   0.004857  -0.040627   0.347723  -0.070066
    13  H   -0.000003   0.000030  -0.000137  -0.000080  -0.027097  -0.002251
    14  H   -0.000003   0.000030  -0.000137  -0.000081  -0.027098  -0.002251
    15  H   -0.000163   0.000003   0.000125  -0.002121  -0.029004   0.003860
               7          8          9         10         11         12
     1  C    0.356618  -0.042950  -0.043194   0.006078  -0.000354   0.006061
     2  C   -0.032532   0.345261   0.004683  -0.068194   0.007385   0.000047
     3  C    0.002742  -0.031001   0.000455   0.450826  -0.034185   0.004857
     4  C    0.000261   0.007053   0.005454  -0.062531   0.341352  -0.040627
     5  C    0.003474   0.000026  -0.047061   0.006150  -0.043634   0.347723
     6  C   -0.040823   0.004848   0.359260   0.000148   0.006457  -0.070066
     7  H    0.576417  -0.005764  -0.005117  -0.000074   0.000018  -0.000179
     8  H   -0.005764   0.568826  -0.000159   0.000967  -0.000144   0.000009
     9  H   -0.005117  -0.000159   0.588169   0.000002  -0.000154  -0.007360
    10  O   -0.000074   0.000967   0.000002   8.147175   0.001369  -0.000085
    11  H    0.000018  -0.000144  -0.000154   0.001369   0.580691  -0.010201
    12  C   -0.000179   0.000009  -0.007360  -0.000085  -0.010201   5.203166
    13  H    0.000000   0.000000   0.001997   0.000001   0.000159   0.365004
    14  H    0.000000   0.000000   0.001996   0.000001   0.000159   0.365005
    15  H    0.000002   0.000000   0.000035   0.000000   0.005967   0.366791
              13         14         15
     1  C   -0.000003  -0.000003  -0.000163
     2  C    0.000030   0.000030   0.000003
     3  C   -0.000137  -0.000137   0.000125
     4  C   -0.000080  -0.000081  -0.002121
     5  C   -0.027097  -0.027098  -0.029004
     6  C   -0.002251  -0.002251   0.003860
     7  H    0.000000   0.000000   0.000002
     8  H    0.000000   0.000000   0.000000
     9  H    0.001997   0.001996   0.000035
    10  O    0.000001   0.000001   0.000000
    11  H    0.000159   0.000159   0.005967
    12  C    0.365004   0.365005   0.366791
    13  H    0.552532  -0.031788  -0.026415
    14  H   -0.031788   0.552533  -0.026417
    15  H   -0.026415  -0.026417   0.540669
          Atomic-Atomic Spin Densities.
               1          2          3          4          5          6
     1  C   -0.175385  -0.009832  -0.000670  -0.000185  -0.000869   0.006084
     2  C   -0.009832   0.354150   0.021616   0.004959  -0.000339  -0.014935
     3  C   -0.000670   0.021616  -0.109975   0.022342  -0.000221  -0.002693
     4  C   -0.000185   0.004959   0.022342   0.311492  -0.013299  -0.014133
     5  C   -0.000869  -0.000339  -0.000221  -0.013299  -0.165556   0.002314
     6  C    0.006084  -0.014935  -0.002693  -0.014133   0.002314   0.455631
     7  H    0.001681  -0.000804   0.000028  -0.000014   0.000033  -0.000909
     8  H    0.000758   0.000472   0.000039  -0.000035  -0.000053   0.000041
     9  H    0.000427   0.000003  -0.000032   0.000017   0.000466  -0.000089
    10  O    0.000038  -0.010747  -0.044015  -0.009858   0.000036   0.000130
    11  H   -0.000043  -0.000040   0.000163   0.000906   0.000579   0.000037
    12  C    0.000042  -0.000001   0.000055  -0.000051   0.004469  -0.003139
    13  H   -0.000010   0.000000  -0.000007   0.000012   0.002620   0.000026
    14  H   -0.000010   0.000000  -0.000007   0.000012   0.002621   0.000026
    15  H   -0.000002   0.000001   0.000004  -0.000144   0.000426   0.000063
               7          8          9         10         11         12
     1  C    0.001681   0.000758   0.000427   0.000038  -0.000043   0.000042
     2  C   -0.000804   0.000472   0.000003  -0.010747  -0.000040  -0.000001
     3  C    0.000028   0.000039  -0.000032  -0.044015   0.000163   0.000055
     4  C   -0.000014  -0.000035   0.000017  -0.009858   0.000906  -0.000051
     5  C    0.000033  -0.000053   0.000466   0.000036   0.000579   0.004469
     6  C   -0.000909   0.000041  -0.000089   0.000130   0.000037  -0.003139
     7  H    0.005951   0.000119   0.000122   0.000001  -0.000001   0.000000
     8  H    0.000119  -0.017114   0.000004  -0.000139   0.000004   0.000000
     9  H    0.000122   0.000004  -0.021014   0.000000   0.000004   0.000108
    10  O    0.000001  -0.000139   0.000000   0.490907  -0.000197   0.000001
    11  H   -0.000001   0.000004   0.000004  -0.000197  -0.015308   0.000166
    12  C    0.000000   0.000000   0.000108   0.000001   0.000166   0.012109
    13  H    0.000000   0.000000  -0.000003   0.000000  -0.000001  -0.001328
    14  H    0.000000   0.000000  -0.000003   0.000000  -0.000001  -0.001328
    15  H    0.000000   0.000000  -0.000006   0.000000  -0.000102  -0.000394
              13         14         15
     1  C   -0.000010  -0.000010  -0.000002
     2  C    0.000000   0.000000   0.000001
     3  C   -0.000007  -0.000007   0.000004
     4  C    0.000012   0.000012  -0.000144
     5  C    0.002620   0.002621   0.000426
     6  C    0.000026   0.000026   0.000063
     7  H    0.000000   0.000000   0.000000
     8  H    0.000000   0.000000   0.000000
     9  H   -0.000003  -0.000003  -0.000006
    10  O    0.000000   0.000000   0.000000
    11  H   -0.000001  -0.000001  -0.000102
    12  C   -0.001328  -0.001328  -0.000394
    13  H   -0.008003   0.001812   0.000150
    14  H    0.001812  -0.008005   0.000150
    15  H    0.000150   0.000150  -0.000887
 Mulliken charges and spin densities:
               1          2
     1  C   -0.121047  -0.177974
     2  C   -0.162965   0.344506
     3  C    0.416340  -0.113373
     4  C   -0.230032   0.302021
     5  C    0.186433  -0.166773
     6  C   -0.163615   0.428456
     7  H    0.144958   0.006208
     8  H    0.153027  -0.015904
     9  H    0.140995  -0.019993
    10  O   -0.481832   0.426159
    11  H    0.145117  -0.013834
    12  C   -0.530145   0.010707
    13  H    0.168048  -0.004731
    14  H    0.168051  -0.004733
    15  H    0.166667  -0.000741
 Sum of Mulliken charges =   0.00000   1.00000
 Mulliken charges and spin densities with hydrogens summed into heavy atoms:
               1          2
     1  C    0.023911  -0.171766
     2  C   -0.009938   0.328601
     3  C    0.416340  -0.113373
     4  C   -0.084915   0.288188
     5  C    0.186433  -0.166773
     6  C   -0.022619   0.408462
    10  O   -0.481832   0.426159
    12  C   -0.027380   0.000502
 Electronic spatial extent (au):  <R**2>=            938.2557
 Charge=              0.0000 electrons
 Dipole moment (field-independent basis, Debye):
    X=              3.3409    Y=              2.1493    Z=              0.0000  Tot=              3.9725
 Quadrupole moment (field-independent basis, Debye-Ang):
   XX=            -48.6373   YY=            -43.8327   ZZ=            -47.6640
   XY=             -5.4809   XZ=              0.0000   YZ=              0.0000
 Traceless Quadrupole moment (field-independent basis, Debye-Ang):
   XX=             -1.9260   YY=              2.8786   ZZ=             -0.9527
   XY=             -5.4809   XZ=              0.0000   YZ=              0.0000
 Octapole moment (field-independent basis, Debye-Ang**2):
  XXX=             15.3767  YYY=              3.8751  ZZZ=              0.0005  XYY=              4.9814
  XXY=             14.0279  XXZ=              0.0001  XZZ=             -2.2424  YZZ=             -3.2928
  YYZ=             -0.0002  XYZ=             -0.0004
 Hexadecapole moment (field-independent basis, Debye-Ang**3):
 XXXX=           -781.8274 YYYY=           -381.2205 ZZZZ=            -53.3581 XXXY=            -23.6195
 XXXZ=             -0.0010 YYYX=             -4.7761 YYYZ=              0.0006 ZZZX=              0.0009
 ZZZY=             -0.0003 XXYY=           -201.8684 XXZZ=           -132.2002 YYZZ=            -82.2824
 XXYZ=             -0.0003 YYXZ=             -0.0006 ZZXY=              5.3431
 N-N= 3.316110576715D+02 E-N=-1.467610496721D+03  KE= 3.429613618404D+02
                          Isotropic Fermi Contact Couplings
        Atom                 a.u.       MegaHertz       Gauss      10(-4) cm-1
     1  C(13)             -0.02603     -29.25965     -10.44057      -9.75997
     2  C(13)              0.03367      37.85423      13.50733      12.62681
     3  C(13)             -0.02779     -31.24003     -11.14722     -10.42055
     4  C(13)              0.02925      32.88470      11.73408      10.96915
     5  C(13)             -0.02471     -27.77598      -9.91116      -9.26507
     6  C(13)              0.04564      51.31191      18.30937      17.11581
     7  H(1)               0.00197       8.82292       3.14824       2.94301
     8  H(1)              -0.00512     -22.90627      -8.17353      -7.64071
     9  H(1)              -0.00631     -28.18502     -10.05712      -9.40151
    10  O(17)              0.05289     -32.06350     -11.44105     -10.69523
    11  H(1)              -0.00444     -19.83441      -7.07741      -6.61605
    12  C(13)              0.00324       3.64456       1.30047       1.21569
    13  H(1)              -0.00235     -10.50701      -3.74916      -3.50476
    14  H(1)              -0.00235     -10.50968      -3.75012      -3.50565
    15  H(1)              -0.00028      -1.24808      -0.44535      -0.41631
 --------------------------------------------------------
       Center         ----  Spin Dipole Couplings  ----
                      3XX-RR        3YY-RR        3ZZ-RR
 --------------------------------------------------------
     1   Atom        0.075595      0.060829     -0.136424
     2   Atom       -0.166176     -0.165187      0.331362
     3   Atom        0.049190      0.037793     -0.086984
     4   Atom       -0.143987     -0.140624      0.284611
     5   Atom        0.062349      0.068605     -0.130954
     6   Atom       -0.208940     -0.213218      0.422158
     7   Atom        0.007555     -0.002125     -0.005430
     8   Atom        0.014312     -0.009257     -0.005055
     9   Atom        0.009276     -0.006440     -0.002835
    10   Atom       -0.799430     -0.800392      1.599822
    11   Atom       -0.013870      0.018765     -0.004895
    12   Atom        0.003164      0.000377     -0.003540
    13   Atom        0.002350     -0.000348     -0.002002
    14   Atom        0.002350     -0.000347     -0.002002
    15   Atom        0.002936     -0.000754     -0.002183
 --------------------------------------------------------
                        XY            XZ            YZ
 --------------------------------------------------------
     1   Atom        0.003348     -0.000004      0.000001
     2   Atom       -0.003306      0.000016     -0.000007
     3   Atom        0.023785     -0.000002      0.000002
     4   Atom       -0.003082      0.000001     -0.000014
     5   Atom        0.004448      0.000004     -0.000001
     6   Atom        0.007515      0.000014      0.000008
     7   Atom       -0.000085      0.000000      0.000000
     8   Atom       -0.017612     -0.000001      0.000001
     9   Atom        0.028885     -0.000001     -0.000001
    10   Atom        0.001943      0.000066     -0.000051
    11   Atom       -0.008107      0.000000      0.000001
    12   Atom       -0.002363      0.000000      0.000000
    13   Atom       -0.001888     -0.001068      0.000641
    14   Atom       -0.001887      0.001068     -0.000641
    15   Atom       -0.001634      0.000000      0.000000
 --------------------------------------------------------


 ---------------------------------------------------------------------------------
              Anisotropic Spin Dipole Couplings in Principal Axis System
 ---------------------------------------------------------------------------------

       Atom             a.u.   MegaHertz   Gauss  10(-4) cm-1        Axes

              Baa    -0.1364   -18.307    -6.532    -6.106  0.0000  0.0000  1.0000
     1 C(13)  Bbb     0.0601     8.066     2.878     2.690 -0.2112  0.9774  0.0000
              Bcc     0.0763    10.241     3.654     3.416  0.9774  0.2112  0.0000
 
              Baa    -0.1690   -22.681    -8.093    -7.566  0.7576  0.6527  0.0000
     2 C(13)  Bbb    -0.1623   -21.784    -7.773    -7.266 -0.6527  0.7576  0.0000
              Bcc     0.3314    44.466    15.866    14.832  0.0000  0.0000  1.0000
 
              Baa    -0.0870   -11.672    -4.165    -3.893  0.0000  0.0000  1.0000
     3 C(13)  Bbb     0.0190     2.554     0.911     0.852 -0.6193  0.7852  0.0000
              Bcc     0.0679     9.118     3.254     3.041  0.7852  0.6193  0.0000
 
              Baa    -0.1458   -19.567    -6.982    -6.527  0.8599  0.5104  0.0000
     4 C(13)  Bbb    -0.1388   -18.625    -6.646    -6.213 -0.5104  0.8599  0.0000
              Bcc     0.2846    38.192    13.628    12.740  0.0000  0.0000  1.0000
 
              Baa    -0.1310   -17.573    -6.270    -5.862  0.0000  0.0000  1.0000
     5 C(13)  Bbb     0.0600     8.057     2.875     2.687  0.8875 -0.4608  0.0000
              Bcc     0.0709     9.516     3.396     3.174  0.4608  0.8875  0.0000
 
              Baa    -0.2189   -29.373   -10.481    -9.798 -0.6026  0.7980  0.0000
     6 C(13)  Bbb    -0.2033   -27.276    -9.733    -9.098  0.7980  0.6026  0.0000
              Bcc     0.4222    56.650    20.214    18.896  0.0000  0.0000  1.0000
 
              Baa    -0.0054    -2.897    -1.034    -0.966  0.0000  0.0000  1.0000
     7 H(1)   Bbb    -0.0021    -1.134    -0.405    -0.378  0.0088  1.0000  0.0000
              Bcc     0.0076     4.031     1.438     1.345  1.0000 -0.0088  0.0000
 
              Baa    -0.0187    -9.958    -3.553    -3.322  0.4711  0.8821  0.0000
     8 H(1)   Bbb    -0.0051    -2.697    -0.962    -0.900  0.0000  0.0000  1.0000
              Bcc     0.0237    12.655     4.516     4.221  0.8821 -0.4711  0.0000
 
              Baa    -0.0285   -15.215    -5.429    -5.075 -0.6072  0.7945  0.0000
     9 H(1)   Bbb    -0.0028    -1.513    -0.540    -0.505  0.0000  0.0000  1.0000
              Bcc     0.0314    16.728     5.969     5.580  0.7945  0.6072  0.0000
 
              Baa    -0.8019    58.026    20.705    19.355 -0.6164  0.7875  0.0000
    10 O(17)  Bbb    -0.7979    57.736    20.602    19.259  0.7875  0.6164  0.0000
              Bcc     1.5998  -115.762   -41.307   -38.614  0.0000  0.0000  1.0000
 
              Baa    -0.0158    -8.416    -3.003    -2.807  0.9735  0.2285  0.0000
    11 H(1)   Bbb    -0.0049    -2.612    -0.932    -0.871  0.0000  0.0000  1.0000
              Bcc     0.0207    11.028     3.935     3.678 -0.2285  0.9735  0.0000
 
              Baa    -0.0035    -0.475    -0.170    -0.158  0.0000  0.0000  1.0000
    12 C(13)  Bbb    -0.0010    -0.131    -0.047    -0.044  0.4960  0.8683  0.0000
              Bcc     0.0045     0.606     0.216     0.202  0.8683 -0.4960  0.0000
 
              Baa    -0.0023    -1.219    -0.435    -0.407  0.1543 -0.1715  0.9730
    13 H(1)   Bbb    -0.0013    -0.700    -0.250    -0.234  0.4748  0.8765  0.0792
              Bcc     0.0036     1.919     0.685     0.640  0.8664 -0.4498 -0.2167
 
              Baa    -0.0023    -1.219    -0.435    -0.407 -0.1544  0.1715  0.9730
    14 H(1)   Bbb    -0.0013    -0.700    -0.250    -0.233  0.4749  0.8765 -0.0792
              Bcc     0.0036     1.919     0.685     0.640  0.8664 -0.4498  0.2168
 
              Baa    -0.0022    -1.165    -0.416    -0.388  0.0000  0.0000  1.0000
    15 H(1)   Bbb    -0.0014    -0.733    -0.261    -0.244  0.3545  0.9351  0.0000
              Bcc     0.0036     1.897     0.677     0.633  0.9351 -0.3545  0.0000
 

 ---------------------------------------------------------------------------------

 No NMR shielding tensors so no spin-rotation constants.
 Leave Link  601 at Wed Dec 03 16:53:12 2025, MaxMem=   104857600 cpu:               0.0 elap:               0.2
 (Enter D:\Gaussian\G16W\l9999.exe)
 1|1|UNPC-PC-20250526LCFF|SP|UB3LYP|6-31G(d)|C7H7O1(2)|ADMINISTRATOR|03
 -Dec-2025|0||#P B3LYP/6-31G* SCF=conver=7 out=wfn||Generated by Multiw
 fn (http://sobereva.com/multiwfn)||0,2|C,0,-0.32793069,1.76212803,0.00
 000107|C,0,-1.43642881,0.94810119,0.00001807|C,0,-1.28762902,-0.495414
 83,-0.00000093|C,0,0.06627991,-1.01990302,-0.00003493|C,0,1.16901602,-
 0.19655019,-0.00002393|C,0,0.96211623,1.20559484,-0.00002093|H,0,-0.44
 032954,2.84078804,0.00001007|H,0,-2.44586875,1.34147833,0.00006307|H,0
 ,1.82416032,1.86489272,-0.00005193|O,0,-2.28171513,-1.25527769,0.00000
 807|H,0,0.16358075,-2.10002704,-0.00005893|C,0,2.57478195,-0.74595539,
 0.00002807|H,0,3.128872,-0.40796647,-0.88100393|H,0,3.12871199,-0.4081
 4047,0.88123707|H,0,2.57336079,-1.83680739,-0.00005893||Version=EM64W-
 G16RevA.03|State=2-A|HF=-346.1462343|S2=0.789591|S2-1=0.|S2A=0.751085|
 RMSD=4.769e-008|Dipole=1.3144019,0.8455928,0.0000124|Quadrupole=-1.431
 9074,2.1402044,-0.708297,-4.0748872,0.0000013,0.000021|PG=C01 [X(C7H7O
 1)]||@

 Writing a WFN file to "N.wfn"


 MYSTERY IS THE WISDOM OF BLOCKHEADS... HORACE WALPOLE 
 Job cpu time:       0 days  0 hours  0 minutes 22.0 seconds.
 Elapsed time:       0 days  0 hours  0 minutes 22.5 seconds.
 File lengths (MBytes):  RWF=     15 Int=      0 D2E=      0 Chk=      2 Scr=      1
 Normal termination of Gaussian 16 at Wed Dec 03 16:53:12 2025.
