 Generated by Multiwfn (http://sobereva.com/multiwfn)
GAUSSIAN             57 MOL ORBITALS    252 PRIMITIVES       15 NUCLEI
  C    1    (CENTRE  1)  -0.61969920  3.32993937  0.00000202  CHARGE =  6.0
  C    2    (CENTRE  2)  -2.71445705  1.79165159  0.00003415  CHARGE =  6.0
  C    3    (CENTRE  3)  -2.43326620 -0.93619835 -0.00000176  CHARGE =  6.0
  C    4    (CENTRE  4)   0.12525088 -1.92733738 -0.00006601  CHARGE =  6.0
  C    5    (CENTRE  5)   2.20912011 -0.37142603 -0.00004522  CHARGE =  6.0
  C    6    (CENTRE  6)   1.81813617  2.27824407 -0.00003955  CHARGE =  6.0
  H    7    (CENTRE  7)  -0.83210224  5.36831137  0.00001903  CHARGE =  1.0
  H    8    (CENTRE  8)  -4.62202208  2.53502664  0.00011919  CHARGE =  1.0
  H    9    (CENTRE  9)   3.44716341  3.52413650 -0.00009813  CHARGE =  1.0
  O   10    (CENTRE 10)  -4.31181669 -2.37213105  0.00001525  CHARGE =  8.0
  H   11    (CENTRE 11)   0.30912282 -3.96847596 -0.00011136  CHARGE =  1.0
  C   12    (CENTRE 12)   4.86563271 -1.40965138  0.00005304  CHARGE =  6.0
  H   13    (CENTRE 13)   5.91271116 -0.77094489 -1.66485614  CHARGE =  1.0
  H   14    (CENTRE 14)   5.91240878 -0.77127370  1.66529671  CHARGE =  1.0
  H   15    (CENTRE 15)   4.86294711 -3.47106291 -0.00011136  CHARGE =  1.0
CENTRE ASSIGNMENTS    1  1  1  1  1  1  1  1  1  1  1  1  1  1  1  1  1  1  1  1
CENTRE ASSIGNMENTS    1  1  1  1  1  1  1  1  2  2  2  2  2  2  2  2  2  2  2  2
CENTRE ASSIGNMENTS    2  2  2  2  2  2  2  2  2  2  2  2  2  2  2  2  3  3  3  3
CENTRE ASSIGNMENTS    3  3  3  3  3  3  3  3  3  3  3  3  3  3  3  3  3  3  3  3
CENTRE ASSIGNMENTS    3  3  3  3  4  4  4  4  4  4  4  4  4  4  4  4  4  4  4  4
CENTRE ASSIGNMENTS    4  4  4  4  4  4  4  4  4  4  4  4  5  5  5  5  5  5  5  5
CENTRE ASSIGNMENTS    5  5  5  5  5  5  5  5  5  5  5  5  5  5  5  5  5  5  5  5
CENTRE ASSIGNMENTS    6  6  6  6  6  6  6  6  6  6  6  6  6  6  6  6  6  6  6  6
CENTRE ASSIGNMENTS    6  6  6  6  6  6  6  6  7  7  7  7  8  8  8  8  9  9  9  9
CENTRE ASSIGNMENTS   10 10 10 10 10 10 10 10 10 10 10 10 10 10 10 10 10 10 10 10
CENTRE ASSIGNMENTS   10 10 10 10 10 10 10 10 11 11 11 11 12 12 12 12 12 12 12 12
CENTRE ASSIGNMENTS   12 12 12 12 12 12 12 12 12 12 12 12 12 12 12 12 12 12 12 12
CENTRE ASSIGNMENTS   13 13 13 13 14 14 14 14 15 15 15 15
TYPE ASSIGNMENTS      1  1  1  1  1  1  1  1  1  2  2  2  3  3  3  4  4  4  1  2
TYPE ASSIGNMENTS      3  4  5  6  7  8  9 10  1  1  1  1  1  1  1  1  1  2  2  2
TYPE ASSIGNMENTS      3  3  3  4  4  4  1  2  3  4  5  6  7  8  9 10  1  1  1  1
TYPE ASSIGNMENTS      1  1  1  1  1  2  2  2  3  3  3  4  4  4  1  2  3  4  5  6
TYPE ASSIGNMENTS      7  8  9 10  1  1  1  1  1  1  1  1  1  2  2  2  3  3  3  4
TYPE ASSIGNMENTS      4  4  1  2  3  4  5  6  7  8  9 10  1  1  1  1  1  1  1  1
TYPE ASSIGNMENTS      1  2  2  2  3  3  3  4  4  4  1  2  3  4  5  6  7  8  9 10
TYPE ASSIGNMENTS      1  1  1  1  1  1  1  1  1  2  2  2  3  3  3  4  4  4  1  2
TYPE ASSIGNMENTS      3  4  5  6  7  8  9 10  1  1  1  1  1  1  1  1  1  1  1  1
TYPE ASSIGNMENTS      1  1  1  1  1  1  1  1  1  2  2  2  3  3  3  4  4  4  1  2
TYPE ASSIGNMENTS      3  4  5  6  7  8  9 10  1  1  1  1  1  1  1  1  1  1  1  1
TYPE ASSIGNMENTS      1  2  2  2  3  3  3  4  4  4  1  2  3  4  5  6  7  8  9 10
TYPE ASSIGNMENTS      1  1  1  1  1  1  1  1  1  1  1  1
EXPONENTS  0.3047525D+04 0.4573695D+03 0.1039487D+03 0.2921016D+02 0.9286663D+01
EXPONENTS  0.3163927D+01 0.7868272D+01 0.1881289D+01 0.5442493D+00 0.7868272D+01
EXPONENTS  0.1881289D+01 0.5442493D+00 0.7868272D+01 0.1881289D+01 0.5442493D+00
EXPONENTS  0.7868272D+01 0.1881289D+01 0.5442493D+00 0.1687145D+00 0.1687145D+00
EXPONENTS  0.1687145D+00 0.1687145D+00 0.8000000D+00 0.8000000D+00 0.8000000D+00
EXPONENTS  0.8000000D+00 0.8000000D+00 0.8000000D+00 0.3047525D+04 0.4573695D+03
EXPONENTS  0.1039487D+03 0.2921016D+02 0.9286663D+01 0.3163927D+01 0.7868272D+01
EXPONENTS  0.1881289D+01 0.5442493D+00 0.7868272D+01 0.1881289D+01 0.5442493D+00
EXPONENTS  0.7868272D+01 0.1881289D+01 0.5442493D+00 0.7868272D+01 0.1881289D+01
EXPONENTS  0.5442493D+00 0.1687145D+00 0.1687145D+00 0.1687145D+00 0.1687145D+00
EXPONENTS  0.8000000D+00 0.8000000D+00 0.8000000D+00 0.8000000D+00 0.8000000D+00
EXPONENTS  0.8000000D+00 0.3047525D+04 0.4573695D+03 0.1039487D+03 0.2921016D+02
EXPONENTS  0.9286663D+01 0.3163927D+01 0.7868272D+01 0.1881289D+01 0.5442493D+00
EXPONENTS  0.7868272D+01 0.1881289D+01 0.5442493D+00 0.7868272D+01 0.1881289D+01
EXPONENTS  0.5442493D+00 0.7868272D+01 0.1881289D+01 0.5442493D+00 0.1687145D+00
EXPONENTS  0.1687145D+00 0.1687145D+00 0.1687145D+00 0.8000000D+00 0.8000000D+00
EXPONENTS  0.8000000D+00 0.8000000D+00 0.8000000D+00 0.8000000D+00 0.3047525D+04
EXPONENTS  0.4573695D+03 0.1039487D+03 0.2921016D+02 0.9286663D+01 0.3163927D+01
EXPONENTS  0.7868272D+01 0.1881289D+01 0.5442493D+00 0.7868272D+01 0.1881289D+01
EXPONENTS  0.5442493D+00 0.7868272D+01 0.1881289D+01 0.5442493D+00 0.7868272D+01
EXPONENTS  0.1881289D+01 0.5442493D+00 0.1687145D+00 0.1687145D+00 0.1687145D+00
EXPONENTS  0.1687145D+00 0.8000000D+00 0.8000000D+00 0.8000000D+00 0.8000000D+00
EXPONENTS  0.8000000D+00 0.8000000D+00 0.3047525D+04 0.4573695D+03 0.1039487D+03
EXPONENTS  0.2921016D+02 0.9286663D+01 0.3163927D+01 0.7868272D+01 0.1881289D+01
EXPONENTS  0.5442493D+00 0.7868272D+01 0.1881289D+01 0.5442493D+00 0.7868272D+01
EXPONENTS  0.1881289D+01 0.5442493D+00 0.7868272D+01 0.1881289D+01 0.5442493D+00
EXPONENTS  0.1687145D+00 0.1687145D+00 0.1687145D+00 0.1687145D+00 0.8000000D+00
EXPONENTS  0.8000000D+00 0.8000000D+00 0.8000000D+00 0.8000000D+00 0.8000000D+00
EXPONENTS  0.3047525D+04 0.4573695D+03 0.1039487D+03 0.2921016D+02 0.9286663D+01
EXPONENTS  0.3163927D+01 0.7868272D+01 0.1881289D+01 0.5442493D+00 0.7868272D+01
EXPONENTS  0.1881289D+01 0.5442493D+00 0.7868272D+01 0.1881289D+01 0.5442493D+00
EXPONENTS  0.7868272D+01 0.1881289D+01 0.5442493D+00 0.1687145D+00 0.1687145D+00
EXPONENTS  0.1687145D+00 0.1687145D+00 0.8000000D+00 0.8000000D+00 0.8000000D+00
EXPONENTS  0.8000000D+00 0.8000000D+00 0.8000000D+00 0.1873114D+02 0.2825394D+01
EXPONENTS  0.6401217D+00 0.1612778D+00 0.1873114D+02 0.2825394D+01 0.6401217D+00
EXPONENTS  0.1612778D+00 0.1873114D+02 0.2825394D+01 0.6401217D+00 0.1612778D+00
EXPONENTS  0.5484672D+04 0.8252349D+03 0.1880470D+03 0.5296450D+02 0.1689757D+02
EXPONENTS  0.5799635D+01 0.1553962D+02 0.3599934D+01 0.1013762D+01 0.1553962D+02
EXPONENTS  0.3599934D+01 0.1013762D+01 0.1553962D+02 0.3599934D+01 0.1013762D+01
EXPONENTS  0.1553962D+02 0.3599934D+01 0.1013762D+01 0.2700058D+00 0.2700058D+00
EXPONENTS  0.2700058D+00 0.2700058D+00 0.8000000D+00 0.8000000D+00 0.8000000D+00
EXPONENTS  0.8000000D+00 0.8000000D+00 0.8000000D+00 0.1873114D+02 0.2825394D+01
EXPONENTS  0.6401217D+00 0.1612778D+00 0.3047525D+04 0.4573695D+03 0.1039487D+03
EXPONENTS  0.2921016D+02 0.9286663D+01 0.3163927D+01 0.7868272D+01 0.1881289D+01
EXPONENTS  0.5442493D+00 0.7868272D+01 0.1881289D+01 0.5442493D+00 0.7868272D+01
EXPONENTS  0.1881289D+01 0.5442493D+00 0.7868272D+01 0.1881289D+01 0.5442493D+00
EXPONENTS  0.1687145D+00 0.1687145D+00 0.1687145D+00 0.1687145D+00 0.8000000D+00
EXPONENTS  0.8000000D+00 0.8000000D+00 0.8000000D+00 0.8000000D+00 0.8000000D+00
EXPONENTS  0.1873114D+02 0.2825394D+01 0.6401217D+00 0.1612778D+00 0.1873114D+02
EXPONENTS  0.2825394D+01 0.6401217D+00 0.1612778D+00 0.1873114D+02 0.2825394D+01
EXPONENTS  0.6401217D+00 0.1612778D+00
MO    1     MO 0.0        OCC NO =    1.0000000  ORB. ENERGY =  -19.137045
 -0.19849401D-06 -0.36618269D-06 -0.59113240D-06 -0.76947874D-06 -0.65659761D-06
 -0.22670737D-06  0.12667382D-04  0.58383850D-05 -0.16371441D-04 -0.86318945D-04
 -0.66183892D-04 -0.33030401D-04 -0.10429831D-03 -0.79969327D-04 -0.39910299D-04
  0.24950071D-08  0.19130132D-08  0.95472767D-09  0.47430283D-03 -0.15539712D-04
 -0.16818018D-03 -0.93384432D-09  0.69180345D-04 -0.12669472D-07  0.25791141D-04
  0.30963449D-04  0.51852977D-09 -0.13638155D-08  0.14778288D-04  0.27263055D-04
  0.44011025D-04  0.57289277D-04  0.48885044D-04  0.16878831D-04 -0.92718666D-04
 -0.42733948D-04  0.11983045D-03  0.62975738D-04  0.48285802D-04  0.24097999D-04
  0.47905205D-04  0.36730673D-04  0.18331180D-04 -0.32987947D-08 -0.25293066D-08
 -0.12623012D-08 -0.59263443D-03 -0.43039452D-03  0.10873285D-03  0.12396853D-07
 -0.59658191D-04 -0.82364868D-04  0.62125409D-04 -0.47264742D-04  0.30073455D-09
  0.24646753D-09 -0.39766519D-04 -0.73361463D-04 -0.11842815D-03 -0.15415826D-03
 -0.13154352D-03 -0.45418817D-04 -0.92869418D-04 -0.42803430D-04  0.12002528D-03
 -0.19245914D-03 -0.14756546D-03 -0.73645508D-04 -0.14970378D-03 -0.11478337D-03
 -0.57284944D-04  0.24306126D-08  0.18636396D-08  0.93008677D-09 -0.16788584D-03
  0.86720456D-03  0.67064687D-03 -0.89739809D-08 -0.62565042D-03 -0.40016099D-03
 -0.18737190D-03 -0.84231275D-03  0.62290754D-08  0.75096413D-08  0.15836666D-04
  0.29215556D-04  0.47162965D-04  0.61392167D-04  0.52386048D-04  0.18087643D-04
 -0.98592664D-04 -0.45441269D-04  0.12742206D-03  0.51206055D-04  0.39261555D-04
  0.19594268D-04  0.51078820D-04  0.39163999D-04  0.19545581D-04 -0.30675394D-09
 -0.23519947D-09 -0.11738102D-09 -0.62900446D-03 -0.38598416D-04 -0.44817665D-03
 -0.83561772D-08 -0.10613567D-03 -0.45711191D-04  0.66415963D-04 -0.35711570D-04
  0.16743800D-08 -0.74691258D-08 -0.33256459D-05 -0.61351674D-05 -0.99040624D-05
 -0.12892146D-04 -0.11000892D-04 -0.37983436D-05  0.28164791D-04  0.12981126D-04
 -0.36400433D-04 -0.12297864D-03 -0.94292225D-04 -0.47058429D-04 -0.37334269D-04
 -0.28625549D-04 -0.14286155D-04  0.82454407D-09  0.63220810D-09  0.31551615D-09
  0.52618151D-03 -0.16885383D-03 -0.12601301D-04 -0.97934621D-09  0.41838164D-04
  0.44000880D-04  0.11700125D-04  0.55513129D-04  0.83372547D-08 -0.16973281D-08
  0.13522865D-04  0.24947046D-04  0.40272267D-04  0.52422526D-04  0.44732236D-04
  0.15444966D-04 -0.50291738D-04 -0.23179416D-04  0.64997502D-04 -0.50907436D-04
 -0.39032593D-04 -0.19479999D-04 -0.41014601D-04 -0.31447394D-04 -0.15694454D-04
  0.24024390D-08  0.18420379D-08  0.91930600D-09 -0.27767074D-03  0.14191848D-03
  0.92241009D-04 -0.26904776D-08  0.38323804D-05 -0.74355259D-05  0.68758751D-04
  0.66038770D-04  0.28962887D-08 -0.19077744D-08  0.28750446D-05  0.48766198D-05
  0.55518592D-05  0.25361074D-04 -0.22619202D-04 -0.38366448D-04 -0.43678845D-04
 -0.17079402D-03 -0.98773060D-05 -0.16753780D-04 -0.19073587D-04 -0.55276115D-04
  0.82554040D+00  0.15194350D+01  0.24587327D+01  0.32320730D+01  0.27721302D+01
  0.94783839D+00 -0.15753915D-01 -0.70293660D-02  0.20757812D-01  0.25794967D-02
  0.19873632D-02  0.87255947D-03  0.19669833D-02  0.15154546D-02  0.66536620D-03
 -0.24920662D-07 -0.19200027D-07 -0.84298458D-08  0.45237054D-02  0.50216765D-03
  0.38440367D-03 -0.34726026D-08 -0.92100092D-02 -0.93575041D-02 -0.93991283D-02
  0.54649020D-03  0.33112143D-08 -0.10906178D-07 -0.21225818D-04 -0.36003005D-04
 -0.40988149D-04 -0.16807032D-03  0.76042813D-05  0.14028414D-04  0.22646210D-04
  0.29478637D-04  0.25154174D-04  0.86851318D-05 -0.26070505D-04 -0.12015872D-04
  0.33693759D-04  0.32311670D-06  0.24774539D-06  0.12364231D-06 -0.17770923D-05
 -0.13625617D-05 -0.68001377D-06 -0.32509541D-08 -0.24926254D-08 -0.12439948D-08
 -0.36047273D-04  0.17111076D-04  0.89650825D-05  0.90544773D-09 -0.80059702D-05
  0.27875449D-04  0.32520892D-04  0.57941296D-05 -0.16867097D-08 -0.29224278D-08
  0.25837041D-05  0.43824511D-05  0.49892657D-05  0.16038549D-05  0.25837951D-05
  0.43826056D-05  0.49894416D-05  0.16040970D-05  0.37529326D-05  0.63656841D-05
  0.72471063D-05  0.11764762D-04
MO    2     MO 0.0        OCC NO =    1.0000000  ORB. ENERGY =  -10.253450
  0.38275125D-04  0.70610131D-04  0.11398665D-03  0.14837674D-03  0.12661014D-03
  0.43715440D-04 -0.80187721D-04 -0.36958447D-04  0.10363534D-03  0.12439936D-03
  0.95381538D-04  0.47602072D-04  0.17135653D-03  0.13138532D-03  0.65570480D-04
 -0.41103515D-08 -0.31515568D-08 -0.15728477D-08 -0.14521926D-02 -0.37991471D-05
  0.59825395D-03  0.38395265D-08  0.22131922D-04  0.41830029D-04  0.24624242D-04
  0.26251440D-04 -0.64205404D-08  0.15298877D-08  0.19576865D-02  0.36115493D-02
  0.58301604D-02  0.75891365D-02  0.64758239D-02  0.22359464D-02  0.21064933D-03
  0.97088083D-04 -0.27224512D-03 -0.19651698D-03 -0.15067675D-03 -0.75198260D-04
  0.29607844D-03  0.22701417D-03  0.11329598D-03  0.11405050D-07  0.87446690D-08
  0.43642027D-08  0.22449916D-02  0.10163648D-02 -0.49813506D-03 -0.31446963D-07
 -0.22221418D-03 -0.63008940D-03 -0.37105601D-03 -0.11137803D-03 -0.35930750D-09
 -0.66807276D-08  0.53260665D+00  0.98255526D+00  0.15861489D+01  0.20646945D+01
  0.17618076D+01  0.60830982D+00 -0.19784204D-01 -0.91185215D-02  0.25569286D-01
 -0.60360984D-03 -0.46280974D-03 -0.23097450D-03 -0.44268603D-03 -0.33942357D-03
 -0.16939615D-03  0.36004272D-08  0.27605792D-08  0.13777225D-08 -0.31253541D-02
 -0.15351393D-02 -0.11845106D-02  0.18264564D-07 -0.93942328D-02 -0.96633052D-02
 -0.10354197D-01  0.10434687D-02 -0.23505791D-07  0.42616241D-08  0.17605861D-02
  0.32479375D-02  0.52431782D-02  0.68250601D-02  0.58238362D-02  0.20108307D-02
  0.23714623D-03  0.10930048D-03 -0.30648995D-03  0.27250933D-03  0.20894287D-03
  0.10427714D-03 -0.26610994D-03 -0.20403622D-03 -0.10182837D-03 -0.81598701D-08
 -0.62564708D-08 -0.31224174D-08  0.23922307D-02 -0.13793960D-03  0.11359075D-02
  0.24694171D-07 -0.59519982D-03 -0.22672816D-03 -0.38371270D-03  0.13329036D-03
  0.18617297D-07  0.14125262D-07  0.50607778D-04  0.93361469D-04  0.15071436D-03
  0.19618531D-03  0.16740528D-03  0.57801022D-04 -0.11359812D-03 -0.52357269D-04
  0.14681525D-03  0.15371114D-03  0.11785595D-03  0.58818379D-04  0.23775069D-04
  0.18229215D-04  0.90976558D-05 -0.88605283D-08 -0.67936911D-08 -0.33905280D-08
 -0.15421192D-02  0.63868158D-03 -0.43249694D-04  0.40295601D-08 -0.16598783D-04
  0.36526011D-04  0.50061219D-04  0.20107110D-04 -0.13674437D-07  0.10060674D-07
 -0.10382687D-03 -0.19154031D-03 -0.30920544D-03 -0.40249361D-03 -0.34344853D-03
 -0.11858452D-03  0.14568087D-03  0.67144181D-04 -0.18827929D-03  0.10333690D-03
  0.79232183D-04  0.39542413D-04  0.81052016D-04  0.62145545D-04  0.31014983D-04
 -0.70421014D-08 -0.53994367D-08 -0.26946973D-08  0.98904746D-03 -0.47803153D-03
 -0.30427404D-03  0.82445479D-08 -0.24721519D-04 -0.11905494D-04 -0.16268092D-03
 -0.78634197D-04 -0.72096480D-08  0.70937301D-08 -0.14272781D-04 -0.24209338D-04
 -0.27561475D-04 -0.12067215D-03  0.42325947D-04  0.71792817D-04  0.81733585D-04
  0.33877289D-03  0.28888117D-04  0.48999714D-04  0.55784442D-04  0.17545701D-03
  0.99270035D-04  0.18270986D-03  0.29565904D-03  0.38865208D-03  0.33334463D-03
  0.11397619D-03 -0.80771438D-03 -0.36040058D-03  0.10642677D-02 -0.14248711D-03
 -0.10977864D-03 -0.48198735D-04 -0.92726997D-04 -0.71441152D-04 -0.31366514D-04
  0.96205684D-08  0.74121293D-08  0.32543240D-08 -0.23785185D-02 -0.71678488D-03
 -0.55297359D-03  0.30131068D-08  0.37377315D-03  0.61898539D-03  0.10978319D-02
 -0.92307237D-03  0.11574913D-07  0.33433336D-08  0.40247022D-04  0.68266566D-04
  0.77719073D-04  0.32964814D-03 -0.23475112D-04 -0.43306998D-04 -0.69910923D-04
 -0.91003249D-04 -0.77653238D-04 -0.26811797D-04  0.53424271D-04  0.24623198D-04
 -0.69046016D-04  0.26845462D-04  0.20583397D-04  0.10272558D-04 -0.13974638D-04
 -0.10714866D-04 -0.53474690D-05  0.10487686D-07  0.80412924D-08  0.40131685D-08
 -0.45387229D-04 -0.13902105D-04 -0.39557872D-04  0.42903794D-09  0.33802768D-04
 -0.67082585D-04 -0.69882336D-04  0.17131098D-04  0.38261805D-08  0.11859484D-07
 -0.32358981D-05 -0.54886957D-05 -0.62486860D-05  0.19582398D-05 -0.32370762D-05
 -0.54906939D-05 -0.62509609D-05  0.19569220D-05 -0.85992023D-05 -0.14585875D-04
 -0.16605503D-04 -0.14190195D-04
MO    3     MO 0.0        OCC NO =    1.0000000  ORB. ENERGY =  -10.219803
  0.11487748D-01  0.21192651D-01  0.34211510D-01  0.44533221D-01  0.38000278D-01
  0.13120583D-01 -0.16161624D-03 -0.74488778D-04  0.20887431D-03 -0.32677621D-03
 -0.25055127D-03 -0.12504264D-03  0.23036490D-03  0.17662920D-03  0.88150348D-04
  0.63750298D-08  0.48879685D-08  0.24394389D-08  0.16243463D-02  0.27361806D-03
 -0.63089829D-03 -0.75604353D-08 -0.69490183D-03 -0.45059033D-03 -0.48732551D-03
  0.92321588D-04  0.69533921D-08  0.69845575D-09  0.22010713D-03  0.40605467D-03
  0.65549815D-03  0.85326382D-03  0.72809156D-03  0.25139252D-03 -0.41671364D-04
 -0.19206294D-04  0.53856452D-04 -0.67043117D-04 -0.51404410D-04 -0.25654403D-04
 -0.35158920D-04 -0.26957630D-04 -0.13453747D-04  0.70005540D-09  0.53675808D-09
  0.26787990D-09 -0.77681477D-03 -0.35408149D-03  0.12146531D-03  0.98061852D-08
  0.73442434D-04  0.31995708D-04  0.18415484D-04  0.30221163D-04 -0.29763470D-08
 -0.19774689D-08  0.31397882D-04  0.57922961D-04  0.93505619D-04  0.12171653D-03
  0.10386094D-03  0.35860686D-04  0.11106487D-03  0.51189696D-04 -0.14354125D-03
 -0.26888789D-04 -0.20616618D-04 -0.10289137D-04 -0.15903905D-04 -0.12194106D-04
 -0.60857135D-05  0.15842077D-08  0.12146700D-08  0.60620546D-09  0.61543510D-03
  0.30523675D-03  0.22554448D-03 -0.42464906D-08 -0.34924856D-04 -0.27009939D-04
 -0.11794549D-03 -0.28188064D-04 -0.29557437D-08 -0.28762097D-09  0.47892482D-03
  0.88352277D-03  0.14262797D-02  0.18565924D-02  0.15842336D-02  0.54699781D-03
 -0.29679442D-04 -0.13679228D-04  0.38357983D-04 -0.51821858D-04 -0.39733714D-04
 -0.19829908D-04 -0.60970320D-04 -0.46748175D-04 -0.23330615D-04  0.53262869D-08
  0.40838590D-08  0.20381318D-08 -0.67542074D-03  0.76168332D-04 -0.37196391D-03
 -0.86857569D-08  0.44794599D-04  0.33487940D-04 -0.44297345D-05  0.39698525D-04
  0.73948566D-08 -0.64984717D-08  0.29172092D-01  0.53816813D-01  0.86877023D-01
  0.11308807D+00  0.96498255D-01  0.33318529D-01 -0.84076451D-03 -0.38750760D-03
  0.10866117D-02  0.16802118D-03  0.12882798D-03  0.64294193D-04 -0.42812193D-03
 -0.32825674D-03 -0.16382312D-03  0.52489098D-08  0.40245311D-08  0.20085231D-08
  0.14269471D-02 -0.58879336D-03  0.57420106D-03 -0.27827386D-08 -0.80197490D-03
 -0.10017080D-02 -0.80859847D-03 -0.28143023D-04  0.20277745D-08  0.45068252D-08
  0.53150091D+00  0.98051540D+00  0.15828559D+01  0.20604080D+01  0.17581499D+01
  0.60704692D+00 -0.20125684D-01 -0.92759092D-02  0.26010618D-01 -0.24237813D-03
 -0.18584017D-03 -0.92747271D-04 -0.12126985D-03 -0.92982025D-04 -0.46404547D-04
 -0.12025281D-08 -0.92202226D-09 -0.46015373D-09 -0.36117194D-02  0.59326759D-03
  0.48938572D-03 -0.66268121D-08 -0.10639702D-01 -0.10673620D-01 -0.10613383D-01
 -0.14332106D-03 -0.64278921D-08 -0.31668469D-08  0.70576341D-05  0.11971083D-04
  0.13628655D-04  0.16656346D-03 -0.17244257D-04 -0.29249523D-04 -0.33299548D-04
 -0.80420574D-04 -0.94741339D-04 -0.16069924D-03 -0.18295041D-03  0.14952763D-03
 -0.29977740D-04 -0.55175044D-04 -0.89283637D-04 -0.11736584D-03 -0.10066400D-03
 -0.34418731D-04  0.98294053D-04  0.43858615D-04 -0.12951508D-03 -0.12081208D-04
 -0.93079197D-05 -0.40866781D-05  0.26051456D-05  0.20071242D-05  0.88123565D-06
 -0.26287967D-08 -0.20253461D-08 -0.88923603D-09  0.30826488D-03  0.41923658D-04
  0.27969602D-04  0.63826395D-09 -0.10440351D-03 -0.10893000D-03 -0.10530442D-03
 -0.34197909D-05  0.89517266D-09  0.46474534D-09 -0.20268529D-04 -0.34379262D-04
 -0.39139575D-04 -0.95672079D-04  0.11751478D-03  0.21679183D-03  0.34996923D-03
  0.45555595D-03  0.38872672D-03  0.13421799D-03  0.42412599D-04  0.19547928D-04
 -0.54814430D-04 -0.10312940D-04 -0.79073085D-05 -0.39463011D-05 -0.77112259D-05
 -0.59124789D-05 -0.29507413D-05 -0.32949200D-09 -0.25263357D-09 -0.12608185D-09
  0.27349712D-03 -0.12616697D-03  0.59729990D-05 -0.10484402D-07  0.57965823D-04
  0.35000364D-04 -0.28665168D-04  0.96290373D-05  0.17825313D-07  0.42690860D-08
 -0.93384021D-05 -0.15839697D-04 -0.18032936D-04  0.24927136D-04 -0.93415750D-05
 -0.15845079D-04 -0.18039063D-04  0.24936286D-04 -0.75782430D-05 -0.12854134D-04
 -0.14633978D-04  0.73845648D-06
MO    4     MO 0.0        OCC NO =    1.0000000  ORB. ENERGY =  -10.215508
 -0.10198018D-02 -0.18813351D-02 -0.30370582D-02 -0.39533474D-02 -0.33733985D-02
 -0.11647534D-02 -0.16942091D-04 -0.78085943D-05  0.21896114D-04 -0.94485422D-05
 -0.72445429D-05 -0.36155346D-05  0.52238106D-05  0.40052866D-05  0.19989187D-05
 -0.61554976D-08 -0.47196452D-08 -0.23554337D-08 -0.73248702D-03 -0.12767929D-04
  0.34668022D-03  0.31860540D-08  0.12227518D-03  0.85918697D-04  0.78589365D-04
 -0.66813541D-04 -0.42870335D-08 -0.21625436D-08 -0.21641628D-03 -0.39924577D-03
 -0.64450647D-03 -0.83895592D-03 -0.71588261D-03 -0.24717706D-03  0.82980980D-04
  0.38245858D-04 -0.10724538D-03 -0.30139699D-04 -0.23109209D-04 -0.11533115D-04
  0.97941965D-05  0.75095686D-05  0.37478011D-05 -0.19482964D-08 -0.14938301D-08
 -0.74552594D-09  0.60115520D-03  0.30302365D-03 -0.77275200D-04 -0.87100623D-08
 -0.12968754D-04  0.32209194D-05 -0.74348492D-04  0.11970632D-04  0.49956350D-09
  0.20631250D-08 -0.48837035D-04 -0.90094793D-04 -0.14544093D-03 -0.18932088D-03
 -0.16154785D-03 -0.55778590D-04 -0.52239356D-04 -0.24077071D-04  0.67514621D-04
 -0.13966421D-04 -0.10708566D-04 -0.53443247D-05  0.28569531D-04  0.21905304D-04
  0.10932282D-04 -0.79504722D-08 -0.60959178D-08 -0.30422902D-08 -0.59649341D-03
 -0.28884448D-03 -0.16631503D-03  0.71198552D-08  0.78544779D-04  0.14096933D-04
  0.62685674D-04 -0.15476170D-04 -0.96802510D-09  0.43832797D-08  0.12032043D-01
  0.22196769D-01  0.35832468D-01  0.46643226D-01  0.39800749D-01  0.13742242D-01
 -0.18609171D-03 -0.85769500D-04  0.24050663D-03 -0.35415990D-03 -0.27154735D-03
 -0.13552116D-03 -0.33585829D-03 -0.25751483D-03 -0.12851795D-03 -0.14021870D-08
 -0.10751081D-08 -0.53655429D-09  0.15915911D-02  0.21835078D-03  0.55847691D-03
  0.11560931D-07 -0.63934099D-03 -0.57545187D-03 -0.46027617D-03 -0.18397041D-03
 -0.47192264D-08  0.13086315D-07  0.53158542D+00  0.98067130D+00  0.15831075D+01
  0.20607356D+01  0.17584295D+01  0.60714343D+00 -0.19727340D-01 -0.90923131D-02
  0.25495795D-01 -0.11071734D-03 -0.84891034D-04 -0.42366575D-04  0.15774213D-03
  0.12094666D-03  0.60360858D-04  0.28100486D-07  0.21545670D-07  0.10752800D-07
 -0.37354419D-02  0.50074922D-03 -0.13110167D-03 -0.73953610D-08 -0.99992825D-02
 -0.99028862D-02 -0.10383173D-01  0.17571107D-03  0.27661547D-07 -0.44289960D-08
 -0.29380842D-01 -0.54201917D-01 -0.87498699D-01 -0.11389731D+00 -0.97188780D-01
 -0.33556950D-01  0.13098348D-02  0.60370167D-03 -0.16928425D-02 -0.31402048D-05
 -0.24077098D-05 -0.12016160D-05  0.47040966D-03  0.36068029D-03  0.18000474D-03
  0.23169727D-10  0.17765077D-10  0.88660185D-11  0.15530825D-02 -0.25252374D-03
 -0.49203142D-03  0.53895610D-08  0.31973021D-03  0.12283758D-04  0.38733842D-03
  0.17213764D-03 -0.65873156D-08 -0.92341573D-08 -0.12443215D-04 -0.21106048D-04
 -0.24028489D-04 -0.80218172D-04  0.14420705D-04  0.24460246D-04  0.27847125D-04
  0.88315202D-04  0.63612884D-05  0.10789949D-04  0.12283976D-04  0.67383131D-04
  0.40284567D-05  0.74145108D-05  0.11998078D-04  0.15771809D-04  0.13527389D-04
  0.46252441D-05 -0.14266551D-04 -0.63657072D-05  0.18798018D-04 -0.66503093D-04
 -0.51237048D-04 -0.22495824D-04  0.19742201D-04  0.15210302D-04  0.66781417D-05
  0.11879444D-07  0.91524712D-08  0.40184278D-08 -0.12558141D-03  0.32139064D-04
 -0.26873667D-04 -0.47792499D-08  0.61055627D-04 -0.13806482D-04 -0.11086218D-04
  0.61748647D-05 -0.68871310D-08 -0.18365084D-08 -0.16635678D-05 -0.28217259D-05
 -0.32124352D-05  0.10189880D-03  0.33366194D-02  0.61554113D-02  0.99367423D-02
  0.12934686D-01  0.11037191D-01  0.38108768D-02 -0.95429230D-04 -0.43983245D-04
  0.12333361D-03  0.41694935D-03  0.31969031D-03  0.15954787D-03 -0.51737009D-04
 -0.39668657D-04 -0.19797440D-04  0.50221876D-07  0.38506949D-07  0.19217666D-07
  0.35540603D-03 -0.20967928D-03 -0.12279720D-04 -0.23324646D-07 -0.56210944D-03
 -0.25978013D-03 -0.99099877D-04  0.32726237D-03 -0.48096762D-07  0.26573782D-07
 -0.27757310D-04 -0.47081651D-04 -0.53600796D-04  0.81039828D-04 -0.27764058D-04
 -0.47093098D-04 -0.53613827D-04  0.81070842D-04 -0.17906765D-04 -0.30373263D-04
 -0.34578886D-04 -0.62376446D-04
MO    5     MO 0.0        OCC NO =    1.0000000  ORB. ENERGY =  -10.208077
  0.52561675D+00  0.96966026D+00  0.15653323D+01  0.20375976D+01  0.17386857D+01
  0.60032639D+00 -0.19541074D-01 -0.90064632D-02  0.25255063D-01  0.16884517D-03
  0.12945977D-03  0.64609497D-04 -0.30840779D-03 -0.23646753D-03 -0.11801387D-03
 -0.33320954D-08 -0.25548394D-08 -0.12750439D-08 -0.34204213D-02 -0.12260844D-03
  0.69859463D-03  0.40542848D-08 -0.99808220D-02 -0.10143220D-01 -0.10479890D-01
  0.68959351D-04 -0.19580732D-07  0.32002236D-08  0.84366446D-01  0.15563962D+00
  0.25125060D+00  0.32705363D+00  0.27907546D+00  0.96358048D-01 -0.29105484D-02
 -0.13414691D-02  0.37616193D-02 -0.35824104D-03 -0.27467650D-03 -0.13708283D-03
 -0.22267192D-03 -0.17073070D-03 -0.85206587D-04  0.73292164D-08  0.56195782D-08
  0.28045634D-08  0.11700738D-02  0.58024362D-03 -0.14734905D-04 -0.13830754D-07
 -0.20217089D-02 -0.20541521D-02 -0.19307959D-02 -0.17222853D-03  0.43157262D-08
  0.46435300D-08 -0.34516952D-03 -0.63677037D-03 -0.10279448D-02 -0.13380787D-02
 -0.11417850D-02 -0.39423092D-03 -0.60130265D-05 -0.27713984D-05  0.77712904D-05
  0.22911529D-04  0.17567107D-04  0.87672176D-05 -0.89357383D-04 -0.68513574D-04
 -0.34193075D-04 -0.27523551D-09 -0.21103313D-09 -0.10532032D-09 -0.52216892D-03
 -0.17356350D-03 -0.16992441D-03  0.12776082D-08 -0.35019635D-04  0.24560980D-06
  0.24790372D-04  0.29485441D-04  0.15798955D-08  0.83798451D-09 -0.25783221D-03
 -0.47565008D-03 -0.76784671D-03 -0.99950827D-03 -0.85288222D-03 -0.29447973D-03
  0.82087614D-04  0.37834106D-04 -0.10609078D-03  0.17575361D-04  0.13475672D-04
  0.67253049D-05 -0.56179536D-04 -0.43074905D-04 -0.21497397D-04 -0.14052644D-08
 -0.10774676D-08 -0.53773183D-09  0.47803464D-03 -0.23654298D-04  0.27703672D-03
  0.65266925D-08  0.13009252D-04 -0.76539709D-05 -0.71814292D-04 -0.66953481D-05
 -0.49326132D-08  0.59862334D-08  0.45291657D-03  0.83554263D-03  0.13488249D-02
  0.17557692D-02  0.14982010D-02  0.51729282D-03 -0.68315761D-04 -0.31486672D-04
  0.88291914D-04  0.20109885D-04  0.15418984D-04  0.76951538D-05 -0.16054199D-04
 -0.12309342D-04 -0.61432243D-05 -0.27231673D-08 -0.20879520D-08 -0.10420344D-08
 -0.75037192D-03  0.28342248D-03 -0.19069045D-03 -0.13257977D-08  0.20808837D-04
  0.72390071D-04  0.33797929D-04  0.28689368D-05 -0.78644450D-08 -0.17127917D-08
 -0.11660304D-01 -0.21510984D-01 -0.34725398D-01 -0.45202150D-01 -0.38571076D-01
 -0.13317666D-01  0.69085058D-03  0.31841240D-03 -0.89286161D-03  0.46837662D-03
  0.35912148D-03  0.17922679D-03 -0.12672466D-03 -0.97164429D-04 -0.48491860D-04
 -0.90419236D-08 -0.69327735D-08 -0.34599399D-08  0.16736551D-02 -0.60791783D-03
 -0.19204526D-03  0.10587406D-07 -0.19762153D-03 -0.94963565D-04 -0.23397736D-05
  0.27119736D-03  0.59791505D-08 -0.40182903D-08 -0.10277559D-03 -0.17432685D-03
 -0.19846496D-03  0.16232764D-03 -0.54811116D-05 -0.92970027D-05 -0.10584309D-04
  0.17519073D-03  0.81508509D-05  0.13825386D-04  0.15739713D-04  0.12259522D-03
 -0.54789090D-05 -0.10084117D-04 -0.16318005D-04 -0.21450475D-04 -0.18397947D-04
 -0.62905707D-05  0.21925872D-04  0.97832816D-05 -0.28890162D-04  0.82800028D-05
  0.63792958D-05  0.28008545D-05 -0.61936481D-04 -0.47718719D-04 -0.20951088D-04
 -0.18870404D-09 -0.14538629D-09 -0.63832412D-10 -0.21654768D-04  0.50240145D-05
  0.52216467D-04  0.32589188D-09 -0.32009632D-04  0.29286778D-04 -0.48428962D-04
  0.66409479D-04 -0.31446175D-10  0.75754231D-09  0.15605795D-04  0.26470381D-04
  0.30135593D-04  0.85959895D-04 -0.25347952D-04 -0.46762021D-04 -0.75488401D-04
 -0.98263469D-04 -0.83848396D-04 -0.28950836D-04  0.30421239D-04  0.14021121D-04
 -0.39316688D-04  0.17080570D-04  0.13096298D-04  0.65359706D-05 -0.29122582D-04
 -0.22329349D-04 -0.11143910D-04  0.10161946D-08  0.77915354D-09  0.38885222D-09
 -0.31313757D-04  0.19728317D-04  0.38709200D-04  0.44044586D-08 -0.30975077D-04
 -0.22593431D-04 -0.21149611D-04 -0.63615984D-04 -0.98054052D-08 -0.10159695D-07
 -0.61765246D-05 -0.10476555D-04 -0.11927187D-04 -0.10782526D-04 -0.61748142D-05
 -0.10473654D-04 -0.11923884D-04 -0.10785577D-04  0.29875132D-05  0.50673878D-05
  0.57690419D-05  0.17560064D-04
MO    6     MO 0.0        OCC NO =    1.0000000  ORB. ENERGY =  -10.206041
 -0.84636863D-01 -0.15613849D+00 -0.25205593D+00 -0.32810193D+00 -0.27996997D+00
 -0.96666902D-01  0.34281043D-02  0.15800101D-02 -0.44305133D-02  0.29715959D-03
  0.22784313D-03  0.11370969D-03  0.40489770D-03  0.31044988D-03  0.15493625D-03
 -0.12916572D-08 -0.99036084D-09 -0.49425947D-09  0.22416550D-02 -0.12914080D-03
 -0.79352784D-03 -0.16909155D-08  0.11594784D-02  0.13415639D-02  0.14293695D-02
 -0.19695196D-03  0.11783927D-07 -0.13465976D-08  0.52570835D+00  0.96982926D+00
  0.15656051D+01  0.20379527D+01  0.17389887D+01  0.60043102D+00 -0.19964657D-01
 -0.92016924D-02  0.25802506D-01  0.45993673D-03  0.35265031D-03  0.17599722D-03
 -0.12999465D-04 -0.99671654D-05 -0.49743141D-05 -0.11019448D-07 -0.84490134D-08
 -0.42166498D-08 -0.38779494D-02 -0.75737873D-03  0.33469383D-03  0.19422809D-07
 -0.10393534D-01 -0.10459103D-01 -0.10506368D-01  0.23225398D-03 -0.13187998D-07
 -0.19781210D-08 -0.21672550D-02 -0.39981623D-02 -0.64542737D-02 -0.84015465D-02
 -0.71690549D-02 -0.24753024D-02  0.31307538D-03  0.14429615D-03 -0.40462148D-03
  0.35034179D-04  0.26861986D-04  0.13406014D-04 -0.35537485D-03 -0.27247890D-03
 -0.13598607D-03 -0.36385711D-08 -0.27898255D-08 -0.13923185D-08  0.16169167D-02
  0.26069378D-03  0.67462467D-03  0.22713203D-08 -0.23799318D-03 -0.47795276D-03
 -0.22595967D-03  0.16346660D-03  0.39744328D-08 -0.94654554D-08 -0.74559411D-04
 -0.13754755D-03 -0.22204440D-03 -0.28903583D-03 -0.24663480D-03 -0.85157070D-04
 -0.31332970D-04 -0.14441337D-04  0.40495017D-04  0.50569717D-04  0.38773651D-04
  0.19350770D-04 -0.39825605D-04 -0.30535748D-04 -0.15239478D-04 -0.21443631D-08
 -0.16441616D-08 -0.82055187D-09 -0.73254631D-03 -0.44895923D-04 -0.39749367D-03