 Entering Link 1 = D:\Gaussian\G16W\l1.exe PID=     36584.
  
 Copyright (c) 1988,1990,1992,1993,1995,1998,2003,2009,2016,
            Gaussian, Inc.  All Rights Reserved.
  
 This is part of the Gaussian(R) 16 program.  It is based on
 the Gaussian(R) 09 system (copyright 2009, Gaussian, Inc.),
 the Gaussian(R) 03 system (copyright 2003, Gaussian, Inc.),
 the Gaussian(R) 98 system (copyright 1998, Gaussian, Inc.),
 the Gaussian(R) 94 system (copyright 1995, Gaussian, Inc.),
 the Gaussian 92(TM) system (copyright 1992, Gaussian, Inc.),
 the Gaussian 90(TM) system (copyright 1990, Gaussian, Inc.),
 the Gaussian 88(TM) system (copyright 1988, Gaussian, Inc.),
 the Gaussian 86(TM) system (copyright 1986, Carnegie Mellon
 University), and the Gaussian 82(TM) system (copyright 1983,
 Carnegie Mellon University). Gaussian is a federally registered
 trademark of Gaussian, Inc.
  
 This software contains proprietary and confidential information,
 including trade secrets, belonging to Gaussian, Inc.
  
 This software is provided under written license and may be
 used, copied, transmitted, or stored only in accord with that
 written license.
  
 The following legend is applicable only to US Government
 contracts under FAR:
  
                    RESTRICTED RIGHTS LEGEND
  
 Use, reproduction and disclosure by the US Government is
 subject to restrictions as set forth in subparagraphs (a)
 and (c) of the Commercial Computer Software - Restricted
 Rights clause in FAR 52.227-19.
  
 Gaussian, Inc.
 340 Quinnipiac St., Bldg. 40, Wallingford CT 06492
  
  
 ---------------------------------------------------------------
 Warning -- This program may not be used in any manner that
 competes with the business of Gaussian, Inc. or will provide
 assistance to any competitor of Gaussian, Inc.  The licensee
 of this program is prohibited from giving any competitor of
 Gaussian, Inc. access to this program.  By using this program,
 the user acknowledges that Gaussian, Inc. is engaged in the
 business of creating and licensing software in the field of
 computational chemistry and represents and warrants to the
 licensee that it is not a competitor of Gaussian, Inc. and that
 it will not use this program in any manner prohibited above.
 ---------------------------------------------------------------
  

 Cite this work as:
 Gaussian 16, Revision A.03,
 M. J. Frisch, G. W. Trucks, H. B. Schlegel, G. E. Scuseria, 
 M. A. Robb, J. R. Cheeseman, G. Scalmani, V. Barone, 
 G. A. Petersson, H. Nakatsuji, X. Li, M. Caricato, A. V. Marenich, 
 J. Bloino, B. G. Janesko, R. Gomperts, B. Mennucci, H. P. Hratchian, 
 J. V. Ortiz, A. F. Izmaylov, J. L. Sonnenberg, D. Williams-Young, 
 F. Ding, F. Lipparini, F. Egidi, J. Goings, B. Peng, A. Petrone, 
 T. Henderson, D. Ranasinghe, V. G. Zakrzewski, J. Gao, N. Rega, 
 G. Zheng, W. Liang, M. Hada, M. Ehara, K. Toyota, R. Fukuda, 
 J. Hasegawa, M. Ishida, T. Nakajima, Y. Honda, O. Kitao, H. Nakai, 
 T. Vreven, K. Throssell, J. A. Montgomery, Jr., J. E. Peralta, 
 F. Ogliaro, M. J. Bearpark, J. J. Heyd, E. N. Brothers, K. N. Kudin, 
 V. N. Staroverov, T. A. Keith, R. Kobayashi, J. Normand, 
 K. Raghavachari, A. P. Rendell, J. C. Burant, S. S. Iyengar, 
 J. Tomasi, M. Cossi, J. M. Millam, M. Klene, C. Adamo, R. Cammi, 
 J. W. Ochterski, R. L. Martin, K. Morokuma, O. Farkas, 
 J. B. Foresman, and D. J. Fox, Gaussian, Inc., Wallingford CT, 2016.
 
 ******************************************
 Gaussian 16:  EM64W-G16RevA.03 17-Dec-2016
                02-Dec-2025 
 ******************************************
 %nprocshared=14
 Will use up to   14 processors via shared memory.
 %mem=58339MB
 %chk=6.chk
 ---------------------------------------------------------
 # ub3lyp/6-311g(d,p) geom=connectivity temperature=823.15
 ---------------------------------------------------------
 1/38=1,57=2,112=823150,172=1/1;
 2/12=2,17=6,18=5,40=1/2;
 3/5=4,6=6,7=101,11=2,25=1,30=1,74=-5,116=2/1,2,3;
 4//1;
 5/5=2,38=5/2;
 6/7=2,8=2,9=2,10=2,28=1/1;
 99/5=1,9=1/99;
 -------------------
 Title Card Required
 -------------------
 Symbolic Z-matrix:
 Charge =  0 Multiplicity = 2
 C                     0.32793   1.76213  0. 
 C                     1.43643   0.9481   -0.00002 
 C                     1.28763  -0.49542   0. 
 C                    -0.06628  -1.0199    0.00004 
 C                    -1.16902  -0.19655   0.00002 
 C                    -0.96212   1.2056    0.00002 
 H                     0.44033   2.84079  -0.00001 
 H                     2.44587   1.34148  -0.00006 
 H                    -1.82416   1.86489   0.00005 
 O                     2.28172  -1.25528  -0.00001 
 H                    -0.16358  -2.10003   0.00006 
 C                    -2.57478  -0.74596  -0.00003 
 H                    -3.12887  -0.40797   0.881 
 H                    -3.12871  -0.40814  -0.88124 
 H                    -2.57336  -1.83681   0.00006 
 
                          Input orientation:                          
 ---------------------------------------------------------------------
 Center     Atomic      Atomic             Coordinates (Angstroms)
 Number     Number       Type             X           Y           Z
 ---------------------------------------------------------------------
      1          6           0        0.327931    1.762128   -0.000001
      2          6           0        1.436429    0.948101   -0.000018
      3          6           0        1.287629   -0.495415    0.000001
      4          6           0       -0.066280   -1.019903    0.000035
      5          6           0       -1.169016   -0.196550    0.000024
      6          6           0       -0.962116    1.205595    0.000021
      7          1           0        0.440330    2.840788   -0.000010
      8          1           0        2.445869    1.341478   -0.000063
      9          1           0       -1.824160    1.864893    0.000052
     10          8           0        2.281715   -1.255278   -0.000008
     11          1           0       -0.163581   -2.100027    0.000059
     12          6           0       -2.574782   -0.745955   -0.000028
     13          1           0       -3.128872   -0.407966    0.881004
     14          1           0       -3.128712   -0.408140   -0.881237
     15          1           0       -2.573361   -1.836807    0.000059
 ---------------------------------------------------------------------
                    Distance matrix (angstroms):
                    1          2          3          4          5
     1  C    0.000000
     2  C    1.375285   0.000000
     3  C    2.453064   1.451165   0.000000
     4  C    2.809822   2.476121   1.451949   0.000000
     5  C    2.465212   2.845799   2.474758   1.376204   0.000000
     6  C    1.404973   2.412327   2.820423   2.399034   1.417328
     7  H    1.084500   2.138803   3.442117   3.893788   3.437356
     8  H    2.159307   1.083381   2.171565   3.447755   3.928476
     9  H    2.154543   3.387026   3.905673   3.378193   2.163044
    10  O    3.594720   2.359955   1.251239   2.359763   3.609494
    11  H    3.893305   3.442545   2.163513   1.084498   2.152702
    12  C    3.836173   4.354267   3.870528   2.523416   1.509312
    13  H    4.175520   4.843252   4.504364   3.245003   2.159134
    14  H    4.175526   4.843186   4.504250   3.244901   2.159120
    15  H    4.622751   4.882021   4.087368   2.636814   2.159312
                    6          7          8          9         10
     6  C    0.000000
     7  H    2.154231   0.000000
     8  H    3.410693   2.504020   0.000000
     9  H    1.085262   2.465824   4.301989   0.000000
    10  O    4.071650   4.490930   2.601939   5.156906   0.000000
    11  H    3.400705   4.977586   4.318933   4.298618   2.587097
    12  C    2.531647   4.685683   5.437308   2.716608   4.883131
    13  H    2.841574   4.906097   5.908855   2.764821   5.546943
    14  H    2.841636   4.906134   5.908772   2.764996   5.546794
    15  H    3.442720   5.564371   5.940889   3.776756   4.889779
                   11         12         13         14         15
    11  H    0.000000
    12  C    2.765394   0.000000
    13  H    3.525916   1.094290   0.000000
    14  H    3.525786   1.094297   1.762241   0.000000
    15  H    2.424113   1.090853   1.768119   1.768103   0.000000
 Stoichiometry    C7H7O(2)
 Framework group  C1[X(C7H7O)]
 Deg. of freedom    39
 Full point group                 C1      NOp   1
 Largest Abelian subgroup         C1      NOp   1
 Largest concise Abelian subgroup C1      NOp   1
                         Standard orientation:                         
 ---------------------------------------------------------------------
 Center     Atomic      Atomic             Coordinates (Angstroms)
 Number     Number       Type             X           Y           Z
 ---------------------------------------------------------------------
      1          6           0       -0.327931    1.762128    0.000001
      2          6           0       -1.436429    0.948101    0.000018
      3          6           0       -1.287629   -0.495415   -0.000001
      4          6           0        0.066280   -1.019903   -0.000035
      5          6           0        1.169016   -0.196550   -0.000024
      6          6           0        0.962116    1.205595   -0.000021
      7          1           0       -0.440330    2.840788    0.000010
      8          1           0       -2.445869    1.341478    0.000063
      9          1           0        1.824160    1.864893   -0.000052
     10          8           0       -2.281715   -1.255278    0.000008
     11          1           0        0.163581   -2.100027   -0.000059
     12          6           0        2.574782   -0.745955    0.000028
     13          1           0        3.128872   -0.407966   -0.881004
     14          1           0        3.128712   -0.408140    0.881237
     15          1           0        2.573361   -1.836807   -0.000059
 ---------------------------------------------------------------------
 Rotational constants (GHZ):           3.7185286           1.8453412           1.2427983
 Standard basis: 6-311G(d,p) (5D, 7F)
 There are   194 symmetry adapted cartesian basis functions of A   symmetry.
 There are   186 symmetry adapted basis functions of A   symmetry.
   186 basis functions,   312 primitive gaussians,   194 cartesian basis functions
    29 alpha electrons       28 beta electrons
       nuclear repulsion energy       331.6110576273 Hartrees.
 NAtoms=   15 NActive=   15 NUniq=   15 SFac= 1.00D+00 NAtFMM=   60 NAOKFM=F Big=F
 Integral buffers will be    131072 words long.
 Raffenetti 2 integral format.
 Two-electron integral symmetry is turned on.
 One-electron integrals computed using PRISM.
 NBasis=   186 RedAO= T EigKep=  2.19D-04  NBF=   186
 NBsUse=   186 1.00D-06 EigRej= -1.00D+00 NBFU=   186
 ExpMin= 1.03D-01 ExpMax= 8.59D+03 ExpMxC= 1.30D+03 IAcc=3 IRadAn=         5 AccDes= 0.00D+00
 Harris functional with IExCor=  402 and IRadAn=       5 diagonalized for initial guess.
 HarFok:  IExCor=  402 AccDes= 0.00D+00 IRadAn=         5 IDoV= 1 UseB2=F ITyADJ=14
 ICtDFT=  3500011 ScaDFX=  1.000000  1.000000  1.000000  1.000000
 FoFCou: FMM=F IPFlag=           0 FMFlag=      100000 FMFlg1=           0
         NFxFlg=           0 DoJE=T BraDBF=F KetDBF=T FulRan=T
         wScrn=  0.000000 ICntrl=       500 IOpCl=  0 I1Cent=   200000004 NGrid=           0
         NMat0=    1 NMatS0=      1 NMatT0=    0 NMatD0=    1 NMtDS0=    0 NMtDT0=    0
 Petite list used in FoFCou.
 Initial guess <Sx>= 0.0000 <Sy>= 0.0000 <Sz>= 0.5000 <S**2>= 0.7500 S= 0.5000
 Requested convergence on RMS density matrix=1.00D-08 within 128 cycles.
 Requested convergence on MAX density matrix=1.00D-06.
 Requested convergence on             energy=1.00D-06.
 No special actions if energy rises.
 Integral accuracy reduced to 1.0D-05 until final iterations.
 Initial convergence to 1.0D-05 achieved.  Increase integral accuracy.
 SCF Done:  E(UB3LYP) =  -346.235264002     A.U. after   19 cycles
            NFock= 19  Conv=0.56D-08     -V/T= 2.0040
 <Sx>= 0.0000 <Sy>= 0.0000 <Sz>= 0.5000 <S**2>= 0.7880 S= 0.5188
 <L.S>= 0.000000000000E+00
 Annihilation of the first spin contaminant:
 S**2 before annihilation     0.7880,   after     0.7510

 **********************************************************************

            Population analysis using the SCF density.

 **********************************************************************

 Orbital symmetries:
 Alpha Orbitals:
       Occupied  (A) (A) (A) (A) (A) (A) (A) (A) (A) (A) (A) (A)
                 (A) (A) (A) (A) (A) (A) (A) (A) (A) (A) (A) (A)
                 (A) (A) (A) (A) (A)
       Virtual   (A) (A) (A) (A) (A) (A) (A) (A) (A) (A) (A) (A)
                 (A) (A) (A) (A) (A) (A) (A) (A) (A) (A) (A) (A)
                 (A) (A) (A) (A) (A) (A) (A) (A) (A) (A) (A) (A)
                 (A) (A) (A) (A) (A) (A) (A) (A) (A) (A) (A) (A)
                 (A) (A) (A) (A) (A) (A) (A) (A) (A) (A) (A) (A)
                 (A) (A) (A) (A) (A) (A) (A) (A) (A) (A) (A) (A)
                 (A) (A) (A) (A) (A) (A) (A) (A) (A) (A) (A) (A)
                 (A) (A) (A) (A) (A) (A) (A) (A) (A) (A) (A) (A)
                 (A) (A) (A) (A) (A) (A) (A) (A) (A) (A) (A) (A)
                 (A) (A) (A) (A) (A) (A) (A) (A) (A) (A) (A) (A)
                 (A) (A) (A) (A) (A) (A) (A) (A) (A) (A) (A) (A)
                 (A) (A) (A) (A) (A) (A) (A) (A) (A) (A) (A) (A)
                 (A) (A) (A) (A) (A) (A) (A) (A) (A) (A) (A) (A)
                 (A)
 Beta  Orbitals:
       Occupied  (A) (A) (A) (A) (A) (A) (A) (A) (A) (A) (A) (A)
                 (A) (A) (A) (A) (A) (A) (A) (A) (A) (A) (A) (A)
                 (A) (A) (A) (A)
       Virtual   (A) (A) (A) (A) (A) (A) (A) (A) (A) (A) (A) (A)
                 (A) (A) (A) (A) (A) (A) (A) (A) (A) (A) (A) (A)
                 (A) (A) (A) (A) (A) (A) (A) (A) (A) (A) (A) (A)
                 (A) (A) (A) (A) (A) (A) (A) (A) (A) (A) (A) (A)
                 (A) (A) (A) (A) (A) (A) (A) (A) (A) (A) (A) (A)
                 (A) (A) (A) (A) (A) (A) (A) (A) (A) (A) (A) (A)
                 (A) (A) (A) (A) (A) (A) (A) (A) (A) (A) (A) (A)
                 (A) (A) (A) (A) (A) (A) (A) (A) (A) (A) (A) (A)
                 (A) (A) (A) (A) (A) (A) (A) (A) (A) (A) (A) (A)
                 (A) (A) (A) (A) (A) (A) (A) (A) (A) (A) (A) (A)
                 (A) (A) (A) (A) (A) (A) (A) (A) (A) (A) (A) (A)
                 (A) (A) (A) (A) (A) (A) (A) (A) (A) (A) (A) (A)
                 (A) (A) (A) (A) (A) (A) (A) (A) (A) (A) (A) (A)
                 (A) (A)
 The electronic state is 2-A.
 Alpha  occ. eigenvalues --  -19.11015 -10.24273 -10.20773 -10.20441 -10.19571
 Alpha  occ. eigenvalues --  -10.19452 -10.19012 -10.18337  -1.03363  -0.87263
 Alpha  occ. eigenvalues --   -0.79270  -0.74442  -0.70836  -0.62036  -0.58982
 Alpha  occ. eigenvalues --   -0.52500  -0.49500  -0.46658  -0.44316  -0.43614
 Alpha  occ. eigenvalues --   -0.42764  -0.41707  -0.40894  -0.38107  -0.37014
 Alpha  occ. eigenvalues --   -0.35170  -0.27992  -0.26160  -0.23421
 Alpha virt. eigenvalues --   -0.02620  -0.01293   0.03659   0.05444   0.07838
 Alpha virt. eigenvalues --    0.09080   0.10096   0.11436   0.12811   0.14609
 Alpha virt. eigenvalues --    0.18366   0.22985   0.23210   0.25423   0.28215
 Alpha virt. eigenvalues --    0.28879   0.29203   0.34597   0.36822   0.37493
 Alpha virt. eigenvalues --    0.37748   0.39376   0.39931   0.42703   0.43580
 Alpha virt. eigenvalues --    0.44238   0.45063   0.45523   0.50914   0.51433
 Alpha virt. eigenvalues --    0.53332   0.54095   0.55933   0.57291   0.57786
 Alpha virt. eigenvalues --    0.59298   0.59799   0.61086   0.62114   0.63863
 Alpha virt. eigenvalues --    0.64354   0.66462   0.73044   0.74902   0.75997
 Alpha virt. eigenvalues --    0.77789   0.82599   0.84238   0.85638   0.87060
 Alpha virt. eigenvalues --    0.87461   0.94027   0.94421   0.98100   0.98798
 Alpha virt. eigenvalues --    1.00517   1.02717   1.06657   1.08934   1.10231
 Alpha virt. eigenvalues --    1.19600   1.20886   1.32274   1.33158   1.35036
 Alpha virt. eigenvalues --    1.39300   1.43702   1.43907   1.44629   1.47842
 Alpha virt. eigenvalues --    1.48938   1.52694   1.53043   1.55876   1.56180
 Alpha virt. eigenvalues --    1.58120   1.59053   1.59162   1.64254   1.65061
 Alpha virt. eigenvalues --    1.68636   1.72417   1.76435   1.77526   1.83744
 Alpha virt. eigenvalues --    1.83897   1.86106   1.88657   1.88837   1.92205
 Alpha virt. eigenvalues --    1.92818   1.93060   1.99456   1.99610   2.04516
 Alpha virt. eigenvalues --    2.10693   2.14462   2.15409   2.22922   2.24301
 Alpha virt. eigenvalues --    2.25549   2.33646   2.34125   2.34672   2.40797
 Alpha virt. eigenvalues --    2.42813   2.46591   2.51051   2.51643   2.52604
 Alpha virt. eigenvalues --    2.55596   2.59454   2.60831   2.62851   2.64684
 Alpha virt. eigenvalues --    2.67221   2.67578   2.69888   2.75089   2.78013
 Alpha virt. eigenvalues --    2.80017   2.84620   2.87058   2.89457   2.91643
 Alpha virt. eigenvalues --    2.92574   3.01328   3.05366   3.12960   3.17277
 Alpha virt. eigenvalues --    3.24498   3.28930   3.35823   3.44471   3.47085
 Alpha virt. eigenvalues --    3.52680   3.58697   3.63895   3.77001   3.80443
 Alpha virt. eigenvalues --    3.96279   3.98811   4.07392   4.09642   4.29950
 Alpha virt. eigenvalues --    4.76243   4.85220   5.02561   5.61608  23.50352
 Alpha virt. eigenvalues --   23.81919  23.87755  23.91405  23.97608  24.09212
 Alpha virt. eigenvalues --   24.14887  49.95481
  Beta  occ. eigenvalues --  -19.09891 -10.24440 -10.20643 -10.20203 -10.19769
  Beta  occ. eigenvalues --  -10.19020 -10.18638 -10.18325  -1.01366  -0.86647
  Beta  occ. eigenvalues --   -0.79055  -0.73313  -0.70217  -0.61711  -0.58639
  Beta  occ. eigenvalues --   -0.52092  -0.49262  -0.46339  -0.43990  -0.43348
  Beta  occ. eigenvalues --   -0.42099  -0.40782  -0.39250  -0.37785  -0.36793
  Beta  occ. eigenvalues --   -0.31928  -0.26826  -0.25094
  Beta virt. eigenvalues --   -0.14013  -0.01343   0.00942   0.03743   0.05430
  Beta virt. eigenvalues --    0.07936   0.09221   0.10534   0.11518   0.12913
  Beta virt. eigenvalues --    0.15868   0.18377   0.23166   0.23526   0.25473
  Beta virt. eigenvalues --    0.28360   0.28975   0.29264   0.34879   0.37381
  Beta virt. eigenvalues --    0.38186   0.38344   0.39634   0.40719   0.42939
  Beta virt. eigenvalues --    0.44378   0.44523   0.45180   0.46807   0.51368
  Beta virt. eigenvalues --    0.51490   0.53336   0.54163   0.56144   0.57538
  Beta virt. eigenvalues --    0.58112   0.59514   0.59957   0.61540   0.62559
  Beta virt. eigenvalues --    0.64066   0.64754   0.66480   0.73134   0.75302
  Beta virt. eigenvalues --    0.76300   0.78060   0.82959   0.84575   0.87213
  Beta virt. eigenvalues --    0.87697   0.87979   0.94653   0.95000   0.98930
  Beta virt. eigenvalues --    0.99043   1.00925   1.03054   1.07025   1.09983
  Beta virt. eigenvalues --    1.11069   1.20277   1.21218   1.32379   1.33320
  Beta virt. eigenvalues --    1.35382   1.39423   1.43871   1.43945   1.45047
  Beta virt. eigenvalues --    1.47904   1.49469   1.53112   1.53387   1.56043
  Beta virt. eigenvalues --    1.56607   1.58609   1.59476   1.59564   1.64475
  Beta virt. eigenvalues --    1.65504   1.68838   1.72709   1.76764   1.77702
  Beta virt. eigenvalues --    1.83647   1.84806   1.86173   1.89020   1.89374
  Beta virt. eigenvalues --    1.92365   1.93188   1.93923   1.99608   2.00080
  Beta virt. eigenvalues --    2.04711   2.10856   2.14916   2.15857   2.23156
  Beta virt. eigenvalues --    2.25059   2.25681   2.33943   2.34443   2.34660
  Beta virt. eigenvalues --    2.40909   2.42951   2.46808   2.51112   2.52147
  Beta virt. eigenvalues --    2.53143   2.55834   2.59510   2.60948   2.62971
  Beta virt. eigenvalues --    2.64810   2.67441   2.68087   2.71698   2.75299
  Beta virt. eigenvalues --    2.78285   2.81606   2.84734   2.87131   2.89822
  Beta virt. eigenvalues --    2.94619   2.95052   3.02134   3.05581   3.13331
  Beta virt. eigenvalues --    3.17417   3.24700   3.31733   3.36175   3.44669
  Beta virt. eigenvalues --    3.47680   3.53136   3.59113   3.64621   3.76964
  Beta virt. eigenvalues --    3.80461   3.96739   3.99267   4.07956   4.10063
  Beta virt. eigenvalues --    4.29979   4.76816   4.90112   5.03488   5.62431
  Beta virt. eigenvalues --   23.50487  23.82029  23.87656  23.91429  23.98190
  Beta virt. eigenvalues --   24.09340  24.15001  49.96618
          Condensed to atoms (all electrons):
               1          2          3          4          5          6
     1  C    4.962943   0.373497  -0.012543  -0.030264  -0.041242   0.473251
     2  C    0.373497   5.225557   0.347837  -0.078553  -0.035532  -0.039014
     3  C   -0.012543   0.347837   4.665698   0.355849  -0.006247  -0.038903
     4  C   -0.030264  -0.078553   0.355849   5.238091   0.356232  -0.042331
     5  C   -0.041242  -0.035532  -0.006247   0.356232   5.202861   0.456974
     6  C    0.473251  -0.039014  -0.038903  -0.042331   0.456974   4.924897
     7  H    0.411876  -0.030156   0.005905  -0.001959   0.007681  -0.044285
     8  H   -0.037741   0.398897  -0.042330   0.013291  -0.002494   0.008542
     9  H   -0.037937   0.007817  -0.000564   0.007197  -0.048630   0.418315
    10  O    0.009619  -0.083968   0.583854  -0.084935   0.010779  -0.000831
    11  H   -0.002831   0.013919  -0.039728   0.396585  -0.040618   0.009396
    12  C    0.004570  -0.000604   0.003497  -0.039327   0.343214  -0.058793
    13  H    0.000222   0.000078  -0.000236  -0.000049  -0.036957  -0.004098
    14  H    0.000222   0.000079  -0.000236  -0.000052  -0.036956  -0.004098
    15  H   -0.000259  -0.000090   0.000490  -0.005295  -0.034713   0.006367
               7          8          9         10         11         12
     1  C    0.411876  -0.037741  -0.037937   0.009619  -0.002831   0.004570
     2  C   -0.030156   0.398897   0.007817  -0.083968   0.013919  -0.000604
     3  C    0.005905  -0.042330  -0.000564   0.583854  -0.039728   0.003497
     4  C   -0.001959   0.013291   0.007197  -0.084935   0.396585  -0.039327
     5  C    0.007681  -0.002494  -0.048630   0.010779  -0.040618   0.343214
     6  C   -0.044285   0.008542   0.418315  -0.000831   0.009396  -0.058793
     7  H    0.562151  -0.009273  -0.007727  -0.000196   0.000103  -0.000356
     8  H   -0.009273   0.547487  -0.000246   0.008237  -0.000395   0.000062
     9  H   -0.007727  -0.000246   0.560510   0.000000  -0.000264  -0.004003
    10  O   -0.000196   0.008237   0.000000   7.855393   0.009381  -0.000139
    11  H    0.000103  -0.000395  -0.000264   0.009381   0.558040  -0.010970
    12  C   -0.000356   0.000062  -0.004003  -0.000139  -0.010970   4.800074
    13  H    0.000007  -0.000004   0.001082   0.000006   0.000265   0.403516
    14  H    0.000007  -0.000004   0.001081   0.000006   0.000265   0.403514
    15  H    0.000016  -0.000001  -0.000020  -0.000034   0.002786   0.408945
              13         14         15
     1  C    0.000222   0.000222  -0.000259
     2  C    0.000078   0.000079  -0.000090
     3  C   -0.000236  -0.000236   0.000490
     4  C   -0.000049  -0.000052  -0.005295
     5  C   -0.036957  -0.036956  -0.034713
     6  C   -0.004098  -0.004098   0.006367
     7  H    0.000007   0.000007   0.000016
     8  H   -0.000004  -0.000004  -0.000001
     9  H    0.001082   0.001081  -0.000020
    10  O    0.000006   0.000006  -0.000034
    11  H    0.000265   0.000265   0.002786
    12  C    0.403516   0.403514   0.408945
    13  H    0.564140  -0.029798  -0.025367
    14  H   -0.029798   0.564143  -0.025369
    15  H   -0.025367  -0.025369   0.556486
          Atomic-Atomic Spin Densities.
               1          2          3          4          5          6
     1  C   -0.171434  -0.008703   0.000283   0.000260  -0.000488   0.008684
     2  C   -0.008703   0.349585   0.021538   0.007513   0.000095  -0.019720
     3  C    0.000283   0.021538  -0.114697   0.022936   0.000836  -0.001781
     4  C    0.000260   0.007513   0.022936   0.303763  -0.012719  -0.017019
     5  C   -0.000488   0.000095   0.000836  -0.012719  -0.162966   0.002898
     6  C    0.008684  -0.019720  -0.001781  -0.017019   0.002898   0.455342
     7  H    0.000497  -0.000765   0.000063  -0.000015   0.000118  -0.000410
     8  H    0.000412   0.003206  -0.000072  -0.000311  -0.000071  -0.000158
     9  H    0.000710  -0.000273  -0.000019  -0.000287   0.000327   0.003159
    10  O   -0.000057  -0.012596  -0.034211  -0.011933  -0.000078   0.000243
    11  H   -0.000005  -0.000338   0.000229   0.003895  -0.000307  -0.000260
    12  C    0.000005   0.000022  -0.000036  -0.000171   0.007533  -0.002793
    13  H   -0.000028  -0.000003  -0.000020   0.000029   0.002683   0.000038
    14  H   -0.000028  -0.000003  -0.000020   0.000029   0.002683   0.000037
    15  H    0.000001   0.000002   0.000009  -0.000225   0.000450   0.000033
               7          8          9         10         11         12
     1  C    0.000497   0.000412   0.000710  -0.000057  -0.000005   0.000005
     2  C   -0.000765   0.003206  -0.000273  -0.012596  -0.000338   0.000022
     3  C    0.000063  -0.000072  -0.000019  -0.034211   0.000229  -0.000036
     4  C   -0.000015  -0.000311  -0.000287  -0.011933   0.003895  -0.000171
     5  C    0.000118  -0.000071   0.000327  -0.000078  -0.000307   0.007533
     6  C   -0.000410  -0.000158   0.003159   0.000243  -0.000260  -0.002793
     7  H    0.007025   0.000260   0.000250   0.000005  -0.000006   0.000005
     8  H    0.000260  -0.021268   0.000013  -0.000254   0.000027  -0.000004
     9  H    0.000250   0.000013  -0.027154   0.000000   0.000013   0.000122
    10  O    0.000005  -0.000254   0.000000   0.478914  -0.000335   0.000003
    11  H   -0.000006   0.000027   0.000013  -0.000335  -0.018915   0.000471
    12  C    0.000005  -0.000004   0.000122   0.000003   0.000471   0.008208
    13  H    0.000000   0.000000   0.000015   0.000000  -0.000002  -0.001486
    14  H    0.000000   0.000000   0.000015   0.000000  -0.000002  -0.001486
    15  H    0.000000   0.000000  -0.000008   0.000001  -0.000109  -0.000317
              13         14         15
     1  C   -0.000028  -0.000028   0.000001
     2  C   -0.000003  -0.000003   0.000002
     3  C   -0.000020  -0.000020   0.000009
     4  C    0.000029   0.000029  -0.000225
     5  C    0.002683   0.002683   0.000450
     6  C    0.000038   0.000037   0.000033
     7  H    0.000000   0.000000   0.000000
     8  H    0.000000   0.000000   0.000000
     9  H    0.000015   0.000015  -0.000008
    10  O    0.000000   0.000000   0.000001
    11  H   -0.000002  -0.000002  -0.000109
    12  C   -0.001486  -0.001486  -0.000317
    13  H   -0.007683   0.001887   0.000167
    14  H    0.001887  -0.007685   0.000167
    15  H    0.000167   0.000167  -0.000925
 Mulliken charges and spin densities:
               1          2
     1  C   -0.073382  -0.169892
     2  C   -0.099762   0.339559
     3  C    0.177656  -0.104962
     4  C   -0.084480   0.295744
     5  C   -0.094352  -0.159007
     6  C   -0.065391   0.428294
     7  H    0.106205   0.007028
     8  H    0.115970  -0.018219
     9  H    0.103389  -0.023118
    10  O   -0.307172   0.419701
    11  H    0.104067  -0.015642
    12  C   -0.253198   0.010077
    13  H    0.127192  -0.004403
    14  H    0.127196  -0.004404
    15  H    0.116060  -0.000755
 Sum of Mulliken charges =   0.00000   1.00000
 Mulliken charges and spin densities with hydrogens summed into heavy atoms:
               1          2
     1  C    0.032823  -0.162865
     2  C    0.016208   0.321339
     3  C    0.177656  -0.104962
     4  C    0.019587   0.280102
     5  C   -0.094352  -0.159007
     6  C    0.037998   0.405177
    10  O   -0.307172   0.419701
    12  C    0.117250   0.000515
 Electronic spatial extent (au):  <R**2>=            940.0599
 Charge=              0.0000 electrons
 Dipole moment (field-independent basis, Debye):
    X=              3.4134    Y=              2.1660    Z=              0.0000  Tot=              4.0426
 Quadrupole moment (field-independent basis, Debye-Ang):
   XX=            -49.3252   YY=            -44.4483   ZZ=            -48.7872
   XY=             -5.5926   XZ=              0.0000   YZ=              0.0000
 Traceless Quadrupole moment (field-independent basis, Debye-Ang):
   XX=             -1.8050   YY=              3.0720   ZZ=             -1.2670
   XY=             -5.5926   XZ=              0.0000   YZ=              0.0000
 Octapole moment (field-independent basis, Debye-Ang**2):
  XXX=             16.0851  YYY=              4.1391  ZZZ=              0.0005  XYY=              5.2592
  XXY=             14.3348  XXZ=              0.0001  XZZ=             -2.2272  YZZ=             -3.4770
  YYZ=             -0.0002  XYZ=             -0.0005
 Hexadecapole moment (field-independent basis, Debye-Ang**3):
 XXXX=           -795.6306 YYYY=           -387.4058 ZZZZ=            -58.6268 XXXY=            -24.8534
 XXXZ=             -0.0012 YYYX=             -4.9862 YYYZ=              0.0007 ZZZX=              0.0010
 ZZZY=             -0.0003 XXYY=           -205.5664 XXZZ=           -135.7807 YYZZ=            -85.5462
 XXYZ=             -0.0004 YYXZ=             -0.0007 ZZXY=              5.7220
 N-N= 3.316110576273D+02 E-N=-1.469544476815D+03  KE= 3.448581894226D+02
                          Isotropic Fermi Contact Couplings
        Atom                 a.u.       MegaHertz       Gauss      10(-4) cm-1
     1  C(13)             -0.02333     -26.22374      -9.35728      -8.74730
     2  C(13)              0.01784      20.05488       7.15608       6.68959
     3  C(13)             -0.03136     -35.25323     -12.57923     -11.75921
     4  C(13)              0.01502      16.88603       6.02535       5.63257
     5  C(13)             -0.02227     -25.03474      -8.93302      -8.35069
     6  C(13)              0.02673      30.04813      10.72192      10.02298
     7  H(1)               0.00170       7.61270       2.71640       2.53932
     8  H(1)              -0.00453     -20.24616      -7.22433      -6.75339
     9  H(1)              -0.00567     -25.34198      -9.04265      -8.45317
    10  O(17)              0.03117     -18.89802      -6.74328      -6.30370
    11  H(1)              -0.00388     -17.35114      -6.19132      -5.78772
    12  C(13)              0.00319       3.58290       1.27847       1.19513
    13  H(1)              -0.00223      -9.98060      -3.56133      -3.32917
    14  H(1)              -0.00223      -9.98315      -3.56224      -3.33002
    15  H(1)              -0.00028      -1.22944      -0.43869      -0.41010
 --------------------------------------------------------
       Center         ----  Spin Dipole Couplings  ----
                      3XX-RR        3YY-RR        3ZZ-RR
 --------------------------------------------------------
     1   Atom        0.078642      0.063234     -0.141875
     2   Atom       -0.176864     -0.175796      0.352660
     3   Atom        0.052634      0.041562     -0.094196
     4   Atom       -0.151945     -0.148141      0.300086
     5   Atom        0.064595      0.071461     -0.136057
     6   Atom       -0.224592     -0.228877      0.453469
     7   Atom        0.007805     -0.002164     -0.005641
     8   Atom        0.014717     -0.010254     -0.004462
     9   Atom        0.008981     -0.007405     -0.001576
    10   Atom       -0.863733     -0.864007      1.727741
    11   Atom       -0.014622      0.019003     -0.004382
    12   Atom        0.002874      0.000465     -0.003338
    13   Atom        0.002425     -0.000426     -0.001999
    14   Atom        0.002425     -0.000425     -0.001999
    15   Atom        0.002858     -0.000680     -0.002177
 --------------------------------------------------------
                        XY            XZ            YZ
 --------------------------------------------------------
     1   Atom        0.003450     -0.000004      0.000001
     2   Atom       -0.003876      0.000017     -0.000008
     3   Atom        0.023560     -0.000002      0.000002
     4   Atom       -0.003534      0.000001     -0.000015
     5   Atom        0.004621      0.000004     -0.000001
     6   Atom        0.007676      0.000015      0.000008
     7   Atom       -0.000161      0.000000      0.000000
     8   Atom       -0.017984     -0.000001      0.000001
     9   Atom        0.029975     -0.000001     -0.000001
    10   Atom        0.000667      0.000072     -0.000056
    11   Atom       -0.008026      0.000000      0.000001
    12   Atom       -0.002304      0.000000      0.000000
    13   Atom       -0.001904     -0.001166      0.000643
    14   Atom       -0.001904      0.001166     -0.000643
    15   Atom       -0.001699      0.000000      0.000000
 --------------------------------------------------------


 ---------------------------------------------------------------------------------
              Anisotropic Spin Dipole Couplings in Principal Axis System
 ---------------------------------------------------------------------------------

       Atom             a.u.   MegaHertz   Gauss  10(-4) cm-1        Axes

              Baa    -0.1419   -19.038    -6.793    -6.350  0.0000  0.0000  1.0000
     1 C(13)  Bbb     0.0625     8.386     2.992     2.797 -0.2090  0.9779  0.0000
              Bcc     0.0794    10.652     3.801     3.553  0.9779  0.2090  0.0000
 
              Baa    -0.1802   -24.187    -8.630    -8.068  0.7538  0.6571  0.0000
     2 C(13)  Bbb    -0.1724   -23.137    -8.256    -7.718 -0.6571  0.7538  0.0000
              Bcc     0.3527    47.324    16.886    15.785  0.0000  0.0000  1.0000
 
              Baa    -0.0942   -12.640    -4.510    -4.216  0.0000  0.0000  1.0000
     3 C(13)  Bbb     0.0229     3.073     1.096     1.025 -0.6210  0.7838  0.0000
              Bcc     0.0713     9.568     3.414     3.191  0.7838  0.6210  0.0000
 
              Baa    -0.1541   -20.673    -7.377    -6.896  0.8585  0.5128  0.0000
     4 C(13)  Bbb    -0.1460   -19.596    -6.992    -6.536 -0.5128  0.8585  0.0000
              Bcc     0.3001    40.269    14.369    13.432  0.0000  0.0000  1.0000
 
              Baa    -0.1361   -18.257    -6.515    -6.090  0.0000  0.0000  1.0000
     5 C(13)  Bbb     0.0623     8.356     2.982     2.787  0.8934 -0.4492  0.0000
              Bcc     0.0738     9.901     3.533     3.303  0.4492  0.8934  0.0000
 
              Baa    -0.2347   -31.495   -11.238   -10.506 -0.6046  0.7965  0.0000
     6 C(13)  Bbb    -0.2188   -29.356   -10.475    -9.792  0.7965  0.6046  0.0000
              Bcc     0.4535    60.851    21.713    20.298  0.0000  0.0000  1.0000
 
              Baa    -0.0056    -3.010    -1.074    -1.004  0.0000  0.0000  1.0000
     7 H(1)   Bbb    -0.0022    -1.156    -0.412    -0.386  0.0162  0.9999  0.0000
              Bcc     0.0078     4.166     1.486     1.390  0.9999 -0.0162  0.0000
 
              Baa    -0.0197   -10.491    -3.743    -3.499  0.4635  0.8861  0.0000
     8 H(1)   Bbb    -0.0045    -2.381    -0.850    -0.794  0.0000  0.0000  1.0000
              Bcc     0.0241    12.872     4.593     4.294  0.8861 -0.4635  0.0000
 
              Baa    -0.0303   -16.159    -5.766    -5.390 -0.6068  0.7949  0.0000
     9 H(1)   Bbb    -0.0016    -0.841    -0.300    -0.281  0.0000  0.0000  1.0000
              Bcc     0.0319    17.000     6.066     5.671  0.7949  0.6068  0.0000
 
              Baa    -0.8646    62.558    22.322    20.867 -0.6320  0.7750  0.0000
    10 O(17)  Bbb    -0.8632    62.460    22.287    20.834  0.7750  0.6320  0.0000
              Bcc     1.7277  -125.018   -44.610   -41.702  0.0000  0.0000  1.0000
 
              Baa    -0.0164    -8.771    -3.130    -2.926  0.9753  0.2208  0.0000
    11 H(1)   Bbb    -0.0044    -2.338    -0.834    -0.780  0.0000  0.0000  1.0000
              Bcc     0.0208    11.109     3.964     3.706 -0.2208  0.9753  0.0000
 
              Baa    -0.0033    -0.448    -0.160    -0.149  0.0001  0.0000  1.0000
    12 C(13)  Bbb    -0.0009    -0.125    -0.045    -0.042  0.5180  0.8554  0.0000
              Bcc     0.0043     0.573     0.204     0.191  0.8554 -0.5180  0.0000
 
              Baa    -0.0023    -1.234    -0.440    -0.412  0.1783 -0.1514  0.9723
    13 H(1)   Bbb    -0.0014    -0.734    -0.262    -0.245  0.4604  0.8861  0.0536
              Bcc     0.0037     1.969     0.702     0.657  0.8696 -0.4380 -0.2277
 
              Baa    -0.0023    -1.234    -0.440    -0.412 -0.1784  0.1515  0.9722
    14 H(1)   Bbb    -0.0014    -0.734    -0.262    -0.245  0.4604  0.8861 -0.0536
              Bcc     0.0037     1.968     0.702     0.657  0.8696 -0.4380  0.2278
 
              Baa    -0.0022    -1.162    -0.415    -0.388  0.0000  0.0000  1.0000
    15 H(1)   Bbb    -0.0014    -0.728    -0.260    -0.243  0.3733  0.9277  0.0000
              Bcc     0.0035     1.890     0.674     0.630  0.9277 -0.3733  0.0000
 

 ---------------------------------------------------------------------------------

 1|1|UNPC-PC-20250526LCFF|SP|UB3LYP|6-311G(d,p)|C7H7O1(2)|ADMINISTRATOR
 |02-Dec-2025|0||# ub3lyp/6-311g(d,p) geom=connectivity temperature=823
 .15||Title Card Required||0,2|C,0,0.327931,1.762128,-0.000001|C,0,1.43
 6429,0.948101,-0.000018|C,0,1.287629,-0.495415,0.000001|C,0,-0.06628,-
 1.019903,0.000035|C,0,-1.169016,-0.19655,0.000024|C,0,-0.962116,1.2055
 95,0.000021|H,0,0.44033,2.840788,-0.00001|H,0,2.445869,1.341478,-0.000
 063|H,0,-1.82416,1.864893,0.000052|O,0,2.281715,-1.255278,-0.000008|H,
 0,-0.163581,-2.100027,0.000059|C,0,-2.574782,-0.745955,-0.000028|H,0,-
 3.128872,-0.407966,0.881004|H,0,-3.128712,-0.40814,-0.881237|H,0,-2.57
 3361,-1.836807,0.000059||Version=EM64W-G16RevA.03|State=2-A|HF=-346.23
 5264|S2=0.787953|S2-1=0.|S2A=0.750995|RMSD=5.559e-009|Dipole=-1.342930
 9,0.8521688,-0.0000141|Quadrupole=-1.3419414,2.2839209,-0.9419796,4.15
 79614,-0.000003,-0.0000203|PG=C01 [X(C7H7O1)]||@


 BUT 'GLORY' DOESN'T MEAN 'A NICE KNOCK DOWN ARGUMENT', ALICE OBJECTED.
 WHEN I USE A WORD, HUMPTY DUMPTY SAID, IN A RATHER SCORNFUL TONE,
 IT MEANS JUST WHAT I CHOOSE IT TO MEAN....
 NEITHER MORE NOR LESS....
 THE QUESTION IS, SAID ALICE,
 WHETHER YOU CAN MAKE WORDS MEAN SO MANY DIFFERENT THINGS...
 THE QUESTION IS, SAID HUMPTY DUMPTY,
 WHICH IS TO BE MASTER....
 THAT IS ALL.....

 ALICE THROUGH THE LOOKING GLASS
 Job cpu time:       0 days  0 hours  0 minutes 25.0 seconds.
 Elapsed time:       0 days  0 hours  0 minutes 25.0 seconds.
 File lengths (MBytes):  RWF=     38 Int=      0 D2E=      0 Chk=      4 Scr=      1
 Normal termination of Gaussian 16 at Tue Dec 02 11:25:49 2025.
