 Generated by Multiwfn (http://sobereva.com/multiwfn)
GAUSSIAN             75 MOL ORBITALS    320 PRIMITIVES       20 NUCLEI
  C    1    (CENTRE  1)  -3.65353760 -0.46612933  0.00007773  CHARGE =  6.0
  C    2    (CENTRE  2)  -2.42387215  1.88197261 -0.00000919  CHARGE =  6.0
  C    3    (CENTRE  3)   0.18967010  2.03642951 -0.00006400  CHARGE =  6.0
  C    4    (CENTRE  4)   1.64604812 -0.19193547 -0.00003565  CHARGE =  6.0
  C    5    (CENTRE  5)   0.45534882 -2.52578508  0.00004750  CHARGE =  6.0
  C    6    (CENTRE  6)  -2.18797929 -2.65030116  0.00010230  CHARGE =  6.0
  H    7    (CENTRE  7)  -3.49122546  3.63167186 -0.00003376  CHARGE =  1.0
  H    8    (CENTRE  8)   1.54894097 -4.25404350  0.00006640  CHARGE =  1.0
  O    9    (CENTRE  9)   4.21181997  0.23387476 -0.00010179  CHARGE =  8.0
  C   10    (CENTRE 10)   5.85233668 -1.88988819 -0.00003187  CHARGE =  6.0
  H   11    (CENTRE 11)   7.76647235 -1.13481967 -0.00006966  CHARGE =  1.0
  H   12    (CENTRE 12)   5.57309758 -3.05319605  1.68947021  CHARGE =  1.0
  H   13    (CENTRE 13)   5.57307868 -3.05332266 -1.68944325  CHARGE =  1.0
  O   14    (CENTRE 14)   1.35108243  4.33241468 -0.00014903  CHARGE =  8.0
  H   15    (CENTRE 15)   3.15066863  4.02088397 -0.00017171  CHARGE =  1.0
  H   16    (CENTRE 16)  -3.09644047 -4.48722461  0.00016655  CHARGE =  1.0
  C   17    (CENTRE 17)  -6.50495291 -0.58749335  0.00015899  CHARGE =  6.0
  H   18    (CENTRE 18)  -7.29820896  0.34962935  1.66519857  CHARGE =  1.0
  H   19    (CENTRE 19)  -7.29831478  0.34987123 -1.66469161  CHARGE =  1.0
  H   20    (CENTRE 20)  -7.16965830 -2.54098265  0.00003994  CHARGE =  1.0
CENTRE ASSIGNMENTS    1  1  1  1  1  1  1  1  1  1  1  1  1  1  1  1  1  1  1  1
CENTRE ASSIGNMENTS    1  1  1  1  1  1  1  1  2  2  2  2  2  2  2  2  2  2  2  2
CENTRE ASSIGNMENTS    2  2  2  2  2  2  2  2  2  2  2  2  2  2  2  2  3  3  3  3
CENTRE ASSIGNMENTS    3  3  3  3  3  3  3  3  3  3  3  3  3  3  3  3  3  3  3  3
CENTRE ASSIGNMENTS    3  3  3  3  4  4  4  4  4  4  4  4  4  4  4  4  4  4  4  4
CENTRE ASSIGNMENTS    4  4  4  4  4  4  4  4  4  4  4  4  5  5  5  5  5  5  5  5
CENTRE ASSIGNMENTS    5  5  5  5  5  5  5  5  5  5  5  5  5  5  5  5  5  5  5  5
CENTRE ASSIGNMENTS    6  6  6  6  6  6  6  6  6  6  6  6  6  6  6  6  6  6  6  6
CENTRE ASSIGNMENTS    6  6  6  6  6  6  6  6  7  7  7  7  8  8  8  8  9  9  9  9
CENTRE ASSIGNMENTS    9  9  9  9  9  9  9  9  9  9  9  9  9  9  9  9  9  9  9  9
CENTRE ASSIGNMENTS    9  9  9  9 10 10 10 10 10 10 10 10 10 10 10 10 10 10 10 10
CENTRE ASSIGNMENTS   10 10 10 10 10 10 10 10 10 10 10 10 11 11 11 11 12 12 12 12
CENTRE ASSIGNMENTS   13 13 13 13 14 14 14 14 14 14 14 14 14 14 14 14 14 14 14 14
CENTRE ASSIGNMENTS   14 14 14 14 14 14 14 14 14 14 14 14 15 15 15 15 16 16 16 16
CENTRE ASSIGNMENTS   17 17 17 17 17 17 17 17 17 17 17 17 17 17 17 17 17 17 17 17
CENTRE ASSIGNMENTS   17 17 17 17 17 17 17 17 18 18 18 18 19 19 19 19 20 20 20 20
TYPE ASSIGNMENTS      1  1  1  1  1  1  1  1  1  2  2  2  3  3  3  4  4  4  1  2
TYPE ASSIGNMENTS      3  4  5  6  7  8  9 10  1  1  1  1  1  1  1  1  1  2  2  2
TYPE ASSIGNMENTS      3  3  3  4  4  4  1  2  3  4  5  6  7  8  9 10  1  1  1  1
TYPE ASSIGNMENTS      1  1  1  1  1  2  2  2  3  3  3  4  4  4  1  2  3  4  5  6
TYPE ASSIGNMENTS      7  8  9 10  1  1  1  1  1  1  1  1  1  2  2  2  3  3  3  4
TYPE ASSIGNMENTS      4  4  1  2  3  4  5  6  7  8  9 10  1  1  1  1  1  1  1  1
TYPE ASSIGNMENTS      1  2  2  2  3  3  3  4  4  4  1  2  3  4  5  6  7  8  9 10
TYPE ASSIGNMENTS      1  1  1  1  1  1  1  1  1  2  2  2  3  3  3  4  4  4  1  2
TYPE ASSIGNMENTS      3  4  5  6  7  8  9 10  1  1  1  1  1  1  1  1  1  1  1  1
TYPE ASSIGNMENTS      1  1  1  1  1  2  2  2  3  3  3  4  4  4  1  2  3  4  5  6
TYPE ASSIGNMENTS      7  8  9 10  1  1  1  1  1  1  1  1  1  2  2  2  3  3  3  4
TYPE ASSIGNMENTS      4  4  1  2  3  4  5  6  7  8  9 10  1  1  1  1  1  1  1  1
TYPE ASSIGNMENTS      1  1  1  1  1  1  1  1  1  1  1  1  1  2  2  2  3  3  3  4
TYPE ASSIGNMENTS      4  4  1  2  3  4  5  6  7  8  9 10  1  1  1  1  1  1  1  1
TYPE ASSIGNMENTS      1  1  1  1  1  1  1  1  1  2  2  2  3  3  3  4  4  4  1  2
TYPE ASSIGNMENTS      3  4  5  6  7  8  9 10  1  1  1  1  1  1  1  1  1  1  1  1
EXPONENTS  0.3047525D+04 0.4573695D+03 0.1039487D+03 0.2921016D+02 0.9286663D+01
EXPONENTS  0.3163927D+01 0.7868272D+01 0.1881289D+01 0.5442493D+00 0.7868272D+01
EXPONENTS  0.1881289D+01 0.5442493D+00 0.7868272D+01 0.1881289D+01 0.5442493D+00
EXPONENTS  0.7868272D+01 0.1881289D+01 0.5442493D+00 0.1687145D+00 0.1687145D+00
EXPONENTS  0.1687145D+00 0.1687145D+00 0.8000000D+00 0.8000000D+00 0.8000000D+00
EXPONENTS  0.8000000D+00 0.8000000D+00 0.8000000D+00 0.3047525D+04 0.4573695D+03
EXPONENTS  0.1039487D+03 0.2921016D+02 0.9286663D+01 0.3163927D+01 0.7868272D+01
EXPONENTS  0.1881289D+01 0.5442493D+00 0.7868272D+01 0.1881289D+01 0.5442493D+00
EXPONENTS  0.7868272D+01 0.1881289D+01 0.5442493D+00 0.7868272D+01 0.1881289D+01
EXPONENTS  0.5442493D+00 0.1687145D+00 0.1687145D+00 0.1687145D+00 0.1687145D+00
EXPONENTS  0.8000000D+00 0.8000000D+00 0.8000000D+00 0.8000000D+00 0.8000000D+00
EXPONENTS  0.8000000D+00 0.3047525D+04 0.4573695D+03 0.1039487D+03 0.2921016D+02
EXPONENTS  0.9286663D+01 0.3163927D+01 0.7868272D+01 0.1881289D+01 0.5442493D+00
EXPONENTS  0.7868272D+01 0.1881289D+01 0.5442493D+00 0.7868272D+01 0.1881289D+01
EXPONENTS  0.5442493D+00 0.7868272D+01 0.1881289D+01 0.5442493D+00 0.1687145D+00
EXPONENTS  0.1687145D+00 0.1687145D+00 0.1687145D+00 0.8000000D+00 0.8000000D+00
EXPONENTS  0.8000000D+00 0.8000000D+00 0.8000000D+00 0.8000000D+00 0.3047525D+04
EXPONENTS  0.4573695D+03 0.1039487D+03 0.2921016D+02 0.9286663D+01 0.3163927D+01
EXPONENTS  0.7868272D+01 0.1881289D+01 0.5442493D+00 0.7868272D+01 0.1881289D+01
EXPONENTS  0.5442493D+00 0.7868272D+01 0.1881289D+01 0.5442493D+00 0.7868272D+01
EXPONENTS  0.1881289D+01 0.5442493D+00 0.1687145D+00 0.1687145D+00 0.1687145D+00
EXPONENTS  0.1687145D+00 0.8000000D+00 0.8000000D+00 0.8000000D+00 0.8000000D+00
EXPONENTS  0.8000000D+00 0.8000000D+00 0.3047525D+04 0.4573695D+03 0.1039487D+03
EXPONENTS  0.2921016D+02 0.9286663D+01 0.3163927D+01 0.7868272D+01 0.1881289D+01
EXPONENTS  0.5442493D+00 0.7868272D+01 0.1881289D+01 0.5442493D+00 0.7868272D+01
EXPONENTS  0.1881289D+01 0.5442493D+00 0.7868272D+01 0.1881289D+01 0.5442493D+00
EXPONENTS  0.1687145D+00 0.1687145D+00 0.1687145D+00 0.1687145D+00 0.8000000D+00
EXPONENTS  0.8000000D+00 0.8000000D+00 0.8000000D+00 0.8000000D+00 0.8000000D+00
EXPONENTS  0.3047525D+04 0.4573695D+03 0.1039487D+03 0.2921016D+02 0.9286663D+01
EXPONENTS  0.3163927D+01 0.7868272D+01 0.1881289D+01 0.5442493D+00 0.7868272D+01
EXPONENTS  0.1881289D+01 0.5442493D+00 0.7868272D+01 0.1881289D+01 0.5442493D+00
EXPONENTS  0.7868272D+01 0.1881289D+01 0.5442493D+00 0.1687145D+00 0.1687145D+00
EXPONENTS  0.1687145D+00 0.1687145D+00 0.8000000D+00 0.8000000D+00 0.8000000D+00
EXPONENTS  0.8000000D+00 0.8000000D+00 0.8000000D+00 0.1873114D+02 0.2825394D+01
EXPONENTS  0.6401217D+00 0.1612778D+00 0.1873114D+02 0.2825394D+01 0.6401217D+00
EXPONENTS  0.1612778D+00 0.5484672D+04 0.8252349D+03 0.1880470D+03 0.5296450D+02
EXPONENTS  0.1689757D+02 0.5799635D+01 0.1553962D+02 0.3599934D+01 0.1013762D+01
EXPONENTS  0.1553962D+02 0.3599934D+01 0.1013762D+01 0.1553962D+02 0.3599934D+01
EXPONENTS  0.1013762D+01 0.1553962D+02 0.3599934D+01 0.1013762D+01 0.2700058D+00
EXPONENTS  0.2700058D+00 0.2700058D+00 0.2700058D+00 0.8000000D+00 0.8000000D+00
EXPONENTS  0.8000000D+00 0.8000000D+00 0.8000000D+00 0.8000000D+00 0.3047525D+04
EXPONENTS  0.4573695D+03 0.1039487D+03 0.2921016D+02 0.9286663D+01 0.3163927D+01
EXPONENTS  0.7868272D+01 0.1881289D+01 0.5442493D+00 0.7868272D+01 0.1881289D+01
EXPONENTS  0.5442493D+00 0.7868272D+01 0.1881289D+01 0.5442493D+00 0.7868272D+01
EXPONENTS  0.1881289D+01 0.5442493D+00 0.1687145D+00 0.1687145D+00 0.1687145D+00
EXPONENTS  0.1687145D+00 0.8000000D+00 0.8000000D+00 0.8000000D+00 0.8000000D+00
EXPONENTS  0.8000000D+00 0.8000000D+00 0.1873114D+02 0.2825394D+01 0.6401217D+00
EXPONENTS  0.1612778D+00 0.1873114D+02 0.2825394D+01 0.6401217D+00 0.1612778D+00
EXPONENTS  0.1873114D+02 0.2825394D+01 0.6401217D+00 0.1612778D+00 0.5484672D+04
EXPONENTS  0.8252349D+03 0.1880470D+03 0.5296450D+02 0.1689757D+02 0.5799635D+01
EXPONENTS  0.1553962D+02 0.3599934D+01 0.1013762D+01 0.1553962D+02 0.3599934D+01
EXPONENTS  0.1013762D+01 0.1553962D+02 0.3599934D+01 0.1013762D+01 0.1553962D+02
EXPONENTS  0.3599934D+01 0.1013762D+01 0.2700058D+00 0.2700058D+00 0.2700058D+00
EXPONENTS  0.2700058D+00 0.8000000D+00 0.8000000D+00 0.8000000D+00 0.8000000D+00
EXPONENTS  0.8000000D+00 0.8000000D+00 0.1873114D+02 0.2825394D+01 0.6401217D+00
EXPONENTS  0.1612778D+00 0.1873114D+02 0.2825394D+01 0.6401217D+00 0.1612778D+00
EXPONENTS  0.3047525D+04 0.4573695D+03 0.1039487D+03 0.2921016D+02 0.9286663D+01
EXPONENTS  0.3163927D+01 0.7868272D+01 0.1881289D+01 0.5442493D+00 0.7868272D+01
EXPONENTS  0.1881289D+01 0.5442493D+00 0.7868272D+01 0.1881289D+01 0.5442493D+00
EXPONENTS  0.7868272D+01 0.1881289D+01 0.5442493D+00 0.1687145D+00 0.1687145D+00
EXPONENTS  0.1687145D+00 0.1687145D+00 0.8000000D+00 0.8000000D+00 0.8000000D+00
EXPONENTS  0.8000000D+00 0.8000000D+00 0.8000000D+00 0.1873114D+02 0.2825394D+01
EXPONENTS  0.6401217D+00 0.1612778D+00 0.1873114D+02 0.2825394D+01 0.6401217D+00
EXPONENTS  0.1612778D+00 0.1873114D+02 0.2825394D+01 0.6401217D+00 0.1612778D+00
MO    1     MO 0.0        OCC NO =    1.0000000  ORB. ENERGY =  -19.004571
  0.58677518D-05  0.10824856D-04  0.17474674D-04  0.22746834D-04  0.19409915D-04
  0.67017771D-05 -0.25691122D-04 -0.11841015D-04  0.33203441D-04  0.25787950D-04
  0.19772564D-04  0.98678953D-05  0.12145807D-04  0.93126344D-05  0.46476572D-05
 -0.62037847D-09 -0.47566687D-09 -0.23739110D-09 -0.21850720D-03 -0.12831340D-03
 -0.14514166D-04  0.29498922D-08  0.12012791D-04 -0.31638779D-04  0.25881553D-04
  0.16259372D-04  0.12298341D-09  0.26358387D-08  0.47694186D-05  0.87986460D-05
  0.14203743D-04  0.18489053D-04  0.15776742D-04  0.54473299D-05 -0.11499846D-04
 -0.53002685D-05  0.14862506D-04  0.71677607D-04  0.54957843D-04  0.27427815D-04
 -0.25394849D-04 -0.19471159D-04 -0.97174732D-05 -0.76380591D-09 -0.58563792D-09
 -0.29227437D-09  0.23378337D-03  0.32524891D-04 -0.11147888D-03  0.26459703D-08
  0.18887294D-04  0.23640823D-04  0.31848341D-04  0.77063970D-05  0.10354415D-08
  0.16922525D-09  0.12846835D-04  0.23699903D-04  0.38258992D-04  0.49801839D-04
  0.42496000D-04  0.14672847D-04 -0.67930481D-04 -0.31309096D-04  0.87793975D-04
  0.55849644D-04  0.42821965D-04  0.21371162D-04  0.68563064D-04  0.52569809D-04
  0.26236019D-04 -0.25388859D-08 -0.19466567D-08 -0.97151812D-09 -0.10780506D-03
  0.19429785D-03  0.31751584D-03 -0.13040883D-07 -0.40107381D-04  0.60106992D-04
  0.31486462D-04  0.10243543D-03  0.80950611D-10 -0.34630389D-08 -0.25562845D-04
 -0.47158457D-04 -0.76128371D-04 -0.99096520D-04 -0.84559240D-04 -0.29196273D-04
 -0.28635070D-04 -0.13197877D-04  0.37008226D-04  0.55227345D-03  0.42344825D-03
  0.21133036D-03  0.17302776D-03  0.13266671D-03  0.66209989D-04 -0.18854514D-07
 -0.14456446D-07 -0.72147795D-08  0.23711288D-04 -0.72412501D-03 -0.25797384D-03
  0.23060668D-07  0.92050380D-04 -0.10498315D-04 -0.91971255D-04  0.17376745D-03
 -0.13102644D-07 -0.90751880D-08  0.11527379D-04  0.21265764D-04  0.34329537D-04
  0.44686857D-04  0.38131376D-04  0.13165848D-04 -0.79075185D-04 -0.36445681D-04
  0.10219749D-03 -0.86098701D-04 -0.66015023D-04 -0.32946123D-04 -0.52614388D-04
 -0.40341376D-04 -0.20133174D-04  0.30849339D-08  0.23653316D-08  0.11804662D-08
 -0.62171680D-03  0.20346533D-03 -0.28931060D-03  0.26114645D-08 -0.67222286D-04
 -0.87643519D-04  0.49861775D-04 -0.93472216D-05  0.45608676D-08  0.56597621D-08
 -0.42225497D-05 -0.77897797D-05 -0.12575120D-04 -0.16369069D-04 -0.13967757D-04
 -0.48227307D-05  0.25498545D-04  0.11752256D-04 -0.32954553D-04  0.87258700D-04
  0.66904437D-04  0.33390003D-04  0.75379930D-05  0.57796549D-05  0.28844529D-05
 -0.16936577D-08 -0.12985893D-08 -0.64808706D-09  0.36805003D-03  0.10286805D-03
  0.11621683D-03 -0.47509685D-08  0.53293462D-04 -0.25122161D-05 -0.42753243D-05
 -0.16390785D-04 -0.13660959D-08  0.33280934D-09  0.60063048D-05  0.10187830D-04
  0.11598484D-04  0.24412554D-04 -0.16111203D-04 -0.27327649D-04 -0.31111563D-04
 -0.12092973D-03  0.82556768D+00  0.15194852D+01  0.24588139D+01  0.32321797D+01
  0.27722218D+01  0.94786971D+00 -0.15700990D-01 -0.70057514D-02  0.20688078D-01
 -0.56284794D-03 -0.43364400D-03 -0.19039307D-03 -0.27333267D-02 -0.21058809D-02
 -0.92459513D-03  0.13921626D-06  0.10725862D-06  0.47092311D-07  0.41561264D-02
 -0.35031530D-03  0.23205811D-04  0.69130043D-08 -0.94998027D-02 -0.96071697D-02
 -0.94426182D-02  0.16298905D-03 -0.64804576D-08  0.13136881D-07  0.68900671D-05
  0.12710828D-04  0.20519218D-04  0.26709925D-04  0.22791628D-04  0.78694013D-05
 -0.75211960D-04 -0.34665124D-04  0.97204625D-04 -0.28409623D-03 -0.21782697D-03
 -0.10871092D-03  0.50804510D-03  0.38953676D-03  0.19440614D-03 -0.18987004D-07
 -0.14558031D-07 -0.72654776D-08 -0.30265991D-03  0.42756780D-04 -0.11320843D-03
  0.42680050D-08  0.17144173D-03  0.36383554D-03  0.23467120D-04 -0.45994431D-03
  0.14933929D-07 -0.25722494D-07  0.25271092D-04  0.42864556D-04  0.48799782D-04
  0.25202637D-04  0.12210063D-04  0.20710577D-04  0.23578260D-04  0.10306028D-04
  0.12210400D-04  0.20711149D-04  0.23578911D-04  0.10305646D-04  0.26065749D-04
  0.47974893D-04  0.77632432D-04  0.10205001D-03  0.87527696D-04  0.29927206D-04
 -0.10181558D-03 -0.45429915D-04  0.13415515D-03 -0.16242427D-03 -0.12513914D-03
 -0.54942823D-04 -0.19491317D-03 -0.15017009D-03 -0.65932757D-04  0.66944895D-08
  0.51577432D-08  0.22645271D-08 -0.30046983D-03  0.18077279D-03  0.15726389D-03
 -0.71368339D-08  0.15507620D-03  0.49075934D-05  0.11429657D-03 -0.10008661D-03
  0.15515926D-08  0.72675021D-08 -0.62060293D-05 -0.10526600D-04 -0.11984162D-04
 -0.15697861D-03  0.40899884D-05  0.69373945D-05  0.78979784D-05  0.30681831D-04
  0.13350498D-05  0.24629062D-05  0.39758942D-05  0.51754329D-05  0.44162063D-05
  0.15248099D-05 -0.57178910D-05 -0.26353708D-05  0.73898547D-05 -0.15284296D-04
 -0.11719029D-04 -0.58486166D-05  0.74200691D-05  0.56892383D-05  0.28393287D-05
 -0.78957898D-10 -0.60539908D-10 -0.30213657D-10 -0.59548317D-04 -0.16637358D-04
 -0.59774425D-05  0.10853051D-08 -0.24554574D-05  0.56014933D-05  0.95819187D-07
 -0.60587362D-05  0.48767567D-09  0.20194471D-08  0.20191920D-05  0.34249318D-05
  0.38991638D-05  0.23649591D-05  0.20195391D-05  0.34255206D-05  0.38998341D-05
  0.23656778D-05 -0.48247711D-06 -0.81837250D-06 -0.93168816D-06  0.16796473D-05
MO    2     MO 0.0        OCC NO =    1.0000000  ORB. ENERGY =  -18.984328
 -0.87913522D-06 -0.16218328D-05 -0.26181410D-05 -0.34080417D-05 -0.29080882D-05
 -0.10040930D-05  0.15464999D-04  0.71278037D-05 -0.19987106D-04  0.62516675D-04
  0.47933821D-04  0.23922336D-04  0.59198045D-04  0.45389306D-04  0.22652445D-04
 -0.25906518D-08 -0.19863475D-08 -0.99132659D-09  0.37768955D-03  0.10735424D-03
  0.19127162D-04 -0.26974379D-08  0.15638105D-04  0.45327141D-04  0.15302355D-04
 -0.10365748D-05 -0.68495853D-09 -0.15698014D-08  0.76288215D-05  0.14073686D-04
  0.22719293D-04  0.29573769D-04  0.25235351D-04  0.87131602D-05 -0.67618397D-04
 -0.31165257D-04  0.87390635D-04 -0.97935306D-05 -0.75090581D-05 -0.37475463D-05
 -0.74009865D-05 -0.56746071D-05 -0.28320266D-05  0.21868090D-09  0.16767064D-09
  0.83679403D-10 -0.40199044D-03 -0.13895067D-03  0.31806229D-03 -0.57426182D-08
 -0.89098023D-04 -0.56662667D-04  0.33443385D-04  0.31427029D-04  0.35670695D-08
  0.47722352D-08 -0.36143201D-04 -0.66677148D-04 -0.10763759D-03 -0.14011216D-03
 -0.11955796D-03 -0.41280491D-04 -0.20120157D-04 -0.92733620D-05  0.26003475D-04
  0.21106684D-03  0.16183267D-03  0.80765844D-04  0.52585141D-03  0.40318951D-03
  0.20121982D-03 -0.18426842D-07 -0.14128534D-07 -0.70511286D-08  0.22565080D-03
 -0.28321505D-03 -0.86564820D-03  0.28598167D-07 -0.79042544D-04 -0.21832833D-04
 -0.13411883D-03 -0.92594733D-04  0.54491782D-09 -0.36030341D-08  0.26992336D-04
  0.49795590D-04  0.80385522D-04  0.10463807D-03  0.89287851D-04  0.30828949D-04
 -0.12380974D-03 -0.57063797D-04  0.16001284D-03  0.17223014D-04  0.13205515D-04
  0.65904773D-05 -0.51813316D-04 -0.39727165D-04 -0.19826639D-04  0.51592024D-09
  0.39557491D-09  0.19741961D-09 -0.71317607D-03  0.60602517D-03  0.21959295D-04
 -0.13045072D-07  0.67735045D-04 -0.74407462D-04  0.82219088D-04  0.70689822D-04
 -0.17720513D-08  0.62766611D-08 -0.49668751D-05 -0.91629148D-05 -0.14791786D-04
 -0.19254510D-04 -0.16429908D-04 -0.56728524D-05  0.27221860D-04  0.12546531D-04
 -0.35181781D-04  0.53556443D-04  0.41063684D-04  0.20493656D-04  0.92537755D-04
  0.70952081D-04  0.35410061D-04 -0.37978178D-08 -0.29119258D-08 -0.14532551D-08
  0.50302658D-03 -0.14772994D-03  0.22889016D-03 -0.25628374D-08  0.15732901D-05
  0.42278561D-04 -0.40394028D-05  0.15884954D-04 -0.23018240D-09 -0.27426127D-08
  0.94707540D-05  0.17471692D-04  0.28204728D-04  0.36714175D-04  0.31328272D-04
  0.10816900D-04 -0.39535000D-04 -0.18221645D-04  0.51095395D-04 -0.23825336D-04
 -0.18267756D-04 -0.91168908D-05  0.27306609D-04  0.20936976D-04  0.10449018D-04
  0.14409584D-10  0.11048355D-10  0.55139033D-11 -0.34032248D-03 -0.81169463D-04
 -0.13305378D-03  0.47232796D-08 -0.29166251D-04  0.11638333D-04  0.39115103D-04
  0.30250860D-04  0.15269451D-08  0.44564254D-09 -0.11067317D-04 -0.18772265D-04
 -0.21371560D-04 -0.14403400D-03  0.11450547D-04  0.19422295D-04  0.22111597D-04
  0.87083844D-04  0.43359002D-04  0.79803710D-04  0.12913747D-03  0.16975481D-03
  0.14559772D-03  0.49782333D-04 -0.15921268D-03 -0.71040387D-04  0.20978322D-03
 -0.15584360D-03 -0.12006909D-03 -0.52716797D-04 -0.88956957D-04 -0.68536539D-04
 -0.30091232D-04  0.36459235D-08  0.28089875D-08  0.12332968D-08 -0.47073036D-03
  0.18690351D-03  0.79735708D-04 -0.52739435D-08  0.77491811D-04  0.18000031D-03
  0.16344583D-03 -0.45982569D-04  0.49115185D-08  0.26739327D-09  0.10473222D-04
  0.19321049D-04  0.31190164D-04  0.40600326D-04  0.34644332D-04  0.11961855D-04
 -0.32700530D-04 -0.15071644D-04  0.42262464D-04 -0.58611255D-04 -0.44939393D-04
 -0.22427907D-04  0.27637031D-04  0.21190323D-04  0.10575456D-04 -0.74733013D-09
 -0.57300534D-09 -0.28596982D-09 -0.51418367D-04  0.30191715D-04 -0.13718953D-04
 -0.77782478D-10  0.33952450D-04  0.16393038D-04  0.41547401D-04  0.11043794D-05
  0.15215780D-08  0.14536528D-08 -0.63923349D-06 -0.10842610D-05 -0.12343928D-05
 -0.73286777D-05  0.48439384D-05  0.82162363D-05  0.93538947D-05 -0.55282636D-05
  0.48439773D-05  0.82163023D-05  0.93539697D-05 -0.55286291D-05  0.82560729D+00
  0.15195581D+01  0.24589319D+01  0.32323348D+01  0.27723548D+01  0.94791519D+00
 -0.15739920D-01 -0.70231215D-02  0.20739372D-01  0.18092513D-02  0.13939306D-02
  0.61201062D-03 -0.24937318D-02 -0.19212859D-02 -0.84354801D-03  0.39443525D-07
  0.30389110D-07  0.13342456D-07  0.40476849D-02 -0.25048339D-03 -0.33026167D-03
  0.14056182D-07 -0.92984977D-02 -0.92742757D-02 -0.92828360D-02  0.17765514D-03
 -0.45876640D-08 -0.39864777D-08  0.84503351D-04  0.14333368D-03  0.16318033D-03
 -0.20448004D-03 -0.53749859D-05 -0.91169935D-05 -0.10379375D-04 -0.40876244D-04
  0.55130895D-05  0.10170574D-04  0.16418459D-04  0.21371956D-04  0.18236728D-04
  0.62967041D-05 -0.18964404D-04 -0.87406764D-05  0.24509769D-04  0.35877796D-06
  0.27508818D-06  0.13728828D-06  0.22376139D-05  0.17156604D-05  0.85623481D-06
 -0.23518150D-09 -0.18032226D-09 -0.89993446D-10 -0.26440617D-04 -0.10107888D-04
 -0.22979369D-05  0.20072916D-09 -0.37266143D-05  0.20590573D-04  0.21080865D-04
  0.69644691D-06  0.10741025D-08  0.28865133D-09  0.20231179D-05  0.34315909D-05
  0.39067449D-05  0.41271628D-05  0.20231177D-05  0.34315906D-05  0.39067446D-05
  0.41272563D-05  0.25271726D-05  0.42865631D-05  0.48801006D-05  0.68620674D-06
MO    3     MO 0.0        OCC NO =    1.0000000  ORB. ENERGY =  -10.100767
 -0.30248285D-05 -0.55802179D-05 -0.90082019D-05 -0.11726002D-04 -0.10005819D-04
 -0.34547689D-05  0.11233632D-04  0.51775706D-05 -0.14518449D-04 -0.63687163D-05
 -0.48831277D-05 -0.24370230D-05  0.47215234D-04  0.36201647D-04  0.18067159D-04
 -0.50782993D-09 -0.38937178D-09 -0.19432381D-09  0.13583837D-03  0.44853139D-04
  0.91117785D-04 -0.38329202D-08 -0.12307190D-04  0.13938940D-04 -0.11896938D-04
  0.48652157D-04 -0.11799771D-08 -0.23064736D-08  0.81255691D-05  0.14990088D-04
  0.24198651D-04  0.31499453D-04  0.26878540D-04  0.92805140D-05 -0.32815005D-04
 -0.15124406D-04  0.42410412D-04 -0.89700347D-04 -0.68776537D-04 -0.34324312D-04
 -0.31551597D-04 -0.24191764D-04 -0.12073386D-04  0.19915230D-08  0.15269735D-08
  0.76206679D-09 -0.32445687D-03 -0.49904255D-04  0.19326005D-03 -0.34090239D-08
 -0.27100869D-04  0.90014047D-05  0.19481327D-04  0.30733626D-04  0.17615945D-08
  0.72383964D-10 -0.34451873D-04 -0.63556978D-04 -0.10260067D-03 -0.13355559D-03
 -0.11396322D-03 -0.39348762D-04  0.10678815D-03  0.49218562D-04 -0.13801399D-03
  0.10330882D-03  0.79210653D-04  0.39531667D-04 -0.24473460D-04 -0.18764697D-04
 -0.93648987D-05 -0.25824057D-09 -0.19800249D-09 -0.98817120D-10  0.74624734D-03
 -0.21613968D-04 -0.44143845D-03  0.10409935D-07  0.13973496D-05 -0.21911691D-04
 -0.90395229D-04 -0.64642815D-04 -0.22632397D-08 -0.14417019D-08 -0.93261602D-05
 -0.17204945D-04 -0.27774115D-04 -0.36153645D-04 -0.30849971D-04 -0.10651754D-04
  0.40234803D-04  0.18544184D-04 -0.51999827D-04 -0.12475642D-03 -0.95655310D-04
 -0.47738703D-04  0.18286235D-03  0.14020725D-03  0.69973245D-04 -0.54495268D-08
 -0.41783515D-08 -0.20852902D-08 -0.27967181D-03  0.46192407D-03 -0.44192013D-03
  0.47519587D-08  0.21864979D-03  0.14917360D-04 -0.40307904D-04  0.97889027D-04
 -0.95825673D-08 -0.86485732D-08  0.19939636D-05  0.36784735D-05  0.59381968D-05
  0.77297678D-05  0.65958249D-05  0.22773798D-05 -0.30153215D-04 -0.13897589D-04
  0.38970291D-04 -0.13192284D-03 -0.10115007D-03 -0.50480972D-04 -0.20511977D-04
 -0.15727283D-04 -0.78490166D-05  0.32691674D-08  0.25065902D-08  0.12509642D-08
 -0.22808848D-03 -0.57732534D-04  0.56234525D-05  0.35552915D-09 -0.11231377D-03
  0.37969573D-04 -0.90371602D-05 -0.98017200D-04  0.74516940D-08 -0.31001279D-08
 -0.15317079D-04 -0.28257020D-04 -0.45615592D-04 -0.59377947D-04 -0.50667310D-04
 -0.17494204D-04  0.52615553D-04  0.24250460D-04 -0.68000822D-04  0.41644356D-05
  0.31930251D-05  0.15935433D-05 -0.43616522D-04 -0.33442382D-04 -0.16690093D-04
  0.19144770D-08  0.14678995D-08  0.73258474D-09  0.10494072D-03  0.31583518D-04
  0.52295904D-04 -0.18798292D-08  0.47576589D-04 -0.20047287D-04 -0.68113292D-04
  0.70034264D-05 -0.43592653D-08 -0.25015509D-08 -0.12023037D-04 -0.20393347D-04
 -0.23217105D-04 -0.48264179D-04  0.94606038D-05  0.16046975D-04  0.18268913D-04
  0.47797385D-04 -0.56844622D-04 -0.10462445D-03 -0.16930211D-03 -0.22255236D-03
 -0.19088187D-03 -0.65265752D-04 -0.30513830D-04 -0.13615212D-04  0.40205903D-04
 -0.19365271D-03 -0.14919897D-03 -0.65506385D-04 -0.16053671D-03 -0.12368488D-03
 -0.54304323D-04  0.52944950D-08  0.40791230D-08  0.17909547D-08  0.18223930D-03
  0.12661527D-03  0.21579112D-03 -0.92812921D-08 -0.35188524D-03 -0.50495619D-03
  0.12454123D-03  0.54169074D-03 -0.12788295D-07  0.48290339D-07  0.53256367D+00
  0.98247597D+00  0.15860208D+01  0.20645279D+01  0.17616654D+01  0.60826073D+00
 -0.19685359D-01 -0.90729638D-02  0.25441537D-01 -0.63432366D-03 -0.48635915D-03
 -0.24272730D-03  0.67183604D-03  0.51512126D-03  0.25708161D-03 -0.23959902D-07
 -0.18370933D-07 -0.91683830D-08 -0.26622789D-02  0.91174912D-04  0.55511452D-04
 -0.34864299D-08 -0.99869947D-02 -0.99366034D-02 -0.10104895D-01 -0.18014470D-03
  0.87863331D-08 -0.10449368D-07 -0.48298665D-04 -0.81923678D-04 -0.93267212D-04
  0.41097824D-03 -0.10462329D-04 -0.17746091D-04 -0.20203297D-04  0.48791036D-03
 -0.10463106D-04 -0.17747409D-04 -0.20204797D-04  0.48791096D-03 -0.44884969D-04
 -0.82612303D-04 -0.13368230D-03 -0.17572913D-03 -0.15072185D-03 -0.51534360D-04
  0.14843229D-03  0.66230197D-04 -0.19557866D-03  0.43752176D-04  0.33708693D-04
  0.14799932D-04 -0.50542989D-05 -0.38940648D-05 -0.17097042D-05 -0.26719841D-08
 -0.20586197D-08 -0.90384493D-09  0.40241646D-03 -0.45058716D-04 -0.57367341D-04
  0.34206032D-08 -0.13599333D-03 -0.17322514D-03 -0.17169331D-03  0.25450836D-04
 -0.27924441D-08 -0.14528840D-08 -0.83208478D-06 -0.14113733D-05 -0.16067986D-05
 -0.38840212D-04  0.13915527D-05  0.23603367D-05  0.26871599D-05  0.26131339D-04
 -0.21888307D-05 -0.40379653D-05 -0.65185280D-05 -0.84851866D-05 -0.72404251D-05
 -0.24999448D-05  0.46991604D-05  0.21658388D-05 -0.60732379D-05 -0.54442165D-05
 -0.41742799D-05 -0.20832582D-05  0.68895232D-05  0.52824494D-05  0.26363125D-05
 -0.67712542D-09 -0.51917683D-09 -0.25910562D-09  0.18536595D-04  0.82919018D-05
 -0.24197748D-04  0.95414527D-09 -0.37097926D-06  0.50960519D-05 -0.17489465D-04
 -0.35808099D-04 -0.25889236D-09  0.55173669D-08  0.13150291D-05  0.22305382D-05
  0.25393889D-05  0.40786360D-05  0.13156677D-05  0.22316215D-05  0.25406222D-05
  0.40809179D-05 -0.40627991D-05 -0.68912762D-05 -0.78454744D-05 -0.72849802D-05
MO    4     MO 0.0        OCC NO =    1.0000000  ORB. ENERGY =  -10.025644
  0.46475537D-04  0.85738291D-04  0.13840819D-03  0.18016633D-03  0.15373626D-03
  0.53081436D-04 -0.10833357D-03 -0.49930844D-04  0.14001130D-03 -0.86787300D-04
 -0.66542997D-04 -0.33209619D-04 -0.74867544D-04 -0.57403684D-04 -0.28648462D-04
  0.31617667D-08  0.24242422D-08  0.12098667D-08 -0.15102150D-02 -0.59652046D-03
 -0.25609931D-03  0.18736738D-07  0.17434621D-04  0.24720187D-04  0.62375164D-04
 -0.26012735D-05  0.47400718D-08  0.17652851D-08  0.16007731D-02  0.29531138D-02
  0.47672413D-02  0.62055317D-02  0.52951914D-02  0.18283023D-02  0.31358306D-03
  0.14453015D-03 -0.40527762D-03 -0.33716575D-03 -0.25851731D-03 -0.12901826D-03
  0.10909875D-03  0.83650005D-04  0.41747215D-04  0.52181061D-08  0.40009128D-08
  0.19967359D-08  0.26276753D-02  0.72153709D-03 -0.10106135D-02  0.12006433D-07
 -0.35445882D-03 -0.28689121D-03 -0.36929881D-03 -0.25583899D-03  0.64517359D-08
 -0.59706241D-09  0.53246421D+00  0.98229249D+00  0.15857247D+01  0.20641423D+01
  0.17613364D+01  0.60814713D+00 -0.19799025D-01 -0.91253525D-02  0.25588441D-01
  0.69243420D-03  0.53091463D-03  0.26496361D-03  0.12255191D-02  0.93965030D-03
  0.46895136D-03 -0.51190616D-07 -0.39249718D-07 -0.19588360D-07 -0.39600050D-02
  0.84213733D-03  0.17707178D-02 -0.61588817D-07 -0.98631954D-02 -0.93985579D-02
 -0.10370997D-01  0.71691295D-03 -0.39632805D-07 -0.68932859D-07  0.10762765D-01
  0.19855200D-01  0.32052450D-01  0.41722766D-01  0.35602112D-01  0.12292554D-01
 -0.35401054D-04 -0.16316314D-04  0.45752646D-04  0.27383908D-03  0.20996244D-03
  0.10478597D-03 -0.29428225D-03 -0.22563697D-03 -0.11260866D-03  0.31340229D-08
  0.24029700D-08  0.11992504D-08  0.24842987D-02 -0.13675526D-02  0.17803895D-03
  0.22679365D-07 -0.53258449D-03 -0.77060000D-03 -0.55802970D-03 -0.88738343D-04
  0.21876259D-08  0.12822428D-07  0.49024313D-04  0.90440284D-04  0.14599866D-03
  0.19004688D-03  0.16216734D-03  0.55992487D-04 -0.61018205D-04 -0.28123235D-04
  0.78860487D-04 -0.28040791D-04 -0.21499900D-04 -0.10729957D-04 -0.14312964D-03
 -0.10974273D-03 -0.54769312D-04  0.52931744D-08  0.40584704D-08  0.20254612D-08
 -0.13807979D-02  0.38392759D-03 -0.56729286D-03  0.61473946D-08  0.53070804D-04
  0.70010479D-04  0.24628261D-04  0.71846446D-04 -0.32349473D-08 -0.30759375D-08
 -0.65203456D-04 -0.12028764D-03 -0.19418155D-03 -0.25276669D-03 -0.21568627D-03
 -0.74471286D-04  0.12610460D-03  0.58121496D-04 -0.16297874D-03 -0.25636044D-04
 -0.19656093D-04 -0.98097678D-05 -0.61079908D-04 -0.46832200D-04 -0.23372550D-04
  0.52017538D-09  0.39883749D-09  0.19904786D-09  0.10395851D-02  0.32139144D-03
  0.46063645D-03 -0.17043151D-07  0.13016906D-04 -0.24181697D-04 -0.12056934D-03
 -0.33420537D-04 -0.33729019D-08 -0.30663531D-08  0.44481421D-04  0.75448909D-04
  0.85895916D-04  0.35194151D-03 -0.19907482D-04 -0.33766857D-04 -0.38442373D-04
 -0.19916535D-03 -0.64139192D-04 -0.11805035D-03 -0.19102775D-03 -0.25111133D-03
 -0.21537673D-03 -0.73640962D-04  0.24860334D-03  0.11092633D-03 -0.32756693D-03
  0.55434220D-04  0.42709078D-04  0.18751586D-04 -0.13746734D-04 -0.10591117D-04
 -0.46500710D-05  0.20251884D-08  0.15602985D-08  0.68505508D-09  0.72310735D-03
 -0.20875170D-03 -0.43707323D-04  0.42600212D-08 -0.13069321D-03 -0.23253134D-03
 -0.24518048D-03  0.13961873D-04 -0.53144406D-08  0.51402828D-09 -0.10261861D-04
 -0.18931130D-04 -0.30560714D-04 -0.39780969D-04 -0.33945173D-04 -0.11720452D-04
  0.64434564D-04  0.29697832D-04 -0.83275820D-04  0.69975313D-04  0.53652631D-04
  0.26776423D-04 -0.30211232D-04 -0.23164056D-04 -0.11560488D-04  0.81656308D-09
  0.62608878D-09  0.31246218D-09  0.11705186D-03 -0.93342958D-04  0.77770464D-05
  0.11943376D-08  0.46096548D-05 -0.74109426D-04 -0.44242768D-04 -0.45176941D-04
 -0.11680606D-08  0.38228687D-08  0.38632796D-05  0.65528534D-05  0.74601920D-05
  0.35388142D-04 -0.12526481D-04 -0.21247282D-04 -0.24189280D-04  0.83087188D-06
 -0.12526829D-04 -0.21247873D-04 -0.24189952D-04  0.83229657D-06  0.14275953D-03
  0.26275374D-03  0.42518515D-03  0.55891778D-03  0.47938053D-03  0.16390835D-03
 -0.77162569D-03 -0.34429788D-03  0.10167163D-02  0.58780195D-05  0.45286971D-05
  0.19883420D-05  0.91503043D-04  0.70498161D-04  0.30952490D-04  0.24417906D-09
  0.18812680D-09  0.82597800D-10 -0.18920688D-02  0.38526610D-03  0.76293551D-03
 -0.29645536D-07  0.56858708D-03 -0.18474582D-03  0.10847563D-02 -0.11170513D-02
  0.50906316D-07  0.92141248D-07  0.47429587D-04  0.80449556D-04  0.91588976D-04
 -0.35508844D-04  0.26086164D-04  0.44247071D-04  0.50373727D-04  0.16176822D-03
 -0.49466297D-04 -0.91255658D-04 -0.14731493D-03 -0.19176026D-03 -0.16362938D-03
 -0.56497293D-04  0.56009841D-04  0.25814884D-04 -0.72387630D-04 -0.36395254D-04