 Entering Link 1 = D:\Gaussian\G16W\l1.exe PID=     41176.
  
 Copyright (c) 1988,1990,1992,1993,1995,1998,2003,2009,2016,
            Gaussian, Inc.  All Rights Reserved.
  
 This is part of the Gaussian(R) 16 program.  It is based on
 the Gaussian(R) 09 system (copyright 2009, Gaussian, Inc.),
 the Gaussian(R) 03 system (copyright 2003, Gaussian, Inc.),
 the Gaussian(R) 98 system (copyright 1998, Gaussian, Inc.),
 the Gaussian(R) 94 system (copyright 1995, Gaussian, Inc.),
 the Gaussian 92(TM) system (copyright 1992, Gaussian, Inc.),
 the Gaussian 90(TM) system (copyright 1990, Gaussian, Inc.),
 the Gaussian 88(TM) system (copyright 1988, Gaussian, Inc.),
 the Gaussian 86(TM) system (copyright 1986, Carnegie Mellon
 University), and the Gaussian 82(TM) system (copyright 1983,
 Carnegie Mellon University). Gaussian is a federally registered
 trademark of Gaussian, Inc.
  
 This software contains proprietary and confidential information,
 including trade secrets, belonging to Gaussian, Inc.
  
 This software is provided under written license and may be
 used, copied, transmitted, or stored only in accord with that
 written license.
  
 The following legend is applicable only to US Government
 contracts under FAR:
  
                    RESTRICTED RIGHTS LEGEND
  
 Use, reproduction and disclosure by the US Government is
 subject to restrictions as set forth in subparagraphs (a)
 and (c) of the Commercial Computer Software - Restricted
 Rights clause in FAR 52.227-19.
  
 Gaussian, Inc.
 340 Quinnipiac St., Bldg. 40, Wallingford CT 06492
  
  
 ---------------------------------------------------------------
 Warning -- This program may not be used in any manner that
 competes with the business of Gaussian, Inc. or will provide
 assistance to any competitor of Gaussian, Inc.  The licensee
 of this program is prohibited from giving any competitor of
 Gaussian, Inc. access to this program.  By using this program,
 the user acknowledges that Gaussian, Inc. is engaged in the
 business of creating and licensing software in the field of
 computational chemistry and represents and warrants to the
 licensee that it is not a competitor of Gaussian, Inc. and that
 it will not use this program in any manner prohibited above.
 ---------------------------------------------------------------
  

 Cite this work as:
 Gaussian 16, Revision A.03,
 M. J. Frisch, G. W. Trucks, H. B. Schlegel, G. E. Scuseria, 
 M. A. Robb, J. R. Cheeseman, G. Scalmani, V. Barone, 
 G. A. Petersson, H. Nakatsuji, X. Li, M. Caricato, A. V. Marenich, 
 J. Bloino, B. G. Janesko, R. Gomperts, B. Mennucci, H. P. Hratchian, 
 J. V. Ortiz, A. F. Izmaylov, J. L. Sonnenberg, D. Williams-Young, 
 F. Ding, F. Lipparini, F. Egidi, J. Goings, B. Peng, A. Petrone, 
 T. Henderson, D. Ranasinghe, V. G. Zakrzewski, J. Gao, N. Rega, 
 G. Zheng, W. Liang, M. Hada, M. Ehara, K. Toyota, R. Fukuda, 
 J. Hasegawa, M. Ishida, T. Nakajima, Y. Honda, O. Kitao, H. Nakai, 
 T. Vreven, K. Throssell, J. A. Montgomery, Jr., J. E. Peralta, 
 F. Ogliaro, M. J. Bearpark, J. J. Heyd, E. N. Brothers, K. N. Kudin, 
 V. N. Staroverov, T. A. Keith, R. Kobayashi, J. Normand, 
 K. Raghavachari, A. P. Rendell, J. C. Burant, S. S. Iyengar, 
 J. Tomasi, M. Cossi, J. M. Millam, M. Klene, C. Adamo, R. Cammi, 
 J. W. Ochterski, R. L. Martin, K. Morokuma, O. Farkas, 
 J. B. Foresman, and D. J. Fox, Gaussian, Inc., Wallingford CT, 2016.
 
 ******************************************
 Gaussian 16:  EM64W-G16RevA.03 17-Dec-2016
                03-Dec-2025 
 ******************************************
 %nprocs=   4
 Will use up to    4 processors via shared memory.
 ------------------------------------
 #P B3LYP/6-31G* SCF=conver=7 out=wfn
 ------------------------------------
 1/38=1,172=1/1;
 2/12=2,17=6,18=5,40=1/2;
 3/5=1,6=6,7=1,11=2,25=1,30=1,74=-5/1,2,3;
 4//1;
 5/5=2,6=7,38=5/2;
 6/7=2,8=2,9=2,10=2,28=1/1;
 99/5=1,6=100,9=1/99;
 Leave Link    1 at Wed Dec 03 16:39:29 2025, MaxMem=           0 cpu:               1.0 elap:               0.1
 (Enter D:\Gaussian\G16W\l101.exe)
 ----------------------------------------------------
 Generated by Multiwfn (http://sobereva.com/multiwfn)
 ----------------------------------------------------
 Symbolic Z-matrix:
 Charge = -1 Multiplicity = 2
 C                    -1.93337  -0.24667   0.00004 
 C                    -1.28266   0.9959   -0.00001 
 C                     0.10037   1.07763  -0.00003 
 C                     0.87105  -0.10157  -0.00002 
 C                     0.24096  -1.33659   0.00003 
 C                    -1.15783  -1.40248   0.00005 
 H                    -1.84748   1.9218   -0.00002 
 H                     0.81966  -2.25114   0.00004 
 O                     2.2288    0.12376  -0.00005 
 C                     3.09692  -1.00009  -0.00002 
 H                     4.10984  -0.60052  -0.00004 
 H                     2.94916  -1.61568   0.89403 
 H                     2.94915  -1.61575  -0.89402 
 O                     0.71496   2.29262  -0.00008 
 H                     1.66726   2.12776  -0.00009 
 H                    -1.63857  -2.37454   0.00009 
 C                    -3.44227  -0.31089   0.00008 
 H                    -3.86205   0.18502   0.88119 
 H                    -3.8621    0.18514  -0.88092 
 H                    -3.79402  -1.34463   0.00002 
 
 ITRead=  0  0  0  0  0  0  0  0  0  0  0  0  0  0  0  0  0  0  0  0
 MicOpt= -1 -1 -1 -1 -1 -1 -1 -1 -1 -1 -1 -1 -1 -1 -1 -1 -1 -1 -1 -1
 NAtoms=     20 NQM=       20 NQMF=       0 NMMI=      0 NMMIF=      0
                NMic=       0 NMicF=      0.
                    Isotopes and Nuclear Properties:
 (Nuclear quadrupole moments (NQMom) in fm**2, nuclear magnetic moments (NMagM)
  in nuclear magnetons)

  Atom         1           2           3           4           5           6           7           8           9          10
 IAtWgt=          12          12          12          12          12          12           1           1          16          12
 AtmWgt=  12.0000000  12.0000000  12.0000000  12.0000000  12.0000000  12.0000000   1.0078250   1.0078250  15.9949146  12.0000000
 NucSpn=           0           0           0           0           0           0           1           1           0           0
 AtZEff=   0.0000000   0.0000000   0.0000000   0.0000000   0.0000000   0.0000000   0.0000000   0.0000000   0.0000000   0.0000000
 NQMom=    0.0000000   0.0000000   0.0000000   0.0000000   0.0000000   0.0000000   0.0000000   0.0000000   0.0000000   0.0000000
 NMagM=    0.0000000   0.0000000   0.0000000   0.0000000   0.0000000   0.0000000   2.7928460   2.7928460   0.0000000   0.0000000
 AtZNuc=   6.0000000   6.0000000   6.0000000   6.0000000   6.0000000   6.0000000   1.0000000   1.0000000   8.0000000   6.0000000

  Atom        11          12          13          14          15          16          17          18          19          20
 IAtWgt=           1           1           1          16           1           1          12           1           1           1
 AtmWgt=   1.0078250   1.0078250   1.0078250  15.9949146   1.0078250   1.0078250  12.0000000   1.0078250   1.0078250   1.0078250
 NucSpn=           1           1           1           0           1           1           0           1           1           1
 AtZEff=   0.0000000   0.0000000   0.0000000   0.0000000   0.0000000   0.0000000   0.0000000   0.0000000   0.0000000   0.0000000
 NQMom=    0.0000000   0.0000000   0.0000000   0.0000000   0.0000000   0.0000000   0.0000000   0.0000000   0.0000000   0.0000000
 NMagM=    2.7928460   2.7928460   2.7928460   0.0000000   2.7928460   2.7928460   0.0000000   2.7928460   2.7928460   2.7928460
 AtZNuc=   1.0000000   1.0000000   1.0000000   8.0000000   1.0000000   1.0000000   6.0000000   1.0000000   1.0000000   1.0000000
 Leave Link  101 at Wed Dec 03 16:39:29 2025, MaxMem=   104857600 cpu:               0.0 elap:               0.1
 (Enter D:\Gaussian\G16W\l202.exe)
                          Input orientation:                          
 ---------------------------------------------------------------------
 Center     Atomic      Atomic             Coordinates (Angstroms)
 Number     Number       Type             X           Y           Z
 ---------------------------------------------------------------------
      1          6           0       -1.933369   -0.246665    0.000041
      2          6           0       -1.282658    0.995897   -0.000005
      3          6           0        0.100369    1.077632   -0.000034
      4          6           0        0.871051   -0.101568   -0.000019
      5          6           0        0.240960   -1.336588    0.000025
      6          6           0       -1.157829   -1.402479    0.000054
      7          1           0       -1.847477    1.921798   -0.000018
      8          1           0        0.819664   -2.251143    0.000035
      9          8           0        2.228799    0.123761   -0.000054
     10          6           0        3.096923   -1.000086   -0.000017
     11          1           0        4.109840   -0.600521   -0.000037
     12          1           0        2.949156   -1.615682    0.894029
     13          1           0        2.949146   -1.615749   -0.894015
     14          8           0        0.714962    2.292615   -0.000079
     15          1           0        1.667262    2.127760   -0.000091
     16          1           0       -1.638566   -2.374537    0.000088
     17          6           0       -3.442273   -0.310888    0.000084
     18          1           0       -3.862046    0.185016    0.881185
     19          1           0       -3.862102    0.185144   -0.880917
     20          1           0       -3.794020   -1.344630    0.000021
 ---------------------------------------------------------------------
                    Distance matrix (angstroms):
                    1          2          3          4          5
     1  C    0.000000
     2  C    1.402635   0.000000
     3  C    2.426902   1.385440   0.000000
     4  C    2.808171   2.417207   1.408710   0.000000
     5  C    2.432209   2.786018   2.418310   1.386466   0.000000
     6  C    1.391894   2.401622   2.781009   2.410129   1.400340
     7  H    2.170163   1.084580   2.122904   3.388865   3.870226
     8  H    3.405455   3.868207   3.405602   2.150189   1.082270
     9  O    4.178619   3.618142   2.332399   1.376319   2.466602
    10  C    5.086402   4.812970   3.646402   2.400383   2.875719
    11  H    6.053560   5.623841   4.346499   3.276997   3.938277
    12  H    5.149026   5.052513   4.021054   2.722202   2.865565
    13  H    5.149046   5.052535   4.021074   2.722214   2.865573
    14  O    3.669005   2.381588   1.361583   2.399266   3.660026
    15  H    4.313054   3.159611   1.886246   2.367246   3.746471
    16  H    2.148196   3.389173   3.865406   3.385936   2.147081
    17  C    1.510270   2.524208   3.805036   4.318400   3.823384
    18  H    2.163922   2.843812   4.156205   4.822951   4.463897
    19  H    2.163922   2.843740   4.156160   4.822958   4.463949
    20  H    2.160451   3.432930   4.586242   4.827845   4.034988
                    6          7          8          9         10
     6  C    0.000000
     7  H    3.395060   0.000000
     8  H    2.151908   4.952482   0.000000
     9  O    3.714654   4.455218   2.761491   0.000000
    10  C    4.273738   5.743213   2.598279   1.420096   0.000000
    11  H    5.328365   6.469290   3.681007   2.015664   1.088877
    12  H    4.208559   6.026672   2.395365   2.084217   1.095496
    13  H    4.208573   6.026696   2.395359   2.084217   1.095496
    14  O    4.142592   2.589131   4.544964   2.644925   4.063941
    15  H    4.521474   3.520768   4.460181   2.081186   3.439092
    16  H    1.084438   4.301411   2.461325   4.604129   4.930920
    17  C    2.531848   2.743768   4.682809   5.687704   6.575415
    18  H    3.257195   2.802038   5.350673   6.154570   7.113946
    19  H    3.257261   2.801904   5.350748   6.154572   7.113985
    20  H    2.636826   3.802444   4.701898   6.199236   6.899551
                   11         12         13         14         15
    11  H    0.000000
    12  H    1.782440   0.000000
    13  H    1.782441   1.788044   0.000000
    14  O    4.460430   4.589754   4.589772   0.000000
    15  H    3.661926   4.056607   4.056623   0.966464   0.000000
    16  H    6.015921   4.735207   4.735217   5.226988   5.585622
    17  C    7.557665   6.584223   6.584247   4.905184   5.661656
    18  H    8.058820   7.045222   7.265427   5.115428   5.926563
    19  H    8.058851   7.265442   7.045317   5.115352   5.926506
    20  H    7.938810   6.807580   6.807576   5.793140   6.471715
                   16         17         18         19         20
    16  H    0.000000
    17  C    2.740804   0.000000
    18  H    3.503071   1.094746   0.000000
    19  H    3.503177   1.094745   1.762102   0.000000
    20  H    2.388868   1.091947   1.766605   1.766606   0.000000
 Stoichiometry    C8H10O2(1-,2)
 Framework group  C1[X(C8H10O2)]
 Deg. of freedom    54
 Full point group                 C1      NOp   1
 Largest Abelian subgroup         C1      NOp   1
 Largest concise Abelian subgroup C1      NOp   1
                         Standard orientation:                         
 ---------------------------------------------------------------------
 Center     Atomic      Atomic             Coordinates (Angstroms)
 Number     Number       Type             X           Y           Z
 ---------------------------------------------------------------------
      1          6           0       -1.933369   -0.246665    0.000041
      2          6           0       -1.282658    0.995897   -0.000005
      3          6           0        0.100369    1.077632   -0.000034
      4          6           0        0.871051   -0.101568   -0.000019
      5          6           0        0.240960   -1.336588    0.000025
      6          6           0       -1.157829   -1.402479    0.000054
      7          1           0       -1.847477    1.921798   -0.000018
      8          1           0        0.819664   -2.251143    0.000035
      9          8           0        2.228799    0.123761   -0.000054
     10          6           0        3.096923   -1.000086   -0.000017
     11          1           0        4.109840   -0.600521   -0.000037
     12          1           0        2.949156   -1.615682    0.894029
     13          1           0        2.949146   -1.615749   -0.894015
     14          8           0        0.714962    2.292615   -0.000079
     15          1           0        1.667262    2.127760   -0.000091
     16          1           0       -1.638566   -2.374537    0.000088
     17          6           0       -3.442273   -0.310888    0.000084
     18          1           0       -3.862046    0.185016    0.881185
     19          1           0       -3.862102    0.185144   -0.880917
     20          1           0       -3.794020   -1.344630    0.000021
 ---------------------------------------------------------------------
 Rotational constants (GHZ):           2.5439796           0.9580347           0.7020890
 Leave Link  202 at Wed Dec 03 16:39:29 2025, MaxMem=   104857600 cpu:               0.0 elap:               0.0
 (Enter D:\Gaussian\G16W\l301.exe)
 Standard basis: 6-31G(d) (6D, 7F)
 Ernie: Thresh=  0.10000D-02 Tol=  0.10000D-05 Strict=F.
 There are   170 symmetry adapted cartesian basis functions of A   symmetry.
 There are   170 symmetry adapted basis functions of A   symmetry.
   170 basis functions,   320 primitive gaussians,   170 cartesian basis functions
    38 alpha electrons       37 beta electrons
       nuclear repulsion energy       516.1832683598 Hartrees.
 IExCor=  402 DFT=T Ex+Corr=B3LYP ExCW=0 ScaHFX=  0.200000
 ScaDFX=  0.800000  0.720000  1.000000  0.810000 ScalE2=  1.000000  1.000000
 IRadAn=      5 IRanWt=     -1 IRanGd=            0 ICorTp=0 IEmpDi=  4
 NAtoms=   20 NActive=   20 NUniq=   20 SFac= 1.00D+00 NAtFMM=   60 NAOKFM=F Big=F
 Integral buffers will be    131072 words long.
 Raffenetti 2 integral format.
 Two-electron integral symmetry is turned on.
 Leave Link  301 at Wed Dec 03 16:39:29 2025, MaxMem=   104857600 cpu:               0.0 elap:               0.1
 (Enter D:\Gaussian\G16W\l302.exe)
 NPDir=0 NMtPBC=     1 NCelOv=     1 NCel=       1 NClECP=     1 NCelD=      1
         NCelK=      1 NCelE2=     1 NClLst=     1 CellRange=     0.0.
 One-electron integrals computed using PRISM.
 One-electron integral symmetry used in STVInt
 NBasis=   170 RedAO= T EigKep=  3.78D-04  NBF=   170
 NBsUse=   170 1.00D-06 EigRej= -1.00D+00 NBFU=   170
 Precomputing XC quadrature grid using
 IXCGrd= 4 IRadAn=           5 IRanWt=          -1 IRanGd=           0 AccXCQ= 0.00D+00.
 Generated NRdTot=       0 NPtTot=           0 NUsed=           0 NTot=          32
 NSgBfM=   170   170   170   170   170 MxSgAt=    20 MxSgA2=    20.
 Leave Link  302 at Wed Dec 03 16:39:29 2025, MaxMem=   104857600 cpu:               0.0 elap:               0.4
 (Enter D:\Gaussian\G16W\l303.exe)
 DipDrv:  MaxL=1.
 Leave Link  303 at Wed Dec 03 16:39:29 2025, MaxMem=   104857600 cpu:               0.0 elap:               0.1
 (Enter D:\Gaussian\G16W\l401.exe)
 ExpMin= 1.61D-01 ExpMax= 5.48D+03 ExpMxC= 8.25D+02 IAcc=3 IRadAn=         5 AccDes= 0.00D+00
 Harris functional with IExCor=  402 and IRadAn=       5 diagonalized for initial guess.
 HarFok:  IExCor=  402 AccDes= 0.00D+00 IRadAn=         5 IDoV= 1 UseB2=F ITyADJ=14
 ICtDFT=  3500011 ScaDFX=  1.000000  1.000000  1.000000  1.000000
 FoFCou: FMM=F IPFlag=           0 FMFlag=      100000 FMFlg1=           0
         NFxFlg=           0 DoJE=T BraDBF=F KetDBF=T FulRan=T
         wScrn=  0.000000 ICntrl=       500 IOpCl=  0 I1Cent=   200000004 NGrid=           0
         NMat0=    1 NMatS0=      1 NMatT0=    0 NMatD0=    1 NMtDS0=    0 NMtDT0=    0
 Petite list used in FoFCou.
 Harris En= -461.476663364208    
 JPrj=0 DoOrth=F DoCkMO=F.
 Initial guess <Sx>= 0.0000 <Sy>= 0.0000 <Sz>= 0.5000 <S**2>= 0.7500 S= 0.5000
 Leave Link  401 at Wed Dec 03 16:39:31 2025, MaxMem=   104857600 cpu:               2.0 elap:               1.3
 (Enter D:\Gaussian\G16W\l502.exe)
 Integral symmetry usage will be decided dynamically.
 UHF open shell SCF:
 Using DIIS extrapolation, IDIIS=  1040.
 NGot=   104857600 LenX=   104796738 LenY=   104767397
 Requested convergence on RMS density matrix=1.00D-07 within 128 cycles.
 Requested convergence on MAX density matrix=1.00D-05.
 Requested convergence on             energy=1.00D-05.
 No special actions if energy rises.
 Fock matrices will be formed incrementally for  20 cycles.
 Integral accuracy reduced to 1.0D-05 until final iterations.

 Cycle   1  Pass 0  IDiag  1:
 FoFJK:  IHMeth= 1 ICntrl=       0 DoSepK=F KAlg= 0 I1Cent=           0 FoldK=F
 IRaf= 920000000 NMat=       1 IRICut=       1 DoRegI=T DoRafI=F ISym2E= 0 IDoP0=0 IntGTp=1.
 FoFCou: FMM=F IPFlag=           0 FMFlag=      100000 FMFlg1=           0
         NFxFlg=           0 DoJE=F BraDBF=F KetDBF=F FulRan=T
         wScrn=  0.000000 ICntrl=         0 IOpCl=  1 I1Cent=           0 NGrid=           0
         NMat0=    1 NMatS0=      1 NMatT0=    0 NMatD0=    1 NMtDS0=    0 NMtDT0=    0
 Symmetry not used in FoFCou.
 E= -460.817996197640    
 DIIS: error= 4.81D-02 at cycle   1 NSaved=   1.
 NSaved= 1 IEnMin= 1 EnMin= -460.817996197640     IErMin= 1 ErrMin= 4.81D-02
 ErrMax= 4.81D-02  0.00D+00 EMaxC= 1.00D-01 BMatC= 1.46D+00 BMatP= 1.46D+00
 IDIUse=3 WtCom= 5.19D-01 WtEn= 4.81D-01
 Coeff-Com:  0.100D+01
 Coeff-En:   0.100D+01
 Coeff:      0.100D+01
 Gap=     0.054 Goal=   None    Shift=    0.000
 Gap=     0.275 Goal=   None    Shift=    0.000
 GapD=    0.054 DampG=0.500 DampE=0.500 DampFc=0.2500 IDamp=-1.
 Damping current iteration by 2.50D-01
 RMSDP=4.98D-02 MaxDP=6.33D+00              OVMax= 9.92D-01

 Cycle   2  Pass 0  IDiag  1:
 RMSU=  1.24D-02    CP:  9.91D-01
 E= -460.957799911063     Delta-E=       -0.139803713423 Rises=F Damp=T
 DIIS: error= 2.35D-02 at cycle   2 NSaved=   2.
 NSaved= 2 IEnMin= 2 EnMin= -460.957799911063     IErMin= 2 ErrMin= 2.35D-02
 ErrMax= 2.35D-02  0.00D+00 EMaxC= 1.00D-01 BMatC= 3.27D-01 BMatP= 1.46D+00
 IDIUse=3 WtCom= 7.65D-01 WtEn= 2.35D-01
 Coeff-Com: -0.720D+00 0.172D+01
 Coeff-En:   0.000D+00 0.100D+01
 Coeff:     -0.551D+00 0.155D+01
 Gap=     0.004 Goal=   None    Shift=    0.000
 Gap=     0.328 Goal=   None    Shift=    0.000
 RMSDP=1.29D-02 MaxDP=1.62D+00 DE=-1.40D-01 OVMax= 9.81D-01

 Cycle   3  Pass 0  IDiag  1:
 RMSU=  4.92D-03    CP:  9.73D-01  4.56D-02
 E= -461.182438448430     Delta-E=       -0.224638537367 Rises=F Damp=F
 DIIS: error= 1.23D-02 at cycle   3 NSaved=   3.
 NSaved= 3 IEnMin= 3 EnMin= -461.182438448430     IErMin= 3 ErrMin= 1.23D-02
 ErrMax= 1.23D-02  0.00D+00 EMaxC= 1.00D-01 BMatC= 1.27D-01 BMatP= 3.27D-01
 IDIUse=3 WtCom= 8.77D-01 WtEn= 1.23D-01
 Coeff-Com: -0.418D+00 0.978D+00 0.441D+00
 Coeff-En:   0.000D+00 0.000D+00 0.100D+01
 Coeff:     -0.367D+00 0.857D+00 0.510D+00
 Gap=     0.052 Goal=   None    Shift=    0.000
 Gap=     0.230 Goal=   None    Shift=    0.000
 RMSDP=1.69D-03 MaxDP=3.52D-02 DE=-2.25D-01 OVMax= 8.25D-02

 Cycle   4  Pass 0  IDiag  1:
 RMSU=  1.60D-03    CP:  9.77D-01  5.44D-02  8.91D-01
 E= -461.215569167381     Delta-E=       -0.033130718951 Rises=F Damp=F
 DIIS: error= 3.47D-03 at cycle   4 NSaved=   4.
 NSaved= 4 IEnMin= 4 EnMin= -461.215569167381     IErMin= 4 ErrMin= 3.47D-03
 ErrMax= 3.47D-03  0.00D+00 EMaxC= 1.00D-01 BMatC= 1.87D-02 BMatP= 1.27D-01
 IDIUse=3 WtCom= 9.65D-01 WtEn= 3.47D-02
 Coeff-Com: -0.189D+00 0.375D+00 0.241D+00 0.572D+00
 Coeff-En:   0.000D+00 0.000D+00 0.000D+00 0.100D+01
 Coeff:     -0.183D+00 0.362D+00 0.233D+00 0.587D+00
 Gap=     0.058 Goal=   None    Shift=    0.000
 Gap=     0.222 Goal=   None    Shift=    0.000
 RMSDP=7.20D-04 MaxDP=1.91D-02 DE=-3.31D-02 OVMax= 4.95D-02

 Cycle   5  Pass 0  IDiag  1:
 RMSU=  5.80D-04    CP:  9.76D-01  5.76D-02  9.46D-01  7.94D-01
 E= -461.218718906296     Delta-E=       -0.003149738914 Rises=F Damp=F
 DIIS: error= 2.83D-03 at cycle   5 NSaved=   5.
 NSaved= 5 IEnMin= 5 EnMin= -461.218718906296     IErMin= 5 ErrMin= 2.83D-03
 ErrMax= 2.83D-03  0.00D+00 EMaxC= 1.00D-01 BMatC= 6.41D-03 BMatP= 1.87D-02
 IDIUse=3 WtCom= 9.72D-01 WtEn= 2.83D-02
 Coeff-Com: -0.918D-01 0.149D+00 0.549D-01 0.361D+00 0.527D+00
 Coeff-En:   0.000D+00 0.000D+00 0.000D+00 0.240D+00 0.760D+00
 Coeff:     -0.892D-01 0.145D+00 0.533D-01 0.358D+00 0.533D+00
 Gap=     0.062 Goal=   None    Shift=    0.000
 Gap=     0.223 Goal=   None    Shift=    0.000
 RMSDP=4.25D-04 MaxDP=1.21D-02 DE=-3.15D-03 OVMax= 3.15D-02

 Cycle   6  Pass 0  IDiag  1:
 RMSU=  2.74D-04    CP:  9.76D-01  5.95D-02  9.41D-01  9.71D-01  7.29D-01
 E= -461.220446179459     Delta-E=       -0.001727273163 Rises=F Damp=F
 DIIS: error= 9.44D-04 at cycle   6 NSaved=   6.
 NSaved= 6 IEnMin= 6 EnMin= -461.220446179459     IErMin= 6 ErrMin= 9.44D-04
 ErrMax= 9.44D-04  0.00D+00 EMaxC= 1.00D-01 BMatC= 9.96D-04 BMatP= 6.41D-03
 IDIUse=3 WtCom= 9.91D-01 WtEn= 9.44D-03
 Coeff-Com: -0.266D-01 0.335D-01-0.355D-01 0.471D-01 0.319D+00 0.663D+00
 Coeff-En:   0.000D+00 0.000D+00 0.000D+00 0.000D+00 0.336D-01 0.966D+00
 Coeff:     -0.263D-01 0.332D-01-0.352D-01 0.466D-01 0.316D+00 0.666D+00
 Gap=     0.064 Goal=   None    Shift=    0.000
 Gap=     0.224 Goal=   None    Shift=    0.000
 RMSDP=2.01D-04 MaxDP=6.22D-03 DE=-1.73D-03 OVMax= 1.94D-02

 Cycle   7  Pass 0  IDiag  1:
 RMSU=  1.32D-04    CP:  9.76D-01  6.03D-02  9.51D-01  9.70D-01  9.73D-01
                    CP:  9.89D-01
 E= -461.220764710108     Delta-E=       -0.000318530650 Rises=F Damp=F
 DIIS: error= 3.25D-04 at cycle   7 NSaved=   7.
 NSaved= 7 IEnMin= 7 EnMin= -461.220764710108     IErMin= 7 ErrMin= 3.25D-04
 ErrMax= 3.25D-04  0.00D+00 EMaxC= 1.00D-01 BMatC= 1.36D-04 BMatP= 9.96D-04
 IDIUse=3 WtCom= 9.97D-01 WtEn= 3.25D-03
 Coeff-Com: -0.764D-02 0.636D-02-0.294D-01-0.130D-01 0.130D+00 0.384D+00
 Coeff-Com:  0.530D+00
 Coeff-En:   0.000D+00 0.000D+00 0.000D+00 0.000D+00 0.000D+00 0.000D+00
 Coeff-En:   0.100D+01
 Coeff:     -0.762D-02 0.634D-02-0.293D-01-0.130D-01 0.129D+00 0.383D+00
 Coeff:      0.532D+00
 Gap=     0.065 Goal=   None    Shift=    0.000
 Gap=     0.224 Goal=   None    Shift=    0.000
 RMSDP=9.99D-05 MaxDP=2.92D-03 DE=-3.19D-04 OVMax= 1.18D-02

 Cycle   8  Pass 0  IDiag  1:
 RMSU=  5.24D-05    CP:  9.76D-01  6.07D-02  9.53D-01  9.80D-01  1.02D+00
                    CP:  1.22D+00  1.36D+00
 E= -461.220830320992     Delta-E=       -0.000065610883 Rises=F Damp=F
 DIIS: error= 2.01D-04 at cycle   8 NSaved=   8.
 NSaved= 8 IEnMin= 8 EnMin= -461.220830320992     IErMin= 8 ErrMin= 2.01D-04
 ErrMax= 2.01D-04  0.00D+00 EMaxC= 1.00D-01 BMatC= 2.06D-05 BMatP= 1.36D-04
 IDIUse=3 WtCom= 9.98D-01 WtEn= 2.01D-03
 Coeff-Com:  0.331D-02-0.337D-02 0.235D-02-0.135D-01-0.548D-01-0.908D-01
 Coeff-Com:  0.140D+00 0.102D+01
 Coeff-En:   0.000D+00 0.000D+00 0.000D+00 0.000D+00 0.000D+00 0.000D+00
 Coeff-En:   0.000D+00 0.100D+01
 Coeff:      0.331D-02-0.337D-02 0.235D-02-0.135D-01-0.547D-01-0.907D-01
 Coeff:      0.139D+00 0.102D+01
 Gap=     0.066 Goal=   None    Shift=    0.000
 Gap=     0.224 Goal=   None    Shift=    0.000
 RMSDP=1.53D-04 MaxDP=4.83D-03 DE=-6.56D-05 OVMax= 1.95D-02

 Cycle   9  Pass 0  IDiag  1:
 RMSU=  2.95D-05    CP:  9.76D-01  6.09D-02  9.55D-01  9.86D-01  1.10D+00
                    CP:  1.49D+00  2.19D+00  1.87D+00
 E= -461.220886787661     Delta-E=       -0.000056466669 Rises=F Damp=F
 DIIS: error= 1.31D-04 at cycle   9 NSaved=   9.
 NSaved= 9 IEnMin= 9 EnMin= -461.220886787661     IErMin= 9 ErrMin= 1.31D-04
 ErrMax= 1.31D-04  0.00D+00 EMaxC= 1.00D-01 BMatC= 9.28D-06 BMatP= 2.06D-05
 IDIUse=3 WtCom= 9.99D-01 WtEn= 1.31D-03
 Coeff-Com:  0.319D-02-0.379D-02 0.602D-02 0.181D-02-0.301D-01-0.809D-01
 Coeff-Com: -0.874D-01 0.876D-01 0.110D+01
 Coeff-En:   0.000D+00 0.000D+00 0.000D+00 0.000D+00 0.000D+00 0.000D+00
 Coeff-En:   0.000D+00 0.000D+00 0.100D+01
 Coeff:      0.319D-02-0.379D-02 0.601D-02 0.181D-02-0.300D-01-0.808D-01
 Coeff:     -0.873D-01 0.875D-01 0.110D+01
 Gap=     0.066 Goal=   None    Shift=    0.000
 Gap=     0.224 Goal=   None    Shift=    0.000
 RMSDP=1.47D-04 MaxDP=4.82D-03 DE=-5.65D-05 OVMax= 1.87D-02

 Cycle  10  Pass 0  IDiag  1:
 RMSU=  1.80D-05    CP:  9.76D-01  6.12D-02  9.58D-01  9.87D-01  1.18D+00
                    CP:  1.75D+00  2.98D+00  2.85D+00  1.88D+00
 E= -461.220927229591     Delta-E=       -0.000040441929 Rises=F Damp=F
 DIIS: error= 1.21D-04 at cycle  10 NSaved=  10.
 NSaved=10 IEnMin=10 EnMin= -461.220927229591     IErMin=10 ErrMin= 1.21D-04
 ErrMax= 1.21D-04  0.00D+00 EMaxC= 1.00D-01 BMatC= 8.37D-06 BMatP= 9.28D-06
 IDIUse=3 WtCom= 9.99D-01 WtEn= 1.21D-03
 Coeff-Com: -0.733D-03 0.102D-02 0.271D-02 0.139D-01 0.260D-01 0.312D-01
 Coeff-Com: -0.145D+00-0.705D+00 0.802D+00 0.975D+00
 Coeff-En:   0.000D+00 0.000D+00 0.000D+00 0.000D+00 0.000D+00 0.000D+00
 Coeff-En:   0.000D+00 0.000D+00 0.000D+00 0.100D+01
 Coeff:     -0.732D-03 0.102D-02 0.271D-02 0.139D-01 0.260D-01 0.312D-01
 Coeff:     -0.145D+00-0.705D+00 0.801D+00 0.975D+00
 Gap=     0.066 Goal=   None    Shift=    0.000
 Gap=     0.225 Goal=   None    Shift=    0.000
 RMSDP=1.71D-04 MaxDP=5.80D-03 DE=-4.04D-05 OVMax= 2.18D-02

 Cycle  11  Pass 0  IDiag  1:
 RMSU=  1.31D-04    CP:  9.75D-01  6.14D-02  9.60D-01  9.87D-01  1.27D+00
                    CP:  2.03D+00  3.00D+00  3.00D+00  3.00D+00  1.68D+00
 E= -461.220963948027     Delta-E=       -0.000036718436 Rises=F Damp=F
 DIIS: error= 7.86D-05 at cycle  11 NSaved=  11.
 NSaved=11 IEnMin=11 EnMin= -461.220963948027     IErMin=11 ErrMin= 7.86D-05
 ErrMax= 7.86D-05  0.00D+00 EMaxC= 1.00D-01 BMatC= 3.00D-06 BMatP= 8.37D-06
 IDIUse=1 WtCom= 1.00D+00 WtEn= 0.00D+00
 Coeff-Com: -0.233D-02 0.257D-02-0.535D-02 0.367D-02 0.347D-01 0.942D-01
 Coeff-Com:  0.272D-01-0.333D+00-0.613D+00 0.216D+00 0.158D+01
 Coeff:     -0.233D-02 0.257D-02-0.535D-02 0.367D-02 0.347D-01 0.942D-01
 Coeff:      0.272D-01-0.333D+00-0.613D+00 0.216D+00 0.158D+01
 Gap=     0.066 Goal=   None    Shift=    0.000
 Gap=     0.225 Goal=   None    Shift=    0.000
 RMSDP=2.33D-04 MaxDP=7.91D-03 DE=-3.67D-05 OVMax= 2.99D-02

 Cycle  12  Pass 0  IDiag  1:
 RMSU=  5.00D-05    CP:  9.75D-01  6.17D-02  9.63D-01  9.87D-01  1.39D+00
                    CP:  2.41D+00  3.00D+00  3.00D+00  3.00D+00  3.00D+00
                    CP:  2.43D+00
 E= -461.220992111244     Delta-E=       -0.000028163217 Rises=F Damp=F
 DIIS: error= 4.88D-05 at cycle  12 NSaved=  12.
 NSaved=12 IEnMin=12 EnMin= -461.220992111244     IErMin=12 ErrMin= 4.88D-05
 ErrMax= 4.88D-05  0.00D+00 EMaxC= 1.00D-01 BMatC= 1.06D-06 BMatP= 3.00D-06
 IDIUse=1 WtCom= 1.00D+00 WtEn= 0.00D+00
 Coeff-Com: -0.133D-02 0.162D-02-0.395D-02-0.203D-02 0.103D-01 0.403D-01
 Coeff-Com:  0.623D-01 0.685D-01-0.566D+00-0.181D+00 0.751D+00 0.821D+00
 Coeff:     -0.133D-02 0.162D-02-0.395D-02-0.203D-02 0.103D-01 0.403D-01
 Coeff:      0.623D-01 0.685D-01-0.566D+00-0.181D+00 0.751D+00 0.821D+00
 Gap=     0.067 Goal=   None    Shift=    0.000
 Gap=     0.225 Goal=   None    Shift=    0.000
 RMSDP=8.32D-05 MaxDP=2.84D-03 DE=-2.82D-05 OVMax= 1.07D-02

 Cycle  13  Pass 0  IDiag  1:
 RMSU=  1.24D-05    CP:  9.75D-01  6.19D-02  9.64D-01  9.88D-01  1.43D+00
                    CP:  2.55D+00  3.00D+00  3.00D+00  3.00D+00  3.00D+00
                    CP:  2.94D+00  1.38D+00
 E= -461.220996336427     Delta-E=       -0.000004225184 Rises=F Damp=F
 DIIS: error= 1.91D-05 at cycle  13 NSaved=  13.
 NSaved=13 IEnMin=13 EnMin= -461.220996336427     IErMin=13 ErrMin= 1.91D-05
 ErrMax= 1.91D-05  0.00D+00 EMaxC= 1.00D-01 BMatC= 3.06D-07 BMatP= 1.06D-06
 IDIUse=1 WtCom= 1.00D+00 WtEn= 0.00D+00
 Coeff-Com: -0.105D-03 0.190D-03-0.100D-02-0.277D-02-0.512D-02-0.609D-02
 Coeff-Com:  0.315D-01 0.158D+00-0.157D+00-0.172D+00-0.118D+00 0.429D+00
 Coeff-Com:  0.843D+00
 Coeff:     -0.105D-03 0.190D-03-0.100D-02-0.277D-02-0.512D-02-0.609D-02
 Coeff:      0.315D-01 0.158D+00-0.157D+00-0.172D+00-0.118D+00 0.429D+00
 Coeff:      0.843D+00
 Gap=     0.066 Goal=   None    Shift=    0.000
 Gap=     0.225 Goal=   None    Shift=    0.000
 RMSDP=5.24D-05 MaxDP=1.81D-03 DE=-4.23D-06 OVMax= 6.70D-03

 Cycle  14  Pass 0  IDiag  1:
 RMSU=  3.34D-05    CP:  9.75D-01  6.20D-02  9.64D-01  9.88D-01  1.46D+00
                    CP:  2.63D+00  3.00D+00  3.00D+00  3.00D+00  3.00D+00
                    CP:  3.00D+00  1.64D+00  1.57D+00
 E= -461.220997365612     Delta-E=       -0.000001029185 Rises=F Damp=F
 DIIS: error= 5.82D-06 at cycle  14 NSaved=  14.
 NSaved=14 IEnMin=14 EnMin= -461.220997365612     IErMin=14 ErrMin= 5.82D-06
 ErrMax= 5.82D-06  0.00D+00 EMaxC= 1.00D-01 BMatC= 2.89D-08 BMatP= 3.06D-07
 IDIUse=1 WtCom= 1.00D+00 WtEn= 0.00D+00
 Coeff-Com:  0.770D-04-0.644D-04 0.164D-03-0.348D-03-0.233D-02-0.566D-02
 Coeff-Com:  0.252D-02 0.343D-01 0.324D-01-0.147D-01-0.134D+00-0.586D-02
 Coeff-Com:  0.256D+00 0.837D+00
 Coeff:      0.770D-04-0.644D-04 0.164D-03-0.348D-03-0.233D-02-0.566D-02
 Coeff:      0.252D-02 0.343D-01 0.324D-01-0.147D-01-0.134D+00-0.586D-02
 Coeff:      0.256D+00 0.837D+00
 Gap=     0.066 Goal=   None    Shift=    0.000
 Gap=     0.225 Goal=   None    Shift=    0.000
 RMSDP=3.06D-06 MaxDP=1.04D-04 DE=-1.03D-06 OVMax= 3.62D-04

 Initial convergence to 1.0D-05 achieved.  Increase integral accuracy.
 Cycle  15  Pass 1  IDiag  1:
 E= -461.220979300707     Delta-E=        0.000018064905 Rises=F Damp=F
 DIIS: error= 2.27D-05 at cycle   1 NSaved=   1.
 NSaved= 1 IEnMin= 1 EnMin= -461.220979300707     IErMin= 1 ErrMin= 2.27D-05
 ErrMax= 2.27D-05  0.00D+00 EMaxC= 1.00D-01 BMatC= 1.08D-07 BMatP= 1.08D-07
 IDIUse=1 WtCom= 1.00D+00 WtEn= 0.00D+00
 Coeff-Com:  0.100D+01
 Coeff:      0.100D+01
 Gap=     0.066 Goal=   None    Shift=    0.000
 Gap=     0.225 Goal=   None    Shift=    0.000
 RMSDP=3.06D-06 MaxDP=1.04D-04 DE= 1.81D-05 OVMax= 1.61D-04

 Cycle  16  Pass 1  IDiag  1:
 RMSU=  7.69D-06    CP:  1.00D+00
 E= -461.220979321365     Delta-E=       -0.000000020658 Rises=F Damp=F
 DIIS: error= 6.13D-06 at cycle   2 NSaved=   2.
 NSaved= 2 IEnMin= 2 EnMin= -461.220979321365     IErMin= 2 ErrMin= 6.13D-06
 ErrMax= 6.13D-06  0.00D+00 EMaxC= 1.00D-01 BMatC= 2.85D-08 BMatP= 1.08D-07
 IDIUse=1 WtCom= 1.00D+00 WtEn= 0.00D+00
 Coeff-Com:  0.266D+00 0.734D+00
 Coeff:      0.266D+00 0.734D+00
 Gap=     0.066 Goal=   None    Shift=    0.000
 Gap=     0.225 Goal=   None    Shift=    0.000
 RMSDP=1.84D-06 MaxDP=5.53D-05 DE=-2.07D-08 OVMax= 2.11D-04

 Cycle  17  Pass 1  IDiag  1:
 RMSU=  1.83D-06    CP:  1.00D+00  1.03D+00
 E= -461.220979326633     Delta-E=       -0.000000005268 Rises=F Damp=F
 DIIS: error= 6.45D-06 at cycle   3 NSaved=   3.
 NSaved= 3 IEnMin= 3 EnMin= -461.220979326633     IErMin= 2 ErrMin= 6.13D-06
 ErrMax= 6.45D-06  0.00D+00 EMaxC= 1.00D-01 BMatC= 3.22D-08 BMatP= 2.85D-08
 IDIUse=1 WtCom= 1.00D+00 WtEn= 0.00D+00
 Coeff-Com: -0.697D-02 0.517D+00 0.490D+00
 Coeff:     -0.697D-02 0.517D+00 0.490D+00
 Gap=     0.066 Goal=   None    Shift=    0.000
 Gap=     0.225 Goal=   None    Shift=    0.000
 RMSDP=7.68D-07 MaxDP=2.15D-05 DE=-5.27D-09 OVMax= 6.91D-05

 Cycle  18  Pass 1  IDiag  1:
 RMSU=  7.10D-07    CP:  1.00D+00  1.05D+00  1.12D+00
 E= -461.220979336020     Delta-E=       -0.000000009387 Rises=F Damp=F
 DIIS: error= 1.99D-06 at cycle   4 NSaved=   4.
 NSaved= 4 IEnMin= 4 EnMin= -461.220979336020     IErMin= 4 ErrMin= 1.99D-06
 ErrMax= 1.99D-06  0.00D+00 EMaxC= 1.00D-01 BMatC= 1.71D-09 BMatP= 2.85D-08
 IDIUse=1 WtCom= 1.00D+00 WtEn= 0.00D+00
 Coeff-Com: -0.981D-02 0.207D+00 0.966D-01 0.706D+00
 Coeff:     -0.981D-02 0.207D+00 0.966D-01 0.706D+00
 Gap=     0.066 Goal=   None    Shift=    0.000
 Gap=     0.225 Goal=   None    Shift=    0.000
 RMSDP=7.65D-07 MaxDP=2.69D-05 DE=-9.39D-09 OVMax= 9.77D-05

 Cycle  19  Pass 1  IDiag  1:
 RMSU=  1.30D-07    CP:  1.00D+00  1.07D+00  1.46D+00  1.58D+00
 E= -461.220979338409     Delta-E=       -0.000000002389 Rises=F Damp=F
 DIIS: error= 1.74D-06 at cycle   5 NSaved=   5.
 NSaved= 5 IEnMin= 5 EnMin= -461.220979338409     IErMin= 5 ErrMin= 1.74D-06
 ErrMax= 1.74D-06  0.00D+00 EMaxC= 1.00D-01 BMatC= 1.53D-09 BMatP= 1.71D-09
 IDIUse=1 WtCom= 1.00D+00 WtEn= 0.00D+00
 Coeff-Com:  0.662D-02-0.432D+00-0.722D+00 0.466D+00 0.168D+01
 Coeff:      0.662D-02-0.432D+00-0.722D+00 0.466D+00 0.168D+01
 Gap=     0.066 Goal=   None    Shift=    0.000
 Gap=     0.225 Goal=   None    Shift=    0.000
 RMSDP=2.55D-06 MaxDP=8.88D-05 DE=-2.39D-09 OVMax= 3.23D-04

 Cycle  20  Pass 1  IDiag  1:
 RMSU=  4.73D-07    CP:  1.00D+00  1.13D+00  2.56D+00  3.00D+00  2.37D+00
 E= -461.220979344472     Delta-E=       -0.000000006063 Rises=F Damp=F
 DIIS: error= 9.56D-07 at cycle   6 NSaved=   6.
 NSaved= 6 IEnMin= 6 EnMin= -461.220979344472     IErMin= 6 ErrMin= 9.56D-07
 ErrMax= 9.56D-07  0.00D+00 EMaxC= 1.00D-01 BMatC= 5.13D-10 BMatP= 1.53D-09
 IDIUse=1 WtCom= 1.00D+00 WtEn= 0.00D+00
 Coeff-Com:  0.803D-02-0.299D+00-0.473D+00-0.645D-01 0.799D+00 0.103D+01
 Coeff:      0.803D-02-0.299D+00-0.473D+00-0.645D-01 0.799D+00 0.103D+01
 Gap=     0.066 Goal=   None    Shift=    0.000
 Gap=     0.225 Goal=   None    Shift=    0.000
 RMSDP=1.92D-06 MaxDP=6.60D-05 DE=-6.06D-09 OVMax= 2.45D-04

 Cycle  21  Pass 1  IDiag  1:
 RMSU=  7.90D-07    CP:  1.00D+00  1.18D+00  3.00D+00  3.00D+00  3.00D+00
                    CP:  3.00D+00
 E= -461.220979346978     Delta-E=       -0.000000002506 Rises=F Damp=F
 DIIS: error= 5.95D-07 at cycle   7 NSaved=   7.
 NSaved= 7 IEnMin= 7 EnMin= -461.220979346978     IErMin= 7 ErrMin= 5.95D-07
 ErrMax= 5.95D-07  0.00D+00 EMaxC= 1.00D-01 BMatC= 1.90D-10 BMatP= 5.13D-10
 IDIUse=1 WtCom= 1.00D+00 WtEn= 0.00D+00
 Coeff-Com:  0.865D-03 0.676D-01 0.748D-01-0.215D+00-0.400D+00 0.567D+00
 Coeff-Com:  0.905D+00
 Coeff:      0.865D-03 0.676D-01 0.748D-01-0.215D+00-0.400D+00 0.567D+00
 Coeff:      0.905D+00
 Gap=     0.066 Goal=   None    Shift=    0.000
 Gap=     0.225 Goal=   None    Shift=    0.000
 RMSDP=1.04D-06 MaxDP=3.59D-05 DE=-2.51D-09 OVMax= 1.33D-04

 Cycle  22  Pass 1  IDiag  1:
 RMSU=  4.88D-07    CP:  1.00D+00  1.20D+00  3.00D+00  3.00D+00  3.00D+00
                    CP:  3.00D+00  2.13D+00
 E= -461.220979347653     Delta-E=       -0.000000000675 Rises=F Damp=F
 DIIS: error= 2.89D-07 at cycle   8 NSaved=   8.
 NSaved= 8 IEnMin= 8 EnMin= -461.220979347653     IErMin= 8 ErrMin= 2.89D-07
 ErrMax= 2.89D-07  0.00D+00 EMaxC= 1.00D-01 BMatC= 6.05D-11 BMatP= 1.90D-10
 IDIUse=1 WtCom= 1.00D+00 WtEn= 0.00D+00
 Coeff-Com: -0.234D-02 0.145D+00 0.191D+00-0.564D-01-0.479D+00-0.115D+00
 Coeff-Com:  0.409D+00 0.909D+00
 Coeff:     -0.234D-02 0.145D+00 0.191D+00-0.564D-01-0.479D+00-0.115D+00
 Coeff:      0.409D+00 0.909D+00
 Gap=     0.066 Goal=   None    Shift=    0.000
 Gap=     0.225 Goal=   None    Shift=    0.000
 RMSDP=4.79D-07 MaxDP=1.48D-05 DE=-6.75D-10 OVMax= 6.13D-05

 Cycle  23  Pass 1  IDiag  1:
 RMSU=  7.20D-08    CP:  1.00D+00  1.21D+00  3.00D+00  3.00D+00  3.00D+00
                    CP:  3.00D+00  2.65D+00  1.46D+00
 E= -461.220979347830     Delta-E=       -0.000000000177 Rises=F Damp=F
 DIIS: error= 2.68D-07 at cycle   9 NSaved=   9.
 NSaved= 9 IEnMin= 9 EnMin= -461.220979347830     IErMin= 9 ErrMin= 2.68D-07
 ErrMax= 2.68D-07  0.00D+00 EMaxC= 1.00D-01 BMatC= 4.65D-11 BMatP= 6.05D-11
 IDIUse=1 WtCom= 1.00D+00 WtEn= 0.00D+00
 Coeff-Com: -0.233D-02 0.102D+00 0.132D+00 0.591D-01-0.245D+00-0.354D+00
 Coeff-Com: -0.556D-01 0.768D+00 0.596D+00
 Coeff:     -0.233D-02 0.102D+00 0.132D+00 0.591D-01-0.245D+00-0.354D+00
 Coeff:     -0.556D-01 0.768D+00 0.596D+00
 Gap=     0.066 Goal=   None    Shift=    0.000
 Gap=     0.225 Goal=   None    Shift=    0.000
 RMSDP=2.01D-07 MaxDP=6.97D-06 DE=-1.77D-10 OVMax= 2.56D-05

 Cycle  24  Pass 1  IDiag  1:
 RMSU=  3.41D-08    CP:  1.00D+00  1.22D+00  3.00D+00  3.00D+00  3.00D+00
                    CP:  3.00D+00  2.86D+00  1.67D+00  1.04D+00
 E= -461.220979347858     Delta-E=       -0.000000000028 Rises=F Damp=F
 DIIS: error= 7.30D-08 at cycle  10 NSaved=  10.
 NSaved=10 IEnMin=10 EnMin= -461.220979347858     IErMin=10 ErrMin= 7.30D-08
 ErrMax= 7.30D-08  0.00D+00 EMaxC= 1.00D-01 BMatC= 3.86D-12 BMatP= 4.65D-11
 IDIUse=1 WtCom= 1.00D+00 WtEn= 0.00D+00
 Coeff-Com: -0.465D-03 0.797D-02 0.588D-02 0.397D-01 0.813D-02-0.128D+00
 Coeff-Com: -0.123D+00 0.112D+00 0.223D+00 0.855D+00
 Coeff:     -0.465D-03 0.797D-02 0.588D-02 0.397D-01 0.813D-02-0.128D+00
 Coeff:     -0.123D+00 0.112D+00 0.223D+00 0.855D+00
 Gap=     0.066 Goal=   None    Shift=    0.000
 Gap=     0.225 Goal=   None    Shift=    0.000
 RMSDP=1.32D-07 MaxDP=4.22D-06 DE=-2.75D-11 OVMax= 1.68D-05

 Cycle  25  Pass 1  IDiag  1:
 RMSU=  7.95D-09    CP:  1.00D+00  1.22D+00  3.00D+00  3.00D+00  3.00D+00
                    CP:  3.00D+00  3.00D+00  1.80D+00  1.22D+00  1.17D+00
 E= -461.220979347869     Delta-E=       -0.000000000011 Rises=F Damp=F
 DIIS: error= 4.42D-08 at cycle  11 NSaved=  11.
 NSaved=11 IEnMin=11 EnMin= -461.220979347869     IErMin=11 ErrMin= 4.42D-08
 ErrMax= 4.42D-08  0.00D+00 EMaxC= 1.00D-01 BMatC= 9.93D-13 BMatP= 3.86D-12
 IDIUse=1 WtCom= 1.00D+00 WtEn= 0.00D+00
 Coeff-Com:  0.165D-03-0.142D-01-0.224D-01 0.140D-01 0.514D-01-0.860D-02
 Coeff-Com: -0.599D-01-0.784D-01 0.169D-01 0.466D+00 0.635D+00
 Coeff:      0.165D-03-0.142D-01-0.224D-01 0.140D-01 0.514D-01-0.860D-02
 Coeff:     -0.599D-01-0.784D-01 0.169D-01 0.466D+00 0.635D+00
 Gap=     0.066 Goal=   None    Shift=    0.000
 Gap=     0.225 Goal=   None    Shift=    0.000
 RMSDP=2.51D-08 MaxDP=8.41D-07 DE=-1.10D-11 OVMax= 3.17D-06

 SCF Done:  E(UB3LYP) =  -461.220979348     A.U. after   25 cycles
            NFock= 25  Conv=0.25D-07     -V/T= 2.0080
 <Sx>= 0.0000 <Sy>= 0.0000 <Sz>= 0.5000 <S**2>= 0.7575 S= 0.5037
 <L.S>= 0.000000000000E+00
 KE= 4.575441022606D+02 PE=-2.121050212612D+03 EE= 6.861018626437D+02
 Annihilation of the first spin contaminant:
 S**2 before annihilation     0.7575,   after     0.7500
 Leave Link  502 at Wed Dec 03 16:40:23 2025, MaxMem=   104857600 cpu:              52.0 elap:              52.7
 (Enter D:\Gaussian\G16W\l601.exe)
 Copying SCF densities to generalized density rwf, IOpCl= 1 IROHF=0.

 **********************************************************************

            Population analysis using the SCF density.

 **********************************************************************

 Orbital symmetries:
 Alpha Orbitals:
       Occupied  (A) (A) (A) (A) (A) (A) (A) (A) (A) (A) (A) (A)
                 (A) (A) (A) (A) (A) (A) (A) (A) (A) (A) (A) (A)
                 (A) (A) (A) (A) (A) (A) (A) (A) (A) (A) (A) (A)
                 (A) (A)
       Virtual   (A) (A) (A) (A) (A) (A) (A) (A) (A) (A) (A) (A)
                 (A) (A) (A) (A) (A) (A) (A) (A) (A) (A) (A) (A)
                 (A) (A) (A) (A) (A) (A) (A) (A) (A) (A) (A) (A)
                 (A) (A) (A) (A) (A) (A) (A) (A) (A) (A) (A) (A)
                 (A) (A) (A) (A) (A) (A) (A) (A) (A) (A) (A) (A)
                 (A) (A) (A) (A) (A) (A) (A) (A) (A) (A) (A) (A)
                 (A) (A) (A) (A) (A) (A) (A) (A) (A) (A) (A) (A)
                 (A) (A) (A) (A) (A) (A) (A) (A) (A) (A) (A) (A)
                 (A) (A) (A) (A) (A) (A) (A) (A) (A) (A) (A) (A)
                 (A) (A) (A) (A) (A) (A) (A) (A) (A) (A) (A) (A)
                 (A) (A) (A) (A) (A) (A) (A) (A) (A) (A) (A) (A)
 Beta  Orbitals:
       Occupied  (A) (A) (A) (A) (A) (A) (A) (A) (A) (A) (A) (A)
                 (A) (A) (A) (A) (A) (A) (A) (A) (A) (A) (A) (A)
                 (A) (A) (A) (A) (A) (A) (A) (A) (A) (A) (A) (A)
                 (A)
       Virtual   (A) (A) (A) (A) (A) (A) (A) (A) (A) (A) (A) (A)
                 (A) (A) (A) (A) (A) (A) (A) (A) (A) (A) (A) (A)
                 (A) (A) (A) (A) (A) (A) (A) (A) (A) (A) (A) (A)
                 (A) (A) (A) (A) (A) (A) (A) (A) (A) (A) (A) (A)
                 (A) (A) (A) (A) (A) (A) (A) (A) (A) (A) (A) (A)
                 (A) (A) (A) (A) (A) (A) (A) (A) (A) (A) (A) (A)
                 (A) (A) (A) (A) (A) (A) (A) (A) (A) (A) (A) (A)
                 (A) (A) (A) (A) (A) (A) (A) (A) (A) (A) (A) (A)
                 (A) (A) (A) (A) (A) (A) (A) (A) (A) (A) (A) (A)
                 (A) (A) (A) (A) (A) (A) (A) (A) (A) (A) (A) (A)
                 (A) (A) (A) (A) (A) (A) (A) (A) (A) (A) (A) (A)
                 (A)
 The electronic state is 2-A.
 Alpha  occ. eigenvalues --  -19.00457 -18.98433 -10.10077 -10.02564 -10.01337
 Alpha  occ. eigenvalues --  -10.00970  -9.97272  -9.96873  -9.95158  -9.93879
 Alpha  occ. eigenvalues --   -0.89279  -0.86128  -0.63593  -0.58428  -0.55062
 Alpha  occ. eigenvalues --   -0.52635  -0.47784  -0.40629  -0.40290  -0.35859
 Alpha  occ. eigenvalues --   -0.32235  -0.31811  -0.29674  -0.26698  -0.25105
 Alpha  occ. eigenvalues --   -0.24391  -0.23460  -0.21524  -0.20697  -0.18874
 Alpha  occ. eigenvalues --   -0.17671  -0.16288  -0.14939  -0.13281  -0.11686
 Alpha  occ. eigenvalues --   -0.03438  -0.00896   0.15854
 Alpha virt. eigenvalues --    0.22498   0.23453   0.24386   0.26668   0.28075
 Alpha virt. eigenvalues --    0.29388   0.30242   0.30757   0.32507   0.32547
 Alpha virt. eigenvalues --    0.34278   0.36925   0.39045   0.41508   0.42749
 Alpha virt. eigenvalues --    0.47761   0.51652   0.53715   0.55759   0.58871
 Alpha virt. eigenvalues --    0.63459   0.68483   0.68907   0.70769   0.71207
 Alpha virt. eigenvalues --    0.73046   0.74750   0.74816   0.75871   0.79537
 Alpha virt. eigenvalues --    0.80275   0.82066   0.83280   0.84736   0.85469
 Alpha virt. eigenvalues --    0.87639   0.89734   0.89817   0.91504   0.92633
 Alpha virt. eigenvalues --    0.95037   0.97940   0.98366   1.00225   1.01550
 Alpha virt. eigenvalues --    1.04873   1.05645   1.06311   1.07043   1.09163
 Alpha virt. eigenvalues --    1.10054   1.12333   1.12960   1.15265   1.16167
 Alpha virt. eigenvalues --    1.19059   1.22168   1.23731   1.25028   1.29868
 Alpha virt. eigenvalues --    1.32447   1.36638   1.41131   1.42972   1.45106
 Alpha virt. eigenvalues --    1.45743   1.51086   1.53780   1.59450   1.60204
 Alpha virt. eigenvalues --    1.60411   1.65401   1.65470   1.67881   1.69143
 Alpha virt. eigenvalues --    1.71894   1.84848   1.91365   1.92555   1.97399
 Alpha virt. eigenvalues --    1.99614   2.02787   2.05703   2.06910   2.08037
 Alpha virt. eigenvalues --    2.09687   2.12068   2.12780   2.15598   2.20068
 Alpha virt. eigenvalues --    2.21639   2.21902   2.25728   2.29284   2.32622
 Alpha virt. eigenvalues --    2.33284   2.37308   2.39399   2.42454   2.48518
 Alpha virt. eigenvalues --    2.49400   2.51367   2.54591   2.55567   2.56591
 Alpha virt. eigenvalues --    2.59958   2.63714   2.64240   2.75967   2.79730
 Alpha virt. eigenvalues --    2.80393   2.87759   2.89419   2.89727   2.99116
 Alpha virt. eigenvalues --    3.02715   3.07007   3.11829   3.14669   3.24655
 Alpha virt. eigenvalues --    3.44651   3.66319   4.11847   4.30190   4.31609
 Alpha virt. eigenvalues --    4.37282   4.40333   4.44200   4.54160   4.60539
 Alpha virt. eigenvalues --    4.75783   5.14526
  Beta  occ. eigenvalues --  -19.00390 -18.98435 -10.10082 -10.02593 -10.01052
  Beta  occ. eigenvalues --  -10.00988  -9.97352  -9.96683  -9.94660  -9.93344
  Beta  occ. eigenvalues --   -0.89110  -0.86096  -0.62999  -0.58129  -0.54795
  Beta  occ. eigenvalues --   -0.51953  -0.47411  -0.40358  -0.39694  -0.35732
  Beta  occ. eigenvalues --   -0.31833  -0.31655  -0.29513  -0.26546  -0.24915
  Beta  occ. eigenvalues --   -0.24008  -0.23242  -0.20907  -0.20489  -0.18736
  Beta  occ. eigenvalues --   -0.17450  -0.15840  -0.14742  -0.13028  -0.10364
  Beta  occ. eigenvalues --   -0.00441   0.00471
  Beta virt. eigenvalues --    0.22924   0.23489   0.23631   0.24433   0.26773
  Beta virt. eigenvalues --    0.28124   0.29529   0.30388   0.30796   0.32610
  Beta virt. eigenvalues --    0.33590   0.34586   0.37088   0.41492   0.41880
  Beta virt. eigenvalues --    0.43035   0.48281   0.51848   0.53909   0.56348
  Beta virt. eigenvalues --    0.59344   0.63543   0.68663   0.69227   0.71151
  Beta virt. eigenvalues --    0.71631   0.73373   0.75132   0.75583   0.76134
  Beta virt. eigenvalues --    0.79820   0.81667   0.82358   0.83852   0.85893
  Beta virt. eigenvalues --    0.86408   0.88140   0.89968   0.90153   0.92498
  Beta virt. eigenvalues --    0.92775   0.95293   0.97971   0.99116   1.00851
  Beta virt. eigenvalues --    1.01761   1.05194   1.05903   1.06492   1.07197
  Beta virt. eigenvalues --    1.09413   1.10173   1.12452   1.13094   1.15458
  Beta virt. eigenvalues --    1.16414   1.19326   1.22436   1.24057   1.25329
  Beta virt. eigenvalues --    1.30057   1.32731   1.37104   1.41356   1.43237
  Beta virt. eigenvalues --    1.45370   1.46862   1.51259   1.54320   1.59939
  Beta virt. eigenvalues --    1.60656   1.60694   1.65864   1.66270   1.68057
  Beta virt. eigenvalues --    1.70125   1.73020   1.85015   1.91530   1.92785
  Beta virt. eigenvalues --    1.97848   2.00181   2.03044   2.06320   2.07527
  Beta virt. eigenvalues --    2.08267   2.09912   2.13046   2.13113   2.15725
  Beta virt. eigenvalues --    2.20378   2.22199   2.22468   2.26126   2.29925
  Beta virt. eigenvalues --    2.33061   2.33678   2.37838   2.39563   2.42957
  Beta virt. eigenvalues --    2.49323   2.50575   2.51811   2.55289   2.55627
  Beta virt. eigenvalues --    2.57027   2.60755   2.64415   2.64439   2.76882
  Beta virt. eigenvalues --    2.80432   2.80650   2.88011   2.90388   2.90807
  Beta virt. eigenvalues --    2.99630   3.02977   3.07254   3.12112   3.14885
  Beta virt. eigenvalues --    3.25331   3.44855   3.66588   4.11926   4.30652
  Beta virt. eigenvalues --    4.32044   4.37637   4.40854   4.44393   4.54399
  Beta virt. eigenvalues --    4.61274   4.76255   5.14957
          Condensed to atoms (all electrons):
               1          2          3          4          5          6
     1  C    4.684233   0.417872   0.026257  -0.033723  -0.038476   0.606869
     2  C    0.417872   5.349837   0.473402  -0.076842  -0.034739  -0.031531
     3  C    0.026257   0.473402   4.677029   0.517901  -0.039190  -0.050039
     4  C   -0.033723  -0.076842   0.517901   4.966876   0.338848   0.016389
     5  C   -0.038476  -0.034739  -0.039190   0.338848   5.404027   0.428193
     6  C    0.606869  -0.031531  -0.050039   0.016389   0.428193   5.003221
     7  H   -0.066903   0.324912  -0.050088   0.010439  -0.000085   0.008221
     8  H    0.004387   0.001464   0.003620  -0.054517   0.324482  -0.040962
     9  O    0.000211   0.003956  -0.050722   0.181671  -0.061202   0.003736
    10  C   -0.000018  -0.000083   0.003930  -0.046858  -0.006312   0.000114
    11  H    0.000000   0.000007   0.000077   0.003016   0.000235   0.000001
    12  H   -0.000002  -0.000020  -0.000056   0.000836   0.004234  -0.000162
    13  H   -0.000002  -0.000020  -0.000056   0.000835   0.004234  -0.000162
    14  O    0.002305  -0.041165   0.252993  -0.069666   0.005763   0.000232
    15  H    0.000072   0.004657  -0.047140  -0.013723   0.001796  -0.000190
    16  H   -0.045302   0.007654   0.000857   0.004346  -0.057543   0.323093
    17  C    0.367778  -0.095967   0.008477   0.000603   0.008736  -0.054291
    18  H   -0.042934   0.007625  -0.000290  -0.000032   0.000065  -0.001199
    19  H   -0.042931   0.007623  -0.000290  -0.000032   0.000065  -0.001197
    20  H   -0.024481   0.003568  -0.000166   0.000021  -0.000157  -0.003751
               7          8          9         10         11         12
     1  C   -0.066903   0.004387   0.000211  -0.000018   0.000000  -0.000002
     2  C    0.324912   0.001464   0.003956  -0.000083   0.000007  -0.000020
     3  C   -0.050088   0.003620  -0.050722   0.003930   0.000077  -0.000056
     4  C    0.010439  -0.054517   0.181671  -0.046858   0.003016   0.000836
     5  C   -0.000085   0.324482  -0.061202  -0.006312   0.000235   0.004234
     6  C    0.008221  -0.040962   0.003736   0.000114   0.000001  -0.000162
     7  H    0.777368   0.000023  -0.000080   0.000005   0.000000   0.000000
     8  H    0.000023   0.756676  -0.008638   0.004756   0.000079   0.001525
     9  O   -0.000080  -0.008638   8.322988   0.280009  -0.038455  -0.041350
    10  C    0.000005   0.004756   0.280009   4.852846   0.374600   0.353431
    11  H    0.000000   0.000079  -0.038455   0.374600   0.631981  -0.039956
    12  H    0.000000   0.001525  -0.041350   0.353431  -0.039956   0.658821
    13  H    0.000000   0.001525  -0.041351   0.353433  -0.039957  -0.060248
    14  O   -0.002738  -0.000073  -0.012468   0.000310   0.000013  -0.000024
    15  H   -0.000547  -0.000019   0.032079  -0.001939  -0.000134   0.000133
    16  H   -0.000262  -0.008209  -0.000061  -0.000013   0.000000   0.000005
    17  C   -0.014484  -0.000287   0.000000   0.000000   0.000000   0.000000
    18  H    0.002842   0.000004   0.000000   0.000000   0.000000   0.000000
    19  H    0.002844   0.000004   0.000000   0.000000   0.000000   0.000000
    20  H    0.000084  -0.000012   0.000000   0.000000   0.000000   0.000000
              13         14         15         16         17         18
     1  C   -0.000002   0.002305   0.000072  -0.045302   0.367778  -0.042934
     2  C   -0.000020  -0.041165   0.004657   0.007654  -0.095967   0.007625
     3  C   -0.000056   0.252993  -0.047140   0.000857   0.008477  -0.000290
     4  C    0.000835  -0.069666  -0.013723   0.004346   0.000603  -0.000032
     5  C    0.004234   0.005763   0.001796  -0.057543   0.008736   0.000065
     6  C   -0.000162   0.000232  -0.000190   0.323093  -0.054291  -0.001199
     7  H    0.000000  -0.002738  -0.000547  -0.000262  -0.014484   0.002842
     8  H    0.001525  -0.000073  -0.000019  -0.008209  -0.000287   0.000004
     9  O   -0.041351  -0.012468   0.032079  -0.000061   0.000000   0.000000
    10  C    0.353433   0.000310  -0.001939  -0.000013   0.000000   0.000000
    11  H   -0.039957   0.000013  -0.000134   0.000000   0.000000   0.000000
    12  H   -0.060248  -0.000024   0.000133   0.000005   0.000000   0.000000
    13  H    0.658822  -0.000024   0.000133   0.000005   0.000000   0.000000
    14  O   -0.000024   8.321824   0.242222   0.000003  -0.000065   0.000000
    15  H    0.000133   0.242222   0.394836   0.000000   0.000006   0.000000
    16  H    0.000005   0.000003   0.000000   0.764251  -0.017090   0.000161
    17  C    0.000000  -0.000065   0.000006  -0.017090   5.338345   0.314418
    18  H    0.000000   0.000000   0.000000   0.000161   0.314418   0.749873
    19  H    0.000000   0.000000   0.000000   0.000161   0.314414  -0.083410
    20  H    0.000000   0.000000   0.000000   0.010219   0.345653  -0.035070
              19         20
     1  C   -0.042931  -0.024481
     2  C    0.007623   0.003568
     3  C   -0.000290  -0.000166
     4  C   -0.000032   0.000021
     5  C    0.000065  -0.000157
     6  C   -0.001197  -0.003751
     7  H    0.002844   0.000084
     8  H    0.000004  -0.000012
     9  O    0.000000   0.000000
    10  C    0.000000   0.000000
    11  H    0.000000   0.000000
    12  H    0.000000   0.000000
    13  H    0.000000   0.000000
    14  O    0.000000   0.000000
    15  H    0.000000   0.000000
    16  H    0.000161   0.010219
    17  C    0.314414   0.345653
    18  H   -0.083410  -0.035070
    19  H    0.749872  -0.035069
    20  H   -0.035069   0.643214
          Atomic-Atomic Spin Densities.
               1          2          3          4          5          6
     1  C    0.203850  -0.133882   0.006263   0.011077  -0.024413   0.048035
     2  C   -0.133882   0.660702  -0.087644  -0.034507   0.021938  -0.014767
     3  C    0.006263  -0.087644  -0.002125   0.067408  -0.018287   0.006216
     4  C    0.011077  -0.034507   0.067408   0.316811  -0.164568   0.007273
     5  C   -0.024413   0.021938  -0.018287  -0.164568   0.622293  -0.060693
     6  C    0.048035  -0.014767   0.006216   0.007273  -0.060693  -0.056020
     7  H    0.000166   0.005744  -0.001131  -0.000237  -0.000046  -0.000251
     8  H   -0.000050  -0.000085  -0.000168  -0.001377   0.005780  -0.000556
     9  O   -0.000057   0.000490  -0.004955  -0.031881   0.007116  -0.000124
    10  C   -0.000004   0.000008  -0.000132  -0.001948   0.001704  -0.000005
    11  H    0.000000   0.000000  -0.000007   0.000033   0.000009   0.000000
    12  H    0.000005  -0.000008   0.000060   0.001285  -0.002064   0.000024
    13  H    0.000005  -0.000008   0.000060   0.001285  -0.002063   0.000024
    14  O   -0.000060   0.003783  -0.000452  -0.004834   0.000325  -0.000040
    15  H   -0.000014   0.000159   0.000613  -0.000291   0.000005   0.000001
    16  H   -0.001178   0.000244  -0.000073   0.000201  -0.001013   0.002120
    17  C    0.047938  -0.017286   0.000468   0.000191  -0.001103   0.002951
    18  H   -0.017309   0.009470  -0.000204  -0.000065   0.000239  -0.001368
    19  H   -0.017306   0.009468  -0.000204  -0.000065   0.000239  -0.001367
    20  H   -0.000611   0.000116  -0.000005   0.000001   0.000001   0.000341
               7          8          9         10         11         12
     1  C    0.000166  -0.000050  -0.000057  -0.000004   0.000000   0.000005
     2  C    0.005744  -0.000085   0.000490   0.000008   0.000000  -0.000008
     3  C   -0.001131  -0.000168  -0.004955  -0.000132  -0.000007   0.000060
     4  C   -0.000237  -0.001377  -0.031881  -0.001948   0.000033   0.001285
     5  C   -0.000046   0.005780   0.007116   0.001704   0.000009  -0.002064
     6  C   -0.000251  -0.000556  -0.000124  -0.000005   0.000000   0.000024
     7  H   -0.031375  -0.000001   0.000001   0.000000   0.000000   0.000000
     8  H   -0.000001  -0.028045   0.000257  -0.000035  -0.000018   0.000058
     9  O    0.000001   0.000257   0.039032   0.001748   0.000048  -0.000758
    10  C    0.000000  -0.000035   0.001748  -0.003865   0.000178   0.000195
    11  H    0.000000  -0.000018   0.000048   0.000178  -0.000497   0.000029
    12  H    0.000000   0.000058  -0.000758   0.000195   0.000029   0.002167
    13  H    0.000000   0.000058  -0.000759   0.000196   0.000029  -0.000227
    14  O    0.000347   0.000002   0.000523   0.000003   0.000000  -0.000001
    15  H    0.000002   0.000001  -0.000046   0.000022  -0.000001  -0.000001
    16  H    0.000003   0.000307   0.000000   0.000000   0.000000   0.000000
    17  C    0.000524   0.000003   0.000000   0.000000   0.000000   0.000000
    18  H    0.000001   0.000000   0.000000   0.000000   0.000000   0.000000
    19  H    0.000002   0.000000   0.000000   0.000000   0.000000   0.000000
    20  H   -0.000010   0.000000   0.000000   0.000000   0.000000   0.000000
              13         14         15         16         17         18
     1  C    0.000005  -0.000060  -0.000014  -0.001178   0.047938  -0.017309
     2  C   -0.000008   0.003783   0.000159   0.000244  -0.017286   0.009470
     3  C    0.000060  -0.000452   0.000613  -0.000073   0.000468  -0.000204
     4  C    0.001285  -0.004834  -0.000291   0.000201   0.000191  -0.000065
     5  C   -0.002063   0.000325   0.000005  -0.001013  -0.001103   0.000239
     6  C    0.000024  -0.000040   0.000001   0.002120   0.002951  -0.001368
     7  H    0.000000   0.000347   0.000002   0.000003   0.000524   0.000001
     8  H    0.000058   0.000002   0.000001   0.000307   0.000003   0.000000
     9  O   -0.000759   0.000523  -0.000046   0.000000   0.000000   0.000000
    10  C    0.000196   0.000003   0.000022   0.000000   0.000000   0.000000
    11  H    0.000029   0.000000  -0.000001   0.000000   0.000000   0.000000
    12  H   -0.000227  -0.000001  -0.000001   0.000000   0.000000   0.000000
    13  H    0.002167  -0.000001  -0.000001   0.000000   0.000000   0.000000
    14  O   -0.000001  -0.000232   0.000218   0.000000  -0.000001   0.000001
    15  H   -0.000001   0.000218  -0.001228   0.000000   0.000000   0.000000
    16  H    0.000000   0.000000   0.000000   0.000381   0.000432  -0.000005
    17  C    0.000000  -0.000001   0.000000   0.000432   0.026432  -0.034872
    18  H    0.000000   0.000001   0.000000  -0.000005  -0.034872   0.109033
    19  H    0.000000   0.000001   0.000000  -0.000005  -0.034877  -0.038243
    20  H    0.000000   0.000000   0.000000  -0.000098   0.001447  -0.000173
              19         20
     1  C   -0.017306  -0.000611
     2  C    0.009468   0.000116
     3  C   -0.000204  -0.000005
     4  C   -0.000065   0.000001
     5  C    0.000239   0.000001
     6  C   -0.001367   0.000341
     7  H    0.000002  -0.000010
     8  H    0.000000   0.000000
     9  O    0.000000   0.000000
    10  C    0.000000   0.000000
    11  H    0.000000   0.000000
    12  H    0.000000   0.000000
    13  H    0.000000   0.000000
    14  O    0.000001   0.000000
    15  H    0.000000   0.000000
    16  H   -0.000005  -0.000098
    17  C   -0.034877   0.001447
    18  H   -0.038243  -0.000173
    19  H    0.109037  -0.000174
    20  H   -0.000174  -0.001409
 Mulliken charges and spin densities:
               1          2
     1  C    0.184790   0.122456
     2  C   -0.322211   0.423936
     3  C    0.273497  -0.034298
     4  C    0.253610   0.165792
     5  C   -0.282974   0.385399
     6  C   -0.206586  -0.068206
     7  H    0.008450  -0.026262
     8  H    0.014169  -0.023871
     9  O   -0.570325   0.010635
    10  C   -0.168213  -0.001934
    11  H    0.108494  -0.000197
    12  H    0.122832   0.000764
    13  H    0.122831   0.000764
    14  O   -0.699441  -0.000418
    15  H    0.387760  -0.000559
    16  H    0.017726   0.001317
    17  C   -0.516246  -0.007754
    18  H    0.087946   0.026505
    19  H    0.087946   0.026505
    20  H    0.095946  -0.000575
 Sum of Mulliken charges =  -1.00000   1.00000
 Mulliken charges and spin densities with hydrogens summed into heavy atoms:
               1          2
     1  C    0.184790   0.122456
     2  C   -0.313761   0.397675
     3  C    0.273497  -0.034298
     4  C    0.253610   0.165792
     5  C   -0.268805   0.361529
     6  C   -0.188860  -0.066889
     9  O   -0.570325   0.010635
    10  C    0.185944  -0.000603
    14  O   -0.311681  -0.000977
    17  C   -0.244409   0.044682
 Electronic spatial extent (au):  <R**2>=           1655.6723
 Charge=             -1.0000 electrons
 Dipole moment (field-independent basis, Debye):
    X=              4.0006    Y=             -1.2093    Z=              0.0000  Tot=              4.1794
 Quadrupole moment (field-independent basis, Debye-Ang):
   XX=            -72.2772   YY=            -71.5565   ZZ=            -65.8061
   XY=             -0.7681   XZ=              0.0003   YZ=              0.0002
 Traceless Quadrupole moment (field-independent basis, Debye-Ang):
   XX=             -2.3973   YY=             -1.6766   ZZ=              4.0739
   XY=             -0.7681   XZ=              0.0003   YZ=              0.0002
 Octapole moment (field-independent basis, Debye-Ang**2):
  XXX=             66.4396  YYY=             -1.1739  ZZZ=             -0.0009  XYY=             13.3386
  XXY=              5.7688  XXZ=             -0.0012  XZZ=             10.1523  YZZ=              4.8686
  YYZ=              0.0000  XYZ=             -0.0002
 Hexadecapole moment (field-independent basis, Debye-Ang**3):
 XXXX=          -1719.1224 YYYY=           -645.0374 ZZZZ=            -81.5262 XXXY=              3.8389
 XXXZ=              0.0182 YYYX=             14.3558 YYYZ=              0.0081 ZZZX=              0.0146
 ZZZY=              0.0075 XXYY=           -351.5763 XXZZ=           -287.3364 YYZZ=           -118.3195
 XXYZ=              0.0021 YYXZ=              0.0044 ZZXY=              1.8224
 N-N= 5.161832683598D+02 E-N=-2.121050214362D+03  KE= 4.575441022606D+02
                          Isotropic Fermi Contact Couplings
        Atom                 a.u.       MegaHertz       Gauss      10(-4) cm-1
     1  C(13)              0.00840       9.44610       3.37060       3.15088
     2  C(13)              0.04023      45.22308      16.13672      15.08480
     3  C(13)             -0.01454     -16.34689      -5.83298      -5.45274
     4  C(13)              0.01185      13.32032       4.75302       4.44318
     5  C(13)              0.03666      41.20858      14.70425      13.74570
     6  C(13)             -0.01543     -17.34498      -6.18912      -5.78566
     7  H(1)              -0.00687     -30.70560     -10.95652     -10.24228
     8  H(1)              -0.00627     -28.02530     -10.00013      -9.34824
     9  O(17)              0.00519      -3.14515      -1.12227      -1.04911
    10  C(13)             -0.00110      -1.23980      -0.44239      -0.41355
    11  H(1)              -0.00010      -0.43265      -0.15438      -0.14432
    12  H(1)               0.00113       5.05971       1.80543       1.68774
    13  H(1)               0.00113       5.05967       1.80542       1.68772
    14  O(17)             -0.00153       0.93015       0.33190       0.31027
    15  H(1)              -0.00022      -0.98910      -0.35293      -0.32993
    16  H(1)               0.00028       1.27012       0.45321       0.42367
    17  C(13)             -0.00737      -8.28596      -2.95664      -2.76390
    18  H(1)               0.00453      20.23229       7.21938       6.74877
    19  H(1)               0.00453      20.22974       7.21848       6.74792
    20  H(1)              -0.00017      -0.76521      -0.27305      -0.25525
 --------------------------------------------------------
       Center         ----  Spin Dipole Couplings  ----
                      3XX-RR        3YY-RR        3ZZ-RR
 --------------------------------------------------------
     1   Atom       -0.084326     -0.081055      0.165381
     2   Atom       -0.216919     -0.212565      0.429484
     3   Atom        0.002768     -0.009372      0.006605
     4   Atom       -0.125754     -0.117181      0.242935
     5   Atom       -0.204735     -0.194878      0.399613
     6   Atom        0.025860      0.014141     -0.040002
     7   Atom       -0.014374      0.014473     -0.000098
     8   Atom       -0.012824      0.013527     -0.000703
     9   Atom       -0.056456     -0.060458      0.116915
    10   Atom        0.005752     -0.001196     -0.004556
    11   Atom        0.003592     -0.001697     -0.001895
    12   Atom        0.004061     -0.001533     -0.002528
    13   Atom        0.004061     -0.001533     -0.002528
    14   Atom        0.000513      0.003027     -0.003540
    15   Atom        0.000176      0.004038     -0.004214
    16   Atom        0.001940      0.003359     -0.005299
    17   Atom        0.004064     -0.006043      0.001979
    18   Atom        0.006602     -0.002953     -0.003648
    19   Atom        0.006602     -0.002954     -0.003649
    20   Atom        0.004578     -0.002034     -0.002544
 --------------------------------------------------------
                        XY            XZ            YZ
 --------------------------------------------------------
     1   Atom        0.004643      0.000007      0.000006
     2   Atom       -0.004762      0.000013      0.000022
     3   Atom       -0.004381      0.000000      0.000000
     4   Atom        0.002430      0.000006      0.000008
     5   Atom       -0.003649      0.000014      0.000015
     6   Atom       -0.004705      0.000000     -0.000001
     7   Atom       -0.027823      0.000001      0.000000
     8   Atom       -0.026918      0.000001      0.000000
     9   Atom       -0.004634      0.000002      0.000009
    10   Atom       -0.002278      0.000000      0.000000
    11   Atom       -0.000774      0.000000      0.000000
    12   Atom       -0.002602      0.002095     -0.000908
    13   Atom       -0.002602     -0.002095      0.000908
    14   Atom        0.003454     -0.000001      0.000001
    15   Atom        0.004740      0.000000      0.000000
    16   Atom        0.000723      0.000000      0.000000
    17   Atom        0.002309      0.000001     -0.000001
    18   Atom       -0.000592     -0.002972     -0.000120
    19   Atom       -0.000592      0.002971      0.000119
    20   Atom        0.004549      0.000000      0.000000
 --------------------------------------------------------


 ---------------------------------------------------------------------------------
              Anisotropic Spin Dipole Couplings in Principal Axis System
 ---------------------------------------------------------------------------------

       Atom             a.u.   MegaHertz   Gauss  10(-4) cm-1        Axes

              Baa    -0.0876   -11.757    -4.195    -3.922  0.8162 -0.5778  0.0000
     1 C(13)  Bbb    -0.0778   -10.436    -3.724    -3.481  0.5778  0.8162  0.0000
              Bcc     0.1654    22.193     7.919     7.403  0.0000  0.0000  1.0000
 
              Baa    -0.2200   -29.519   -10.533    -9.846  0.8414  0.5405  0.0000
     2 C(13)  Bbb    -0.2095   -28.114   -10.032    -9.378 -0.5405  0.8414  0.0000
              Bcc     0.4295    57.633    20.565    19.224  0.0000  0.0000  1.0000
 
              Baa    -0.0108    -1.448    -0.517    -0.483  0.3075  0.9515  0.0000
     3 C(13)  Bbb     0.0042     0.561     0.200     0.187  0.9515 -0.3075 -0.0001
              Bcc     0.0066     0.886     0.316     0.296  0.0001  0.0000  1.0000
 
              Baa    -0.1264   -16.961    -6.052    -5.658  0.9669 -0.2550  0.0000
     4 C(13)  Bbb    -0.1165   -15.639    -5.580    -5.216  0.2550  0.9669  0.0000
              Bcc     0.2429    32.600    11.632    10.874  0.0000  0.0000  1.0000
 
              Baa    -0.2059   -27.635    -9.861    -9.218  0.9497  0.3133  0.0000
     5 C(13)  Bbb    -0.1937   -25.989    -9.274    -8.669 -0.3133  0.9497  0.0000
              Bcc     0.3996    53.624    19.134    17.887  0.0000  0.0000  1.0000
 
              Baa    -0.0400    -5.368    -1.915    -1.791  0.0000  0.0000  1.0000
     6 C(13)  Bbb     0.0125     1.675     0.598     0.559  0.3319  0.9433  0.0000
              Bcc     0.0275     3.692     1.318     1.232  0.9433 -0.3319  0.0000
 
              Baa    -0.0313   -16.695    -5.957    -5.569  0.8545  0.5195  0.0000
     7 H(1)   Bbb    -0.0001    -0.052    -0.019    -0.017  0.0000  0.0000  1.0000
              Bcc     0.0314    16.747     5.976     5.586 -0.5195  0.8545  0.0000
 
              Baa    -0.0296   -15.803    -5.639    -5.271  0.8484  0.5293  0.0000
     8 H(1)   Bbb    -0.0007    -0.375    -0.134    -0.125  0.0000  0.0000  1.0000
              Bcc     0.0303    16.178     5.773     5.396 -0.5293  0.8484  0.0000
 
              Baa    -0.0635     4.595     1.640     1.533  0.5493  0.8356  0.0000
     9 O(17)  Bbb    -0.0534     3.865     1.379     1.289  0.8356 -0.5493  0.0000
              Bcc     0.1169    -8.460    -3.019    -2.822  0.0000  0.0001  1.0000
 
              Baa    -0.0046    -0.611    -0.218    -0.204  0.0000  0.0000  1.0000
    10 C(13)  Bbb    -0.0019    -0.252    -0.090    -0.084  0.2861  0.9582  0.0000
              Bcc     0.0064     0.863     0.308     0.288  0.9582 -0.2861  0.0000
 
              Baa    -0.0019    -1.011    -0.361    -0.337  0.0000  0.0001  1.0000
    11 H(1)   Bbb    -0.0018    -0.965    -0.344    -0.322  0.1419  0.9899 -0.0001
              Bcc     0.0037     1.976     0.705     0.659  0.9899 -0.1419  0.0000
 
              Baa    -0.0032    -1.691    -0.603    -0.564 -0.2014  0.2104  0.9566
    12 H(1)   Bbb    -0.0025    -1.359    -0.485    -0.453  0.3958  0.9109 -0.1170
              Bcc     0.0057     3.050     1.088     1.017  0.8960 -0.3550  0.2668
 
              Baa    -0.0032    -1.691    -0.603    -0.564  0.2015 -0.2104  0.9566
    13 H(1)   Bbb    -0.0025    -1.359    -0.485    -0.453  0.3958  0.9109  0.1169
              Bcc     0.0057     3.050     1.088     1.017  0.8960 -0.3550 -0.2668
 
              Baa    -0.0035     0.256     0.091     0.085  0.0006 -0.0004  1.0000
    14 O(17)  Bbb    -0.0019     0.138     0.049     0.046  0.8192 -0.5736 -0.0007
              Bcc     0.0054    -0.394    -0.141    -0.131  0.5736  0.8192  0.0000
 
              Baa    -0.0042    -2.248    -0.802    -0.750  0.0000  0.0000  1.0000
    15 H(1)   Bbb    -0.0030    -1.607    -0.573    -0.536  0.8298 -0.5580  0.0000
              Bcc     0.0072     3.855     1.376     1.286  0.5580  0.8298  0.0000
 
              Baa    -0.0053    -2.827    -1.009    -0.943  0.0000  0.0000  1.0000
    16 H(1)   Bbb     0.0016     0.873     0.312     0.291  0.9220 -0.3871  0.0000
              Bcc     0.0037     1.954     0.697     0.652  0.3871  0.9220  0.0000
 
              Baa    -0.0065    -0.878    -0.313    -0.293 -0.2126  0.9771  0.0002
    17 C(13)  Bbb     0.0020     0.266     0.095     0.089 -0.0001 -0.0002  1.0000
              Bcc     0.0046     0.613     0.219     0.204  0.9771  0.2126  0.0001
 
              Baa    -0.0045    -2.398    -0.856    -0.800  0.2634  0.1747  0.9487
    18 H(1)   Bbb    -0.0029    -1.565    -0.559    -0.522  0.0042  0.9833 -0.1822
              Bcc     0.0074     3.964     1.414     1.322  0.9647 -0.0520 -0.2582
 
              Baa    -0.0045    -2.398    -0.856    -0.800 -0.2633 -0.1746  0.9488
    19 H(1)   Bbb    -0.0029    -1.565    -0.559    -0.522  0.0043  0.9833  0.1822
              Bcc     0.0074     3.964     1.414     1.322  0.9647 -0.0520  0.2582
 
              Baa    -0.0044    -2.322    -0.829    -0.774 -0.4539  0.8910  0.0000
    20 H(1)   Bbb    -0.0025    -1.357    -0.484    -0.453  0.0000  0.0000  1.0000
              Bcc     0.0069     3.679     1.313     1.227  0.8910  0.4539  0.0000
 

 ---------------------------------------------------------------------------------

 No NMR shielding tensors so no spin-rotation constants.
 Leave Link  601 at Wed Dec 03 16:40:24 2025, MaxMem=   104857600 cpu:               1.0 elap:               0.2
 (Enter D:\Gaussian\G16W\l9999.exe)
 1|1|UNPC-PC-20250526LCFF|SP|UB3LYP|6-31G(d)|C8H10O2(1-,2)|ADMINISTRATO
 R|03-Dec-2025|0||#P B3LYP/6-31G* SCF=conver=7 out=wfn||Generated by Mu
 ltiwfn (http://sobereva.com/multiwfn)||-1,2|C,0,-1.933369,-0.246665,0.
 000041|C,0,-1.282658,0.995897,-0.000005|C,0,0.100369,1.077632,-0.00003
 4|C,0,0.871051,-0.101568,-0.000019|C,0,0.24096,-1.336588,0.000025|C,0,
 -1.157829,-1.402479,0.000054|H,0,-1.847477,1.921798,-0.000018|H,0,0.81
 9664,-2.251143,0.000035|O,0,2.228799,0.123761,-0.000054|C,0,3.096923,-
 1.000086,-0.000017|H,0,4.10984,-0.600521,-0.000037|H,0,2.949156,-1.615
 682,0.894029|H,0,2.949146,-1.615749,-0.894015|O,0,0.714962,2.292615,-0
 .000079|H,0,1.667262,2.12776,-0.000091|H,0,-1.638566,-2.374537,0.00008
 8|C,0,-3.442273,-0.310888,0.000084|H,0,-3.862046,0.185016,0.881185|H,0
 ,-3.862102,0.185144,-0.880917|H,0,-3.79402,-1.34463,0.000021||Version=
 EM64W-G16RevA.03|State=2-A|HF=-461.2209793|S2=0.75746|S2-1=0.|S2A=0.75
 0033|RMSD=2.508e-008|Dipole=1.5739482,-0.475779,-0.0000025|Quadrupole=
 -1.782331,-1.2464964,3.0288274,-0.5710703,0.0001912,0.0001397|PG=C01 [
 X(C8H10O2)]||@

 Writing a WFN file to "N+1.wfn"


 Sacred cows make the best hamburger.
                               -- Mark Twain
 Job cpu time:       0 days  0 hours  0 minutes 56.0 seconds.
 Elapsed time:       0 days  0 hours  0 minutes 55.0 seconds.
 File lengths (MBytes):  RWF=     33 Int=      0 D2E=      0 Chk=      3 Scr=      1
 Normal termination of Gaussian 16 at Wed Dec 03 16:40:24 2025.
