 Entering Link 1 = D:\Gaussian\G16W\l1.exe PID=     42280.
  
 Copyright (c) 1988,1990,1992,1993,1995,1998,2003,2009,2016,
            Gaussian, Inc.  All Rights Reserved.
  
 This is part of the Gaussian(R) 16 program.  It is based on
 the Gaussian(R) 09 system (copyright 2009, Gaussian, Inc.),
 the Gaussian(R) 03 system (copyright 2003, Gaussian, Inc.),
 the Gaussian(R) 98 system (copyright 1998, Gaussian, Inc.),
 the Gaussian(R) 94 system (copyright 1995, Gaussian, Inc.),
 the Gaussian 92(TM) system (copyright 1992, Gaussian, Inc.),
 the Gaussian 90(TM) system (copyright 1990, Gaussian, Inc.),
 the Gaussian 88(TM) system (copyright 1988, Gaussian, Inc.),
 the Gaussian 86(TM) system (copyright 1986, Carnegie Mellon
 University), and the Gaussian 82(TM) system (copyright 1983,
 Carnegie Mellon University). Gaussian is a federally registered
 trademark of Gaussian, Inc.
  
 This software contains proprietary and confidential information,
 including trade secrets, belonging to Gaussian, Inc.
  
 This software is provided under written license and may be
 used, copied, transmitted, or stored only in accord with that
 written license.
  
 The following legend is applicable only to US Government
 contracts under FAR:
  
                    RESTRICTED RIGHTS LEGEND
  
 Use, reproduction and disclosure by the US Government is
 subject to restrictions as set forth in subparagraphs (a)
 and (c) of the Commercial Computer Software - Restricted
 Rights clause in FAR 52.227-19.
  
 Gaussian, Inc.
 340 Quinnipiac St., Bldg. 40, Wallingford CT 06492
  
  
 ---------------------------------------------------------------
 Warning -- This program may not be used in any manner that
 competes with the business of Gaussian, Inc. or will provide
 assistance to any competitor of Gaussian, Inc.  The licensee
 of this program is prohibited from giving any competitor of
 Gaussian, Inc. access to this program.  By using this program,
 the user acknowledges that Gaussian, Inc. is engaged in the
 business of creating and licensing software in the field of
 computational chemistry and represents and warrants to the
 licensee that it is not a competitor of Gaussian, Inc. and that
 it will not use this program in any manner prohibited above.
 ---------------------------------------------------------------
  

 Cite this work as:
 Gaussian 16, Revision A.03,
 M. J. Frisch, G. W. Trucks, H. B. Schlegel, G. E. Scuseria, 
 M. A. Robb, J. R. Cheeseman, G. Scalmani, V. Barone, 
 G. A. Petersson, H. Nakatsuji, X. Li, M. Caricato, A. V. Marenich, 
 J. Bloino, B. G. Janesko, R. Gomperts, B. Mennucci, H. P. Hratchian, 
 J. V. Ortiz, A. F. Izmaylov, J. L. Sonnenberg, D. Williams-Young, 
 F. Ding, F. Lipparini, F. Egidi, J. Goings, B. Peng, A. Petrone, 
 T. Henderson, D. Ranasinghe, V. G. Zakrzewski, J. Gao, N. Rega, 
 G. Zheng, W. Liang, M. Hada, M. Ehara, K. Toyota, R. Fukuda, 
 J. Hasegawa, M. Ishida, T. Nakajima, Y. Honda, O. Kitao, H. Nakai, 
 T. Vreven, K. Throssell, J. A. Montgomery, Jr., J. E. Peralta, 
 F. Ogliaro, M. J. Bearpark, J. J. Heyd, E. N. Brothers, K. N. Kudin, 
 V. N. Staroverov, T. A. Keith, R. Kobayashi, J. Normand, 
 K. Raghavachari, A. P. Rendell, J. C. Burant, S. S. Iyengar, 
 J. Tomasi, M. Cossi, J. M. Millam, M. Klene, C. Adamo, R. Cammi, 
 J. W. Ochterski, R. L. Martin, K. Morokuma, O. Farkas, 
 J. B. Foresman, and D. J. Fox, Gaussian, Inc., Wallingford CT, 2016.
 
 ******************************************
 Gaussian 16:  EM64W-G16RevA.03 17-Dec-2016
                03-Dec-2025 
 ******************************************
 %nprocs=   4
 Will use up to    4 processors via shared memory.
 ------------------------------------
 #P B3LYP/6-31G* SCF=conver=7 out=wfn
 ------------------------------------
 1/38=1,172=1/1;
 2/12=2,17=6,18=5,40=1/2;
 3/5=1,6=6,7=1,11=2,25=1,30=1,74=-5/1,2,3;
 4//1;
 5/5=2,6=7,38=5/2;
 6/7=2,8=2,9=2,10=2,28=1/1;
 99/5=1,6=100,9=1/99;
 Leave Link    1 at Wed Dec 03 16:40:36 2025, MaxMem=           0 cpu:               0.0 elap:               0.1
 (Enter D:\Gaussian\G16W\l101.exe)
 ----------------------------------------------------
 Generated by Multiwfn (http://sobereva.com/multiwfn)
 ----------------------------------------------------
 Symbolic Z-matrix:
 Charge =  1 Multiplicity = 2
 C                    -1.93337  -0.24667   0.00004 
 C                    -1.28266   0.9959   -0.00001 
 C                     0.10037   1.07763  -0.00003 
 C                     0.87105  -0.10157  -0.00002 
 C                     0.24096  -1.33659   0.00003 
 C                    -1.15783  -1.40248   0.00005 
 H                    -1.84748   1.9218   -0.00002 
 H                     0.81966  -2.25114   0.00004 
 O                     2.2288    0.12376  -0.00005 
 C                     3.09692  -1.00009  -0.00002 
 H                     4.10984  -0.60052  -0.00004 
 H                     2.94916  -1.61568   0.89403 
 H                     2.94915  -1.61575  -0.89402 
 O                     0.71496   2.29262  -0.00008 
 H                     1.66726   2.12776  -0.00009 
 H                    -1.63857  -2.37454   0.00009 
 C                    -3.44227  -0.31089   0.00008 
 H                    -3.86205   0.18502   0.88119 
 H                    -3.8621    0.18514  -0.88092 
 H                    -3.79402  -1.34463   0.00002 
 
 ITRead=  0  0  0  0  0  0  0  0  0  0  0  0  0  0  0  0  0  0  0  0
 MicOpt= -1 -1 -1 -1 -1 -1 -1 -1 -1 -1 -1 -1 -1 -1 -1 -1 -1 -1 -1 -1
 NAtoms=     20 NQM=       20 NQMF=       0 NMMI=      0 NMMIF=      0
                NMic=       0 NMicF=      0.
                    Isotopes and Nuclear Properties:
 (Nuclear quadrupole moments (NQMom) in fm**2, nuclear magnetic moments (NMagM)
  in nuclear magnetons)

  Atom         1           2           3           4           5           6           7           8           9          10
 IAtWgt=          12          12          12          12          12          12           1           1          16          12
 AtmWgt=  12.0000000  12.0000000  12.0000000  12.0000000  12.0000000  12.0000000   1.0078250   1.0078250  15.9949146  12.0000000
 NucSpn=           0           0           0           0           0           0           1           1           0           0
 AtZEff=   0.0000000   0.0000000   0.0000000   0.0000000   0.0000000   0.0000000   0.0000000   0.0000000   0.0000000   0.0000000
 NQMom=    0.0000000   0.0000000   0.0000000   0.0000000   0.0000000   0.0000000   0.0000000   0.0000000   0.0000000   0.0000000
 NMagM=    0.0000000   0.0000000   0.0000000   0.0000000   0.0000000   0.0000000   2.7928460   2.7928460   0.0000000   0.0000000
 AtZNuc=   6.0000000   6.0000000   6.0000000   6.0000000   6.0000000   6.0000000   1.0000000   1.0000000   8.0000000   6.0000000

  Atom        11          12          13          14          15          16          17          18          19          20
 IAtWgt=           1           1           1          16           1           1          12           1           1           1
 AtmWgt=   1.0078250   1.0078250   1.0078250  15.9949146   1.0078250   1.0078250  12.0000000   1.0078250   1.0078250   1.0078250
 NucSpn=           1           1           1           0           1           1           0           1           1           1
 AtZEff=   0.0000000   0.0000000   0.0000000   0.0000000   0.0000000   0.0000000   0.0000000   0.0000000   0.0000000   0.0000000
 NQMom=    0.0000000   0.0000000   0.0000000   0.0000000   0.0000000   0.0000000   0.0000000   0.0000000   0.0000000   0.0000000
 NMagM=    2.7928460   2.7928460   2.7928460   0.0000000   2.7928460   2.7928460   0.0000000   2.7928460   2.7928460   2.7928460
 AtZNuc=   1.0000000   1.0000000   1.0000000   8.0000000   1.0000000   1.0000000   6.0000000   1.0000000   1.0000000   1.0000000
 Leave Link  101 at Wed Dec 03 16:40:36 2025, MaxMem=   104857600 cpu:               0.0 elap:               0.1
 (Enter D:\Gaussian\G16W\l202.exe)
                          Input orientation:                          
 ---------------------------------------------------------------------
 Center     Atomic      Atomic             Coordinates (Angstroms)
 Number     Number       Type             X           Y           Z
 ---------------------------------------------------------------------
      1          6           0       -1.933369   -0.246665    0.000041
      2          6           0       -1.282658    0.995897   -0.000005
      3          6           0        0.100369    1.077632   -0.000034
      4          6           0        0.871051   -0.101568   -0.000019
      5          6           0        0.240960   -1.336588    0.000025
      6          6           0       -1.157829   -1.402479    0.000054
      7          1           0       -1.847477    1.921798   -0.000018
      8          1           0        0.819664   -2.251143    0.000035
      9          8           0        2.228799    0.123761   -0.000054
     10          6           0        3.096923   -1.000086   -0.000017
     11          1           0        4.109840   -0.600521   -0.000037
     12          1           0        2.949156   -1.615682    0.894029
     13          1           0        2.949146   -1.615749   -0.894015
     14          8           0        0.714962    2.292615   -0.000079
     15          1           0        1.667262    2.127760   -0.000091
     16          1           0       -1.638566   -2.374537    0.000088
     17          6           0       -3.442273   -0.310888    0.000084
     18          1           0       -3.862046    0.185016    0.881185
     19          1           0       -3.862102    0.185144   -0.880917
     20          1           0       -3.794020   -1.344630    0.000021
 ---------------------------------------------------------------------
                    Distance matrix (angstroms):
                    1          2          3          4          5
     1  C    0.000000
     2  C    1.402635   0.000000
     3  C    2.426902   1.385440   0.000000
     4  C    2.808171   2.417207   1.408710   0.000000
     5  C    2.432209   2.786018   2.418310   1.386466   0.000000
     6  C    1.391894   2.401622   2.781009   2.410129   1.400340
     7  H    2.170163   1.084580   2.122904   3.388865   3.870226
     8  H    3.405455   3.868207   3.405602   2.150189   1.082270
     9  O    4.178619   3.618142   2.332399   1.376319   2.466602
    10  C    5.086402   4.812970   3.646402   2.400383   2.875719
    11  H    6.053560   5.623841   4.346499   3.276997   3.938277
    12  H    5.149026   5.052513   4.021054   2.722202   2.865565
    13  H    5.149046   5.052535   4.021074   2.722214   2.865573
    14  O    3.669005   2.381588   1.361583   2.399266   3.660026
    15  H    4.313054   3.159611   1.886246   2.367246   3.746471
    16  H    2.148196   3.389173   3.865406   3.385936   2.147081
    17  C    1.510270   2.524208   3.805036   4.318400   3.823384
    18  H    2.163922   2.843812   4.156205   4.822951   4.463897
    19  H    2.163922   2.843740   4.156160   4.822958   4.463949
    20  H    2.160451   3.432930   4.586242   4.827845   4.034988
                    6          7          8          9         10
     6  C    0.000000
     7  H    3.395060   0.000000
     8  H    2.151908   4.952482   0.000000
     9  O    3.714654   4.455218   2.761491   0.000000
    10  C    4.273738   5.743213   2.598279   1.420096   0.000000
    11  H    5.328365   6.469290   3.681007   2.015664   1.088877
    12  H    4.208559   6.026672   2.395365   2.084217   1.095496
    13  H    4.208573   6.026696   2.395359   2.084217   1.095496
    14  O    4.142592   2.589131   4.544964   2.644925   4.063941
    15  H    4.521474   3.520768   4.460181   2.081186   3.439092
    16  H    1.084438   4.301411   2.461325   4.604129   4.930920
    17  C    2.531848   2.743768   4.682809   5.687704   6.575415
    18  H    3.257195   2.802038   5.350673   6.154570   7.113946
    19  H    3.257261   2.801904   5.350748   6.154572   7.113985
    20  H    2.636826   3.802444   4.701898   6.199236   6.899551
                   11         12         13         14         15
    11  H    0.000000
    12  H    1.782440   0.000000
    13  H    1.782441   1.788044   0.000000
    14  O    4.460430   4.589754   4.589772   0.000000
    15  H    3.661926   4.056607   4.056623   0.966464   0.000000
    16  H    6.015921   4.735207   4.735217   5.226988   5.585622
    17  C    7.557665   6.584223   6.584247   4.905184   5.661656
    18  H    8.058820   7.045222   7.265427   5.115428   5.926563
    19  H    8.058851   7.265442   7.045317   5.115352   5.926506
    20  H    7.938810   6.807580   6.807576   5.793140   6.471715
                   16         17         18         19         20
    16  H    0.000000
    17  C    2.740804   0.000000
    18  H    3.503071   1.094746   0.000000
    19  H    3.503177   1.094745   1.762102   0.000000
    20  H    2.388868   1.091947   1.766605   1.766606   0.000000
 Stoichiometry    C8H10O2(1+,2)
 Framework group  C1[X(C8H10O2)]
 Deg. of freedom    54
 Full point group                 C1      NOp   1
 Largest Abelian subgroup         C1      NOp   1
 Largest concise Abelian subgroup C1      NOp   1
                         Standard orientation:                         
 ---------------------------------------------------------------------
 Center     Atomic      Atomic             Coordinates (Angstroms)
 Number     Number       Type             X           Y           Z
 ---------------------------------------------------------------------
      1          6           0       -1.933369   -0.246665    0.000041
      2          6           0       -1.282658    0.995897   -0.000005
      3          6           0        0.100369    1.077632   -0.000034
      4          6           0        0.871051   -0.101568   -0.000019
      5          6           0        0.240960   -1.336588    0.000025
      6          6           0       -1.157829   -1.402479    0.000054
      7          1           0       -1.847477    1.921798   -0.000018
      8          1           0        0.819664   -2.251143    0.000035
      9          8           0        2.228799    0.123761   -0.000054
     10          6           0        3.096923   -1.000086   -0.000017
     11          1           0        4.109840   -0.600521   -0.000037
     12          1           0        2.949156   -1.615682    0.894029
     13          1           0        2.949146   -1.615749   -0.894015
     14          8           0        0.714962    2.292615   -0.000079
     15          1           0        1.667262    2.127760   -0.000091
     16          1           0       -1.638566   -2.374537    0.000088
     17          6           0       -3.442273   -0.310888    0.000084
     18          1           0       -3.862046    0.185016    0.881185
     19          1           0       -3.862102    0.185144   -0.880917
     20          1           0       -3.794020   -1.344630    0.000021
 ---------------------------------------------------------------------
 Rotational constants (GHZ):           2.5439796           0.9580347           0.7020890
 Leave Link  202 at Wed Dec 03 16:40:36 2025, MaxMem=   104857600 cpu:               0.0 elap:               0.1
 (Enter D:\Gaussian\G16W\l301.exe)
 Standard basis: 6-31G(d) (6D, 7F)
 Ernie: Thresh=  0.10000D-02 Tol=  0.10000D-05 Strict=F.
 There are   170 symmetry adapted cartesian basis functions of A   symmetry.
 There are   170 symmetry adapted basis functions of A   symmetry.
   170 basis functions,   320 primitive gaussians,   170 cartesian basis functions
    37 alpha electrons       36 beta electrons
       nuclear repulsion energy       516.1832683598 Hartrees.
 IExCor=  402 DFT=T Ex+Corr=B3LYP ExCW=0 ScaHFX=  0.200000
 ScaDFX=  0.800000  0.720000  1.000000  0.810000 ScalE2=  1.000000  1.000000
 IRadAn=      5 IRanWt=     -1 IRanGd=            0 ICorTp=0 IEmpDi=  4
 NAtoms=   20 NActive=   20 NUniq=   20 SFac= 1.00D+00 NAtFMM=   60 NAOKFM=F Big=F
 Integral buffers will be    131072 words long.
 Raffenetti 2 integral format.
 Two-electron integral symmetry is turned on.
 Leave Link  301 at Wed Dec 03 16:40:36 2025, MaxMem=   104857600 cpu:               0.0 elap:               0.1
 (Enter D:\Gaussian\G16W\l302.exe)
 NPDir=0 NMtPBC=     1 NCelOv=     1 NCel=       1 NClECP=     1 NCelD=      1
         NCelK=      1 NCelE2=     1 NClLst=     1 CellRange=     0.0.
 One-electron integrals computed using PRISM.
 One-electron integral symmetry used in STVInt
 NBasis=   170 RedAO= T EigKep=  3.78D-04  NBF=   170
 NBsUse=   170 1.00D-06 EigRej= -1.00D+00 NBFU=   170
 Precomputing XC quadrature grid using
 IXCGrd= 4 IRadAn=           5 IRanWt=          -1 IRanGd=           0 AccXCQ= 0.00D+00.
 Generated NRdTot=       0 NPtTot=           0 NUsed=           0 NTot=          32
 NSgBfM=   170   170   170   170   170 MxSgAt=    20 MxSgA2=    20.
 Leave Link  302 at Wed Dec 03 16:40:37 2025, MaxMem=   104857600 cpu:               1.0 elap:               0.4
 (Enter D:\Gaussian\G16W\l303.exe)
 DipDrv:  MaxL=1.
 Leave Link  303 at Wed Dec 03 16:40:37 2025, MaxMem=   104857600 cpu:               0.0 elap:               0.1
 (Enter D:\Gaussian\G16W\l401.exe)
 ExpMin= 1.61D-01 ExpMax= 5.48D+03 ExpMxC= 8.25D+02 IAcc=3 IRadAn=         5 AccDes= 0.00D+00
 Harris functional with IExCor=  402 and IRadAn=       5 diagonalized for initial guess.
 HarFok:  IExCor=  402 AccDes= 0.00D+00 IRadAn=         5 IDoV= 1 UseB2=F ITyADJ=14
 ICtDFT=  3500011 ScaDFX=  1.000000  1.000000  1.000000  1.000000
 FoFCou: FMM=F IPFlag=           0 FMFlag=      100000 FMFlg1=           0
         NFxFlg=           0 DoJE=T BraDBF=F KetDBF=T FulRan=T
         wScrn=  0.000000 ICntrl=       500 IOpCl=  0 I1Cent=   200000004 NGrid=           0
         NMat0=    1 NMatS0=      1 NMatT0=    0 NMatD0=    1 NMtDS0=    0 NMtDT0=    0
 Petite list used in FoFCou.
 Harris En= -461.053369022452    
 JPrj=0 DoOrth=F DoCkMO=F.
 Initial guess <Sx>= 0.0000 <Sy>= 0.0000 <Sz>= 0.5000 <S**2>= 0.7500 S= 0.5000
 Leave Link  401 at Wed Dec 03 16:40:38 2025, MaxMem=   104857600 cpu:               1.0 elap:               1.2
 (Enter D:\Gaussian\G16W\l502.exe)
 Integral symmetry usage will be decided dynamically.
 UHF open shell SCF:
 Using DIIS extrapolation, IDIIS=  1040.
 NGot=   104857600 LenX=   104796738 LenY=   104767397
 Requested convergence on RMS density matrix=1.00D-07 within 128 cycles.
 Requested convergence on MAX density matrix=1.00D-05.
 Requested convergence on             energy=1.00D-05.
 No special actions if energy rises.
 Fock matrices will be formed incrementally for  20 cycles.
 Integral accuracy reduced to 1.0D-05 until final iterations.

 Cycle   1  Pass 0  IDiag  1:
 FoFJK:  IHMeth= 1 ICntrl=       0 DoSepK=F KAlg= 0 I1Cent=           0 FoldK=F
 IRaf= 920000000 NMat=       1 IRICut=       1 DoRegI=T DoRafI=F ISym2E= 0 IDoP0=0 IntGTp=1.
 FoFCou: FMM=F IPFlag=           0 FMFlag=      100000 FMFlg1=           0
         NFxFlg=           0 DoJE=F BraDBF=F KetDBF=F FulRan=T
         wScrn=  0.000000 ICntrl=         0 IOpCl=  1 I1Cent=           0 NGrid=           0
         NMat0=    1 NMatS0=      1 NMatT0=    0 NMatD0=    1 NMtDS0=    0 NMtDT0=    0
 Symmetry not used in FoFCou.
 E= -460.837725513711    
 DIIS: error= 3.44D-02 at cycle   1 NSaved=   1.
 NSaved= 1 IEnMin= 1 EnMin= -460.837725513711     IErMin= 1 ErrMin= 3.44D-02
 ErrMax= 3.44D-02  0.00D+00 EMaxC= 1.00D-01 BMatC= 7.93D-01 BMatP= 7.93D-01
 IDIUse=3 WtCom= 6.56D-01 WtEn= 3.44D-01
 Coeff-Com:  0.100D+01
 Coeff-En:   0.100D+01
 Coeff:      0.100D+01
 Gap=     0.253 Goal=   None    Shift=    0.000
 Gap=     0.018 Goal=   None    Shift=    0.000
 GapD=    0.018 DampG=0.250 DampE=0.500 DampFc=0.2500 IDamp=-1.
 Damping current iteration by 2.50D-01
 RMSDP=5.71D-03 MaxDP=1.31D-01              OVMax= 4.16D-01

 Cycle   2  Pass 0  IDiag  1:
 RMSU=  1.40D-03    CP:  9.90D-01
 E= -460.905204541984     Delta-E=       -0.067479028272 Rises=F Damp=T
 DIIS: error= 1.78D-02 at cycle   2 NSaved=   2.
 NSaved= 2 IEnMin= 2 EnMin= -460.905204541984     IErMin= 2 ErrMin= 1.78D-02
 ErrMax= 1.78D-02  0.00D+00 EMaxC= 1.00D-01 BMatC= 2.03D-01 BMatP= 7.93D-01
 IDIUse=3 WtCom= 8.22D-01 WtEn= 1.78D-01
 Coeff-Com: -0.674D+00 0.167D+01
 Coeff-En:   0.000D+00 0.100D+01
 Coeff:     -0.554D+00 0.155D+01
 Gap=     0.258 Goal=   None    Shift=    0.000
 Gap=     0.054 Goal=   None    Shift=    0.000
 RMSDP=2.34D-03 MaxDP=4.83D-02 DE=-6.75D-02 OVMax= 3.33D-01

 Cycle   3  Pass 0  IDiag  1:
 RMSU=  2.15D-03    CP:  9.69D-01  1.51D+00
 E= -461.001603369739     Delta-E=       -0.096398827756 Rises=F Damp=F
 DIIS: error= 1.35D-02 at cycle   3 NSaved=   3.
 NSaved= 3 IEnMin= 3 EnMin= -461.001603369739     IErMin= 3 ErrMin= 1.35D-02
 ErrMax= 1.35D-02  0.00D+00 EMaxC= 1.00D-01 BMatC= 1.16D-01 BMatP= 2.03D-01
 IDIUse=3 WtCom= 8.65D-01 WtEn= 1.35D-01
 Coeff-Com: -0.432D+00 0.962D+00 0.470D+00
 Coeff-En:   0.000D+00 0.000D+00 0.100D+01
 Coeff:     -0.373D+00 0.832D+00 0.542D+00
 Gap=     0.242 Goal=   None    Shift=    0.000
 Gap=     0.069 Goal=   None    Shift=    0.000
 RMSDP=1.53D-03 MaxDP=5.03D-02 DE=-9.64D-02 OVMax= 1.72D-01

 Cycle   4  Pass 0  IDiag  1:
 RMSU=  9.09D-04    CP:  9.73D-01  1.86D+00  4.80D-01
 E= -461.023835382730     Delta-E=       -0.022232012991 Rises=F Damp=F
 DIIS: error= 7.83D-03 at cycle   4 NSaved=   4.
 NSaved= 4 IEnMin= 4 EnMin= -461.023835382730     IErMin= 4 ErrMin= 7.83D-03
 ErrMax= 7.83D-03  0.00D+00 EMaxC= 1.00D-01 BMatC= 3.60D-02 BMatP= 1.16D-01
 IDIUse=3 WtCom= 9.22D-01 WtEn= 7.83D-02
 Coeff-Com: -0.106D+00 0.234D+00 0.357D+00 0.515D+00
 Coeff-En:   0.000D+00 0.000D+00 0.271D+00 0.729D+00
 Coeff:     -0.977D-01 0.216D+00 0.350D+00 0.532D+00
 Gap=     0.230 Goal=   None    Shift=    0.000
 Gap=     0.072 Goal=   None    Shift=    0.000
 RMSDP=6.20D-04 MaxDP=2.19D-02 DE=-2.22D-02 OVMax= 7.65D-02

 Cycle   5  Pass 0  IDiag  1:
 RMSU=  2.86D-04    CP:  9.72D-01  1.72D+00  6.53D-01  6.16D-01
 E= -461.032546877159     Delta-E=       -0.008711494428 Rises=F Damp=F
 DIIS: error= 1.96D-03 at cycle   5 NSaved=   5.
 NSaved= 5 IEnMin= 5 EnMin= -461.032546877159     IErMin= 5 ErrMin= 1.96D-03
 ErrMax= 1.96D-03  0.00D+00 EMaxC= 1.00D-01 BMatC= 3.07D-03 BMatP= 3.60D-02
 IDIUse=3 WtCom= 9.80D-01 WtEn= 1.96D-02
 Coeff-Com: -0.123D-01 0.298D-01 0.157D+00 0.329D+00 0.497D+00
 Coeff-En:   0.000D+00 0.000D+00 0.000D+00 0.118D-01 0.988D+00
 Coeff:     -0.120D-01 0.292D-01 0.154D+00 0.322D+00 0.506D+00
 Gap=     0.230 Goal=   None    Shift=    0.000
 Gap=     0.075 Goal=   None    Shift=    0.000
 RMSDP=1.90D-04 MaxDP=6.36D-03 DE=-8.71D-03 OVMax= 1.48D-02

 Cycle   6  Pass 0  IDiag  1:
 RMSU=  1.18D-04    CP:  9.72D-01  1.73D+00  6.41D-01  6.77D-01  5.31D-01
 E= -461.033245764166     Delta-E=       -0.000698887007 Rises=F Damp=F
 DIIS: error= 7.35D-04 at cycle   6 NSaved=   6.
 NSaved= 6 IEnMin= 6 EnMin= -461.033245764166     IErMin= 6 ErrMin= 7.35D-04
 ErrMax= 7.35D-04  0.00D+00 EMaxC= 1.00D-01 BMatC= 2.48D-04 BMatP= 3.07D-03
 IDIUse=3 WtCom= 9.93D-01 WtEn= 7.35D-03
 Coeff-Com:  0.250D-02-0.588D-02 0.351D-01 0.903D-01 0.262D+00 0.616D+00
 Coeff-En:   0.000D+00 0.000D+00 0.000D+00 0.000D+00 0.000D+00 0.100D+01
 Coeff:      0.248D-02-0.584D-02 0.349D-01 0.896D-01 0.260D+00 0.618D+00
 Gap=     0.230 Goal=   None    Shift=    0.000
 Gap=     0.077 Goal=   None    Shift=    0.000
 RMSDP=5.93D-05 MaxDP=3.30D-03 DE=-6.99D-04 OVMax= 7.05D-03

 Cycle   7  Pass 0  IDiag  1:
 RMSU=  5.04D-05    CP:  9.72D-01  1.73D+00  6.44D-01  6.80D-01  6.20D-01
                    CP:  8.69D-01
 E= -461.033304624528     Delta-E=       -0.000058860362 Rises=F Damp=F
 DIIS: error= 2.90D-04 at cycle   7 NSaved=   7.
 NSaved= 7 IEnMin= 7 EnMin= -461.033304624528     IErMin= 7 ErrMin= 2.90D-04
 ErrMax= 2.90D-04  0.00D+00 EMaxC= 1.00D-01 BMatC= 5.44D-05 BMatP= 2.48D-04
 IDIUse=3 WtCom= 9.97D-01 WtEn= 2.90D-03
 Coeff-Com:  0.497D-02-0.109D-01-0.138D-01-0.221D-01 0.481D-01 0.355D+00
 Coeff-Com:  0.639D+00
 Coeff-En:   0.000D+00 0.000D+00 0.000D+00 0.000D+00 0.000D+00 0.000D+00
 Coeff-En:   0.100D+01
 Coeff:      0.495D-02-0.108D-01-0.137D-01-0.221D-01 0.480D-01 0.354D+00
 Coeff:      0.640D+00
 Gap=     0.230 Goal=   None    Shift=    0.000
 Gap=     0.077 Goal=   None    Shift=    0.000
 RMSDP=3.00D-05 MaxDP=1.45D-03 DE=-5.89D-05 OVMax= 2.10D-03

 Cycle   8  Pass 0  IDiag  1:
 RMSU=  2.11D-05    CP:  9.72D-01  1.73D+00  6.45D-01  6.86D-01  6.64D-01
                    CP:  1.00D+00  8.92D-01
 E= -461.033323293465     Delta-E=       -0.000018668938 Rises=F Damp=F
 DIIS: error= 9.38D-05 at cycle   8 NSaved=   8.
 NSaved= 8 IEnMin= 8 EnMin= -461.033323293465     IErMin= 8 ErrMin= 9.38D-05
 ErrMax= 9.38D-05  0.00D+00 EMaxC= 1.00D-01 BMatC= 4.98D-06 BMatP= 5.44D-05
 IDIUse=1 WtCom= 1.00D+00 WtEn= 0.00D+00
 Coeff-Com:  0.521D-03-0.654D-03-0.100D-01-0.278D-01-0.517D-01-0.494D-01
 Coeff-Com:  0.160D+00 0.979D+00
 Coeff:      0.521D-03-0.654D-03-0.100D-01-0.278D-01-0.517D-01-0.494D-01
 Coeff:      0.160D+00 0.979D+00
 Gap=     0.230 Goal=   None    Shift=    0.000
 Gap=     0.077 Goal=   None    Shift=    0.000
 RMSDP=2.13D-05 MaxDP=1.03D-03 DE=-1.87D-05 OVMax= 3.89D-03

 Cycle   9  Pass 0  IDiag  1:
 RMSU=  1.15D-05    CP:  9.72D-01  1.73D+00  6.47D-01  6.87D-01  6.86D-01
                    CP:  1.07D+00  1.16D+00  1.26D+00
 E= -461.033327261773     Delta-E=       -0.000003968307 Rises=F Damp=F
 DIIS: error= 7.59D-05 at cycle   9 NSaved=   9.
 NSaved= 9 IEnMin= 9 EnMin= -461.033327261773     IErMin= 9 ErrMin= 7.59D-05
 ErrMax= 7.59D-05  0.00D+00 EMaxC= 1.00D-01 BMatC= 4.67D-06 BMatP= 4.98D-06
 IDIUse=1 WtCom= 1.00D+00 WtEn= 0.00D+00
 Coeff-Com:  0.633D-04 0.393D-03-0.503D-02-0.162D-01-0.449D-01-0.853D-01
 Coeff-Com:  0.331D-02 0.697D+00 0.451D+00
 Coeff:      0.633D-04 0.393D-03-0.503D-02-0.162D-01-0.449D-01-0.853D-01
 Coeff:      0.331D-02 0.697D+00 0.451D+00
 Gap=     0.229 Goal=   None    Shift=    0.000
 Gap=     0.077 Goal=   None    Shift=    0.000
 RMSDP=7.64D-06 MaxDP=2.94D-04 DE=-3.97D-06 OVMax= 6.62D-04

 Initial convergence to 1.0D-05 achieved.  Increase integral accuracy.
 Cycle  10  Pass 1  IDiag  1:
 E= -461.033317240945     Delta-E=        0.000010020828 Rises=F Damp=F
 DIIS: error= 3.01D-05 at cycle   1 NSaved=   1.
 NSaved= 1 IEnMin= 1 EnMin= -461.033317240945     IErMin= 1 ErrMin= 3.01D-05
 ErrMax= 3.01D-05  0.00D+00 EMaxC= 1.00D-01 BMatC= 4.68D-07 BMatP= 4.68D-07
 IDIUse=1 WtCom= 1.00D+00 WtEn= 0.00D+00
 Coeff-Com:  0.100D+01
 Coeff:      0.100D+01
 Gap=     0.229 Goal=   None    Shift=    0.000
 Gap=     0.077 Goal=   None    Shift=    0.000
 RMSDP=7.64D-06 MaxDP=2.94D-04 DE= 1.00D-05 OVMax= 1.16D-03

 Cycle  11  Pass 1  IDiag  1:
 RMSU=  8.93D-06    CP:  1.00D+00
 E= -461.033317533041     Delta-E=       -0.000000292096 Rises=F Damp=F
 DIIS: error= 4.22D-05 at cycle   2 NSaved=   2.
 NSaved= 2 IEnMin= 2 EnMin= -461.033317533041     IErMin= 1 ErrMin= 3.01D-05
 ErrMax= 4.22D-05  0.00D+00 EMaxC= 1.00D-01 BMatC= 7.81D-07 BMatP= 4.68D-07
 IDIUse=1 WtCom= 1.00D+00 WtEn= 0.00D+00
 Coeff-Com:  0.589D+00 0.411D+00
 Coeff:      0.589D+00 0.411D+00
 Gap=     0.229 Goal=   None    Shift=    0.000
 Gap=     0.077 Goal=   None    Shift=    0.000
 RMSDP=2.96D-06 MaxDP=1.07D-04 DE=-2.92D-07 OVMax= 3.10D-04

 Cycle  12  Pass 1  IDiag  1:
 RMSU=  2.96D-06    CP:  1.00D+00  9.96D-01
 E= -461.033317774528     Delta-E=       -0.000000241487 Rises=F Damp=F
 DIIS: error= 1.64D-05 at cycle   3 NSaved=   3.
 NSaved= 3 IEnMin= 3 EnMin= -461.033317774528     IErMin= 3 ErrMin= 1.64D-05
 ErrMax= 1.64D-05  0.00D+00 EMaxC= 1.00D-01 BMatC= 8.93D-08 BMatP= 4.68D-07
 IDIUse=1 WtCom= 1.00D+00 WtEn= 0.00D+00
 Coeff-Com: -0.175D+00 0.114D+00 0.106D+01
 Coeff:     -0.175D+00 0.114D+00 0.106D+01
 Gap=     0.229 Goal=   None    Shift=    0.000
 Gap=     0.077 Goal=   None    Shift=    0.000
 RMSDP=4.13D-06 MaxDP=1.48D-04 DE=-2.41D-07 OVMax= 8.92D-04

 Cycle  13  Pass 1  IDiag  1:
 RMSU=  2.81D-06    CP:  1.00D+00  1.30D+00  1.48D+00
 E= -461.033317942046     Delta-E=       -0.000000167518 Rises=F Damp=F
 DIIS: error= 1.48D-05 at cycle   4 NSaved=   4.
 NSaved= 4 IEnMin= 4 EnMin= -461.033317942046     IErMin= 4 ErrMin= 1.48D-05
 ErrMax= 1.48D-05  0.00D+00 EMaxC= 1.00D-01 BMatC= 5.63D-08 BMatP= 8.93D-08
 IDIUse=1 WtCom= 1.00D+00 WtEn= 0.00D+00
 Coeff-Com: -0.296D+00-0.656D-01 0.647D+00 0.714D+00
 Coeff:     -0.296D+00-0.656D-01 0.647D+00 0.714D+00
 Gap=     0.229 Goal=   None    Shift=    0.000
 Gap=     0.077 Goal=   None    Shift=    0.000
 RMSDP=2.78D-06 MaxDP=9.79D-05 DE=-1.68D-07 OVMax= 5.60D-04

 Cycle  14  Pass 1  IDiag  1:
 RMSU=  1.05D-06    CP:  1.00D+00  1.47D+00  1.98D+00  1.50D+00
 E= -461.033318017170     Delta-E=       -0.000000075124 Rises=F Damp=F
 DIIS: error= 8.24D-06 at cycle   5 NSaved=   5.
 NSaved= 5 IEnMin= 5 EnMin= -461.033318017170     IErMin= 5 ErrMin= 8.24D-06
 ErrMax= 8.24D-06  0.00D+00 EMaxC= 1.00D-01 BMatC= 1.67D-08 BMatP= 5.63D-08
 IDIUse=1 WtCom= 1.00D+00 WtEn= 0.00D+00
 Coeff-Com: -0.107D+00-0.117D+00-0.141D+00 0.435D+00 0.930D+00
 Coeff:     -0.107D+00-0.117D+00-0.141D+00 0.435D+00 0.930D+00
 Gap=     0.229 Goal=   None    Shift=    0.000
 Gap=     0.077 Goal=   None    Shift=    0.000
 RMSDP=2.84D-06 MaxDP=1.02D-04 DE=-7.51D-08 OVMax= 6.31D-04

 Cycle  15  Pass 1  IDiag  1:
 RMSU=  5.12D-07    CP:  1.00D+00  1.66D+00  2.41D+00  2.14D+00  1.01D+00
 E= -461.033318051281     Delta-E=       -0.000000034111 Rises=F Damp=F
 DIIS: error= 6.46D-06 at cycle   6 NSaved=   6.
 NSaved= 6 IEnMin= 6 EnMin= -461.033318051281     IErMin= 6 ErrMin= 6.46D-06
 ErrMax= 6.46D-06  0.00D+00 EMaxC= 1.00D-01 BMatC= 1.44D-08 BMatP= 1.67D-08
 IDIUse=1 WtCom= 1.00D+00 WtEn= 0.00D+00
 Coeff-Com:  0.121D-02-0.698D-01-0.285D+00 0.116D+00 0.743D+00 0.495D+00
 Coeff:      0.121D-02-0.698D-01-0.285D+00 0.116D+00 0.743D+00 0.495D+00
 Gap=     0.229 Goal=   None    Shift=    0.000
 Gap=     0.077 Goal=   None    Shift=    0.000
 RMSDP=9.92D-07 MaxDP=3.53D-05 DE=-3.41D-08 OVMax= 1.99D-04

 Cycle  16  Pass 1  IDiag  1:
 RMSU=  2.00D-07    CP:  1.00D+00  1.72D+00  2.58D+00  2.34D+00  1.28D+00
                    CP:  6.48D-01
 E= -461.033318058021     Delta-E=       -0.000000006740 Rises=F Damp=F
 DIIS: error= 9.82D-07 at cycle   7 NSaved=   7.
 NSaved= 7 IEnMin= 7 EnMin= -461.033318058021     IErMin= 7 ErrMin= 9.82D-07
 ErrMax= 9.82D-07  0.00D+00 EMaxC= 1.00D-01 BMatC= 4.20D-10 BMatP= 1.44D-08
 IDIUse=1 WtCom= 1.00D+00 WtEn= 0.00D+00
 Coeff-Com:  0.115D-01-0.143D-01-0.950D-01-0.195D-01 0.197D+00 0.151D+00
 Coeff-Com:  0.770D+00
 Coeff:      0.115D-01-0.143D-01-0.950D-01-0.195D-01 0.197D+00 0.151D+00
 Coeff:      0.770D+00
 Gap=     0.229 Goal=   None    Shift=    0.000
 Gap=     0.077 Goal=   None    Shift=    0.000
 RMSDP=2.92D-07 MaxDP=1.07D-05 DE=-6.74D-09 OVMax= 6.00D-05

 Cycle  17  Pass 1  IDiag  1:
 RMSU=  9.85D-08    CP:  1.00D+00  1.74D+00  2.62D+00  2.40D+00  1.34D+00
                    CP:  7.16D-01  1.09D+00
 E= -461.033318058441     Delta-E=       -0.000000000419 Rises=F Damp=F
 DIIS: error= 5.99D-07 at cycle   8 NSaved=   8.
 NSaved= 8 IEnMin= 8 EnMin= -461.033318058441     IErMin= 8 ErrMin= 5.99D-07
 ErrMax= 5.99D-07  0.00D+00 EMaxC= 1.00D-01 BMatC= 2.14D-10 BMatP= 4.20D-10
 IDIUse=1 WtCom= 1.00D+00 WtEn= 0.00D+00
 Coeff-Com:  0.575D-02 0.972D-02 0.215D-01-0.388D-01-0.545D-01-0.565D-01
 Coeff-Com:  0.424D+00 0.689D+00
 Coeff:      0.575D-02 0.972D-02 0.215D-01-0.388D-01-0.545D-01-0.565D-01
 Coeff:      0.424D+00 0.689D+00
 Gap=     0.229 Goal=   None    Shift=    0.000
 Gap=     0.077 Goal=   None    Shift=    0.000
 RMSDP=8.06D-08 MaxDP=3.63D-06 DE=-4.19D-10 OVMax= 1.36D-05

 SCF Done:  E(UB3LYP) =  -461.033318058     A.U. after   17 cycles
            NFock= 17  Conv=0.81D-07     -V/T= 2.0093
 <Sx>= 0.0000 <Sy>= 0.0000 <Sz>= 0.5000 <S**2>= 0.7606 S= 0.5053
 <L.S>= 0.000000000000E+00
 KE= 4.567963636200D+02 PE=-2.091739565900D+03 EE= 6.577266158617D+02
 Annihilation of the first spin contaminant:
 S**2 before annihilation     0.7606,   after     0.7501
 Leave Link  502 at Wed Dec 03 16:41:15 2025, MaxMem=   104857600 cpu:              37.0 elap:              37.0
 (Enter D:\Gaussian\G16W\l601.exe)
 Copying SCF densities to generalized density rwf, IOpCl= 1 IROHF=0.

 **********************************************************************

            Population analysis using the SCF density.

 **********************************************************************

 Orbital symmetries:
 Alpha Orbitals:
       Occupied  (A) (A) (A) (A) (A) (A) (A) (A) (A) (A) (A) (A)
                 (A) (A) (A) (A) (A) (A) (A) (A) (A) (A) (A) (A)
                 (A) (A) (A) (A) (A) (A) (A) (A) (A) (A) (A) (A)
                 (A)
       Virtual   (A) (A) (A) (A) (A) (A) (A) (A) (A) (A) (A) (A)
                 (A) (A) (A) (A) (A) (A) (A) (A) (A) (A) (A) (A)
                 (A) (A) (A) (A) (A) (A) (A) (A) (A) (A) (A) (A)
                 (A) (A) (A) (A) (A) (A) (A) (A) (A) (A) (A) (A)
                 (A) (A) (A) (A) (A) (A) (A) (A) (A) (A) (A) (A)
                 (A) (A) (A) (A) (A) (A) (A) (A) (A) (A) (A) (A)
                 (A) (A) (A) (A) (A) (A) (A) (A) (A) (A) (A) (A)
                 (A) (A) (A) (A) (A) (A) (A) (A) (A) (A) (A) (A)
                 (A) (A) (A) (A) (A) (A) (A) (A) (A) (A) (A) (A)
                 (A) (A) (A) (A) (A) (A) (A) (A) (A) (A) (A) (A)
                 (A) (A) (A) (A) (A) (A) (A) (A) (A) (A) (A) (A)
                 (A)
 Beta  Orbitals:
       Occupied  (A) (A) (A) (A) (A) (A) (A) (A) (A) (A) (A) (A)
                 (A) (A) (A) (A) (A) (A) (A) (A) (A) (A) (A) (A)
                 (A) (A) (A) (A) (A) (A) (A) (A) (A) (A) (A) (A)
       Virtual   (A) (A) (A) (A) (A) (A) (A) (A) (A) (A) (A) (A)
                 (A) (A) (A) (A) (A) (A) (A) (A) (A) (A) (A) (A)
                 (A) (A) (A) (A) (A) (A) (A) (A) (A) (A) (A) (A)
                 (A) (A) (A) (A) (A) (A) (A) (A) (A) (A) (A) (A)
                 (A) (A) (A) (A) (A) (A) (A) (A) (A) (A) (A) (A)
                 (A) (A) (A) (A) (A) (A) (A) (A) (A) (A) (A) (A)
                 (A) (A) (A) (A) (A) (A) (A) (A) (A) (A) (A) (A)
                 (A) (A) (A) (A) (A) (A) (A) (A) (A) (A) (A) (A)
                 (A) (A) (A) (A) (A) (A) (A) (A) (A) (A) (A) (A)
                 (A) (A) (A) (A) (A) (A) (A) (A) (A) (A) (A) (A)
                 (A) (A) (A) (A) (A) (A) (A) (A) (A) (A) (A) (A)
                 (A) (A)
 The electronic state is 2-A.
 Alpha  occ. eigenvalues --  -19.40647 -19.38884 -10.47117 -10.46825 -10.40642
 Alpha  occ. eigenvalues --  -10.40359 -10.39836 -10.38602 -10.37316 -10.33720
 Alpha  occ. eigenvalues --   -1.28841  -1.25742  -1.06187  -0.97175  -0.94545
 Alpha  occ. eigenvalues --   -0.90247  -0.84743  -0.80832  -0.79403  -0.73721
 Alpha  occ. eigenvalues --   -0.71358  -0.67947  -0.66806  -0.64022  -0.62735
 Alpha  occ. eigenvalues --   -0.61649  -0.61331  -0.58878  -0.57786  -0.55774
 Alpha  occ. eigenvalues --   -0.54249  -0.53916  -0.53332  -0.52924  -0.50887
 Alpha  occ. eigenvalues --   -0.43175  -0.42335
 Alpha virt. eigenvalues --   -0.19407  -0.19194  -0.10547  -0.06058  -0.04179
 Alpha virt. eigenvalues --   -0.03723  -0.02117  -0.01156  -0.00810   0.00663
 Alpha virt. eigenvalues --    0.01256   0.01455   0.03327   0.04946   0.05157
 Alpha virt. eigenvalues --    0.07394   0.08577   0.13532   0.15927   0.17073
 Alpha virt. eigenvalues --    0.19605   0.28821   0.31956   0.32211   0.33603
 Alpha virt. eigenvalues --    0.35303   0.36672   0.36760   0.38192   0.39522
 Alpha virt. eigenvalues --    0.40436   0.42482   0.42879   0.43171   0.46382
 Alpha virt. eigenvalues --    0.46997   0.49996   0.53338   0.54052   0.55242
 Alpha virt. eigenvalues --    0.57614   0.58757   0.60924   0.64904   0.66869
 Alpha virt. eigenvalues --    0.69214   0.69667   0.71169   0.73231   0.73683
 Alpha virt. eigenvalues --    0.75742   0.75777   0.76818   0.77353   0.80608
 Alpha virt. eigenvalues --    0.81455   0.81857   0.84623   0.86530   0.88614
 Alpha virt. eigenvalues --    0.92507   0.95096   0.99137   1.02790   1.03641
 Alpha virt. eigenvalues --    1.05624   1.09049   1.13133   1.15178   1.19994
 Alpha virt. eigenvalues --    1.20518   1.21491   1.23918   1.27609   1.29379
 Alpha virt. eigenvalues --    1.31771   1.31965   1.47998   1.52526   1.54256
 Alpha virt. eigenvalues --    1.56158   1.59361   1.63120   1.66747   1.67201
 Alpha virt. eigenvalues --    1.68190   1.71793   1.73356   1.73753   1.76957
 Alpha virt. eigenvalues --    1.81128   1.83249   1.83983   1.88415   1.91781
 Alpha virt. eigenvalues --    1.93129   1.93732   2.00618   2.04455   2.05022
 Alpha virt. eigenvalues --    2.08084   2.11316   2.12238   2.15534   2.17305
 Alpha virt. eigenvalues --    2.18548   2.21351   2.24587   2.25944   2.36213
 Alpha virt. eigenvalues --    2.38013   2.40139   2.47103   2.47793   2.49680
 Alpha virt. eigenvalues --    2.58161   2.62584   2.66177   2.71504   2.73700
 Alpha virt. eigenvalues --    2.84269   3.02863   3.24282   3.73849   3.88965
 Alpha virt. eigenvalues --    3.91107   3.98560   4.01325   4.08865   4.16787
 Alpha virt. eigenvalues --    4.19020   4.35518   4.72933
  Beta  occ. eigenvalues --  -19.40158 -19.38460 -10.46759 -10.46534 -10.40658
  Beta  occ. eigenvalues --  -10.40133 -10.39477 -10.38725 -10.37402 -10.33724
  Beta  occ. eigenvalues --   -1.27905  -1.24818  -1.05401  -0.96315  -0.94116
  Beta  occ. eigenvalues --   -0.90046  -0.84266  -0.80413  -0.79078  -0.73290
  Beta  occ. eigenvalues --   -0.71088  -0.67673  -0.64991  -0.63754  -0.62604
  Beta  occ. eigenvalues --   -0.61404  -0.59577  -0.58519  -0.56718  -0.55583
  Beta  occ. eigenvalues --   -0.53797  -0.53072  -0.52668  -0.52441  -0.48787
  Beta  occ. eigenvalues --   -0.42437
  Beta virt. eigenvalues --   -0.34704  -0.17988  -0.16439  -0.10153  -0.05999
  Beta virt. eigenvalues --   -0.04053  -0.02134  -0.01944  -0.01025  -0.00712
  Beta virt. eigenvalues --    0.00789   0.01441   0.01671   0.03562   0.05286
  Beta virt. eigenvalues --    0.05367   0.07876   0.09116   0.13944   0.16223
  Beta virt. eigenvalues --    0.17311   0.19981   0.28958   0.32659   0.32915
  Beta virt. eigenvalues --    0.33916   0.35471   0.37040   0.37415   0.38370
  Beta virt. eigenvalues --    0.40089   0.40681   0.42589   0.43230   0.43519
  Beta virt. eigenvalues --    0.46553   0.47300   0.51090   0.53502   0.54743
  Beta virt. eigenvalues --    0.55410   0.57827   0.58926   0.61692   0.65002
  Beta virt. eigenvalues --    0.67007   0.69273   0.69914   0.71241   0.73562
  Beta virt. eigenvalues --    0.73842   0.76090   0.76919   0.77097   0.77664
  Beta virt. eigenvalues --    0.80787   0.81606   0.82007   0.84770   0.87928
  Beta virt. eigenvalues --    0.88865   0.92738   0.95457   0.99348   1.03796
  Beta virt. eigenvalues --    1.03933   1.05853   1.09252   1.14173   1.15439
  Beta virt. eigenvalues --    1.20635   1.21375   1.22026   1.24775   1.27871
  Beta virt. eigenvalues --    1.29965   1.31990   1.32543   1.48358   1.53429
  Beta virt. eigenvalues --    1.54610   1.56809   1.59693   1.63540   1.67389
  Beta virt. eigenvalues --    1.67930   1.68790   1.72118   1.73761   1.74368
  Beta virt. eigenvalues --    1.77283   1.81324   1.83893   1.84102   1.88828
  Beta virt. eigenvalues --    1.93011   1.93582   1.94022   2.01061   2.04620
  Beta virt. eigenvalues --    2.05783   2.08721   2.11330   2.13485   2.15760
  Beta virt. eigenvalues --    2.17634   2.18759   2.22012   2.25477   2.26582
  Beta virt. eigenvalues --    2.36599   2.39259   2.40569   2.48071   2.48582
  Beta virt. eigenvalues --    2.50125   2.58501   2.62877   2.66465   2.71819
  Beta virt. eigenvalues --    2.73953   2.84855   3.03090   3.24476   3.74476
  Beta virt. eigenvalues --    3.89398   3.91390   3.99210   4.01614   4.08961
  Beta virt. eigenvalues --    4.17180   4.19289   4.36007   4.73545
          Condensed to atoms (all electrons):
               1          2          3          4          5          6
     1  C    4.638622   0.523423   0.000745  -0.027875  -0.028064   0.491225
     2  C    0.523423   5.046861   0.506955  -0.067880  -0.042141  -0.038586
     3  C    0.000745   0.506955   4.617309   0.367836  -0.041458  -0.034775
     4  C   -0.027875  -0.067880   0.367836   4.753729   0.438956  -0.001720
     5  C   -0.028064  -0.042141  -0.041458   0.438956   5.083798   0.478731
     6  C    0.491225  -0.038586  -0.034775  -0.001720   0.478731   4.946199
     7  H   -0.038952   0.358362  -0.032561   0.006417  -0.000270   0.005281
     8  H    0.003037   0.000595   0.002593  -0.039641   0.360451  -0.024478
     9  O   -0.000049   0.003817  -0.049547   0.277072  -0.060879   0.003365
    10  C    0.000010  -0.000131   0.003912  -0.037277  -0.000578   0.000097
    11  H    0.000000   0.000005  -0.000026   0.002966   0.000098   0.000000
    12  H    0.000001  -0.000006  -0.000260  -0.006167   0.003388  -0.000008
    13  H    0.000001  -0.000006  -0.000260  -0.006167   0.003388  -0.000008
    14  O    0.002410  -0.051705   0.327964  -0.057843   0.004866  -0.000080
    15  H   -0.000088   0.004963  -0.026324  -0.013085   0.001259  -0.000096
    16  H   -0.033436   0.005179   0.000325   0.002933  -0.033695   0.361000
    17  C    0.361105  -0.058068   0.004945   0.000279   0.007033  -0.050231
    18  H   -0.022652  -0.003661  -0.000057   0.000012  -0.000198   0.001261
    19  H   -0.022654  -0.003661  -0.000057   0.000012  -0.000198   0.001262
    20  H   -0.032179   0.003786  -0.000160   0.000004   0.000310  -0.002519
               7          8          9         10         11         12
     1  C   -0.038952   0.003037  -0.000049   0.000010   0.000000   0.000001
     2  C    0.358362   0.000595   0.003817  -0.000131   0.000005  -0.000006
     3  C   -0.032561   0.002593  -0.049547   0.003912  -0.000026  -0.000260
     4  C    0.006417  -0.039641   0.277072  -0.037277   0.002966  -0.006167
     5  C   -0.000270   0.360451  -0.060879  -0.000578   0.000098   0.003388
     6  C    0.005281  -0.024478   0.003365   0.000097   0.000000  -0.000008
     7  H    0.494027   0.000011  -0.000046   0.000002   0.000000   0.000000
     8  H    0.000011   0.489817  -0.006327   0.006738  -0.000073   0.001164
     9  O   -0.000046  -0.006327   8.178353   0.206290  -0.027557  -0.028004
    10  C    0.000002   0.006738   0.206290   4.959114   0.385641   0.370904
    11  H    0.000000  -0.000073  -0.027557   0.385641   0.455476  -0.024034
    12  H    0.000000   0.001164  -0.028004   0.370904  -0.024034   0.510677
    13  H    0.000000   0.001164  -0.028004   0.370905  -0.024034  -0.036098
    14  O   -0.001764  -0.000035  -0.012319   0.000179   0.000004  -0.000008
    15  H   -0.000195  -0.000004   0.025673  -0.000829  -0.000118   0.000080
    16  H   -0.000109  -0.003907  -0.000033  -0.000005   0.000000   0.000001
    17  C   -0.006260  -0.000143   0.000000   0.000000   0.000000   0.000000
    18  H    0.001316   0.000002   0.000000   0.000000   0.000000   0.000000
    19  H    0.001316   0.000002   0.000000   0.000000   0.000000   0.000000
    20  H    0.000067  -0.000003   0.000000   0.000000   0.000000   0.000000
              13         14         15         16         17         18
     1  C    0.000001   0.002410  -0.000088  -0.033436   0.361105  -0.022652
     2  C   -0.000006  -0.051705   0.004963   0.005179  -0.058068  -0.003661
     3  C   -0.000260   0.327964  -0.026324   0.000325   0.004945  -0.000057
     4  C   -0.006167  -0.057843  -0.013085   0.002933   0.000279   0.000012
     5  C    0.003388   0.004866   0.001259  -0.033695   0.007033  -0.000198
     6  C   -0.000008  -0.000080  -0.000096   0.361000  -0.050231   0.001261
     7  H    0.000000  -0.001764  -0.000195  -0.000109  -0.006260   0.001316
     8  H    0.001164  -0.000035  -0.000004  -0.003907  -0.000143   0.000002
     9  O   -0.028004  -0.012319   0.025673  -0.000033   0.000000   0.000000
    10  C    0.370905   0.000179  -0.000829  -0.000005   0.000000   0.000000
    11  H   -0.024034   0.000004  -0.000118   0.000000   0.000000   0.000000
    12  H   -0.036098  -0.000008   0.000080   0.000001   0.000000   0.000000
    13  H    0.510676  -0.000008   0.000080   0.000001   0.000000   0.000000
    14  O   -0.000008   8.093775   0.241753   0.000002  -0.000041   0.000001
    15  H    0.000080   0.241753   0.302512   0.000000   0.000003   0.000000
    16  H    0.000001   0.000002   0.000000   0.488404  -0.006605   0.000098
    17  C    0.000000  -0.000041   0.000003  -0.006605   5.190585   0.365504
    18  H    0.000000   0.000001   0.000000   0.000098   0.365504   0.480404
    19  H    0.000000   0.000001   0.000000   0.000098   0.365505  -0.021257
    20  H    0.000000   0.000000   0.000000   0.005142   0.372104  -0.022898
              19         20
     1  C   -0.022654  -0.032179
     2  C   -0.003661   0.003786
     3  C   -0.000057  -0.000160
     4  C    0.000012   0.000004
     5  C   -0.000198   0.000310
     6  C    0.001262  -0.002519
     7  H    0.001316   0.000067
     8  H    0.000002  -0.000003
     9  O    0.000000   0.000000
    10  C    0.000000   0.000000
    11  H    0.000000   0.000000
    12  H    0.000000   0.000000
    13  H    0.000000   0.000000
    14  O    0.000001   0.000000
    15  H    0.000000   0.000000
    16  H    0.000098   0.005142
    17  C    0.365505   0.372104
    18  H   -0.021257  -0.022898
    19  H    0.480407  -0.022899
    20  H   -0.022899   0.500550
          Atomic-Atomic Spin Densities.
               1          2          3          4          5          6
     1  C    0.155924  -0.014299  -0.004098  -0.004540  -0.004943   0.042113
     2  C   -0.014299  -0.076379   0.017478  -0.001457   0.002348  -0.004651
     3  C   -0.004098   0.017478   0.197522   0.042191  -0.000871  -0.005320
     4  C   -0.004540  -0.001457   0.042191   0.254470   0.020606  -0.007888
     5  C   -0.004943   0.002348  -0.000871   0.020606  -0.104891  -0.020094
     6  C    0.042113  -0.004651  -0.005320  -0.007888  -0.020094   0.266638
     7  H   -0.000122   0.001165  -0.000216   0.000075  -0.000038   0.000029
     8  H    0.000071  -0.000046   0.000109  -0.000446   0.001172  -0.000239
     9  O    0.000042  -0.000018  -0.006482  -0.058411  -0.000247   0.000290
    10  C    0.000001  -0.000003  -0.000033   0.000367   0.000350   0.000000
    11  H    0.000000   0.000000  -0.000001   0.000034  -0.000007   0.000000
    12  H   -0.000003   0.000001   0.000070   0.001731   0.000118  -0.000055
    13  H   -0.000003   0.000001   0.000070   0.001731   0.000118  -0.000055
    14  O    0.000236  -0.000470  -0.049656  -0.005915  -0.000056   0.000058
    15  H   -0.000005  -0.000076   0.000770   0.000028  -0.000025   0.000001
    16  H   -0.000715  -0.000025  -0.000033   0.000000   0.000392   0.000056
    17  C   -0.005692   0.001654  -0.000003  -0.000005   0.000029  -0.002833
    18  H   -0.003283   0.000360   0.000042   0.000010   0.000007  -0.000466
    19  H   -0.003283   0.000360   0.000042   0.000010   0.000007  -0.000465
    20  H   -0.000128  -0.000038  -0.000002   0.000000   0.000007   0.000121
               7          8          9         10         11         12
     1  C   -0.000122   0.000071   0.000042   0.000001   0.000000  -0.000003
     2  C    0.001165  -0.000046  -0.000018  -0.000003   0.000000   0.000001
     3  C   -0.000216   0.000109  -0.006482  -0.000033  -0.000001   0.000070
     4  C    0.000075  -0.000446  -0.058411   0.000367   0.000034   0.001731
     5  C   -0.000038   0.001172  -0.000247   0.000350  -0.000007   0.000118
     6  C    0.000029  -0.000239   0.000290   0.000000   0.000000  -0.000055
     7  H    0.000530  -0.000001   0.000000   0.000000   0.000000   0.000000
     8  H   -0.000001   0.001937   0.000026  -0.000081   0.000005  -0.000027
     9  O    0.000000   0.000026   0.231972  -0.003735   0.000104  -0.002892
    10  C    0.000000  -0.000081  -0.003735  -0.011131   0.000241   0.001636
    11  H    0.000000   0.000005   0.000104   0.000241  -0.000373  -0.000064
    12  H    0.000000  -0.000027  -0.002892   0.001636  -0.000064   0.013802
    13  H    0.000000  -0.000027  -0.002892   0.001636  -0.000064  -0.003067
    14  O   -0.000086   0.000000   0.002134  -0.000001   0.000000  -0.000005
    15  H    0.000008   0.000000  -0.000437   0.000022   0.000002  -0.000001
    16  H    0.000002   0.000096   0.000001   0.000000   0.000000   0.000000
    17  C    0.000104   0.000001   0.000000   0.000000   0.000000   0.000000
    18  H   -0.000023   0.000000   0.000000   0.000000   0.000000   0.000000
    19  H   -0.000023   0.000000   0.000000   0.000000   0.000000   0.000000
    20  H    0.000003   0.000000   0.000000   0.000000   0.000000   0.000000
              13         14         15         16         17         18
     1  C   -0.000003   0.000236  -0.000005  -0.000715  -0.005692  -0.003283
     2  C    0.000001  -0.000470  -0.000076  -0.000025   0.001654   0.000360
     3  C    0.000070  -0.049656   0.000770  -0.000033  -0.000003   0.000042
     4  C    0.001731  -0.005915   0.000028   0.000000  -0.000005   0.000010
     5  C    0.000118  -0.000056  -0.000025   0.000392   0.000029   0.000007
     6  C   -0.000055   0.000058   0.000001   0.000056  -0.002833  -0.000466
     7  H    0.000000  -0.000086   0.000008   0.000002   0.000104  -0.000023
     8  H   -0.000027   0.000000   0.000000   0.000096   0.000001   0.000000
     9  O   -0.002892   0.002134  -0.000437   0.000001   0.000000   0.000000
    10  C    0.001636  -0.000001   0.000022   0.000000   0.000000   0.000000
    11  H   -0.000064   0.000000   0.000002   0.000000   0.000000   0.000000
    12  H   -0.003067  -0.000005  -0.000001   0.000000   0.000000   0.000000
    13  H    0.013802  -0.000005  -0.000001   0.000000   0.000000   0.000000
    14  O   -0.000005   0.201945  -0.001341   0.000000   0.000000  -0.000001
    15  H   -0.000001  -0.001341  -0.003790   0.000000   0.000000   0.000000
    16  H    0.000000   0.000000   0.000000  -0.011621   0.000208  -0.000004
    17  C    0.000000   0.000000   0.000000   0.000208  -0.011331   0.003812
    18  H    0.000000  -0.000001   0.000000  -0.000004   0.003812   0.015944
    19  H    0.000000  -0.000001   0.000000  -0.000004   0.003812  -0.003321
    20  H    0.000000   0.000000   0.000000  -0.000036   0.000537  -0.000128
              19         20
     1  C   -0.003283  -0.000128
     2  C    0.000360  -0.000038
     3  C    0.000042  -0.000002
     4  C    0.000010   0.000000
     5  C    0.000007   0.000007
     6  C   -0.000465   0.000121
     7  H   -0.000023   0.000003
     8  H    0.000000   0.000000
     9  O    0.000000   0.000000
    10  C    0.000000   0.000000
    11  H    0.000000   0.000000
    12  H    0.000000   0.000000
    13  H    0.000000   0.000000
    14  O   -0.000001   0.000000
    15  H    0.000000   0.000000
    16  H   -0.000004  -0.000036
    17  C    0.003812   0.000537
    18  H   -0.003321  -0.000128
    19  H    0.015940  -0.000128
    20  H   -0.000128  -0.000305
 Mulliken charges and spin densities:
               1          2
     1  C    0.185368   0.157273
     2  C   -0.188102  -0.074095
     3  C    0.352901   0.191576
     4  C    0.407436   0.242590
     5  C   -0.174795  -0.106019
     6  C   -0.135920   0.267239
     7  H    0.213360   0.001405
     8  H    0.209037   0.002552
     9  O   -0.481806   0.159454
    10  C   -0.264973  -0.010732
    11  H    0.231653  -0.000123
    12  H    0.208369   0.011242
    13  H    0.208369   0.011242
    14  O   -0.547150   0.146836
    15  H    0.464416  -0.004845
    16  H    0.214607  -0.011683
    17  C   -0.545715  -0.009707
    18  H    0.222127   0.012948
    19  H    0.222123   0.012945
    20  H    0.198695  -0.000097
 Sum of Mulliken charges =   1.00000   1.00000
 Mulliken charges and spin densities with hydrogens summed into heavy atoms:
               1          2
     1  C    0.185368   0.157273
     2  C    0.025257  -0.072690
     3  C    0.352901   0.191576
     4  C    0.407436   0.242590
     5  C    0.034242  -0.103467
     6  C    0.078687   0.255556
     9  O   -0.481806   0.159454
    10  C    0.383418   0.011629
    14  O   -0.082734   0.141991
    17  C    0.097230   0.016089
 Electronic spatial extent (au):  <R**2>=           1592.9301
 Charge=              1.0000 electrons
 Dipole moment (field-independent basis, Debye):
    X=              0.9438    Y=             -2.1979    Z=              0.0001  Tot=              2.3920
 Quadrupole moment (field-independent basis, Debye-Ang):
   XX=            -22.6988   YY=            -45.3768   ZZ=            -57.1738
   XY=             -1.3690   XZ=             -0.0006   YZ=             -0.0003
 Traceless Quadrupole moment (field-independent basis, Debye-Ang):
   XX=             19.0510   YY=             -3.6270   ZZ=            -15.4240
   XY=             -1.3690   XZ=             -0.0006   YZ=             -0.0003
 Octapole moment (field-independent basis, Debye-Ang**2):
  XXX=             21.9861  YYY=             -5.6298  ZZZ=             -0.0002  XYY=             10.4221
  XXY=             -8.8798  XXZ=              0.0008  XZZ=              5.1167  YZZ=              3.1066
  YYZ=             -0.0001  XYZ=              0.0001
 Hexadecapole moment (field-independent basis, Debye-Ang**3):
 XXXX=          -1048.3902 YYYY=           -486.3164 ZZZZ=            -65.6860 XXXY=            -23.3492
 XXXZ=              0.0064 YYYX=             19.9520 YYYZ=              0.0053 ZZZX=              0.0116
 ZZZY=              0.0067 XXYY=           -258.7951 XXZZ=           -240.3186 YYZZ=           -100.6181
 XXYZ=              0.0006 YYXZ=              0.0031 ZZXY=             -2.8479
 N-N= 5.161832683598D+02 E-N=-2.091739575999D+03  KE= 4.567963636200D+02
                          Isotropic Fermi Contact Couplings
        Atom                 a.u.       MegaHertz       Gauss      10(-4) cm-1
     1  C(13)              0.01308      14.70289       5.24636       4.90436
     2  C(13)             -0.01229     -13.81119      -4.92817      -4.60692
     3  C(13)              0.01303      14.64696       5.22640       4.88570
     4  C(13)              0.01878      21.10974       7.53248       7.04145
     5  C(13)             -0.01706     -19.17407      -6.84178      -6.39578
     6  C(13)              0.02392      26.89229       9.59584       8.97030
     7  H(1)               0.00045       2.00250       0.71454       0.66796
     8  H(1)               0.00080       3.59212       1.28176       1.19820
     9  O(17)              0.03652     -22.13857      -7.89959      -7.38463
    10  C(13)             -0.00456      -5.12356      -1.82821      -1.70903
    11  H(1)              -0.00011      -0.50705      -0.18093      -0.16913
    12  H(1)               0.00489      21.84698       7.79555       7.28737
    13  H(1)               0.00489      21.84745       7.79571       7.28752
    14  O(17)              0.02862     -17.35133      -6.19139      -5.78778
    15  H(1)              -0.00241     -10.75522      -3.83773      -3.58756
    16  H(1)              -0.00420     -18.76809      -6.69692      -6.26036
    17  C(13)             -0.00523      -5.88000      -2.09813      -1.96136
    18  H(1)               0.00681      30.45547      10.86727      10.15885
    19  H(1)               0.00681      30.44828      10.86470      10.15645
    20  H(1)              -0.00004      -0.19112      -0.06820      -0.06375
 --------------------------------------------------------
       Center         ----  Spin Dipole Couplings  ----
                      3XX-RR        3YY-RR        3ZZ-RR
 --------------------------------------------------------
     1   Atom       -0.090104     -0.092992      0.183096
     2   Atom        0.030984      0.025070     -0.056054
     3   Atom       -0.129112     -0.115459      0.244571
     4   Atom       -0.144691     -0.152301      0.296993
     5   Atom        0.039106      0.038824     -0.077930
     6   Atom       -0.145319     -0.138388      0.283707
     7   Atom        0.005842     -0.000664     -0.005178
     8   Atom        0.001500      0.004131     -0.005632
     9   Atom       -0.366345     -0.370434      0.736779
    10   Atom        0.000500      0.001926     -0.002426
    11   Atom        0.006256     -0.002616     -0.003639
    12   Atom        0.000164      0.002428     -0.002592
    13   Atom        0.000163      0.002429     -0.002592
    14   Atom       -0.321327     -0.325463      0.646790
    15   Atom        0.026698     -0.012319     -0.014380
    16   Atom       -0.014464      0.019155     -0.004692
    17   Atom       -0.000790     -0.010023      0.010813
    18   Atom        0.003247     -0.001722     -0.001525
    19   Atom        0.003247     -0.001721     -0.001527
    20   Atom        0.005474     -0.002106     -0.003368
 --------------------------------------------------------
                        XY            XZ            YZ
 --------------------------------------------------------
     1   Atom       -0.004658      0.000007      0.000008
     2   Atom        0.000976     -0.000002     -0.000002
     3   Atom       -0.001238      0.000008      0.000009
     4   Atom       -0.003778      0.000009      0.000012
     5   Atom        0.004919     -0.000003     -0.000003
     6   Atom        0.000531      0.000008      0.000011
     7   Atom       -0.000820      0.000000      0.000000
     8   Atom        0.002531      0.000000      0.000000
     9   Atom       -0.009605      0.000018      0.000042
    10   Atom       -0.008720      0.000001      0.000000
    11   Atom       -0.003583      0.000000      0.000000
    12   Atom       -0.004255      0.001606     -0.003404
    13   Atom       -0.004255     -0.001605      0.003403
    14   Atom        0.001536      0.000016      0.000026
    15   Atom       -0.005424     -0.000001      0.000000
    16   Atom        0.013834      0.000000     -0.000001
    17   Atom       -0.002440      0.000000      0.000001
    18   Atom       -0.002781     -0.002970      0.002231
    19   Atom       -0.002781      0.002969     -0.002231
    20   Atom        0.002332      0.000000      0.000000
 --------------------------------------------------------


 ---------------------------------------------------------------------------------
              Anisotropic Spin Dipole Couplings in Principal Axis System
 ---------------------------------------------------------------------------------

       Atom             a.u.   MegaHertz   Gauss  10(-4) cm-1        Axes

              Baa    -0.0964   -12.939    -4.617    -4.316  0.5933  0.8050  0.0000
     1 C(13)  Bbb    -0.0867   -11.630    -4.150    -3.879  0.8050 -0.5933  0.0000
              Bcc     0.1831    24.570     8.767     8.196  0.0000  0.0000  1.0000
 
              Baa    -0.0561    -7.522    -2.684    -2.509  0.0000  0.0000  1.0000
     2 C(13)  Bbb     0.0249     3.343     1.193     1.115 -0.1588  0.9873  0.0000
              Bcc     0.0311     4.179     1.491     1.394  0.9873  0.1588  0.0000
 
              Baa    -0.1292   -17.341    -6.188    -5.784  0.9960  0.0896  0.0000
     3 C(13)  Bbb    -0.1153   -15.479    -5.523    -5.163 -0.0896  0.9960  0.0000
              Bcc     0.2446    32.819    11.711    10.947  0.0000  0.0000  1.0000
 
              Baa    -0.1539   -20.646    -7.367    -6.887  0.3810  0.9246  0.0000
     4 C(13)  Bbb    -0.1431   -19.207    -6.854    -6.407  0.9246 -0.3810  0.0000
              Bcc     0.2970    39.854    14.221    13.294  0.0000  0.0000  1.0000
 
              Baa    -0.0779   -10.457    -3.731    -3.488  0.0000  0.0000  1.0000
     5 C(13)  Bbb     0.0340     4.568     1.630     1.524 -0.6969  0.7171  0.0000
              Bcc     0.0439     5.889     2.101     1.964  0.7171  0.6969  0.0000
 
              Baa    -0.1454   -19.506    -6.960    -6.506  0.9971 -0.0759  0.0000
     6 C(13)  Bbb    -0.1383   -18.565    -6.624    -6.193  0.0759  0.9971  0.0000
              Bcc     0.2837    38.071    13.585    12.699  0.0000  0.0000  1.0000
 
              Baa    -0.0052    -2.763    -0.986    -0.922  0.0000  0.0000  1.0000
     7 H(1)   Bbb    -0.0008    -0.409    -0.146    -0.136  0.1232  0.9924  0.0000
              Bcc     0.0059     3.172     1.132     1.058  0.9924 -0.1232  0.0000
 
              Baa    -0.0056    -3.005    -1.072    -1.002  0.0000  0.0000  1.0000
     8 H(1)   Bbb     0.0000    -0.020    -0.007    -0.007  0.8547 -0.5191  0.0000
              Bcc     0.0057     3.024     1.079     1.009  0.5191  0.8547  0.0000
 
              Baa    -0.3782    27.367     9.765     9.129  0.6292  0.7772  0.0000
     9 O(17)  Bbb    -0.3586    25.946     9.258     8.655  0.7772 -0.6292  0.0000
              Bcc     0.7368   -53.313   -19.023   -17.783  0.0000  0.0000  1.0000
 
              Baa    -0.0075    -1.011    -0.361    -0.337  0.7354  0.6777 -0.0001
    10 C(13)  Bbb    -0.0024    -0.326    -0.116    -0.109  0.0000  0.0001  1.0000
              Bcc     0.0100     1.337     0.477     0.446 -0.6777  0.7354  0.0000
 
              Baa    -0.0039    -2.072    -0.739    -0.691  0.3332  0.9428  0.0001
    11 H(1)   Bbb    -0.0036    -1.942    -0.693    -0.648  0.0000 -0.0001  1.0000
              Bcc     0.0075     4.013     1.432     1.339  0.9428 -0.3332  0.0000
 
              Baa    -0.0044    -2.357    -0.841    -0.786  0.2145  0.5384  0.8149
    12 H(1)   Bbb    -0.0027    -1.432    -0.511    -0.478  0.8092  0.3693 -0.4569
              Bcc     0.0071     3.790     1.352     1.264 -0.5469  0.7575 -0.3565
 
              Baa    -0.0044    -2.357    -0.841    -0.786 -0.2145 -0.5384  0.8150
    13 H(1)   Bbb    -0.0027    -1.432    -0.511    -0.478  0.8092  0.3693  0.4569
              Bcc     0.0071     3.790     1.352     1.264 -0.5469  0.7575  0.3565
 
              Baa    -0.3260    23.587     8.416     7.868 -0.3141  0.9494  0.0000
    14 O(17)  Bbb    -0.3208    23.214     8.283     7.743  0.9494  0.3141  0.0000
              Bcc     0.6468   -46.801   -16.700   -15.611  0.0000  0.0000  1.0000
 
              Baa    -0.0144    -7.672    -2.738    -2.559  0.0000  0.0000  1.0000
    15 H(1)   Bbb    -0.0131    -6.967    -2.486    -2.324  0.1352  0.9908  0.0000
              Bcc     0.0274    14.640     5.224     4.883  0.9908 -0.1352  0.0000
 
              Baa    -0.0194   -10.364    -3.698    -3.457  0.9413 -0.3375  0.0000
    16 H(1)   Bbb    -0.0047    -2.503    -0.893    -0.835  0.0000  0.0000  1.0000
              Bcc     0.0241    12.867     4.591     4.292  0.3375  0.9413  0.0000
 
              Baa    -0.0106    -1.426    -0.509    -0.476  0.2407  0.9706 -0.0001
    17 C(13)  Bbb    -0.0002    -0.025    -0.009    -0.008  0.9706 -0.2407  0.0000
              Bcc     0.0108     1.451     0.518     0.484  0.0000  0.0000  1.0000
 
              Baa    -0.0039    -2.058    -0.734    -0.687 -0.0131  0.7142 -0.6999
    18 H(1)   Bbb    -0.0023    -1.253    -0.447    -0.418  0.5879  0.5716  0.5723
              Bcc     0.0062     3.311     1.181     1.104  0.8088 -0.4040 -0.4273
 
              Baa    -0.0039    -2.058    -0.734    -0.687 -0.0131  0.7140  0.7001
    19 H(1)   Bbb    -0.0023    -1.253    -0.447    -0.418  0.5879  0.5718 -0.5722
              Bcc     0.0062     3.311     1.181     1.104  0.8088 -0.4041  0.4272
 
              Baa    -0.0034    -1.797    -0.641    -0.599 -0.0001  0.0002  1.0000
    20 H(1)   Bbb    -0.0028    -1.476    -0.527    -0.492 -0.2723  0.9622 -0.0002
              Bcc     0.0061     3.273     1.168     1.092  0.9622  0.2723  0.0000
 

 ---------------------------------------------------------------------------------

 No NMR shielding tensors so no spin-rotation constants.
 Leave Link  601 at Wed Dec 03 16:41:15 2025, MaxMem=   104857600 cpu:               0.0 elap:               0.2
 (Enter D:\Gaussian\G16W\l9999.exe)
 1|1|UNPC-PC-20250526LCFF|SP|UB3LYP|6-31G(d)|C8H10O2(1+,2)|ADMINISTRATO
 R|03-Dec-2025|0||#P B3LYP/6-31G* SCF=conver=7 out=wfn||Generated by Mu
 ltiwfn (http://sobereva.com/multiwfn)||1,2|C,0,-1.933369,-0.246665,0.0
 00041|C,0,-1.282658,0.995897,-0.000005|C,0,0.100369,1.077632,-0.000034
 |C,0,0.871051,-0.101568,-0.000019|C,0,0.24096,-1.336588,0.000025|C,0,-
 1.157829,-1.402479,0.000054|H,0,-1.847477,1.921798,-0.000018|H,0,0.819
 664,-2.251143,0.000035|O,0,2.228799,0.123761,-0.000054|C,0,3.096923,-1
 .000086,-0.000017|H,0,4.10984,-0.600521,-0.000037|H,0,2.949156,-1.6156
 82,0.894029|H,0,2.949146,-1.615749,-0.894015|O,0,0.714962,2.292615,-0.
 000079|H,0,1.667262,2.12776,-0.000091|H,0,-1.638566,-2.374537,0.000088
 |C,0,-3.442273,-0.310888,0.000084|H,0,-3.862046,0.185016,0.881185|H,0,
 -3.862102,0.185144,-0.880917|H,0,-3.79402,-1.34463,0.000021||Version=E
 M64W-G16RevA.03|State=2-A|HF=-461.0333181|S2=0.760609|S2-1=0.|S2A=0.75
 0069|RMSD=8.058e-008|Dipole=0.3713134,-0.8647356,0.0000374|Quadrupole=
 14.1639399,-2.6965828,-11.4673571,-1.0178336,-0.0004689,-0.0002185|PG=
 C01 [X(C8H10O2)]||@

 Writing a WFN file to "N-1.wfn"


 If fifty million people say a stupid thing,
 it is still a stupid thing.
                   -- Anatole France
 Job cpu time:       0 days  0 hours  0 minutes 39.0 seconds.
 Elapsed time:       0 days  0 hours  0 minutes 39.2 seconds.
 File lengths (MBytes):  RWF=     33 Int=      0 D2E=      0 Chk=      3 Scr=      1
 Normal termination of Gaussian 16 at Wed Dec 03 16:41:15 2025.
