 Generated by Multiwfn (http://sobereva.com/multiwfn)
GAUSSIAN             73 MOL ORBITALS    320 PRIMITIVES       20 NUCLEI
  C    1    (CENTRE  1)  -3.65353760 -0.46612933  0.00007773  CHARGE =  6.0
  C    2    (CENTRE  2)  -2.42387215  1.88197261 -0.00000919  CHARGE =  6.0
  C    3    (CENTRE  3)   0.18967010  2.03642951 -0.00006400  CHARGE =  6.0
  C    4    (CENTRE  4)   1.64604812 -0.19193547 -0.00003565  CHARGE =  6.0
  C    5    (CENTRE  5)   0.45534882 -2.52578508  0.00004750  CHARGE =  6.0
  C    6    (CENTRE  6)  -2.18797929 -2.65030116  0.00010230  CHARGE =  6.0
  H    7    (CENTRE  7)  -3.49122546  3.63167186 -0.00003376  CHARGE =  1.0
  H    8    (CENTRE  8)   1.54894097 -4.25404350  0.00006640  CHARGE =  1.0
  O    9    (CENTRE  9)   4.21181997  0.23387476 -0.00010179  CHARGE =  8.0
  C   10    (CENTRE 10)   5.85233668 -1.88988819 -0.00003187  CHARGE =  6.0
  H   11    (CENTRE 11)   7.76647235 -1.13481967 -0.00006966  CHARGE =  1.0
  H   12    (CENTRE 12)   5.57309758 -3.05319605  1.68947021  CHARGE =  1.0
  H   13    (CENTRE 13)   5.57307868 -3.05332266 -1.68944325  CHARGE =  1.0
  O   14    (CENTRE 14)   1.35108243  4.33241468 -0.00014903  CHARGE =  8.0
  H   15    (CENTRE 15)   3.15066863  4.02088397 -0.00017171  CHARGE =  1.0
  H   16    (CENTRE 16)  -3.09644047 -4.48722461  0.00016655  CHARGE =  1.0
  C   17    (CENTRE 17)  -6.50495291 -0.58749335  0.00015899  CHARGE =  6.0
  H   18    (CENTRE 18)  -7.29820896  0.34962935  1.66519857  CHARGE =  1.0
  H   19    (CENTRE 19)  -7.29831478  0.34987123 -1.66469161  CHARGE =  1.0
  H   20    (CENTRE 20)  -7.16965830 -2.54098265  0.00003994  CHARGE =  1.0
CENTRE ASSIGNMENTS    1  1  1  1  1  1  1  1  1  1  1  1  1  1  1  1  1  1  1  1
CENTRE ASSIGNMENTS    1  1  1  1  1  1  1  1  2  2  2  2  2  2  2  2  2  2  2  2
CENTRE ASSIGNMENTS    2  2  2  2  2  2  2  2  2  2  2  2  2  2  2  2  3  3  3  3
CENTRE ASSIGNMENTS    3  3  3  3  3  3  3  3  3  3  3  3  3  3  3  3  3  3  3  3
CENTRE ASSIGNMENTS    3  3  3  3  4  4  4  4  4  4  4  4  4  4  4  4  4  4  4  4
CENTRE ASSIGNMENTS    4  4  4  4  4  4  4  4  4  4  4  4  5  5  5  5  5  5  5  5
CENTRE ASSIGNMENTS    5  5  5  5  5  5  5  5  5  5  5  5  5  5  5  5  5  5  5  5
CENTRE ASSIGNMENTS    6  6  6  6  6  6  6  6  6  6  6  6  6  6  6  6  6  6  6  6
CENTRE ASSIGNMENTS    6  6  6  6  6  6  6  6  7  7  7  7  8  8  8  8  9  9  9  9
CENTRE ASSIGNMENTS    9  9  9  9  9  9  9  9  9  9  9  9  9  9  9  9  9  9  9  9
CENTRE ASSIGNMENTS    9  9  9  9 10 10 10 10 10 10 10 10 10 10 10 10 10 10 10 10
CENTRE ASSIGNMENTS   10 10 10 10 10 10 10 10 10 10 10 10 11 11 11 11 12 12 12 12
CENTRE ASSIGNMENTS   13 13 13 13 14 14 14 14 14 14 14 14 14 14 14 14 14 14 14 14
CENTRE ASSIGNMENTS   14 14 14 14 14 14 14 14 14 14 14 14 15 15 15 15 16 16 16 16
CENTRE ASSIGNMENTS   17 17 17 17 17 17 17 17 17 17 17 17 17 17 17 17 17 17 17 17
CENTRE ASSIGNMENTS   17 17 17 17 17 17 17 17 18 18 18 18 19 19 19 19 20 20 20 20
TYPE ASSIGNMENTS      1  1  1  1  1  1  1  1  1  2  2  2  3  3  3  4  4  4  1  2
TYPE ASSIGNMENTS      3  4  5  6  7  8  9 10  1  1  1  1  1  1  1  1  1  2  2  2
TYPE ASSIGNMENTS      3  3  3  4  4  4  1  2  3  4  5  6  7  8  9 10  1  1  1  1
TYPE ASSIGNMENTS      1  1  1  1  1  2  2  2  3  3  3  4  4  4  1  2  3  4  5  6
TYPE ASSIGNMENTS      7  8  9 10  1  1  1  1  1  1  1  1  1  2  2  2  3  3  3  4
TYPE ASSIGNMENTS      4  4  1  2  3  4  5  6  7  8  9 10  1  1  1  1  1  1  1  1
TYPE ASSIGNMENTS      1  2  2  2  3  3  3  4  4  4  1  2  3  4  5  6  7  8  9 10
TYPE ASSIGNMENTS      1  1  1  1  1  1  1  1  1  2  2  2  3  3  3  4  4  4  1  2
TYPE ASSIGNMENTS      3  4  5  6  7  8  9 10  1  1  1  1  1  1  1  1  1  1  1  1
TYPE ASSIGNMENTS      1  1  1  1  1  2  2  2  3  3  3  4  4  4  1  2  3  4  5  6
TYPE ASSIGNMENTS      7  8  9 10  1  1  1  1  1  1  1  1  1  2  2  2  3  3  3  4
TYPE ASSIGNMENTS      4  4  1  2  3  4  5  6  7  8  9 10  1  1  1  1  1  1  1  1
TYPE ASSIGNMENTS      1  1  1  1  1  1  1  1  1  1  1  1  1  2  2  2  3  3  3  4
TYPE ASSIGNMENTS      4  4  1  2  3  4  5  6  7  8  9 10  1  1  1  1  1  1  1  1
TYPE ASSIGNMENTS      1  1  1  1  1  1  1  1  1  2  2  2  3  3  3  4  4  4  1  2
TYPE ASSIGNMENTS      3  4  5  6  7  8  9 10  1  1  1  1  1  1  1  1  1  1  1  1
EXPONENTS  0.3047525D+04 0.4573695D+03 0.1039487D+03 0.2921016D+02 0.9286663D+01
EXPONENTS  0.3163927D+01 0.7868272D+01 0.1881289D+01 0.5442493D+00 0.7868272D+01
EXPONENTS  0.1881289D+01 0.5442493D+00 0.7868272D+01 0.1881289D+01 0.5442493D+00
EXPONENTS  0.7868272D+01 0.1881289D+01 0.5442493D+00 0.1687145D+00 0.1687145D+00
EXPONENTS  0.1687145D+00 0.1687145D+00 0.8000000D+00 0.8000000D+00 0.8000000D+00
EXPONENTS  0.8000000D+00 0.8000000D+00 0.8000000D+00 0.3047525D+04 0.4573695D+03
EXPONENTS  0.1039487D+03 0.2921016D+02 0.9286663D+01 0.3163927D+01 0.7868272D+01
EXPONENTS  0.1881289D+01 0.5442493D+00 0.7868272D+01 0.1881289D+01 0.5442493D+00
EXPONENTS  0.7868272D+01 0.1881289D+01 0.5442493D+00 0.7868272D+01 0.1881289D+01
EXPONENTS  0.5442493D+00 0.1687145D+00 0.1687145D+00 0.1687145D+00 0.1687145D+00
EXPONENTS  0.8000000D+00 0.8000000D+00 0.8000000D+00 0.8000000D+00 0.8000000D+00
EXPONENTS  0.8000000D+00 0.3047525D+04 0.4573695D+03 0.1039487D+03 0.2921016D+02
EXPONENTS  0.9286663D+01 0.3163927D+01 0.7868272D+01 0.1881289D+01 0.5442493D+00
EXPONENTS  0.7868272D+01 0.1881289D+01 0.5442493D+00 0.7868272D+01 0.1881289D+01
EXPONENTS  0.5442493D+00 0.7868272D+01 0.1881289D+01 0.5442493D+00 0.1687145D+00
EXPONENTS  0.1687145D+00 0.1687145D+00 0.1687145D+00 0.8000000D+00 0.8000000D+00
EXPONENTS  0.8000000D+00 0.8000000D+00 0.8000000D+00 0.8000000D+00 0.3047525D+04
EXPONENTS  0.4573695D+03 0.1039487D+03 0.2921016D+02 0.9286663D+01 0.3163927D+01
EXPONENTS  0.7868272D+01 0.1881289D+01 0.5442493D+00 0.7868272D+01 0.1881289D+01
EXPONENTS  0.5442493D+00 0.7868272D+01 0.1881289D+01 0.5442493D+00 0.7868272D+01
EXPONENTS  0.1881289D+01 0.5442493D+00 0.1687145D+00 0.1687145D+00 0.1687145D+00
EXPONENTS  0.1687145D+00 0.8000000D+00 0.8000000D+00 0.8000000D+00 0.8000000D+00
EXPONENTS  0.8000000D+00 0.8000000D+00 0.3047525D+04 0.4573695D+03 0.1039487D+03
EXPONENTS  0.2921016D+02 0.9286663D+01 0.3163927D+01 0.7868272D+01 0.1881289D+01
EXPONENTS  0.5442493D+00 0.7868272D+01 0.1881289D+01 0.5442493D+00 0.7868272D+01
EXPONENTS  0.1881289D+01 0.5442493D+00 0.7868272D+01 0.1881289D+01 0.5442493D+00
EXPONENTS  0.1687145D+00 0.1687145D+00 0.1687145D+00 0.1687145D+00 0.8000000D+00
EXPONENTS  0.8000000D+00 0.8000000D+00 0.8000000D+00 0.8000000D+00 0.8000000D+00
EXPONENTS  0.3047525D+04 0.4573695D+03 0.1039487D+03 0.2921016D+02 0.9286663D+01
EXPONENTS  0.3163927D+01 0.7868272D+01 0.1881289D+01 0.5442493D+00 0.7868272D+01
EXPONENTS  0.1881289D+01 0.5442493D+00 0.7868272D+01 0.1881289D+01 0.5442493D+00
EXPONENTS  0.7868272D+01 0.1881289D+01 0.5442493D+00 0.1687145D+00 0.1687145D+00
EXPONENTS  0.1687145D+00 0.1687145D+00 0.8000000D+00 0.8000000D+00 0.8000000D+00
EXPONENTS  0.8000000D+00 0.8000000D+00 0.8000000D+00 0.1873114D+02 0.2825394D+01
EXPONENTS  0.6401217D+00 0.1612778D+00 0.1873114D+02 0.2825394D+01 0.6401217D+00
EXPONENTS  0.1612778D+00 0.5484672D+04 0.8252349D+03 0.1880470D+03 0.5296450D+02
EXPONENTS  0.1689757D+02 0.5799635D+01 0.1553962D+02 0.3599934D+01 0.1013762D+01
EXPONENTS  0.1553962D+02 0.3599934D+01 0.1013762D+01 0.1553962D+02 0.3599934D+01
EXPONENTS  0.1013762D+01 0.1553962D+02 0.3599934D+01 0.1013762D+01 0.2700058D+00
EXPONENTS  0.2700058D+00 0.2700058D+00 0.2700058D+00 0.8000000D+00 0.8000000D+00
EXPONENTS  0.8000000D+00 0.8000000D+00 0.8000000D+00 0.8000000D+00 0.3047525D+04
EXPONENTS  0.4573695D+03 0.1039487D+03 0.2921016D+02 0.9286663D+01 0.3163927D+01
EXPONENTS  0.7868272D+01 0.1881289D+01 0.5442493D+00 0.7868272D+01 0.1881289D+01
EXPONENTS  0.5442493D+00 0.7868272D+01 0.1881289D+01 0.5442493D+00 0.7868272D+01
EXPONENTS  0.1881289D+01 0.5442493D+00 0.1687145D+00 0.1687145D+00 0.1687145D+00
EXPONENTS  0.1687145D+00 0.8000000D+00 0.8000000D+00 0.8000000D+00 0.8000000D+00
EXPONENTS  0.8000000D+00 0.8000000D+00 0.1873114D+02 0.2825394D+01 0.6401217D+00
EXPONENTS  0.1612778D+00 0.1873114D+02 0.2825394D+01 0.6401217D+00 0.1612778D+00
EXPONENTS  0.1873114D+02 0.2825394D+01 0.6401217D+00 0.1612778D+00 0.5484672D+04
EXPONENTS  0.8252349D+03 0.1880470D+03 0.5296450D+02 0.1689757D+02 0.5799635D+01
EXPONENTS  0.1553962D+02 0.3599934D+01 0.1013762D+01 0.1553962D+02 0.3599934D+01
EXPONENTS  0.1013762D+01 0.1553962D+02 0.3599934D+01 0.1013762D+01 0.1553962D+02
EXPONENTS  0.3599934D+01 0.1013762D+01 0.2700058D+00 0.2700058D+00 0.2700058D+00
EXPONENTS  0.2700058D+00 0.8000000D+00 0.8000000D+00 0.8000000D+00 0.8000000D+00
EXPONENTS  0.8000000D+00 0.8000000D+00 0.1873114D+02 0.2825394D+01 0.6401217D+00
EXPONENTS  0.1612778D+00 0.1873114D+02 0.2825394D+01 0.6401217D+00 0.1612778D+00
EXPONENTS  0.3047525D+04 0.4573695D+03 0.1039487D+03 0.2921016D+02 0.9286663D+01
EXPONENTS  0.3163927D+01 0.7868272D+01 0.1881289D+01 0.5442493D+00 0.7868272D+01
EXPONENTS  0.1881289D+01 0.5442493D+00 0.7868272D+01 0.1881289D+01 0.5442493D+00
EXPONENTS  0.7868272D+01 0.1881289D+01 0.5442493D+00 0.1687145D+00 0.1687145D+00
EXPONENTS  0.1687145D+00 0.1687145D+00 0.8000000D+00 0.8000000D+00 0.8000000D+00
EXPONENTS  0.8000000D+00 0.8000000D+00 0.8000000D+00 0.1873114D+02 0.2825394D+01
EXPONENTS  0.6401217D+00 0.1612778D+00 0.1873114D+02 0.2825394D+01 0.6401217D+00
EXPONENTS  0.1612778D+00 0.1873114D+02 0.2825394D+01 0.6401217D+00 0.1612778D+00
MO    1     MO 0.0        OCC NO =    1.0000000  ORB. ENERGY =  -19.406469
  0.61435144D-05  0.11333585D-04  0.18295920D-04  0.23815851D-04  0.20322109D-04
  0.70167358D-05 -0.27014803D-04 -0.12451098D-04  0.34914178D-04  0.26711424D-04
  0.20480625D-04  0.10221268D-04  0.11797867D-04  0.90458561D-05  0.45145162D-05
 -0.64716183D-09 -0.49620264D-09 -0.24763989D-09 -0.22774282D-03 -0.13489788D-03
 -0.15328037D-04  0.31003972D-08  0.11661641D-04 -0.32692735D-04  0.26754317D-04
  0.15746342D-04  0.23635071D-09  0.27330816D-08  0.41007200D-05  0.75650277D-05
  0.12212300D-04  0.15896786D-04  0.13564757D-04  0.46835845D-05 -0.85284715D-05
 -0.39307647D-05  0.11022275D-04  0.73770493D-04  0.56562535D-04  0.28228669D-04
 -0.25252670D-04 -0.19362146D-04 -0.96630679D-05 -0.84771498D-09 -0.64997408D-09
 -0.32438262D-09  0.25680274D-03  0.40989776D-04 -0.11563622D-03  0.25883757D-08
  0.21874300D-04  0.23334305D-04  0.28937311D-04  0.98382510D-05  0.74099899D-09
 -0.46823995D-10  0.12934023D-04  0.23860746D-04  0.38518643D-04  0.50139828D-04
  0.42784406D-04  0.14772427D-04 -0.69111360D-04 -0.31853363D-04  0.89320154D-04
  0.46782405D-04  0.35869781D-04  0.17901535D-04  0.71960107D-04  0.55174446D-04
  0.27535915D-04 -0.23845286D-08 -0.18283053D-08 -0.91245247D-09 -0.12566445D-03
  0.20738025D-03  0.32242865D-03 -0.13375940D-07 -0.44961726D-04  0.61216733D-04
  0.29836108D-04  0.10612343D-03  0.14868822D-09 -0.37913499D-08 -0.25357679D-04
 -0.46779966D-04 -0.75517370D-04 -0.98301177D-04 -0.83880573D-04 -0.28961946D-04
 -0.38091757D-04 -0.17556456D-04  0.49230135D-04  0.56603516D-03  0.43399986D-03
  0.21659635D-03  0.17568280D-03  0.13470243D-03  0.67225953D-04 -0.19165848D-07
 -0.14695156D-07 -0.73339130D-08  0.30963748D-04 -0.73069970D-03 -0.25597041D-03
  0.22960202D-07  0.72890777D-04 -0.83444996D-05 -0.94007264D-04  0.16994324D-03
 -0.12576719D-07 -0.93153883D-08  0.11484038D-04  0.21185808D-04  0.34200463D-04
  0.44518841D-04  0.37988008D-04  0.13116346D-04 -0.79903479D-04 -0.36827441D-04
  0.10326799D-03 -0.90132208D-04 -0.69107660D-04 -0.34489566D-04 -0.52868832D-04
 -0.40536467D-04 -0.20230538D-04  0.31279024D-08  0.23982772D-08  0.11969084D-08
 -0.63020307D-03  0.21081804D-03 -0.29232778D-03  0.26174755D-08 -0.71699306D-04
 -0.86457416D-04  0.48004280D-04 -0.13240008D-04  0.47965005D-08  0.57397256D-08
 -0.46077467D-05 -0.85003929D-05 -0.13722270D-04 -0.17862318D-04 -0.15241948D-04
 -0.52626785D-05  0.27189115D-04  0.12531438D-04 -0.35139460D-04  0.87850115D-04
  0.67357896D-04  0.33616311D-04  0.78115135D-05  0.59893731D-05  0.29891170D-05
 -0.17262274D-08 -0.13235617D-08 -0.66055005D-09  0.38158391D-03  0.10743067D-03
  0.12024717D-03 -0.49538354D-08  0.55202196D-04 -0.28004695D-05 -0.59313166D-05
 -0.17626592D-04 -0.15131242D-08  0.31358617D-09  0.60321501D-05  0.10231668D-04
  0.11648393D-04  0.26201297D-04 -0.16774584D-04 -0.28452869D-04 -0.32392586D-04
 -0.12351278D-03  0.82554215D+00  0.15194382D+01  0.24587379D+01  0.32320798D+01
  0.27721361D+01  0.94784040D+00 -0.15741430D-01 -0.70237955D-02  0.20741362D-01
 -0.10615931D-02 -0.81790027D-03 -0.35910227D-03 -0.26578866D-02 -0.20477583D-02
 -0.89907621D-03  0.13180425D-06  0.10154807D-06  0.44585071D-07  0.42009336D-02
 -0.31967655D-03  0.93581976D-05  0.76272079D-08 -0.95828576D-02 -0.96861524D-02
 -0.94769109D-02  0.15902998D-03 -0.46361158D-08  0.15878183D-07  0.82493008D-05
  0.15218349D-04  0.24567134D-04  0.31979109D-04  0.27287832D-04  0.94218325D-05
 -0.72773528D-04 -0.33541253D-04  0.94053174D-04 -0.28373957D-03 -0.21755351D-03
 -0.10857445D-03  0.50972033D-03  0.39082122D-03  0.19504718D-03 -0.19086343D-07
 -0.14634197D-07 -0.73034900D-08 -0.32489319D-03  0.43941308D-04 -0.12110068D-03
  0.44661357D-08  0.18747208D-03  0.37911299D-03  0.29451458D-04 -0.48360724D-03
  0.15888595D-07 -0.26506889D-07  0.27524112D-04  0.46686103D-04  0.53150479D-04
  0.28665985D-04  0.13492467D-04  0.22885778D-04  0.26054649D-04  0.10988359D-04
  0.13492780D-04  0.22886309D-04  0.26055254D-04  0.10987894D-04  0.27456765D-04
  0.50535104D-04  0.81775338D-04  0.10749597D-03  0.92198669D-04  0.31524291D-04
 -0.10275263D-03 -0.45848022D-04  0.13538982D-03 -0.16416265D-03 -0.12647847D-03
 -0.55530862D-04 -0.19075903D-03 -0.14696955D-03 -0.64527549D-04  0.67551761D-08
  0.52044990D-08  0.22850554D-08 -0.30527831D-03  0.18005417D-03  0.15918355D-03
 -0.72199474D-08  0.15591301D-03  0.25719714D-05  0.11241094D-03 -0.97899066D-04
  0.13801230D-08  0.72944188D-08 -0.58904934D-05 -0.99913917D-05 -0.11374846D-04
 -0.15784950D-03  0.41930424D-05  0.71121936D-05  0.80969810D-05  0.32259005D-04
  0.11372206D-05  0.20979499D-05  0.33867416D-05  0.44085312D-05  0.37618077D-05
  0.12988618D-05 -0.52067439D-05 -0.23997835D-05  0.67292435D-05 -0.16854114D-04
 -0.12922666D-04 -0.64493159D-05  0.65593967D-05  0.50293293D-05  0.25099878D-05
 -0.12765682D-09 -0.97879156D-10 -0.48848559D-10 -0.61287766D-04 -0.17003106D-04
 -0.52250049D-05  0.11743177D-08 -0.29418526D-05  0.47330242D-05 -0.79913273D-06
 -0.56387256D-05  0.44682476D-09  0.18751297D-08  0.19332278D-05  0.32791203D-05
  0.37331625D-05  0.21969699D-05  0.19335560D-05  0.32796769D-05  0.37337962D-05
  0.21977986D-05 -0.41619209D-06 -0.70594055D-06 -0.80368836D-06  0.22462054D-05
MO    2     MO 0.0        OCC NO =    1.0000000  ORB. ENERGY =  -19.388838
 -0.12560579D-05 -0.23171816D-05 -0.37406496D-05 -0.48692143D-05 -0.41549094D-05
 -0.14345904D-05  0.17308303D-04  0.79773811D-05 -0.22369409D-04  0.63383845D-04
  0.48598712D-04  0.24254163D-04  0.60304234D-04  0.46237462D-04  0.23075734D-04
 -0.26297618D-08 -0.20163345D-08 -0.10062922D-08  0.39588996D-03  0.11525498D-03
  0.22595832D-04 -0.29766466D-08  0.15376516D-04  0.47865348D-04  0.14067730D-04
  0.79516502D-07 -0.74177873D-09 -0.17875447D-08  0.77797103D-05  0.14352046D-04
  0.23168653D-04  0.30158702D-04  0.25734475D-04  0.88854958D-05 -0.69152996D-04
 -0.31872553D-04  0.89373964D-04 -0.13219213D-04 -0.10135654D-04 -0.50584016D-05
 -0.11046038D-04 -0.84694011D-05 -0.42268247D-05  0.37686477D-09  0.28895600D-09
  0.14420930D-09 -0.41972422D-03 -0.14115639D-03  0.33044698D-03 -0.60101665D-08
 -0.90873718D-04 -0.58428837D-04  0.32518633D-04  0.26054393D-04  0.37606997D-08
  0.49109095D-08 -0.36768862D-04 -0.67831371D-04 -0.10950086D-03 -0.14253759D-03
 -0.12162758D-03 -0.41995082D-04 -0.27850075D-04 -0.12836074D-04  0.35993692D-04
  0.21464336D-03  0.16457491D-03  0.82134415D-04  0.53461731D-03  0.40991064D-03
  0.20457414D-03 -0.18753941D-07 -0.14379332D-07 -0.71762946D-08  0.24102586D-03
 -0.28934275D-03 -0.88287142D-03  0.29140723D-07 -0.84209559D-04 -0.42690463D-04
 -0.13922124D-03 -0.11822613D-03  0.11929718D-08 -0.23085211D-08  0.27469266D-04
  0.50675431D-04  0.81805859D-04  0.10648692D-03  0.90865483D-04  0.31373668D-04
 -0.12623362D-03 -0.58180962D-04  0.16314549D-03  0.16548496D-04  0.12688337D-04
  0.63323697D-05 -0.59376054D-04 -0.45525792D-04 -0.22720561D-04  0.68183470D-09
  0.52278760D-09  0.26090765D-09 -0.73672487D-03  0.62252466D-03  0.27844996D-04
 -0.13520801D-07  0.71260961D-04 -0.79268736D-04  0.82419663D-04  0.69663365D-04
 -0.19110594D-08  0.65418278D-08 -0.54939999D-05 -0.10135357D-04 -0.16361609D-04
 -0.21297953D-04 -0.18173582D-04 -0.62749012D-05  0.29579334D-04  0.13633088D-04
 -0.38228601D-04  0.55368289D-04  0.42452892D-04  0.21186969D-04  0.95405570D-04
  0.73150940D-04  0.36507446D-04 -0.39092419D-08 -0.29973588D-08 -0.14958921D-08
  0.52629429D-03 -0.15132479D-03  0.23887919D-03 -0.27412261D-08  0.21727311D-05
  0.43876123D-04 -0.60569139D-05  0.18569958D-04 -0.39690192D-09 -0.29881530D-08
  0.98410378D-05  0.18154793D-04  0.29307465D-04  0.38149612D-04  0.32553133D-04
  0.11239814D-04 -0.41092084D-04 -0.18939304D-04  0.53107786D-04 -0.24524655D-04
 -0.18803950D-04 -0.93844889D-05  0.28005632D-04  0.21472942D-04  0.10716503D-04
  0.13342963D-10  0.10230538D-10  0.51057554D-11 -0.35332626D-03 -0.85205589D-04
 -0.13971506D-03  0.49719649D-08 -0.30014429D-04  0.11791729D-04  0.40397985D-04
  0.31141672D-04  0.15760025D-08  0.48891903D-09 -0.11971373D-04 -0.20305715D-04
 -0.23117339D-04 -0.14816927D-03  0.11719122D-04  0.19877849D-04  0.22630228D-04
  0.90023337D-04  0.42366060D-04  0.77976167D-04  0.12618016D-03  0.16586735D-03
  0.14226346D-03  0.48642294D-04 -0.16186828D-03 -0.72225313D-04  0.21328232D-03
 -0.15404033D-03 -0.11867977D-03 -0.52106811D-04 -0.96008384D-04 -0.73969284D-04
 -0.32476500D-04  0.37975212D-08  0.29257854D-08  0.12845774D-08 -0.48138801D-03
  0.19010073D-03  0.82461985D-04 -0.54152549D-08  0.76491637D-04  0.18184860D-03
  0.16316691D-03 -0.45375788D-04  0.49169203D-08  0.19784216D-09  0.10633139D-04
  0.19616066D-04  0.31666412D-04  0.41220260D-04  0.35173322D-04  0.12144503D-04
 -0.32847380D-04 -0.15139328D-04  0.42452255D-04 -0.60449062D-04 -0.46348507D-04
 -0.23131153D-04  0.29753127D-04  0.22812810D-04  0.11385191D-04 -0.79630400D-09
 -0.61055540D-09 -0.30470994D-09 -0.51265152D-04  0.30313858D-04 -0.13956603D-04
 -0.89815432D-10  0.35251931D-04  0.17542142D-04  0.42242788D-04 -0.68909979D-06
  0.16132744D-08  0.14354622D-08 -0.67267304D-06 -0.11409808D-05 -0.12989663D-05
 -0.73594588D-05  0.48877352D-05  0.82905240D-05  0.94384686D-05 -0.59261594D-05
  0.48877707D-05  0.82905842D-05  0.94385371D-05 -0.59265463D-05  0.82558196D+00
  0.15195115D+01  0.24588565D+01  0.32322356D+01  0.27722697D+01  0.94788610D+00
 -0.15788847D-01 -0.70449528D-02  0.20803840D-01  0.16895723D-02  0.13017244D-02
  0.57152712D-03 -0.28897715D-02 -0.22264131D-02 -0.97751528D-03  0.50491092D-07
  0.38900665D-07  0.17079487D-07  0.40868612D-02 -0.24707619D-03 -0.31978215D-03
  0.13811239D-07 -0.93758969D-02 -0.93503986D-02 -0.93082454D-02  0.18036192D-03
 -0.29178137D-08 -0.15209103D-08  0.88036377D-04  0.14932636D-03  0.17000278D-03
 -0.21084851D-03 -0.58568006D-05 -0.99342423D-05 -0.11309784D-04 -0.43117538D-04
  0.55060507D-05  0.10157588D-04  0.16397497D-04  0.21344669D-04  0.18213445D-04
  0.62886648D-05 -0.18922794D-04 -0.87214986D-05  0.24455992D-04  0.65249455D-06
  0.50029143D-06  0.24968049D-06  0.15059769D-05  0.11546876D-05  0.57627002D-06
 -0.29440976D-09 -0.22573473D-09 -0.11265745D-09 -0.24128037D-04 -0.93297678D-05
 -0.24422212D-05  0.22343230D-09 -0.37479464D-05  0.20752486D-04  0.21010738D-04
 -0.28480651D-06  0.10700866D-08  0.31714151D-09  0.19695132D-05  0.33406672D-05
  0.38032315D-05  0.41840965D-05  0.19695004D-05  0.33406454D-05  0.38032068D-05
  0.41842888D-05  0.25125094D-05  0.42616914D-05  0.48517850D-05  0.73664100D-06
MO    3     MO 0.0        OCC NO =    1.0000000  ORB. ENERGY =  -10.471168
 -0.63119635D-04 -0.11644340D-03 -0.18797575D-03 -0.24468858D-03 -0.20879321D-03
 -0.72091277D-04  0.13885713D-03  0.63999124D-04 -0.17946022D-03 -0.13905887D-03
 -0.10662152D-03 -0.53211613D-04 -0.41569814D-04 -0.31873096D-04 -0.15906909D-04
  0.41149387D-08  0.31550740D-08  0.15746031D-08  0.10299429D-02  0.63997004D-03
  0.59596085D-04 -0.15197317D-07 -0.27156646D-04  0.65119540D-04 -0.13408113D-03
 -0.18680773D-04 -0.40011320D-08 -0.98117777D-08  0.13828664D-03  0.25511185D-03
  0.41182962D-03  0.53607981D-03  0.45743787D-03  0.15794230D-03 -0.19339275D-04
 -0.89134543D-05  0.24994256D-04 -0.14946944D-03 -0.11460369D-03 -0.57195272D-04
  0.64490941D-04  0.49447563D-04  0.24677799D-04  0.17549038D-08  0.13455489D-08
  0.67152320D-09 -0.11187400D-02 -0.22118727D-03  0.47792700D-03 -0.85942298D-08
  0.11470429D-03 -0.31545804D-04 -0.19395264D-04 -0.14224358D-04 -0.56452634D-08
  0.16121763D-08  0.45459639D-01  0.83864158D-01  0.13538275D+00  0.17622812D+00
  0.15037577D+00  0.51921141D-01 -0.13965684D-02 -0.64367710D-03  0.18049378D-02
 -0.15929005D-03 -0.12213351D-03 -0.60953181D-04  0.34052450D-03  0.26109259D-03
  0.13030350D-03 -0.58825219D-08 -0.45103447D-08 -0.22509781D-08  0.17523941D-02
 -0.30749142D-03 -0.10202695D-02  0.32950479D-07 -0.14433413D-02 -0.12594631D-02
 -0.12186944D-02  0.31530600D-03  0.11645176D-08 -0.42490608D-08  0.53055272D+00
  0.97876616D+00  0.15800321D+01  0.20567323D+01  0.17550134D+01  0.60596395D+00
 -0.19891734D-01 -0.91680818D-02  0.25708258D-01  0.89299761D-03  0.68469393D-03
  0.34171026D-03  0.38184618D-03  0.29277543D-03  0.14611546D-03 -0.30019520D-07
 -0.23017064D-07 -0.11487128D-07 -0.36364508D-02  0.17005561D-02  0.32460898D-03
 -0.43121572D-07 -0.96104473D-02 -0.10238999D-01 -0.10467624D-01  0.28296850D-03
 -0.44425251D-07 -0.18395200D-07  0.16869239D-02  0.31120453D-02  0.50238060D-02
  0.65395027D-02  0.55801695D-02  0.19266984D-02  0.30498177D-03  0.14056582D-03
 -0.39416123D-03  0.41805108D-04  0.32053505D-04  0.15996946D-04 -0.32294911D-03
 -0.24761689D-03 -0.12357818D-03  0.77291615D-08  0.59262308D-08  0.29576045D-08
  0.25608088D-02 -0.51596595D-03  0.10736873D-02 -0.16820701D-07 -0.33128676D-03
 -0.29403677D-03 -0.35633205D-03 -0.21578893D-03  0.51219581D-08  0.75678854D-09
  0.31306365D-04  0.57754131D-04  0.93233075D-04  0.12136176D-03  0.10355821D-03
  0.35756162D-04 -0.93034352D-04 -0.42879448D-04  0.12023845D-03 -0.17474544D-03
 -0.13398372D-03 -0.66867266D-04 -0.35405639D-04 -0.27146798D-04 -0.13548155D-04
  0.42269799D-08  0.32409801D-08  0.16174762D-08 -0.14310582D-02 -0.36568370D-03
 -0.52801752D-03  0.20327129D-07  0.27684050D-04  0.35620562D-04  0.56924139D-04
  0.63773432D-04 -0.95031563D-09 -0.72427015D-09 -0.22148889D-04 -0.37568708D-04
 -0.42770646D-04 -0.10702675D-03  0.43665938D-04  0.74065696D-04  0.84321177D-04
  0.32764362D-03  0.11547505D-03  0.21253574D-03  0.34392294D-03  0.45209634D-03
  0.38776040D-03  0.13258187D-03 -0.65880564D-03 -0.29395779D-03  0.86806130D-03
 -0.22614273D-03 -0.17423078D-03 -0.76496699D-04  0.40126313D-04  0.30915161D-04
  0.13573421D-04  0.64973180D-08  0.50058332D-08  0.21978304D-08 -0.15854315D-02
  0.83576374D-03  0.10211196D-03 -0.21992317D-07 -0.42238507D-03  0.70275620D-03
  0.90373897D-03 -0.35675161D-03  0.68172108D-07  0.22402861D-07 -0.14230085D-04
 -0.26251728D-04 -0.42378429D-04 -0.55164122D-04 -0.47071646D-04 -0.16252708D-04
  0.36367729D-04  0.16761853D-04 -0.47001986D-04 -0.21053777D-04 -0.16142701D-04
 -0.80563391D-05  0.14816764D-04  0.11360555D-04  0.56697131D-05 -0.14395346D-08
 -0.11037438D-08 -0.55084552D-09 -0.31322894D-04 -0.62913384D-04 -0.61314697D-04
  0.45994338D-08  0.14456554D-03 -0.82014556D-04  0.55032716D-04 -0.15119904D-03
 -0.69188393D-09  0.11950491D-07  0.17424601D-04  0.29555422D-04  0.33647803D-04
  0.29995883D-04 -0.14503867D-04 -0.24601304D-04 -0.28007715D-04 -0.18877223D-04
 -0.14502505D-04 -0.24598994D-04 -0.28005085D-04 -0.18877035D-04 -0.69464168D-04
 -0.12785115D-03 -0.20688730D-03 -0.27195914D-03 -0.23325778D-03 -0.79754795D-04
  0.23453053D-03  0.10464707D-03 -0.30902419D-03  0.12199128D-03  0.93987701D-04
  0.41265663D-04  0.65645107D-04  0.50576016D-04  0.22205595D-04 -0.42276239D-08
 -0.32571563D-08 -0.14300670D-08  0.69473207D-03 -0.13297406D-03 -0.10953501D-03
  0.57356679D-08 -0.24630075D-03 -0.20894494D-03 -0.23476338D-03 -0.13017467D-04
  0.38985323D-09 -0.11326879D-08  0.56431344D-06  0.95718241D-06  0.10897183D-05
  0.32800221D-04 -0.21376696D-04 -0.36258922D-04 -0.41279501D-04 -0.13756050D-03
 -0.37327862D-05 -0.68862617D-05 -0.11116562D-04 -0.14470460D-04 -0.12347670D-04
 -0.42633536D-05  0.22263694D-04  0.10261316D-04 -0.28773802D-04  0.81626377D-04
  0.62585928D-04  0.31234765D-04 -0.78638375D-05 -0.60294918D-05 -0.30091390D-05
 -0.27133056D-09 -0.20803906D-09 -0.10382607D-09  0.29002020D-03  0.84499012D-04
  0.74582870D-05 -0.48676629D-08  0.13849602D-04 -0.35427967D-05  0.15860693D-06
  0.99402472D-05 -0.18220086D-08 -0.35488042D-08 -0.65717966D-05 -0.11147011D-04
 -0.12690478D-04 -0.59510249D-05 -0.65725132D-05 -0.11148226D-04 -0.12691862D-04
 -0.59537394D-05 -0.26103338D-05 -0.44276202D-05 -0.50406891D-05 -0.12423690D-04
MO    4     MO 0.0        OCC NO =    1.0000000  ORB. ENERGY =  -10.468246
  0.44293697D-04  0.81713222D-04  0.13191048D-03  0.17170825D-03  0.14651896D-03
  0.50589475D-04 -0.12578675D-03 -0.57974996D-04  0.16256794D-03 -0.79497604D-04
 -0.60953721D-04 -0.30420179D-04 -0.76874708D-04 -0.58942650D-04 -0.29416513D-04
  0.29747305D-08  0.22808347D-08  0.11382964D-08 -0.16483499D-02 -0.66866718D-03
 -0.28752575D-03  0.21140694D-07  0.19861383D-04  0.77415050D-05  0.77007909D-04
 -0.10523145D-04  0.54083215D-08  0.34942819D-08  0.15037911D-02  0.27742009D-02
  0.44784204D-02  0.58295727D-02  0.49743850D-02  0.17175356D-02  0.32593676D-03
  0.15022396D-03 -0.42124365D-03 -0.28615675D-03 -0.21940685D-03 -0.10949939D-03
  0.11766558D-03  0.90218503D-04  0.45025356D-04  0.38606420D-08  0.29600954D-08
  0.14772951D-08  0.27589274D-02  0.72746643D-03 -0.10980343D-02  0.14243898D-07
 -0.33435694D-03 -0.27549600D-03 -0.36633958D-03 -0.22438064D-03  0.47578166D-08
 -0.18113393D-08  0.53059874D+00  0.97885107D+00  0.15801691D+01  0.20569107D+01
  0.17551656D+01  0.60601651D+00 -0.19956972D-01 -0.91981503D-02  0.25792574D-01
  0.73222881D-03  0.56142661D-03  0.28019123D-03  0.49993937D-03  0.38332180D-03
  0.19130444D-03 -0.28839323D-07 -0.22112163D-07 -0.11035519D-07 -0.42032209D-02
  0.83042301D-03  0.19245114D-02 -0.65628347D-07 -0.10022277D-01 -0.96280361D-02
 -0.10369753D-01  0.50840401D-03 -0.27998463D-07 -0.51877835D-07 -0.45762544D-01
 -0.84422958D-01 -0.13628483D+00 -0.17740236D+00 -0.15137775D+00 -0.52267100D-01
  0.20720651D-02  0.95501290D-03 -0.26779559D-02  0.18384803D-03  0.14096301D-03
  0.70350421D-04 -0.35749147D-03 -0.27410178D-03 -0.13679600D-03  0.65040706D-08
  0.49869088D-08  0.24888170D-08  0.29149072D-02 -0.15346555D-02  0.16334576D-03
  0.26564287D-07  0.45793823D-03  0.25994137D-03  0.54661592D-03 -0.30562096D-04
  0.57089892D-08  0.15453292D-07 -0.13380278D-03 -0.24684000D-03 -0.39847629D-03
 -0.51869774D-03 -0.44260572D-03 -0.15282112D-03 -0.85843440D-04 -0.39565163D-04
  0.11094485D-03 -0.25958854D-04 -0.19903602D-04 -0.99332926D-05 -0.11851443D-03
 -0.90869351D-04 -0.45350175D-04  0.46187742D-08  0.35413831D-08  0.17673984D-08
 -0.16360120D-02  0.43241693D-03 -0.66362091D-03  0.76083486D-08  0.90761030D-04
  0.10185581D-03  0.54297436D-04  0.96097780D-04 -0.42379796D-08 -0.36634366D-08
 -0.65417088D-04 -0.12068175D-03 -0.19481777D-03 -0.25359485D-03 -0.21639294D-03
 -0.74715283D-04  0.13539558D-03  0.62403699D-04 -0.17498649D-03 -0.18445664D-04
 -0.14142965D-04 -0.70583308D-05 -0.60373303D-04 -0.46290420D-04 -0.23102164D-04
  0.28882036D-09  0.22144914D-09  0.11051864D-09  0.11731089D-02  0.36670395D-03
  0.51164913D-03 -0.19201940D-07  0.67613556D-05 -0.29368556D-04 -0.12909503D-03
 -0.42299651D-04 -0.31675281D-08 -0.30434087D-08  0.50487509D-04  0.85636371D-04
  0.97493981D-04  0.36912006D-03 -0.23157424D-04 -0.39279374D-04 -0.44718179D-04
 -0.22435577D-03 -0.74989455D-04 -0.13802063D-03 -0.22334343D-03 -0.29359119D-03
 -0.25181146D-03 -0.86098615D-04  0.31446639D-03  0.14031429D-03 -0.41434999D-03
  0.89035758D-04  0.68597251D-04  0.30117888D-04 -0.17463843D-04 -0.13454949D-04
 -0.59074475D-05  0.10521918D-08  0.81065709D-09  0.35592213D-09  0.86971197D-03
 -0.29327014D-03 -0.54638544D-04  0.65337660D-08 -0.77857630D-04 -0.29823915D-03
 -0.34055312D-03  0.53705029D-04 -0.12880869D-07 -0.23458100D-08 -0.24726440D-04
 -0.45615453D-04 -0.73637485D-04 -0.95854125D-04 -0.81792499D-04 -0.28240984D-04
  0.59617880D-04  0.27477826D-04 -0.77050693D-04  0.68376128D-04  0.52426478D-04
  0.26164487D-04 -0.30401325D-04 -0.23309808D-04 -0.11633228D-04  0.10421555D-08
  0.79905871D-09  0.39878630D-09  0.11964225D-03 -0.83948553D-04  0.14043632D-04
  0.62419180D-09 -0.11098158D-04 -0.63232295D-04 -0.48647679D-04 -0.25652793D-04
 -0.10448682D-08  0.25390791D-08  0.16702022D-05  0.28329791D-05  0.32252466D-05
  0.30908733D-04 -0.10468807D-04 -0.17757079D-04 -0.20215807D-04  0.21026255D-05
 -0.10469329D-04 -0.17757964D-04 -0.20216814D-04  0.21039758D-05  0.14591526D-03
  0.26856196D-03  0.43458395D-03  0.57127277D-03  0.48997733D-03  0.16753157D-03
 -0.76405551D-03 -0.34092008D-03  0.10067416D-02 -0.61827478D-04 -0.47634739D-04
 -0.20914216D-04  0.15456805D-05  0.11908635D-05  0.52285321D-06  0.37491909D-08
  0.28885495D-08  0.12682288D-08 -0.19189374D-02  0.38395475D-03  0.71413628D-03
 -0.28281485D-07  0.59146722D-03 -0.38237464D-04  0.10557895D-02 -0.95074645D-03
  0.44611475D-07  0.79699396D-07  0.44204707D-04  0.74979549D-04  0.85361566D-04
 -0.34708035D-04  0.29100761D-04  0.49360399D-04  0.56195070D-04  0.17713289D-03
 -0.19898156D-04 -0.36708213D-04 -0.59258438D-04 -0.77136879D-04 -0.65821039D-04
 -0.22726423D-04  0.52272148D-04  0.24092185D-04 -0.67557002D-04 -0.42779167D-04