 Entering Link 1 = D:\Gaussian\G16W\l1.exe PID=     33676.
  
 Copyright (c) 1988,1990,1992,1993,1995,1998,2003,2009,2016,
            Gaussian, Inc.  All Rights Reserved.
  
 This is part of the Gaussian(R) 16 program.  It is based on
 the Gaussian(R) 09 system (copyright 2009, Gaussian, Inc.),
 the Gaussian(R) 03 system (copyright 2003, Gaussian, Inc.),
 the Gaussian(R) 98 system (copyright 1998, Gaussian, Inc.),
 the Gaussian(R) 94 system (copyright 1995, Gaussian, Inc.),
 the Gaussian 92(TM) system (copyright 1992, Gaussian, Inc.),
 the Gaussian 90(TM) system (copyright 1990, Gaussian, Inc.),
 the Gaussian 88(TM) system (copyright 1988, Gaussian, Inc.),
 the Gaussian 86(TM) system (copyright 1986, Carnegie Mellon
 University), and the Gaussian 82(TM) system (copyright 1983,
 Carnegie Mellon University). Gaussian is a federally registered
 trademark of Gaussian, Inc.
  
 This software contains proprietary and confidential information,
 including trade secrets, belonging to Gaussian, Inc.
  
 This software is provided under written license and may be
 used, copied, transmitted, or stored only in accord with that
 written license.
  
 The following legend is applicable only to US Government
 contracts under FAR:
  
                    RESTRICTED RIGHTS LEGEND
  
 Use, reproduction and disclosure by the US Government is
 subject to restrictions as set forth in subparagraphs (a)
 and (c) of the Commercial Computer Software - Restricted
 Rights clause in FAR 52.227-19.
  
 Gaussian, Inc.
 340 Quinnipiac St., Bldg. 40, Wallingford CT 06492
  
  
 ---------------------------------------------------------------
 Warning -- This program may not be used in any manner that
 competes with the business of Gaussian, Inc. or will provide
 assistance to any competitor of Gaussian, Inc.  The licensee
 of this program is prohibited from giving any competitor of
 Gaussian, Inc. access to this program.  By using this program,
 the user acknowledges that Gaussian, Inc. is engaged in the
 business of creating and licensing software in the field of
 computational chemistry and represents and warrants to the
 licensee that it is not a competitor of Gaussian, Inc. and that
 it will not use this program in any manner prohibited above.
 ---------------------------------------------------------------
  

 Cite this work as:
 Gaussian 16, Revision A.03,
 M. J. Frisch, G. W. Trucks, H. B. Schlegel, G. E. Scuseria, 
 M. A. Robb, J. R. Cheeseman, G. Scalmani, V. Barone, 
 G. A. Petersson, H. Nakatsuji, X. Li, M. Caricato, A. V. Marenich, 
 J. Bloino, B. G. Janesko, R. Gomperts, B. Mennucci, H. P. Hratchian, 
 J. V. Ortiz, A. F. Izmaylov, J. L. Sonnenberg, D. Williams-Young, 
 F. Ding, F. Lipparini, F. Egidi, J. Goings, B. Peng, A. Petrone, 
 T. Henderson, D. Ranasinghe, V. G. Zakrzewski, J. Gao, N. Rega, 
 G. Zheng, W. Liang, M. Hada, M. Ehara, K. Toyota, R. Fukuda, 
 J. Hasegawa, M. Ishida, T. Nakajima, Y. Honda, O. Kitao, H. Nakai, 
 T. Vreven, K. Throssell, J. A. Montgomery, Jr., J. E. Peralta, 
 F. Ogliaro, M. J. Bearpark, J. J. Heyd, E. N. Brothers, K. N. Kudin, 
 V. N. Staroverov, T. A. Keith, R. Kobayashi, J. Normand, 
 K. Raghavachari, A. P. Rendell, J. C. Burant, S. S. Iyengar, 
 J. Tomasi, M. Cossi, J. M. Millam, M. Klene, C. Adamo, R. Cammi, 
 J. W. Ochterski, R. L. Martin, K. Morokuma, O. Farkas, 
 J. B. Foresman, and D. J. Fox, Gaussian, Inc., Wallingford CT, 2016.
 
 ******************************************
 Gaussian 16:  EM64W-G16RevA.03 17-Dec-2016
                03-Dec-2025 
 ******************************************
 %nprocs=   4
 Will use up to    4 processors via shared memory.
 ------------------------------------
 #P B3LYP/6-31G* SCF=conver=7 out=wfn
 ------------------------------------
 1/38=1,172=1/1;
 2/12=2,17=6,18=5,40=1/2;
 3/5=1,6=6,7=1,11=2,25=1,30=1,74=-5/1,2,3;
 4//1;
 5/5=2,6=7,38=5/2;
 6/7=2,8=2,9=2,10=2,28=1/1;
 99/5=1,6=100,9=1/99;
 Leave Link    1 at Wed Dec 03 16:38:57 2025, MaxMem=           0 cpu:               0.0 elap:               0.1
 (Enter D:\Gaussian\G16W\l101.exe)
 ----------------------------------------------------
 Generated by Multiwfn (http://sobereva.com/multiwfn)
 ----------------------------------------------------
 Symbolic Z-matrix:
 Charge =  0 Multiplicity = 1
 C                    -1.93337  -0.24667   0.00004 
 C                    -1.28266   0.9959   -0.00001 
 C                     0.10037   1.07763  -0.00003 
 C                     0.87105  -0.10157  -0.00002 
 C                     0.24096  -1.33659   0.00003 
 C                    -1.15783  -1.40248   0.00005 
 H                    -1.84748   1.9218   -0.00002 
 H                     0.81966  -2.25114   0.00004 
 O                     2.2288    0.12376  -0.00005 
 C                     3.09692  -1.00009  -0.00002 
 H                     4.10984  -0.60052  -0.00004 
 H                     2.94916  -1.61568   0.89403 
 H                     2.94915  -1.61575  -0.89402 
 O                     0.71496   2.29262  -0.00008 
 H                     1.66726   2.12776  -0.00009 
 H                    -1.63857  -2.37454   0.00009 
 C                    -3.44227  -0.31089   0.00008 
 H                    -3.86205   0.18502   0.88119 
 H                    -3.8621    0.18514  -0.88092 
 H                    -3.79402  -1.34463   0.00002 
 
 ITRead=  0  0  0  0  0  0  0  0  0  0  0  0  0  0  0  0  0  0  0  0
 MicOpt= -1 -1 -1 -1 -1 -1 -1 -1 -1 -1 -1 -1 -1 -1 -1 -1 -1 -1 -1 -1
 NAtoms=     20 NQM=       20 NQMF=       0 NMMI=      0 NMMIF=      0
                NMic=       0 NMicF=      0.
                    Isotopes and Nuclear Properties:
 (Nuclear quadrupole moments (NQMom) in fm**2, nuclear magnetic moments (NMagM)
  in nuclear magnetons)

  Atom         1           2           3           4           5           6           7           8           9          10
 IAtWgt=          12          12          12          12          12          12           1           1          16          12
 AtmWgt=  12.0000000  12.0000000  12.0000000  12.0000000  12.0000000  12.0000000   1.0078250   1.0078250  15.9949146  12.0000000
 NucSpn=           0           0           0           0           0           0           1           1           0           0
 AtZEff=   0.0000000   0.0000000   0.0000000   0.0000000   0.0000000   0.0000000   0.0000000   0.0000000   0.0000000   0.0000000
 NQMom=    0.0000000   0.0000000   0.0000000   0.0000000   0.0000000   0.0000000   0.0000000   0.0000000   0.0000000   0.0000000
 NMagM=    0.0000000   0.0000000   0.0000000   0.0000000   0.0000000   0.0000000   2.7928460   2.7928460   0.0000000   0.0000000
 AtZNuc=   6.0000000   6.0000000   6.0000000   6.0000000   6.0000000   6.0000000   1.0000000   1.0000000   8.0000000   6.0000000

  Atom        11          12          13          14          15          16          17          18          19          20
 IAtWgt=           1           1           1          16           1           1          12           1           1           1
 AtmWgt=   1.0078250   1.0078250   1.0078250  15.9949146   1.0078250   1.0078250  12.0000000   1.0078250   1.0078250   1.0078250
 NucSpn=           1           1           1           0           1           1           0           1           1           1
 AtZEff=   0.0000000   0.0000000   0.0000000   0.0000000   0.0000000   0.0000000   0.0000000   0.0000000   0.0000000   0.0000000
 NQMom=    0.0000000   0.0000000   0.0000000   0.0000000   0.0000000   0.0000000   0.0000000   0.0000000   0.0000000   0.0000000
 NMagM=    2.7928460   2.7928460   2.7928460   0.0000000   2.7928460   2.7928460   0.0000000   2.7928460   2.7928460   2.7928460
 AtZNuc=   1.0000000   1.0000000   1.0000000   8.0000000   1.0000000   1.0000000   6.0000000   1.0000000   1.0000000   1.0000000
 Leave Link  101 at Wed Dec 03 16:38:57 2025, MaxMem=   104857600 cpu:               0.0 elap:               0.1
 (Enter D:\Gaussian\G16W\l202.exe)
                          Input orientation:                          
 ---------------------------------------------------------------------
 Center     Atomic      Atomic             Coordinates (Angstroms)
 Number     Number       Type             X           Y           Z
 ---------------------------------------------------------------------
      1          6           0       -1.933369   -0.246665    0.000041
      2          6           0       -1.282658    0.995897   -0.000005
      3          6           0        0.100369    1.077632   -0.000034
      4          6           0        0.871051   -0.101568   -0.000019
      5          6           0        0.240960   -1.336588    0.000025
      6          6           0       -1.157829   -1.402479    0.000054
      7          1           0       -1.847477    1.921798   -0.000018
      8          1           0        0.819664   -2.251143    0.000035
      9          8           0        2.228799    0.123761   -0.000054
     10          6           0        3.096923   -1.000086   -0.000017
     11          1           0        4.109840   -0.600521   -0.000037
     12          1           0        2.949156   -1.615682    0.894029
     13          1           0        2.949146   -1.615749   -0.894015
     14          8           0        0.714962    2.292615   -0.000079
     15          1           0        1.667262    2.127760   -0.000091
     16          1           0       -1.638566   -2.374537    0.000088
     17          6           0       -3.442273   -0.310888    0.000084
     18          1           0       -3.862046    0.185016    0.881185
     19          1           0       -3.862102    0.185144   -0.880917
     20          1           0       -3.794020   -1.344630    0.000021
 ---------------------------------------------------------------------
                    Distance matrix (angstroms):
                    1          2          3          4          5
     1  C    0.000000
     2  C    1.402635   0.000000
     3  C    2.426902   1.385440   0.000000
     4  C    2.808171   2.417207   1.408710   0.000000
     5  C    2.432209   2.786018   2.418310   1.386466   0.000000
     6  C    1.391894   2.401622   2.781009   2.410129   1.400340
     7  H    2.170163   1.084580   2.122904   3.388865   3.870226
     8  H    3.405455   3.868207   3.405602   2.150189   1.082270
     9  O    4.178619   3.618142   2.332399   1.376319   2.466602
    10  C    5.086402   4.812970   3.646402   2.400383   2.875719
    11  H    6.053560   5.623841   4.346499   3.276997   3.938277
    12  H    5.149026   5.052513   4.021054   2.722202   2.865565
    13  H    5.149046   5.052535   4.021074   2.722214   2.865573
    14  O    3.669005   2.381588   1.361583   2.399266   3.660026
    15  H    4.313054   3.159611   1.886246   2.367246   3.746471
    16  H    2.148196   3.389173   3.865406   3.385936   2.147081
    17  C    1.510270   2.524208   3.805036   4.318400   3.823384
    18  H    2.163922   2.843812   4.156205   4.822951   4.463897
    19  H    2.163922   2.843740   4.156160   4.822958   4.463949
    20  H    2.160451   3.432930   4.586242   4.827845   4.034988
                    6          7          8          9         10
     6  C    0.000000
     7  H    3.395060   0.000000
     8  H    2.151908   4.952482   0.000000
     9  O    3.714654   4.455218   2.761491   0.000000
    10  C    4.273738   5.743213   2.598279   1.420096   0.000000
    11  H    5.328365   6.469290   3.681007   2.015664   1.088877
    12  H    4.208559   6.026672   2.395365   2.084217   1.095496
    13  H    4.208573   6.026696   2.395359   2.084217   1.095496
    14  O    4.142592   2.589131   4.544964   2.644925   4.063941
    15  H    4.521474   3.520768   4.460181   2.081186   3.439092
    16  H    1.084438   4.301411   2.461325   4.604129   4.930920
    17  C    2.531848   2.743768   4.682809   5.687704   6.575415
    18  H    3.257195   2.802038   5.350673   6.154570   7.113946
    19  H    3.257261   2.801904   5.350748   6.154572   7.113985
    20  H    2.636826   3.802444   4.701898   6.199236   6.899551
                   11         12         13         14         15
    11  H    0.000000
    12  H    1.782440   0.000000
    13  H    1.782441   1.788044   0.000000
    14  O    4.460430   4.589754   4.589772   0.000000
    15  H    3.661926   4.056607   4.056623   0.966464   0.000000
    16  H    6.015921   4.735207   4.735217   5.226988   5.585622
    17  C    7.557665   6.584223   6.584247   4.905184   5.661656
    18  H    8.058820   7.045222   7.265427   5.115428   5.926563
    19  H    8.058851   7.265442   7.045317   5.115352   5.926506
    20  H    7.938810   6.807580   6.807576   5.793140   6.471715
                   16         17         18         19         20
    16  H    0.000000
    17  C    2.740804   0.000000
    18  H    3.503071   1.094746   0.000000
    19  H    3.503177   1.094745   1.762102   0.000000
    20  H    2.388868   1.091947   1.766605   1.766606   0.000000
 Stoichiometry    C8H10O2
 Framework group  C1[X(C8H10O2)]
 Deg. of freedom    54
 Full point group                 C1      NOp   1
 Largest Abelian subgroup         C1      NOp   1
 Largest concise Abelian subgroup C1      NOp   1
                         Standard orientation:                         
 ---------------------------------------------------------------------
 Center     Atomic      Atomic             Coordinates (Angstroms)
 Number     Number       Type             X           Y           Z
 ---------------------------------------------------------------------
      1          6           0       -1.933369   -0.246665    0.000041
      2          6           0       -1.282658    0.995897   -0.000005
      3          6           0        0.100369    1.077632   -0.000034
      4          6           0        0.871051   -0.101568   -0.000019
      5          6           0        0.240960   -1.336588    0.000025
      6          6           0       -1.157829   -1.402479    0.000054
      7          1           0       -1.847477    1.921798   -0.000018
      8          1           0        0.819664   -2.251143    0.000035
      9          8           0        2.228799    0.123761   -0.000054
     10          6           0        3.096923   -1.000086   -0.000017
     11          1           0        4.109840   -0.600521   -0.000037
     12          1           0        2.949156   -1.615682    0.894029
     13          1           0        2.949146   -1.615749   -0.894015
     14          8           0        0.714962    2.292615   -0.000079
     15          1           0        1.667262    2.127760   -0.000091
     16          1           0       -1.638566   -2.374537    0.000088
     17          6           0       -3.442273   -0.310888    0.000084
     18          1           0       -3.862046    0.185016    0.881185
     19          1           0       -3.862102    0.185144   -0.880917
     20          1           0       -3.794020   -1.344630    0.000021
 ---------------------------------------------------------------------
 Rotational constants (GHZ):           2.5439796           0.9580347           0.7020890
 Leave Link  202 at Wed Dec 03 16:38:57 2025, MaxMem=   104857600 cpu:               0.0 elap:               0.1
 (Enter D:\Gaussian\G16W\l301.exe)
 Standard basis: 6-31G(d) (6D, 7F)
 Ernie: Thresh=  0.10000D-02 Tol=  0.10000D-05 Strict=F.
 There are   170 symmetry adapted cartesian basis functions of A   symmetry.
 There are   170 symmetry adapted basis functions of A   symmetry.
   170 basis functions,   320 primitive gaussians,   170 cartesian basis functions
    37 alpha electrons       37 beta electrons
       nuclear repulsion energy       516.1832683598 Hartrees.
 IExCor=  402 DFT=T Ex+Corr=B3LYP ExCW=0 ScaHFX=  0.200000
 ScaDFX=  0.800000  0.720000  1.000000  0.810000 ScalE2=  1.000000  1.000000
 IRadAn=      5 IRanWt=     -1 IRanGd=            0 ICorTp=0 IEmpDi=  4
 NAtoms=   20 NActive=   20 NUniq=   20 SFac= 1.00D+00 NAtFMM=   60 NAOKFM=F Big=F
 Integral buffers will be    131072 words long.
 Raffenetti 2 integral format.
 Two-electron integral symmetry is turned on.
 Leave Link  301 at Wed Dec 03 16:38:57 2025, MaxMem=   104857600 cpu:               0.0 elap:               0.1
 (Enter D:\Gaussian\G16W\l302.exe)
 NPDir=0 NMtPBC=     1 NCelOv=     1 NCel=       1 NClECP=     1 NCelD=      1
         NCelK=      1 NCelE2=     1 NClLst=     1 CellRange=     0.0.
 One-electron integrals computed using PRISM.
 One-electron integral symmetry used in STVInt
 NBasis=   170 RedAO= T EigKep=  3.78D-04  NBF=   170
 NBsUse=   170 1.00D-06 EigRej= -1.00D+00 NBFU=   170
 Precomputing XC quadrature grid using
 IXCGrd= 4 IRadAn=           5 IRanWt=          -1 IRanGd=           0 AccXCQ= 0.00D+00.
 Generated NRdTot=       0 NPtTot=           0 NUsed=           0 NTot=          32
 NSgBfM=   170   170   170   170   170 MxSgAt=    20 MxSgA2=    20.
 Leave Link  302 at Wed Dec 03 16:38:57 2025, MaxMem=   104857600 cpu:               0.0 elap:               0.3
 (Enter D:\Gaussian\G16W\l303.exe)
 DipDrv:  MaxL=1.
 Leave Link  303 at Wed Dec 03 16:38:57 2025, MaxMem=   104857600 cpu:               0.0 elap:               0.1
 (Enter D:\Gaussian\G16W\l401.exe)
 ExpMin= 1.61D-01 ExpMax= 5.48D+03 ExpMxC= 8.25D+02 IAcc=3 IRadAn=         5 AccDes= 0.00D+00
 Harris functional with IExCor=  402 and IRadAn=       5 diagonalized for initial guess.
 HarFok:  IExCor=  402 AccDes= 0.00D+00 IRadAn=         5 IDoV= 1 UseB2=F ITyADJ=14
 ICtDFT=  3500011 ScaDFX=  1.000000  1.000000  1.000000  1.000000
 FoFCou: FMM=F IPFlag=           0 FMFlag=      100000 FMFlg1=           0
         NFxFlg=           0 DoJE=T BraDBF=F KetDBF=T FulRan=T
         wScrn=  0.000000 ICntrl=       500 IOpCl=  0 I1Cent=   200000004 NGrid=           0
         NMat0=    1 NMatS0=      1 NMatT0=    0 NMatD0=    1 NMtDS0=    0 NMtDT0=    0
 Petite list used in FoFCou.
 Harris En= -461.339817847715    
 JPrj=0 DoOrth=F DoCkMO=F.
 Leave Link  401 at Wed Dec 03 16:38:59 2025, MaxMem=   104857600 cpu:               2.0 elap:               1.1
 (Enter D:\Gaussian\G16W\l502.exe)
 Integral symmetry usage will be decided dynamically.
 Closed shell SCF:
 Using DIIS extrapolation, IDIIS=  1040.
 NGot=   104857600 LenX=   104796738 LenY=   104767397
 Requested convergence on RMS density matrix=1.00D-07 within 128 cycles.
 Requested convergence on MAX density matrix=1.00D-05.
 Requested convergence on             energy=1.00D-05.
 No special actions if energy rises.
 Fock matrices will be formed incrementally for  20 cycles.
 Integral accuracy reduced to 1.0D-05 until final iterations.

 Cycle   1  Pass 0  IDiag  1:
 FoFJK:  IHMeth= 1 ICntrl=       0 DoSepK=F KAlg= 0 I1Cent=           0 FoldK=F
 IRaf= 920000000 NMat=       1 IRICut=       1 DoRegI=T DoRafI=F ISym2E= 0 IDoP0=0 IntGTp=1.
 FoFCou: FMM=F IPFlag=           0 FMFlag=      100000 FMFlg1=           0
         NFxFlg=           0 DoJE=F BraDBF=F KetDBF=F FulRan=T
         wScrn=  0.000000 ICntrl=         0 IOpCl=  0 I1Cent=           0 NGrid=           0
         NMat0=    1 NMatS0=      1 NMatT0=    0 NMatD0=    1 NMtDS0=    0 NMtDT0=    0
 Symmetry not used in FoFCou.
 E= -461.054294723060    
 DIIS: error= 4.01D-02 at cycle   1 NSaved=   1.
 NSaved= 1 IEnMin= 1 EnMin= -461.054294723060     IErMin= 1 ErrMin= 4.01D-02
 ErrMax= 4.01D-02  0.00D+00 EMaxC= 1.00D-01 BMatC= 2.48D-01 BMatP= 2.48D-01
 IDIUse=3 WtCom= 5.99D-01 WtEn= 4.01D-01
 Coeff-Com:  0.100D+01
 Coeff-En:   0.100D+01
 Coeff:      0.100D+01
 Gap=     0.232 Goal=   None    Shift=    0.000
 GapD=    0.232 DampG=1.000 DampE=0.500 DampFc=0.5000 IDamp=-1.
 Damping current iteration by 5.00D-01
 RMSDP=6.66D-03 MaxDP=1.36D-01              OVMax= 2.03D-01

 Cycle   2  Pass 0  IDiag  1:
 RMSU=  3.28D-03    CP:  9.79D-01
 E= -461.165768002044     Delta-E=       -0.111473278984 Rises=F Damp=T
 DIIS: error= 6.60D-03 at cycle   2 NSaved=   2.
 NSaved= 2 IEnMin= 2 EnMin= -461.165768002044     IErMin= 2 ErrMin= 6.60D-03
 ErrMax= 6.60D-03  0.00D+00 EMaxC= 1.00D-01 BMatC= 1.62D-02 BMatP= 2.48D-01
 IDIUse=3 WtCom= 9.34D-01 WtEn= 6.60D-02
 Coeff-Com:  0.577D-01 0.942D+00
 Coeff-En:   0.106D+00 0.894D+00
 Coeff:      0.610D-01 0.939D+00
 Gap=     0.224 Goal=   None    Shift=    0.000
 RMSDP=2.08D-03 MaxDP=4.79D-02 DE=-1.11D-01 OVMax= 1.90D-01

 Cycle   3  Pass 0  IDiag  1:
 RMSU=  1.95D-03    CP:  9.70D-01  7.93D-01
 E= -461.286237950361     Delta-E=       -0.120469948317 Rises=F Damp=F
 DIIS: error= 1.08D-02 at cycle   3 NSaved=   3.
 NSaved= 3 IEnMin= 3 EnMin= -461.286237950361     IErMin= 2 ErrMin= 6.60D-03
 ErrMax= 1.08D-02  0.00D+00 EMaxC= 1.00D-01 BMatC= 1.85D-02 BMatP= 1.62D-02
 IDIUse=2 WtCom= 0.00D+00 WtEn= 1.00D+00
 Coeff-En:   0.000D+00 0.000D+00 0.100D+01
 Coeff:      0.000D+00 0.000D+00 0.100D+01
 Gap=     0.223 Goal=   None    Shift=    0.000
 RMSDP=2.66D-03 MaxDP=8.21D-02 DE=-1.20D-01 OVMax= 1.91D-01

 Cycle   4  Pass 0  IDiag  1:
 RMSU=  1.52D-03    CP:  9.73D-01  1.07D+00 -1.15D-02
 E= -461.223113266288     Delta-E=        0.063124684073 Rises=F Damp=F
 DIIS: error= 2.09D-02 at cycle   4 NSaved=   4.
 NSaved= 4 IEnMin= 3 EnMin= -461.286237950361     IErMin= 2 ErrMin= 6.60D-03
 ErrMax= 2.09D-02  0.00D+00 EMaxC= 1.00D-01 BMatC= 7.60D-02 BMatP= 1.62D-02
 IDIUse=2 WtCom= 0.00D+00 WtEn= 1.00D+00
 Coeff-En:   0.000D+00 0.000D+00 0.754D+00 0.246D+00
 Coeff:      0.000D+00 0.000D+00 0.754D+00 0.246D+00
 Gap=     0.217 Goal=   None    Shift=    0.000
 RMSDP=1.35D-03 MaxDP=4.21D-02 DE= 6.31D-02 OVMax= 9.69D-02

 Cycle   5  Pass 0  IDiag  1:
 RMSU=  1.57D-04    CP:  9.72D-01  9.11D-01  4.91D-01  5.11D-01
 E= -461.301395623870     Delta-E=       -0.078282357582 Rises=F Damp=F
 DIIS: error= 5.33D-03 at cycle   5 NSaved=   5.
 NSaved= 5 IEnMin= 5 EnMin= -461.301395623870     IErMin= 5 ErrMin= 5.33D-03
 ErrMax= 5.33D-03  0.00D+00 EMaxC= 1.00D-01 BMatC= 4.73D-03 BMatP= 1.62D-02
 IDIUse=3 WtCom= 9.47D-01 WtEn= 5.33D-02
 Coeff-Com: -0.297D-03 0.802D-02 0.256D+00-0.811D-01 0.818D+00
 Coeff-En:   0.000D+00 0.000D+00 0.250D+00 0.000D+00 0.750D+00
 Coeff:     -0.281D-03 0.759D-02 0.255D+00-0.767D-01 0.814D+00
 Gap=     0.212 Goal=   None    Shift=    0.000
 RMSDP=4.51D-04 MaxDP=1.39D-02 DE=-7.83D-02 OVMax= 3.19D-02

 Cycle   6  Pass 0  IDiag  1:
 RMSU=  6.31D-05    CP:  9.71D-01  8.71D-01  6.60D-01  3.33D-01  9.04D-01
 E= -461.306514049475     Delta-E=       -0.005118425605 Rises=F Damp=F
 DIIS: error= 3.67D-04 at cycle   6 NSaved=   6.
 NSaved= 6 IEnMin= 6 EnMin= -461.306514049475     IErMin= 6 ErrMin= 3.67D-04
 ErrMax= 3.67D-04  0.00D+00 EMaxC= 1.00D-01 BMatC= 2.64D-05 BMatP= 4.73D-03
 IDIUse=3 WtCom= 9.96D-01 WtEn= 3.67D-03
 Coeff-Com: -0.146D-02 0.423D-02 0.103D+00-0.694D-01 0.481D+00 0.484D+00
 Coeff-En:   0.000D+00 0.000D+00 0.000D+00 0.000D+00 0.000D+00 0.100D+01
 Coeff:     -0.146D-02 0.421D-02 0.102D+00-0.691D-01 0.479D+00 0.485D+00
 Gap=     0.212 Goal=   None    Shift=    0.000
 RMSDP=3.01D-05 MaxDP=9.22D-04 DE=-5.12D-03 OVMax= 8.64D-04

 Cycle   7  Pass 0  IDiag  1:
 RMSU=  1.08D-05    CP:  9.71D-01  8.70D-01  6.59D-01  3.38D-01  9.43D-01
                    CP:  5.88D-01
 E= -461.306535459927     Delta-E=       -0.000021410452 Rises=F Damp=F
 DIIS: error= 3.87D-05 at cycle   7 NSaved=   7.
 NSaved= 7 IEnMin= 7 EnMin= -461.306535459927     IErMin= 7 ErrMin= 3.87D-05
 ErrMax= 3.87D-05  0.00D+00 EMaxC= 1.00D-01 BMatC= 2.98D-07 BMatP= 2.64D-05
 IDIUse=1 WtCom= 1.00D+00 WtEn= 0.00D+00
 Coeff-Com: -0.360D-03 0.770D-03 0.335D-01-0.228D-01 0.156D+00 0.178D+00
 Coeff-Com:  0.655D+00
 Coeff:     -0.360D-03 0.770D-03 0.335D-01-0.228D-01 0.156D+00 0.178D+00
 Coeff:      0.655D+00
 Gap=     0.212 Goal=   None    Shift=    0.000
 RMSDP=4.07D-06 MaxDP=1.25D-04 DE=-2.14D-05 OVMax= 2.25D-04

 Initial convergence to 1.0D-05 achieved.  Increase integral accuracy.
 Cycle   8  Pass 1  IDiag  1:
 E= -461.306521961689     Delta-E=        0.000013498238 Rises=F Damp=F
 DIIS: error= 2.03D-05 at cycle   1 NSaved=   1.
 NSaved= 1 IEnMin= 1 EnMin= -461.306521961689     IErMin= 1 ErrMin= 2.03D-05
 ErrMax= 2.03D-05  0.00D+00 EMaxC= 1.00D-01 BMatC= 1.06D-07 BMatP= 1.06D-07
 IDIUse=1 WtCom= 1.00D+00 WtEn= 0.00D+00
 Coeff-Com:  0.100D+01
 Coeff:      0.100D+01
 Gap=     0.212 Goal=   None    Shift=    0.000
 RMSDP=4.07D-06 MaxDP=1.25D-04 DE= 1.35D-05 OVMax= 2.72D-04

 Cycle   9  Pass 1  IDiag  1:
 RMSU=  8.24D-06    CP:  1.00D+00
 E= -461.306521835976     Delta-E=        0.000000125713 Rises=F Damp=F
 DIIS: error= 3.18D-05 at cycle   2 NSaved=   2.
 NSaved= 2 IEnMin= 1 EnMin= -461.306521961689     IErMin= 1 ErrMin= 2.03D-05
 ErrMax= 3.18D-05  0.00D+00 EMaxC= 1.00D-01 BMatC= 2.30D-07 BMatP= 1.06D-07
 IDIUse=1 WtCom= 1.00D+00 WtEn= 0.00D+00
 Coeff-Com:  0.601D+00 0.399D+00
 Coeff:      0.601D+00 0.399D+00
 Gap=     0.212 Goal=   None    Shift=    0.000
 RMSDP=3.09D-06 MaxDP=1.12D-04 DE= 1.26D-07 OVMax= 2.27D-04

 Cycle  10  Pass 1  IDiag  1:
 RMSU=  2.57D-06    CP:  1.00D+00  7.92D-01
 E= -461.306522055071     Delta-E=       -0.000000219095 Rises=F Damp=F
 DIIS: error= 5.03D-06 at cycle   3 NSaved=   3.
 NSaved= 3 IEnMin= 3 EnMin= -461.306522055071     IErMin= 3 ErrMin= 5.03D-06
 ErrMax= 5.03D-06  0.00D+00 EMaxC= 1.00D-01 BMatC= 4.36D-09 BMatP= 1.06D-07
 IDIUse=1 WtCom= 1.00D+00 WtEn= 0.00D+00
 Coeff-Com:  0.146D+00 0.153D+00 0.700D+00
 Coeff:      0.146D+00 0.153D+00 0.700D+00
 Gap=     0.212 Goal=   None    Shift=    0.000
 RMSDP=6.87D-07 MaxDP=1.57D-05 DE=-2.19D-07 OVMax= 4.38D-05

 Cycle  11  Pass 1  IDiag  1:
 RMSU=  5.35D-07    CP:  1.00D+00  8.21D-01  8.62D-01
 E= -461.306522057195     Delta-E=       -0.000000002124 Rises=F Damp=F
 DIIS: error= 3.53D-06 at cycle   4 NSaved=   4.
 NSaved= 4 IEnMin= 4 EnMin= -461.306522057195     IErMin= 4 ErrMin= 3.53D-06
 ErrMax= 3.53D-06  0.00D+00 EMaxC= 1.00D-01 BMatC= 2.46D-09 BMatP= 4.36D-09
 IDIUse=1 WtCom= 1.00D+00 WtEn= 0.00D+00
 Coeff-Com: -0.362D-02 0.378D-01 0.472D+00 0.494D+00
 Coeff:     -0.362D-02 0.378D-01 0.472D+00 0.494D+00
 Gap=     0.212 Goal=   None    Shift=    0.000
 RMSDP=3.26D-07 MaxDP=7.68D-06 DE=-2.12D-09 OVMax= 2.27D-05

 Cycle  12  Pass 1  IDiag  1:
 RMSU=  1.01D-07    CP:  1.00D+00  8.18D-01  9.11D-01  4.73D-01
 E= -461.306522059638     Delta-E=       -0.000000002443 Rises=F Damp=F
 DIIS: error= 5.28D-07 at cycle   5 NSaved=   5.
 NSaved= 5 IEnMin= 5 EnMin= -461.306522059638     IErMin= 5 ErrMin= 5.28D-07
 ErrMax= 5.28D-07  0.00D+00 EMaxC= 1.00D-01 BMatC= 6.46D-11 BMatP= 2.46D-09
 IDIUse=1 WtCom= 1.00D+00 WtEn= 0.00D+00
 Coeff-Com: -0.542D-02 0.201D-01 0.271D+00 0.305D+00 0.409D+00
 Coeff:     -0.542D-02 0.201D-01 0.271D+00 0.305D+00 0.409D+00
 Gap=     0.212 Goal=   None    Shift=    0.000
 RMSDP=4.97D-08 MaxDP=1.26D-06 DE=-2.44D-09 OVMax= 2.08D-06

 SCF Done:  E(RB3LYP) =  -461.306522060     A.U. after   12 cycles
            NFock= 12  Conv=0.50D-07     -V/T= 2.0092
 KE= 4.571090216929D+02 PE=-2.106637376637D+03 EE= 6.720385645243D+02
 Leave Link  502 at Wed Dec 03 16:39:13 2025, MaxMem=   104857600 cpu:              14.0 elap:              14.4
 (Enter D:\Gaussian\G16W\l601.exe)
 Copying SCF densities to generalized density rwf, IOpCl= 0 IROHF=0.

 **********************************************************************

            Population analysis using the SCF density.

 **********************************************************************

 Orbital symmetries:
       Occupied  (A) (A) (A) (A) (A) (A) (A) (A) (A) (A) (A) (A)
                 (A) (A) (A) (A) (A) (A) (A) (A) (A) (A) (A) (A)
                 (A) (A) (A) (A) (A) (A) (A) (A) (A) (A) (A) (A)
                 (A)
       Virtual   (A) (A) (A) (A) (A) (A) (A) (A) (A) (A) (A) (A)
                 (A) (A) (A) (A) (A) (A) (A) (A) (A) (A) (A) (A)
                 (A) (A) (A) (A) (A) (A) (A) (A) (A) (A) (A) (A)
                 (A) (A) (A) (A) (A) (A) (A) (A) (A) (A) (A) (A)
                 (A) (A) (A) (A) (A) (A) (A) (A) (A) (A) (A) (A)
                 (A) (A) (A) (A) (A) (A) (A) (A) (A) (A) (A) (A)
                 (A) (A) (A) (A) (A) (A) (A) (A) (A) (A) (A) (A)
                 (A) (A) (A) (A) (A) (A) (A) (A) (A) (A) (A) (A)
                 (A) (A) (A) (A) (A) (A) (A) (A) (A) (A) (A) (A)
                 (A) (A) (A) (A) (A) (A) (A) (A) (A) (A) (A) (A)
                 (A) (A) (A) (A) (A) (A) (A) (A) (A) (A) (A) (A)
                 (A)
 The electronic state is 1-A.
 Alpha  occ. eigenvalues --  -19.18590 -19.16513 -10.24726 -10.23897 -10.23757
 Alpha  occ. eigenvalues --  -10.18578 -10.18455 -10.17574 -10.17523 -10.17324
 Alpha  occ. eigenvalues --   -1.07472  -1.04245  -0.84484  -0.76749  -0.73647
 Alpha  occ. eigenvalues --   -0.71974  -0.66192  -0.60300  -0.59316  -0.53924
 Alpha  occ. eigenvalues --   -0.51438  -0.47867  -0.47467  -0.44345  -0.44137
 Alpha  occ. eigenvalues --   -0.42755  -0.41501  -0.39611  -0.39298  -0.36859
 Alpha  occ. eigenvalues --   -0.36431  -0.33999  -0.33871  -0.33221  -0.30666
 Alpha  occ. eigenvalues --   -0.22845  -0.19925
 Alpha virt. eigenvalues --    0.01231   0.02609   0.08029   0.09605   0.11474
 Alpha virt. eigenvalues --    0.13522   0.14716   0.15461   0.15796   0.16237
 Alpha virt. eigenvalues --    0.16572   0.17257   0.20352   0.21293   0.23329
 Alpha virt. eigenvalues --    0.25168   0.28571   0.32633   0.34950   0.36502
 Alpha virt. eigenvalues --    0.39455   0.46645   0.51224   0.51895   0.52713
 Alpha virt. eigenvalues --    0.54110   0.54213   0.55819   0.56656   0.57080
 Alpha virt. eigenvalues --    0.60196   0.61149   0.62564   0.63669   0.66019
 Alpha virt. eigenvalues --    0.66092   0.69227   0.71400   0.72899   0.72939
 Alpha virt. eigenvalues --    0.75747   0.76675   0.80179   0.82818   0.83532
 Alpha virt. eigenvalues --    0.85313   0.86990   0.88752   0.88921   0.91019
 Alpha virt. eigenvalues --    0.92419   0.93666   0.95732   0.96356   0.97216
 Alpha virt. eigenvalues --    0.98032   1.00658   1.03265   1.06572   1.07101
 Alpha virt. eigenvalues --    1.11509   1.13969   1.17894   1.22627   1.24634
 Alpha virt. eigenvalues --    1.24779   1.27325   1.33665   1.34537   1.40344
 Alpha virt. eigenvalues --    1.40946   1.41391   1.45315   1.46557   1.50117
 Alpha virt. eigenvalues --    1.50201   1.51625   1.67220   1.73543   1.74111
 Alpha virt. eigenvalues --    1.77119   1.79799   1.83533   1.86558   1.87547
 Alpha virt. eigenvalues --    1.88598   1.90965   1.92819   1.94038   1.96546
 Alpha virt. eigenvalues --    2.00753   2.03137   2.03482   2.07803   2.11647
 Alpha virt. eigenvalues --    2.12760   2.13424   2.19135   2.22627   2.24799
 Alpha virt. eigenvalues --    2.28954   2.29956   2.33263   2.34061   2.36713
 Alpha virt. eigenvalues --    2.37557   2.40686   2.44937   2.46378   2.56482
 Alpha virt. eigenvalues --    2.59841   2.60886   2.68667   2.68673   2.69792
 Alpha virt. eigenvalues --    2.78815   2.83011   2.86894   2.92010   2.94346
 Alpha virt. eigenvalues --    3.05099   3.24076   3.45352   3.94236   4.09979
 Alpha virt. eigenvalues --    4.11403   4.19308   4.20361   4.26315   4.36110
 Alpha virt. eigenvalues --    4.39510   4.55885   4.94291
          Condensed to atoms (all electrons):
               1          2          3          4          5          6
     1  C    4.603632   0.520132  -0.003203  -0.036194  -0.020597   0.571596
     2  C    0.520132   5.064993   0.537781  -0.054412  -0.052523  -0.029883
     3  C   -0.003203   0.537781   4.607722   0.441253  -0.029454  -0.044105
     4  C   -0.036194  -0.054412   0.441253   4.773993   0.457267  -0.006102
     5  C   -0.020597  -0.052523  -0.029454   0.457267   5.117210   0.468875
     6  C    0.571596  -0.029883  -0.044105  -0.006102   0.468875   4.966623
     7  H   -0.051166   0.345972  -0.038160   0.007945  -0.000195   0.006284
     8  H    0.003426   0.000952   0.002760  -0.045017   0.349579  -0.032685
     9  O    0.000108   0.003709  -0.053043   0.243644  -0.067456   0.003759
    10  C    0.000002  -0.000136   0.004274  -0.040109  -0.004706   0.000164
    11  H    0.000000   0.000006   0.000038   0.003082   0.000104   0.000001
    12  H   -0.000003  -0.000006  -0.000205  -0.003833   0.005018  -0.000128
    13  H   -0.000003  -0.000006  -0.000205  -0.003833   0.005017  -0.000128
    14  O    0.002533  -0.051815   0.297841  -0.064531   0.005329   0.000108
    15  H   -0.000031   0.005057  -0.036463  -0.013508   0.001605  -0.000142
    16  H   -0.038099   0.006456   0.000517   0.003615  -0.045321   0.352490
    17  C    0.353625  -0.069018   0.006138   0.000325   0.008288  -0.053117
    18  H   -0.027198  -0.002378  -0.000023   0.000027  -0.000190   0.000330
    19  H   -0.027198  -0.002378  -0.000023   0.000027  -0.000190   0.000331
    20  H   -0.029485   0.003660  -0.000156   0.000012   0.000121  -0.002774
               7          8          9         10         11         12
     1  C   -0.051166   0.003426   0.000108   0.000002   0.000000  -0.000003
     2  C    0.345972   0.000952   0.003709  -0.000136   0.000006  -0.000006
     3  C   -0.038160   0.002760  -0.053043   0.004274   0.000038  -0.000205
     4  C    0.007945  -0.045017   0.243644  -0.040109   0.003082  -0.003833
     5  C   -0.000195   0.349579  -0.067456  -0.004706   0.000104   0.005018
     6  C    0.006284  -0.032685   0.003759   0.000164   0.000001  -0.000128
     7  H    0.607164   0.000018  -0.000059   0.000003   0.000000   0.000000
     8  H    0.000018   0.595932  -0.007196   0.006032  -0.000071   0.001452
     9  O   -0.000059  -0.007196   8.267610   0.248703  -0.032931  -0.035942
    10  C    0.000003   0.006032   0.248703   4.880817   0.385978   0.365679
    11  H    0.000000  -0.000071  -0.032931   0.385978   0.537562  -0.031612
    12  H    0.000000   0.001452  -0.035942   0.365679  -0.031612   0.591380
    13  H    0.000000   0.001452  -0.035943   0.365680  -0.031612  -0.048748
    14  O   -0.001178  -0.000051  -0.011865   0.000261   0.000008  -0.000018
    15  H   -0.000355  -0.000008   0.029089  -0.001311  -0.000136   0.000106
    16  H   -0.000173  -0.005433  -0.000046  -0.000008   0.000000   0.000003
    17  C   -0.008964  -0.000203   0.000000   0.000000   0.000000   0.000000
    18  H    0.001945   0.000003   0.000000   0.000000   0.000000   0.000000
    19  H    0.001946   0.000003   0.000000   0.000000   0.000000   0.000000
    20  H    0.000052  -0.000007   0.000000   0.000000   0.000000   0.000000
              13         14         15         16         17         18
     1  C   -0.000003   0.002533  -0.000031  -0.038099   0.353625  -0.027198
     2  C   -0.000006  -0.051815   0.005057   0.006456  -0.069018  -0.002378
     3  C   -0.000205   0.297841  -0.036463   0.000517   0.006138  -0.000023
     4  C   -0.003833  -0.064531  -0.013508   0.003615   0.000325   0.000027
     5  C    0.005017   0.005329   0.001605  -0.045321   0.008288  -0.000190
     6  C   -0.000128   0.000108  -0.000142   0.352490  -0.053117   0.000330
     7  H    0.000000  -0.001178  -0.000355  -0.000173  -0.008964   0.001945
     8  H    0.001452  -0.000051  -0.000008  -0.005433  -0.000203   0.000003
     9  O   -0.035943  -0.011865   0.029089  -0.000046   0.000000   0.000000
    10  C    0.365680   0.000261  -0.001311  -0.000008   0.000000   0.000000
    11  H   -0.031612   0.000008  -0.000136   0.000000   0.000000   0.000000
    12  H   -0.048748  -0.000018   0.000106   0.000003   0.000000   0.000000
    13  H    0.591381  -0.000018   0.000106   0.000003   0.000000   0.000000
    14  O   -0.000018   8.232514   0.245516   0.000002  -0.000052  -0.000001
    15  H    0.000106   0.245516   0.347494   0.000000   0.000005   0.000000
    16  H    0.000003   0.000002   0.000000   0.613538  -0.010986   0.000127
    17  C    0.000000  -0.000052   0.000005  -0.010986   5.213123   0.363039
    18  H    0.000000  -0.000001   0.000000   0.000127   0.363039   0.566653
    19  H    0.000000  -0.000001   0.000000   0.000127   0.363039  -0.034310
    20  H    0.000000   0.000000   0.000000   0.007142   0.364430  -0.028169
              19         20
     1  C   -0.027198  -0.029485
     2  C   -0.002378   0.003660
     3  C   -0.000023  -0.000156
     4  C    0.000027   0.000012
     5  C   -0.000190   0.000121
     6  C    0.000331  -0.002774
     7  H    0.001946   0.000052
     8  H    0.000003  -0.000007
     9  O    0.000000   0.000000
    10  C    0.000000   0.000000
    11  H    0.000000   0.000000
    12  H    0.000000   0.000000
    13  H    0.000000   0.000000
    14  O   -0.000001   0.000000
    15  H    0.000000   0.000000
    16  H    0.000127   0.007142
    17  C    0.363039   0.364430
    18  H   -0.034310  -0.028169
    19  H    0.566652  -0.028169
    20  H   -0.028169   0.561957
 Mulliken charges:
               1
     1  C    0.178124
     2  C   -0.226162
     3  C    0.306714
     4  C    0.336348
     5  C   -0.197783
     6  C   -0.201499
     7  H    0.128922
     8  H    0.129063
     9  O   -0.552140
    10  C   -0.211324
    11  H    0.169582
    12  H    0.156857
    13  H    0.156857
    14  O   -0.654582
    15  H    0.422976
    16  H    0.116046
    17  C   -0.529670
    18  H    0.160144
    19  H    0.160142
    20  H    0.151385
 Sum of Mulliken charges =   0.00000
 Mulliken charges with hydrogens summed into heavy atoms:
               1
     1  C    0.178124
     2  C   -0.097240
     3  C    0.306714
     4  C    0.336348
     5  C   -0.068719
     6  C   -0.085453
     9  O   -0.552140
    10  C    0.271972
    14  O   -0.231605
    17  C   -0.058000
 Electronic spatial extent (au):  <R**2>=           1623.9912
 Charge=              0.0000 electrons
 Dipole moment (field-independent basis, Debye):
    X=              1.6330    Y=             -1.9145    Z=              0.0001  Tot=              2.5164
 Quadrupole moment (field-independent basis, Debye-Ang):
   XX=            -47.3344   YY=            -58.4554   ZZ=            -61.2380
   XY=             -2.2004   XZ=             -0.0002   YZ=              0.0000
 Traceless Quadrupole moment (field-independent basis, Debye-Ang):
   XX=              8.3415   YY=             -2.7795   ZZ=             -5.5621
   XY=             -2.2004   XZ=             -0.0002   YZ=              0.0000
 Octapole moment (field-independent basis, Debye-Ang**2):
  XXX=             36.3103  YYY=             -5.8961  ZZZ=             -0.0005  XYY=              9.9421
  XXY=              0.2611  XXZ=             -0.0001  XZZ=              6.5668  YZZ=              4.0542
  YYZ=              0.0000  XYZ=              0.0000
 Hexadecapole moment (field-independent basis, Debye-Ang**3):
 XXXX=          -1372.2729 YYYY=           -566.9918 ZZZZ=            -72.8135 XXXY=            -10.1728
 XXXZ=              0.0121 YYYX=             12.6648 YYYZ=              0.0069 ZZZX=              0.0130
 ZZZY=              0.0072 XXYY=           -304.5434 XXZZ=           -261.9939 YYZZ=           -109.0027
 XXYZ=              0.0013 YYXZ=              0.0038 ZZXY=             -1.4483
 N-N= 5.161832683598D+02 E-N=-2.106637349251D+03  KE= 4.571090216929D+02
 No NMR shielding tensors so no spin-rotation constants.
 Leave Link  601 at Wed Dec 03 16:39:13 2025, MaxMem=   104857600 cpu:               0.0 elap:               0.1
 (Enter D:\Gaussian\G16W\l9999.exe)
 1|1|UNPC-PC-20250526LCFF|SP|RB3LYP|6-31G(d)|C8H10O2|ADMINISTRATOR|03-D
 ec-2025|0||#P B3LYP/6-31G* SCF=conver=7 out=wfn||Generated by Multiwfn
  (http://sobereva.com/multiwfn)||0,1|C,0,-1.933369,-0.246665,0.000041|
 C,0,-1.282658,0.995897,-0.000005|C,0,0.100369,1.077632,-0.000034|C,0,0
 .871051,-0.101568,-0.000019|C,0,0.24096,-1.336588,0.000025|C,0,-1.1578
 29,-1.402479,0.000054|H,0,-1.847477,1.921798,-0.000018|H,0,0.819664,-2
 .251143,0.000035|O,0,2.228799,0.123761,-0.000054|C,0,3.096923,-1.00008
 6,-0.000017|H,0,4.10984,-0.600521,-0.000037|H,0,2.949156,-1.615682,0.8
 94029|H,0,2.949146,-1.615749,-0.894015|O,0,0.714962,2.292615,-0.000079
 |H,0,1.667262,2.12776,-0.000091|H,0,-1.638566,-2.374537,0.000088|C,0,-
 3.442273,-0.310888,0.000084|H,0,-3.862046,0.185016,0.881185|H,0,-3.862
 102,0.185144,-0.880917|H,0,-3.79402,-1.34463,0.000021||Version=EM64W-G
 16RevA.03|State=1-A|HF=-461.3065221|RMSD=4.974e-008|Dipole=0.6424708,-
 0.7532416,0.0000252|Quadrupole=6.2017288,-2.0664645,-4.1352644,-1.6359
 4,-0.0001158,-0.0000201|PG=C01 [X(C8H10O2)]||@

 Writing a WFN file to "N.wfn"


 I think that all right-thinking people in this
 country are sick and tired of being told that
 ordinary, decent people are fed up in this country
 with being sick and tired.  I'm certainly not!
 But I'm sick and tired of being told that I am!
                               -- Monty Python
 Job cpu time:       0 days  0 hours  0 minutes 16.0 seconds.
 Elapsed time:       0 days  0 hours  0 minutes 16.5 seconds.
 File lengths (MBytes):  RWF=     19 Int=      0 D2E=      0 Chk=      3 Scr=      1
 Normal termination of Gaussian 16 at Wed Dec 03 16:39:13 2025.
