 Generated by Multiwfn (http://sobereva.com/multiwfn)
GAUSSIAN             37 MOL ORBITALS    320 PRIMITIVES       20 NUCLEI
  C    1    (CENTRE  1)  -3.65353760 -0.46612933  0.00007773  CHARGE =  6.0
  C    2    (CENTRE  2)  -2.42387215  1.88197261 -0.00000919  CHARGE =  6.0
  C    3    (CENTRE  3)   0.18967010  2.03642951 -0.00006400  CHARGE =  6.0
  C    4    (CENTRE  4)   1.64604812 -0.19193547 -0.00003565  CHARGE =  6.0
  C    5    (CENTRE  5)   0.45534882 -2.52578508  0.00004750  CHARGE =  6.0
  C    6    (CENTRE  6)  -2.18797929 -2.65030116  0.00010230  CHARGE =  6.0
  H    7    (CENTRE  7)  -3.49122546  3.63167186 -0.00003376  CHARGE =  1.0
  H    8    (CENTRE  8)   1.54894097 -4.25404350  0.00006640  CHARGE =  1.0
  O    9    (CENTRE  9)   4.21181997  0.23387476 -0.00010179  CHARGE =  8.0
  C   10    (CENTRE 10)   5.85233668 -1.88988819 -0.00003187  CHARGE =  6.0
  H   11    (CENTRE 11)   7.76647235 -1.13481967 -0.00006966  CHARGE =  1.0
  H   12    (CENTRE 12)   5.57309758 -3.05319605  1.68947021  CHARGE =  1.0
  H   13    (CENTRE 13)   5.57307868 -3.05332266 -1.68944325  CHARGE =  1.0
  O   14    (CENTRE 14)   1.35108243  4.33241468 -0.00014903  CHARGE =  8.0
  H   15    (CENTRE 15)   3.15066863  4.02088397 -0.00017171  CHARGE =  1.0
  H   16    (CENTRE 16)  -3.09644047 -4.48722461  0.00016655  CHARGE =  1.0
  C   17    (CENTRE 17)  -6.50495291 -0.58749335  0.00015899  CHARGE =  6.0
  H   18    (CENTRE 18)  -7.29820896  0.34962935  1.66519857  CHARGE =  1.0
  H   19    (CENTRE 19)  -7.29831478  0.34987123 -1.66469161  CHARGE =  1.0
  H   20    (CENTRE 20)  -7.16965830 -2.54098265  0.00003994  CHARGE =  1.0
CENTRE ASSIGNMENTS    1  1  1  1  1  1  1  1  1  1  1  1  1  1  1  1  1  1  1  1
CENTRE ASSIGNMENTS    1  1  1  1  1  1  1  1  2  2  2  2  2  2  2  2  2  2  2  2
CENTRE ASSIGNMENTS    2  2  2  2  2  2  2  2  2  2  2  2  2  2  2  2  3  3  3  3
CENTRE ASSIGNMENTS    3  3  3  3  3  3  3  3  3  3  3  3  3  3  3  3  3  3  3  3
CENTRE ASSIGNMENTS    3  3  3  3  4  4  4  4  4  4  4  4  4  4  4  4  4  4  4  4
CENTRE ASSIGNMENTS    4  4  4  4  4  4  4  4  4  4  4  4  5  5  5  5  5  5  5  5
CENTRE ASSIGNMENTS    5  5  5  5  5  5  5  5  5  5  5  5  5  5  5  5  5  5  5  5
CENTRE ASSIGNMENTS    6  6  6  6  6  6  6  6  6  6  6  6  6  6  6  6  6  6  6  6
CENTRE ASSIGNMENTS    6  6  6  6  6  6  6  6  7  7  7  7  8  8  8  8  9  9  9  9
CENTRE ASSIGNMENTS    9  9  9  9  9  9  9  9  9  9  9  9  9  9  9  9  9  9  9  9
CENTRE ASSIGNMENTS    9  9  9  9 10 10 10 10 10 10 10 10 10 10 10 10 10 10 10 10
CENTRE ASSIGNMENTS   10 10 10 10 10 10 10 10 10 10 10 10 11 11 11 11 12 12 12 12
CENTRE ASSIGNMENTS   13 13 13 13 14 14 14 14 14 14 14 14 14 14 14 14 14 14 14 14
CENTRE ASSIGNMENTS   14 14 14 14 14 14 14 14 14 14 14 14 15 15 15 15 16 16 16 16
CENTRE ASSIGNMENTS   17 17 17 17 17 17 17 17 17 17 17 17 17 17 17 17 17 17 17 17
CENTRE ASSIGNMENTS   17 17 17 17 17 17 17 17 18 18 18 18 19 19 19 19 20 20 20 20
TYPE ASSIGNMENTS      1  1  1  1  1  1  1  1  1  2  2  2  3  3  3  4  4  4  1  2
TYPE ASSIGNMENTS      3  4  5  6  7  8  9 10  1  1  1  1  1  1  1  1  1  2  2  2
TYPE ASSIGNMENTS      3  3  3  4  4  4  1  2  3  4  5  6  7  8  9 10  1  1  1  1
TYPE ASSIGNMENTS      1  1  1  1  1  2  2  2  3  3  3  4  4  4  1  2  3  4  5  6
TYPE ASSIGNMENTS      7  8  9 10  1  1  1  1  1  1  1  1  1  2  2  2  3  3  3  4
TYPE ASSIGNMENTS      4  4  1  2  3  4  5  6  7  8  9 10  1  1  1  1  1  1  1  1
TYPE ASSIGNMENTS      1  2  2  2  3  3  3  4  4  4  1  2  3  4  5  6  7  8  9 10
TYPE ASSIGNMENTS      1  1  1  1  1  1  1  1  1  2  2  2  3  3  3  4  4  4  1  2
TYPE ASSIGNMENTS      3  4  5  6  7  8  9 10  1  1  1  1  1  1  1  1  1  1  1  1
TYPE ASSIGNMENTS      1  1  1  1  1  2  2  2  3  3  3  4  4  4  1  2  3  4  5  6
TYPE ASSIGNMENTS      7  8  9 10  1  1  1  1  1  1  1  1  1  2  2  2  3  3  3  4
TYPE ASSIGNMENTS      4  4  1  2  3  4  5  6  7  8  9 10  1  1  1  1  1  1  1  1
TYPE ASSIGNMENTS      1  1  1  1  1  1  1  1  1  1  1  1  1  2  2  2  3  3  3  4
TYPE ASSIGNMENTS      4  4  1  2  3  4  5  6  7  8  9 10  1  1  1  1  1  1  1  1
TYPE ASSIGNMENTS      1  1  1  1  1  1  1  1  1  2  2  2  3  3  3  4  4  4  1  2
TYPE ASSIGNMENTS      3  4  5  6  7  8  9 10  1  1  1  1  1  1  1  1  1  1  1  1
EXPONENTS  0.3047525D+04 0.4573695D+03 0.1039487D+03 0.2921016D+02 0.9286663D+01
EXPONENTS  0.3163927D+01 0.7868272D+01 0.1881289D+01 0.5442493D+00 0.7868272D+01
EXPONENTS  0.1881289D+01 0.5442493D+00 0.7868272D+01 0.1881289D+01 0.5442493D+00
EXPONENTS  0.7868272D+01 0.1881289D+01 0.5442493D+00 0.1687145D+00 0.1687145D+00
EXPONENTS  0.1687145D+00 0.1687145D+00 0.8000000D+00 0.8000000D+00 0.8000000D+00
EXPONENTS  0.8000000D+00 0.8000000D+00 0.8000000D+00 0.3047525D+04 0.4573695D+03
EXPONENTS  0.1039487D+03 0.2921016D+02 0.9286663D+01 0.3163927D+01 0.7868272D+01
EXPONENTS  0.1881289D+01 0.5442493D+00 0.7868272D+01 0.1881289D+01 0.5442493D+00
EXPONENTS  0.7868272D+01 0.1881289D+01 0.5442493D+00 0.7868272D+01 0.1881289D+01
EXPONENTS  0.5442493D+00 0.1687145D+00 0.1687145D+00 0.1687145D+00 0.1687145D+00
EXPONENTS  0.8000000D+00 0.8000000D+00 0.8000000D+00 0.8000000D+00 0.8000000D+00
EXPONENTS  0.8000000D+00 0.3047525D+04 0.4573695D+03 0.1039487D+03 0.2921016D+02
EXPONENTS  0.9286663D+01 0.3163927D+01 0.7868272D+01 0.1881289D+01 0.5442493D+00
EXPONENTS  0.7868272D+01 0.1881289D+01 0.5442493D+00 0.7868272D+01 0.1881289D+01
EXPONENTS  0.5442493D+00 0.7868272D+01 0.1881289D+01 0.5442493D+00 0.1687145D+00
EXPONENTS  0.1687145D+00 0.1687145D+00 0.1687145D+00 0.8000000D+00 0.8000000D+00
EXPONENTS  0.8000000D+00 0.8000000D+00 0.8000000D+00 0.8000000D+00 0.3047525D+04
EXPONENTS  0.4573695D+03 0.1039487D+03 0.2921016D+02 0.9286663D+01 0.3163927D+01
EXPONENTS  0.7868272D+01 0.1881289D+01 0.5442493D+00 0.7868272D+01 0.1881289D+01
EXPONENTS  0.5442493D+00 0.7868272D+01 0.1881289D+01 0.5442493D+00 0.7868272D+01
EXPONENTS  0.1881289D+01 0.5442493D+00 0.1687145D+00 0.1687145D+00 0.1687145D+00
EXPONENTS  0.1687145D+00 0.8000000D+00 0.8000000D+00 0.8000000D+00 0.8000000D+00
EXPONENTS  0.8000000D+00 0.8000000D+00 0.3047525D+04 0.4573695D+03 0.1039487D+03
EXPONENTS  0.2921016D+02 0.9286663D+01 0.3163927D+01 0.7868272D+01 0.1881289D+01
EXPONENTS  0.5442493D+00 0.7868272D+01 0.1881289D+01 0.5442493D+00 0.7868272D+01
EXPONENTS  0.1881289D+01 0.5442493D+00 0.7868272D+01 0.1881289D+01 0.5442493D+00
EXPONENTS  0.1687145D+00 0.1687145D+00 0.1687145D+00 0.1687145D+00 0.8000000D+00
EXPONENTS  0.8000000D+00 0.8000000D+00 0.8000000D+00 0.8000000D+00 0.8000000D+00
EXPONENTS  0.3047525D+04 0.4573695D+03 0.1039487D+03 0.2921016D+02 0.9286663D+01
EXPONENTS  0.3163927D+01 0.7868272D+01 0.1881289D+01 0.5442493D+00 0.7868272D+01
EXPONENTS  0.1881289D+01 0.5442493D+00 0.7868272D+01 0.1881289D+01 0.5442493D+00
EXPONENTS  0.7868272D+01 0.1881289D+01 0.5442493D+00 0.1687145D+00 0.1687145D+00
EXPONENTS  0.1687145D+00 0.1687145D+00 0.8000000D+00 0.8000000D+00 0.8000000D+00
EXPONENTS  0.8000000D+00 0.8000000D+00 0.8000000D+00 0.1873114D+02 0.2825394D+01
EXPONENTS  0.6401217D+00 0.1612778D+00 0.1873114D+02 0.2825394D+01 0.6401217D+00
EXPONENTS  0.1612778D+00 0.5484672D+04 0.8252349D+03 0.1880470D+03 0.5296450D+02
EXPONENTS  0.1689757D+02 0.5799635D+01 0.1553962D+02 0.3599934D+01 0.1013762D+01
EXPONENTS  0.1553962D+02 0.3599934D+01 0.1013762D+01 0.1553962D+02 0.3599934D+01
EXPONENTS  0.1013762D+01 0.1553962D+02 0.3599934D+01 0.1013762D+01 0.2700058D+00
EXPONENTS  0.2700058D+00 0.2700058D+00 0.2700058D+00 0.8000000D+00 0.8000000D+00
EXPONENTS  0.8000000D+00 0.8000000D+00 0.8000000D+00 0.8000000D+00 0.3047525D+04
EXPONENTS  0.4573695D+03 0.1039487D+03 0.2921016D+02 0.9286663D+01 0.3163927D+01
EXPONENTS  0.7868272D+01 0.1881289D+01 0.5442493D+00 0.7868272D+01 0.1881289D+01
EXPONENTS  0.5442493D+00 0.7868272D+01 0.1881289D+01 0.5442493D+00 0.7868272D+01
EXPONENTS  0.1881289D+01 0.5442493D+00 0.1687145D+00 0.1687145D+00 0.1687145D+00
EXPONENTS  0.1687145D+00 0.8000000D+00 0.8000000D+00 0.8000000D+00 0.8000000D+00
EXPONENTS  0.8000000D+00 0.8000000D+00 0.1873114D+02 0.2825394D+01 0.6401217D+00
EXPONENTS  0.1612778D+00 0.1873114D+02 0.2825394D+01 0.6401217D+00 0.1612778D+00
EXPONENTS  0.1873114D+02 0.2825394D+01 0.6401217D+00 0.1612778D+00 0.5484672D+04
EXPONENTS  0.8252349D+03 0.1880470D+03 0.5296450D+02 0.1689757D+02 0.5799635D+01
EXPONENTS  0.1553962D+02 0.3599934D+01 0.1013762D+01 0.1553962D+02 0.3599934D+01
EXPONENTS  0.1013762D+01 0.1553962D+02 0.3599934D+01 0.1013762D+01 0.1553962D+02
EXPONENTS  0.3599934D+01 0.1013762D+01 0.2700058D+00 0.2700058D+00 0.2700058D+00
EXPONENTS  0.2700058D+00 0.8000000D+00 0.8000000D+00 0.8000000D+00 0.8000000D+00
EXPONENTS  0.8000000D+00 0.8000000D+00 0.1873114D+02 0.2825394D+01 0.6401217D+00
EXPONENTS  0.1612778D+00 0.1873114D+02 0.2825394D+01 0.6401217D+00 0.1612778D+00
EXPONENTS  0.3047525D+04 0.4573695D+03 0.1039487D+03 0.2921016D+02 0.9286663D+01
EXPONENTS  0.3163927D+01 0.7868272D+01 0.1881289D+01 0.5442493D+00 0.7868272D+01
EXPONENTS  0.1881289D+01 0.5442493D+00 0.7868272D+01 0.1881289D+01 0.5442493D+00
EXPONENTS  0.7868272D+01 0.1881289D+01 0.5442493D+00 0.1687145D+00 0.1687145D+00
EXPONENTS  0.1687145D+00 0.1687145D+00 0.8000000D+00 0.8000000D+00 0.8000000D+00
EXPONENTS  0.8000000D+00 0.8000000D+00 0.8000000D+00 0.1873114D+02 0.2825394D+01
EXPONENTS  0.6401217D+00 0.1612778D+00 0.1873114D+02 0.2825394D+01 0.6401217D+00
EXPONENTS  0.1612778D+00 0.1873114D+02 0.2825394D+01 0.6401217D+00 0.1612778D+00
MO    1     MO 0.0        OCC NO =    2.0000000  ORB. ENERGY =  -19.185898
  0.58045061D-05  0.10708180D-04  0.17286323D-04  0.22501657D-04  0.19200704D-04
  0.66295418D-05 -0.25476704D-04 -0.11742190D-04  0.32926325D-04  0.25354467D-04
  0.19440197D-04  0.97020207D-05  0.11946840D-04  0.91600790D-05  0.45715214D-05
 -0.61877047D-09 -0.47443395D-09 -0.23677579D-09 -0.21623449D-03 -0.12706015D-03
 -0.14325210D-04  0.29254896D-08  0.11717019D-04 -0.31617181D-04  0.25596998D-04
  0.16021777D-04  0.14157902D-09  0.26225612D-08  0.45773019D-05  0.84442281D-05
  0.13631602D-04  0.17744296D-04  0.15141240D-04  0.52279063D-05 -0.10869841D-04
 -0.50098998D-05  0.14048282D-04  0.70779131D-04  0.54268948D-04  0.27084008D-04
 -0.24714127D-04 -0.18949225D-04 -0.94569913D-05 -0.78503370D-09 -0.60191405D-09
 -0.30039729D-09  0.23238326D-03  0.33112556D-04 -0.11021557D-03  0.25886040D-08
  0.19603293D-04  0.23052771D-04  0.30589902D-04  0.90846030D-05  0.89568937D-09
  0.96338116D-10  0.12554335D-04  0.23160298D-04  0.37387901D-04  0.48667939D-04
  0.41528440D-04  0.14338772D-04 -0.66965776D-04 -0.30864465D-04  0.86547181D-04
  0.52421058D-04  0.40193143D-04  0.20059195D-04  0.69489216D-04  0.53279924D-04
  0.26590416D-04 -0.24776517D-08 -0.18997061D-08 -0.94808650D-09 -0.10909316D-03
  0.19177734D-03  0.31284963D-03 -0.12825423D-07 -0.42858070D-04  0.60660350D-04
  0.29706442D-04  0.10510322D-03  0.76007159D-10 -0.36906335D-08 -0.25294573D-04
 -0.46663547D-04 -0.75329434D-04 -0.98056541D-04 -0.83671824D-04 -0.28889870D-04
 -0.34828975D-04 -0.16052643D-04  0.45013286D-04  0.54860439D-03  0.42063505D-03
  0.20992637D-03  0.17135307D-03  0.13138267D-03  0.65569159D-04 -0.18642519D-07
 -0.14293901D-07 -0.71336585D-08  0.27153088D-04 -0.71097840D-03 -0.25158542D-03
  0.22516557D-07  0.72414816D-04 -0.11001784D-04 -0.91979537D-04  0.16574250D-03
 -0.12148308D-07 -0.88205874D-08  0.11268478D-04  0.20788142D-04  0.33558506D-04
  0.43683204D-04  0.37274957D-04  0.12870147D-04 -0.77997745D-04 -0.35949089D-04
  0.10080500D-03 -0.85949778D-04 -0.65900838D-04 -0.32889137D-04 -0.50829639D-04
 -0.38972943D-04 -0.19450230D-04  0.30357997D-08  0.23276586D-08  0.11616648D-08
 -0.61123316D-03  0.20107543D-03 -0.28438214D-03  0.25810540D-08 -0.68873520D-04
 -0.84037826D-04  0.47592185D-04 -0.12849595D-04  0.46603033D-08  0.55414951D-08
 -0.42433279D-05 -0.78281114D-05 -0.12636999D-04 -0.16449618D-04 -0.14036489D-04
 -0.48464622D-05  0.25417240D-04  0.11714783D-04 -0.32849473D-04  0.85911126D-04
  0.65871203D-04  0.32874347D-04  0.70404050D-05  0.53981360D-05  0.26940482D-05
 -0.16612586D-08 -0.12737477D-08 -0.63568939D-09  0.36385044D-03  0.10192430D-03
  0.11500784D-03 -0.47147704D-08  0.53256001D-04 -0.27901624D-05 -0.47347997D-05
 -0.17286607D-04 -0.13839783D-08  0.34328145D-09  0.59492909D-05  0.10091123D-04
  0.11488387D-04  0.24320990D-04 -0.15963452D-04 -0.27077036D-04 -0.30826249D-04
 -0.11933985D-03  0.82557639D+00  0.15195013D+01  0.24588399D+01  0.32322139D+01
  0.27722510D+01  0.94787972D+00 -0.15696942D-01 -0.70039448D-02  0.20682743D-01
 -0.87166404D-03 -0.67157015D-03 -0.29485547D-03 -0.27445952D-02 -0.21145626D-02
 -0.92840688D-03  0.13829216D-06  0.10654665D-06  0.46779719D-07  0.41298154D-02
 -0.32625062D-03  0.20699267D-04  0.69484663D-08 -0.94689739D-02 -0.95791136D-02
 -0.94281639D-02  0.15853338D-03 -0.66943230D-08  0.11712437D-07  0.72492731D-05
  0.13373493D-04  0.21588965D-04  0.28102418D-04  0.23979844D-04  0.82796639D-05
 -0.73928822D-04 -0.34073727D-04  0.95546286D-04 -0.28181942D-03 -0.21608126D-03
 -0.10783969D-03  0.50436882D-03  0.38671802D-03  0.19299940D-03 -0.18850430D-07
 -0.14453314D-07 -0.72132167D-08 -0.30847971D-03  0.42343922D-04 -0.11651206D-03
  0.43412473D-08  0.17528288D-03  0.36287701D-03  0.26612217D-04 -0.46534340D-03
  0.15258125D-07 -0.25410359D-07  0.26239993D-04  0.44507995D-04  0.50670779D-04
  0.26368861D-04  0.12407659D-04  0.21045738D-04  0.23959829D-04  0.99129132D-05
  0.12407973D-04  0.21046271D-04  0.23960435D-04  0.99125015D-05  0.24999788D-04
  0.46012955D-04  0.74457647D-04  0.97876662D-04  0.83948244D-04  0.28703330D-04
 -0.98535768D-04 -0.43966468D-04  0.12983357D-03 -0.16234425D-03 -0.12507749D-03
 -0.54915757D-04 -0.19080947D-03 -0.14700841D-03 -0.64544612D-04  0.66472572D-08
  0.51213534D-08  0.22485500D-08 -0.29166203D-03  0.17935965D-03  0.15499898D-03
 -0.70745482D-08  0.15063378D-03  0.46074166D-06  0.10941637D-03 -0.98712745D-04
  0.15023983D-08  0.72426762D-08 -0.62205366D-05 -0.10551207D-04 -0.12012177D-04
 -0.15691755D-03  0.40712100D-05  0.69055427D-05  0.78617163D-05  0.30563396D-04
  0.12575152D-05  0.23198700D-05  0.37449895D-05  0.48748635D-05  0.41597299D-05
  0.14362548D-05 -0.54691231D-05 -0.25207138D-05  0.70683447D-05 -0.15319427D-04
 -0.11745965D-04 -0.58620597D-05  0.71566953D-05  0.54873000D-05  0.27385473D-05
 -0.82244593D-10 -0.63059937D-10 -0.31471328D-10 -0.58592897D-04 -0.16347373D-04
 -0.57777453D-05  0.10775135D-08 -0.25271115D-05  0.52950420D-05 -0.15726431D-06
 -0.59265516D-05  0.46687965D-09  0.19630245D-08  0.19631840D-05  0.33299316D-05
  0.37910095D-05  0.22839049D-05  0.19635220D-05  0.33305050D-05  0.37916622D-05
  0.22846299D-05 -0.47393494D-06 -0.80388337D-06 -0.91519280D-06  0.17134601D-05
MO    2     MO 0.0        OCC NO =    2.0000000  ORB. ENERGY =  -19.165131
 -0.96171366D-06 -0.17741739D-05 -0.28640668D-05 -0.37281640D-05 -0.31812491D-05
 -0.10984089D-05  0.15719362D-04  0.72450395D-05 -0.20315847D-04  0.61928653D-04
  0.47482963D-04  0.23697326D-04  0.58999420D-04  0.45237013D-04  0.22576440D-04
 -0.25772565D-08 -0.19760768D-08 -0.98620084D-09  0.37808104D-03  0.10840351D-03
  0.19609668D-04 -0.27415148D-08  0.14954871D-04  0.46059015D-04  0.14812110D-04
 -0.93889919D-06 -0.66733997D-09 -0.16372884D-08  0.75297258D-05  0.13890874D-04
  0.22424177D-04  0.29189616D-04  0.24907552D-04  0.85999793D-05 -0.67274923D-04
 -0.31006951D-04  0.86946726D-04 -0.10578549D-04 -0.81109608D-05 -0.40479379D-05
 -0.88077853D-05 -0.67532511D-05 -0.33703456D-05  0.27422757D-09  0.21026031D-09
  0.10493463D-09 -0.40173452D-03 -0.13802836D-03  0.31747291D-03 -0.57358100D-08
 -0.88665172D-04 -0.56565783D-04  0.31967031D-04  0.26354063D-04  0.36453850D-08
  0.47678019D-08 -0.36165512D-04 -0.66718308D-04 -0.10770404D-03 -0.14019865D-03
 -0.11963176D-03 -0.41305973D-04 -0.25732775D-04 -0.11860212D-04  0.33257274D-04
  0.20914659D-03  0.16036034D-03  0.80031047D-04  0.52225800D-03  0.40043431D-03
  0.19984478D-03 -0.18311218D-07 -0.14039880D-07 -0.70068842D-08  0.22947114D-03
 -0.28077197D-03 -0.86045001D-03  0.28391878D-07 -0.83689416D-04 -0.38500391D-04
 -0.13550993D-03 -0.11036309D-03  0.11004465D-08 -0.24588292D-08  0.26789227D-04
  0.49420893D-04  0.79780645D-04  0.10385069D-03  0.88615986D-04  0.30596970D-04
 -0.12312429D-03 -0.56747873D-04  0.15912696D-03  0.16769905D-04  0.12858099D-04
  0.64170926D-05 -0.54233084D-04 -0.41582489D-04 -0.20752576D-04  0.56264912D-09
  0.43140366D-09  0.21530066D-09 -0.71260608D-03  0.60376809D-03  0.22807535D-04
 -0.13013005D-07  0.69503561D-04 -0.77052227D-04  0.80899131D-04  0.68597325D-04
 -0.18569191D-08  0.63850501D-08 -0.50733866D-05 -0.93594077D-05 -0.15108986D-04
 -0.19667411D-04 -0.16782237D-04 -0.57945031D-05  0.27584512D-04  0.12713676D-04
 -0.35650476D-04  0.53801609D-04  0.41251662D-04  0.20587470D-04  0.92368702D-04
  0.70822462D-04  0.35345372D-04 -0.37872655D-08 -0.29038350D-08 -0.14492172D-08
  0.50379534D-03 -0.14724047D-03  0.22921996D-03 -0.25839453D-08  0.20098527D-05
  0.42250374D-04 -0.47377575D-05  0.17453252D-04 -0.31813381D-09 -0.28106179D-08
  0.94817049D-05  0.17491894D-04  0.28237341D-04  0.36756627D-04  0.31364497D-04
  0.10829407D-04 -0.39609856D-04 -0.18256147D-04  0.51192141D-04 -0.23835459D-04
 -0.18275518D-04 -0.91207642D-05  0.27207853D-04  0.20861256D-04  0.10411229D-04
  0.10571228D-10  0.81053472D-11  0.40451363D-11 -0.34046946D-03 -0.81389196D-04
 -0.13356053D-03  0.47446680D-08 -0.29289213D-04  0.11516884D-04  0.39139203D-04
  0.30396075D-04  0.15311696D-08  0.45613323D-09 -0.11158641D-04 -0.18927167D-04
 -0.21547911D-04 -0.14355061D-03  0.11453090D-04  0.19426609D-04  0.22116508D-04
  0.86988716D-04  0.42657013D-04  0.78511676D-04  0.12704671D-03  0.16700646D-03
  0.14324047D-03  0.48976349D-04 -0.15757271D-03 -0.70308636D-04  0.20762234D-03
 -0.15292105D-03 -0.11781742D-03 -0.51728195D-04 -0.91828321D-04 -0.70748771D-04
 -0.31062521D-04  0.37017661D-08  0.28520112D-08  0.12521865D-08 -0.46697961D-03
  0.18548085D-03  0.80531899D-04 -0.52762633D-08  0.74526685D-04  0.17704501D-03
  0.16021141D-03 -0.45222751D-04  0.48715300D-08  0.27078453D-09  0.10427972D-04
  0.19237572D-04  0.31055406D-04  0.40424911D-04  0.34494650D-04  0.11910174D-04
 -0.32344662D-04 -0.14907625D-04  0.41802537D-04 -0.58782930D-04 -0.45071023D-04
 -0.22493599D-04  0.28376285D-04  0.21757135D-04  0.10858335D-04 -0.77165046D-09
 -0.59165263D-09 -0.29527613D-09 -0.50727478D-04  0.29755827D-04 -0.13635583D-04
 -0.80083349D-10  0.34351664D-04  0.16852484D-04  0.41399362D-04 -0.14523040D-06
  0.15588700D-08  0.14160871D-08 -0.63312872D-06 -0.10739061D-05 -0.12226042D-05
 -0.71806853D-05  0.47914684D-05  0.81272373D-05  0.92525724D-05 -0.55952687D-05
  0.47915058D-05  0.81273007D-05  0.92526446D-05 -0.55956361D-05  0.82561032D+00
  0.15195637D+01  0.24589409D+01  0.32323467D+01  0.27723650D+01  0.94791867D+00
 -0.15745485D-01 -0.70256048D-02  0.20746705D-01  0.16971619D-02  0.13075718D-02
  0.57409444D-03 -0.27252795D-02 -0.20996809D-02 -0.92187301D-03  0.46521870D-07
  0.35842593D-07  0.15736829D-07  0.40324461D-02 -0.24335572D-03 -0.31867335D-03
  0.13667319D-07 -0.92869296D-02 -0.92612848D-02 -0.92734813D-02  0.17907701D-03
 -0.46411867D-08 -0.43839253D-08  0.85236248D-04  0.14457681D-03  0.16459559D-03
 -0.20696617D-03 -0.54576183D-05 -0.92571536D-05 -0.10538942D-04 -0.41075259D-04
  0.54403805D-05  0.10036440D-04  0.16201926D-04  0.21090093D-04  0.17996215D-04
  0.62136605D-05 -0.18682927D-04 -0.86109441D-05  0.24145986D-04  0.54130661D-06
  0.41503957D-06  0.20713383D-06  0.19869469D-05  0.15234649D-05  0.76031575D-06
 -0.25228325D-09 -0.19343480D-09 -0.96537521D-10 -0.25328642D-04 -0.97070449D-05
 -0.22517187D-05  0.20279971D-09 -0.35256785D-05  0.20327804D-04  0.20828760D-04
  0.47136109D-06  0.10508930D-08  0.28221448D-09  0.19733624D-05  0.33471961D-05
  0.38106645D-05  0.40833300D-05  0.19733568D-05  0.33471866D-05  0.38106536D-05
  0.40834507D-05  0.24958942D-05  0.42335089D-05  0.48197002D-05  0.71028127D-06
MO    3     MO 0.0        OCC NO =    2.0000000  ORB. ENERGY =  -10.247259
 -0.35943801D-05 -0.66309294D-05 -0.10704376D-04 -0.13933917D-04 -0.11889837D-04
 -0.41052749D-05  0.11595311D-04  0.53442682D-05 -0.14985886D-04 -0.69964652D-05
 -0.53644457D-05 -0.26772344D-05  0.49166504D-04  0.37697757D-04  0.18813823D-04
 -0.49961211D-09 -0.38307087D-09 -0.19117921D-09  0.13993682D-03  0.47110582D-04
  0.95958898D-04 -0.40069000D-08 -0.12461741D-04  0.14046689D-04 -0.12103340D-04
  0.51348049D-04 -0.12711355D-08 -0.23690138D-08  0.93068734D-05  0.17169364D-04
  0.27716677D-04  0.36078879D-04  0.30786172D-04  0.10629726D-04 -0.35279091D-04
 -0.16260101D-04  0.45595021D-04 -0.93698223D-04 -0.71841854D-04 -0.35854120D-04
 -0.32782958D-04 -0.25135893D-04 -0.12544572D-04  0.20613202D-08  0.15804896D-08
  0.78877506D-09 -0.34421223D-03 -0.54496884D-04  0.20049352D-03 -0.34971330D-08
 -0.29042045D-04  0.97844139D-05  0.21371447D-04  0.31566834D-04  0.19085466D-08
  0.13941619D-09 -0.86983566D-04 -0.16046770D-03 -0.25904461D-03 -0.33719912D-03
 -0.28773262D-03 -0.99347159D-04  0.11230149D-03  0.51759654D-04 -0.14513947D-03
  0.11095590D-03  0.85073945D-04  0.42457861D-04 -0.25347181D-04 -0.19434610D-04
 -0.96992327D-05 -0.34090197D-09 -0.26138201D-09 -0.13044794D-09  0.78411906D-03
 -0.25756427D-04 -0.45715924D-03  0.10837541D-07  0.27486551D-05 -0.21205024D-04
 -0.91847080D-04 -0.63593614D-04 -0.23665312D-08 -0.15382103D-08 -0.96844121D-04
 -0.17865849D-03 -0.28841020D-03 -0.37542439D-03 -0.32035031D-03 -0.11060926D-03
  0.47401951D-04  0.21847516D-04 -0.61262715D-04 -0.13310051D-03 -0.10205303D-03
 -0.50931612D-04  0.18982173D-03  0.14554326D-03  0.72636287D-04 -0.54093565D-08
 -0.41475515D-08 -0.20699189D-08 -0.28091472D-03  0.47943122D-03 -0.46886526D-03
  0.52731673D-08  0.22367205D-03  0.18769124D-04 -0.42514567D-04  0.95413432D-04
 -0.94651772D-08 -0.90186685D-08 -0.15707016D-06 -0.28976377D-06 -0.46776857D-06
 -0.60889569D-06 -0.51957180D-06 -0.17939565D-06 -0.32580697D-04 -0.15016413D-04
  0.42107590D-04 -0.13814991D-03 -0.10592459D-03 -0.52863793D-04 -0.24459303D-04
 -0.18753842D-04 -0.93594817D-05  0.34101107D-08  0.26146566D-08  0.13048969D-08
 -0.24748051D-03 -0.65618864D-04  0.30631628D-05  0.53322668D-09 -0.11854002D-03
  0.39405867D-04 -0.83782488D-05 -0.10497272D-03  0.78743424D-08 -0.31924390D-08
 -0.17919169D-04 -0.33057367D-04 -0.53364840D-04 -0.69465166D-04 -0.59274752D-04
 -0.20466147D-04  0.54585576D-04  0.25158442D-04 -0.70546897D-04  0.59335648D-05
  0.45494811D-05  0.22705099D-05 -0.45960255D-04 -0.35239408D-04 -0.17586934D-04
  0.19885657D-08  0.15247060D-08  0.76093517D-09  0.10720812D-03  0.30348961D-04
  0.55372813D-04 -0.19341082D-08  0.50029958D-04 -0.20578425D-04 -0.70187426D-04
  0.59888302D-05 -0.45032948D-08 -0.25712287D-08 -0.12308067D-04 -0.20876811D-04
 -0.23767511D-04 -0.50114953D-04  0.96342915D-05  0.16341582D-04  0.18604313D-04
  0.53281825D-04 -0.50782638D-04 -0.93467163D-04 -0.15124751D-03 -0.19881909D-03
 -0.17052598D-03 -0.58305728D-04 -0.65485027D-04 -0.29219292D-04  0.86284960D-04
 -0.18932846D-03 -0.14586737D-03 -0.64043633D-04 -0.18720822D-03 -0.14423384D-03
 -0.63326425D-04  0.54615692D-08  0.42078446D-08  0.18474704D-08  0.12439335D-03
  0.10406740D-03  0.25935850D-03 -0.10701770D-07 -0.34405373D-03 -0.53590764D-03
  0.16938579D-03  0.63067863D-03 -0.15989013D-07  0.54029482D-07  0.53255660D+00
  0.98246293D+00  0.15859998D+01  0.20645005D+01  0.17616420D+01  0.60825265D+00
 -0.19712417D-01 -0.90854351D-02  0.25476508D-01 -0.93972687D-03 -0.72052296D-03
 -0.35959146D-03  0.86152065D-03  0.66055939D-03  0.32966543D-03 -0.26471570D-07
 -0.20296721D-07 -0.10129486D-07 -0.26222409D-02  0.10770073D-03  0.59776641D-04
 -0.40308202D-08 -0.99937328D-02 -0.99273437D-02 -0.10140455D-01 -0.24642657D-03
  0.11073852D-07 -0.13481559D-07 -0.45345771D-04 -0.76915011D-04 -0.87565021D-04
  0.39171057D-03 -0.96027359D-05 -0.16288058D-04 -0.18543378D-04  0.48304153D-03
 -0.96033910D-05 -0.16289169D-04 -0.18544643D-04  0.48304183D-03 -0.46309098D-04
 -0.85233461D-04 -0.13792383D-03 -0.18130473D-03 -0.15550402D-03 -0.53169464D-04
  0.15323455D-03  0.68372956D-04 -0.20190626D-03  0.44239044D-04  0.34083799D-04
  0.14964623D-04 -0.89288158D-05 -0.68791712D-05 -0.30203267D-05 -0.27581790D-08
 -0.21250283D-08 -0.93300186D-09  0.41649327D-03 -0.43978034D-04 -0.58259969D-04
  0.34777362D-08 -0.13960690D-03 -0.17978699D-03 -0.17630661D-03  0.24206737D-04
 -0.27977223D-08 -0.13852659D-08 -0.13278425D-05 -0.22522721D-05 -0.25641322D-05
 -0.42178957D-04  0.16328296D-05  0.27695880D-05  0.31530781D-05  0.26836055D-04
 -0.23415761D-05 -0.43197506D-05 -0.69734169D-05 -0.90773168D-05 -0.77456909D-05
 -0.26744009D-05  0.46143353D-05  0.21267429D-05 -0.59636092D-05 -0.50386228D-05
 -0.38632964D-05 -0.19280557D-05  0.74462287D-05  0.57092958D-05  0.28493388D-05
 -0.65618888D-09 -0.50312401D-09 -0.25109414D-09  0.19302487D-04  0.85113825D-05
 -0.25672180D-04  0.95061686D-09 -0.17732459D-06  0.56368706D-05 -0.17751161D-04
 -0.37727804D-04 -0.23450246D-09  0.58219566D-08  0.14135853D-05  0.23977083D-05
  0.27297061D-05  0.43395785D-05  0.14142598D-05  0.23988522D-05  0.27310085D-05
  0.43418897D-05 -0.42399363D-05 -0.71917345D-05 -0.81875355D-05 -0.79627176D-05
MO    4     MO 0.0        OCC NO =    2.0000000  ORB. ENERGY =  -10.238975
 -0.64276423D-04 -0.11857745D-03 -0.19142077D-03 -0.24917297D-03 -0.21261974D-03
 -0.73412488D-04  0.12693907D-03  0.58506103D-04 -0.16405722D-03 -0.14360705D-03
 -0.11010878D-03 -0.54951997D-04 -0.44864493D-04 -0.34399248D-04 -0.17167636D-04
  0.42241862D-08  0.32388381D-08  0.16164072D-08  0.87268306D-03  0.57446191D-03
  0.33152615D-04 -0.13151078D-07 -0.23257981D-04  0.65888975D-04 -0.12537883D-03
 -0.16602082D-04 -0.36278654D-08 -0.94483061D-08  0.41364297D-03  0.76309051D-03
  0.12318647D-02  0.16035218D-02  0.13682881D-02  0.47243699D-03  0.33342753D-05
  0.15367644D-05 -0.43092479D-05 -0.17826647D-03 -0.13668342D-03 -0.68214606D-04
  0.71225409D-04  0.54611126D-04  0.27254779D-04  0.22802823D-08  0.17483759D-08
  0.87256209D-09 -0.86902360D-03 -0.15779417D-03  0.37506358D-03 -0.71899346D-08
  0.74326951D-04 -0.62054600D-04 -0.51677186D-04 -0.41701430D-04 -0.45849209D-08
  0.19231409D-08  0.94649025D-01  0.17460897D+00  0.28187302D+00  0.36691492D+00
  0.31308916D+00  0.10810216D+00 -0.32182834D-02 -0.14833039D-02  0.41593389D-02
 -0.10609754D-03 -0.81348867D-04 -0.40598786D-04  0.43805597D-03  0.33587353D-03
  0.16762443D-03 -0.10363548D-07 -0.79461113D-08 -0.39656664D-08  0.13110010D-02
 -0.24926737D-03 -0.82824361D-03  0.26967748D-07 -0.23274652D-02 -0.20853566D-02
 -0.21667367D-02  0.35154536D-03 -0.24094002D-08 -0.11581358D-07  0.52402072D+00
  0.96671591D+00  0.15605792D+01  0.20314105D+01  0.17334062D+01  0.59850352D+00
 -0.19423809D-01 -0.89524157D-02  0.25103508D-01  0.12140199D-02  0.93083345D-03
  0.46455113D-03  0.17659508D-03  0.13540190D-03  0.67575040D-04 -0.31598707D-07
 -0.24227884D-07 -0.12091412D-07 -0.32876147D-02  0.15397853D-02  0.38326062D-03
 -0.41454076D-07 -0.92099493D-02 -0.99161767D-02 -0.10343182D-01  0.33716789D-03
 -0.56982498D-07 -0.30055890D-07  0.26702324D-02  0.49260574D-02  0.79521840D-02
  0.10351381D-01  0.88328520D-02  0.30497715D-02  0.25629772D-03  0.11812739D-03
 -0.33124152D-03  0.19723458D-04  0.15122697D-04  0.75472856D-05 -0.36429901D-03
 -0.27932137D-03 -0.13940094D-03  0.94169693D-08  0.72203347D-08  0.36034531D-08
  0.24055215D-02 -0.46117148D-03  0.10010937D-02 -0.16154332D-07 -0.35849284D-03
 -0.33821678D-03 -0.36614536D-03 -0.24592272D-03  0.65001445D-08  0.32090770D-08
  0.30666600D-04  0.56573889D-04  0.91327798D-04  0.11888166D-03  0.10144193D-03
  0.35025462D-04 -0.79057012D-04 -0.36437305D-04  0.10217401D-03 -0.16947705D-03
 -0.12994425D-03 -0.64851289D-04 -0.39583381D-04 -0.30350026D-04 -0.15146790D-04
  0.40677891D-08  0.31189227D-08  0.15565610D-08 -0.13073456D-02 -0.32745709D-03
 -0.47614189D-03  0.18362514D-07  0.34979548D-04  0.35092462D-04  0.45912472D-04
  0.57591328D-04 -0.13777187D-08 -0.10191536D-08 -0.17543486D-04 -0.29757073D-04
 -0.33877375D-04 -0.73739783D-04  0.40154062D-04  0.68108889D-04  0.77539563D-04
  0.29705879D-03  0.11268644D-03  0.20740320D-03  0.33561753D-03  0.44117863D-03
  0.37839635D-03  0.12938014D-03 -0.65259286D-03 -0.29118566D-03  0.85987516D-03
 -0.17743674D-03 -0.13670544D-03 -0.60021051D-04  0.57026344D-04  0.43935724D-04
  0.19290149D-04  0.53015419D-08  0.40845522D-08  0.17933384D-08 -0.15486920D-02
  0.85494457D-03  0.95268983D-04 -0.22378259D-07 -0.51038496D-03  0.70166846D-03
  0.90864890D-03 -0.39152279D-03  0.73299697D-07  0.23735566D-07  0.10157337D-03
  0.18738303D-03  0.30249432D-03  0.39375772D-03  0.33599418D-03  0.11601072D-03
  0.44064382D-04  0.20309233D-04 -0.56949211D-04 -0.94231844D-05 -0.72251001D-05
 -0.36058313D-05  0.94007638D-05  0.72079094D-05  0.35972520D-05 -0.12650845D-08
 -0.96998659D-09 -0.48409129D-09 -0.18287647D-04 -0.79731908D-04 -0.65491603D-04
  0.50762970D-08  0.14856731D-03 -0.99012470D-04  0.48223064D-04 -0.16025623D-03
 -0.98130950D-09  0.12961051D-07  0.18890338D-04  0.32041589D-04  0.36478217D-04
  0.37635572D-04 -0.16807503D-04 -0.28508706D-04 -0.32456154D-04 -0.20047244D-04
 -0.16806177D-04 -0.28506457D-04 -0.32453594D-04 -0.20046737D-04 -0.56161806D-04
 -0.10336770D-03 -0.16726846D-03 -0.21987907D-03 -0.18858900D-03 -0.64481782D-04
  0.16333979D-03  0.72881894D-04 -0.21522121D-03  0.11567510D-03  0.89121430D-04
  0.39129108D-04  0.72348836D-04  0.55740878D-04  0.24473248D-04 -0.39921205D-08
 -0.30757136D-08 -0.13504040D-08  0.52215799D-03 -0.92357125D-04 -0.43021726D-04
  0.29770665D-08 -0.19923670D-03 -0.22095607D-03 -0.13146356D-03 -0.11880548D-03
  0.55456293D-08  0.73454180D-08  0.48102941D-05  0.81591693D-05  0.92889259D-05
  0.28310018D-04 -0.18568663D-04 -0.31495967D-04 -0.35857046D-04 -0.11974432D-03
 -0.58724220D-05 -0.10833472D-04 -0.17488583D-04 -0.22764938D-04 -0.19425363D-04
 -0.67071111D-05  0.26442485D-04  0.12187317D-04 -0.34174510D-04  0.77215938D-04