 Entering Link 1 = D:\Gaussian\G16W\l1.exe PID=     36808.
  
 Copyright (c) 1988,1990,1992,1993,1995,1998,2003,2009,2016,
            Gaussian, Inc.  All Rights Reserved.
  
 This is part of the Gaussian(R) 16 program.  It is based on
 the Gaussian(R) 09 system (copyright 2009, Gaussian, Inc.),
 the Gaussian(R) 03 system (copyright 2003, Gaussian, Inc.),
 the Gaussian(R) 98 system (copyright 1998, Gaussian, Inc.),
 the Gaussian(R) 94 system (copyright 1995, Gaussian, Inc.),
 the Gaussian 92(TM) system (copyright 1992, Gaussian, Inc.),
 the Gaussian 90(TM) system (copyright 1990, Gaussian, Inc.),
 the Gaussian 88(TM) system (copyright 1988, Gaussian, Inc.),
 the Gaussian 86(TM) system (copyright 1986, Carnegie Mellon
 University), and the Gaussian 82(TM) system (copyright 1983,
 Carnegie Mellon University). Gaussian is a federally registered
 trademark of Gaussian, Inc.
  
 This software contains proprietary and confidential information,
 including trade secrets, belonging to Gaussian, Inc.
  
 This software is provided under written license and may be
 used, copied, transmitted, or stored only in accord with that
 written license.
  
 The following legend is applicable only to US Government
 contracts under FAR:
  
                    RESTRICTED RIGHTS LEGEND
  
 Use, reproduction and disclosure by the US Government is
 subject to restrictions as set forth in subparagraphs (a)
 and (c) of the Commercial Computer Software - Restricted
 Rights clause in FAR 52.227-19.
  
 Gaussian, Inc.
 340 Quinnipiac St., Bldg. 40, Wallingford CT 06492
  
  
 ---------------------------------------------------------------
 Warning -- This program may not be used in any manner that
 competes with the business of Gaussian, Inc. or will provide
 assistance to any competitor of Gaussian, Inc.  The licensee
 of this program is prohibited from giving any competitor of
 Gaussian, Inc. access to this program.  By using this program,
 the user acknowledges that Gaussian, Inc. is engaged in the
 business of creating and licensing software in the field of
 computational chemistry and represents and warrants to the
 licensee that it is not a competitor of Gaussian, Inc. and that
 it will not use this program in any manner prohibited above.
 ---------------------------------------------------------------
  

 Cite this work as:
 Gaussian 16, Revision A.03,
 M. J. Frisch, G. W. Trucks, H. B. Schlegel, G. E. Scuseria, 
 M. A. Robb, J. R. Cheeseman, G. Scalmani, V. Barone, 
 G. A. Petersson, H. Nakatsuji, X. Li, M. Caricato, A. V. Marenich, 
 J. Bloino, B. G. Janesko, R. Gomperts, B. Mennucci, H. P. Hratchian, 
 J. V. Ortiz, A. F. Izmaylov, J. L. Sonnenberg, D. Williams-Young, 
 F. Ding, F. Lipparini, F. Egidi, J. Goings, B. Peng, A. Petrone, 
 T. Henderson, D. Ranasinghe, V. G. Zakrzewski, J. Gao, N. Rega, 
 G. Zheng, W. Liang, M. Hada, M. Ehara, K. Toyota, R. Fukuda, 
 J. Hasegawa, M. Ishida, T. Nakajima, Y. Honda, O. Kitao, H. Nakai, 
 T. Vreven, K. Throssell, J. A. Montgomery, Jr., J. E. Peralta, 
 F. Ogliaro, M. J. Bearpark, J. J. Heyd, E. N. Brothers, K. N. Kudin, 
 V. N. Staroverov, T. A. Keith, R. Kobayashi, J. Normand, 
 K. Raghavachari, A. P. Rendell, J. C. Burant, S. S. Iyengar, 
 J. Tomasi, M. Cossi, J. M. Millam, M. Klene, C. Adamo, R. Cammi, 
 J. W. Ochterski, R. L. Martin, K. Morokuma, O. Farkas, 
 J. B. Foresman, and D. J. Fox, Gaussian, Inc., Wallingford CT, 2016.
 
 ******************************************
 Gaussian 16:  EM64W-G16RevA.03 17-Dec-2016
                01-Dec-2025 
 ******************************************
 %nprocshared=14
 Will use up to   14 processors via shared memory.
 %mem=80GB
 %chk=1.chk
 ---------------------------------------------------------
 # ub3lyp/6-311g(d,p) geom=connectivity temperature=823.15
 ---------------------------------------------------------
 1/38=1,57=2,112=823150,172=1/1;
 2/12=2,17=6,18=5,40=1/2;
 3/5=4,6=6,7=101,11=2,25=1,30=1,74=-5,116=2/1,2,3;
 4//1;
 5/5=2,38=5/2;
 6/7=2,8=2,9=2,10=2,28=1/1;
 99/5=1,9=1/99;
 -------------------
 Title Card Required
 -------------------
 Symbolic Z-matrix:
 Charge =  0 Multiplicity = 1
 C                    -1.93337  -0.24667   0.00004 
 C                    -1.28266   0.9959   -0.00001 
 C                     0.10037   1.07763  -0.00003 
 C                     0.87105  -0.10157  -0.00002 
 C                     0.24096  -1.33659   0.00003 
 C                    -1.15783  -1.40248   0.00005 
 H                    -1.84748   1.9218   -0.00002 
 H                     0.81966  -2.25114   0.00004 
 O                     2.2288    0.12376  -0.00005 
 C                     3.09692  -1.00009  -0.00002 
 H                     4.10984  -0.60052  -0.00004 
 H                     2.94916  -1.61568   0.89403 
 H                     2.94915  -1.61575  -0.89402 
 O                     0.71496   2.29262  -0.00008 
 H                     1.66726   2.12776  -0.00009 
 H                    -1.63857  -2.37454   0.00009 
 C                    -3.44227  -0.31089   0.00008 
 H                    -3.86205   0.18502   0.88119 
 H                    -3.8621    0.18514  -0.88092 
 H                    -3.79402  -1.34463   0.00002 
 
                          Input orientation:                          
 ---------------------------------------------------------------------
 Center     Atomic      Atomic             Coordinates (Angstroms)
 Number     Number       Type             X           Y           Z
 ---------------------------------------------------------------------
      1          6           0       -1.933369   -0.246665    0.000041
      2          6           0       -1.282658    0.995897   -0.000005
      3          6           0        0.100369    1.077632   -0.000034
      4          6           0        0.871051   -0.101568   -0.000019
      5          6           0        0.240960   -1.336588    0.000025
      6          6           0       -1.157829   -1.402479    0.000054
      7          1           0       -1.847477    1.921798   -0.000018
      8          1           0        0.819664   -2.251143    0.000035
      9          8           0        2.228799    0.123761   -0.000054
     10          6           0        3.096923   -1.000086   -0.000017
     11          1           0        4.109840   -0.600521   -0.000037
     12          1           0        2.949156   -1.615682    0.894029
     13          1           0        2.949146   -1.615749   -0.894015
     14          8           0        0.714962    2.292615   -0.000079
     15          1           0        1.667262    2.127760   -0.000091
     16          1           0       -1.638566   -2.374537    0.000088
     17          6           0       -3.442273   -0.310888    0.000084
     18          1           0       -3.862046    0.185016    0.881185
     19          1           0       -3.862102    0.185144   -0.880917
     20          1           0       -3.794020   -1.344630    0.000021
 ---------------------------------------------------------------------
                    Distance matrix (angstroms):
                    1          2          3          4          5
     1  C    0.000000
     2  C    1.402635   0.000000
     3  C    2.426902   1.385440   0.000000
     4  C    2.808171   2.417207   1.408710   0.000000
     5  C    2.432209   2.786018   2.418310   1.386466   0.000000
     6  C    1.391894   2.401622   2.781009   2.410129   1.400340
     7  H    2.170163   1.084580   2.122904   3.388865   3.870226
     8  H    3.405455   3.868207   3.405602   2.150189   1.082270
     9  O    4.178619   3.618142   2.332399   1.376319   2.466602
    10  C    5.086402   4.812970   3.646402   2.400383   2.875719
    11  H    6.053560   5.623841   4.346499   3.276997   3.938277
    12  H    5.149026   5.052513   4.021054   2.722202   2.865565
    13  H    5.149046   5.052535   4.021074   2.722214   2.865573
    14  O    3.669005   2.381588   1.361583   2.399266   3.660026
    15  H    4.313054   3.159611   1.886246   2.367246   3.746471
    16  H    2.148196   3.389173   3.865406   3.385936   2.147081
    17  C    1.510270   2.524208   3.805036   4.318400   3.823384
    18  H    2.163922   2.843812   4.156205   4.822951   4.463897
    19  H    2.163922   2.843740   4.156160   4.822958   4.463949
    20  H    2.160451   3.432930   4.586242   4.827845   4.034988
                    6          7          8          9         10
     6  C    0.000000
     7  H    3.395060   0.000000
     8  H    2.151908   4.952482   0.000000
     9  O    3.714654   4.455218   2.761491   0.000000
    10  C    4.273738   5.743213   2.598279   1.420096   0.000000
    11  H    5.328365   6.469290   3.681007   2.015664   1.088877
    12  H    4.208559   6.026672   2.395365   2.084217   1.095496
    13  H    4.208573   6.026696   2.395359   2.084217   1.095496
    14  O    4.142592   2.589131   4.544964   2.644925   4.063941
    15  H    4.521474   3.520768   4.460181   2.081186   3.439092
    16  H    1.084438   4.301411   2.461325   4.604129   4.930920
    17  C    2.531848   2.743768   4.682809   5.687704   6.575415
    18  H    3.257195   2.802038   5.350673   6.154570   7.113946
    19  H    3.257261   2.801904   5.350748   6.154572   7.113985
    20  H    2.636826   3.802444   4.701898   6.199236   6.899551
                   11         12         13         14         15
    11  H    0.000000
    12  H    1.782440   0.000000
    13  H    1.782441   1.788044   0.000000
    14  O    4.460430   4.589754   4.589772   0.000000
    15  H    3.661926   4.056607   4.056623   0.966464   0.000000
    16  H    6.015921   4.735207   4.735217   5.226988   5.585622
    17  C    7.557665   6.584223   6.584247   4.905184   5.661656
    18  H    8.058820   7.045222   7.265427   5.115428   5.926563
    19  H    8.058851   7.265442   7.045317   5.115352   5.926506
    20  H    7.938810   6.807580   6.807576   5.793140   6.471715
                   16         17         18         19         20
    16  H    0.000000
    17  C    2.740804   0.000000
    18  H    3.503071   1.094746   0.000000
    19  H    3.503177   1.094745   1.762102   0.000000
    20  H    2.388868   1.091947   1.766605   1.766606   0.000000
 Stoichiometry    C8H10O2
 Framework group  C1[X(C8H10O2)]
 Deg. of freedom    54
 Full point group                 C1      NOp   1
 Largest Abelian subgroup         C1      NOp   1
 Largest concise Abelian subgroup C1      NOp   1
                         Standard orientation:                         
 ---------------------------------------------------------------------
 Center     Atomic      Atomic             Coordinates (Angstroms)
 Number     Number       Type             X           Y           Z
 ---------------------------------------------------------------------
      1          6           0       -1.933369   -0.246665    0.000041
      2          6           0       -1.282658    0.995897   -0.000005
      3          6           0        0.100369    1.077632   -0.000034
      4          6           0        0.871051   -0.101568   -0.000019
      5          6           0        0.240960   -1.336588    0.000025
      6          6           0       -1.157829   -1.402479    0.000054
      7          1           0       -1.847477    1.921798   -0.000018
      8          1           0        0.819664   -2.251143    0.000035
      9          8           0        2.228799    0.123761   -0.000054
     10          6           0        3.096923   -1.000086   -0.000017
     11          1           0        4.109840   -0.600521   -0.000037
     12          1           0        2.949156   -1.615682    0.894029
     13          1           0        2.949146   -1.615749   -0.894015
     14          8           0        0.714962    2.292615   -0.000079
     15          1           0        1.667262    2.127760   -0.000091
     16          1           0       -1.638566   -2.374537    0.000088
     17          6           0       -3.442273   -0.310888    0.000084
     18          1           0       -3.862046    0.185016    0.881185
     19          1           0       -3.862102    0.185144   -0.880917
     20          1           0       -3.794020   -1.344630    0.000021
 ---------------------------------------------------------------------
 Rotational constants (GHZ):           2.5439796           0.9580347           0.7020890
 Standard basis: 6-311G(d,p) (5D, 7F)
 There are   250 symmetry adapted cartesian basis functions of A   symmetry.
 There are   240 symmetry adapted basis functions of A   symmetry.
   240 basis functions,   400 primitive gaussians,   250 cartesian basis functions
    37 alpha electrons       37 beta electrons
       nuclear repulsion energy       516.1832683598 Hartrees.
 NAtoms=   20 NActive=   20 NUniq=   20 SFac= 1.00D+00 NAtFMM=   60 NAOKFM=F Big=F
 Integral buffers will be    131072 words long.
 Raffenetti 2 integral format.
 Two-electron integral symmetry is turned on.
 One-electron integrals computed using PRISM.
 NBasis=   240 RedAO= T EigKep=  1.87D-04  NBF=   240
 NBsUse=   240 1.00D-06 EigRej= -1.00D+00 NBFU=   240
 ExpMin= 1.03D-01 ExpMax= 8.59D+03 ExpMxC= 1.30D+03 IAcc=3 IRadAn=         5 AccDes= 0.00D+00
 Harris functional with IExCor=  402 and IRadAn=       5 diagonalized for initial guess.
 HarFok:  IExCor=  402 AccDes= 0.00D+00 IRadAn=         5 IDoV= 1 UseB2=F ITyADJ=14
 ICtDFT=  3500011 ScaDFX=  1.000000  1.000000  1.000000  1.000000
 FoFCou: FMM=F IPFlag=           0 FMFlag=      100000 FMFlg1=           0
         NFxFlg=           0 DoJE=T BraDBF=F KetDBF=T FulRan=T
         wScrn=  0.000000 ICntrl=       500 IOpCl=  0 I1Cent=   200000004 NGrid=           0
         NMat0=    1 NMatS0=      1 NMatT0=    0 NMatD0=    1 NMtDS0=    0 NMtDT0=    0
 Petite list used in FoFCou.
 Initial guess <Sx>= 0.0000 <Sy>= 0.0000 <Sz>= 0.0000 <S**2>= 0.0000 S= 0.0000
 Requested convergence on RMS density matrix=1.00D-08 within 128 cycles.
 Requested convergence on MAX density matrix=1.00D-06.
 Requested convergence on             energy=1.00D-06.
 No special actions if energy rises.
 Integral accuracy reduced to 1.0D-05 until final iterations.
 Initial convergence to 1.0D-05 achieved.  Increase integral accuracy.
 SCF Done:  E(UB3LYP) =  -461.434157993     A.U. after   13 cycles
            NFock= 13  Conv=0.82D-08     -V/T= 2.0039
 <Sx>= 0.0000 <Sy>= 0.0000 <Sz>= 0.0000 <S**2>= 0.0000 S= 0.0000
 <L.S>= 0.000000000000E+00
 Annihilation of the first spin contaminant:
 S**2 before annihilation     0.0000,   after     0.0000

 **********************************************************************

            Population analysis using the SCF density.

 **********************************************************************

 Orbital symmetries:
 Alpha Orbitals:
       Occupied  (A) (A) (A) (A) (A) (A) (A) (A) (A) (A) (A) (A)
                 (A) (A) (A) (A) (A) (A) (A) (A) (A) (A) (A) (A)
                 (A) (A) (A) (A) (A) (A) (A) (A) (A) (A) (A) (A)
                 (A)
       Virtual   (A) (A) (A) (A) (A) (A) (A) (A) (A) (A) (A) (A)
                 (A) (A) (A) (A) (A) (A) (A) (A) (A) (A) (A) (A)
                 (A) (A) (A) (A) (A) (A) (A) (A) (A) (A) (A) (A)
                 (A) (A) (A) (A) (A) (A) (A) (A) (A) (A) (A) (A)
                 (A) (A) (A) (A) (A) (A) (A) (A) (A) (A) (A) (A)
                 (A) (A) (A) (A) (A) (A) (A) (A) (A) (A) (A) (A)
                 (A) (A) (A) (A) (A) (A) (A) (A) (A) (A) (A) (A)
                 (A) (A) (A) (A) (A) (A) (A) (A) (A) (A) (A) (A)
                 (A) (A) (A) (A) (A) (A) (A) (A) (A) (A) (A) (A)
                 (A) (A) (A) (A) (A) (A) (A) (A) (A) (A) (A) (A)
                 (A) (A) (A) (A) (A) (A) (A) (A) (A) (A) (A) (A)
                 (A) (A) (A) (A) (A) (A) (A) (A) (A) (A) (A) (A)
                 (A) (A) (A) (A) (A) (A) (A) (A) (A) (A) (A) (A)
                 (A) (A) (A) (A) (A) (A) (A) (A) (A) (A) (A) (A)
                 (A) (A) (A) (A) (A) (A) (A) (A) (A) (A) (A) (A)
                 (A) (A) (A) (A) (A) (A) (A) (A) (A) (A) (A) (A)
                 (A) (A) (A) (A) (A) (A) (A) (A) (A) (A) (A)
 Beta  Orbitals:
       Occupied  (A) (A) (A) (A) (A) (A) (A) (A) (A) (A) (A) (A)
                 (A) (A) (A) (A) (A) (A) (A) (A) (A) (A) (A) (A)
                 (A) (A) (A) (A) (A) (A) (A) (A) (A) (A) (A) (A)
                 (A)
       Virtual   (A) (A) (A) (A) (A) (A) (A) (A) (A) (A) (A) (A)
                 (A) (A) (A) (A) (A) (A) (A) (A) (A) (A) (A) (A)
                 (A) (A) (A) (A) (A) (A) (A) (A) (A) (A) (A) (A)
                 (A) (A) (A) (A) (A) (A) (A) (A) (A) (A) (A) (A)
                 (A) (A) (A) (A) (A) (A) (A) (A) (A) (A) (A) (A)
                 (A) (A) (A) (A) (A) (A) (A) (A) (A) (A) (A) (A)
                 (A) (A) (A) (A) (A) (A) (A) (A) (A) (A) (A) (A)
                 (A) (A) (A) (A) (A) (A) (A) (A) (A) (A) (A) (A)
                 (A) (A) (A) (A) (A) (A) (A) (A) (A) (A) (A) (A)
                 (A) (A) (A) (A) (A) (A) (A) (A) (A) (A) (A) (A)
                 (A) (A) (A) (A) (A) (A) (A) (A) (A) (A) (A) (A)
                 (A) (A) (A) (A) (A) (A) (A) (A) (A) (A) (A) (A)
                 (A) (A) (A) (A) (A) (A) (A) (A) (A) (A) (A) (A)
                 (A) (A) (A) (A) (A) (A) (A) (A) (A) (A) (A) (A)
                 (A) (A) (A) (A) (A) (A) (A) (A) (A) (A) (A) (A)
                 (A) (A) (A) (A) (A) (A) (A) (A) (A) (A) (A) (A)
                 (A) (A) (A) (A) (A) (A) (A) (A) (A) (A) (A)
 The electronic state is 1-A.
 Alpha  occ. eigenvalues --  -19.16017 -19.13800 -10.23396 -10.22860 -10.22716
 Alpha  occ. eigenvalues --  -10.17460 -10.17221 -10.16278 -10.16251 -10.16120
 Alpha  occ. eigenvalues --   -1.08179  -1.04910  -0.85265  -0.77408  -0.74332
 Alpha  occ. eigenvalues --   -0.72534  -0.66760  -0.60990  -0.59993  -0.54647
 Alpha  occ. eigenvalues --   -0.52164  -0.48638  -0.48051  -0.45053  -0.44725
 Alpha  occ. eigenvalues --   -0.43402  -0.42128  -0.40310  -0.39922  -0.37605
 Alpha  occ. eigenvalues --   -0.37100  -0.34781  -0.34678  -0.33987  -0.31516
 Alpha  occ. eigenvalues --   -0.23745  -0.20812
 Alpha virt. eigenvalues --   -0.00060   0.01414   0.04139   0.04851   0.05951
 Alpha virt. eigenvalues --    0.08101   0.09685   0.10113   0.10772   0.11930
 Alpha virt. eigenvalues --    0.12346   0.12537   0.15259   0.18048   0.19381
 Alpha virt. eigenvalues --    0.22021   0.25156   0.26146   0.29123   0.29996
 Alpha virt. eigenvalues --    0.31251   0.31405   0.33102   0.35725   0.36606
 Alpha virt. eigenvalues --    0.39220   0.39536   0.40161   0.40517   0.42707
 Alpha virt. eigenvalues --    0.43067   0.45716   0.45784   0.47562   0.49163
 Alpha virt. eigenvalues --    0.49629   0.50325   0.52093   0.52406   0.52751
 Alpha virt. eigenvalues --    0.54986   0.56531   0.57754   0.58075   0.60130
 Alpha virt. eigenvalues --    0.60625   0.61514   0.62174   0.63743   0.65165
 Alpha virt. eigenvalues --    0.65285   0.67265   0.69147   0.74249   0.77342
 Alpha virt. eigenvalues --    0.79252   0.80329   0.80758   0.82836   0.85112
 Alpha virt. eigenvalues --    0.86643   0.89476   0.91379   0.92916   0.93737
 Alpha virt. eigenvalues --    0.96191   0.98678   1.00005   1.01890   1.03146
 Alpha virt. eigenvalues --    1.04765   1.05638   1.10169   1.13108   1.18066
 Alpha virt. eigenvalues --    1.20950   1.22127   1.25025   1.31249   1.35191
 Alpha virt. eigenvalues --    1.35487   1.36303   1.40777   1.42282   1.42301
 Alpha virt. eigenvalues --    1.45339   1.46045   1.47493   1.48371   1.50353
 Alpha virt. eigenvalues --    1.51976   1.55023   1.55567   1.55842   1.56376
 Alpha virt. eigenvalues --    1.58137   1.58657   1.59391   1.63531   1.65145
 Alpha virt. eigenvalues --    1.67468   1.67617   1.69545   1.69787   1.71965
 Alpha virt. eigenvalues --    1.76900   1.77849   1.79234   1.86267   1.86856
 Alpha virt. eigenvalues --    1.87349   1.89796   1.91882   1.93866   1.95324
 Alpha virt. eigenvalues --    1.96621   1.98377   2.01556   2.04227   2.06225
 Alpha virt. eigenvalues --    2.06726   2.10246   2.11700   2.12991   2.14019
 Alpha virt. eigenvalues --    2.23576   2.24809   2.28931   2.29485   2.32447
 Alpha virt. eigenvalues --    2.36078   2.36324   2.39119   2.39624   2.43328
 Alpha virt. eigenvalues --    2.43990   2.45230   2.49275   2.51855   2.52993
 Alpha virt. eigenvalues --    2.53766   2.55171   2.57512   2.59450   2.60663
 Alpha virt. eigenvalues --    2.63795   2.65672   2.66889   2.69461   2.71907
 Alpha virt. eigenvalues --    2.72655   2.82383   2.85496   2.85764   2.86798
 Alpha virt. eigenvalues --    2.87351   2.92250   2.94791   3.00702   3.02382
 Alpha virt. eigenvalues --    3.04419   3.06355   3.10090   3.14910   3.16883
 Alpha virt. eigenvalues --    3.19670   3.23817   3.31107   3.35030   3.39169
 Alpha virt. eigenvalues --    3.42730   3.51726   3.58602   3.61968   3.63422
 Alpha virt. eigenvalues --    3.74538   3.78888   3.78997   3.82079   3.85945
 Alpha virt. eigenvalues --    3.99739   4.08165   4.08466   4.13024   4.18457
 Alpha virt. eigenvalues --    4.32636   4.80034   4.85210   4.90891   5.31521
 Alpha virt. eigenvalues --    5.35109   5.68138   5.77671  23.46392  23.85248
 Alpha virt. eigenvalues --   23.87828  23.89925  23.93747  24.05941  24.10198
 Alpha virt. eigenvalues --   24.17509  49.88825  49.94084
  Beta  occ. eigenvalues --  -19.16017 -19.13800 -10.23396 -10.22860 -10.22716
  Beta  occ. eigenvalues --  -10.17460 -10.17221 -10.16278 -10.16251 -10.16120
  Beta  occ. eigenvalues --   -1.08179  -1.04910  -0.85265  -0.77408  -0.74332
  Beta  occ. eigenvalues --   -0.72534  -0.66760  -0.60990  -0.59993  -0.54647
  Beta  occ. eigenvalues --   -0.52164  -0.48638  -0.48051  -0.45053  -0.44725
  Beta  occ. eigenvalues --   -0.43402  -0.42128  -0.40310  -0.39922  -0.37605
  Beta  occ. eigenvalues --   -0.37100  -0.34781  -0.34678  -0.33987  -0.31516
  Beta  occ. eigenvalues --   -0.23745  -0.20812
  Beta virt. eigenvalues --   -0.00060   0.01414   0.04139   0.04851   0.05951
  Beta virt. eigenvalues --    0.08101   0.09685   0.10113   0.10772   0.11930
  Beta virt. eigenvalues --    0.12346   0.12537   0.15259   0.18048   0.19381
  Beta virt. eigenvalues --    0.22021   0.25156   0.26146   0.29123   0.29996
  Beta virt. eigenvalues --    0.31251   0.31405   0.33102   0.35725   0.36606
  Beta virt. eigenvalues --    0.39220   0.39536   0.40161   0.40517   0.42707
  Beta virt. eigenvalues --    0.43067   0.45716   0.45784   0.47562   0.49163
  Beta virt. eigenvalues --    0.49629   0.50325   0.52093   0.52406   0.52751
  Beta virt. eigenvalues --    0.54986   0.56531   0.57754   0.58075   0.60130
  Beta virt. eigenvalues --    0.60625   0.61514   0.62174   0.63743   0.65165
  Beta virt. eigenvalues --    0.65285   0.67265   0.69147   0.74249   0.77342
  Beta virt. eigenvalues --    0.79252   0.80329   0.80758   0.82836   0.85112
  Beta virt. eigenvalues --    0.86643   0.89476   0.91379   0.92916   0.93737
  Beta virt. eigenvalues --    0.96191   0.98678   1.00005   1.01890   1.03146
  Beta virt. eigenvalues --    1.04765   1.05638   1.10169   1.13108   1.18066
  Beta virt. eigenvalues --    1.20950   1.22127   1.25025   1.31249   1.35191
  Beta virt. eigenvalues --    1.35487   1.36303   1.40777   1.42282   1.42301
  Beta virt. eigenvalues --    1.45339   1.46045   1.47493   1.48371   1.50353
  Beta virt. eigenvalues --    1.51976   1.55023   1.55567   1.55842   1.56376
  Beta virt. eigenvalues --    1.58137   1.58657   1.59391   1.63531   1.65145
  Beta virt. eigenvalues --    1.67468   1.67617   1.69545   1.69787   1.71965
  Beta virt. eigenvalues --    1.76900   1.77849   1.79234   1.86267   1.86856
  Beta virt. eigenvalues --    1.87349   1.89796   1.91882   1.93866   1.95324
  Beta virt. eigenvalues --    1.96621   1.98377   2.01556   2.04227   2.06225
  Beta virt. eigenvalues --    2.06726   2.10246   2.11700   2.12991   2.14019
  Beta virt. eigenvalues --    2.23576   2.24809   2.28931   2.29485   2.32447
  Beta virt. eigenvalues --    2.36078   2.36324   2.39119   2.39624   2.43328
  Beta virt. eigenvalues --    2.43990   2.45230   2.49275   2.51855   2.52993
  Beta virt. eigenvalues --    2.53766   2.55171   2.57512   2.59450   2.60663
  Beta virt. eigenvalues --    2.63795   2.65672   2.66889   2.69461   2.71907
  Beta virt. eigenvalues --    2.72655   2.82383   2.85496   2.85764   2.86798
  Beta virt. eigenvalues --    2.87351   2.92250   2.94791   3.00702   3.02382
  Beta virt. eigenvalues --    3.04419   3.06355   3.10090   3.14910   3.16883
  Beta virt. eigenvalues --    3.19670   3.23817   3.31107   3.35030   3.39169
  Beta virt. eigenvalues --    3.42730   3.51726   3.58602   3.61968   3.63422
  Beta virt. eigenvalues --    3.74538   3.78888   3.78997   3.82079   3.85945
  Beta virt. eigenvalues --    3.99739   4.08165   4.08466   4.13024   4.18457
  Beta virt. eigenvalues --    4.32636   4.80034   4.85210   4.90891   5.31521
  Beta virt. eigenvalues --    5.35109   5.68138   5.77671  23.46392  23.85248
  Beta virt. eigenvalues --   23.87828  23.89925  23.93747  24.05941  24.10198
  Beta virt. eigenvalues --   24.17509  49.88825  49.94084
          Condensed to atoms (all electrons):
               1          2          3          4          5          6
     1  C    5.017495   0.513400  -0.042194  -0.060058  -0.039966   0.547330
     2  C    0.513400   4.867523   0.548816  -0.046813  -0.053101  -0.051591
     3  C   -0.042194   0.548816   4.838487   0.287323   0.011654  -0.046692
     4  C   -0.060058  -0.046813   0.287323   5.223785   0.325150  -0.005164
     5  C   -0.039966  -0.053101   0.011654   0.325150   5.102059   0.453178
     6  C    0.547330  -0.051591  -0.046692  -0.005164   0.453178   4.848541
     7  H   -0.051073   0.406052  -0.044561   0.017388  -0.002738   0.009079
     8  H    0.007229   0.000351   0.002190  -0.049267   0.411293  -0.024319
     9  O   -0.000203   0.002805  -0.068063   0.347244  -0.076421   0.005645
    10  C    0.000060  -0.000268   0.006689  -0.071987  -0.012029  -0.000340
    11  H   -0.000001   0.000028  -0.000211   0.004680   0.000824   0.000032
    12  H   -0.000014  -0.000072  -0.000292  -0.004716   0.004429  -0.000498
    13  H   -0.000014  -0.000072  -0.000292  -0.004717   0.004429  -0.000498
    14  O    0.003947  -0.059506   0.395144  -0.094077   0.007153  -0.000470
    15  H   -0.000181   0.005217  -0.046840  -0.022039   0.003815  -0.000579
    16  H   -0.043527   0.008181  -0.000357   0.008050  -0.038301   0.411388
    17  C    0.364113  -0.061687   0.006662  -0.000882   0.008761  -0.058524
    18  H   -0.037502  -0.004607   0.000212   0.000028  -0.000316   0.000830
    19  H   -0.037502  -0.004607   0.000213   0.000028  -0.000316   0.000832
    20  H   -0.035015   0.007086  -0.000406   0.000047   0.000476  -0.007597
               7          8          9         10         11         12
     1  C   -0.051073   0.007229  -0.000203   0.000060  -0.000001  -0.000014
     2  C    0.406052   0.000351   0.002805  -0.000268   0.000028  -0.000072
     3  C   -0.044561   0.002190  -0.068063   0.006689  -0.000211  -0.000292
     4  C    0.017388  -0.049267   0.347244  -0.071987   0.004680  -0.004716
     5  C   -0.002738   0.411293  -0.076421  -0.012029   0.000824   0.004429
     6  C    0.009079  -0.024319   0.005645  -0.000340   0.000032  -0.000498
     7  H    0.578286   0.000060  -0.000135   0.000026  -0.000001   0.000000
     8  H    0.000060   0.560651  -0.006101   0.004771  -0.000026   0.000226
     9  O   -0.000135  -0.006101   7.993229   0.277882  -0.022876  -0.034023
    10  C    0.000026   0.004771   0.277882   4.715721   0.402202   0.400246
    11  H   -0.000001  -0.000026  -0.022876   0.402202   0.542617  -0.027141
    12  H    0.000000   0.000226  -0.034023   0.400246  -0.027141   0.597842
    13  H    0.000000   0.000226  -0.034022   0.400247  -0.027141  -0.050838
    14  O    0.004528  -0.000060  -0.005667  -0.000218   0.000023  -0.000048
    15  H   -0.000882   0.000029   0.026774  -0.001944  -0.000486   0.000328
    16  H   -0.000329  -0.008017  -0.000100  -0.000036   0.000000   0.000014
    17  C   -0.007620  -0.000364   0.000000   0.000000   0.000000   0.000000
    18  H    0.001005   0.000019   0.000000   0.000000   0.000000   0.000001
    19  H    0.001005   0.000019   0.000000   0.000000   0.000000   0.000000
    20  H    0.000117  -0.000028   0.000000   0.000000   0.000000   0.000000
              13         14         15         16         17         18
     1  C   -0.000014   0.003947  -0.000181  -0.043527   0.364113  -0.037502
     2  C   -0.000072  -0.059506   0.005217   0.008181  -0.061687  -0.004607
     3  C   -0.000292   0.395144  -0.046840  -0.000357   0.006662   0.000212
     4  C   -0.004717  -0.094077  -0.022039   0.008050  -0.000882   0.000028
     5  C    0.004429   0.007153   0.003815  -0.038301   0.008761  -0.000316
     6  C   -0.000498  -0.000470  -0.000579   0.411388  -0.058524   0.000830
     7  H    0.000000   0.004528  -0.000882  -0.000329  -0.007620   0.001005
     8  H    0.000226  -0.000060   0.000029  -0.008017  -0.000364   0.000019
     9  O   -0.034022  -0.005667   0.026774  -0.000100   0.000000   0.000000
    10  C    0.400247  -0.000218  -0.001944  -0.000036   0.000000   0.000000
    11  H   -0.027141   0.000023  -0.000486   0.000000   0.000000   0.000000
    12  H   -0.050838  -0.000048   0.000328   0.000014   0.000000   0.000001
    13  H    0.597843  -0.000048   0.000328   0.000014   0.000000   0.000000
    14  O   -0.000048   7.778545   0.332962   0.000007  -0.000069  -0.000007
    15  H    0.000328   0.332962   0.449792   0.000001   0.000028   0.000000
    16  H    0.000014   0.000007   0.000001   0.590666  -0.010000   0.000101
    17  C    0.000000  -0.000069   0.000028  -0.010000   4.806909   0.401615
    18  H    0.000000  -0.000007   0.000000   0.000101   0.401615   0.579210
    19  H    0.000001  -0.000007   0.000000   0.000101   0.401618  -0.033006
    20  H    0.000000   0.000002  -0.000001   0.004085   0.406499  -0.027562
              19         20
     1  C   -0.037502  -0.035015
     2  C   -0.004607   0.007086
     3  C    0.000213  -0.000406
     4  C    0.000028   0.000047
     5  C   -0.000316   0.000476
     6  C    0.000832  -0.007597
     7  H    0.001005   0.000117
     8  H    0.000019  -0.000028
     9  O    0.000000   0.000000
    10  C    0.000000   0.000000
    11  H    0.000000   0.000000
    12  H    0.000000   0.000000
    13  H    0.000001   0.000000
    14  O   -0.000007   0.000002
    15  H    0.000000  -0.000001
    16  H    0.000101   0.004085
    17  C    0.401618   0.406499
    18  H   -0.033006  -0.027562
    19  H    0.579209  -0.027562
    20  H   -0.027562   0.577306
          Atomic-Atomic Spin Densities.
               1          2          3          4          5          6
     1  C    0.000000   0.000000   0.000000   0.000000   0.000000   0.000000
     2  C    0.000000   0.000000   0.000000   0.000000   0.000000   0.000000
     3  C    0.000000   0.000000   0.000000   0.000000   0.000000   0.000000
     4  C    0.000000   0.000000   0.000000   0.000000   0.000000   0.000000
     5  C    0.000000   0.000000   0.000000   0.000000   0.000000   0.000000
     6  C    0.000000   0.000000   0.000000   0.000000   0.000000   0.000000
     7  H    0.000000   0.000000   0.000000   0.000000   0.000000   0.000000
     8  H    0.000000   0.000000   0.000000   0.000000   0.000000   0.000000
     9  O    0.000000   0.000000   0.000000   0.000000   0.000000   0.000000
    10  C    0.000000   0.000000   0.000000   0.000000   0.000000   0.000000
    11  H    0.000000   0.000000   0.000000   0.000000   0.000000   0.000000
    12  H    0.000000   0.000000   0.000000   0.000000   0.000000   0.000000
    13  H    0.000000   0.000000   0.000000   0.000000   0.000000   0.000000
    14  O    0.000000   0.000000   0.000000   0.000000   0.000000   0.000000
    15  H    0.000000   0.000000   0.000000   0.000000   0.000000   0.000000
    16  H    0.000000   0.000000   0.000000   0.000000   0.000000   0.000000
    17  C    0.000000   0.000000   0.000000   0.000000   0.000000   0.000000
    18  H    0.000000   0.000000   0.000000   0.000000   0.000000   0.000000
    19  H    0.000000   0.000000   0.000000   0.000000   0.000000   0.000000
    20  H    0.000000   0.000000   0.000000   0.000000   0.000000   0.000000
               7          8          9         10         11         12
     1  C    0.000000   0.000000   0.000000   0.000000   0.000000   0.000000
     2  C    0.000000   0.000000   0.000000   0.000000   0.000000   0.000000
     3  C    0.000000   0.000000   0.000000   0.000000   0.000000   0.000000
     4  C    0.000000   0.000000   0.000000   0.000000   0.000000   0.000000
     5  C    0.000000   0.000000   0.000000   0.000000   0.000000   0.000000
     6  C    0.000000   0.000000   0.000000   0.000000   0.000000   0.000000
     7  H    0.000000   0.000000   0.000000   0.000000   0.000000   0.000000
     8  H    0.000000   0.000000   0.000000   0.000000   0.000000   0.000000
     9  O    0.000000   0.000000   0.000000   0.000000   0.000000   0.000000
    10  C    0.000000   0.000000   0.000000   0.000000   0.000000   0.000000
    11  H    0.000000   0.000000   0.000000   0.000000   0.000000   0.000000
    12  H    0.000000   0.000000   0.000000   0.000000   0.000000   0.000000
    13  H    0.000000   0.000000   0.000000   0.000000   0.000000   0.000000
    14  O    0.000000   0.000000   0.000000   0.000000   0.000000   0.000000
    15  H    0.000000   0.000000   0.000000   0.000000   0.000000   0.000000
    16  H    0.000000   0.000000   0.000000   0.000000   0.000000   0.000000
    17  C    0.000000   0.000000   0.000000   0.000000   0.000000   0.000000
    18  H    0.000000   0.000000   0.000000   0.000000   0.000000   0.000000
    19  H    0.000000   0.000000   0.000000   0.000000   0.000000   0.000000
    20  H    0.000000   0.000000   0.000000   0.000000   0.000000   0.000000
              13         14         15         16         17         18
     1  C    0.000000   0.000000   0.000000   0.000000   0.000000   0.000000
     2  C    0.000000   0.000000   0.000000   0.000000   0.000000   0.000000
     3  C    0.000000   0.000000   0.000000   0.000000   0.000000   0.000000
     4  C    0.000000   0.000000   0.000000   0.000000   0.000000   0.000000
     5  C    0.000000   0.000000   0.000000   0.000000   0.000000   0.000000
     6  C    0.000000   0.000000   0.000000   0.000000   0.000000   0.000000
     7  H    0.000000   0.000000   0.000000   0.000000   0.000000   0.000000
     8  H    0.000000   0.000000   0.000000   0.000000   0.000000   0.000000
     9  O    0.000000   0.000000   0.000000   0.000000   0.000000   0.000000
    10  C    0.000000   0.000000   0.000000   0.000000   0.000000   0.000000
    11  H    0.000000   0.000000   0.000000   0.000000   0.000000   0.000000
    12  H    0.000000   0.000000   0.000000   0.000000   0.000000   0.000000
    13  H    0.000000   0.000000   0.000000   0.000000   0.000000   0.000000
    14  O    0.000000   0.000000   0.000000   0.000000   0.000000   0.000000
    15  H    0.000000   0.000000   0.000000   0.000000   0.000000   0.000000
    16  H    0.000000   0.000000   0.000000   0.000000   0.000000   0.000000
    17  C    0.000000   0.000000   0.000000   0.000000   0.000000   0.000000
    18  H    0.000000   0.000000   0.000000   0.000000   0.000000   0.000000
    19  H    0.000000   0.000000   0.000000   0.000000   0.000000   0.000000
    20  H    0.000000   0.000000   0.000000   0.000000   0.000000   0.000000
              19         20
     1  C    0.000000   0.000000
     2  C    0.000000   0.000000
     3  C    0.000000   0.000000
     4  C    0.000000   0.000000
     5  C    0.000000   0.000000
     6  C    0.000000   0.000000
     7  H    0.000000   0.000000
     8  H    0.000000   0.000000
     9  O    0.000000   0.000000
    10  C    0.000000   0.000000
    11  H    0.000000   0.000000
    12  H    0.000000   0.000000
    13  H    0.000000   0.000000
    14  O    0.000000   0.000000
    15  H    0.000000   0.000000
    16  H    0.000000   0.000000
    17  C    0.000000   0.000000
    18  H    0.000000   0.000000
    19  H    0.000000   0.000000
    20  H    0.000000   0.000000
 Mulliken charges and spin densities:
               1          2
     1  C   -0.106323   0.000000
     2  C   -0.077136   0.000000
     3  C    0.152517   0.000000
     4  C    0.145997   0.000000
     5  C   -0.110034   0.000000
     6  C   -0.080583   0.000000
     7  H    0.089792   0.000000
     8  H    0.101118   0.000000
     9  O   -0.405967   0.000000
    10  C   -0.121020   0.000000
    11  H    0.127476   0.000000
    12  H    0.114556   0.000000
    13  H    0.114556   0.000000
    14  O   -0.362133   0.000000
    15  H    0.253678   0.000000
    16  H    0.078060   0.000000
    17  C   -0.257059   0.000000
    18  H    0.119977   0.000000
    19  H    0.119975   0.000000
    20  H    0.102553   0.000000
 Sum of Mulliken charges =   0.00000   0.00000
 Mulliken charges and spin densities with hydrogens summed into heavy atoms:
               1          2
     1  C   -0.106323   0.000000
     2  C    0.012656   0.000000
     3  C    0.152517   0.000000
     4  C    0.145997   0.000000
     5  C   -0.008916   0.000000
     6  C   -0.002522   0.000000
     9  O   -0.405967   0.000000
    10  C    0.235567   0.000000
    14  O   -0.108456   0.000000
    17  C    0.085446   0.000000
 Electronic spatial extent (au):  <R**2>=           1626.0323
 Charge=              0.0000 electrons
 Dipole moment (field-independent basis, Debye):
    X=              1.6407    Y=             -1.9193    Z=              0.0001  Tot=              2.5250
 Quadrupole moment (field-independent basis, Debye-Ang):
   XX=            -48.0419   YY=            -59.1773   ZZ=            -62.5538
   XY=             -2.3674   XZ=             -0.0002   YZ=              0.0000
 Traceless Quadrupole moment (field-independent basis, Debye-Ang):
   XX=              8.5491   YY=             -2.5863   ZZ=             -5.9628
   XY=             -2.3674   XZ=             -0.0002   YZ=              0.0000
 Octapole moment (field-independent basis, Debye-Ang**2):
  XXX=             37.1615  YYY=             -6.0360  ZZZ=             -0.0005  XYY=             10.0257
  XXY=              0.0656  XXZ=             -0.0001  XZZ=              7.2138  YZZ=              4.4585
  YYZ=              0.0000  XYZ=              0.0000
 Hexadecapole moment (field-independent basis, Debye-Ang**3):
 XXXX=          -1393.3925 YYYY=           -575.4384 ZZZZ=            -79.3931 XXXY=            -10.5679
 XXXZ=              0.0123 YYYX=             11.8082 YYYZ=              0.0069 ZZZX=              0.0131
 ZZZY=              0.0073 XXYY=           -309.8055 XXZZ=           -268.1982 YYZZ=           -112.4168
 XXYZ=              0.0012 YYXZ=              0.0039 ZZXY=             -1.8703
 N-N= 5.161832683598D+02 E-N=-2.109290344462D+03  KE= 4.596633318605D+02
                          Isotropic Fermi Contact Couplings
        Atom                 a.u.       MegaHertz       Gauss      10(-4) cm-1
     1  C(13)              0.00000       0.00000       0.00000       0.00000
     2  C(13)              0.00000       0.00000       0.00000       0.00000
     3  C(13)              0.00000       0.00000       0.00000       0.00000
     4  C(13)              0.00000       0.00000       0.00000       0.00000
     5  C(13)              0.00000       0.00000       0.00000       0.00000
     6  C(13)              0.00000       0.00000       0.00000       0.00000
     7  H(1)               0.00000       0.00000       0.00000       0.00000
     8  H(1)               0.00000       0.00000       0.00000       0.00000
     9  O(17)              0.00000       0.00000       0.00000       0.00000
    10  C(13)              0.00000       0.00000       0.00000       0.00000
    11  H(1)               0.00000       0.00000       0.00000       0.00000
    12  H(1)               0.00000       0.00000       0.00000       0.00000
    13  H(1)               0.00000       0.00000       0.00000       0.00000
    14  O(17)              0.00000       0.00000       0.00000       0.00000
    15  H(1)               0.00000       0.00000       0.00000       0.00000
    16  H(1)               0.00000       0.00000       0.00000       0.00000
    17  C(13)              0.00000       0.00000       0.00000       0.00000
    18  H(1)               0.00000       0.00000       0.00000       0.00000
    19  H(1)               0.00000       0.00000       0.00000       0.00000
    20  H(1)               0.00000       0.00000       0.00000       0.00000
 --------------------------------------------------------
       Center         ----  Spin Dipole Couplings  ----
                      3XX-RR        3YY-RR        3ZZ-RR
 --------------------------------------------------------
     1   Atom        0.000000      0.000000      0.000000
     2   Atom        0.000000      0.000000      0.000000
     3   Atom        0.000000      0.000000      0.000000
     4   Atom        0.000000      0.000000      0.000000
     5   Atom        0.000000      0.000000      0.000000
     6   Atom        0.000000      0.000000      0.000000
     7   Atom        0.000000      0.000000      0.000000
     8   Atom        0.000000      0.000000      0.000000
     9   Atom        0.000000      0.000000      0.000000
    10   Atom        0.000000      0.000000      0.000000
    11   Atom        0.000000      0.000000      0.000000
    12   Atom        0.000000      0.000000      0.000000
    13   Atom        0.000000      0.000000      0.000000
    14   Atom        0.000000      0.000000      0.000000
    15   Atom        0.000000      0.000000      0.000000
    16   Atom        0.000000      0.000000      0.000000
    17   Atom        0.000000      0.000000      0.000000
    18   Atom        0.000000      0.000000      0.000000
    19   Atom        0.000000      0.000000      0.000000
    20   Atom        0.000000      0.000000      0.000000
 --------------------------------------------------------
                        XY            XZ            YZ
 --------------------------------------------------------
     1   Atom        0.000000      0.000000      0.000000
     2   Atom        0.000000      0.000000      0.000000
     3   Atom        0.000000      0.000000      0.000000
     4   Atom        0.000000      0.000000      0.000000
     5   Atom        0.000000      0.000000      0.000000
     6   Atom        0.000000      0.000000      0.000000
     7   Atom        0.000000      0.000000      0.000000
     8   Atom        0.000000      0.000000      0.000000
     9   Atom        0.000000      0.000000      0.000000
    10   Atom        0.000000      0.000000      0.000000
    11   Atom        0.000000      0.000000      0.000000
    12   Atom        0.000000      0.000000      0.000000
    13   Atom        0.000000      0.000000      0.000000
    14   Atom        0.000000      0.000000      0.000000
    15   Atom        0.000000      0.000000      0.000000
    16   Atom        0.000000      0.000000      0.000000
    17   Atom        0.000000      0.000000      0.000000
    18   Atom        0.000000      0.000000      0.000000
    19   Atom        0.000000      0.000000      0.000000
    20   Atom        0.000000      0.000000      0.000000
 --------------------------------------------------------


 ---------------------------------------------------------------------------------
              Anisotropic Spin Dipole Couplings in Principal Axis System
 ---------------------------------------------------------------------------------

       Atom             a.u.   MegaHertz   Gauss  10(-4) cm-1        Axes

              Baa     0.0000     0.000     0.000     0.000  1.0000  0.0000  0.0000
     1 C(13)  Bbb     0.0000     0.000     0.000     0.000  0.0000  1.0000  0.0000
              Bcc     0.0000     0.000     0.000     0.000  0.0000  0.0000  1.0000
 
              Baa     0.0000     0.000     0.000     0.000  1.0000  0.0000  0.0000
     2 C(13)  Bbb     0.0000     0.000     0.000     0.000  0.0000  1.0000  0.0000
              Bcc     0.0000     0.000     0.000     0.000  0.0000  0.0000  1.0000
 
              Baa     0.0000     0.000     0.000     0.000  1.0000  0.0000  0.0000
     3 C(13)  Bbb     0.0000     0.000     0.000     0.000  0.0000  1.0000  0.0000
              Bcc     0.0000     0.000     0.000     0.000  0.0000  0.0000  1.0000
 
              Baa     0.0000     0.000     0.000     0.000  1.0000  0.0000  0.0000
     4 C(13)  Bbb     0.0000     0.000     0.000     0.000  0.0000  1.0000  0.0000
              Bcc     0.0000     0.000     0.000     0.000  0.0000  0.0000  1.0000
 
              Baa     0.0000     0.000     0.000     0.000  1.0000  0.0000  0.0000
     5 C(13)  Bbb     0.0000     0.000     0.000     0.000  0.0000  1.0000  0.0000
              Bcc     0.0000     0.000     0.000     0.000  0.0000  0.0000  1.0000
 
              Baa     0.0000     0.000     0.000     0.000  1.0000  0.0000  0.0000
     6 C(13)  Bbb     0.0000     0.000     0.000     0.000  0.0000  1.0000  0.0000
              Bcc     0.0000     0.000     0.000     0.000  0.0000  0.0000  1.0000
 
              Baa     0.0000     0.000     0.000     0.000  1.0000  0.0000  0.0000
     7 H(1)   Bbb     0.0000     0.000     0.000     0.000  0.0000  1.0000  0.0000
              Bcc     0.0000     0.000     0.000     0.000  0.0000  0.0000  1.0000
 
              Baa     0.0000     0.000     0.000     0.000  1.0000  0.0000  0.0000
     8 H(1)   Bbb     0.0000     0.000     0.000     0.000  0.0000  1.0000  0.0000
              Bcc     0.0000     0.000     0.000     0.000  0.0000  0.0000  1.0000
 
              Baa     0.0000     0.000     0.000     0.000  1.0000  0.0000  0.0000
     9 O(17)  Bbb     0.0000     0.000     0.000     0.000  0.0000  1.0000  0.0000
              Bcc     0.0000     0.000     0.000     0.000  0.0000  0.0000  1.0000
 
              Baa     0.0000     0.000     0.000     0.000  1.0000  0.0000  0.0000
    10 C(13)  Bbb     0.0000     0.000     0.000     0.000  0.0000  1.0000  0.0000
              Bcc     0.0000     0.000     0.000     0.000  0.0000  0.0000  1.0000
 
              Baa     0.0000     0.000     0.000     0.000  1.0000  0.0000  0.0000
    11 H(1)   Bbb     0.0000     0.000     0.000     0.000  0.0000  1.0000  0.0000
              Bcc     0.0000     0.000     0.000     0.000  0.0000  0.0000  1.0000
 
              Baa     0.0000     0.000     0.000     0.000  1.0000  0.0000  0.0000
    12 H(1)   Bbb     0.0000     0.000     0.000     0.000  0.0000  1.0000  0.0000
              Bcc     0.0000     0.000     0.000     0.000  0.0000  0.0000  1.0000
 
              Baa     0.0000     0.000     0.000     0.000  1.0000  0.0000  0.0000
    13 H(1)   Bbb     0.0000     0.000     0.000     0.000  0.0000  1.0000  0.0000
              Bcc     0.0000     0.000     0.000     0.000  0.0000  0.0000  1.0000
 
              Baa     0.0000     0.000     0.000     0.000  1.0000  0.0000  0.0000
    14 O(17)  Bbb     0.0000     0.000     0.000     0.000  0.0000  1.0000  0.0000
              Bcc     0.0000     0.000     0.000     0.000  0.0000  0.0000  1.0000
 
              Baa     0.0000     0.000     0.000     0.000  1.0000  0.0000  0.0000
    15 H(1)   Bbb     0.0000     0.000     0.000     0.000  0.0000  1.0000  0.0000
              Bcc     0.0000     0.000     0.000     0.000  0.0000  0.0000  1.0000
 
              Baa     0.0000     0.000     0.000     0.000  1.0000  0.0000  0.0000
    16 H(1)   Bbb     0.0000     0.000     0.000     0.000  0.0000  1.0000  0.0000
              Bcc     0.0000     0.000     0.000     0.000  0.0000  0.0000  1.0000
 
              Baa     0.0000     0.000     0.000     0.000  1.0000  0.0000  0.0000
    17 C(13)  Bbb     0.0000     0.000     0.000     0.000  0.0000  1.0000  0.0000
              Bcc     0.0000     0.000     0.000     0.000  0.0000  0.0000  1.0000
 
              Baa     0.0000     0.000     0.000     0.000  1.0000  0.0000  0.0000
    18 H(1)   Bbb     0.0000     0.000     0.000     0.000  0.0000  1.0000  0.0000
              Bcc     0.0000     0.000     0.000     0.000  0.0000  0.0000  1.0000
 
              Baa     0.0000     0.000     0.000     0.000  1.0000  0.0000  0.0000
    19 H(1)   Bbb     0.0000     0.000     0.000     0.000  0.0000  1.0000  0.0000
              Bcc     0.0000     0.000     0.000     0.000  0.0000  0.0000  1.0000
 
              Baa     0.0000     0.000     0.000     0.000  1.0000  0.0000  0.0000
    20 H(1)   Bbb     0.0000     0.000     0.000     0.000  0.0000  1.0000  0.0000
              Bcc     0.0000     0.000     0.000     0.000  0.0000  0.0000  1.0000
 

 ---------------------------------------------------------------------------------

 1|1|UNPC-PC-20250526LCFF|SP|UB3LYP|6-311G(d,p)|C8H10O2|ADMINISTRATOR|0
 1-Dec-2025|0||# ub3lyp/6-311g(d,p) geom=connectivity temperature=823.1
 5||Title Card Required||0,1|C,0,-1.933369,-0.246665,0.000041|C,0,-1.28
 2658,0.995897,-0.000005|C,0,0.100369,1.077632,-0.000034|C,0,0.871051,-
 0.101568,-0.000019|C,0,0.24096,-1.336588,0.000025|C,0,-1.157829,-1.402
 479,0.000054|H,0,-1.847477,1.921798,-0.000018|H,0,0.819664,-2.251143,0
 .000035|O,0,2.228799,0.123761,-0.000054|C,0,3.096923,-1.000086,-0.0000
 17|H,0,4.10984,-0.600521,-0.000037|H,0,2.949156,-1.615682,0.894029|H,0
 ,2.949146,-1.615749,-0.894015|O,0,0.714962,2.292615,-0.000079|H,0,1.66
 7262,2.12776,-0.000091|H,0,-1.638566,-2.374537,0.000088|C,0,-3.442273,
 -0.310888,0.000084|H,0,-3.862046,0.185016,0.881185|H,0,-3.862102,0.185
 144,-0.880917|H,0,-3.79402,-1.34463,0.000021||Version=EM64W-G16RevA.03
 |State=1-A|HF=-461.434158|S2=0.|S2-1=0.|S2A=0.|RMSD=8.221e-009|Dipole=
 0.6455063,-0.7551162,0.0000251|Quadrupole=6.3560503,-1.9228295,-4.4332
 208,-1.7601077,-0.0001194,-0.0000286|PG=C01 [X(C8H10O2)]||@


 A SOLDIER'S LIFE IS A LIFE OF HONOR, BUT A DOG WOULD NOT LEAD IT.
 -- PRINCE RUPERT, FOUNDER OF THE HUDSON'S BAY COMPANY
 Job cpu time:       0 days  0 hours  0 minutes 28.0 seconds.
 Elapsed time:       0 days  0 hours  0 minutes 28.3 seconds.
 File lengths (MBytes):  RWF=     59 Int=      0 D2E=      0 Chk=      5 Scr=      1
 Normal termination of Gaussian 16 at Mon Dec 01 21:54:16 2025.
