Title Card Required                                                     
SP        UB3LYP                                                      6-311G(d,p)         
Number of atoms                            I               16
Info1-9                                    I   N=           9
          43          42           0           0           0         110
           1          18        -502
Full Title                                 C   N=           2
Title Card Required     
Route                                      C   N=           5
# ub3lyp/6-311g(d,p) geom=connectivity temperature=823.15   
Charge                                     I                0
Multiplicity                               I                2
Number of electrons                        I               65
Number of alpha electrons                  I               33
Number of beta electrons                   I               32
Number of basis functions                  I              204
Number of independent functions            I              204
Number of point charges in /Mol/           I                0
Number of translation vectors              I                0
Atomic numbers                             I   N=          16
           6           6           6           6           6           6
           1           1           8           6           1           1
           8           1           1           1
Nuclear charges                            R   N=          16
  6.00000000E+00  6.00000000E+00  6.00000000E+00  6.00000000E+00  6.00000000E+00
  6.00000000E+00  1.00000000E+00  1.00000000E+00  8.00000000E+00  6.00000000E+00
  1.00000000E+00  1.00000000E+00  8.00000000E+00  1.00000000E+00  1.00000000E+00
  1.00000000E+00
Current cartesian coordinates              R   N=          48
 -4.35145723E+00 -1.47985587E+00 -6.04712360E-05 -3.60886289E+00  1.06981553E+00
 -5.48020576E-05 -1.06498917E+00  1.71146637E+00 -2.64561657E-05  8.00263109E-01
 -1.93598662E-01 -3.77945225E-06  1.02525201E-01 -2.74038256E+00 -9.44863062E-06
 -2.45522100E+00 -3.24118644E+00 -3.77945225E-05 -6.33473236E+00 -1.98812227E+00
 -8.12582234E-05 -4.99600880E+00  2.57720093E+00 -7.18095927E-05  3.22752561E+00
  7.20361709E-01  1.51178090E-05  5.25695163E+00 -1.04099343E+00  1.39839733E-04
  5.21042846E+00 -2.23345786E+00  1.69074930E+00  5.21058153E+00 -2.23352211E+00
 -1.69042805E+00 -3.65750822E-01  4.19057540E+00 -2.07869874E-05  1.45948273E+00
  4.23627653E+00  3.77945225E-06  6.98259850E+00  7.86485116E-02  1.94641791E-04
  1.49819944E+00 -4.23612535E+00  3.77945225E-06
Number of symbols in /Mol/                 I                0
Force Field                                I                0
Atom Types                                 C   N=          16
                                                            
                                                            
                                                            
            
Int Atom Types                             I   N=          16
           0           0           0           0           0           0
           0           0           0           0           0           0
           0           0           0           0
MM charges                                 R   N=          16
  0.00000000E+00  0.00000000E+00  0.00000000E+00  0.00000000E+00  0.00000000E+00
  0.00000000E+00  0.00000000E+00  0.00000000E+00  0.00000000E+00  0.00000000E+00
  0.00000000E+00  0.00000000E+00  0.00000000E+00  0.00000000E+00  0.00000000E+00
  0.00000000E+00
Integer atomic weights                     I   N=          16
          12          12          12          12          12          12
           1           1          16          12           1           1
          16           1           1           1
Real atomic weights                        R   N=          16
  1.20000000E+01  1.20000000E+01  1.20000000E+01  1.20000000E+01  1.20000000E+01
  1.20000000E+01  1.00782504E+00  1.00782504E+00  1.59949146E+01  1.20000000E+01
  1.00782504E+00  1.00782504E+00  1.59949146E+01  1.00782504E+00  1.00782504E+00
  1.00782504E+00
Atom fragment info                         I   N=          16
           0           0           0           0           0           0
           0           0           0           0           0           0
           0           0           0           0
Atom residue num                           I   N=          16
           0           0           0           0           0           0
           0           0           0           0           0           0
           0           0           0           0
Nuclear spins                              I   N=          16
           0           0           0           0           0           0
           1           1           0           0           1           1
           0           1           1           1
Nuclear ZEff                               R   N=          16
 -3.60000000E+00 -3.60000000E+00 -3.60000000E+00 -3.60000000E+00 -3.60000000E+00
 -3.60000000E+00 -1.00000000E+00 -1.00000000E+00 -5.60000000E+00 -3.60000000E+00
 -1.00000000E+00 -1.00000000E+00 -5.60000000E+00 -1.00000000E+00 -1.00000000E+00
 -1.00000000E+00
Nuclear ZNuc                               R   N=          16
  6.00000000E+00  6.00000000E+00  6.00000000E+00  6.00000000E+00  6.00000000E+00
  6.00000000E+00  1.00000000E+00  1.00000000E+00  8.00000000E+00  6.00000000E+00
  1.00000000E+00  1.00000000E+00  8.00000000E+00  1.00000000E+00  1.00000000E+00
  1.00000000E+00
Nuclear QMom                               R   N=          16
  0.00000000E+00  0.00000000E+00  0.00000000E+00  0.00000000E+00  0.00000000E+00
  0.00000000E+00  0.00000000E+00  0.00000000E+00  0.00000000E+00  0.00000000E+00
  0.00000000E+00  0.00000000E+00  0.00000000E+00  0.00000000E+00  0.00000000E+00
  0.00000000E+00
Nuclear GFac                               R   N=          16
  0.00000000E+00  0.00000000E+00  0.00000000E+00  0.00000000E+00  0.00000000E+00
  0.00000000E+00  2.79284600E+00  2.79284600E+00  0.00000000E+00  0.00000000E+00
  2.79284600E+00  2.79284600E+00  0.00000000E+00  2.79284600E+00  2.79284600E+00
  2.79284600E+00
MicOpt                                     I   N=          16
          -1          -1          -1          -1          -1          -1
          -1          -1          -1          -1          -1          -1
          -1          -1          -1          -1
Number of residues                         I                0
Number of secondary structures             I                0
SymInf integers                            I   N=          26
           1           1           1           1           1           0
           0           0           0           0           0           0
           0           0           0           0           0           0
           0           0           0           0           0           0
           0           0
RotTr to input orientation                 R   N=          12
  1.00000000E+00 -1.74617841E-07  0.00000000E+00  1.74617841E-07  1.00000000E+00
  0.00000000E+00  0.00000000E+00  0.00000000E+00  1.00000000E+00  8.72181289E-08
 -2.32581677E-07  1.16290838E-07
Number of contracted shells                I               73
Number of primitive shells                 I              150
Pure/Cartesian d shells                    I                0
Pure/Cartesian f shells                    I                0
Highest angular momentum                   I                2
Largest degree of contraction              I                6
Shell types                                I   N=          73
           0          -1          -1          -1          -2           0
          -1          -1          -1          -2           0          -1
          -1          -1          -2           0          -1          -1
          -1          -2           0          -1          -1          -1
          -2           0          -1          -1          -1          -2
           0           0           0           1           0           0
           0           1           0          -1          -1          -1
          -2           0          -1          -1          -1          -2
           0           0           0           1           0           0
           0           1           0          -1          -1          -1
          -2           0           0           0           1           0
           0           0           1           0           0           0
           1
Number of primitives per shell             I   N=          73
           6           3           1           1           1           6
           3           1           1           1           6           3
           1           1           1           6           3           1
           1           1           6           3           1           1
           1           6           3           1           1           1
           3           1           1           1           3           1
           1           1           6           3           1           1
           1           6           3           1           1           1
           3           1           1           1           3           1
           1           1           6           3           1           1
           1           3           1           1           1           3
           1           1           1           3           1           1
           1
Shell to atom map                          I   N=          73
           1           1           1           1           1           2
           2           2           2           2           3           3
           3           3           3           4           4           4
           4           4           5           5           5           5
           5           6           6           6           6           6
           7           7           7           7           8           8
           8           8           9           9           9           9
           9          10          10          10          10          10
          11          11          11          11          12          12
          12          12          13          13          13          13
          13          14          14          14          14          15
          15          15          15          16          16          16
          16
Primitive exponents                        R   N=         150
  4.56324000E+03  6.82024000E+02  1.54973000E+02  4.44553000E+01  1.30290000E+01
  1.82773000E+00  2.09642000E+01  4.80331000E+00  1.45933000E+00  4.83456000E-01
  1.45585000E-01  6.26000000E-01  4.56324000E+03  6.82024000E+02  1.54973000E+02
  4.44553000E+01  1.30290000E+01  1.82773000E+00  2.09642000E+01  4.80331000E+00
  1.45933000E+00  4.83456000E-01  1.45585000E-01  6.26000000E-01  4.56324000E+03
  6.82024000E+02  1.54973000E+02  4.44553000E+01  1.30290000E+01  1.82773000E+00
  2.09642000E+01  4.80331000E+00  1.45933000E+00  4.83456000E-01  1.45585000E-01
  6.26000000E-01  4.56324000E+03  6.82024000E+02  1.54973000E+02  4.44553000E+01
  1.30290000E+01  1.82773000E+00  2.09642000E+01  4.80331000E+00  1.45933000E+00
  4.83456000E-01  1.45585000E-01  6.26000000E-01  4.56324000E+03  6.82024000E+02
  1.54973000E+02  4.44553000E+01  1.30290000E+01  1.82773000E+00  2.09642000E+01
  4.80331000E+00  1.45933000E+00  4.83456000E-01  1.45585000E-01  6.26000000E-01
  4.56324000E+03  6.82024000E+02  1.54973000E+02  4.44553000E+01  1.30290000E+01
  1.82773000E+00  2.09642000E+01  4.80331000E+00  1.45933000E+00  4.83456000E-01
  1.45585000E-01  6.26000000E-01  3.38650000E+01  5.09479000E+00  1.15879000E+00
  3.25840000E-01  1.02741000E-01  7.50000000E-01  3.38650000E+01  5.09479000E+00
  1.15879000E+00  3.25840000E-01  1.02741000E-01  7.50000000E-01  8.58850000E+03
  1.29723000E+03  2.99296000E+02  8.73771000E+01  2.56789000E+01  3.74004000E+00
  4.21175000E+01  9.62837000E+00  2.85332000E+00  9.05661000E-01  2.55611000E-01
  1.29200000E+00  4.56324000E+03  6.82024000E+02  1.54973000E+02  4.44553000E+01
  1.30290000E+01  1.82773000E+00  2.09642000E+01  4.80331000E+00  1.45933000E+00
  4.83456000E-01  1.45585000E-01  6.26000000E-01  3.38650000E+01  5.09479000E+00
  1.15879000E+00  3.25840000E-01  1.02741000E-01  7.50000000E-01  3.38650000E+01
  5.09479000E+00  1.15879000E+00  3.25840000E-01  1.02741000E-01  7.50000000E-01
  8.58850000E+03  1.29723000E+03  2.99296000E+02  8.73771000E+01  2.56789000E+01
  3.74004000E+00  4.21175000E+01  9.62837000E+00  2.85332000E+00  9.05661000E-01
  2.55611000E-01  1.29200000E+00  3.38650000E+01  5.09479000E+00  1.15879000E+00
  3.25840000E-01  1.02741000E-01  7.50000000E-01  3.38650000E+01  5.09479000E+00
  1.15879000E+00  3.25840000E-01  1.02741000E-01  7.50000000E-01  3.38650000E+01
  5.09479000E+00  1.15879000E+00  3.25840000E-01  1.02741000E-01  7.50000000E-01
Contraction coefficients                   R   N=         150
  1.96665025E-03  1.52306019E-02  7.61269097E-02  2.60801033E-01  6.16462078E-01
  2.21006028E-01  1.14660081E-01  9.19999648E-01 -3.03068213E-03  1.00000000E+00
  1.00000000E+00  1.00000000E+00  1.96665025E-03  1.52306019E-02  7.61269097E-02
  2.60801033E-01  6.16462078E-01  2.21006028E-01  1.14660081E-01  9.19999648E-01
 -3.03068213E-03  1.00000000E+00  1.00000000E+00  1.00000000E+00  1.96665025E-03
  1.52306019E-02  7.61269097E-02  2.60801033E-01  6.16462078E-01  2.21006028E-01
  1.14660081E-01  9.19999648E-01 -3.03068213E-03  1.00000000E+00  1.00000000E+00
  1.00000000E+00  1.96665025E-03  1.52306019E-02  7.61269097E-02  2.60801033E-01
  6.16462078E-01  2.21006028E-01  1.14660081E-01  9.19999648E-01 -3.03068213E-03
  1.00000000E+00  1.00000000E+00  1.00000000E+00  1.96665025E-03  1.52306019E-02
  7.61269097E-02  2.60801033E-01  6.16462078E-01  2.21006028E-01  1.14660081E-01
  9.19999648E-01 -3.03068213E-03  1.00000000E+00  1.00000000E+00  1.00000000E+00
  1.96665025E-03  1.52306019E-02  7.61269097E-02  2.60801033E-01  6.16462078E-01
  2.21006028E-01  1.14660081E-01  9.19999648E-01 -3.03068213E-03  1.00000000E+00
  1.00000000E+00  1.00000000E+00  2.54938145E-02  1.90373109E-01  8.52161486E-01
  1.00000000E+00  1.00000000E+00  1.00000000E+00  2.54938145E-02  1.90373109E-01
  8.52161486E-01  1.00000000E+00  1.00000000E+00  1.00000000E+00  1.89515008E-03
  1.43859006E-02  7.07320031E-02  2.40001011E-01  5.94797026E-01  2.80802012E-01
  1.13889012E-01  9.20811101E-01 -3.27447036E-03  1.00000000E+00  1.00000000E+00
  1.00000000E+00  1.96665025E-03  1.52306019E-02  7.61269097E-02  2.60801033E-01
  6.16462078E-01  2.21006028E-01  1.14660081E-01  9.19999648E-01 -3.03068213E-03
  1.00000000E+00  1.00000000E+00  1.00000000E+00  2.54938145E-02  1.90373109E-01
  8.52161486E-01  1.00000000E+00  1.00000000E+00  1.00000000E+00  2.54938145E-02
  1.90373109E-01  8.52161486E-01  1.00000000E+00  1.00000000E+00  1.00000000E+00
  1.89515008E-03  1.43859006E-02  7.07320031E-02  2.40001011E-01  5.94797026E-01
  2.80802012E-01  1.13889012E-01  9.20811101E-01 -3.27447036E-03  1.00000000E+00
  1.00000000E+00  1.00000000E+00  2.54938145E-02  1.90373109E-01  8.52161486E-01
  1.00000000E+00  1.00000000E+00  1.00000000E+00  2.54938145E-02  1.90373109E-01
  8.52161486E-01  1.00000000E+00  1.00000000E+00  1.00000000E+00  2.54938145E-02
  1.90373109E-01  8.52161486E-01  1.00000000E+00  1.00000000E+00  1.00000000E+00
P(S=P) Contraction coefficients            R   N=         150
  0.00000000E+00  0.00000000E+00  0.00000000E+00  0.00000000E+00  0.00000000E+00
  0.00000000E+00  4.02486927E-02  2.37593957E-01  8.15853851E-01  1.00000000E+00
  1.00000000E+00  0.00000000E+00  0.00000000E+00  0.00000000E+00  0.00000000E+00
  0.00000000E+00  0.00000000E+00  0.00000000E+00  4.02486927E-02  2.37593957E-01
  8.15853851E-01  1.00000000E+00  1.00000000E+00  0.00000000E+00  0.00000000E+00
  0.00000000E+00  0.00000000E+00  0.00000000E+00  0.00000000E+00  0.00000000E+00
  4.02486927E-02  2.37593957E-01  8.15853851E-01  1.00000000E+00  1.00000000E+00
  0.00000000E+00  0.00000000E+00  0.00000000E+00  0.00000000E+00  0.00000000E+00
  0.00000000E+00  0.00000000E+00  4.02486927E-02  2.37593957E-01  8.15853851E-01
  1.00000000E+00  1.00000000E+00  0.00000000E+00  0.00000000E+00  0.00000000E+00
  0.00000000E+00  0.00000000E+00  0.00000000E+00  0.00000000E+00  4.02486927E-02
  2.37593957E-01  8.15853851E-01  1.00000000E+00  1.00000000E+00  0.00000000E+00
  0.00000000E+00  0.00000000E+00  0.00000000E+00  0.00000000E+00  0.00000000E+00
  0.00000000E+00  4.02486927E-02  2.37593957E-01  8.15853851E-01  1.00000000E+00
  1.00000000E+00  0.00000000E+00  0.00000000E+00  0.00000000E+00  0.00000000E+00
  0.00000000E+00  0.00000000E+00  0.00000000E+00  0.00000000E+00  0.00000000E+00
  0.00000000E+00  0.00000000E+00  0.00000000E+00  0.00000000E+00  0.00000000E+00
  0.00000000E+00  0.00000000E+00  0.00000000E+00  0.00000000E+00  0.00000000E+00
  3.65113974E-02  2.37152983E-01  8.19701941E-01  1.00000000E+00  1.00000000E+00
  0.00000000E+00  0.00000000E+00  0.00000000E+00  0.00000000E+00  0.00000000E+00
  0.00000000E+00  0.00000000E+00  4.02486927E-02  2.37593957E-01  8.15853851E-01
  1.00000000E+00  1.00000000E+00  0.00000000E+00  0.00000000E+00  0.00000000E+00
  0.00000000E+00  0.00000000E+00  0.00000000E+00  0.00000000E+00  0.00000000E+00
  0.00000000E+00  0.00000000E+00  0.00000000E+00  0.00000000E+00  0.00000000E+00
  0.00000000E+00  0.00000000E+00  0.00000000E+00  0.00000000E+00  0.00000000E+00
  0.00000000E+00  3.65113974E-02  2.37152983E-01  8.19701941E-01  1.00000000E+00
  1.00000000E+00  0.00000000E+00  0.00000000E+00  0.00000000E+00  0.00000000E+00
  0.00000000E+00  0.00000000E+00  0.00000000E+00  0.00000000E+00  0.00000000E+00
  0.00000000E+00  0.00000000E+00  0.00000000E+00  0.00000000E+00  0.00000000E+00
  0.00000000E+00  0.00000000E+00  0.00000000E+00  0.00000000E+00  0.00000000E+00
Coordinates of each shell                  R   N=         219
 -4.35145706E+00 -1.47985639E+00 -6.05875268E-05 -4.35145706E+00 -1.47985639E+00
 -6.05875268E-05 -4.35145706E+00 -1.47985639E+00 -6.05875268E-05 -4.35145706E+00
 -1.47985639E+00 -6.05875268E-05 -4.35145706E+00 -1.47985639E+00 -6.05875268E-05
 -3.60886317E+00  1.06981514E+00 -5.49183485E-05 -3.60886317E+00  1.06981514E+00
 -5.49183485E-05 -3.60886317E+00  1.06981514E+00 -5.49183485E-05 -3.60886317E+00
  1.06981514E+00 -5.49183485E-05 -3.60886317E+00  1.06981514E+00 -5.49183485E-05
 -1.06498956E+00  1.71146642E+00 -2.65724566E-05 -1.06498956E+00  1.71146642E+00
 -2.65724566E-05 -1.06498956E+00  1.71146642E+00 -2.65724566E-05 -1.06498956E+00
  1.71146642E+00 -2.65724566E-05 -1.06498956E+00  1.71146642E+00 -2.65724566E-05
  8.00263056E-01 -1.93598290E-01 -3.89574309E-06  8.00263056E-01 -1.93598290E-01
 -3.89574309E-06  8.00263056E-01 -1.93598290E-01 -3.89574309E-06  8.00263056E-01
 -1.93598290E-01 -3.89574309E-06  8.00263056E-01 -1.93598290E-01 -3.89574309E-06
  1.02525592E-01 -2.74038231E+00 -9.56492146E-06  1.02525592E-01 -2.74038231E+00
 -9.56492146E-06  1.02525592E-01 -2.74038231E+00 -9.56492146E-06  1.02525592E-01
 -2.74038231E+00 -9.56492146E-06  1.02525592E-01 -2.74038231E+00 -9.56492146E-06
 -2.45522052E+00 -3.24118664E+00 -3.79108133E-05 -2.45522052E+00 -3.24118664E+00
 -3.79108133E-05 -2.45522052E+00 -3.24118664E+00 -3.79108133E-05 -2.45522052E+00
 -3.24118664E+00 -3.79108133E-05 -2.45522052E+00 -3.24118664E+00 -3.79108133E-05
 -6.33473210E+00 -1.98812315E+00 -8.13745142E-05 -6.33473210E+00 -1.98812315E+00
 -8.13745142E-05 -6.33473210E+00 -1.98812315E+00 -8.13745142E-05 -6.33473210E+00
 -1.98812315E+00 -8.13745142E-05 -4.99600933E+00  2.57720029E+00 -7.19258836E-05
 -4.99600933E+00  2.57720029E+00 -7.19258836E-05 -4.99600933E+00  2.57720029E+00
 -7.19258836E-05 -4.99600933E+00  2.57720029E+00 -7.19258836E-05  3.22752540E+00
  7.20362505E-01  1.50015182E-05  3.22752540E+00  7.20362505E-01  1.50015182E-05
  3.22752540E+00  7.20362505E-01  1.50015182E-05  3.22752540E+00  7.20362505E-01
  1.50015182E-05  3.22752540E+00  7.20362505E-01  1.50015182E-05  5.25695172E+00
 -1.04099228E+00  1.39723442E-04  5.25695172E+00 -1.04099228E+00  1.39723442E-04
  5.25695172E+00 -1.04099228E+00  1.39723442E-04  5.25695172E+00 -1.04099228E+00
  1.39723442E-04  5.25695172E+00 -1.04099228E+00  1.39723442E-04  5.21042876E+00
 -2.23345672E+00  1.69074919E+00  5.21042876E+00 -2.23345672E+00  1.69074919E+00
  5.21042876E+00 -2.23345672E+00  1.69074919E+00  5.21042876E+00 -2.23345672E+00
  1.69074919E+00  5.21058183E+00 -2.23352097E+00 -1.69042816E+00  5.21058183E+00
 -2.23352097E+00 -1.69042816E+00  5.21058183E+00 -2.23352097E+00 -1.69042816E+00
  5.21058183E+00 -2.23352097E+00 -1.69042816E+00 -3.65751641E-01  4.19057556E+00
 -2.09032782E-05 -3.65751641E-01  4.19057556E+00 -2.09032782E-05 -3.65751641E-01
  4.19057556E+00 -2.09032782E-05 -3.65751641E-01  4.19057556E+00 -2.09032782E-05
 -3.65751641E-01  4.19057556E+00 -2.09032782E-05  1.45948190E+00  4.23627702E+00
  3.66316141E-06  1.45948190E+00  4.23627702E+00  3.66316141E-06  1.45948190E+00
  4.23627702E+00  3.66316141E-06  1.45948190E+00  4.23627702E+00  3.66316141E-06
  6.98259840E+00  7.86499634E-02  1.94525500E-04  6.98259840E+00  7.86499634E-02
  1.94525500E-04  6.98259840E+00  7.86499634E-02  1.94525500E-04  6.98259840E+00
  7.86499634E-02  1.94525500E-04  1.49820009E+00 -4.23612486E+00  3.66316141E-06
  1.49820009E+00 -4.23612486E+00  3.66316141E-06  1.49820009E+00 -4.23612486E+00
  3.66316141E-06  1.49820009E+00 -4.23612486E+00  3.66316141E-06
Num ILSW                                   I              100
ILSW                                       I   N=         100
           1           0           0           0           2           0
           0           0           0           0         402          -1
           5           0           0           0           0           0
           0           0           1           0           0           0
           1           0           0           0           0           0
           0           0      100000           0          -1           0
           0           0           0           0           0           0
           0           0           0           1           0           0
           0 -2000000000           1           0           0           0
           0           0           4          52           0           0
           0           0           5           0           0           0
           0           0           0           0           0           1
           0           0           0           0           0           0
           0           0           0           0           0           0
           0           0           0           0           0           0
           0           0           0           0           0           0
           0           0           0           0
Num RLSW                                   I               52
RLSW                                       R   N=          52
  8.00000000E-01  7.20000000E-01  1.00000000E+00  8.10000000E-01  2.00000000E-01
  0.00000000E+00  0.00000000E+00  1.00000000E+00  0.00000000E+00  0.00000000E+00
  0.00000000E+00  0.00000000E+00  1.00000000E+00  0.00000000E+00  0.00000000E+00
  0.00000000E+00  0.00000000E+00  1.00000000E+00  0.00000000E+00  0.00000000E+00
  0.00000000E+00  0.00000000E+00  1.00000000E+00  0.00000000E+00  0.00000000E+00
  0.00000000E+00  0.00000000E+00  1.00000000E+00  0.00000000E+00  0.00000000E+00
  0.00000000E+00  0.00000000E+00  1.00000000E+00  0.00000000E+00  0.00000000E+00
  0.00000000E+00  0.00000000E+00  0.00000000E+00  1.00000000E+00  1.00000000E+00
  0.00000000E+00  1.00000000E+00  0.00000000E+00  0.00000000E+00  0.00000000E+00
  0.00000000E+00  0.00000000E+00  0.00000000E+00  0.00000000E+00  0.00000000E+00
  0.00000000E+00  0.00000000E+00
MxBond                                     I                4
NBond                                      I   N=          16
           3           3           3           3           3           2
           1           1           2           4           1           1
           2           1           1           1
IBond                                      I   N=          64
           2           6           7           0           1           3
           8           0           2           4          13           0
           3           5           9           0           4           6
          16           0           1           5           0           0
           1           0           0           0           2           0
           0           0           4          10           0           0
           9          11          12          15          10           0
           0           0          10           0           0           0
           3          14           0           0          13           0
           0           0          10           0           0           0
           5           0           0           0
RBond                                      R   N=          64
  1.50000000E+00  2.00000000E+00  1.00000000E+00  0.00000000E+00  1.50000000E+00
  1.50000000E+00  1.00000000E+00  0.00000000E+00  1.50000000E+00  1.50000000E+00
  1.00000000E+00  0.00000000E+00  1.50000000E+00  1.50000000E+00  1.00000000E+00
  0.00000000E+00  1.50000000E+00  2.00000000E+00  1.00000000E+00  0.00000000E+00
  2.00000000E+00  2.00000000E+00  0.00000000E+00  0.00000000E+00  1.00000000E+00
  0.00000000E+00  0.00000000E+00  0.00000000E+00  1.00000000E+00  0.00000000E+00
  0.00000000E+00  0.00000000E+00  1.00000000E+00  1.00000000E+00  0.00000000E+00
  0.00000000E+00  1.00000000E+00  1.00000000E+00  1.00000000E+00  1.00000000E+00
  1.00000000E+00  0.00000000E+00  0.00000000E+00  0.00000000E+00  1.00000000E+00
  0.00000000E+00  0.00000000E+00  0.00000000E+00  1.00000000E+00  1.00000000E+00
  0.00000000E+00  0.00000000E+00  1.00000000E+00  0.00000000E+00  0.00000000E+00
  0.00000000E+00  1.00000000E+00  0.00000000E+00  0.00000000E+00  0.00000000E+00
  1.00000000E+00  0.00000000E+00  0.00000000E+00  0.00000000E+00
Virial Ratio                               R      2.003634463625534E+00
SCF Energy                                 R     -4.214165259623414E+02
Total Energy                               R     -4.214165259623414E+02
S**2                                       R      7.577920503322488E-01
S**2 after annihilation                    R      7.500323206459186E-01
RMS Density                                R      2.810014673703343E-09
Job Status                                 I                1
Nuclear derivative order                   I                0
External E-field                           R   N=          35
  0.00000000E+00  0.00000000E+00  0.00000000E+00  0.00000000E+00  0.00000000E+00
  0.00000000E+00  0.00000000E+00  0.00000000E+00  0.00000000E+00  0.00000000E+00
  0.00000000E+00  0.00000000E+00  0.00000000E+00  0.00000000E+00  0.00000000E+00
  0.00000000E+00  0.00000000E+00  0.00000000E+00  0.00000000E+00  0.00000000E+00
  0.00000000E+00  0.00000000E+00  0.00000000E+00  0.00000000E+00  0.00000000E+00
  0.00000000E+00  0.00000000E+00  0.00000000E+00  0.00000000E+00  0.00000000E+00
  0.00000000E+00  0.00000000E+00  0.00000000E+00  0.00000000E+00  0.00000000E+00
IOpCl                                      I                1
IROHF                                      I                0
Alpha Orbital Energies                     R   N=         204
 -1.91686968E+01 -1.91412418E+01 -1.02426590E+01 -1.02397984E+01 -1.02322869E+01
 -1.01920615E+01 -1.01841934E+01 -1.01765766E+01 -1.01760388E+01 -1.08983296E+00
 -1.05337825E+00 -8.62739368E-01 -7.68175376E-01 -7.50647037E-01 -7.09325362E-01
 -6.17816489E-01 -6.04742199E-01 -5.61074982E-01 -5.24750688E-01 -5.00351092E-01
 -4.87454067E-01 -4.58735509E-01 -4.42085269E-01 -4.36153455E-01 -4.16733452E-01
 -4.01124203E-01 -3.69988064E-01 -3.59473834E-01 -3.53838231E-01 -3.35438841E-01
 -2.50006966E-01 -2.45517190E-01 -2.17829694E-01 -7.88478241E-03  7.71286936E-03
  3.79354207E-02  4.69273732E-02  7.19918780E-02  8.97224443E-02  1.03956367E-01
  1.08139182E-01  1.11055739E-01  1.26589888E-01  1.61990681E-01  1.98334916E-01
  2.28258195E-01  2.63313257E-01  2.79231796E-01  2.91669997E-01  2.95352604E-01
  3.33212504E-01  3.51678118E-01  3.72190128E-01  3.85309332E-01  3.87462948E-01
  3.96197278E-01  4.13067847E-01  4.18496820E-01  4.23174555E-01  4.50432632E-01
  4.52873549E-01  4.56944420E-01  4.73375894E-01  5.01326101E-01  5.12444762E-01
  5.15572239E-01  5.42202188E-01  5.42631496E-01  5.57270884E-01  5.75836741E-01
  5.97686160E-01  6.07733656E-01  6.19107730E-01  6.37183581E-01  6.44252145E-01
  6.66686410E-01  6.83179130E-01  7.28185566E-01  7.41121392E-01  7.86982556E-01
  7.94499810E-01  8.00025888E-01  8.16798774E-01  8.36560486E-01  8.71396479E-01
  9.06410791E-01  9.08872865E-01  9.42243968E-01  9.76151487E-01  9.85135169E-01
  9.85240207E-01  1.00025910E+00  1.00375561E+00  1.06719952E+00  1.12535474E+00
  1.14658111E+00  1.17120966E+00  1.17896588E+00  1.19309865E+00  1.27178241E+00
  1.28081438E+00  1.30643525E+00  1.40382313E+00  1.40828014E+00  1.41775872E+00
  1.44084385E+00  1.44793358E+00  1.47768457E+00  1.51263172E+00  1.53083649E+00
  1.55215415E+00  1.56428800E+00  1.57080531E+00  1.59192642E+00  1.59462405E+00
  1.63814155E+00  1.64428627E+00  1.66423375E+00  1.67919195E+00  1.68957147E+00
  1.72020055E+00  1.73522139E+00  1.80293201E+00  1.83791795E+00  1.84619389E+00
  1.87456770E+00  1.88789349E+00  1.91580622E+00  1.92022434E+00  1.94893151E+00
  1.97595678E+00  2.00824098E+00  2.01548829E+00  2.03422387E+00  2.06207806E+00
  2.08919853E+00  2.11635346E+00  2.16419562E+00  2.22980281E+00  2.27893649E+00
  2.30019043E+00  2.32809705E+00  2.33987629E+00  2.38905825E+00  2.42037986E+00
  2.42851786E+00  2.45964518E+00  2.49717731E+00  2.50975219E+00  2.51909239E+00
  2.55364249E+00  2.57813806E+00  2.62229480E+00  2.64668866E+00  2.65299146E+00