 Entering Link 1 = D:\Gaussian\G16W\l1.exe PID=     21004.
  
 Copyright (c) 1988,1990,1992,1993,1995,1998,2003,2009,2016,
            Gaussian, Inc.  All Rights Reserved.
  
 This is part of the Gaussian(R) 16 program.  It is based on
 the Gaussian(R) 09 system (copyright 2009, Gaussian, Inc.),
 the Gaussian(R) 03 system (copyright 2003, Gaussian, Inc.),
 the Gaussian(R) 98 system (copyright 1998, Gaussian, Inc.),
 the Gaussian(R) 94 system (copyright 1995, Gaussian, Inc.),
 the Gaussian 92(TM) system (copyright 1992, Gaussian, Inc.),
 the Gaussian 90(TM) system (copyright 1990, Gaussian, Inc.),
 the Gaussian 88(TM) system (copyright 1988, Gaussian, Inc.),
 the Gaussian 86(TM) system (copyright 1986, Carnegie Mellon
 University), and the Gaussian 82(TM) system (copyright 1983,
 Carnegie Mellon University). Gaussian is a federally registered
 trademark of Gaussian, Inc.
  
 This software contains proprietary and confidential information,
 including trade secrets, belonging to Gaussian, Inc.
  
 This software is provided under written license and may be
 used, copied, transmitted, or stored only in accord with that
 written license.
  
 The following legend is applicable only to US Government
 contracts under FAR:
  
                    RESTRICTED RIGHTS LEGEND
  
 Use, reproduction and disclosure by the US Government is
 subject to restrictions as set forth in subparagraphs (a)
 and (c) of the Commercial Computer Software - Restricted
 Rights clause in FAR 52.227-19.
  
 Gaussian, Inc.
 340 Quinnipiac St., Bldg. 40, Wallingford CT 06492
  
  
 ---------------------------------------------------------------
 Warning -- This program may not be used in any manner that
 competes with the business of Gaussian, Inc. or will provide
 assistance to any competitor of Gaussian, Inc.  The licensee
 of this program is prohibited from giving any competitor of
 Gaussian, Inc. access to this program.  By using this program,
 the user acknowledges that Gaussian, Inc. is engaged in the
 business of creating and licensing software in the field of
 computational chemistry and represents and warrants to the
 licensee that it is not a competitor of Gaussian, Inc. and that
 it will not use this program in any manner prohibited above.
 ---------------------------------------------------------------
  

 Cite this work as:
 Gaussian 16, Revision A.03,
 M. J. Frisch, G. W. Trucks, H. B. Schlegel, G. E. Scuseria, 
 M. A. Robb, J. R. Cheeseman, G. Scalmani, V. Barone, 
 G. A. Petersson, H. Nakatsuji, X. Li, M. Caricato, A. V. Marenich, 
 J. Bloino, B. G. Janesko, R. Gomperts, B. Mennucci, H. P. Hratchian, 
 J. V. Ortiz, A. F. Izmaylov, J. L. Sonnenberg, D. Williams-Young, 
 F. Ding, F. Lipparini, F. Egidi, J. Goings, B. Peng, A. Petrone, 
 T. Henderson, D. Ranasinghe, V. G. Zakrzewski, J. Gao, N. Rega, 
 G. Zheng, W. Liang, M. Hada, M. Ehara, K. Toyota, R. Fukuda, 
 J. Hasegawa, M. Ishida, T. Nakajima, Y. Honda, O. Kitao, H. Nakai, 
 T. Vreven, K. Throssell, J. A. Montgomery, Jr., J. E. Peralta, 
 F. Ogliaro, M. J. Bearpark, J. J. Heyd, E. N. Brothers, K. N. Kudin, 
 V. N. Staroverov, T. A. Keith, R. Kobayashi, J. Normand, 
 K. Raghavachari, A. P. Rendell, J. C. Burant, S. S. Iyengar, 
 J. Tomasi, M. Cossi, J. M. Millam, M. Klene, C. Adamo, R. Cammi, 
 J. W. Ochterski, R. L. Martin, K. Morokuma, O. Farkas, 
 J. B. Foresman, and D. J. Fox, Gaussian, Inc., Wallingford CT, 2016.
 
 ******************************************
 Gaussian 16:  EM64W-G16RevA.03 17-Dec-2016
                02-Dec-2025 
 ******************************************
 %nprocshared=14
 Will use up to   14 processors via shared memory.
 %mem=58371MB
 %chk=4.chk
 ---------------------------------------------------------
 # ub3lyp/6-311g(d,p) geom=connectivity temperature=823.15
 ---------------------------------------------------------
 1/38=1,57=2,112=823150,172=1/1;
 2/12=2,17=6,18=5,40=1/2;
 3/5=4,6=6,7=101,11=2,25=1,30=1,74=-5,116=2/1,2,3;
 4//1;
 5/5=2,38=5/2;
 6/7=2,8=2,9=2,10=2,28=1/1;
 99/5=1,9=1/99;
 -------------------
 Title Card Required
 -------------------
 Symbolic Z-matrix:
 Charge =  0 Multiplicity = 2
 C                    -2.30269  -0.78311  -0.00003 
 C                    -1.90973   0.56612  -0.00003 
 C                    -0.56357   0.90567  -0.00001 
 C                     0.42348  -0.10245  0. 
 C                     0.05425  -1.45015  -0.00001 
 C                    -1.29925  -1.71516  -0.00002 
 H                    -3.3522   -1.05207  -0.00004 
 H                    -2.64377   1.3638   -0.00004 
 O                     1.70793   0.3812    0.00001 
 C                     2.78186  -0.55087   0.00007 
 H                     2.75724  -1.1819    0.89471 
 H                     2.75732  -1.18193  -0.89454 
 O                    -0.19355   2.21756  -0.00001 
 H                     0.77233   2.24174   0. 
 H                     3.69503   0.04162   0.0001 
 H                     0.79281  -2.24166   0. 
 
                          Input orientation:                          
 ---------------------------------------------------------------------
 Center     Atomic      Atomic             Coordinates (Angstroms)
 Number     Number       Type             X           Y           Z
 ---------------------------------------------------------------------
      1          6           0       -2.302692   -0.783106   -0.000032
      2          6           0       -1.909728    0.566122   -0.000029
      3          6           0       -0.563568    0.905669   -0.000014
      4          6           0        0.423481   -0.102448   -0.000002
      5          6           0        0.054254   -1.450148   -0.000005
      6          6           0       -1.299247   -1.715162   -0.000020
      7          1           0       -3.352196   -1.052069   -0.000043
      8          1           0       -2.643774    1.363796   -0.000038
      9          8           0        1.707933    0.381199    0.000008
     10          6           0        2.781859   -0.550870    0.000074
     11          1           0        2.757240   -1.181895    0.894706
     12          1           0        2.757321   -1.181929   -0.894536
     13          8           0       -0.193547    2.217557   -0.000011
     14          1           0        0.772325    2.241741    0.000002
     15          1           0        3.695032    0.041619    0.000103
     16          1           0        0.792813   -2.241661    0.000002
 ---------------------------------------------------------------------
                    Distance matrix (angstroms):
                    1          2          3          4          5
     1  C    0.000000
     2  C    1.405289   0.000000
     3  C    2.424152   1.388322   0.000000
     4  C    2.809860   2.427107   1.410874   0.000000
     5  C    2.449518   2.814706   2.435483   1.397363   0.000000
     6  C    1.369537   2.361555   2.722128   2.359796   1.379202
     7  H    1.083420   2.167777   3.407225   3.893266   3.429631
     8  H    2.173827   1.084024   2.130056   3.399695   3.898415
     9  O    4.176209   3.622384   2.331263   1.372491   2.467486
    10  C    5.089852   4.822723   3.648752   2.400631   2.872025
    11  H    5.153882   5.063270   4.023209   2.722524   2.859825
    12  H    5.153924   5.063316   4.023250   2.722550   2.859842
    13  O    3.667761   2.381704   1.363072   2.400655   3.676067
    14  H    4.313401   3.162453   1.889365   2.370003   3.761073
    15  H    6.054161   5.629248   4.345372   3.274722   3.934544
    16  H    3.421920   3.897098   3.427164   2.170861   1.082572
                    6          7          8          9         10
     6  C    0.000000
     7  H    2.157381   0.000000
     8  H    3.359722   2.517591   0.000000
     9  O    3.665769   5.259198   4.461261   0.000000
    10  C    4.243937   6.154497   5.753559   1.421995   0.000000
    11  H    4.188078   6.175973   6.037554   2.084417   1.095064
    12  H    4.188107   6.176016   6.037605   2.084417   1.095064
    13  O    4.085199   4.546154   2.594710   2.643452   4.064139
    14  H    4.466373   5.278339   3.527112   2.082541   3.440480
    15  H    5.294252   7.131590   6.475231   2.015906   1.088544
    16  H    2.157294   4.312334   4.980909   2.777920   2.610570
                   11         12         13         14         15
    11  H    0.000000
    12  H    1.789242   0.000000
    13  O    4.589546   4.589586   0.000000
    14  H    4.057298   4.057330   0.966175   0.000000
    15  H    1.782345   1.782344   4.455979   3.658245   0.000000
    16  H    2.404698   2.404687   4.567005   4.483449   3.692728
                   16
    16  H    0.000000
 Stoichiometry    C7H7O2(2)
 Framework group  C1[X(C7H7O2)]
 Deg. of freedom    42
 Full point group                 C1      NOp   1
 Largest Abelian subgroup         C1      NOp   1
 Largest concise Abelian subgroup C1      NOp   1
                         Standard orientation:                         
 ---------------------------------------------------------------------
 Center     Atomic      Atomic             Coordinates (Angstroms)
 Number     Number       Type             X           Y           Z
 ---------------------------------------------------------------------
      1          6           0       -2.302692   -0.783106   -0.000032
      2          6           0       -1.909728    0.566122   -0.000029
      3          6           0       -0.563568    0.905669   -0.000014
      4          6           0        0.423481   -0.102448   -0.000002
      5          6           0        0.054254   -1.450148   -0.000005
      6          6           0       -1.299247   -1.715162   -0.000020
      7          1           0       -3.352196   -1.052069   -0.000043
      8          1           0       -2.643774    1.363796   -0.000038
      9          8           0        1.707933    0.381199    0.000008
     10          6           0        2.781859   -0.550869    0.000074
     11          1           0        2.757240   -1.181894    0.894706
     12          1           0        2.757321   -1.181928   -0.894536
     13          8           0       -0.193547    2.217557   -0.000011
     14          1           0        0.772325    2.241741    0.000002
     15          1           0        3.695032    0.041620    0.000103
     16          1           0        0.792813   -2.241661    0.000002
 ---------------------------------------------------------------------
 Rotational constants (GHZ):           2.7533954           1.5588935           1.0017186
 Standard basis: 6-311G(d,p) (5D, 7F)
 There are   213 symmetry adapted cartesian basis functions of A   symmetry.
 There are   204 symmetry adapted basis functions of A   symmetry.
   204 basis functions,   344 primitive gaussians,   213 cartesian basis functions
    33 alpha electrons       32 beta electrons
       nuclear repulsion energy       422.2223138708 Hartrees.
 NAtoms=   16 NActive=   16 NUniq=   16 SFac= 1.00D+00 NAtFMM=   60 NAOKFM=F Big=F
 Integral buffers will be    131072 words long.
 Raffenetti 2 integral format.
 Two-electron integral symmetry is turned on.
 One-electron integrals computed using PRISM.
 NBasis=   204 RedAO= T EigKep=  3.02D-04  NBF=   204
 NBsUse=   204 1.00D-06 EigRej= -1.00D+00 NBFU=   204
 ExpMin= 1.03D-01 ExpMax= 8.59D+03 ExpMxC= 1.30D+03 IAcc=3 IRadAn=         5 AccDes= 0.00D+00
 Harris functional with IExCor=  402 and IRadAn=       5 diagonalized for initial guess.
 HarFok:  IExCor=  402 AccDes= 0.00D+00 IRadAn=         5 IDoV= 1 UseB2=F ITyADJ=14
 ICtDFT=  3500011 ScaDFX=  1.000000  1.000000  1.000000  1.000000
 FoFCou: FMM=F IPFlag=           0 FMFlag=      100000 FMFlg1=           0
         NFxFlg=           0 DoJE=T BraDBF=F KetDBF=T FulRan=T
         wScrn=  0.000000 ICntrl=       500 IOpCl=  0 I1Cent=   200000004 NGrid=           0
         NMat0=    1 NMatS0=      1 NMatT0=    0 NMatD0=    1 NMtDS0=    0 NMtDT0=    0
 Petite list used in FoFCou.
 Initial guess <Sx>= 0.0000 <Sy>= 0.0000 <Sz>= 0.5000 <S**2>= 0.7500 S= 0.5000
 Requested convergence on RMS density matrix=1.00D-08 within 128 cycles.
 Requested convergence on MAX density matrix=1.00D-06.
 Requested convergence on             energy=1.00D-06.
 No special actions if energy rises.
 Integral accuracy reduced to 1.0D-05 until final iterations.
 Initial convergence to 1.0D-05 achieved.  Increase integral accuracy.
 SCF Done:  E(UB3LYP) =  -421.416525962     A.U. after   19 cycles
            NFock= 19  Conv=0.28D-08     -V/T= 2.0036
 <Sx>= 0.0000 <Sy>= 0.0000 <Sz>= 0.5000 <S**2>= 0.7578 S= 0.5039
 <L.S>= 0.000000000000E+00
 Annihilation of the first spin contaminant:
 S**2 before annihilation     0.7578,   after     0.7500

 **********************************************************************

            Population analysis using the SCF density.

 **********************************************************************

 Orbital symmetries:
 Alpha Orbitals:
       Occupied  (A) (A) (A) (A) (A) (A) (A) (A) (A) (A) (A) (A)
                 (A) (A) (A) (A) (A) (A) (A) (A) (A) (A) (A) (A)
                 (A) (A) (A) (A) (A) (A) (A) (A) (A)
       Virtual   (A) (A) (A) (A) (A) (A) (A) (A) (A) (A) (A) (A)
                 (A) (A) (A) (A) (A) (A) (A) (A) (A) (A) (A) (A)
                 (A) (A) (A) (A) (A) (A) (A) (A) (A) (A) (A) (A)
                 (A) (A) (A) (A) (A) (A) (A) (A) (A) (A) (A) (A)
                 (A) (A) (A) (A) (A) (A) (A) (A) (A) (A) (A) (A)
                 (A) (A) (A) (A) (A) (A) (A) (A) (A) (A) (A) (A)
                 (A) (A) (A) (A) (A) (A) (A) (A) (A) (A) (A) (A)
                 (A) (A) (A) (A) (A) (A) (A) (A) (A) (A) (A) (A)
                 (A) (A) (A) (A) (A) (A) (A) (A) (A) (A) (A) (A)
                 (A) (A) (A) (A) (A) (A) (A) (A) (A) (A) (A) (A)
                 (A) (A) (A) (A) (A) (A) (A) (A) (A) (A) (A) (A)
                 (A) (A) (A) (A) (A) (A) (A) (A) (A) (A) (A) (A)
                 (A) (A) (A) (A) (A) (A) (A) (A) (A) (A) (A) (A)
                 (A) (A) (A) (A) (A) (A) (A) (A) (A) (A) (A) (A)
                 (A) (A) (A)
 Beta  Orbitals:
       Occupied  (A) (A) (A) (A) (A) (A) (A) (A) (A) (A) (A) (A)
                 (A) (A) (A) (A) (A) (A) (A) (A) (A) (A) (A) (A)
                 (A) (A) (A) (A) (A) (A) (A) (A)
       Virtual   (A) (A) (A) (A) (A) (A) (A) (A) (A) (A) (A) (A)
                 (A) (A) (A) (A) (A) (A) (A) (A) (A) (A) (A) (A)
                 (A) (A) (A) (A) (A) (A) (A) (A) (A) (A) (A) (A)
                 (A) (A) (A) (A) (A) (A) (A) (A) (A) (A) (A) (A)
                 (A) (A) (A) (A) (A) (A) (A) (A) (A) (A) (A) (A)
                 (A) (A) (A) (A) (A) (A) (A) (A) (A) (A) (A) (A)
                 (A) (A) (A) (A) (A) (A) (A) (A) (A) (A) (A) (A)
                 (A) (A) (A) (A) (A) (A) (A) (A) (A) (A) (A) (A)
                 (A) (A) (A) (A) (A) (A) (A) (A) (A) (A) (A) (A)
                 (A) (A) (A) (A) (A) (A) (A) (A) (A) (A) (A) (A)
                 (A) (A) (A) (A) (A) (A) (A) (A) (A) (A) (A) (A)
                 (A) (A) (A) (A) (A) (A) (A) (A) (A) (A) (A) (A)
                 (A) (A) (A) (A) (A) (A) (A) (A) (A) (A) (A) (A)
                 (A) (A) (A) (A) (A) (A) (A) (A) (A) (A) (A) (A)
                 (A) (A) (A) (A)
 The electronic state is 2-A.
 Alpha  occ. eigenvalues --  -19.16870 -19.14124 -10.24266 -10.23980 -10.23229
 Alpha  occ. eigenvalues --  -10.19206 -10.18419 -10.17658 -10.17604  -1.08983
 Alpha  occ. eigenvalues --   -1.05338  -0.86274  -0.76818  -0.75065  -0.70933
 Alpha  occ. eigenvalues --   -0.61782  -0.60474  -0.56107  -0.52475  -0.50035
 Alpha  occ. eigenvalues --   -0.48745  -0.45874  -0.44209  -0.43615  -0.41673
 Alpha  occ. eigenvalues --   -0.40112  -0.36999  -0.35947  -0.35384  -0.33544
 Alpha  occ. eigenvalues --   -0.25001  -0.24552  -0.21783
 Alpha virt. eigenvalues --   -0.00788   0.00771   0.03794   0.04693   0.07199
 Alpha virt. eigenvalues --    0.08972   0.10396   0.10814   0.11106   0.12659
 Alpha virt. eigenvalues --    0.16199   0.19833   0.22826   0.26331   0.27923
 Alpha virt. eigenvalues --    0.29167   0.29535   0.33321   0.35168   0.37219
 Alpha virt. eigenvalues --    0.38531   0.38746   0.39620   0.41307   0.41850
 Alpha virt. eigenvalues --    0.42317   0.45043   0.45287   0.45694   0.47338
 Alpha virt. eigenvalues --    0.50133   0.51244   0.51557   0.54220   0.54263
 Alpha virt. eigenvalues --    0.55727   0.57584   0.59769   0.60773   0.61911
 Alpha virt. eigenvalues --    0.63718   0.64425   0.66669   0.68318   0.72819
 Alpha virt. eigenvalues --    0.74112   0.78698   0.79450   0.80003   0.81680
 Alpha virt. eigenvalues --    0.83656   0.87140   0.90641   0.90887   0.94224
 Alpha virt. eigenvalues --    0.97615   0.98514   0.98524   1.00026   1.00376
 Alpha virt. eigenvalues --    1.06720   1.12535   1.14658   1.17121   1.17897
 Alpha virt. eigenvalues --    1.19310   1.27178   1.28081   1.30644   1.40382
 Alpha virt. eigenvalues --    1.40828   1.41776   1.44084   1.44793   1.47768
 Alpha virt. eigenvalues --    1.51263   1.53084   1.55215   1.56429   1.57081
 Alpha virt. eigenvalues --    1.59193   1.59462   1.63814   1.64429   1.66423
 Alpha virt. eigenvalues --    1.67919   1.68957   1.72020   1.73522   1.80293
 Alpha virt. eigenvalues --    1.83792   1.84619   1.87457   1.88789   1.91581
 Alpha virt. eigenvalues --    1.92022   1.94893   1.97596   2.00824   2.01549
 Alpha virt. eigenvalues --    2.03422   2.06208   2.08920   2.11635   2.16420
 Alpha virt. eigenvalues --    2.22980   2.27894   2.30019   2.32810   2.33988
 Alpha virt. eigenvalues --    2.38906   2.42038   2.42852   2.45965   2.49718
 Alpha virt. eigenvalues --    2.50975   2.51909   2.55364   2.57814   2.62229
 Alpha virt. eigenvalues --    2.64669   2.65299   2.65615   2.69507   2.69748
 Alpha virt. eigenvalues --    2.78151   2.80613   2.83115   2.83464   2.89332
 Alpha virt. eigenvalues --    2.93971   2.98120   3.01506   3.04224   3.05555
 Alpha virt. eigenvalues --    3.09508   3.11131   3.16326   3.23151   3.28910
 Alpha virt. eigenvalues --    3.33722   3.37278   3.41619   3.50477   3.58813
 Alpha virt. eigenvalues --    3.60881   3.65901   3.74081   3.78078   3.84913
 Alpha virt. eigenvalues --    3.99913   4.04231   4.07349   4.12820   4.16896
 Alpha virt. eigenvalues --    4.79488   4.81476   4.90099   5.29948   5.34273
 Alpha virt. eigenvalues --    5.66862   5.76876  23.39095  23.84597  23.84900
 Alpha virt. eigenvalues --   23.90298  24.05683  24.08367  24.17784  49.87760
 Alpha virt. eigenvalues --   49.93413
  Beta  occ. eigenvalues --  -19.16827 -19.14146 -10.24135 -10.23980 -10.23287
  Beta  occ. eigenvalues --  -10.18431 -10.17664 -10.17600 -10.17497  -1.08905
  Beta  occ. eigenvalues --   -1.05359  -0.85452  -0.76543  -0.74319  -0.70532
  Beta  occ. eigenvalues --   -0.61602  -0.59389  -0.55890  -0.51800  -0.49660
  Beta  occ. eigenvalues --   -0.48706  -0.45588  -0.43709  -0.42635  -0.41699
  Beta  occ. eigenvalues --   -0.39722  -0.36540  -0.35708  -0.35329  -0.33061
  Beta  occ. eigenvalues --   -0.24953  -0.21325
  Beta virt. eigenvalues --   -0.08356  -0.00777   0.01747   0.03818   0.04745
  Beta virt. eigenvalues --    0.07328   0.09008   0.10429   0.10873   0.11214
  Beta virt. eigenvalues --    0.12733   0.16795   0.19996   0.23547   0.26784
  Beta virt. eigenvalues --    0.28085   0.29543   0.29821   0.33974   0.35864
  Beta virt. eigenvalues --    0.37468   0.38896   0.39629   0.39865   0.41513
  Beta virt. eigenvalues --    0.41947   0.43117   0.45276   0.45694   0.47219
  Beta virt. eigenvalues --    0.48176   0.50498   0.51565   0.51633   0.54742
  Beta virt. eigenvalues --    0.54856   0.55757   0.58375   0.60087   0.60993
  Beta virt. eigenvalues --    0.62473   0.63981   0.64637   0.67520   0.68585
  Beta virt. eigenvalues --    0.73233   0.74290   0.79186   0.80054   0.80268
  Beta virt. eigenvalues --    0.82170   0.83965   0.87438   0.90640   0.91492
  Beta virt. eigenvalues --    0.94590   0.97838   0.98616   0.98708   1.00565
  Beta virt. eigenvalues --    1.00698   1.06864   1.12836   1.15270   1.17854
  Beta virt. eigenvalues --    1.18816   1.19387   1.28461   1.29783   1.30726
  Beta virt. eigenvalues --    1.40390   1.41451   1.41791   1.44434   1.44811
  Beta virt. eigenvalues --    1.48111   1.51422   1.53827   1.55443   1.56534
  Beta virt. eigenvalues --    1.57172   1.60147   1.61192   1.64216   1.64505
  Beta virt. eigenvalues --    1.66508   1.68226   1.69859   1.72385   1.73708
  Beta virt. eigenvalues --    1.81090   1.84986   1.85018   1.87876   1.88837
  Beta virt. eigenvalues --    1.92202   1.92627   1.95169   1.98104   2.01303
  Beta virt. eigenvalues --    2.02178   2.03483   2.06290   2.09215   2.11724
  Beta virt. eigenvalues --    2.17145   2.23330   2.28412   2.30119   2.33387
  Beta virt. eigenvalues --    2.34502   2.38920   2.42697   2.42855   2.46694
  Beta virt. eigenvalues --    2.50139   2.51147   2.51996   2.56275   2.58391
  Beta virt. eigenvalues --    2.62953   2.65218   2.65649   2.66166   2.69877
  Beta virt. eigenvalues --    2.70561   2.78592   2.81072   2.83248   2.84219
  Beta virt. eigenvalues --    2.91868   2.94406   2.98197   3.01602   3.04489
  Beta virt. eigenvalues --    3.06766   3.09454   3.11441   3.16268   3.23196
  Beta virt. eigenvalues --    3.29194   3.34059   3.37654   3.41771   3.50649
  Beta virt. eigenvalues --    3.59380   3.61280   3.66585   3.74086   3.78138
  Beta virt. eigenvalues --    3.84965   4.00073   4.04344   4.07515   4.12993
  Beta virt. eigenvalues --    4.17128   4.79428   4.81827   4.90125   5.30046
  Beta virt. eigenvalues --    5.34273   5.66867   5.76919  23.39462  23.84618
  Beta virt. eigenvalues --   23.85427  23.90429  24.05824  24.08558  24.18430
  Beta virt. eigenvalues --   49.87782  49.93412
          Condensed to atoms (all electrons):
               1          2          3          4          5          6
     1  C    4.828085   0.518116  -0.048872  -0.038293  -0.071867   0.533325
     2  C    0.518116   4.870063   0.543185  -0.054107  -0.031745  -0.053943
     3  C   -0.048872   0.543185   4.875450   0.299561  -0.000148  -0.066264
     4  C   -0.038293  -0.054107   0.299561   5.170685   0.356565  -0.006987
     5  C   -0.071867  -0.031745  -0.000148   0.356565   5.049843   0.463313
     6  C    0.533325  -0.053943  -0.066264  -0.006987   0.463313   5.238594
     7  H    0.412286  -0.038620   0.008164  -0.000974   0.006151  -0.041327
     8  H   -0.043805   0.400308  -0.048035   0.016281  -0.002798   0.010910
     9  O   -0.000247   0.002942  -0.070105   0.345692  -0.075317   0.006067
    10  C    0.000011  -0.000221   0.006475  -0.072001  -0.011435  -0.000037
    11  H   -0.000033  -0.000047  -0.000365  -0.005166   0.004183  -0.000349
    12  H   -0.000033  -0.000047  -0.000366  -0.005166   0.004183  -0.000349
    13  O    0.004014  -0.061013   0.395338  -0.092158   0.006606  -0.000443
    14  H   -0.000310   0.005570  -0.046514  -0.021543   0.003316  -0.000487
    15  H    0.000000   0.000025  -0.000184   0.004709   0.000751   0.000028
    16  H    0.003864   0.000513   0.001833  -0.039700   0.407676  -0.024702
               7          8          9         10         11         12
     1  C    0.412286  -0.043805  -0.000247   0.000011  -0.000033  -0.000033
     2  C   -0.038620   0.400308   0.002942  -0.000221  -0.000047  -0.000047
     3  C    0.008164  -0.048035  -0.070105   0.006475  -0.000365  -0.000366
     4  C   -0.000974   0.016281   0.345692  -0.072001  -0.005166  -0.005166
     5  C    0.006151  -0.002798  -0.075317  -0.011435   0.004183   0.004183
     6  C   -0.041327   0.010910   0.006067  -0.000037  -0.000349  -0.000349
     7  H    0.554783  -0.008266   0.000006  -0.000001   0.000000   0.000000
     8  H   -0.008266   0.565992  -0.000108   0.000024   0.000001   0.000001
     9  O    0.000006  -0.000108   7.989746   0.274855  -0.033298  -0.033298
    10  C   -0.000001   0.000024   0.274855   4.718810   0.401020   0.401021
    11  H    0.000000   0.000001  -0.033298   0.401020   0.590682  -0.048932
    12  H    0.000000   0.000001  -0.033298   0.401021  -0.048932   0.590683
    13  O   -0.000101   0.003922  -0.005499  -0.000193  -0.000049  -0.000049
    14  H    0.000032  -0.000794   0.026335  -0.001832   0.000316   0.000316
    15  H    0.000000  -0.000001  -0.022566   0.402163  -0.026453  -0.026454
    16  H   -0.000349   0.000048  -0.005667   0.004181   0.000312   0.000312
              13         14         15         16
     1  C    0.004014  -0.000310   0.000000   0.003864
     2  C   -0.061013   0.005570   0.000025   0.000513
     3  C    0.395338  -0.046514  -0.000184   0.001833
     4  C   -0.092158  -0.021543   0.004709  -0.039700
     5  C    0.006606   0.003316   0.000751   0.407676
     6  C   -0.000443  -0.000487   0.000028  -0.024702
     7  H   -0.000101   0.000032   0.000000  -0.000349
     8  H    0.003922  -0.000794  -0.000001   0.000048
     9  O   -0.005499   0.026335  -0.022566  -0.005667
    10  C   -0.000193  -0.001832   0.402163   0.004181
    11  H   -0.000049   0.000316  -0.026453   0.000312
    12  H   -0.000049   0.000316  -0.026454   0.000312
    13  O    7.778321   0.333023   0.000025  -0.000052
    14  H    0.333023   0.449049  -0.000479   0.000017
    15  H    0.000025  -0.000479   0.537723  -0.000036
    16  H   -0.000052   0.000017  -0.000036   0.532907
          Atomic-Atomic Spin Densities.
               1          2          3          4          5          6
     1  C   -0.071194   0.019001   0.011900  -0.001550   0.006578  -0.033265
     2  C    0.019001   0.073515  -0.002129   0.000456   0.000721  -0.018987
     3  C    0.011900  -0.002129  -0.027163  -0.006478   0.010155  -0.025163
     4  C   -0.001550   0.000456  -0.006478   0.077847   0.012278  -0.006773
     5  C    0.006578   0.000721   0.010155   0.012278  -0.068572  -0.032069
     6  C   -0.033265  -0.018987  -0.025163  -0.006773  -0.032069   1.111014
     7  H    0.008017  -0.006320  -0.000535   0.000143  -0.000476  -0.004130
     8  H   -0.003525  -0.005654  -0.004488   0.001278  -0.000507   0.004476
     9  O   -0.000186   0.000176  -0.001652  -0.011536  -0.001734   0.002157
    10  C   -0.000021   0.000016  -0.000277  -0.002099   0.000054   0.000225
    11  H    0.000001  -0.000002   0.000030   0.000592  -0.000135  -0.000027
    12  H    0.000001  -0.000002   0.000030   0.000592  -0.000135  -0.000027
    13  O    0.000002  -0.000937   0.008315  -0.001077  -0.000077  -0.000271
    14  H    0.000054  -0.000053   0.000600  -0.000296   0.000016  -0.000129
    15  H   -0.000001   0.000001  -0.000018  -0.000242   0.000005   0.000008
    16  H   -0.000418  -0.000018  -0.000488  -0.006524   0.010691  -0.004364
               7          8          9         10         11         12
     1  C    0.008017  -0.003525  -0.000186  -0.000021   0.000001   0.000001
     2  C   -0.006320  -0.005654   0.000176   0.000016  -0.000002  -0.000002
     3  C   -0.000535  -0.004488  -0.001652  -0.000277   0.000030   0.000030
     4  C    0.000143   0.001278  -0.011536  -0.002099   0.000592   0.000592
     5  C   -0.000476  -0.000507  -0.001734   0.000054  -0.000135  -0.000135
     6  C   -0.004130   0.004476   0.002157   0.000225  -0.000027  -0.000027
     7  H    0.021284   0.001483   0.000003   0.000000   0.000000   0.000000
     8  H    0.001483   0.018986   0.000031   0.000003   0.000000   0.000000
     9  O    0.000003   0.000031   0.022325   0.001247  -0.000253  -0.000253
    10  C    0.000000   0.000003   0.001247   0.000009  -0.000191  -0.000191
    11  H    0.000000   0.000000  -0.000253  -0.000191   0.000718  -0.000229
    12  H    0.000000   0.000000  -0.000253  -0.000191  -0.000229   0.000718
    13  O   -0.000006  -0.000548  -0.000111   0.000002  -0.000001  -0.000001
    14  H   -0.000002  -0.000072  -0.000076  -0.000023   0.000000   0.000000
    15  H    0.000000   0.000000  -0.000113   0.000103  -0.000042  -0.000042
    16  H    0.000021   0.000016   0.000632   0.000220  -0.000095  -0.000095
              13         14         15         16
     1  C    0.000002   0.000054  -0.000001  -0.000418
     2  C   -0.000937  -0.000053   0.000001  -0.000018
     3  C    0.008315   0.000600  -0.000018  -0.000488
     4  C   -0.001077  -0.000296  -0.000242  -0.006524
     5  C   -0.000077   0.000016   0.000005   0.010691
     6  C   -0.000271  -0.000129   0.000008  -0.004364
     7  H   -0.000006  -0.000002   0.000000   0.000021
     8  H   -0.000548  -0.000072   0.000000   0.000016
     9  O   -0.000111  -0.000076  -0.000113   0.000632
    10  C    0.000002  -0.000023   0.000103   0.000220
    11  H   -0.000001   0.000000  -0.000042  -0.000095
    12  H   -0.000001   0.000000  -0.000042  -0.000095
    13  O   -0.011286   0.000023   0.000000  -0.000002
    14  H    0.000023   0.000051  -0.000006  -0.000008
    15  H    0.000000  -0.000006   0.000751   0.000017
    16  H   -0.000002  -0.000008   0.000017   0.020565
 Mulliken charges and spin densities:
               1          2
     1  C   -0.096245  -0.064606
     2  C   -0.100979   0.059785
     3  C    0.150847  -0.037361
     4  C    0.142601   0.056611
     5  C   -0.109278  -0.063206
     6  C   -0.057349   0.992675
     7  H    0.108215   0.019482
     8  H    0.106320   0.011477
     9  O   -0.399536   0.010656
    10  C   -0.122841  -0.000922
    11  H    0.118179   0.000366
    12  H    0.118179   0.000366
    13  O   -0.361690  -0.005974
    14  H    0.253985   0.000079
    15  H    0.130750   0.000422
    16  H    0.118843   0.020150
 Sum of Mulliken charges =   0.00000   1.00000
 Mulliken charges and spin densities with hydrogens summed into heavy atoms:
               1          2
     1  C    0.011969  -0.045125
     2  C    0.005342   0.071262
     3  C    0.150847  -0.037361
     4  C    0.142601   0.056611
     5  C    0.009565  -0.043056
     6  C   -0.057349   0.992675
     9  O   -0.399536   0.010656
    10  C    0.244267   0.000233
    13  O   -0.107706  -0.005895
 Electronic spatial extent (au):  <R**2>=           1133.5085
 Charge=              0.0000 electrons
 Dipole moment (field-independent basis, Debye):
    X=              2.6254    Y=             -0.8107    Z=              0.0001  Tot=              2.7477
 Quadrupole moment (field-independent basis, Debye-Ang):
   XX=            -42.0371   YY=            -54.5012   ZZ=            -55.3362
   XY=             -1.6644   XZ=              0.0003   YZ=              0.0000
 Traceless Quadrupole moment (field-independent basis, Debye-Ang):
   XX=              8.5878   YY=             -3.8764   ZZ=             -4.7114
   XY=             -1.6644   XZ=              0.0003   YZ=              0.0000
 Octapole moment (field-independent basis, Debye-Ang**2):
  XXX=             20.0029  YYY=             10.9828  ZZZ=              0.0004  XYY=             16.6180
  XXY=              3.3036  XXZ=              0.0005  XZZ=              8.4625  YZZ=              5.8031
  YYZ=              0.0002  XYZ=              0.0000
 Hexadecapole moment (field-independent basis, Debye-Ang**3):
 XXXX=           -804.3954 YYYY=           -530.6204 ZZZZ=            -64.6832 XXXY=            -10.9529
 XXXZ=             -0.0048 YYYX=              2.1819 YYYZ=              0.0009 ZZZX=             -0.0084
 ZZZY=              0.0005 XXYY=           -227.2707 XXZZ=           -175.6906 YYZZ=           -100.4601
 XXYZ=              0.0003 YYXZ=             -0.0026 ZZXY=             -4.1177
 N-N= 4.222223138708D+02 E-N=-1.828731518210D+03  KE= 4.198904493973D+02
                          Isotropic Fermi Contact Couplings
        Atom                 a.u.       MegaHertz       Gauss      10(-4) cm-1
     1  C(13)              0.01275      14.33582       5.11538       4.78191
     2  C(13)              0.04999      56.20372      20.05488      18.74754
     3  C(13)             -0.00676      -7.59833      -2.71127      -2.53453
     4  C(13)              0.05404      60.74657      21.67589      20.26288
     5  C(13)              0.02048      23.02060       8.21432       7.67885
     6  C(13)              0.34007     382.30204     136.41488     127.52224
     7  H(1)               0.01084      48.44061      17.28482      16.15805
     8  H(1)               0.00378      16.87953       6.02304       5.63041
     9  O(17)             -0.00023       0.14133       0.05043       0.04714
    10  C(13)             -0.00021      -0.23259      -0.08300      -0.07759
    11  H(1)               0.00011       0.49288       0.17587       0.16441
    12  H(1)               0.00011       0.49297       0.17591       0.16444
    13  O(17)              0.00011      -0.06676      -0.02382      -0.02227
    14  H(1)               0.00011       0.50842       0.18142       0.16959
    15  H(1)               0.00022       0.96981       0.34605       0.32349
    16  H(1)               0.01175      52.53384      18.74538      17.52340
 --------------------------------------------------------
       Center         ----  Spin Dipole Couplings  ----
                      3XX-RR        3YY-RR        3ZZ-RR
 --------------------------------------------------------
     1   Atom        0.021931      0.082505     -0.104436
     2   Atom       -0.042202      0.054285     -0.012083
     3   Atom        0.018210      0.030370     -0.048580
     4   Atom       -0.033814      0.040986     -0.007173
     5   Atom        0.086195      0.005343     -0.091538
     6   Atom       -0.457527      0.888559     -0.431032
     7   Atom        0.016255     -0.003718     -0.012537
     8   Atom       -0.000528      0.006031     -0.005503
     9   Atom       -0.002080      0.017517     -0.015437
    10   Atom        0.003356     -0.000378     -0.002978
    11   Atom        0.003287     -0.001559     -0.001727
    12   Atom        0.003287     -0.001559     -0.001728
    13   Atom        0.019315      0.022224     -0.041539
    14   Atom       -0.002176      0.003440     -0.001263
    15   Atom        0.002059     -0.000836     -0.001223
    16   Atom        0.022469     -0.010088     -0.012382
 --------------------------------------------------------
                        XY            XZ            YZ
 --------------------------------------------------------
     1   Atom       -0.057585      0.000001      0.000000
     2   Atom        0.016005      0.000000      0.000000
     3   Atom        0.004424      0.000001      0.000000
     4   Atom        0.013469      0.000000      0.000000
     5   Atom        0.043676      0.000001      0.000000
     6   Atom        0.383352     -0.000001      0.000003
     7   Atom       -0.013187      0.000000      0.000000
     8   Atom       -0.006495      0.000000      0.000000
     9   Atom        0.045003      0.000001      0.000002
    10   Atom        0.000727      0.000000      0.000000
    11   Atom        0.000580      0.001478      0.000020
    12   Atom        0.000580     -0.001477     -0.000020
    13   Atom        0.003196      0.000001      0.000000
    14   Atom        0.000983      0.000000      0.000000
    15   Atom        0.000837      0.000000      0.000000
    16   Atom       -0.003477      0.000000      0.000000
 --------------------------------------------------------


 ---------------------------------------------------------------------------------
              Anisotropic Spin Dipole Couplings in Principal Axis System
 ---------------------------------------------------------------------------------

       Atom             a.u.   MegaHertz   Gauss  10(-4) cm-1        Axes

              Baa    -0.1044   -14.014    -5.001    -4.675  0.0000  0.0000  1.0000
     1 C(13)  Bbb    -0.0128    -1.724    -0.615    -0.575  0.8560  0.5170  0.0000
              Bcc     0.1173    15.738     5.616     5.250 -0.5170  0.8560  0.0000
 
              Baa    -0.0448    -6.010    -2.145    -2.005  0.9872 -0.1595  0.0000
     2 C(13)  Bbb    -0.0121    -1.621    -0.579    -0.541  0.0000  0.0000  1.0000
              Bcc     0.0569     7.631     2.723     2.546  0.1595  0.9872  0.0000
 
              Baa    -0.0486    -6.519    -2.326    -2.174  0.0000  0.0000  1.0000
     3 C(13)  Bbb     0.0168     2.250     0.803     0.751  0.9509 -0.3094  0.0000
              Bcc     0.0318     4.269     1.523     1.424  0.3094  0.9509  0.0000
 
              Baa    -0.0362    -4.853    -1.732    -1.619  0.9851 -0.1720  0.0000
     4 C(13)  Bbb    -0.0072    -0.963    -0.343    -0.321  0.0000  0.0000  1.0000
              Bcc     0.0433     5.815     2.075     1.940  0.1720  0.9851  0.0000
 
              Baa    -0.0915   -12.283    -4.383    -4.097  0.0000  0.0000  1.0000
     5 C(13)  Bbb    -0.0137    -1.844    -0.658    -0.615 -0.4005  0.9163  0.0000
              Bcc     0.1053    14.128     5.041     4.713  0.9163  0.4005  0.0000
 
              Baa    -0.5590   -75.019   -26.768   -25.024  0.9667 -0.2560  0.0000
     6 C(13)  Bbb    -0.4310   -57.840   -20.639   -19.293  0.0000  0.0000  1.0000
              Bcc     0.9901   132.859    47.407    44.317  0.2560  0.9667  0.0000
 
              Baa    -0.0125    -6.689    -2.387    -2.231  0.0000  0.0000  1.0000
     7 H(1)   Bbb    -0.0103    -5.482    -1.956    -1.828  0.4451  0.8955  0.0000
              Bcc     0.0228    12.171     4.343     4.060  0.8955 -0.4451  0.0000
 
              Baa    -0.0055    -2.936    -1.048    -0.979  0.0000  0.0000  1.0000
     8 H(1)   Bbb    -0.0045    -2.414    -0.861    -0.805  0.8517  0.5241  0.0000
              Bcc     0.0100     5.350     1.909     1.785 -0.5241  0.8517  0.0000
 
              Baa    -0.0383     2.774     0.990     0.925  0.7787 -0.6274  0.0000
     9 O(17)  Bbb    -0.0154     1.117     0.399     0.373  0.0000  0.0000  1.0000
              Bcc     0.0538    -3.891    -1.388    -1.298  0.6274  0.7787  0.0000
 
              Baa    -0.0030    -0.400    -0.143    -0.133  0.0000  0.0000  1.0000
    10 C(13)  Bbb    -0.0005    -0.069    -0.025    -0.023 -0.1846  0.9828  0.0000
              Bcc     0.0035     0.469     0.167     0.156  0.9828  0.1846  0.0000
 
              Baa    -0.0022    -1.154    -0.412    -0.385 -0.2776  0.2357  0.9313
    11 H(1)   Bbb    -0.0016    -0.847    -0.302    -0.282 -0.0374  0.9661 -0.2556
              Bcc     0.0037     2.001     0.714     0.667  0.9600  0.1058  0.2594
 
              Baa    -0.0022    -1.154    -0.412    -0.385  0.2776 -0.2357  0.9314
    12 H(1)   Bbb    -0.0016    -0.847    -0.302    -0.282 -0.0374  0.9661  0.2556
              Bcc     0.0037     2.001     0.714     0.667  0.9600  0.1058 -0.2593
 
              Baa    -0.0415     3.006     1.073     1.003  0.0000  0.0000  1.0000
    13 O(17)  Bbb     0.0173    -1.249    -0.446    -0.417  0.8409 -0.5412  0.0000
              Bcc     0.0243    -1.757    -0.627    -0.586  0.5412  0.8409  0.0000
 
              Baa    -0.0023    -1.250    -0.446    -0.417  0.9859 -0.1676  0.0000
    14 H(1)   Bbb    -0.0013    -0.674    -0.240    -0.225  0.0000  0.0000  1.0000
              Bcc     0.0036     1.924     0.687     0.642  0.1676  0.9859  0.0000
 
              Baa    -0.0012    -0.652    -0.233    -0.218  0.0000  0.0000  1.0000
    15 H(1)   Bbb    -0.0011    -0.566    -0.202    -0.189 -0.2593  0.9658  0.0000
              Bcc     0.0023     1.218     0.435     0.406  0.9658  0.2593  0.0000
 
              Baa    -0.0124    -6.606    -2.357    -2.204  0.0000  0.0000  1.0000
    16 H(1)   Bbb    -0.0105    -5.578    -1.990    -1.861  0.1050  0.9945  0.0000
              Bcc     0.0228    12.184     4.348     4.064  0.9945 -0.1050  0.0000
 

 ---------------------------------------------------------------------------------

 1|1|UNPC-PC-20250526LCFF|SP|UB3LYP|6-311G(d,p)|C7H7O2(2)|ADMINISTRATOR
 |02-Dec-2025|0||# ub3lyp/6-311g(d,p) geom=connectivity temperature=823
 .15||Title Card Required||0,2|C,0,-2.302692,-0.783106,-0.000032|C,0,-1
 .909728,0.566122,-0.000029|C,0,-0.563568,0.905669,-0.000014|C,0,0.4234
 81,-0.102448,-0.000002|C,0,0.054254,-1.450148,-0.000005|C,0,-1.299247,
 -1.715162,-0.00002|H,0,-3.352196,-1.052069,-0.000043|H,0,-2.643774,1.3
 63796,-0.000038|O,0,1.707933,0.381199,0.000008|C,0,2.781859,-0.55087,0
 .000074|H,0,2.75724,-1.181895,0.894706|H,0,2.757321,-1.181929,-0.89453
 6|O,0,-0.193547,2.217557,-0.000011|H,0,0.772325,2.241741,0.000002|H,0,
 3.695032,0.041619,0.000103|H,0,0.792813,-2.241661,0.000002||Version=EM
 64W-G16RevA.03|State=2-A|HF=-421.416526|S2=0.757792|S2-1=0.|S2A=0.7500
 32|RMSD=2.810e-009|Dipole=1.0329097,-0.318973,0.000039|Quadrupole=6.38
 47821,-2.8819881,-3.502794,-1.2374369,0.0002417,-0.0000111|PG=C01 [X(C
 7H7O2)]||@


 SUCCESS IS NEVER CERTAIN,
 FAILURE IS NEVER FINAL.
 Job cpu time:       0 days  0 hours  0 minutes 31.0 seconds.
 Elapsed time:       0 days  0 hours  0 minutes 30.7 seconds.
 File lengths (MBytes):  RWF=     45 Int=      0 D2E=      0 Chk=      4 Scr=      1
 Normal termination of Gaussian 16 at Tue Dec 02 12:50:57 2025.
