 Entering Link 1 = D:\Gaussian\G16W\l1.exe PID=     41316.
  
 Copyright (c) 1988,1990,1992,1993,1995,1998,2003,2009,2016,
            Gaussian, Inc.  All Rights Reserved.
  
 This is part of the Gaussian(R) 16 program.  It is based on
 the Gaussian(R) 09 system (copyright 2009, Gaussian, Inc.),
 the Gaussian(R) 03 system (copyright 2003, Gaussian, Inc.),
 the Gaussian(R) 98 system (copyright 1998, Gaussian, Inc.),
 the Gaussian(R) 94 system (copyright 1995, Gaussian, Inc.),
 the Gaussian 92(TM) system (copyright 1992, Gaussian, Inc.),
 the Gaussian 90(TM) system (copyright 1990, Gaussian, Inc.),
 the Gaussian 88(TM) system (copyright 1988, Gaussian, Inc.),
 the Gaussian 86(TM) system (copyright 1986, Carnegie Mellon
 University), and the Gaussian 82(TM) system (copyright 1983,
 Carnegie Mellon University). Gaussian is a federally registered
 trademark of Gaussian, Inc.
  
 This software contains proprietary and confidential information,
 including trade secrets, belonging to Gaussian, Inc.
  
 This software is provided under written license and may be
 used, copied, transmitted, or stored only in accord with that
 written license.
  
 The following legend is applicable only to US Government
 contracts under FAR:
  
                    RESTRICTED RIGHTS LEGEND
  
 Use, reproduction and disclosure by the US Government is
 subject to restrictions as set forth in subparagraphs (a)
 and (c) of the Commercial Computer Software - Restricted
 Rights clause in FAR 52.227-19.
  
 Gaussian, Inc.
 340 Quinnipiac St., Bldg. 40, Wallingford CT 06492
  
  
 ---------------------------------------------------------------
 Warning -- This program may not be used in any manner that
 competes with the business of Gaussian, Inc. or will provide
 assistance to any competitor of Gaussian, Inc.  The licensee
 of this program is prohibited from giving any competitor of
 Gaussian, Inc. access to this program.  By using this program,
 the user acknowledges that Gaussian, Inc. is engaged in the
 business of creating and licensing software in the field of
 computational chemistry and represents and warrants to the
 licensee that it is not a competitor of Gaussian, Inc. and that
 it will not use this program in any manner prohibited above.
 ---------------------------------------------------------------
  

 Cite this work as:
 Gaussian 16, Revision A.03,
 M. J. Frisch, G. W. Trucks, H. B. Schlegel, G. E. Scuseria, 
 M. A. Robb, J. R. Cheeseman, G. Scalmani, V. Barone, 
 G. A. Petersson, H. Nakatsuji, X. Li, M. Caricato, A. V. Marenich, 
 J. Bloino, B. G. Janesko, R. Gomperts, B. Mennucci, H. P. Hratchian, 
 J. V. Ortiz, A. F. Izmaylov, J. L. Sonnenberg, D. Williams-Young, 
 F. Ding, F. Lipparini, F. Egidi, J. Goings, B. Peng, A. Petrone, 
 T. Henderson, D. Ranasinghe, V. G. Zakrzewski, J. Gao, N. Rega, 
 G. Zheng, W. Liang, M. Hada, M. Ehara, K. Toyota, R. Fukuda, 
 J. Hasegawa, M. Ishida, T. Nakajima, Y. Honda, O. Kitao, H. Nakai, 
 T. Vreven, K. Throssell, J. A. Montgomery, Jr., J. E. Peralta, 
 F. Ogliaro, M. J. Bearpark, J. J. Heyd, E. N. Brothers, K. N. Kudin, 
 V. N. Staroverov, T. A. Keith, R. Kobayashi, J. Normand, 
 K. Raghavachari, A. P. Rendell, J. C. Burant, S. S. Iyengar, 
 J. Tomasi, M. Cossi, J. M. Millam, M. Klene, C. Adamo, R. Cammi, 
 J. W. Ochterski, R. L. Martin, K. Morokuma, O. Farkas, 
 J. B. Foresman, and D. J. Fox, Gaussian, Inc., Wallingford CT, 2016.
 
 ******************************************
 Gaussian 16:  EM64W-G16RevA.03 17-Dec-2016
                03-Dec-2025 
 ******************************************
 %nprocs=   4
 Will use up to    4 processors via shared memory.
 ------------------------------------
 #P B3LYP/6-31G* SCF=conver=7 out=wfn
 ------------------------------------
 1/38=1,172=1/1;
 2/12=2,17=6,18=5,40=1/2;
 3/5=1,6=6,7=1,11=2,25=1,30=1,74=-5/1,2,3;
 4//1;
 5/5=2,6=7,38=5/2;
 6/7=2,8=2,9=2,10=2,28=1/1;
 99/5=1,6=100,9=1/99;
 Leave Link    1 at Wed Dec 03 16:08:00 2025, MaxMem=           0 cpu:               0.0 elap:               0.1
 (Enter D:\Gaussian\G16W\l101.exe)
 ----------------------------------------------------
 Generated by Multiwfn (http://sobereva.com/multiwfn)
 ----------------------------------------------------
 Symbolic Z-matrix:
 Charge = -1 Multiplicity = 1
 C                    -2.30269  -0.78311  -0.00003 
 C                    -1.90973   0.56612  -0.00003 
 C                    -0.56357   0.90567  -0.00001 
 C                     0.42348  -0.10245  0. 
 C                     0.05425  -1.45015  -0.00001 
 C                    -1.29925  -1.71516  -0.00002 
 H                    -3.3522   -1.05207  -0.00004 
 H                    -2.64377   1.3638   -0.00004 
 O                     1.70793   0.3812    0.00001 
 C                     2.78186  -0.55087   0.00007 
 H                     2.75724  -1.1819    0.89471 
 H                     2.75732  -1.18193  -0.89454 
 O                    -0.19355   2.21756  -0.00001 
 H                     0.77233   2.24174   0. 
 H                     3.69503   0.04162   0.0001 
 H                     0.79281  -2.24166   0. 
 
 ITRead=  0  0  0  0  0  0  0  0  0  0  0  0  0  0  0  0
 MicOpt= -1 -1 -1 -1 -1 -1 -1 -1 -1 -1 -1 -1 -1 -1 -1 -1
 NAtoms=     16 NQM=       16 NQMF=       0 NMMI=      0 NMMIF=      0
                NMic=       0 NMicF=      0.
                    Isotopes and Nuclear Properties:
 (Nuclear quadrupole moments (NQMom) in fm**2, nuclear magnetic moments (NMagM)
  in nuclear magnetons)

  Atom         1           2           3           4           5           6           7           8           9          10
 IAtWgt=          12          12          12          12          12          12           1           1          16          12
 AtmWgt=  12.0000000  12.0000000  12.0000000  12.0000000  12.0000000  12.0000000   1.0078250   1.0078250  15.9949146  12.0000000
 NucSpn=           0           0           0           0           0           0           1           1           0           0
 AtZEff=   0.0000000   0.0000000   0.0000000   0.0000000   0.0000000   0.0000000   0.0000000   0.0000000   0.0000000   0.0000000
 NQMom=    0.0000000   0.0000000   0.0000000   0.0000000   0.0000000   0.0000000   0.0000000   0.0000000   0.0000000   0.0000000
 NMagM=    0.0000000   0.0000000   0.0000000   0.0000000   0.0000000   0.0000000   2.7928460   2.7928460   0.0000000   0.0000000
 AtZNuc=   6.0000000   6.0000000   6.0000000   6.0000000   6.0000000   6.0000000   1.0000000   1.0000000   8.0000000   6.0000000

  Atom        11          12          13          14          15          16
 IAtWgt=           1           1          16           1           1           1
 AtmWgt=   1.0078250   1.0078250  15.9949146   1.0078250   1.0078250   1.0078250
 NucSpn=           1           1           0           1           1           1
 AtZEff=   0.0000000   0.0000000   0.0000000   0.0000000   0.0000000   0.0000000
 NQMom=    0.0000000   0.0000000   0.0000000   0.0000000   0.0000000   0.0000000
 NMagM=    2.7928460   2.7928460   0.0000000   2.7928460   2.7928460   2.7928460
 AtZNuc=   1.0000000   1.0000000   8.0000000   1.0000000   1.0000000   1.0000000
 Leave Link  101 at Wed Dec 03 16:08:00 2025, MaxMem=   104857600 cpu:               0.0 elap:               0.1
 (Enter D:\Gaussian\G16W\l202.exe)
                          Input orientation:                          
 ---------------------------------------------------------------------
 Center     Atomic      Atomic             Coordinates (Angstroms)
 Number     Number       Type             X           Y           Z
 ---------------------------------------------------------------------
      1          6           0       -2.302692   -0.783106   -0.000032
      2          6           0       -1.909728    0.566122   -0.000029
      3          6           0       -0.563568    0.905669   -0.000014
      4          6           0        0.423481   -0.102448   -0.000002
      5          6           0        0.054254   -1.450148   -0.000005
      6          6           0       -1.299247   -1.715162   -0.000020
      7          1           0       -3.352196   -1.052069   -0.000043
      8          1           0       -2.643774    1.363796   -0.000038
      9          8           0        1.707933    0.381199    0.000008
     10          6           0        2.781859   -0.550870    0.000074
     11          1           0        2.757240   -1.181895    0.894706
     12          1           0        2.757321   -1.181929   -0.894536
     13          8           0       -0.193547    2.217557   -0.000011
     14          1           0        0.772325    2.241741    0.000002
     15          1           0        3.695032    0.041619    0.000103
     16          1           0        0.792813   -2.241661    0.000002
 ---------------------------------------------------------------------
                    Distance matrix (angstroms):
                    1          2          3          4          5
     1  C    0.000000
     2  C    1.405289   0.000000
     3  C    2.424152   1.388322   0.000000
     4  C    2.809860   2.427107   1.410874   0.000000
     5  C    2.449518   2.814706   2.435483   1.397363   0.000000
     6  C    1.369537   2.361555   2.722128   2.359796   1.379202
     7  H    1.083420   2.167777   3.407225   3.893266   3.429631
     8  H    2.173827   1.084024   2.130056   3.399695   3.898415
     9  O    4.176209   3.622384   2.331263   1.372491   2.467486
    10  C    5.089852   4.822723   3.648752   2.400631   2.872025
    11  H    5.153882   5.063270   4.023209   2.722524   2.859825
    12  H    5.153924   5.063316   4.023250   2.722550   2.859842
    13  O    3.667761   2.381704   1.363072   2.400655   3.676067
    14  H    4.313401   3.162453   1.889365   2.370003   3.761073
    15  H    6.054161   5.629248   4.345372   3.274722   3.934544
    16  H    3.421920   3.897098   3.427164   2.170861   1.082572
                    6          7          8          9         10
     6  C    0.000000
     7  H    2.157381   0.000000
     8  H    3.359722   2.517591   0.000000
     9  O    3.665769   5.259198   4.461261   0.000000
    10  C    4.243937   6.154497   5.753559   1.421995   0.000000
    11  H    4.188078   6.175973   6.037554   2.084417   1.095064
    12  H    4.188107   6.176016   6.037605   2.084417   1.095064
    13  O    4.085199   4.546154   2.594710   2.643452   4.064139
    14  H    4.466373   5.278339   3.527112   2.082541   3.440480
    15  H    5.294252   7.131590   6.475231   2.015906   1.088544
    16  H    2.157294   4.312334   4.980909   2.777920   2.610570
                   11         12         13         14         15
    11  H    0.000000
    12  H    1.789242   0.000000
    13  O    4.589546   4.589586   0.000000
    14  H    4.057298   4.057330   0.966175   0.000000
    15  H    1.782345   1.782344   4.455979   3.658245   0.000000
    16  H    2.404698   2.404687   4.567005   4.483449   3.692728
                   16
    16  H    0.000000
 Stoichiometry    C7H7O2(1-)
 Framework group  C1[X(C7H7O2)]
 Deg. of freedom    42
 Full point group                 C1      NOp   1
 Largest Abelian subgroup         C1      NOp   1
 Largest concise Abelian subgroup C1      NOp   1
                         Standard orientation:                         
 ---------------------------------------------------------------------
 Center     Atomic      Atomic             Coordinates (Angstroms)
 Number     Number       Type             X           Y           Z
 ---------------------------------------------------------------------
      1          6           0       -2.302692   -0.783106   -0.000032
      2          6           0       -1.909728    0.566122   -0.000029
      3          6           0       -0.563568    0.905669   -0.000014
      4          6           0        0.423481   -0.102448   -0.000002
      5          6           0        0.054254   -1.450148   -0.000005
      6          6           0       -1.299247   -1.715162   -0.000020
      7          1           0       -3.352196   -1.052069   -0.000043
      8          1           0       -2.643774    1.363796   -0.000038
      9          8           0        1.707933    0.381199    0.000008
     10          6           0        2.781859   -0.550869    0.000074
     11          1           0        2.757240   -1.181894    0.894706
     12          1           0        2.757321   -1.181928   -0.894536
     13          8           0       -0.193547    2.217557   -0.000011
     14          1           0        0.772325    2.241741    0.000002
     15          1           0        3.695032    0.041620    0.000103
     16          1           0        0.792813   -2.241661    0.000002
 ---------------------------------------------------------------------
 Rotational constants (GHZ):           2.7533954           1.5588935           1.0017186
 Leave Link  202 at Wed Dec 03 16:08:00 2025, MaxMem=   104857600 cpu:               0.0 elap:               0.1
 (Enter D:\Gaussian\G16W\l301.exe)
 Standard basis: 6-31G(d) (6D, 7F)
 Ernie: Thresh=  0.10000D-02 Tol=  0.10000D-05 Strict=F.
 There are   149 symmetry adapted cartesian basis functions of A   symmetry.
 There are   149 symmetry adapted basis functions of A   symmetry.
   149 basis functions,   280 primitive gaussians,   149 cartesian basis functions
    33 alpha electrons       33 beta electrons
       nuclear repulsion energy       422.2223138708 Hartrees.
 IExCor=  402 DFT=T Ex+Corr=B3LYP ExCW=0 ScaHFX=  0.200000
 ScaDFX=  0.800000  0.720000  1.000000  0.810000 ScalE2=  1.000000  1.000000
 IRadAn=      5 IRanWt=     -1 IRanGd=            0 ICorTp=0 IEmpDi=  4
 NAtoms=   16 NActive=   16 NUniq=   16 SFac= 1.00D+00 NAtFMM=   60 NAOKFM=F Big=F
 Integral buffers will be    131072 words long.
 Raffenetti 2 integral format.
 Two-electron integral symmetry is turned on.
 Leave Link  301 at Wed Dec 03 16:08:00 2025, MaxMem=   104857600 cpu:               0.0 elap:               0.1
 (Enter D:\Gaussian\G16W\l302.exe)
 NPDir=0 NMtPBC=     1 NCelOv=     1 NCel=       1 NClECP=     1 NCelD=      1
         NCelK=      1 NCelE2=     1 NClLst=     1 CellRange=     0.0.
 One-electron integrals computed using PRISM.
 One-electron integral symmetry used in STVInt
 NBasis=   149 RedAO= T EigKep=  5.26D-04  NBF=   149
 NBsUse=   149 1.00D-06 EigRej= -1.00D+00 NBFU=   149
 Precomputing XC quadrature grid using
 IXCGrd= 4 IRadAn=           5 IRanWt=          -1 IRanGd=           0 AccXCQ= 0.00D+00.
 Generated NRdTot=       0 NPtTot=           0 NUsed=           0 NTot=          32
 NSgBfM=   149   149   149   149   149 MxSgAt=    16 MxSgA2=    16.
 Leave Link  302 at Wed Dec 03 16:08:00 2025, MaxMem=   104857600 cpu:               0.0 elap:               0.3
 (Enter D:\Gaussian\G16W\l303.exe)
 DipDrv:  MaxL=1.
 Leave Link  303 at Wed Dec 03 16:08:00 2025, MaxMem=   104857600 cpu:               0.0 elap:               0.1
 (Enter D:\Gaussian\G16W\l401.exe)
 ExpMin= 1.61D-01 ExpMax= 5.48D+03 ExpMxC= 8.25D+02 IAcc=3 IRadAn=         5 AccDes= 0.00D+00
 Harris functional with IExCor=  402 and IRadAn=       5 diagonalized for initial guess.
 HarFok:  IExCor=  402 AccDes= 0.00D+00 IRadAn=         5 IDoV= 1 UseB2=F ITyADJ=14
 ICtDFT=  3500011 ScaDFX=  1.000000  1.000000  1.000000  1.000000
 FoFCou: FMM=F IPFlag=           0 FMFlag=      100000 FMFlg1=           0
         NFxFlg=           0 DoJE=T BraDBF=F KetDBF=T FulRan=T
         wScrn=  0.000000 ICntrl=       500 IOpCl=  0 I1Cent=   200000004 NGrid=           0
         NMat0=    1 NMatS0=      1 NMatT0=    0 NMatD0=    1 NMtDS0=    0 NMtDT0=    0
 Petite list used in FoFCou.
 Harris En= -421.547437100790    
 JPrj=0 DoOrth=F DoCkMO=F.
 Leave Link  401 at Wed Dec 03 16:08:01 2025, MaxMem=   104857600 cpu:               1.0 elap:               0.9
 (Enter D:\Gaussian\G16W\l502.exe)
 Keep R1 ints in memory in canonical form, NReq=66347889.
 FoFCou: FMM=F IPFlag=           0 FMFlag=           0 FMFlg1=           0
         NFxFlg=           0 DoJE=F BraDBF=F KetDBF=F FulRan=T
         wScrn=  0.000000 ICntrl=       600 IOpCl=  0 I1Cent=           0 NGrid=           0
         NMat0=    1 NMatS0=  11175 NMatT0=    0 NMatD0=    1 NMtDS0=    0 NMtDT0=    0
 Symmetry not used in FoFCou.
 Two-electron integral symmetry not used.
 Closed shell SCF:
 Using DIIS extrapolation, IDIIS=  1040.
 NGot=   104857600 LenX=    42364643 LenY=    42342001
 Requested convergence on RMS density matrix=1.00D-07 within 128 cycles.
 Requested convergence on MAX density matrix=1.00D-05.
 Requested convergence on             energy=1.00D-05.
 No special actions if energy rises.
 Integral accuracy reduced to 1.0D-05 until final iterations.

 Cycle   1  Pass 0  IDiag  1:
 E= -420.918310547501    
 DIIS: error= 4.53D-02 at cycle   1 NSaved=   1.
 NSaved= 1 IEnMin= 1 EnMin= -420.918310547501     IErMin= 1 ErrMin= 4.53D-02
 ErrMax= 4.53D-02  0.00D+00 EMaxC= 1.00D-01 BMatC= 3.32D-01 BMatP= 3.32D-01
 IDIUse=3 WtCom= 5.47D-01 WtEn= 4.53D-01
 Coeff-Com:  0.100D+01
 Coeff-En:   0.100D+01
 Coeff:      0.100D+01
 Gap=    -0.020 Goal=   None    Shift=    0.000
 GapD=   -0.020 DampG=0.250 DampE=0.500 DampFc=0.2500 IDamp=-1.
 Damping current iteration by 2.50D-01
 RMSDP=4.99D-02 MaxDP=2.10D+00              OVMax= 9.86D-01

 Cycle   2  Pass 0  IDiag  1:
 E= -420.991237127998     Delta-E=       -0.072926580497 Rises=F Damp=T
 DIIS: error= 2.25D-02 at cycle   2 NSaved=   2.
 NSaved= 2 IEnMin= 2 EnMin= -420.991237127998     IErMin= 2 ErrMin= 2.25D-02
 ErrMax= 2.25D-02  0.00D+00 EMaxC= 1.00D-01 BMatC= 6.92D-02 BMatP= 3.32D-01
 IDIUse=3 WtCom= 7.75D-01 WtEn= 2.25D-01
 Coeff-Com: -0.308D+00 0.131D+01
 Coeff-En:   0.300D+00 0.700D+00
 Coeff:     -0.171D+00 0.117D+01
 Gap=     0.010 Goal=   None    Shift=    0.000
 RMSDP=1.34D-02 MaxDP=5.56D-01 DE=-7.29D-02 OVMax= 9.65D-01

 Cycle   3  Pass 0  IDiag  1:
 E= -421.105053341351     Delta-E=       -0.113816213353 Rises=F Damp=F
 DIIS: error= 2.72D-02 at cycle   3 NSaved=   3.
 NSaved= 3 IEnMin= 3 EnMin= -421.105053341351     IErMin= 2 ErrMin= 2.25D-02
 ErrMax= 2.72D-02  0.00D+00 EMaxC= 1.00D-01 BMatC= 1.60D-01 BMatP= 6.92D-02
 IDIUse=2 WtCom= 0.00D+00 WtEn= 1.00D+00
 Coeff-En:   0.000D+00 0.280D+00 0.720D+00
 Coeff:      0.000D+00 0.280D+00 0.720D+00
 Gap=     0.252 Goal=   None    Shift=    0.000
 RMSDP=2.77D-02 MaxDP=1.18D+00 DE=-1.14D-01 OVMax= 9.81D-01

 Cycle   4  Pass 0  IDiag  1:
 E= -419.513581817304     Delta-E=        1.591471524047 Rises=F Damp=F
 DIIS: error= 7.28D-02 at cycle   4 NSaved=   4.
 NSaved= 4 IEnMin= 3 EnMin= -421.105053341351     IErMin= 2 ErrMin= 2.25D-02
 ErrMax= 7.28D-02  0.00D+00 EMaxC= 1.00D-01 BMatC= 9.27D-01 BMatP= 6.92D-02
 IDIUse=2 WtCom= 0.00D+00 WtEn= 1.00D+00
 Coeff-En:   0.000D+00 0.000D+00 0.844D+00 0.156D+00
 Coeff:      0.000D+00 0.000D+00 0.844D+00 0.156D+00
 Gap=    -0.047 Goal=   None    Shift=    0.000
 RMSDP=2.67D-02 MaxDP=1.20D+00 DE= 1.59D+00 OVMax= 9.66D-01

 Cycle   5  Pass 0  IDiag  1:
 E= -421.217690825062     Delta-E=       -1.704109007758 Rises=F Damp=F
 DIIS: error= 1.70D-02 at cycle   5 NSaved=   5.
 NSaved= 5 IEnMin= 5 EnMin= -421.217690825062     IErMin= 5 ErrMin= 1.70D-02
 ErrMax= 1.70D-02  0.00D+00 EMaxC= 1.00D-01 BMatC= 7.94D-02 BMatP= 6.92D-02
 IDIUse=2 WtCom= 0.00D+00 WtEn= 1.00D+00
 Coeff-En:   0.000D+00 0.000D+00 0.316D+00 0.000D+00 0.684D+00
 Coeff:      0.000D+00 0.000D+00 0.316D+00 0.000D+00 0.684D+00
 Gap=     0.128 Goal=   None    Shift=    0.000
 RMSDP=3.18D-03 MaxDP=5.53D-02 DE=-1.70D+00 OVMax= 1.15D-01

 Cycle   6  Pass 0  IDiag  1:
 E= -421.282203889737     Delta-E=       -0.064513064675 Rises=F Damp=F
 DIIS: error= 6.71D-03 at cycle   6 NSaved=   6.
 NSaved= 6 IEnMin= 6 EnMin= -421.282203889737     IErMin= 6 ErrMin= 6.71D-03
 ErrMax= 6.71D-03  0.00D+00 EMaxC= 1.00D-01 BMatC= 1.24D-02 BMatP= 6.92D-02
 IDIUse=3 WtCom= 9.33D-01 WtEn= 6.71D-02
 Coeff-Com: -0.362D-01 0.704D-01 0.113D+00-0.752D-02 0.336D+00 0.524D+00
 Coeff-En:   0.000D+00 0.000D+00 0.000D+00 0.000D+00 0.137D+00 0.863D+00
 Coeff:     -0.337D-01 0.657D-01 0.106D+00-0.701D-02 0.323D+00 0.546D+00
 Gap=     0.121 Goal=   None    Shift=    0.000
 RMSDP=8.85D-04 MaxDP=1.79D-02 DE=-6.45D-02 OVMax= 3.67D-02

 Cycle   7  Pass 0  IDiag  1:
 E= -421.292982792520     Delta-E=       -0.010778902783 Rises=F Damp=F
 DIIS: error= 1.47D-03 at cycle   7 NSaved=   7.
 NSaved= 7 IEnMin= 7 EnMin= -421.292982792520     IErMin= 7 ErrMin= 1.47D-03
 ErrMax= 1.47D-03  0.00D+00 EMaxC= 1.00D-01 BMatC= 5.13D-04 BMatP= 1.24D-02
 IDIUse=3 WtCom= 9.85D-01 WtEn= 1.47D-02
 Coeff-Com: -0.362D-02 0.271D-02 0.209D-03-0.370D-02 0.110D+00 0.315D+00
 Coeff-Com:  0.580D+00
 Coeff-En:   0.000D+00 0.000D+00 0.000D+00 0.000D+00 0.000D+00 0.000D+00
 Coeff-En:   0.100D+01
 Coeff:     -0.357D-02 0.267D-02 0.206D-03-0.365D-02 0.108D+00 0.310D+00
 Coeff:      0.586D+00
 Gap=     0.120 Goal=   None    Shift=    0.000
 RMSDP=1.97D-04 MaxDP=3.62D-03 DE=-1.08D-02 OVMax= 6.10D-03

 Cycle   8  Pass 0  IDiag  1:
 E= -421.293450677160     Delta-E=       -0.000467884640 Rises=F Damp=F
 DIIS: error= 3.29D-04 at cycle   8 NSaved=   8.
 NSaved= 8 IEnMin= 8 EnMin= -421.293450677160     IErMin= 8 ErrMin= 3.29D-04
 ErrMax= 3.29D-04  0.00D+00 EMaxC= 1.00D-01 BMatC= 2.17D-05 BMatP= 5.13D-04
 IDIUse=3 WtCom= 9.97D-01 WtEn= 3.29D-03
 Coeff-Com:  0.230D-02-0.362D-02-0.446D-02-0.667D-04 0.130D-01 0.693D-01
 Coeff-Com:  0.239D+00 0.685D+00
 Coeff-En:   0.000D+00 0.000D+00 0.000D+00 0.000D+00 0.000D+00 0.000D+00
 Coeff-En:   0.000D+00 0.100D+01
 Coeff:      0.229D-02-0.361D-02-0.445D-02-0.665D-04 0.130D-01 0.691D-01
 Coeff:      0.238D+00 0.686D+00
 Gap=     0.121 Goal=   None    Shift=    0.000
 RMSDP=5.64D-05 MaxDP=9.31D-04 DE=-4.68D-04 OVMax= 1.81D-03

 Cycle   9  Pass 0  IDiag  1:
 E= -421.293468727104     Delta-E=       -0.000018049944 Rises=F Damp=F
 DIIS: error= 9.90D-05 at cycle   9 NSaved=   9.
 NSaved= 9 IEnMin= 9 EnMin= -421.293468727104     IErMin= 9 ErrMin= 9.90D-05
 ErrMax= 9.90D-05  0.00D+00 EMaxC= 1.00D-01 BMatC= 3.18D-06 BMatP= 2.17D-05
 IDIUse=1 WtCom= 1.00D+00 WtEn= 0.00D+00
 Coeff-Com:  0.757D-03-0.605D-03-0.195D-02-0.107D-03-0.768D-03 0.133D-01
 Coeff-Com:  0.939D-01 0.376D+00 0.520D+00
 Coeff:      0.757D-03-0.605D-03-0.195D-02-0.107D-03-0.768D-03 0.133D-01
 Coeff:      0.939D-01 0.376D+00 0.520D+00
 Gap=     0.121 Goal=   None    Shift=    0.000
 RMSDP=1.48D-05 MaxDP=2.53D-04 DE=-1.80D-05 OVMax= 4.46D-04

 Cycle  10  Pass 0  IDiag  1:
 E= -421.293471554379     Delta-E=       -0.000002827275 Rises=F Damp=F
 DIIS: error= 2.81D-05 at cycle  10 NSaved=  10.
 NSaved=10 IEnMin=10 EnMin= -421.293471554379     IErMin=10 ErrMin= 2.81D-05
 ErrMax= 2.81D-05  0.00D+00 EMaxC= 1.00D-01 BMatC= 9.98D-08 BMatP= 3.18D-06
 IDIUse=1 WtCom= 1.00D+00 WtEn= 0.00D+00
 Coeff-Com:  0.341D-03-0.415D-03-0.298D-03 0.304D-04-0.159D-02-0.202D-02
 Coeff-Com:  0.123D-01 0.750D-01 0.196D+00 0.721D+00
 Coeff:      0.341D-03-0.415D-03-0.298D-03 0.304D-04-0.159D-02-0.202D-02
 Coeff:      0.123D-01 0.750D-01 0.196D+00 0.721D+00
 Gap=     0.121 Goal=   None    Shift=    0.000
 RMSDP=3.66D-06 MaxDP=8.59D-05 DE=-2.83D-06 OVMax= 1.41D-04

 Initial convergence to 1.0D-05 achieved.  Increase integral accuracy.
 Cycle  11  Pass 1  IDiag  1:
 E= -421.293447577200     Delta-E=        0.000023977179 Rises=F Damp=F
 DIIS: error= 8.92D-06 at cycle   1 NSaved=   1.
 NSaved= 1 IEnMin= 1 EnMin= -421.293447577200     IErMin= 1 ErrMin= 8.92D-06
 ErrMax= 8.92D-06  0.00D+00 EMaxC= 1.00D-01 BMatC= 1.75D-08 BMatP= 1.75D-08
 IDIUse=1 WtCom= 1.00D+00 WtEn= 0.00D+00
 Coeff-Com:  0.100D+01
 Coeff:      0.100D+01
 Gap=     0.121 Goal=   None    Shift=    0.000
 RMSDP=3.66D-06 MaxDP=8.59D-05 DE= 2.40D-05 OVMax= 1.35D-04

 Cycle  12  Pass 1  IDiag  1:
 E= -421.293447570221     Delta-E=        0.000000006978 Rises=F Damp=F
 DIIS: error= 1.14D-05 at cycle   2 NSaved=   2.
 NSaved= 2 IEnMin= 1 EnMin= -421.293447577200     IErMin= 1 ErrMin= 8.92D-06
 ErrMax= 1.14D-05  0.00D+00 EMaxC= 1.00D-01 BMatC= 3.26D-08 BMatP= 1.75D-08
 IDIUse=1 WtCom= 1.00D+00 WtEn= 0.00D+00
 Coeff-Com:  0.588D+00 0.412D+00
 Coeff:      0.588D+00 0.412D+00
 Gap=     0.121 Goal=   None    Shift=    0.000
 RMSDP=1.74D-06 MaxDP=2.57D-05 DE= 6.98D-09 OVMax= 6.54D-05

 Cycle  13  Pass 1  IDiag  1:
 E= -421.293447600108     Delta-E=       -0.000000029887 Rises=F Damp=F
 DIIS: error= 2.44D-06 at cycle   3 NSaved=   3.
 NSaved= 3 IEnMin= 3 EnMin= -421.293447600108     IErMin= 3 ErrMin= 2.44D-06
 ErrMax= 2.44D-06  0.00D+00 EMaxC= 1.00D-01 BMatC= 1.07D-09 BMatP= 1.75D-08
 IDIUse=1 WtCom= 1.00D+00 WtEn= 0.00D+00
 Coeff-Com:  0.596D-01 0.154D+00 0.787D+00
 Coeff:      0.596D-01 0.154D+00 0.787D+00
 Gap=     0.121 Goal=   None    Shift=    0.000
 RMSDP=4.49D-07 MaxDP=7.76D-06 DE=-2.99D-08 OVMax= 1.97D-05

 Cycle  14  Pass 1  IDiag  1:
 E= -421.293447600735     Delta-E=       -0.000000000627 Rises=F Damp=F
 DIIS: error= 1.85D-06 at cycle   4 NSaved=   4.
 NSaved= 4 IEnMin= 4 EnMin= -421.293447600735     IErMin= 4 ErrMin= 1.85D-06
 ErrMax= 1.85D-06  0.00D+00 EMaxC= 1.00D-01 BMatC= 4.71D-10 BMatP= 1.07D-09
 IDIUse=1 WtCom= 1.00D+00 WtEn= 0.00D+00
 Coeff-Com: -0.169D-01 0.578D-01 0.496D+00 0.463D+00
 Coeff:     -0.169D-01 0.578D-01 0.496D+00 0.463D+00
 Gap=     0.121 Goal=   None    Shift=    0.000
 RMSDP=1.85D-07 MaxDP=6.09D-06 DE=-6.27D-10 OVMax= 1.06D-05

 Cycle  15  Pass 1  IDiag  1:
 E= -421.293447601216     Delta-E=       -0.000000000481 Rises=F Damp=F
 DIIS: error= 2.72D-07 at cycle   5 NSaved=   5.
 NSaved= 5 IEnMin= 5 EnMin= -421.293447601216     IErMin= 5 ErrMin= 2.72D-07
 ErrMax= 2.72D-07  0.00D+00 EMaxC= 1.00D-01 BMatC= 1.13D-11 BMatP= 4.71D-10
 IDIUse=1 WtCom= 1.00D+00 WtEn= 0.00D+00
 Coeff-Com: -0.946D-02 0.170D-01 0.173D+00 0.215D+00 0.605D+00
 Coeff:     -0.946D-02 0.170D-01 0.173D+00 0.215D+00 0.605D+00
 Gap=     0.121 Goal=   None    Shift=    0.000
 RMSDP=5.26D-08 MaxDP=9.63D-07 DE=-4.81D-10 OVMax= 1.72D-06

 SCF Done:  E(RB3LYP) =  -421.293447601     A.U. after   15 cycles
            NFock= 15  Conv=0.53D-07     -V/T= 2.0080
 KE= 4.179531193550D+02 PE=-1.839463691740D+03 EE= 5.779948109134D+02
 Leave Link  502 at Wed Dec 03 16:08:13 2025, MaxMem=   104857600 cpu:              12.0 elap:              11.7
 (Enter D:\Gaussian\G16W\l601.exe)
 Copying SCF densities to generalized density rwf, IOpCl= 0 IROHF=0.

 **********************************************************************

            Population analysis using the SCF density.

 **********************************************************************

 Orbital symmetries:
       Occupied  (A) (A) (A) (A) (A) (A) (A) (A) (A) (A) (A) (A)
                 (A) (A) (A) (A) (A) (A) (A) (A) (A) (A) (A) (A)
                 (A) (A) (A) (A) (A) (A) (A) (A) (A)
       Virtual   (A) (A) (A) (A) (A) (A) (A) (A) (A) (A) (A) (A)
                 (A) (A) (A) (A) (A) (A) (A) (A) (A) (A) (A) (A)
                 (A) (A) (A) (A) (A) (A) (A) (A) (A) (A) (A) (A)
                 (A) (A) (A) (A) (A) (A) (A) (A) (A) (A) (A) (A)
                 (A) (A) (A) (A) (A) (A) (A) (A) (A) (A) (A) (A)
                 (A) (A) (A) (A) (A) (A) (A) (A) (A) (A) (A) (A)
                 (A) (A) (A) (A) (A) (A) (A) (A) (A) (A) (A) (A)
                 (A) (A) (A) (A) (A) (A) (A) (A) (A) (A) (A) (A)
                 (A) (A) (A) (A) (A) (A) (A) (A) (A) (A) (A) (A)
                 (A) (A) (A) (A) (A) (A) (A) (A)
 The electronic state is 1-A.
 Alpha  occ. eigenvalues --  -19.02036 -18.99581 -10.11091 -10.04474 -10.04123
 Alpha  occ. eigenvalues --   -9.98232  -9.97058  -9.96091  -9.88210  -0.90934
 Alpha  occ. eigenvalues --   -0.87498  -0.63446  -0.58405  -0.52870  -0.49935
 Alpha  occ. eigenvalues --   -0.42095  -0.38996  -0.36951  -0.32924  -0.31744
 Alpha  occ. eigenvalues --   -0.30156  -0.27421  -0.23194  -0.22970  -0.21034
 Alpha  occ. eigenvalues --   -0.20079  -0.18053  -0.17625  -0.14400  -0.11440
 Alpha  occ. eigenvalues --   -0.03485   0.00299   0.08940
 Alpha virt. eigenvalues --    0.21018   0.22773   0.23449   0.24230   0.27178
 Alpha virt. eigenvalues --    0.29351   0.29883   0.30697   0.33669   0.35787
 Alpha virt. eigenvalues --    0.39782   0.41343   0.47019   0.49793   0.52994
 Alpha virt. eigenvalues --    0.55444   0.59226   0.65783   0.67476   0.69382
 Alpha virt. eigenvalues --    0.69936   0.72465   0.73781   0.76164   0.78926
 Alpha virt. eigenvalues --    0.80102   0.80506   0.80843   0.83610   0.85497
 Alpha virt. eigenvalues --    0.86108   0.88317   0.89719   0.90304   0.90999
 Alpha virt. eigenvalues --    0.95827   0.96289   0.98094   1.00763   1.03775
 Alpha virt. eigenvalues --    1.04362   1.06240   1.08929   1.09401   1.11379
 Alpha virt. eigenvalues --    1.12977   1.15189   1.17927   1.20604   1.22150
 Alpha virt. eigenvalues --    1.25561   1.29333   1.32940   1.36860   1.41806
 Alpha virt. eigenvalues --    1.43638   1.45370   1.51507   1.52347   1.54385
 Alpha virt. eigenvalues --    1.58703   1.65090   1.65326   1.67382   1.70614
 Alpha virt. eigenvalues --    1.78709   1.80085   1.84235   1.90141   1.95176
 Alpha virt. eigenvalues --    1.96756   2.02046   2.04110   2.07484   2.08365
 Alpha virt. eigenvalues --    2.11657   2.11899   2.18720   2.20800   2.21433
 Alpha virt. eigenvalues --    2.24626   2.29707   2.35491   2.37926   2.38612
 Alpha virt. eigenvalues --    2.40985   2.48072   2.48301   2.49358   2.55405
 Alpha virt. eigenvalues --    2.57113   2.62041   2.62630   2.71608   2.74713
 Alpha virt. eigenvalues --    2.78050   2.83670   2.86009   2.90462   2.92663
 Alpha virt. eigenvalues --    2.92827   3.04965   3.07373   3.16736   3.20014
 Alpha virt. eigenvalues --    3.42738   3.63642   4.09895   4.28432   4.31255
 Alpha virt. eigenvalues --    4.37438   4.40938   4.51146   4.58621   4.72779
 Alpha virt. eigenvalues --    5.10724
          Condensed to atoms (all electrons):
               1          2          3          4          5          6
     1  C    4.947493   0.537775   0.006247  -0.045529  -0.054348   0.566242
     2  C    0.537775   5.080804   0.547111  -0.042633  -0.042117  -0.018658
     3  C    0.006247   0.547111   4.851930   0.439789  -0.014543  -0.154990
     4  C   -0.045529  -0.042633   0.439789   4.966903   0.463753   0.011683
     5  C   -0.054348  -0.042117  -0.014543   0.463753   5.137693   0.537113
     6  C    0.566242  -0.018658  -0.154990   0.011683   0.537113   5.312122
     7  H    0.325954  -0.091969   0.001751   0.001568   0.003492  -0.036498
     8  H   -0.057749   0.242953  -0.088636   0.015840  -0.001875   0.021366
     9  O   -0.000449   0.006329  -0.066615   0.132800  -0.065050   0.009680
    10  C    0.000013  -0.000146   0.004362  -0.038401  -0.007721   0.000128
    11  H   -0.000006  -0.000009  -0.000107  -0.000279   0.005448  -0.000108
    12  H   -0.000006  -0.000009  -0.000107  -0.000280   0.005447  -0.000108
    13  O    0.003078  -0.053482   0.261194  -0.067789   0.005017   0.000036
    14  H   -0.000045   0.004606  -0.043300  -0.013630   0.001505  -0.000297
    15  H    0.000000   0.000011  -0.000021   0.000971   0.000607   0.000024
    16  H    0.002264   0.001790  -0.000859  -0.099449   0.328025  -0.028610
               7          8          9         10         11         12
     1  C    0.325954  -0.057749  -0.000449   0.000013  -0.000006  -0.000006
     2  C   -0.091969   0.242953   0.006329  -0.000146  -0.000009  -0.000009
     3  C    0.001751  -0.088636  -0.066615   0.004362  -0.000107  -0.000107
     4  C    0.001568   0.015840   0.132800  -0.038401  -0.000279  -0.000280
     5  C    0.003492  -0.001875  -0.065050  -0.007721   0.005448   0.005447
     6  C   -0.036498   0.021366   0.009680   0.000128  -0.000108  -0.000108
     7  H    0.780231   0.001015   0.000007   0.000000   0.000000   0.000000
     8  H    0.001015   0.856952   0.000025   0.000004   0.000000   0.000000
     9  O    0.000007   0.000025   8.375233   0.268996  -0.039297  -0.039297
    10  C    0.000000   0.000004   0.268996   4.853294   0.359398   0.359400
    11  H    0.000000   0.000000  -0.039297   0.359398   0.633888  -0.054327
    12  H    0.000000   0.000000  -0.039297   0.359400  -0.054327   0.633890
    13  O   -0.000065  -0.003033  -0.012304   0.000303  -0.000023  -0.000023
    14  H    0.000005  -0.000699   0.031042  -0.001702   0.000129   0.000129
    15  H    0.000000   0.000000  -0.036884   0.371880  -0.039174  -0.039175
    16  H   -0.000096   0.000061  -0.002600   0.003991   0.001180   0.001181
              13         14         15         16
     1  C    0.003078  -0.000045   0.000000   0.002264
     2  C   -0.053482   0.004606   0.000011   0.001790
     3  C    0.261194  -0.043300  -0.000021  -0.000859
     4  C   -0.067789  -0.013630   0.000971  -0.099449
     5  C    0.005017   0.001505   0.000607   0.328025
     6  C    0.000036  -0.000297   0.000024  -0.028610
     7  H   -0.000065   0.000005   0.000000  -0.000096
     8  H   -0.003033  -0.000699   0.000000   0.000061
     9  O   -0.012304   0.031042  -0.036884  -0.002600
    10  C    0.000303  -0.001702   0.371880   0.003991
    11  H   -0.000023   0.000129  -0.039174   0.001180
    12  H   -0.000023   0.000129  -0.039175   0.001181
    13  O    8.322809   0.241975   0.000014  -0.000057
    14  H    0.241975   0.391091  -0.000179  -0.000033
    15  H    0.000014  -0.000179   0.627753   0.000335
    16  H   -0.000057  -0.000033   0.000335   0.764625
 Mulliken charges:
               1
     1  C   -0.230932
     2  C   -0.172355
     3  C    0.256794
     4  C    0.274684
     5  C   -0.302445
     6  C   -0.219125
     7  H    0.014605
     8  H    0.013775
     9  O   -0.561617
    10  C   -0.173799
    11  H    0.133285
    12  H    0.133285
    13  O   -0.697651
    14  H    0.389403
    15  H    0.113840
    16  H    0.028252
 Sum of Mulliken charges =  -1.00000
 Mulliken charges with hydrogens summed into heavy atoms:
               1
     1  C   -0.216327
     2  C   -0.158580
     3  C    0.256794
     4  C    0.274684
     5  C   -0.274193
     6  C   -0.219125
     9  O   -0.561617
    10  C    0.206611
    13  O   -0.308248
 Electronic spatial extent (au):  <R**2>=           1163.8446
 Charge=             -1.0000 electrons
 Dipole moment (field-independent basis, Debye):
    X=              6.6617    Y=              3.5995    Z=              0.0002  Tot=              7.5720
 Quadrupole moment (field-independent basis, Debye-Ang):
   XX=            -62.4770   YY=            -73.6487   ZZ=            -56.5519
   XY=             -7.0411   XZ=              0.0000   YZ=             -0.0001
 Traceless Quadrupole moment (field-independent basis, Debye-Ang):
   XX=              1.7489   YY=             -9.4229   ZZ=              7.6740
   XY=             -7.0411   XZ=              0.0000   YZ=             -0.0001
 Octapole moment (field-independent basis, Debye-Ang**2):
  XXX=             43.2036  YYY=             41.7664  ZZZ=              0.0004  XYY=             36.1638
  XXY=             17.1883  XXZ=              0.0006  XZZ=              8.7642  YZZ=              6.6460
  YYZ=              0.0005  XYZ=              0.0002
 Hexadecapole moment (field-independent basis, Debye-Ang**3):
 XXXX=          -1005.3675 YYYY=           -656.6033 ZZZZ=            -62.8831 XXXY=            -32.0979
 XXXZ=             -0.0080 YYYX=            -34.8555 YYYZ=              0.0004 ZZZX=             -0.0087
 ZZZY=              0.0006 XXYY=           -282.6612 XXZZ=           -181.2702 YYZZ=           -104.6549
 XXYZ=              0.0000 YYXZ=             -0.0033 ZZXY=             -3.9298
 N-N= 4.222223138708D+02 E-N=-1.839463701732D+03  KE= 4.179531193550D+02
 No NMR shielding tensors so no spin-rotation constants.
 Leave Link  601 at Wed Dec 03 16:08:13 2025, MaxMem=   104857600 cpu:               0.0 elap:               0.2
 (Enter D:\Gaussian\G16W\l9999.exe)
 1|1|UNPC-PC-20250526LCFF|SP|RB3LYP|6-31G(d)|C7H7O2(1-)|ADMINISTRATOR|0
 3-Dec-2025|0||#P B3LYP/6-31G* SCF=conver=7 out=wfn||Generated by Multi
 wfn (http://sobereva.com/multiwfn)||-1,1|C,0,-2.302692,-0.783106,-0.00
 0032|C,0,-1.909728,0.566122,-0.000029|C,0,-0.563568,0.905669,-0.000014
 |C,0,0.423481,-0.102448,-0.000002|C,0,0.054254,-1.450148,-0.000005|C,0
 ,-1.299247,-1.715162,-0.00002|H,0,-3.352196,-1.052069,-0.000043|H,0,-2
 .643774,1.363796,-0.000038|O,0,1.707933,0.381199,0.000008|C,0,2.781859
 ,-0.55087,0.000074|H,0,2.75724,-1.181895,0.894706|H,0,2.757321,-1.1819
 29,-0.894536|O,0,-0.193547,2.217557,-0.000011|H,0,0.772325,2.241741,0.
 000002|H,0,3.695032,0.041619,0.000103|H,0,0.792813,-2.241661,0.000002|
 |Version=EM64W-G16RevA.03|State=1-A|HF=-421.2934476|RMSD=5.264e-008|Di
 pole=2.6209245,1.4161338,0.0000614|Quadrupole=1.3002607,-7.005665,5.70
 54042,-5.2348845,0.0000127,-0.0000656|PG=C01 [X(C7H7O2)]||@

 Writing a WFN file to "N+1.wfn"


 IF THE FACTS DO NOT CONFORM TO THE THEORY, THEY MUST BE DISPOSED OF.
 Job cpu time:       0 days  0 hours  0 minutes 13.0 seconds.
 Elapsed time:       0 days  0 hours  0 minutes 13.5 seconds.
 File lengths (MBytes):  RWF=     15 Int=      0 D2E=      0 Chk=      2 Scr=      1
 Normal termination of Gaussian 16 at Wed Dec 03 16:08:13 2025.
