 Generated by Multiwfn (http://sobereva.com/multiwfn)
GAUSSIAN             33 MOL ORBITALS    280 PRIMITIVES       16 NUCLEI
  C    1    (CENTRE  1)  -4.35145706 -1.47985639 -0.00006059  CHARGE =  6.0
  C    2    (CENTRE  2)  -3.60886317  1.06981514 -0.00005492  CHARGE =  6.0
  C    3    (CENTRE  3)  -1.06498956  1.71146642 -0.00002657  CHARGE =  6.0
  C    4    (CENTRE  4)   0.80026306 -0.19359829 -0.00000390  CHARGE =  6.0
  C    5    (CENTRE  5)   0.10252559 -2.74038231 -0.00000956  CHARGE =  6.0
  C    6    (CENTRE  6)  -2.45522052 -3.24118664 -0.00003791  CHARGE =  6.0
  H    7    (CENTRE  7)  -6.33473210 -1.98812315 -0.00008137  CHARGE =  1.0
  H    8    (CENTRE  8)  -4.99600933  2.57720029 -0.00007193  CHARGE =  1.0
  O    9    (CENTRE  9)   3.22752540  0.72036251  0.00001500  CHARGE =  8.0
  C   10    (CENTRE 10)   5.25695172 -1.04099228  0.00013972  CHARGE =  6.0
  H   11    (CENTRE 11)   5.21042876 -2.23345672  1.69074919  CHARGE =  1.0
  H   12    (CENTRE 12)   5.21058183 -2.23352097 -1.69042816  CHARGE =  1.0
  O   13    (CENTRE 13)  -0.36575164  4.19057556 -0.00002090  CHARGE =  8.0
  H   14    (CENTRE 14)   1.45948190  4.23627702  0.00000366  CHARGE =  1.0
  H   15    (CENTRE 15)   6.98259840  0.07864996  0.00019453  CHARGE =  1.0
  H   16    (CENTRE 16)   1.49820009 -4.23612486  0.00000366  CHARGE =  1.0
CENTRE ASSIGNMENTS    1  1  1  1  1  1  1  1  1  1  1  1  1  1  1  1  1  1  1  1
CENTRE ASSIGNMENTS    1  1  1  1  1  1  1  1  2  2  2  2  2  2  2  2  2  2  2  2
CENTRE ASSIGNMENTS    2  2  2  2  2  2  2  2  2  2  2  2  2  2  2  2  3  3  3  3
CENTRE ASSIGNMENTS    3  3  3  3  3  3  3  3  3  3  3  3  3  3  3  3  3  3  3  3
CENTRE ASSIGNMENTS    3  3  3  3  4  4  4  4  4  4  4  4  4  4  4  4  4  4  4  4
CENTRE ASSIGNMENTS    4  4  4  4  4  4  4  4  4  4  4  4  5  5  5  5  5  5  5  5
CENTRE ASSIGNMENTS    5  5  5  5  5  5  5  5  5  5  5  5  5  5  5  5  5  5  5  5
CENTRE ASSIGNMENTS    6  6  6  6  6  6  6  6  6  6  6  6  6  6  6  6  6  6  6  6
CENTRE ASSIGNMENTS    6  6  6  6  6  6  6  6  7  7  7  7  8  8  8  8  9  9  9  9
CENTRE ASSIGNMENTS    9  9  9  9  9  9  9  9  9  9  9  9  9  9  9  9  9  9  9  9
CENTRE ASSIGNMENTS    9  9  9  9 10 10 10 10 10 10 10 10 10 10 10 10 10 10 10 10
CENTRE ASSIGNMENTS   10 10 10 10 10 10 10 10 10 10 10 10 11 11 11 11 12 12 12 12
CENTRE ASSIGNMENTS   13 13 13 13 13 13 13 13 13 13 13 13 13 13 13 13 13 13 13 13
CENTRE ASSIGNMENTS   13 13 13 13 13 13 13 13 14 14 14 14 15 15 15 15 16 16 16 16
TYPE ASSIGNMENTS      1  1  1  1  1  1  1  1  1  2  2  2  3  3  3  4  4  4  1  2
TYPE ASSIGNMENTS      3  4  5  6  7  8  9 10  1  1  1  1  1  1  1  1  1  2  2  2
TYPE ASSIGNMENTS      3  3  3  4  4  4  1  2  3  4  5  6  7  8  9 10  1  1  1  1
TYPE ASSIGNMENTS      1  1  1  1  1  2  2  2  3  3  3  4  4  4  1  2  3  4  5  6
TYPE ASSIGNMENTS      7  8  9 10  1  1  1  1  1  1  1  1  1  2  2  2  3  3  3  4
TYPE ASSIGNMENTS      4  4  1  2  3  4  5  6  7  8  9 10  1  1  1  1  1  1  1  1
TYPE ASSIGNMENTS      1  2  2  2  3  3  3  4  4  4  1  2  3  4  5  6  7  8  9 10
TYPE ASSIGNMENTS      1  1  1  1  1  1  1  1  1  2  2  2  3  3  3  4  4  4  1  2
TYPE ASSIGNMENTS      3  4  5  6  7  8  9 10  1  1  1  1  1  1  1  1  1  1  1  1
TYPE ASSIGNMENTS      1  1  1  1  1  2  2  2  3  3  3  4  4  4  1  2  3  4  5  6
TYPE ASSIGNMENTS      7  8  9 10  1  1  1  1  1  1  1  1  1  2  2  2  3  3  3  4
TYPE ASSIGNMENTS      4  4  1  2  3  4  5  6  7  8  9 10  1  1  1  1  1  1  1  1
TYPE ASSIGNMENTS      1  1  1  1  1  1  1  1  1  2  2  2  3  3  3  4  4  4  1  2
TYPE ASSIGNMENTS      3  4  5  6  7  8  9 10  1  1  1  1  1  1  1  1  1  1  1  1
EXPONENTS  0.3047525D+04 0.4573695D+03 0.1039487D+03 0.2921016D+02 0.9286663D+01
EXPONENTS  0.3163927D+01 0.7868272D+01 0.1881289D+01 0.5442493D+00 0.7868272D+01
EXPONENTS  0.1881289D+01 0.5442493D+00 0.7868272D+01 0.1881289D+01 0.5442493D+00
EXPONENTS  0.7868272D+01 0.1881289D+01 0.5442493D+00 0.1687145D+00 0.1687145D+00
EXPONENTS  0.1687145D+00 0.1687145D+00 0.8000000D+00 0.8000000D+00 0.8000000D+00
EXPONENTS  0.8000000D+00 0.8000000D+00 0.8000000D+00 0.3047525D+04 0.4573695D+03
EXPONENTS  0.1039487D+03 0.2921016D+02 0.9286663D+01 0.3163927D+01 0.7868272D+01
EXPONENTS  0.1881289D+01 0.5442493D+00 0.7868272D+01 0.1881289D+01 0.5442493D+00
EXPONENTS  0.7868272D+01 0.1881289D+01 0.5442493D+00 0.7868272D+01 0.1881289D+01
EXPONENTS  0.5442493D+00 0.1687145D+00 0.1687145D+00 0.1687145D+00 0.1687145D+00
EXPONENTS  0.8000000D+00 0.8000000D+00 0.8000000D+00 0.8000000D+00 0.8000000D+00
EXPONENTS  0.8000000D+00 0.3047525D+04 0.4573695D+03 0.1039487D+03 0.2921016D+02
EXPONENTS  0.9286663D+01 0.3163927D+01 0.7868272D+01 0.1881289D+01 0.5442493D+00
EXPONENTS  0.7868272D+01 0.1881289D+01 0.5442493D+00 0.7868272D+01 0.1881289D+01
EXPONENTS  0.5442493D+00 0.7868272D+01 0.1881289D+01 0.5442493D+00 0.1687145D+00
EXPONENTS  0.1687145D+00 0.1687145D+00 0.1687145D+00 0.8000000D+00 0.8000000D+00
EXPONENTS  0.8000000D+00 0.8000000D+00 0.8000000D+00 0.8000000D+00 0.3047525D+04
EXPONENTS  0.4573695D+03 0.1039487D+03 0.2921016D+02 0.9286663D+01 0.3163927D+01
EXPONENTS  0.7868272D+01 0.1881289D+01 0.5442493D+00 0.7868272D+01 0.1881289D+01
EXPONENTS  0.5442493D+00 0.7868272D+01 0.1881289D+01 0.5442493D+00 0.7868272D+01
EXPONENTS  0.1881289D+01 0.5442493D+00 0.1687145D+00 0.1687145D+00 0.1687145D+00
EXPONENTS  0.1687145D+00 0.8000000D+00 0.8000000D+00 0.8000000D+00 0.8000000D+00
EXPONENTS  0.8000000D+00 0.8000000D+00 0.3047525D+04 0.4573695D+03 0.1039487D+03
EXPONENTS  0.2921016D+02 0.9286663D+01 0.3163927D+01 0.7868272D+01 0.1881289D+01
EXPONENTS  0.5442493D+00 0.7868272D+01 0.1881289D+01 0.5442493D+00 0.7868272D+01
EXPONENTS  0.1881289D+01 0.5442493D+00 0.7868272D+01 0.1881289D+01 0.5442493D+00
EXPONENTS  0.1687145D+00 0.1687145D+00 0.1687145D+00 0.1687145D+00 0.8000000D+00
EXPONENTS  0.8000000D+00 0.8000000D+00 0.8000000D+00 0.8000000D+00 0.8000000D+00
EXPONENTS  0.3047525D+04 0.4573695D+03 0.1039487D+03 0.2921016D+02 0.9286663D+01
EXPONENTS  0.3163927D+01 0.7868272D+01 0.1881289D+01 0.5442493D+00 0.7868272D+01
EXPONENTS  0.1881289D+01 0.5442493D+00 0.7868272D+01 0.1881289D+01 0.5442493D+00
EXPONENTS  0.7868272D+01 0.1881289D+01 0.5442493D+00 0.1687145D+00 0.1687145D+00
EXPONENTS  0.1687145D+00 0.1687145D+00 0.8000000D+00 0.8000000D+00 0.8000000D+00
EXPONENTS  0.8000000D+00 0.8000000D+00 0.8000000D+00 0.1873114D+02 0.2825394D+01
EXPONENTS  0.6401217D+00 0.1612778D+00 0.1873114D+02 0.2825394D+01 0.6401217D+00
EXPONENTS  0.1612778D+00 0.5484672D+04 0.8252349D+03 0.1880470D+03 0.5296450D+02
EXPONENTS  0.1689757D+02 0.5799635D+01 0.1553962D+02 0.3599934D+01 0.1013762D+01
EXPONENTS  0.1553962D+02 0.3599934D+01 0.1013762D+01 0.1553962D+02 0.3599934D+01
EXPONENTS  0.1013762D+01 0.1553962D+02 0.3599934D+01 0.1013762D+01 0.2700058D+00
EXPONENTS  0.2700058D+00 0.2700058D+00 0.2700058D+00 0.8000000D+00 0.8000000D+00
EXPONENTS  0.8000000D+00 0.8000000D+00 0.8000000D+00 0.8000000D+00 0.3047525D+04
EXPONENTS  0.4573695D+03 0.1039487D+03 0.2921016D+02 0.9286663D+01 0.3163927D+01
EXPONENTS  0.7868272D+01 0.1881289D+01 0.5442493D+00 0.7868272D+01 0.1881289D+01
EXPONENTS  0.5442493D+00 0.7868272D+01 0.1881289D+01 0.5442493D+00 0.7868272D+01
EXPONENTS  0.1881289D+01 0.5442493D+00 0.1687145D+00 0.1687145D+00 0.1687145D+00
EXPONENTS  0.1687145D+00 0.8000000D+00 0.8000000D+00 0.8000000D+00 0.8000000D+00
EXPONENTS  0.8000000D+00 0.8000000D+00 0.1873114D+02 0.2825394D+01 0.6401217D+00
EXPONENTS  0.1612778D+00 0.1873114D+02 0.2825394D+01 0.6401217D+00 0.1612778D+00
EXPONENTS  0.5484672D+04 0.8252349D+03 0.1880470D+03 0.5296450D+02 0.1689757D+02
EXPONENTS  0.5799635D+01 0.1553962D+02 0.3599934D+01 0.1013762D+01 0.1553962D+02
EXPONENTS  0.3599934D+01 0.1013762D+01 0.1553962D+02 0.3599934D+01 0.1013762D+01
EXPONENTS  0.1553962D+02 0.3599934D+01 0.1013762D+01 0.2700058D+00 0.2700058D+00
EXPONENTS  0.2700058D+00 0.2700058D+00 0.8000000D+00 0.8000000D+00 0.8000000D+00
EXPONENTS  0.8000000D+00 0.8000000D+00 0.8000000D+00 0.1873114D+02 0.2825394D+01
EXPONENTS  0.6401217D+00 0.1612778D+00 0.1873114D+02 0.2825394D+01 0.6401217D+00
EXPONENTS  0.1612778D+00 0.1873114D+02 0.2825394D+01 0.6401217D+00 0.1612778D+00
MO    1     MO 0.0        OCC NO =    2.0000000  ORB. ENERGY =  -19.020358
  0.46117618D-05  0.85078000D-05  0.13734227D-04  0.17877883D-04  0.15255230D-04
  0.52672643D-05 -0.19197334D-04 -0.88480336D-05  0.24810810D-04  0.10374018D-04
  0.79541392D-05  0.39696729D-05  0.14210683D-04  0.10895850D-04  0.54377929D-05
  0.51001619D-09  0.39104806D-09  0.19516039D-09 -0.14709491D-03 -0.60899351D-04
 -0.44129876D-04 -0.86572268D-09  0.96804377D-05 -0.22687685D-04  0.22554562D-04
  0.22595903D-04 -0.47132283D-09  0.16226909D-09  0.61373457D-05  0.11322204D-04
  0.18277548D-04  0.23791937D-04  0.20301703D-04  0.70096903D-05 -0.17134519D-04
 -0.78972844D-05  0.22144810D-04  0.77304457D-04  0.59272154D-04  0.29580959D-04
 -0.98426275D-05 -0.75467025D-05 -0.37663335D-05  0.11034150D-08  0.84602860D-09
  0.42222757D-09  0.17940016D-03  0.25646469D-04 -0.84717138D-04  0.78790453D-09
  0.20703544D-04  0.20118234D-04  0.36967723D-04  0.85307664D-05  0.58589061D-09
  0.52325635D-09  0.12156533D-04  0.22426429D-04  0.36203210D-04  0.47125822D-04
  0.40212549D-04  0.13884427D-04 -0.64348644D-04 -0.29658231D-04  0.83164777D-04
  0.41128141D-04  0.31534450D-04  0.15737901D-04  0.74407213D-04  0.57050731D-04
  0.28472313D-04  0.13270043D-08  0.10174627D-08  0.50778521D-09 -0.61347190D-04
  0.11385718D-03  0.32966712D-03 -0.50861185D-09 -0.57366825D-04  0.79780856D-04
  0.30674998D-04  0.60232710D-04 -0.21627722D-08  0.17269009D-08 -0.23182982D-04
 -0.42768075D-04 -0.69040933D-04 -0.89870781D-04 -0.76686901D-04 -0.26478144D-04
 -0.38877118D-04 -0.17918428D-04  0.50245143D-04  0.50680666D-03  0.38858721D-03
  0.19393225D-03  0.28053624D-03  0.21509740D-03  0.10734868D-03 -0.91049725D-09
 -0.69811154D-09 -0.34840659D-09 -0.45898507D-04 -0.62999938D-03 -0.36772705D-03
 -0.31981146D-08  0.46021653D-04  0.21197268D-04 -0.84436223D-04  0.18880996D-03
  0.73663583D-09 -0.15693862D-08  0.97506373D-05  0.17988022D-04  0.29038245D-04
  0.37799167D-04  0.32254097D-04  0.11136565D-04 -0.71463482D-04 -0.32937454D-04
  0.92360058D-04 -0.75552870D-04 -0.57929148D-04 -0.28910705D-04 -0.68985879D-04
 -0.52893996D-04 -0.26397811D-04 -0.97913970D-09 -0.75074222D-09 -0.37467298D-09
 -0.53813379D-03  0.23715479D-03 -0.20976032D-03  0.17409813D-08 -0.65117369D-04
 -0.84224831D-04  0.44209209D-04  0.22371677D-05 -0.19623170D-08 -0.27525124D-08
 -0.39852443D-07 -0.73519976D-07 -0.11868404D-06 -0.15449135D-06 -0.13182775D-06
 -0.45516954D-07  0.61183718D-05  0.28199520D-05 -0.79074397D-05  0.87254862D-04
  0.66901494D-04  0.33388534D-04  0.31372824D-04  0.24054691D-04  0.12004977D-04
  0.14034396D-08  0.10760685D-08  0.53703360D-09  0.29051106D-03  0.76994247D-04
  0.61841490D-04  0.10052223D-08  0.51857282D-04 -0.16080203D-04  0.12838888D-04
 -0.61216978D-05  0.14061517D-08 -0.21671573D-09 -0.27255728D-05 -0.46230874D-05
 -0.52632216D-05 -0.19526376D-04  0.45892567D-05  0.77842479D-05  0.88620911D-05
  0.13285806D-04  0.82556971D+00  0.15194890D+01  0.24588200D+01  0.32321877D+01
  0.27722286D+01  0.94787204D+00 -0.15698922D-01 -0.70048283D-02  0.20685352D-01
 -0.30920320D-04 -0.23822440D-04 -0.10459334D-04 -0.27193433D-02 -0.20951074D-02
 -0.91986501D-03  0.11028159D-06  0.84966017D-07  0.37304658D-07  0.41436857D-02
 -0.34318610D-03 -0.52185303D-04 -0.21413270D-08 -0.95236483D-02 -0.95616104D-02
 -0.94493960D-02  0.19882265D-03 -0.13752451D-07  0.15083939D-07  0.69731888D-05
  0.12864172D-04  0.20766762D-04  0.27032154D-04  0.23066586D-04  0.79643377D-05
 -0.73267954D-04 -0.33769133D-04  0.94692174D-04 -0.37485777D-03 -0.28741716D-03
 -0.14344131D-03  0.43699075D-03  0.33505679D-03  0.16721682D-03 -0.28554909D-07
 -0.21894093D-07 -0.10926687D-07 -0.30533758D-03  0.65829086D-04 -0.10199806D-03
  0.53952579D-08  0.27094670D-03  0.27011667D-03  0.24083274D-04 -0.50161367D-03
  0.32333223D-07 -0.38069343D-07  0.12807731D-04  0.21724335D-04  0.24732388D-04
  0.10218872D-04  0.12808473D-04  0.21725594D-04  0.24733821D-04  0.10217815D-04
  0.24430220D-04  0.44964646D-04  0.72761285D-04  0.95646746D-04  0.82035659D-04
  0.28049385D-04 -0.10256651D-03 -0.45764976D-04  0.13514459D-03 -0.11964010D-03
 -0.92176248D-04 -0.40470338D-04 -0.22565820D-03 -0.17385748D-03 -0.76332798D-04
 -0.41414481D-08 -0.31907625D-08 -0.14009166D-08 -0.29535803D-03  0.14666368D-03
  0.18963194D-03  0.26792165D-08  0.16786599D-03 -0.96923636D-05  0.11800266D-03
 -0.37989603D-04  0.15566447D-08 -0.14163041D-08 -0.58950238D-05 -0.99990761D-05
 -0.11383595D-04 -0.15543680D-03  0.25241763D-04  0.42814808D-04  0.48743145D-04
  0.24798544D-04 -0.14946503D-04 -0.25352098D-04 -0.28862467D-04 -0.11008276D-03
MO    2     MO 0.0        OCC NO =    2.0000000  ORB. ENERGY =  -18.995811
  0.19993631D-05  0.36884345D-05  0.59542769D-05  0.77506993D-05  0.66136857D-05
  0.22835468D-05  0.12600667D-05  0.58076358D-06 -0.16285217D-05  0.46188838D-04
  0.35414671D-04  0.17674403D-04  0.75174412D-04  0.57638971D-04  0.28765886D-04
  0.39587464D-09  0.30353157D-09  0.15148352D-09  0.28436354D-03  0.89665996D-04
  0.35265599D-04  0.10342718D-08  0.11288899D-05  0.44304878D-04  0.26915741D-04
 -0.17955222D-04 -0.49499473D-09 -0.36745933D-09  0.65162093D-05  0.12021134D-04
  0.19405837D-04  0.25260634D-04  0.21554945D-04  0.74424044D-05 -0.62173195D-04
 -0.28655569D-04  0.80353206D-04 -0.94388650D-05 -0.72371230D-05 -0.36118316D-05
 -0.11253438D-04 -0.86284221D-05 -0.43061874D-05 -0.11371458D-09 -0.87189129D-10
 -0.43513486D-10 -0.33993278D-03 -0.18192000D-03  0.26480343D-03 -0.23516554D-08
 -0.91753552D-04 -0.49827672D-04  0.31115663D-04  0.22072301D-04 -0.28647581D-08
  0.49738726D-09 -0.33944963D-04 -0.62621829D-04 -0.10109105D-03 -0.13159051D-03
 -0.11228642D-03 -0.38769802D-04 -0.27389652D-04 -0.12623865D-04  0.35398636D-04
  0.10344131D-03  0.79312235D-04  0.39582364D-04  0.55687272D-03  0.42697468D-03
  0.21309029D-03  0.73676204D-09  0.56490240D-09  0.28192589D-09  0.18045586D-03
 -0.97698570D-04 -0.86779800D-03 -0.26064250D-09 -0.56435299D-04 -0.34228680D-04
 -0.12562917D-03 -0.10710468D-03  0.16715003D-08 -0.14835934D-08  0.25714950D-04
  0.47439061D-04  0.76581353D-04  0.99686168D-04  0.85062388D-04  0.29369998D-04
 -0.11729560D-03 -0.54061434D-04  0.15159390D-03  0.25372231D-04  0.19453818D-04
  0.97088184D-05 -0.48688473D-04 -0.37331233D-04 -0.18630902D-04 -0.10463280D-08
 -0.80225793D-09 -0.40038293D-09 -0.64322220D-03  0.55995504D-03  0.12221490D-03
  0.59099515D-08  0.53159331D-04 -0.53121938D-04  0.78628655D-04  0.12666166D-03
 -0.20004993D-08  0.80386982D-09 -0.37460008D-05 -0.69106400D-05 -0.11155916D-04
 -0.14521688D-04 -0.12391382D-04 -0.42784465D-05  0.21642436D-04  0.99749790D-05
 -0.27970882D-04  0.33422826D-04  0.25626503D-04  0.12789421D-04  0.10577903D-03
  0.81104652D-04  0.40476905D-04 -0.60156877D-09 -0.46124478D-09 -0.23019347D-09
  0.43615837D-03 -0.17187077D-03  0.16525480D-03 -0.15825210D-08 -0.44474336D-05
  0.43714244D-04 -0.26290975D-06 -0.72592224D-05  0.17947190D-09 -0.17498473D-09
  0.86711685D-05  0.15996613D-04  0.25823493D-04  0.33614515D-04  0.28683326D-04
  0.99036633D-05 -0.32228937D-04 -0.14854288D-04  0.41652973D-04 -0.38052314D-04
 -0.29176101D-04 -0.14560919D-04 -0.65924151D-05 -0.50546457D-05 -0.25226225D-05
 -0.16924872D-09 -0.12976918D-09 -0.64763916D-10 -0.31788239D-03 -0.44239628D-04
 -0.84451539D-04 -0.66171675D-09 -0.18261134D-04  0.18531161D-04  0.40325707D-04
  0.13053896D-04 -0.16414854D-08 -0.88384411D-11  0.16065586D-05  0.27250275D-05
  0.31023475D-05  0.10967151D-04 -0.10003384D-04 -0.16967632D-04 -0.19317049D-04
 -0.13955905D-03  0.44478552D-04  0.81864280D-04  0.13247186D-03  0.17413797D-03
  0.14935712D-03  0.51067736D-04 -0.15707183D-03 -0.70085146D-04  0.20696237D-03
 -0.13489711D-03 -0.10393095D-03 -0.45631287D-04 -0.11932197D-03 -0.91931144D-04
 -0.40362724D-04 -0.37092243D-08 -0.28577574D-08 -0.12547094D-08 -0.45911658D-03
  0.16587359D-03  0.11561868D-03  0.24333299D-08  0.84923319D-04  0.16383728D-03
  0.16287759D-03 -0.83602680D-04 -0.88805889D-09 -0.39451547D-09  0.10317153D-04
  0.19033133D-04  0.30725379D-04  0.39995313D-04  0.34128073D-04  0.11783604D-04
 -0.31977062D-04 -0.14738198D-04  0.41327447D-04 -0.61893758D-04 -0.47456208D-04
 -0.23683974D-04  0.16321655D-04  0.12514410D-04  0.62455676D-05 -0.33075564D-08
 -0.25360245D-08 -0.12656540D-08 -0.50702875D-04  0.30556879D-04 -0.80600133D-05
  0.85656918D-09  0.33618502D-04  0.16708965D-04  0.41491191D-04  0.67977044D-05
  0.21239965D-08  0.10821018D-08  0.44990919D-05  0.76313114D-05  0.86879783D-05
 -0.49955424D-05  0.44991298D-05  0.76313757D-05  0.86880515D-05 -0.49958796D-05
  0.82560990D+00  0.15195629D+01  0.24589397D+01  0.32323450D+01  0.27723636D+01
  0.94791819D+00 -0.15754794D-01 -0.70297583D-02  0.20758971D-01  0.22428483D-02
  0.17279937D-02  0.75868231D-03 -0.21363549D-02 -0.16459463D-02 -0.72265908D-03
  0.34735370D-07  0.26761730D-07  0.11749841D-07  0.40110122D-02 -0.17884025D-03
 -0.36144174D-03 -0.17854381D-08 -0.93185475D-02 -0.92323338D-02 -0.92710614D-02
  0.15322496D-03 -0.14754025D-08  0.17517362D-08  0.85160016D-04  0.14444751D-03
  0.16444838D-03 -0.20615728D-03 -0.42550923D-06 -0.72174419D-06 -0.82168024D-06
 -0.63747306D-05  0.10169049D-04  0.17248631D-04  0.19636957D-04  0.75451489D-04
MO    3     MO 0.0        OCC NO =    2.0000000  ORB. ENERGY =  -10.110911
 -0.42554702D-05 -0.78505116D-05 -0.12673160D-04 -0.16496689D-04 -0.14076654D-04
 -0.48603304D-05  0.15765220D-04  0.72661755D-05 -0.20375114D-04 -0.17096437D-04
 -0.13108464D-04 -0.65420420D-05  0.67401865D-04  0.51679475D-04  0.25791680D-04
  0.41345005D-09  0.31700728D-09  0.15820885D-09  0.16769883D-03  0.48384146D-04
  0.28135718D-04  0.83221582D-10 -0.93113431D-05  0.14317476D-04 -0.17353275D-04
  0.10858794D-04 -0.65334459D-10 -0.47327354D-09  0.61400879D-05  0.11327263D-04
  0.18285715D-04  0.23802568D-04  0.20310774D-04  0.70128222D-05 -0.25683486D-04
 -0.11837495D-04  0.33193573D-04 -0.84124113D-04 -0.64501034D-04 -0.32190537D-04
 -0.50862566D-04 -0.38998190D-04 -0.19462830D-04 -0.94681851D-09 -0.72596038D-09
 -0.36230511D-09 -0.26885688D-03 -0.10099528D-03  0.15293389D-03 -0.42106421D-09
 -0.30065857D-04  0.17405034D-04  0.12102117D-04  0.28697709D-04  0.57960455D-09
  0.93811048D-09 -0.32750580D-04 -0.60418425D-04 -0.97534071D-04 -0.12696038D-03
 -0.10833552D-03 -0.37405653D-04  0.10130617D-03  0.46691922D-04 -0.13092902D-03
  0.11006662D-03  0.84392105D-04  0.42117575D-04 -0.41808769D-05 -0.32056312D-05
 -0.15998347D-05  0.36196518D-08  0.27753194D-08  0.13850789D-08  0.72065279D-03
  0.49930915D-04 -0.41641208D-03 -0.18602301D-08  0.11090733D-04 -0.33184699D-04
 -0.85376751D-04 -0.49976575D-04  0.86507542D-09  0.45541390D-09 -0.11194306D-04
 -0.20651308D-04 -0.33337614D-04 -0.43395668D-04 -0.37029602D-04 -0.12785432D-04
  0.41764602D-04  0.19249267D-04 -0.53976954D-04 -0.15445737D-03 -0.11842811D-03
 -0.59103929D-04  0.16033830D-03  0.12293724D-03  0.61354299D-04 -0.82949318D-08
 -0.63600276D-08 -0.31740995D-08 -0.28344566D-03  0.52227348D-03 -0.31730225D-03
  0.11705282D-07  0.19315807D-03  0.37295944D-04 -0.42837318D-04  0.16210353D-03
  0.13972508D-07 -0.51464227D-08  0.15756052D-06  0.29066839D-06  0.46922890D-06
  0.61079661D-06  0.52119386D-06  0.17995571D-06 -0.25003639D-04 -0.11524155D-04
  0.32314932D-04 -0.13244871D-03 -0.10155327D-03 -0.50682200D-04 -0.60611929D-04
 -0.46473383D-04 -0.23193475D-04 -0.10922625D-08 -0.83747759D-09 -0.41796001D-09
 -0.22222813D-03 -0.38676665D-04  0.22490279D-04 -0.19608119D-08 -0.84019908D-04
  0.15448588D-04 -0.13670051D-04 -0.14679075D-03  0.17020559D-08 -0.67673815D-08
 -0.14262178D-04 -0.26310933D-04 -0.42474003D-04 -0.55288532D-04 -0.47177805D-04
 -0.16289362D-04  0.48104121D-04  0.22171146D-04 -0.62170207D-04  0.31130965D-04
  0.23869250D-04  0.11912428D-04 -0.12244691D-04 -0.93884526D-05 -0.46854958D-05
  0.13660173D-08  0.10473754D-08  0.52271373D-09  0.70561051D-04  0.59633350D-04
  0.11497467D-04  0.88011819D-09  0.28074637D-04 -0.16459159D-04 -0.68459628D-04
  0.49368749D-04  0.31629932D-08  0.20879860D-09 -0.14831422D-05 -0.25156900D-05
 -0.28640241D-05  0.13436839D-04 -0.12274732D-04 -0.20820268D-04 -0.23703139D-04
 -0.50683102D-04 -0.57930101D-04 -0.10662231D-03 -0.17253503D-03 -0.22680212D-03
 -0.19452686D-03 -0.66512038D-04 -0.28937622D-04 -0.12911911D-04  0.38129045D-04
 -0.15435100D-03 -0.11891912D-03 -0.52211901D-04 -0.19192203D-03 -0.14786558D-03
 -0.64920955D-04 -0.75506692D-08 -0.58173836D-08 -0.25541447D-08  0.19170596D-03
  0.75561006D-04  0.23296627D-03 -0.23567777D-08 -0.47672324D-03 -0.40241503D-03
  0.12127701D-03  0.58656959D-03 -0.63158801D-07  0.56416336D-07  0.53256160D+00
  0.98247217D+00  0.15860147D+01  0.20645199D+01  0.17616586D+01  0.60825837D+00
 -0.19688876D-01 -0.90745851D-02  0.25446084D-01 -0.80183528D-03 -0.61479643D-03
 -0.30682651D-03  0.58133923D-03  0.44573405D-03  0.22245253D-03 -0.51366658D-07
 -0.39384695D-07 -0.19655723D-07 -0.26551827D-02  0.79842137D-04  0.69535794D-04
  0.12256347D-08 -0.99544765D-02 -0.99772472D-02 -0.10111109D-01 -0.19501914D-03
  0.23160783D-07 -0.11931276D-07 -0.10091886D-04 -0.17117749D-04 -0.19487953D-04
  0.48591550D-03 -0.10092969D-04 -0.17119586D-04 -0.19490044D-04  0.48591701D-03
 -0.43691860D-04 -0.80416345D-04 -0.13012883D-03 -0.17105798D-03 -0.14671544D-03
 -0.50164501D-04  0.14427836D-03  0.64376721D-04 -0.19010532D-03  0.47027199D-04
  0.36231922D-04  0.15907765D-04  0.38551843D-06  0.29702117D-06  0.13040829D-06
 -0.24154031D-08 -0.18609379D-08 -0.81705198D-09  0.38982955D-03 -0.31479739D-04
 -0.62390033D-04  0.11512161D-08 -0.13866592D-03 -0.16242380D-03 -0.16727816D-03
  0.37549228D-04 -0.26207332D-09 -0.14016583D-08 -0.56692171D-06 -0.96160652D-06
 -0.10947550D-05 -0.39402546D-04 -0.48129700D-04 -0.81637082D-04 -0.92940932D-04
  0.41033636D-03  0.10138078D-04  0.17196100D-04  0.19577152D-04  0.51528044D-04
MO    4     MO 0.0        OCC NO =    2.0000000  ORB. ENERGY =  -10.044744
 -0.51705750D-04 -0.95387012D-04 -0.15398421D-03 -0.20044169D-03 -0.17103726D-03
 -0.59055056D-04  0.11571213D-03  0.53331613D-04 -0.14954741D-03 -0.58063459D-04
 -0.44519377D-04 -0.22218290D-04 -0.31274476D-04 -0.23979285D-04 -0.11967344D-04
 -0.65053810D-09 -0.49879135D-09 -0.24893184D-09  0.78218364D-03  0.36106250D-03
  0.16038331D-03  0.38048330D-08 -0.30402504D-04  0.23836796D-04 -0.12674466D-03
 -0.18585942D-04  0.20071410D-08 -0.20357845D-09  0.16482518D-03  0.30407028D-03
  0.49086371D-03  0.63895870D-03  0.54522462D-03  0.18825296D-03  0.53591400D-05
  0.24700227D-05 -0.69262015D-05 -0.15719491D-03 -0.12052708D-03 -0.60151462D-04
  0.23000936D-04  0.17635659D-04  0.88014298D-05 -0.18116565D-08 -0.13890633D-08
 -0.69323994D-09 -0.86607084D-03 -0.19657658D-03  0.34737140D-03 -0.28054048D-08
  0.11646910D-03  0.42523040D-06 -0.39944929D-04  0.45549341D-04  0.29336997D-08
  0.31722113D-09  0.36604450D-01  0.67528062D-01  0.10901123D+00  0.14190023D+00
  0.12108373D+00  0.41807300D-01 -0.10775697D-02 -0.49665089D-03  0.13926609D-02
 -0.26482687D-03 -0.20305245D-03 -0.10133740D-03  0.34794769D-03  0.26678422D-03
  0.13314402D-03 -0.41368412D-08 -0.31718674D-08 -0.15829841D-08  0.15604647D-02
 -0.37005807D-04 -0.98652397D-03  0.13135998D-08 -0.13430458D-02 -0.10436492D-02
 -0.10318037D-02  0.22747084D-03 -0.65288760D-08  0.17236130D-08  0.53127080D+00
  0.98009088D+00  0.15821706D+01  0.20595160D+01  0.17573887D+01  0.60678409D+00
 -0.19681328D-01 -0.90711061D-02  0.25436328D-01  0.13390713D-02  0.10267150D-02
  0.51240272D-03  0.89561550D-03  0.68670116D-03  0.34271200D-03  0.91705839D-08
  0.70314221D-08  0.35091724D-08 -0.33169066D-02  0.14727968D-02  0.53524556D-03
  0.14367328D-07 -0.93295224D-02 -0.99289816D-02 -0.10467240D-01  0.57918046D-03
  0.19146491D-07  0.14986476D-08  0.17970077D-02  0.33151283D-02  0.53516450D-02
  0.69662516D-02  0.59443151D-02  0.20524292D-02  0.27026332D-03  0.12456412D-03
 -0.34929079D-03  0.14380238D-03  0.11025854D-03  0.55026740D-04 -0.27344266D-03
 -0.20965848D-03 -0.10463428D-03  0.31927372D-08  0.24479884D-08  0.12217178D-08
  0.22006424D-02 -0.64472874D-03  0.81290105D-03 -0.78297302D-08 -0.29885115D-03
 -0.31272156D-03 -0.33188983D-03 -0.20852688D-03  0.86852645D-09 -0.22886308D-08
  0.17085969D-04  0.31520277D-04  0.50883501D-04  0.66235199D-04  0.56518615D-04
  0.19514520D-04 -0.32946946D-04 -0.15185217D-04  0.42580935D-04 -0.17480796D-03
 -0.13403165D-03 -0.66891189D-04 -0.11084998D-03 -0.84992735D-04 -0.42417331D-04
 -0.26454298D-08 -0.20283478D-08 -0.10122877D-08 -0.11833002D-02 -0.22253403D-03
 -0.30815349D-03 -0.19881802D-08  0.39594985D-04  0.89296839D-04  0.11974420D-04
  0.70971982D-04  0.61647833D-09  0.98806607D-09  0.14614102D-04  0.24788283D-04
  0.28220584D-04  0.11381231D-03 -0.16998675D-04 -0.28832970D-04 -0.32825317D-04
 -0.64036441D-04  0.11182213D-03  0.20581242D-03  0.33304334D-03  0.43779480D-03
  0.37549406D-03  0.12838779D-03 -0.67236265D-03 -0.30000690D-03  0.88592441D-03
 -0.14928664D-03 -0.11501731D-03 -0.50498793D-04  0.20505622D-04  0.15798477D-04
  0.69363822D-05  0.45251998D-08  0.34864225D-08  0.15307273D-08 -0.15612498D-02
  0.85048643D-03  0.29459424D-03  0.37192702D-08 -0.46933505D-03  0.57839487D-03
  0.94498182D-03 -0.91121725D-03 -0.20373807D-07  0.41990124D-08  0.10126558D-04
  0.18681523D-04  0.30157770D-04  0.39256456D-04  0.33497605D-04  0.11565918D-04
  0.40502979D-04  0.18667786D-04 -0.52346421D-04 -0.23305538D-04 -0.17869208D-04
 -0.89179873D-05  0.10553501D-04  0.80917553D-05  0.40383530D-05 -0.41355642D-08
 -0.31708883D-08 -0.15824955D-08 -0.34561814D-04 -0.57175763D-04 -0.80805946D-04
  0.39705761D-08  0.17879145D-03 -0.10864403D-03  0.60313432D-04 -0.59693844D-04
  0.20988785D-09  0.28003475D-08 -0.16034492D-04 -0.27197533D-04 -0.30963430D-04
 -0.17861226D-04 -0.16031634D-04 -0.27192686D-04 -0.30957912D-04 -0.17859218D-04
 -0.72151183D-04 -0.13279669D-03 -0.21489011D-03 -0.28247907D-03 -0.24228066D-03
 -0.82839872D-04  0.24781135D-03  0.11057294D-03 -0.32652337D-03  0.10247928D-03
  0.78954757D-04  0.34665391D-04  0.11828810D-03  0.91134605D-04  0.40013000D-04
  0.21897691D-08  0.16870990D-08  0.74072735D-09  0.69247526D-03 -0.11338960D-03
 -0.14765622D-03 -0.16530315D-08 -0.25454815D-03 -0.20614686D-03 -0.26711017D-03
 -0.15502776D-04  0.36522255D-09  0.32537603D-09 -0.84837127D-06 -0.14389982D-05
 -0.16382486D-05  0.32406037D-04  0.19866809D-04  0.33697868D-04  0.38363832D-04
  0.33792900D-04  0.39665961D-04  0.67280978D-04  0.76597015D-04  0.28551877D-03
MO    5     MO 0.0        OCC NO =    2.0000000  ORB. ENERGY =  -10.041226
  0.29865553D-04  0.55096114D-04  0.88942212D-04  0.11577633D-03  0.98792155D-04
  0.34110557D-04 -0.76085738D-04 -0.35067847D-04  0.98333903D-04 -0.71755790D-04
 -0.55017789D-04 -0.27457732D-04 -0.18821533D-03 -0.14431158D-03 -0.72021591D-04
 -0.65810138D-09 -0.50459040D-09 -0.25182597D-09 -0.12885657D-02 -0.50310852D-03
 -0.17889494D-03 -0.54357122D-08  0.63216405D-04  0.42181061D-04  0.48268686D-04
  0.53506672D-04  0.24868809D-09  0.99448150D-09  0.24538048D-02  0.45267907D-02
  0.73076439D-02  0.95123810D-02  0.81169319D-02  0.28025815D-02  0.23382295D-03
  0.10776878D-03 -0.30219492D-03 -0.31439998D-03 -0.24106196D-03 -0.12030681D-03
  0.82292839D-04  0.63096930D-04  0.31489790D-04 -0.34030758D-08 -0.26092627D-08
 -0.13022050D-08  0.22574764D-02  0.85840545D-03 -0.75053078D-03  0.10265003D-07
 -0.34627491D-03 -0.37456314D-03 -0.34369600D-03 -0.31179101D-03  0.10608174D-09
 -0.37230951D-08  0.53129095D+00  0.98012806D+00  0.15822306D+01  0.20595941D+01
  0.17574554D+01  0.60680711D+00 -0.19800155D-01 -0.91258732D-02  0.25589901D-01
  0.54421666D-03  0.41727082D-03  0.20824738D-03  0.11778548D-02  0.90310432D-03
  0.45071235D-03  0.12452517D-08  0.95478004D-09  0.47650216D-09 -0.38530866D-02
  0.41282958D-03  0.18303514D-02  0.36923836D-08 -0.99349170D-02 -0.93320006D-02
 -0.10407054D-01  0.41852084D-03  0.10688999D-07  0.25916058D-08 -0.36894836D-01
 -0.68063768D-01 -0.10987603D+00 -0.14302594D+00 -0.12204429D+00 -0.42138961D-01
  0.17030166D-02  0.78491880D-03 -0.22009942D-02  0.21713233D-03  0.16648330D-03
  0.83086833D-04 -0.32460271D-03 -0.24888477D-03 -0.12421094D-03  0.57023262D-08
  0.43721821D-08  0.21820253D-08  0.25422470D-02 -0.13710106D-02 -0.10266857D-03
 -0.15255561D-07  0.28906596D-03  0.98184556D-04  0.39111245D-03 -0.99961043D-05
 -0.20067704D-09  0.22987896D-08 -0.11822396D-03 -0.21810012D-03 -0.35208122D-03
 -0.45830514D-03 -0.39107260D-03 -0.13502797D-03 -0.62966020D-04 -0.29020981D-04
  0.81377860D-04 -0.13049025D-04 -0.10005164D-04 -0.49932783D-05 -0.13287609D-03
 -0.10188096D-03 -0.50845738D-04  0.19310021D-08  0.14805699D-08  0.73890817D-09
 -0.13070799D-02  0.44562536D-03 -0.47131666D-03  0.44754451D-08  0.86629943D-04
  0.10938254D-03  0.41717326D-04  0.83271743D-04  0.32963701D-09  0.11720938D-08
 -0.47175998D-04 -0.87030504D-04 -0.14049422D-03 -0.18288173D-03 -0.15605331D-03
 -0.53881458D-04  0.12256085D-03  0.56488182D-04 -0.15839876D-03  0.26055276D-04
  0.19977533D-04  0.99701891D-05  0.62729907D-04  0.48097314D-04  0.24003931D-04
 -0.28710040D-09 -0.22013038D-09 -0.10986049D-09  0.11618353D-02  0.10957656D-03
  0.33978435D-03  0.13909489D-08 -0.11742435D-04 -0.49369157D-04 -0.13920942D-03
 -0.39163508D-04  0.35820170D-08 -0.19012502D-09 -0.13810114D-04 -0.23424568D-04
 -0.26668043D-04 -0.10069730D-03  0.43112560D-04  0.73127061D-04  0.83252575D-04
  0.34050251D-03 -0.70004157D-04 -0.12884502D-03 -0.20849556D-03 -0.27407325D-03
 -0.23507104D-03 -0.80374780D-04  0.29400279D-03  0.13118347D-03 -0.38738655D-03
  0.83573390D-04  0.64388792D-04  0.28270148D-04 -0.14228885D-04 -0.10962589D-04
 -0.48131670D-05  0.47581971D-08  0.36659344D-08  0.16095426D-08  0.79544017D-03
 -0.26640914D-03 -0.98060447D-04 -0.43100902D-08 -0.71166775D-04 -0.26343804D-03
 -0.32325142D-03  0.13052993D-03  0.30365932D-08  0.31165716D-08 -0.10522930D-04