 Entering Link 1 = D:\Gaussian\G16W\l1.exe PID=     26308.
  
 Copyright (c) 1988,1990,1992,1993,1995,1998,2003,2009,2016,
            Gaussian, Inc.  All Rights Reserved.
  
 This is part of the Gaussian(R) 16 program.  It is based on
 the Gaussian(R) 09 system (copyright 2009, Gaussian, Inc.),
 the Gaussian(R) 03 system (copyright 2003, Gaussian, Inc.),
 the Gaussian(R) 98 system (copyright 1998, Gaussian, Inc.),
 the Gaussian(R) 94 system (copyright 1995, Gaussian, Inc.),
 the Gaussian 92(TM) system (copyright 1992, Gaussian, Inc.),
 the Gaussian 90(TM) system (copyright 1990, Gaussian, Inc.),
 the Gaussian 88(TM) system (copyright 1988, Gaussian, Inc.),
 the Gaussian 86(TM) system (copyright 1986, Carnegie Mellon
 University), and the Gaussian 82(TM) system (copyright 1983,
 Carnegie Mellon University). Gaussian is a federally registered
 trademark of Gaussian, Inc.
  
 This software contains proprietary and confidential information,
 including trade secrets, belonging to Gaussian, Inc.
  
 This software is provided under written license and may be
 used, copied, transmitted, or stored only in accord with that
 written license.
  
 The following legend is applicable only to US Government
 contracts under FAR:
  
                    RESTRICTED RIGHTS LEGEND
  
 Use, reproduction and disclosure by the US Government is
 subject to restrictions as set forth in subparagraphs (a)
 and (c) of the Commercial Computer Software - Restricted
 Rights clause in FAR 52.227-19.
  
 Gaussian, Inc.
 340 Quinnipiac St., Bldg. 40, Wallingford CT 06492
  
  
 ---------------------------------------------------------------
 Warning -- This program may not be used in any manner that
 competes with the business of Gaussian, Inc. or will provide
 assistance to any competitor of Gaussian, Inc.  The licensee
 of this program is prohibited from giving any competitor of
 Gaussian, Inc. access to this program.  By using this program,
 the user acknowledges that Gaussian, Inc. is engaged in the
 business of creating and licensing software in the field of
 computational chemistry and represents and warrants to the
 licensee that it is not a competitor of Gaussian, Inc. and that
 it will not use this program in any manner prohibited above.
 ---------------------------------------------------------------
  

 Cite this work as:
 Gaussian 16, Revision A.03,
 M. J. Frisch, G. W. Trucks, H. B. Schlegel, G. E. Scuseria, 
 M. A. Robb, J. R. Cheeseman, G. Scalmani, V. Barone, 
 G. A. Petersson, H. Nakatsuji, X. Li, M. Caricato, A. V. Marenich, 
 J. Bloino, B. G. Janesko, R. Gomperts, B. Mennucci, H. P. Hratchian, 
 J. V. Ortiz, A. F. Izmaylov, J. L. Sonnenberg, D. Williams-Young, 
 F. Ding, F. Lipparini, F. Egidi, J. Goings, B. Peng, A. Petrone, 
 T. Henderson, D. Ranasinghe, V. G. Zakrzewski, J. Gao, N. Rega, 
 G. Zheng, W. Liang, M. Hada, M. Ehara, K. Toyota, R. Fukuda, 
 J. Hasegawa, M. Ishida, T. Nakajima, Y. Honda, O. Kitao, H. Nakai, 
 T. Vreven, K. Throssell, J. A. Montgomery, Jr., J. E. Peralta, 
 F. Ogliaro, M. J. Bearpark, J. J. Heyd, E. N. Brothers, K. N. Kudin, 
 V. N. Staroverov, T. A. Keith, R. Kobayashi, J. Normand, 
 K. Raghavachari, A. P. Rendell, J. C. Burant, S. S. Iyengar, 
 J. Tomasi, M. Cossi, J. M. Millam, M. Klene, C. Adamo, R. Cammi, 
 J. W. Ochterski, R. L. Martin, K. Morokuma, O. Farkas, 
 J. B. Foresman, and D. J. Fox, Gaussian, Inc., Wallingford CT, 2016.
 
 ******************************************
 Gaussian 16:  EM64W-G16RevA.03 17-Dec-2016
                03-Dec-2025 
 ******************************************
 %nprocs=   4
 Will use up to    4 processors via shared memory.
 ------------------------------------
 #P B3LYP/6-31G* SCF=conver=7 out=wfn
 ------------------------------------
 1/38=1,172=1/1;
 2/12=2,17=6,18=5,40=1/2;
 3/5=1,6=6,7=1,11=2,25=1,30=1,74=-5/1,2,3;
 4//1;
 5/5=2,6=7,38=5/2;
 6/7=2,8=2,9=2,10=2,28=1/1;
 99/5=1,6=100,9=1/99;
 Leave Link    1 at Wed Dec 03 16:08:27 2025, MaxMem=           0 cpu:               0.0 elap:               0.1
 (Enter D:\Gaussian\G16W\l101.exe)
 ----------------------------------------------------
 Generated by Multiwfn (http://sobereva.com/multiwfn)
 ----------------------------------------------------
 Symbolic Z-matrix:
 Charge =  1 Multiplicity = 1
 C                    -2.30269  -0.78311  -0.00003 
 C                    -1.90973   0.56612  -0.00003 
 C                    -0.56357   0.90567  -0.00001 
 C                     0.42348  -0.10245  0. 
 C                     0.05425  -1.45015  -0.00001 
 C                    -1.29925  -1.71516  -0.00002 
 H                    -3.3522   -1.05207  -0.00004 
 H                    -2.64377   1.3638   -0.00004 
 O                     1.70793   0.3812    0.00001 
 C                     2.78186  -0.55087   0.00007 
 H                     2.75724  -1.1819    0.89471 
 H                     2.75732  -1.18193  -0.89454 
 O                    -0.19355   2.21756  -0.00001 
 H                     0.77233   2.24174   0. 
 H                     3.69503   0.04162   0.0001 
 H                     0.79281  -2.24166   0. 
 
 ITRead=  0  0  0  0  0  0  0  0  0  0  0  0  0  0  0  0
 MicOpt= -1 -1 -1 -1 -1 -1 -1 -1 -1 -1 -1 -1 -1 -1 -1 -1
 NAtoms=     16 NQM=       16 NQMF=       0 NMMI=      0 NMMIF=      0
                NMic=       0 NMicF=      0.
                    Isotopes and Nuclear Properties:
 (Nuclear quadrupole moments (NQMom) in fm**2, nuclear magnetic moments (NMagM)
  in nuclear magnetons)

  Atom         1           2           3           4           5           6           7           8           9          10
 IAtWgt=          12          12          12          12          12          12           1           1          16          12
 AtmWgt=  12.0000000  12.0000000  12.0000000  12.0000000  12.0000000  12.0000000   1.0078250   1.0078250  15.9949146  12.0000000
 NucSpn=           0           0           0           0           0           0           1           1           0           0
 AtZEff=   0.0000000   0.0000000   0.0000000   0.0000000   0.0000000   0.0000000   0.0000000   0.0000000   0.0000000   0.0000000
 NQMom=    0.0000000   0.0000000   0.0000000   0.0000000   0.0000000   0.0000000   0.0000000   0.0000000   0.0000000   0.0000000
 NMagM=    0.0000000   0.0000000   0.0000000   0.0000000   0.0000000   0.0000000   2.7928460   2.7928460   0.0000000   0.0000000
 AtZNuc=   6.0000000   6.0000000   6.0000000   6.0000000   6.0000000   6.0000000   1.0000000   1.0000000   8.0000000   6.0000000

  Atom        11          12          13          14          15          16
 IAtWgt=           1           1          16           1           1           1
 AtmWgt=   1.0078250   1.0078250  15.9949146   1.0078250   1.0078250   1.0078250
 NucSpn=           1           1           0           1           1           1
 AtZEff=   0.0000000   0.0000000   0.0000000   0.0000000   0.0000000   0.0000000
 NQMom=    0.0000000   0.0000000   0.0000000   0.0000000   0.0000000   0.0000000
 NMagM=    2.7928460   2.7928460   0.0000000   2.7928460   2.7928460   2.7928460
 AtZNuc=   1.0000000   1.0000000   8.0000000   1.0000000   1.0000000   1.0000000
 Leave Link  101 at Wed Dec 03 16:08:27 2025, MaxMem=   104857600 cpu:               0.0 elap:               0.1
 (Enter D:\Gaussian\G16W\l202.exe)
                          Input orientation:                          
 ---------------------------------------------------------------------
 Center     Atomic      Atomic             Coordinates (Angstroms)
 Number     Number       Type             X           Y           Z
 ---------------------------------------------------------------------
      1          6           0       -2.302692   -0.783106   -0.000032
      2          6           0       -1.909728    0.566122   -0.000029
      3          6           0       -0.563568    0.905669   -0.000014
      4          6           0        0.423481   -0.102448   -0.000002
      5          6           0        0.054254   -1.450148   -0.000005
      6          6           0       -1.299247   -1.715162   -0.000020
      7          1           0       -3.352196   -1.052069   -0.000043
      8          1           0       -2.643774    1.363796   -0.000038
      9          8           0        1.707933    0.381199    0.000008
     10          6           0        2.781859   -0.550870    0.000074
     11          1           0        2.757240   -1.181895    0.894706
     12          1           0        2.757321   -1.181929   -0.894536
     13          8           0       -0.193547    2.217557   -0.000011
     14          1           0        0.772325    2.241741    0.000002
     15          1           0        3.695032    0.041619    0.000103
     16          1           0        0.792813   -2.241661    0.000002
 ---------------------------------------------------------------------
                    Distance matrix (angstroms):
                    1          2          3          4          5
     1  C    0.000000
     2  C    1.405289   0.000000
     3  C    2.424152   1.388322   0.000000
     4  C    2.809860   2.427107   1.410874   0.000000
     5  C    2.449518   2.814706   2.435483   1.397363   0.000000
     6  C    1.369537   2.361555   2.722128   2.359796   1.379202
     7  H    1.083420   2.167777   3.407225   3.893266   3.429631
     8  H    2.173827   1.084024   2.130056   3.399695   3.898415
     9  O    4.176209   3.622384   2.331263   1.372491   2.467486
    10  C    5.089852   4.822723   3.648752   2.400631   2.872025
    11  H    5.153882   5.063270   4.023209   2.722524   2.859825
    12  H    5.153924   5.063316   4.023250   2.722550   2.859842
    13  O    3.667761   2.381704   1.363072   2.400655   3.676067
    14  H    4.313401   3.162453   1.889365   2.370003   3.761073
    15  H    6.054161   5.629248   4.345372   3.274722   3.934544
    16  H    3.421920   3.897098   3.427164   2.170861   1.082572
                    6          7          8          9         10
     6  C    0.000000
     7  H    2.157381   0.000000
     8  H    3.359722   2.517591   0.000000
     9  O    3.665769   5.259198   4.461261   0.000000
    10  C    4.243937   6.154497   5.753559   1.421995   0.000000
    11  H    4.188078   6.175973   6.037554   2.084417   1.095064
    12  H    4.188107   6.176016   6.037605   2.084417   1.095064
    13  O    4.085199   4.546154   2.594710   2.643452   4.064139
    14  H    4.466373   5.278339   3.527112   2.082541   3.440480
    15  H    5.294252   7.131590   6.475231   2.015906   1.088544
    16  H    2.157294   4.312334   4.980909   2.777920   2.610570
                   11         12         13         14         15
    11  H    0.000000
    12  H    1.789242   0.000000
    13  O    4.589546   4.589586   0.000000
    14  H    4.057298   4.057330   0.966175   0.000000
    15  H    1.782345   1.782344   4.455979   3.658245   0.000000
    16  H    2.404698   2.404687   4.567005   4.483449   3.692728
                   16
    16  H    0.000000
 Stoichiometry    C7H7O2(1+)
 Framework group  C1[X(C7H7O2)]
 Deg. of freedom    42
 Full point group                 C1      NOp   1
 Largest Abelian subgroup         C1      NOp   1
 Largest concise Abelian subgroup C1      NOp   1
                         Standard orientation:                         
 ---------------------------------------------------------------------
 Center     Atomic      Atomic             Coordinates (Angstroms)
 Number     Number       Type             X           Y           Z
 ---------------------------------------------------------------------
      1          6           0       -2.302692   -0.783106   -0.000032
      2          6           0       -1.909728    0.566122   -0.000029
      3          6           0       -0.563568    0.905669   -0.000014
      4          6           0        0.423481   -0.102448   -0.000002
      5          6           0        0.054254   -1.450148   -0.000005
      6          6           0       -1.299247   -1.715162   -0.000020
      7          1           0       -3.352196   -1.052069   -0.000043
      8          1           0       -2.643774    1.363796   -0.000038
      9          8           0        1.707933    0.381199    0.000008
     10          6           0        2.781859   -0.550869    0.000074
     11          1           0        2.757240   -1.181894    0.894706
     12          1           0        2.757321   -1.181928   -0.894536
     13          8           0       -0.193547    2.217557   -0.000011
     14          1           0        0.772325    2.241741    0.000002
     15          1           0        3.695032    0.041620    0.000103
     16          1           0        0.792813   -2.241661    0.000002
 ---------------------------------------------------------------------
 Rotational constants (GHZ):           2.7533954           1.5588935           1.0017186
 Leave Link  202 at Wed Dec 03 16:08:28 2025, MaxMem=   104857600 cpu:               1.0 elap:               0.1
 (Enter D:\Gaussian\G16W\l301.exe)
 Standard basis: 6-31G(d) (6D, 7F)
 Ernie: Thresh=  0.10000D-02 Tol=  0.10000D-05 Strict=F.
 There are   149 symmetry adapted cartesian basis functions of A   symmetry.
 There are   149 symmetry adapted basis functions of A   symmetry.
   149 basis functions,   280 primitive gaussians,   149 cartesian basis functions
    32 alpha electrons       32 beta electrons
       nuclear repulsion energy       422.2223138708 Hartrees.
 IExCor=  402 DFT=T Ex+Corr=B3LYP ExCW=0 ScaHFX=  0.200000
 ScaDFX=  0.800000  0.720000  1.000000  0.810000 ScalE2=  1.000000  1.000000
 IRadAn=      5 IRanWt=     -1 IRanGd=            0 ICorTp=0 IEmpDi=  4
 NAtoms=   16 NActive=   16 NUniq=   16 SFac= 1.00D+00 NAtFMM=   60 NAOKFM=F Big=F
 Integral buffers will be    131072 words long.
 Raffenetti 2 integral format.
 Two-electron integral symmetry is turned on.
 Leave Link  301 at Wed Dec 03 16:08:28 2025, MaxMem=   104857600 cpu:               0.0 elap:               0.1
 (Enter D:\Gaussian\G16W\l302.exe)
 NPDir=0 NMtPBC=     1 NCelOv=     1 NCel=       1 NClECP=     1 NCelD=      1
         NCelK=      1 NCelE2=     1 NClLst=     1 CellRange=     0.0.
 One-electron integrals computed using PRISM.
 One-electron integral symmetry used in STVInt
 NBasis=   149 RedAO= T EigKep=  5.26D-04  NBF=   149
 NBsUse=   149 1.00D-06 EigRej= -1.00D+00 NBFU=   149
 Precomputing XC quadrature grid using
 IXCGrd= 4 IRadAn=           5 IRanWt=          -1 IRanGd=           0 AccXCQ= 0.00D+00.
 Generated NRdTot=       0 NPtTot=           0 NUsed=           0 NTot=          32
 NSgBfM=   149   149   149   149   149 MxSgAt=    16 MxSgA2=    16.
 Leave Link  302 at Wed Dec 03 16:08:28 2025, MaxMem=   104857600 cpu:               0.0 elap:               0.2
 (Enter D:\Gaussian\G16W\l303.exe)
 DipDrv:  MaxL=1.
 Leave Link  303 at Wed Dec 03 16:08:28 2025, MaxMem=   104857600 cpu:               0.0 elap:               0.1
 (Enter D:\Gaussian\G16W\l401.exe)
 ExpMin= 1.61D-01 ExpMax= 5.48D+03 ExpMxC= 8.25D+02 IAcc=3 IRadAn=         5 AccDes= 0.00D+00
 Harris functional with IExCor=  402 and IRadAn=       5 diagonalized for initial guess.
 HarFok:  IExCor=  402 AccDes= 0.00D+00 IRadAn=         5 IDoV= 1 UseB2=F ITyADJ=14
 ICtDFT=  3500011 ScaDFX=  1.000000  1.000000  1.000000  1.000000
 FoFCou: FMM=F IPFlag=           0 FMFlag=      100000 FMFlg1=           0
         NFxFlg=           0 DoJE=T BraDBF=F KetDBF=T FulRan=T
         wScrn=  0.000000 ICntrl=       500 IOpCl=  0 I1Cent=   200000004 NGrid=           0
         NMat0=    1 NMatS0=      1 NMatT0=    0 NMatD0=    1 NMtDS0=    0 NMtDT0=    0
 Petite list used in FoFCou.
 Harris En= -421.022097149990    
 JPrj=0 DoOrth=F DoCkMO=F.
 Leave Link  401 at Wed Dec 03 16:08:29 2025, MaxMem=   104857600 cpu:               1.0 elap:               0.8
 (Enter D:\Gaussian\G16W\l502.exe)
 Keep R1 ints in memory in canonical form, NReq=66347889.
 FoFCou: FMM=F IPFlag=           0 FMFlag=           0 FMFlg1=           0
         NFxFlg=           0 DoJE=F BraDBF=F KetDBF=F FulRan=T
         wScrn=  0.000000 ICntrl=       600 IOpCl=  0 I1Cent=           0 NGrid=           0
         NMat0=    1 NMatS0=  11175 NMatT0=    0 NMatD0=    1 NMtDS0=    0 NMtDT0=    0
 Symmetry not used in FoFCou.
 Two-electron integral symmetry not used.
 Closed shell SCF:
 Using DIIS extrapolation, IDIIS=  1040.
 NGot=   104857600 LenX=    42364643 LenY=    42342001
 Requested convergence on RMS density matrix=1.00D-07 within 128 cycles.
 Requested convergence on MAX density matrix=1.00D-05.
 Requested convergence on             energy=1.00D-05.
 No special actions if energy rises.
 Integral accuracy reduced to 1.0D-05 until final iterations.

 Cycle   1  Pass 0  IDiag  1:
 E= -420.785641719886    
 DIIS: error= 3.00D-02 at cycle   1 NSaved=   1.
 NSaved= 1 IEnMin= 1 EnMin= -420.785641719886     IErMin= 1 ErrMin= 3.00D-02
 ErrMax= 3.00D-02  0.00D+00 EMaxC= 1.00D-01 BMatC= 1.95D-01 BMatP= 1.95D-01
 IDIUse=3 WtCom= 7.00D-01 WtEn= 3.00D-01
 Coeff-Com:  0.100D+01
 Coeff-En:   0.100D+01
 Coeff:      0.100D+01
 Gap=    -0.132 Goal=   None    Shift=    0.000
 GapD=   -0.132 DampG=0.250 DampE=0.500 DampFc=0.2500 IDamp=-1.
 Damping current iteration by 2.50D-01
 RMSDP=9.36D-03 MaxDP=3.67D-01              OVMax= 7.52D-01

 Cycle   2  Pass 0  IDiag  1:
 E= -420.827881686220     Delta-E=       -0.042239966334 Rises=F Damp=T
 DIIS: error= 1.46D-02 at cycle   2 NSaved=   2.
 NSaved= 2 IEnMin= 2 EnMin= -420.827881686220     IErMin= 2 ErrMin= 1.46D-02
 ErrMax= 1.46D-02  0.00D+00 EMaxC= 1.00D-01 BMatC= 4.69D-02 BMatP= 1.95D-01
 IDIUse=3 WtCom= 8.54D-01 WtEn= 1.46D-01
 Coeff-Com: -0.380D-01 0.104D+01
 Coeff-En:   0.347D+00 0.653D+00
 Coeff:      0.181D-01 0.982D+00
 Gap=    -0.061 Goal=   None    Shift=    0.000
 RMSDP=3.74D-03 MaxDP=1.01D-01 DE=-4.22D-02 OVMax= 6.59D-01

 Cycle   3  Pass 0  IDiag  1:
 E= -420.815514442043     Delta-E=        0.012367244177 Rises=F Damp=F
 DIIS: error= 3.14D-02 at cycle   3 NSaved=   3.
 NSaved= 3 IEnMin= 2 EnMin= -420.827881686220     IErMin= 2 ErrMin= 1.46D-02
 ErrMax= 3.14D-02  0.00D+00 EMaxC= 1.00D-01 BMatC= 1.35D-01 BMatP= 4.69D-02
 IDIUse=2 WtCom= 0.00D+00 WtEn= 1.00D+00
 Coeff-En:   0.000D+00 0.524D+00 0.476D+00
 Coeff:      0.000D+00 0.524D+00 0.476D+00
 Gap=    -0.017 Goal=   None    Shift=    0.000
 RMSDP=7.85D-03 MaxDP=3.17D-01 DE= 1.24D-02 OVMax= 9.77D-01

 Cycle   4  Pass 0  IDiag  1:
 E= -420.288567813452     Delta-E=        0.526946628591 Rises=F Damp=F
 DIIS: error= 9.57D-02 at cycle   4 NSaved=   4.
 NSaved= 4 IEnMin= 2 EnMin= -420.827881686220     IErMin= 2 ErrMin= 1.46D-02
 ErrMax= 9.57D-02  0.00D+00 EMaxC= 1.00D-01 BMatC= 4.75D-01 BMatP= 4.69D-02
 IDIUse=2 WtCom= 0.00D+00 WtEn= 1.00D+00
 EnCoef did     4 forward-backward iterations
 Coeff-En:   0.111D+00 0.000D+00 0.612D+00 0.277D+00
 Coeff:      0.111D+00 0.000D+00 0.612D+00 0.277D+00
 Gap=    -0.016 Goal=   None    Shift=    0.000
 RMSDP=7.31D-03 MaxDP=3.10D-01 DE= 5.27D-01 OVMax= 9.83D-01

 Problem detected with inexpensive integrals.
 Switching to full accuracy and repeating last cycle.
 Cycle   5  Pass 1  IDiag  1:
 E= -420.288553117772     Delta-E=        0.000014695680 Rises=F Damp=F
 DIIS: error= 9.57D-02 at cycle   1 NSaved=   1.
 NSaved= 1 IEnMin= 1 EnMin= -420.288553117772     IErMin= 1 ErrMin= 9.57D-02
 ErrMax= 9.57D-02  0.00D+00 EMaxC= 1.00D-01 BMatC= 4.75D-01 BMatP= 4.75D-01
 IDIUse=3 WtCom= 4.32D-02 WtEn= 9.57D-01
 Coeff-Com:  0.100D+01
 Coeff-En:   0.100D+01
 Coeff:      0.100D+01
 Gap=    -0.503 Goal=   None    Shift=    0.000
 GapD=   -0.503 DampG=0.250 DampE=0.500 DampFc=0.2500 IDamp=-1.
 Damping current iteration by 2.50D-01
 RMSDP=2.48D-02 MaxDP=9.54D-01 DE= 1.47D-05 OVMax= 9.53D-01

 Cycle   6  Pass 1  IDiag  1:
 E= -420.352226329283     Delta-E=       -0.063673211510 Rises=F Damp=T
 DIIS: error= 1.40D-02 at cycle   2 NSaved=   2.
 NSaved= 2 IEnMin= 2 EnMin= -420.352226329283     IErMin= 2 ErrMin= 1.40D-02
 ErrMax= 1.40D-02  0.00D+00 EMaxC= 1.00D-01 BMatC= 3.36D-02 BMatP= 4.75D-01
 IDIUse=3 WtCom= 8.60D-01 WtEn= 1.40D-01
 Coeff-Com:  0.870D-01 0.913D+00
 Coeff-En:   0.454D+00 0.546D+00
 Coeff:      0.138D+00 0.862D+00
 Gap=    -0.026 Goal=   None    Shift=    0.000
 RMSDP=8.02D-03 MaxDP=2.39D-01 DE=-6.37D-02 OVMax= 5.69D-01

 Cycle   7  Pass 1  IDiag  1:
 E= -420.737044791135     Delta-E=       -0.384818461852 Rises=F Damp=F
 DIIS: error= 4.19D-02 at cycle   3 NSaved=   3.
 NSaved= 3 IEnMin= 3 EnMin= -420.737044791135     IErMin= 2 ErrMin= 1.40D-02
 ErrMax= 4.19D-02  0.00D+00 EMaxC= 1.00D-01 BMatC= 1.97D-01 BMatP= 3.36D-02
 IDIUse=2 WtCom= 0.00D+00 WtEn= 1.00D+00
 Coeff-En:   0.336D+00 0.000D+00 0.664D+00
 Coeff:      0.336D+00 0.000D+00 0.664D+00
 Gap=     0.030 Goal=   None    Shift=    0.000
 RMSDP=3.39D-03 MaxDP=1.08D-01 DE=-3.85D-01 OVMax= 1.53D-01

 Cycle   8  Pass 1  IDiag  1:
 E= -420.844604018579     Delta-E=       -0.107559227444 Rises=F Damp=F
 DIIS: error= 3.40D-02 at cycle   4 NSaved=   4.
 NSaved= 4 IEnMin= 4 EnMin= -420.844604018579     IErMin= 2 ErrMin= 1.40D-02
 ErrMax= 3.40D-02  0.00D+00 EMaxC= 1.00D-01 BMatC= 1.14D-01 BMatP= 3.36D-02
 IDIUse=2 WtCom= 0.00D+00 WtEn= 1.00D+00
 EnCoef did     3 forward-backward iterations
 Coeff-En:   0.253D+00 0.000D+00 0.295D+00 0.451D+00
 Coeff:      0.253D+00 0.000D+00 0.295D+00 0.451D+00
 Gap=     0.030 Goal=   None    Shift=    0.000
 RMSDP=2.34D-03 MaxDP=7.22D-02 DE=-1.08D-01 OVMax= 1.34D-01

 Cycle   9  Pass 1  IDiag  1:
 E= -420.959218326796     Delta-E=       -0.114614308218 Rises=F Damp=F
 DIIS: error= 1.34D-02 at cycle   5 NSaved=   5.
 NSaved= 5 IEnMin= 5 EnMin= -420.959218326796     IErMin= 5 ErrMin= 1.34D-02
 ErrMax= 1.34D-02  0.00D+00 EMaxC= 1.00D-01 BMatC= 1.63D-02 BMatP= 3.36D-02
 IDIUse=3 WtCom= 8.66D-01 WtEn= 1.34D-01
 Coeff-Com:  0.295D-01 0.778D-01-0.252D+00 0.360D-01 0.111D+01
 Coeff-En:   0.919D-01 0.000D+00 0.000D+00 0.000D+00 0.908D+00
 Coeff:      0.379D-01 0.674D-01-0.218D+00 0.312D-01 0.108D+01
 Gap=     0.011 Goal=   None    Shift=    0.000
 RMSDP=1.04D-03 MaxDP=3.82D-02 DE=-1.15D-01 OVMax= 6.29D-02

 Cycle  10  Pass 1  IDiag  1:
 E= -420.975024876947     Delta-E=       -0.015806550150 Rises=F Damp=F
 DIIS: error= 4.93D-03 at cycle   6 NSaved=   6.
 NSaved= 6 IEnMin= 6 EnMin= -420.975024876947     IErMin= 6 ErrMin= 4.93D-03
 ErrMax= 4.93D-03  0.00D+00 EMaxC= 1.00D-01 BMatC= 3.84D-03 BMatP= 1.63D-02
 IDIUse=3 WtCom= 9.51D-01 WtEn= 4.93D-02
 Coeff-Com: -0.585D-02 0.410D-01-0.196D+00-0.282D-01 0.707D+00 0.482D+00
 Coeff-En:   0.000D+00 0.000D+00 0.000D+00 0.000D+00 0.495D-01 0.950D+00
 Coeff:     -0.556D-02 0.390D-01-0.186D+00-0.268D-01 0.674D+00 0.505D+00
 Gap=     0.015 Goal=   None    Shift=    0.000
 RMSDP=5.54D-04 MaxDP=1.44D-02 DE=-1.58D-02 OVMax= 3.39D-02

 Cycle  11  Pass 1  IDiag  1:
 E= -420.978158913735     Delta-E=       -0.003134036788 Rises=F Damp=F
 DIIS: error= 2.42D-03 at cycle   7 NSaved=   7.
 NSaved= 7 IEnMin= 7 EnMin= -420.978158913735     IErMin= 7 ErrMin= 2.42D-03
 ErrMax= 2.42D-03  0.00D+00 EMaxC= 1.00D-01 BMatC= 7.77D-04 BMatP= 3.84D-03
 IDIUse=3 WtCom= 9.76D-01 WtEn= 2.42D-02
 Coeff-Com: -0.501D-02 0.215D-01-0.747D-01-0.924D-02 0.264D+00 0.324D+00
 Coeff-Com:  0.480D+00
 Coeff-En:   0.000D+00 0.000D+00 0.000D+00 0.000D+00 0.000D+00 0.212D+00
 Coeff-En:   0.788D+00
 Coeff:     -0.489D-02 0.209D-01-0.729D-01-0.902D-02 0.258D+00 0.321D+00
 Coeff:      0.487D+00
 Gap=     0.018 Goal=   None    Shift=    0.000
 RMSDP=2.18D-04 MaxDP=4.68D-03 DE=-3.13D-03 OVMax= 1.43D-02

 Cycle  12  Pass 1  IDiag  1:
 E= -420.979013506515     Delta-E=       -0.000854592780 Rises=F Damp=F
 DIIS: error= 3.68D-04 at cycle   8 NSaved=   8.
 NSaved= 8 IEnMin= 8 EnMin= -420.979013506515     IErMin= 8 ErrMin= 3.68D-04
 ErrMax= 3.68D-04  0.00D+00 EMaxC= 1.00D-01 BMatC= 4.02D-05 BMatP= 7.77D-04
 IDIUse=3 WtCom= 9.96D-01 WtEn= 3.68D-03
 Coeff-Com: -0.116D-02 0.651D-02-0.132D-01 0.348D-02 0.406D-01 0.880D-01
 Coeff-Com:  0.236D+00 0.639D+00
 Coeff-En:   0.000D+00 0.000D+00 0.000D+00 0.000D+00 0.000D+00 0.000D+00
 Coeff-En:   0.000D+00 0.100D+01
 Coeff:     -0.115D-02 0.649D-02-0.131D-01 0.347D-02 0.404D-01 0.877D-01
 Coeff:      0.236D+00 0.641D+00
 Gap=     0.019 Goal=   None    Shift=    0.000
 RMSDP=4.81D-05 MaxDP=1.42D-03 DE=-8.55D-04 OVMax= 2.57D-03

 Cycle  13  Pass 1  IDiag  1:
 E= -420.979052917851     Delta-E=       -0.000039411336 Rises=F Damp=F
 DIIS: error= 1.50D-04 at cycle   9 NSaved=   9.
 NSaved= 9 IEnMin= 9 EnMin= -420.979052917851     IErMin= 9 ErrMin= 1.50D-04
 ErrMax= 1.50D-04  0.00D+00 EMaxC= 1.00D-01 BMatC= 3.78D-06 BMatP= 4.02D-05
 IDIUse=3 WtCom= 9.98D-01 WtEn= 1.50D-03
 Coeff-Com: -0.211D-03 0.117D-02-0.993D-03 0.248D-02-0.439D-02 0.770D-02
 Coeff-Com:  0.570D-01 0.284D+00 0.653D+00
 Coeff-En:   0.000D+00 0.000D+00 0.000D+00 0.000D+00 0.000D+00 0.000D+00
 Coeff-En:   0.000D+00 0.000D+00 0.100D+01
 Coeff:     -0.211D-03 0.117D-02-0.992D-03 0.248D-02-0.439D-02 0.769D-02
 Coeff:      0.569D-01 0.284D+00 0.654D+00
 Gap=     0.019 Goal=   None    Shift=    0.000
 RMSDP=1.50D-05 MaxDP=4.71D-04 DE=-3.94D-05 OVMax= 9.74D-04

 Cycle  14  Pass 1  IDiag  1:
 E= -420.979056600432     Delta-E=       -0.000003682581 Rises=F Damp=F
 DIIS: error= 5.02D-05 at cycle  10 NSaved=  10.
 NSaved=10 IEnMin=10 EnMin= -420.979056600432     IErMin=10 ErrMin= 5.02D-05
 ErrMax= 5.02D-05  0.00D+00 EMaxC= 1.00D-01 BMatC= 4.58D-07 BMatP= 3.78D-06
 IDIUse=1 WtCom= 1.00D+00 WtEn= 0.00D+00
 Coeff-Com: -0.351D-04 0.900D-04 0.536D-04 0.879D-03-0.438D-02-0.309D-02
 Coeff-Com:  0.796D-02 0.867D-01 0.352D+00 0.560D+00
 Coeff:     -0.351D-04 0.900D-04 0.536D-04 0.879D-03-0.438D-02-0.309D-02
 Coeff:      0.796D-02 0.867D-01 0.352D+00 0.560D+00
 Gap=     0.019 Goal=   None    Shift=    0.000
 RMSDP=8.07D-06 MaxDP=1.50D-04 DE=-3.68D-06 OVMax= 9.40D-04

 Cycle  15  Pass 1  IDiag  1:
 E= -420.979057098601     Delta-E=       -0.000000498169 Rises=F Damp=F
 DIIS: error= 1.25D-05 at cycle  11 NSaved=  11.
 NSaved=11 IEnMin=11 EnMin= -420.979057098601     IErMin=11 ErrMin= 1.25D-05
 ErrMax= 1.25D-05  0.00D+00 EMaxC= 1.00D-01 BMatC= 4.54D-08 BMatP= 4.58D-07
 IDIUse=1 WtCom= 1.00D+00 WtEn= 0.00D+00
 Coeff-Com:  0.202D-05-0.121D-03 0.154D-03 0.236D-03-0.231D-02-0.249D-02
 Coeff-Com: -0.980D-03 0.235D-01 0.145D+00 0.299D+00 0.538D+00
 Coeff:      0.202D-05-0.121D-03 0.154D-03 0.236D-03-0.231D-02-0.249D-02
 Coeff:     -0.980D-03 0.235D-01 0.145D+00 0.299D+00 0.538D+00
 Gap=     0.019 Goal=   None    Shift=    0.000
 RMSDP=1.04D-05 MaxDP=2.30D-04 DE=-4.98D-07 OVMax= 1.43D-03

 Cycle  16  Pass 1  IDiag  1:
 E= -420.979057490584     Delta-E=       -0.000000391983 Rises=F Damp=F
 DIIS: error= 1.94D-05 at cycle  12 NSaved=  12.
 NSaved=12 IEnMin=12 EnMin= -420.979057490584     IErMin=11 ErrMin= 1.25D-05
 ErrMax= 1.94D-05  0.00D+00 EMaxC= 1.00D-01 BMatC= 2.21D-08 BMatP= 4.54D-08
 IDIUse=1 WtCom= 1.00D+00 WtEn= 0.00D+00
 Coeff-Com: -0.129D-05-0.698D-04 0.920D-04 0.135D-03-0.143D-02-0.152D-02
 Coeff-Com: -0.717D-03 0.151D-01 0.982D-01 0.204D+00 0.418D+00 0.269D+00
 Coeff:     -0.129D-05-0.698D-04 0.920D-04 0.135D-03-0.143D-02-0.152D-02
 Coeff:     -0.717D-03 0.151D-01 0.982D-01 0.204D+00 0.418D+00 0.269D+00
 Gap=     0.019 Goal=   None    Shift=    0.000
 RMSDP=8.08D-06 MaxDP=1.81D-04 DE=-3.92D-07 OVMax= 1.12D-03

 Cycle  17  Pass 1  IDiag  1:
 E= -420.979057893897     Delta-E=       -0.000000403313 Rises=F Damp=F
 DIIS: error= 2.49D-05 at cycle  13 NSaved=  13.
 NSaved=13 IEnMin=13 EnMin= -420.979057893897     IErMin=11 ErrMin= 1.25D-05
 ErrMax= 2.49D-05  0.00D+00 EMaxC= 1.00D-01 BMatC= 2.65D-08 BMatP= 2.21D-08
 IDIUse=1 WtCom= 1.00D+00 WtEn= 0.00D+00
 Coeff-Com: -0.433D-05-0.488D-04 0.501D-04-0.318D-04-0.835D-03-0.978D-03
 Coeff-Com: -0.176D-02 0.502D-02 0.681D-01 0.171D+00 0.613D+00 0.189D+01
 Coeff-Com: -0.174D+01
 Coeff:     -0.433D-05-0.488D-04 0.501D-04-0.318D-04-0.835D-03-0.978D-03
 Coeff:     -0.176D-02 0.502D-02 0.681D-01 0.171D+00 0.613D+00 0.189D+01
 Coeff:     -0.174D+01
 Gap=     0.019 Goal=   None    Shift=    0.000
 RMSDP=2.95D-05 MaxDP=6.61D-04 DE=-4.03D-07 OVMax= 4.10D-03

 Cycle  18  Pass 1  IDiag  1:
 E= -420.979056926487     Delta-E=        0.000000967410 Rises=F Damp=F
 DIIS: error= 4.55D-06 at cycle  14 NSaved=  14.
 NSaved=14 IEnMin=13 EnMin= -420.979057893897     IErMin=14 ErrMin= 4.55D-06
 ErrMax= 4.55D-06  0.00D+00 EMaxC= 1.00D-01 BMatC= 3.16D-09 BMatP= 2.21D-08
 IDIUse=1 WtCom= 1.00D+00 WtEn= 0.00D+00
 Coeff-Com: -0.189D-06-0.168D-04 0.265D-04-0.664D-04 0.890D-04-0.227D-04
 Coeff-Com: -0.114D-02-0.342D-02 0.765D-02 0.282D-01 0.233D+00 0.108D+01
 Coeff-Com: -0.109D+01 0.746D+00
 Coeff:     -0.189D-06-0.168D-04 0.265D-04-0.664D-04 0.890D-04-0.227D-04
 Coeff:     -0.114D-02-0.342D-02 0.765D-02 0.282D-01 0.233D+00 0.108D+01
 Coeff:     -0.109D+01 0.746D+00
 Gap=     0.019 Goal=   None    Shift=    0.000
 RMSDP=5.90D-06 MaxDP=1.32D-04 DE= 9.67D-07 OVMax= 8.20D-04

 Cycle  19  Pass 1  IDiag  1:
 E= -420.979056895657     Delta-E=        0.000000030830 Rises=F Damp=F
 DIIS: error= 1.60D-06 at cycle  15 NSaved=  15.
 NSaved=15 IEnMin=13 EnMin= -420.979057893897     IErMin=15 ErrMin= 1.60D-06
 ErrMax= 1.60D-06  0.00D+00 EMaxC= 1.00D-01 BMatC= 5.44D-10 BMatP= 3.16D-09
 IDIUse=1 WtCom= 1.00D+00 WtEn= 0.00D+00
 Coeff-Com: -0.109D-05 0.959D-06 0.134D-04-0.228D-04 0.212D-03 0.179D-03
 Coeff-Com: -0.249D-03-0.239D-02-0.521D-02-0.127D-01 0.212D-01 0.278D+00
 Coeff-Com: -0.305D+00 0.396D+00 0.630D+00
 Coeff:     -0.109D-05 0.959D-06 0.134D-04-0.228D-04 0.212D-03 0.179D-03
 Coeff:     -0.249D-03-0.239D-02-0.521D-02-0.127D-01 0.212D-01 0.278D+00
 Coeff:     -0.305D+00 0.396D+00 0.630D+00
 Gap=     0.019 Goal=   None    Shift=    0.000
 RMSDP=6.64D-07 MaxDP=1.47D-05 DE= 3.08D-08 OVMax= 9.05D-05

 Cycle  20  Pass 1  IDiag  1:
 E= -420.979056895755     Delta-E=       -0.000000000098 Rises=F Damp=F
 DIIS: error= 6.00D-07 at cycle  16 NSaved=  16.
 NSaved=16 IEnMin=13 EnMin= -420.979057893897     IErMin=16 ErrMin= 6.00D-07
 ErrMax= 6.00D-07  0.00D+00 EMaxC= 1.00D-01 BMatC= 5.99D-11 BMatP= 5.44D-10
 IDIUse=1 WtCom= 1.00D+00 WtEn= 0.00D+00
 Coeff-Com: -0.432D-06 0.154D-06 0.544D-05-0.537D-05 0.122D-03 0.839D-04
 Coeff-Com: -0.111D-03-0.114D-02-0.297D-02-0.882D-02-0.366D-02 0.792D-01
 Coeff-Com: -0.895D-01 0.146D+00 0.328D+00 0.553D+00
 Coeff:     -0.432D-06 0.154D-06 0.544D-05-0.537D-05 0.122D-03 0.839D-04
 Coeff:     -0.111D-03-0.114D-02-0.297D-02-0.882D-02-0.366D-02 0.792D-01
 Coeff:     -0.895D-01 0.146D+00 0.328D+00 0.553D+00
 Gap=     0.019 Goal=   None    Shift=    0.000
 RMSDP=5.63D-08 MaxDP=1.47D-06 DE=-9.81D-11 OVMax= 4.16D-06

 SCF Done:  E(RB3LYP) =  -420.979056896     A.U. after   20 cycles
            NFock= 20  Conv=0.56D-07     -V/T= 2.0096
 KE= 4.169915928883D+02 PE=-1.812354926410D+03 EE= 5.521619627553D+02
 Leave Link  502 at Wed Dec 03 16:08:50 2025, MaxMem=   104857600 cpu:              21.0 elap:              20.7
 (Enter D:\Gaussian\G16W\l601.exe)
 Copying SCF densities to generalized density rwf, IOpCl= 0 IROHF=0.

 **********************************************************************

            Population analysis using the SCF density.

 **********************************************************************

 Orbital symmetries:
       Occupied  (A) (A) (A) (A) (A) (A) (A) (A) (A) (A) (A) (A)
                 (A) (A) (A) (A) (A) (A) (A) (A) (A) (A) (A) (A)
                 (A) (A) (A) (A) (A) (A) (A) (A)
       Virtual   (A) (A) (A) (A) (A) (A) (A) (A) (A) (A) (A) (A)
                 (A) (A) (A) (A) (A) (A) (A) (A) (A) (A) (A) (A)
                 (A) (A) (A) (A) (A) (A) (A) (A) (A) (A) (A) (A)
                 (A) (A) (A) (A) (A) (A) (A) (A) (A) (A) (A) (A)
                 (A) (A) (A) (A) (A) (A) (A) (A) (A) (A) (A) (A)
                 (A) (A) (A) (A) (A) (A) (A) (A) (A) (A) (A) (A)
                 (A) (A) (A) (A) (A) (A) (A) (A) (A) (A) (A) (A)
                 (A) (A) (A) (A) (A) (A) (A) (A) (A) (A) (A) (A)
                 (A) (A) (A) (A) (A) (A) (A) (A) (A) (A) (A) (A)
                 (A) (A) (A) (A) (A) (A) (A) (A) (A)
 The electronic state is 1-A.
 Alpha  occ. eigenvalues --  -19.38522 -19.35519 -10.51740 -10.47302 -10.45427
 Alpha  occ. eigenvalues --  -10.43547 -10.43222 -10.40822 -10.40365  -1.26910
 Alpha  occ. eigenvalues --   -1.23125  -1.08630  -0.97559  -0.95846  -0.89288
 Alpha  occ. eigenvalues --   -0.81441  -0.80662  -0.75049  -0.71896  -0.69250
 Alpha  occ. eigenvalues --   -0.66191  -0.65266  -0.64317  -0.61173  -0.60102
 Alpha  occ. eigenvalues --   -0.59636  -0.55068  -0.54635  -0.53156  -0.51879
 Alpha  occ. eigenvalues --   -0.45346  -0.41464
 Alpha virt. eigenvalues --   -0.39573  -0.20822  -0.20179  -0.09654  -0.06397
 Alpha virt. eigenvalues --   -0.04346  -0.03855  -0.02516  -0.00311   0.00655
 Alpha virt. eigenvalues --    0.01218   0.01631   0.03802   0.05955   0.10151
 Alpha virt. eigenvalues --    0.12358   0.14517   0.17822   0.27221   0.29357
 Alpha virt. eigenvalues --    0.30653   0.30997   0.34135   0.35341   0.37680
 Alpha virt. eigenvalues --    0.38218   0.39464   0.40077   0.40324   0.42180
 Alpha virt. eigenvalues --    0.43667   0.45252   0.46374   0.48269   0.51278
 Alpha virt. eigenvalues --    0.54872   0.58727   0.59233   0.64275   0.65544
 Alpha virt. eigenvalues --    0.67652   0.70094   0.70539   0.72899   0.73535
 Alpha virt. eigenvalues --    0.75044   0.77603   0.80825   0.81196   0.81753
 Alpha virt. eigenvalues --    0.86308   0.88085   0.91722   0.94037   0.98388
 Alpha virt. eigenvalues --    1.01340   1.03387   1.08311   1.14019   1.14769
 Alpha virt. eigenvalues --    1.15960   1.19955   1.21401   1.22971   1.28097
 Alpha virt. eigenvalues --    1.28245   1.32797   1.40630   1.47088   1.53549
 Alpha virt. eigenvalues --    1.55149   1.56259   1.59095   1.62998   1.66621
 Alpha virt. eigenvalues --    1.68548   1.70842   1.73650   1.78162   1.81507
 Alpha virt. eigenvalues --    1.82789   1.87476   1.91812   1.93208   1.94101
 Alpha virt. eigenvalues --    1.99307   2.03026   2.05638   2.06956   2.09537
 Alpha virt. eigenvalues --    2.11896   2.17170   2.25231   2.25665   2.27261
 Alpha virt. eigenvalues --    2.33249   2.38544   2.41397   2.45469   2.47437
 Alpha virt. eigenvalues --    2.49050   2.51779   2.61136   2.66951   2.72520
 Alpha virt. eigenvalues --    2.79459   3.01210   3.18979   3.75020   3.82471
 Alpha virt. eigenvalues --    3.88057   3.95864   4.01358   4.14189   4.14924
 Alpha virt. eigenvalues --    4.28315   4.70007
          Condensed to atoms (all electrons):
               1          2          3          4          5          6
     1  C    4.906416   0.492874  -0.017543  -0.029742  -0.062253   0.516259
     2  C    0.492874   4.939099   0.535763  -0.058381  -0.029198  -0.014865
     3  C   -0.017543   0.535763   4.557366   0.413660  -0.044642  -0.040389
     4  C   -0.029742  -0.058381   0.413660   4.727199   0.416320   0.003796
     5  C   -0.062253  -0.029198  -0.044642   0.416320   5.129566   0.475699
     6  C    0.516259  -0.014865  -0.040389   0.003796   0.475699   4.899274
     7  H    0.351484  -0.019407   0.003256   0.000186   0.003419  -0.034223
     8  H   -0.033881   0.350727  -0.020783   0.005728   0.000008   0.002932
     9  O    0.000021   0.003837  -0.053383   0.276465  -0.062186   0.002938
    10  C    0.000004  -0.000157   0.003947  -0.037310  -0.000198   0.000376
    11  H   -0.000009   0.000004  -0.000279  -0.007220   0.004533   0.000002
    12  H   -0.000009   0.000004  -0.000279  -0.007220   0.004532   0.000002
    13  O    0.003024  -0.055429   0.334728  -0.059039   0.004536   0.000393
    14  H   -0.000193   0.005564  -0.027040  -0.013046   0.001271  -0.000031
    15  H    0.000000   0.000004   0.000001   0.003492  -0.000023  -0.000007
    16  H    0.003098   0.000278   0.002389  -0.024875   0.343118  -0.030101
               7          8          9         10         11         12
     1  C    0.351484  -0.033881   0.000021   0.000004  -0.000009  -0.000009
     2  C   -0.019407   0.350727   0.003837  -0.000157   0.000004   0.000004
     3  C    0.003256  -0.020783  -0.053383   0.003947  -0.000279  -0.000279
     4  C    0.000186   0.005728   0.276465  -0.037310  -0.007220  -0.007220
     5  C    0.003419   0.000008  -0.062186  -0.000198   0.004533   0.004532
     6  C   -0.034223   0.002932   0.002938   0.000376   0.000002   0.000002
     7  H    0.438053  -0.005550   0.000000   0.000000   0.000000   0.000000
     8  H   -0.005550   0.443648  -0.000041   0.000002   0.000000   0.000000
     9  O    0.000000  -0.000041   8.202100   0.214353  -0.030838  -0.030838
    10  C    0.000000   0.000002   0.214353   4.946588   0.369384   0.369384
    11  H    0.000000   0.000000  -0.030838   0.369384   0.532588  -0.042098
    12  H    0.000000   0.000000  -0.030838   0.369384  -0.042098   0.532588
    13  O   -0.000027  -0.000352  -0.010976   0.000235  -0.000015  -0.000015
    14  H    0.000003  -0.000134   0.024840  -0.000784   0.000077   0.000077
    15  H    0.000000   0.000000  -0.027000   0.386139  -0.023303  -0.023304
    16  H   -0.000108   0.000004  -0.007271   0.007541   0.001954   0.001954
              13         14         15         16
     1  C    0.003024  -0.000193   0.000000   0.003098
     2  C   -0.055429   0.005564   0.000004   0.000278
     3  C    0.334728  -0.027040   0.000001   0.002389
     4  C   -0.059039  -0.013046   0.003492  -0.024875
     5  C    0.004536   0.001271  -0.000023   0.343118
     6  C    0.000393  -0.000031  -0.000007  -0.030101
     7  H   -0.000027   0.000003   0.000000  -0.000108
     8  H   -0.000352  -0.000134   0.000000   0.000004
     9  O   -0.010976   0.024840  -0.027000  -0.007271
    10  C    0.000235  -0.000784   0.386139   0.007541
    11  H   -0.000015   0.000077  -0.023303   0.001954
    12  H   -0.000015   0.000077  -0.023304   0.001954
    13  O    8.130925   0.245092   0.000005  -0.000024
    14  H    0.245092   0.307705  -0.000107   0.000001
    15  H    0.000005  -0.000107   0.450587  -0.000189
    16  H   -0.000024   0.000001  -0.000189   0.445509
 Mulliken charges:
               1
     1  C   -0.129553
     2  C   -0.150715
     3  C    0.353227
     4  C    0.389988
     5  C   -0.184500
     6  C    0.217946
     7  H    0.262915
     8  H    0.257693
     9  O   -0.502018
    10  C   -0.259504
    11  H    0.195222
    12  H    0.195223
    13  O   -0.593059
    14  H    0.456707
    15  H    0.233704
    16  H    0.256724
 Sum of Mulliken charges =   1.00000
 Mulliken charges with hydrogens summed into heavy atoms:
               1
     1  C    0.133363
     2  C    0.106978
     3  C    0.353227
     4  C    0.389988
     5  C    0.072224
     6  C    0.217946
     9  O   -0.502018
    10  C    0.364645
    13  O   -0.136353
 Electronic spatial extent (au):  <R**2>=           1101.4547
 Charge=              1.0000 electrons
 Dipole moment (field-independent basis, Debye):
    X=             -0.7959    Y=             -4.2706    Z=              0.0000  Tot=              4.3441
 Quadrupole moment (field-independent basis, Debye-Ang):
   XX=            -20.9315   YY=            -35.9544   ZZ=            -51.8751
   XY=              3.0331   XZ=              0.0006   YZ=              0.0001
 Traceless Quadrupole moment (field-independent basis, Debye-Ang):
   XX=             15.3221   YY=              0.2993   ZZ=            -15.6214
   XY=              3.0331   XZ=              0.0006   YZ=              0.0001
 Octapole moment (field-independent basis, Debye-Ang**2):
  XXX=              1.8949  YYY=            -12.6387  ZZZ=              0.0003  XYY=              0.6101
  XXY=             -9.1046  XXZ=              0.0004  XZZ=              7.0148  YZZ=              4.2274
  YYZ=             -0.0002  XYZ=             -0.0003
 Hexadecapole moment (field-independent basis, Debye-Ang**3):
 XXXX=           -596.1043 YYYY=           -404.2653 ZZZZ=            -55.0836 XXXY=              6.9225
 XXXZ=             -0.0018 YYYX=             34.4399 YYYZ=              0.0017 ZZZX=             -0.0077
 ZZZY=              0.0005 XXYY=           -173.2964 XXZZ=           -161.0071 YYZZ=            -90.8660
 XXYZ=              0.0006 YYXZ=             -0.0017 ZZXY=             -3.5291
 N-N= 4.222223138708D+02 E-N=-1.812354932180D+03  KE= 4.169915928883D+02
 No NMR shielding tensors so no spin-rotation constants.
 Leave Link  601 at Wed Dec 03 16:08:50 2025, MaxMem=   104857600 cpu:               0.0 elap:               0.2
 (Enter D:\Gaussian\G16W\l9999.exe)
 1|1|UNPC-PC-20250526LCFF|SP|RB3LYP|6-31G(d)|C7H7O2(1+)|ADMINISTRATOR|0
 3-Dec-2025|0||#P B3LYP/6-31G* SCF=conver=7 out=wfn||Generated by Multi
 wfn (http://sobereva.com/multiwfn)||1,1|C,0,-2.302692,-0.783106,-0.000
 032|C,0,-1.909728,0.566122,-0.000029|C,0,-0.563568,0.905669,-0.000014|
 C,0,0.423481,-0.102448,-0.000002|C,0,0.054254,-1.450148,-0.000005|C,0,
 -1.299247,-1.715162,-0.00002|H,0,-3.352196,-1.052069,-0.000043|H,0,-2.
 643774,1.363796,-0.000038|O,0,1.707933,0.381199,0.000008|C,0,2.781859,
 -0.55087,0.000074|H,0,2.75724,-1.181895,0.894706|H,0,2.757321,-1.18192
 9,-0.894536|O,0,-0.193547,2.217557,-0.000011|H,0,0.772325,2.241741,0.0
 00002|H,0,3.695032,0.041619,0.000103|H,0,0.792813,-2.241661,0.000002||
 Version=EM64W-G16RevA.03|State=1-A|HF=-420.9790569|RMSD=5.628e-008|Dip
 ole=-0.3131124,-1.6801935,0.0000133|Quadrupole=11.3916311,0.2225217,-1
 1.6141529,2.2550023,0.0004778,0.0000684|PG=C01 [X(C7H7O2)]||@

 Writing a WFN file to "N-1.wfn"


 WHERE THERE IS MUCH DESIRE TO LEARN, THERE OF NECESSITY WILL BE
 MUCH ARGUING, MUCH WRITING, MANY OPINIONS; FOR OPINION IN GOOD MEN
 IS BUT KNOWLEDGE IN THE MAKING. -- JOHN MILTON.
 Job cpu time:       0 days  0 hours  0 minutes 23.0 seconds.
 Elapsed time:       0 days  0 hours  0 minutes 22.4 seconds.
 File lengths (MBytes):  RWF=     15 Int=      0 D2E=      0 Chk=      2 Scr=      1
 Normal termination of Gaussian 16 at Wed Dec 03 16:08:50 2025.
