 Generated by Multiwfn (http://sobereva.com/multiwfn)
GAUSSIAN             32 MOL ORBITALS    280 PRIMITIVES       16 NUCLEI
  C    1    (CENTRE  1)  -4.35145706 -1.47985639 -0.00006059  CHARGE =  6.0
  C    2    (CENTRE  2)  -3.60886317  1.06981514 -0.00005492  CHARGE =  6.0
  C    3    (CENTRE  3)  -1.06498956  1.71146642 -0.00002657  CHARGE =  6.0
  C    4    (CENTRE  4)   0.80026306 -0.19359829 -0.00000390  CHARGE =  6.0
  C    5    (CENTRE  5)   0.10252559 -2.74038231 -0.00000956  CHARGE =  6.0
  C    6    (CENTRE  6)  -2.45522052 -3.24118664 -0.00003791  CHARGE =  6.0
  H    7    (CENTRE  7)  -6.33473210 -1.98812315 -0.00008137  CHARGE =  1.0
  H    8    (CENTRE  8)  -4.99600933  2.57720029 -0.00007193  CHARGE =  1.0
  O    9    (CENTRE  9)   3.22752540  0.72036251  0.00001500  CHARGE =  8.0
  C   10    (CENTRE 10)   5.25695172 -1.04099228  0.00013972  CHARGE =  6.0
  H   11    (CENTRE 11)   5.21042876 -2.23345672  1.69074919  CHARGE =  1.0
  H   12    (CENTRE 12)   5.21058183 -2.23352097 -1.69042816  CHARGE =  1.0
  O   13    (CENTRE 13)  -0.36575164  4.19057556 -0.00002090  CHARGE =  8.0
  H   14    (CENTRE 14)   1.45948190  4.23627702  0.00000366  CHARGE =  1.0
  H   15    (CENTRE 15)   6.98259840  0.07864996  0.00019453  CHARGE =  1.0
  H   16    (CENTRE 16)   1.49820009 -4.23612486  0.00000366  CHARGE =  1.0
CENTRE ASSIGNMENTS    1  1  1  1  1  1  1  1  1  1  1  1  1  1  1  1  1  1  1  1
CENTRE ASSIGNMENTS    1  1  1  1  1  1  1  1  2  2  2  2  2  2  2  2  2  2  2  2
CENTRE ASSIGNMENTS    2  2  2  2  2  2  2  2  2  2  2  2  2  2  2  2  3  3  3  3
CENTRE ASSIGNMENTS    3  3  3  3  3  3  3  3  3  3  3  3  3  3  3  3  3  3  3  3
CENTRE ASSIGNMENTS    3  3  3  3  4  4  4  4  4  4  4  4  4  4  4  4  4  4  4  4
CENTRE ASSIGNMENTS    4  4  4  4  4  4  4  4  4  4  4  4  5  5  5  5  5  5  5  5
CENTRE ASSIGNMENTS    5  5  5  5  5  5  5  5  5  5  5  5  5  5  5  5  5  5  5  5
CENTRE ASSIGNMENTS    6  6  6  6  6  6  6  6  6  6  6  6  6  6  6  6  6  6  6  6
CENTRE ASSIGNMENTS    6  6  6  6  6  6  6  6  7  7  7  7  8  8  8  8  9  9  9  9
CENTRE ASSIGNMENTS    9  9  9  9  9  9  9  9  9  9  9  9  9  9  9  9  9  9  9  9
CENTRE ASSIGNMENTS    9  9  9  9 10 10 10 10 10 10 10 10 10 10 10 10 10 10 10 10
CENTRE ASSIGNMENTS   10 10 10 10 10 10 10 10 10 10 10 10 11 11 11 11 12 12 12 12
CENTRE ASSIGNMENTS   13 13 13 13 13 13 13 13 13 13 13 13 13 13 13 13 13 13 13 13
CENTRE ASSIGNMENTS   13 13 13 13 13 13 13 13 14 14 14 14 15 15 15 15 16 16 16 16
TYPE ASSIGNMENTS      1  1  1  1  1  1  1  1  1  2  2  2  3  3  3  4  4  4  1  2
TYPE ASSIGNMENTS      3  4  5  6  7  8  9 10  1  1  1  1  1  1  1  1  1  2  2  2
TYPE ASSIGNMENTS      3  3  3  4  4  4  1  2  3  4  5  6  7  8  9 10  1  1  1  1
TYPE ASSIGNMENTS      1  1  1  1  1  2  2  2  3  3  3  4  4  4  1  2  3  4  5  6
TYPE ASSIGNMENTS      7  8  9 10  1  1  1  1  1  1  1  1  1  2  2  2  3  3  3  4
TYPE ASSIGNMENTS      4  4  1  2  3  4  5  6  7  8  9 10  1  1  1  1  1  1  1  1
TYPE ASSIGNMENTS      1  2  2  2  3  3  3  4  4  4  1  2  3  4  5  6  7  8  9 10
TYPE ASSIGNMENTS      1  1  1  1  1  1  1  1  1  2  2  2  3  3  3  4  4  4  1  2
TYPE ASSIGNMENTS      3  4  5  6  7  8  9 10  1  1  1  1  1  1  1  1  1  1  1  1
TYPE ASSIGNMENTS      1  1  1  1  1  2  2  2  3  3  3  4  4  4  1  2  3  4  5  6
TYPE ASSIGNMENTS      7  8  9 10  1  1  1  1  1  1  1  1  1  2  2  2  3  3  3  4
TYPE ASSIGNMENTS      4  4  1  2  3  4  5  6  7  8  9 10  1  1  1  1  1  1  1  1
TYPE ASSIGNMENTS      1  1  1  1  1  1  1  1  1  2  2  2  3  3  3  4  4  4  1  2
TYPE ASSIGNMENTS      3  4  5  6  7  8  9 10  1  1  1  1  1  1  1  1  1  1  1  1
EXPONENTS  0.3047525D+04 0.4573695D+03 0.1039487D+03 0.2921016D+02 0.9286663D+01
EXPONENTS  0.3163927D+01 0.7868272D+01 0.1881289D+01 0.5442493D+00 0.7868272D+01
EXPONENTS  0.1881289D+01 0.5442493D+00 0.7868272D+01 0.1881289D+01 0.5442493D+00
EXPONENTS  0.7868272D+01 0.1881289D+01 0.5442493D+00 0.1687145D+00 0.1687145D+00
EXPONENTS  0.1687145D+00 0.1687145D+00 0.8000000D+00 0.8000000D+00 0.8000000D+00
EXPONENTS  0.8000000D+00 0.8000000D+00 0.8000000D+00 0.3047525D+04 0.4573695D+03
EXPONENTS  0.1039487D+03 0.2921016D+02 0.9286663D+01 0.3163927D+01 0.7868272D+01
EXPONENTS  0.1881289D+01 0.5442493D+00 0.7868272D+01 0.1881289D+01 0.5442493D+00
EXPONENTS  0.7868272D+01 0.1881289D+01 0.5442493D+00 0.7868272D+01 0.1881289D+01
EXPONENTS  0.5442493D+00 0.1687145D+00 0.1687145D+00 0.1687145D+00 0.1687145D+00
EXPONENTS  0.8000000D+00 0.8000000D+00 0.8000000D+00 0.8000000D+00 0.8000000D+00
EXPONENTS  0.8000000D+00 0.3047525D+04 0.4573695D+03 0.1039487D+03 0.2921016D+02
EXPONENTS  0.9286663D+01 0.3163927D+01 0.7868272D+01 0.1881289D+01 0.5442493D+00
EXPONENTS  0.7868272D+01 0.1881289D+01 0.5442493D+00 0.7868272D+01 0.1881289D+01
EXPONENTS  0.5442493D+00 0.7868272D+01 0.1881289D+01 0.5442493D+00 0.1687145D+00
EXPONENTS  0.1687145D+00 0.1687145D+00 0.1687145D+00 0.8000000D+00 0.8000000D+00
EXPONENTS  0.8000000D+00 0.8000000D+00 0.8000000D+00 0.8000000D+00 0.3047525D+04
EXPONENTS  0.4573695D+03 0.1039487D+03 0.2921016D+02 0.9286663D+01 0.3163927D+01
EXPONENTS  0.7868272D+01 0.1881289D+01 0.5442493D+00 0.7868272D+01 0.1881289D+01
EXPONENTS  0.5442493D+00 0.7868272D+01 0.1881289D+01 0.5442493D+00 0.7868272D+01
EXPONENTS  0.1881289D+01 0.5442493D+00 0.1687145D+00 0.1687145D+00 0.1687145D+00
EXPONENTS  0.1687145D+00 0.8000000D+00 0.8000000D+00 0.8000000D+00 0.8000000D+00
EXPONENTS  0.8000000D+00 0.8000000D+00 0.3047525D+04 0.4573695D+03 0.1039487D+03
EXPONENTS  0.2921016D+02 0.9286663D+01 0.3163927D+01 0.7868272D+01 0.1881289D+01
EXPONENTS  0.5442493D+00 0.7868272D+01 0.1881289D+01 0.5442493D+00 0.7868272D+01
EXPONENTS  0.1881289D+01 0.5442493D+00 0.7868272D+01 0.1881289D+01 0.5442493D+00
EXPONENTS  0.1687145D+00 0.1687145D+00 0.1687145D+00 0.1687145D+00 0.8000000D+00
EXPONENTS  0.8000000D+00 0.8000000D+00 0.8000000D+00 0.8000000D+00 0.8000000D+00
EXPONENTS  0.3047525D+04 0.4573695D+03 0.1039487D+03 0.2921016D+02 0.9286663D+01
EXPONENTS  0.3163927D+01 0.7868272D+01 0.1881289D+01 0.5442493D+00 0.7868272D+01
EXPONENTS  0.1881289D+01 0.5442493D+00 0.7868272D+01 0.1881289D+01 0.5442493D+00
EXPONENTS  0.7868272D+01 0.1881289D+01 0.5442493D+00 0.1687145D+00 0.1687145D+00
EXPONENTS  0.1687145D+00 0.1687145D+00 0.8000000D+00 0.8000000D+00 0.8000000D+00
EXPONENTS  0.8000000D+00 0.8000000D+00 0.8000000D+00 0.1873114D+02 0.2825394D+01
EXPONENTS  0.6401217D+00 0.1612778D+00 0.1873114D+02 0.2825394D+01 0.6401217D+00
EXPONENTS  0.1612778D+00 0.5484672D+04 0.8252349D+03 0.1880470D+03 0.5296450D+02
EXPONENTS  0.1689757D+02 0.5799635D+01 0.1553962D+02 0.3599934D+01 0.1013762D+01
EXPONENTS  0.1553962D+02 0.3599934D+01 0.1013762D+01 0.1553962D+02 0.3599934D+01
EXPONENTS  0.1013762D+01 0.1553962D+02 0.3599934D+01 0.1013762D+01 0.2700058D+00
EXPONENTS  0.2700058D+00 0.2700058D+00 0.2700058D+00 0.8000000D+00 0.8000000D+00
EXPONENTS  0.8000000D+00 0.8000000D+00 0.8000000D+00 0.8000000D+00 0.3047525D+04
EXPONENTS  0.4573695D+03 0.1039487D+03 0.2921016D+02 0.9286663D+01 0.3163927D+01
EXPONENTS  0.7868272D+01 0.1881289D+01 0.5442493D+00 0.7868272D+01 0.1881289D+01
EXPONENTS  0.5442493D+00 0.7868272D+01 0.1881289D+01 0.5442493D+00 0.7868272D+01
EXPONENTS  0.1881289D+01 0.5442493D+00 0.1687145D+00 0.1687145D+00 0.1687145D+00
EXPONENTS  0.1687145D+00 0.8000000D+00 0.8000000D+00 0.8000000D+00 0.8000000D+00
EXPONENTS  0.8000000D+00 0.8000000D+00 0.1873114D+02 0.2825394D+01 0.6401217D+00
EXPONENTS  0.1612778D+00 0.1873114D+02 0.2825394D+01 0.6401217D+00 0.1612778D+00
EXPONENTS  0.5484672D+04 0.8252349D+03 0.1880470D+03 0.5296450D+02 0.1689757D+02
EXPONENTS  0.5799635D+01 0.1553962D+02 0.3599934D+01 0.1013762D+01 0.1553962D+02
EXPONENTS  0.3599934D+01 0.1013762D+01 0.1553962D+02 0.3599934D+01 0.1013762D+01
EXPONENTS  0.1553962D+02 0.3599934D+01 0.1013762D+01 0.2700058D+00 0.2700058D+00
EXPONENTS  0.2700058D+00 0.2700058D+00 0.8000000D+00 0.8000000D+00 0.8000000D+00
EXPONENTS  0.8000000D+00 0.8000000D+00 0.8000000D+00 0.1873114D+02 0.2825394D+01
EXPONENTS  0.6401217D+00 0.1612778D+00 0.1873114D+02 0.2825394D+01 0.6401217D+00
EXPONENTS  0.1612778D+00 0.1873114D+02 0.2825394D+01 0.6401217D+00 0.1612778D+00
MO    1     MO 0.0        OCC NO =    2.0000000  ORB. ENERGY =  -19.385220
  0.45989920D-05  0.84842423D-05  0.13696198D-04  0.17828380D-04  0.15212989D-04
  0.52526795D-05 -0.19157549D-04 -0.88296967D-05  0.24759391D-04  0.99922974D-05
  0.76614599D-05  0.38236054D-05  0.13711332D-04  0.10512980D-04  0.52467139D-05
  0.48526269D-09  0.37206866D-09  0.18568834D-09 -0.14614879D-03 -0.61635535D-04
 -0.43058606D-04 -0.86503591D-09  0.94069350D-05 -0.22943794D-04  0.22279274D-04
  0.22677914D-04 -0.46094405D-09  0.15806057D-09  0.56483319D-05  0.10420069D-04
  0.16821223D-04  0.21896234D-04  0.18684096D-04  0.64511695D-05 -0.15433126D-04
 -0.71131136D-05  0.19945913D-04  0.76271993D-04  0.58480527D-04  0.29185881D-04
 -0.90467315D-05 -0.69364599D-05 -0.34617796D-05  0.10581049D-08  0.81128769D-09
  0.40488942D-09  0.18289320D-03  0.28824565D-04 -0.83015040D-04  0.81699498D-09
  0.21639048D-04  0.19657018D-04  0.34395167D-04  0.11626241D-04  0.64262434D-09
  0.52998772D-09  0.11692835D-04  0.21570997D-04  0.34822278D-04  0.45328260D-04
  0.38678686D-04  0.13354821D-04 -0.63183893D-04 -0.29121398D-04  0.81659441D-04
  0.33479226D-04  0.25669747D-04  0.12811003D-04  0.75125905D-04  0.57601779D-04
  0.28747325D-04  0.12853559D-08  0.98552940D-09  0.49184824D-09 -0.67236703D-04
  0.11503645D-03  0.32333472D-03 -0.44219284D-09 -0.62952908D-04  0.80720365D-04
  0.27286873D-04  0.62553457D-04 -0.21983392D-08  0.16405194D-08 -0.22970491D-04
 -0.42376070D-04 -0.68408116D-04 -0.89047042D-04 -0.75984002D-04 -0.26235450D-04
 -0.51123743D-04 -0.23562886D-04  0.66072793D-04  0.50647944D-03  0.38833631D-03
  0.19380704D-03  0.27503452D-03  0.21087902D-03  0.10524341D-03 -0.76182812D-09
 -0.58412148D-09 -0.29151756D-09 -0.39202685D-04 -0.61410896D-03 -0.35564250D-03
 -0.32057210D-08  0.18322792D-04  0.19015584D-04 -0.86577974D-04  0.16278861D-03
  0.18721468D-09 -0.18748734D-08  0.94314081D-05  0.17399106D-04  0.28087552D-04
  0.36561648D-04  0.31198120D-04  0.10771961D-04 -0.69724067D-04 -0.32135759D-04
  0.90112022D-04 -0.75599169D-04 -0.57964648D-04 -0.28928422D-04 -0.66715730D-04
 -0.51153390D-04 -0.25529127D-04 -0.10336330D-08 -0.79252421D-09 -0.39552513D-09
 -0.52511092D-03  0.23377670D-03 -0.20415155D-03  0.17677207D-08 -0.67487349D-04
 -0.81282726D-04  0.40657291D-04 -0.64553095D-05 -0.19440916D-08 -0.26944103D-08
 -0.36428053D-06 -0.67202645D-06 -0.10848591D-05 -0.14121641D-05 -0.12050022D-05
 -0.41605831D-06  0.66603741D-05  0.30697603D-05 -0.86079284D-05  0.85389695D-04
  0.65471402D-04  0.32674818D-04  0.29329818D-04  0.22488244D-04  0.11223210D-04
  0.13554427D-08  0.10392675D-08  0.51866731D-09  0.28894392D-03  0.76130917D-04
  0.61352014D-04  0.97853616D-09  0.52492116D-04 -0.16751237D-04  0.11323203D-04
 -0.78636572D-05  0.14142110D-08 -0.23439895D-09 -0.28969878D-05 -0.49138396D-05
 -0.55942327D-05 -0.19658532D-04  0.44781861D-05  0.75958512D-05  0.86476081D-05
  0.13709723D-04  0.82558169D+00  0.15195110D+01  0.24588557D+01  0.32322346D+01
  0.27722688D+01  0.94788579D+00 -0.15692646D-01 -0.70020283D-02  0.20677083D-01
 -0.56104705D-03 -0.43225651D-03 -0.18978389D-03 -0.28196672D-02 -0.21724016D-02
 -0.95380131D-03  0.95287899D-07  0.73414189D-07  0.32232783D-07  0.41099843D-02
 -0.30012650D-03 -0.50630991D-04 -0.96765292D-09 -0.94910727D-02 -0.95318235D-02
 -0.94216918D-02  0.18441694D-03 -0.12949353D-07  0.14545477D-07  0.76984102D-05
  0.14202064D-04  0.22926534D-04  0.29843535D-04  0.25465543D-04  0.87926399D-05
 -0.70688480D-04 -0.32580256D-04  0.91358438D-04 -0.36944788D-03 -0.28326920D-03
 -0.14137118D-03  0.43183778D-03  0.33110582D-03  0.16524501D-03 -0.28216426D-07
 -0.21634566D-07 -0.10797165D-07 -0.31783391D-03  0.66735440D-04 -0.10827381D-03
  0.56716955D-08  0.28063218D-03  0.26936670D-03  0.29749635D-04 -0.50908260D-03
  0.32668007D-07 -0.38020830D-07  0.13312179D-04  0.22579975D-04  0.25706503D-04
  0.97195594D-05  0.13312929D-04  0.22581247D-04  0.25707951D-04  0.97186823D-05
  0.28547394D-04  0.52542444D-04  0.85023593D-04  0.11176589D-03  0.95860957D-04
  0.32776489D-04 -0.97643531D-04 -0.43568353D-04  0.12865793D-03 -0.12118103D-03
 -0.93363451D-04 -0.40991584D-04 -0.21802366D-03 -0.16797548D-03 -0.73750282D-04
 -0.39953937D-08 -0.30782355D-08 -0.13515112D-08 -0.28270097D-03  0.14477373D-03
  0.18593295D-03  0.26224014D-08  0.16054360D-03 -0.16478952D-04  0.10967691D-03
 -0.35130617D-04  0.15706036D-08 -0.13477975D-08 -0.58501161D-05 -0.99229042D-05
 -0.11296876D-04 -0.15535020D-03  0.27087893D-04  0.45946194D-04  0.52308118D-04
  0.27092735D-04 -0.15011206D-04 -0.25461846D-04 -0.28987412D-04 -0.10838902D-03
MO    2     MO 0.0        OCC NO =    2.0000000  ORB. ENERGY =  -19.355193
  0.18542783D-05  0.34207813D-05  0.55222017D-05  0.71882658D-05  0.61337602D-05
  0.21178400D-05  0.16490236D-05  0.76003348D-06 -0.21312132D-05  0.45639359D-04
  0.34993366D-04  0.17464142D-04  0.74587363D-04  0.57188859D-04  0.28541249D-04
  0.38688291D-09  0.29663728D-09  0.14804279D-09  0.28408796D-03  0.89609793D-04
  0.35741694D-04  0.10286812D-08  0.39175933D-06  0.45366586D-04  0.25964071D-04
 -0.18641036D-04 -0.49310245D-09 -0.38143435D-09  0.62787163D-05  0.11583006D-04
  0.18698563D-04  0.24339973D-04  0.20769343D-04  0.71711549D-05 -0.61073470D-04
 -0.28148706D-04  0.78931911D-04 -0.10361888D-04 -0.79448386D-05 -0.39650313D-05
 -0.13495036D-04 -0.10347138D-04 -0.51639470D-05 -0.12853086D-09 -0.98549309D-10
 -0.49183012D-10 -0.33691950D-03 -0.17934194D-03  0.26321629D-03 -0.23099001D-08
 -0.89705680D-04 -0.51189482D-04  0.28271478D-04  0.13857722D-04 -0.27162933D-08
  0.37709371D-09 -0.33999379D-04 -0.62722215D-04 -0.10125310D-03 -0.13180145D-03
 -0.11246642D-03 -0.38831952D-04 -0.37579803D-04 -0.17320497D-04  0.48568482D-04
  0.10156522D-03  0.77873766D-04  0.38864467D-04  0.54989398D-03  0.42162383D-03
  0.21041984D-03  0.71776738D-09  0.55033850D-09  0.27465748D-09  0.18769330D-03
 -0.94075714D-04 -0.85693399D-03 -0.26964296D-09 -0.59419208D-04 -0.69563144D-04
 -0.12777563D-03 -0.12867007D-03  0.16615833D-08 -0.16860892D-08  0.25369489D-04
  0.46801754D-04  0.75552542D-04  0.98346961D-04  0.83919640D-04  0.28975435D-04
 -0.11621772D-03 -0.53564641D-04  0.15020084D-03  0.25280220D-04  0.19383269D-04
  0.96736098D-05 -0.52877907D-04 -0.40543425D-04 -0.20234011D-04 -0.10440731D-08
 -0.80052902D-09 -0.39952009D-09 -0.64259524D-03  0.55526931D-03  0.12198461D-03
  0.58794692D-08  0.56434600D-04 -0.58350022D-04  0.75952179D-04  0.12615482D-03
 -0.18848628D-08  0.81478232D-09 -0.39581668D-05 -0.73020449D-05 -0.11787765D-04
 -0.15344167D-04 -0.13093206D-04 -0.45207692D-05  0.22348904D-04  0.10300589D-04
 -0.28883928D-04  0.34064062D-04  0.26118162D-04  0.13034794D-04  0.10540906D-03
  0.80820980D-04  0.40335334D-04 -0.58071978D-09 -0.44525909D-09 -0.22221549D-09
  0.43644517D-03 -0.17103147D-03  0.16565633D-03 -0.15864741D-08 -0.42735930D-05
  0.44256143D-04 -0.15152716D-05 -0.43339628D-05  0.20399744D-09 -0.15960930D-09
  0.86780492D-05  0.16009306D-04  0.25843984D-04  0.33641188D-04  0.28706087D-04
  0.99115220D-05 -0.32249672D-04 -0.14863845D-04  0.41679772D-04 -0.38175810D-04
 -0.29270790D-04 -0.14608176D-04 -0.65400625D-05 -0.50145051D-05 -0.25025895D-05
 -0.17561191D-09 -0.13464807D-09 -0.67198825D-10 -0.31719546D-03 -0.44199194D-04
 -0.84537916D-04 -0.65279282D-09 -0.18762495D-04  0.18443342D-04  0.40179886D-04
  0.13132705D-04 -0.16456988D-08 -0.10568640D-10  0.16223974D-05  0.27518931D-05
  0.31329330D-05  0.11195620D-04 -0.10144292D-04 -0.17206639D-04 -0.19589151D-04
 -0.13830636D-03  0.37309528D-04  0.68669449D-04  0.11112013D-03  0.14607052D-03
  0.12528384D-03  0.42836672D-04 -0.15368586D-03 -0.68574329D-04  0.20250091D-03
 -0.12804705D-03 -0.98653352D-04 -0.43314135D-04 -0.12341747D-03 -0.95086506D-04
 -0.41748098D-04 -0.36123673D-08 -0.27831343D-08 -0.12219458D-08 -0.45141856D-03
  0.16252339D-03  0.11646306D-03  0.23642384D-08  0.79277967D-04  0.15831958D-03
  0.15683110D-03 -0.82107987D-04 -0.95630582D-09 -0.25967364D-09  0.10233099D-04
  0.18878070D-04  0.30475059D-04  0.39669471D-04  0.33850032D-04  0.11687603D-04
 -0.31314595D-04 -0.14432868D-04  0.40471269D-04 -0.62527639D-04 -0.47942228D-04
 -0.23926532D-04  0.17620593D-04  0.13510353D-04  0.67426130D-05 -0.33495024D-08
 -0.25681860D-08 -0.12817048D-08 -0.49360131D-04  0.29775163D-04 -0.79885474D-05
  0.80841453D-09  0.34753815D-04  0.17203352D-04  0.41189319D-04  0.45567036D-05
  0.22906865D-08  0.94439880D-09  0.44030517D-05  0.74684090D-05  0.85025197D-05
 -0.51038793D-05  0.44030838D-05  0.74684635D-05  0.85025818D-05 -0.51042341D-05
  0.82562011D+00  0.15195817D+01  0.24589701D+01  0.32323850D+01  0.27723978D+01
  0.94792990D+00 -0.15755523D-01 -0.70300835D-02  0.20759931D-01  0.21436331D-02
  0.16515538D-02  0.72512106D-03 -0.25897367D-02 -0.19952525D-02 -0.87602332D-03
  0.29917992D-07  0.23050200D-07  0.10120279D-07  0.39779942D-02 -0.17148478D-03
 -0.33757229D-03 -0.15519498D-08 -0.92890317D-02 -0.92007725D-02 -0.92467409D-02
  0.15529350D-03 -0.14223146D-08  0.15854843D-08  0.86518551D-04  0.14675184D-03
  0.16707178D-03 -0.21003456D-03 -0.42630493D-06 -0.72309384D-06 -0.82321678D-06
 -0.61576987D-05  0.10176070D-04  0.17260541D-04  0.19650516D-04  0.75242816D-04
MO    3     MO 0.0        OCC NO =    2.0000000  ORB. ENERGY =  -10.517400
  0.19205156D-02  0.35429763D-02  0.57194623D-02  0.74450405D-02  0.63528666D-02
  0.21934922D-02  0.31438224D-03  0.14489849D-03 -0.40631048D-03 -0.34104272D-03
 -0.26148992D-03 -0.13050180D-03  0.23754608D-03  0.18213527D-03  0.90898263D-04
 -0.26241221D-08 -0.20120104D-08 -0.10041342D-08  0.20030877D-02  0.95498722D-03
 -0.27379663D-04  0.99236065D-08 -0.10527725D-03 -0.44380452D-03 -0.36783892D-03
  0.21346948D-04  0.76725439D-08 -0.13064771D-08  0.40990319D-04  0.75619135D-04
  0.12207273D-03  0.15890242D-03  0.13559173D-03  0.46816564D-04 -0.80220833D-04
 -0.36973709D-04  0.10367814D-03  0.52410101D-05  0.40184741D-05  0.20055002D-05
  0.55835903D-04  0.42811429D-04  0.21365903D-04  0.59700493D-09  0.45774552D-09
  0.22844709D-09 -0.11671488D-02 -0.40445311D-03  0.36858052D-03 -0.48780500D-08
  0.20352714D-04  0.96931932D-04  0.65787133D-04  0.19811767D-04 -0.17186033D-08
 -0.17732271D-09 -0.77059623D-04 -0.14215996D-03 -0.22949025D-03 -0.29872812D-03
 -0.25490524D-03 -0.88012655D-04  0.13755273D-03  0.63397928D-04 -0.17777441D-03
  0.98405289D-05  0.75450934D-05  0.37655304D-05  0.31241703D-04  0.23954156D-04
  0.11954803D-04  0.48112622D-09  0.36889707D-09  0.18410549D-09  0.89880240D-03
 -0.27061873D-03 -0.49689495D-03 -0.25155382D-08 -0.18362747D-04 -0.48844577D-04
 -0.12296761D-03  0.23388193D-04  0.25377708D-08 -0.12959065D-09  0.62395661D-04
  0.11510781D-03  0.18581970D-03  0.24188203D-03  0.20639838D-03  0.71264399D-04
 -0.71178771D-04 -0.32806231D-04  0.91992095D-04  0.37500715D-04  0.28753170D-04
  0.14349847D-04 -0.10493963D-04 -0.80461055D-05 -0.40155705D-05  0.18225071D-08
  0.13973828D-08  0.69739198D-09 -0.10347875D-02  0.45161948D-03  0.27190473D-03
  0.43624215D-08  0.26969452D-04  0.11981187D-03  0.56291022D-04 -0.10359173D-04
 -0.10322233D-08 -0.13291861D-09  0.18515654D-02  0.34157767D-02  0.55141226D-02
  0.71777493D-02  0.61247864D-02  0.21147416D-02  0.31178422D-03  0.14370106D-03
 -0.40295278D-03  0.48446257D-03  0.37145517D-03  0.18538216D-03  0.67731372D-04
  0.51932120D-04  0.25917768D-04  0.67666760D-08  0.51882580D-08  0.25893043D-08
  0.21207313D-02 -0.80061021D-03  0.48413085D-03 -0.98154042D-08 -0.27032525D-03
 -0.35066025D-03 -0.37487311D-03 -0.32721765D-03  0.36453123D-09 -0.42392504D-08
  0.53255680D+00  0.98246330D+00  0.15860004D+01  0.20645013D+01  0.17616427D+01
  0.60825288D+00 -0.19602857D-01 -0.90349387D-02  0.25334911D-01 -0.34434545D-04
 -0.26402225D-04 -0.13176561D-04 -0.60397778D-03 -0.46309185D-03 -0.23111529D-03
 -0.35583433D-07 -0.27283119D-07 -0.13616189D-07 -0.40995638D-02 -0.25756913D-03
 -0.84609886D-03  0.25996188D-09 -0.99963427D-02 -0.10713446D-01 -0.10316534D-01
 -0.43378194D-03  0.61363960D-08 -0.89295842D-08  0.14913780D-04  0.25296594D-04
  0.28799278D-04  0.27187713D-03 -0.22258494D-04 -0.37754618D-04 -0.42982299D-04
 -0.12547667D-03  0.12147099D-04  0.22357146D-04  0.36178082D-04  0.47557102D-04
  0.40789450D-04  0.13946606D-04 -0.45413401D-04 -0.20263371D-04  0.59838006D-04
  0.32954578D-04  0.25389726D-04  0.11147457D-04  0.25479050D-04  0.19630234D-04
  0.86187303D-05 -0.64128168D-09 -0.49407296D-09 -0.21692464D-09 -0.23539564D-03
  0.56114855D-05  0.52510566D-05 -0.47057947D-09  0.61565763D-04  0.49290922D-04
  0.80544195D-05  0.68694278D-04  0.26314621D-08  0.10254895D-08 -0.14007687D-04
 -0.25841448D-04 -0.41716109D-04 -0.54301979D-04 -0.46335977D-04 -0.15998699D-04
  0.33290217D-04  0.15343431D-04 -0.43024581D-04  0.50649946D-04  0.38835166D-04
  0.19381469D-04  0.60771613D-04  0.46595818D-04  0.23254579D-04  0.18844252D-08
  0.14448577D-08  0.72108525D-09  0.65747564D-04 -0.46442329D-04 -0.27461231D-04
 -0.24613343D-08 -0.18966176D-04 -0.23556688D-04 -0.36767249D-04 -0.17273396D-04
  0.25992113D-08 -0.98148467D-09 -0.73955401D-05 -0.12544236D-04 -0.14281169D-04
 -0.20728236D-04 -0.73960107D-05 -0.12545034D-04 -0.14282078D-04 -0.20729296D-04
 -0.35273943D-04 -0.64922885D-04 -0.10505748D-03 -0.13810100D-03 -0.11844843D-03
 -0.40499529D-04  0.12128857D-03  0.54118725D-04 -0.15981332D-03  0.12223328D-04
  0.94174156D-05  0.41347527D-05  0.33545052D-04  0.25844654D-04  0.11347195D-04
 -0.33627062D-09 -0.25907838D-09 -0.11374937D-09  0.38824463D-03 -0.50328664D-05
 -0.89807142D-04 -0.30619360D-10 -0.12996256D-03 -0.11744017D-03 -0.11655283D-03
 -0.20426776D-04 -0.14817294D-09 -0.17058723D-09 -0.70505354D-05 -0.11959042D-04
 -0.13614947D-04  0.98987743D-05  0.20763521D-05  0.35218861D-05  0.40095428D-05
  0.29192047D-04  0.12714303D-04  0.21565865D-04  0.24551975D-04  0.24126624D-03
MO    4     MO 0.0        OCC NO =    2.0000000  ORB. ENERGY =  -10.473016
 -0.75993761D-04 -0.14019365D-03 -0.22631602D-03 -0.29459621D-03 -0.25137948D-03
 -0.86795294D-04  0.12507636D-03  0.57647581D-04 -0.16164983D-03 -0.69225213D-04
 -0.53077502D-04 -0.26489394D-04 -0.53326539D-05 -0.40887408D-05 -0.20405682D-05
 -0.89310143D-09 -0.68477353D-09 -0.34174998D-09  0.86806360D-03  0.40513803D-03
  0.16610703D-03  0.43407922D-08 -0.38760278D-04  0.23795895D-04 -0.13575693D-03
 -0.16447977D-04  0.20590916D-08 -0.17920271D-09  0.32699867D-04  0.60324870D-04
  0.97383045D-04  0.12676379D-03  0.10816777D-03  0.37347732D-04 -0.16733865D-04
 -0.77126229D-05  0.21627000D-04 -0.16118994D-03 -0.12359022D-03 -0.61680183D-04
  0.10536173D-04  0.80784688D-05  0.40317221D-05 -0.18860387D-08 -0.14460949D-08
 -0.72170269D-09 -0.10797861D-02 -0.28443802D-03  0.38869297D-03 -0.39130063D-08
  0.11886656D-03  0.13877974D-04 -0.14736581D-04  0.42375534D-04  0.22703839D-08
  0.23677032D-09  0.67393811D-02  0.12432842D-01  0.20070462D-01  0.26125778D-01
  0.22293174D-01  0.76972972D-02  0.50773966D-04  0.23401674D-04 -0.65620738D-04
 -0.22839279D-03 -0.17511711D-03 -0.87395709D-04  0.25494425D-03  0.19547508D-03
  0.97555764D-04 -0.37317945D-08 -0.28613033D-08 -0.14279909D-08  0.17567724D-02
 -0.15363552D-03 -0.11215198D-02  0.36693964D-09 -0.70840005D-03 -0.48058402D-03
 -0.44237187D-03  0.11842459D-03 -0.57666836D-08  0.96078876D-09  0.53250879D+00
  0.98237475D+00  0.15858574D+01  0.20643152D+01  0.17614839D+01  0.60819806D+00
 -0.19689456D-01 -0.90748523D-02  0.25446833D-01  0.81479722D-03  0.62473483D-03
  0.31178646D-03 -0.18021114D-03 -0.13817447D-03 -0.68958744D-04  0.15202778D-07
  0.11656526D-07  0.58174233D-08 -0.35074585D-02  0.15662993D-02  0.70666368D-03
  0.14455769D-07 -0.94071210D-02 -0.97744820D-02 -0.10419670D-01  0.59241800D-03
  0.17464669D-07  0.27900780D-08  0.36180855D-02  0.66746612D-02  0.10774973D-01
  0.14025813D-01  0.11968252D-01  0.41323497D-02  0.18156916D-03  0.83685060D-04
 -0.23466164D-03  0.79025827D-04  0.60591992D-04  0.30239650D-04 -0.40315362D-03
 -0.30911263D-03 -0.15426887D-03  0.25134016D-08  0.19271169D-08  0.96176641D-09
  0.23930608D-02 -0.62816379D-03  0.86471119D-03 -0.74684144D-08 -0.37168716D-03
 -0.60316352D-03 -0.38408335D-03 -0.35866853D-03  0.18338054D-09 -0.38449475D-08
 -0.39238206D-04 -0.72386829D-04 -0.11685479D-03 -0.15211021D-03 -0.12979592D-03
 -0.44815411D-04 -0.23051214D-04 -0.10624283D-04  0.29791599D-04 -0.17381425D-03
 -0.13326974D-03 -0.66510943D-04 -0.11003673D-03 -0.84369183D-04 -0.42106136D-04
 -0.25400477D-08 -0.19475475D-08 -0.97196269D-09 -0.12289507D-02 -0.21379533D-03
 -0.32380892D-03 -0.19270670D-08  0.51152262D-04  0.10082244D-03  0.28798679D-05
  0.71193675D-04  0.99421291D-09  0.11325416D-08  0.16829878D-04  0.28546658D-04
  0.32499362D-04  0.12528582D-03 -0.19250175D-04 -0.32651941D-04 -0.37173081D-04
 -0.89338019D-04  0.11895213D-03  0.21893541D-03  0.35427882D-03  0.46570943D-03
  0.39943627D-03  0.13657405D-03 -0.66908561D-03 -0.29854469D-03  0.88160648D-03
 -0.20418963D-03 -0.15731710D-03 -0.69070682D-04  0.20428159D-04  0.15738796D-04
  0.69101790D-05  0.37109133D-08  0.28590586D-08  0.12552807D-08 -0.16293144D-02
  0.81355114D-03  0.25846383D-03  0.34567839D-08 -0.28730838D-03  0.60114182D-03
  0.92426288D-03 -0.74621944D-03 -0.16582772D-07  0.55010622D-08 -0.17183944D-04
 -0.31701022D-04 -0.51175279D-04 -0.66615008D-04 -0.56842707D-04 -0.19626421D-04
  0.42062246D-04  0.19386451D-04 -0.54361631D-04 -0.20700165D-04 -0.15871574D-04
 -0.79210277D-05  0.12710059D-04  0.97452674D-05  0.48635714D-05 -0.34060332D-08
 -0.26115303D-08 -0.13033366D-08 -0.26472982D-04 -0.58175720D-04 -0.75238299D-04
  0.32885541D-08  0.17454612D-03 -0.10949054D-03  0.54646217D-04 -0.56224770D-04
  0.31908731D-09  0.33391924D-08 -0.16400805D-04 -0.27818870D-04 -0.31670800D-04
 -0.17509764D-04 -0.16398017D-04 -0.27814140D-04 -0.31665415D-04 -0.17508551D-04
 -0.80099445D-04 -0.14742574D-03 -0.23856267D-03 -0.31359731D-03 -0.26897059D-03
 -0.91965613D-04  0.29032913D-03  0.12954429D-03 -0.38254602D-03  0.11715252D-03
  0.90259700D-04  0.39628870D-04  0.72179728D-04  0.55610589D-04  0.24416044D-04
  0.21094849D-08  0.16252444D-08  0.71356981D-09  0.83602629D-03 -0.12818928D-03
 -0.19882727D-03 -0.18749009D-08 -0.30606874D-03 -0.18751854D-03 -0.30599059D-03
  0.32867067D-04  0.20867301D-09  0.96251410D-09 -0.20573755D-05 -0.34896982D-05
 -0.39728981D-05  0.33227650D-04  0.18138624D-04  0.30766539D-04  0.35026617D-04
  0.34515161D-04  0.34952275D-04  0.59285674D-04  0.67494644D-04  0.27893746D-03
MO    5     MO 0.0        OCC NO =    2.0000000  ORB. ENERGY =  -10.454271
  0.59456626D-04  0.10968587D-03  0.17706700D-03  0.23048862D-03  0.19667636D-03
  0.67907619D-04 -0.66720266D-04 -0.30751310D-04  0.86229882D-04 -0.83592071D-04
 -0.64093098D-04 -0.31986948D-04 -0.19779335D-03 -0.15165539D-03 -0.75686671D-04
 -0.77966161D-09 -0.59779507D-09 -0.29834164D-09 -0.12483929D-02 -0.47245308D-03
 -0.17569610D-03 -0.50904963D-08  0.62961136D-04  0.39008562D-04  0.35638145D-04
  0.49159419D-04  0.54697736D-09  0.93466683D-09  0.32126388D-02  0.59266912D-02
  0.95675173D-02  0.12454065D-01  0.10627076D-01  0.36692740D-02  0.19973092D-03
  0.92055797D-04 -0.25813406D-03 -0.35082323D-03 -0.26898900D-03 -0.13424437D-03
  0.78345618D-04  0.60070451D-04  0.29979365D-04 -0.37841881D-08 -0.29014754D-08
 -0.14480396D-08  0.22229557D-02  0.83976021D-03 -0.74127392D-03  0.10015300D-07
 -0.42068614D-03 -0.38808723D-03 -0.36161746D-03 -0.32476571D-03 -0.12051369D-08
 -0.37826032D-08  0.53251632D+00  0.98238863D+00  0.15858799D+01  0.20643444D+01
  0.17615088D+01  0.60820665D+00 -0.19775268D-01 -0.91144032D-02  0.25557738D-01
  0.36132358D-03  0.27704000D-03  0.13826238D-03  0.61374806D-03  0.47058308D-03
  0.23485394D-03 -0.85335836D-09 -0.65430107D-09 -0.32654209D-09 -0.37757334D-02
  0.42079797D-03  0.18026192D-02  0.38868201D-08 -0.99034210D-02 -0.93960569D-02
 -0.10423360D-01  0.36596638D-03  0.11779664D-07  0.15179098D-08 -0.70294627D-02
 -0.12967986D-01 -0.20934350D-01 -0.27250304D-01 -0.23252734D-01 -0.80286102D-02
  0.58762992D-03  0.27083809D-03 -0.75945828D-03  0.32055425D-03  0.24578067D-03
  0.12266178D-03 -0.27197748D-03 -0.20853508D-03 -0.10407362D-03  0.63673859D-08
  0.48821077D-08  0.24365139D-08  0.23691930D-02 -0.12863856D-02 -0.88140967D-04
 -0.14423302D-07 -0.27099816D-03 -0.48650567D-03 -0.19934804D-03  0.88005907D-04
  0.61466733D-10  0.32205521D-08 -0.74554217D-04 -0.13753797D-03 -0.22202893D-03
 -0.28901570D-03 -0.24661762D-03 -0.85151138D-04 -0.41259831D-04 -0.19016618D-04
  0.53324583D-04 -0.24370689D-06 -0.18685898D-06 -0.93255729D-07 -0.15664367D-03
 -0.12010443D-03 -0.59940529D-04  0.21313573D-08  0.16341896D-08  0.81557515D-09
 -0.11913321D-02  0.39818050D-03 -0.42415942D-03  0.39383284D-08  0.72915234D-04
  0.94935377D-04  0.19637376D-04  0.71182470D-04  0.54622215D-09  0.10341921D-08
  0.94307785D-05  0.17397945D-04  0.28085678D-04  0.36559207D-04  0.31196038D-04
  0.10771242D-04  0.12062743D-03  0.55597073D-04 -0.15590000D-03  0.14012667D-04
  0.10744024D-04  0.53620211D-05  0.48088363D-04  0.36871106D-04  0.18401266D-04
 -0.44101168D-09 -0.33813978D-09 -0.16875545D-09  0.10813119D-02  0.97581209D-04
  0.32045786D-03  0.12675410D-08 -0.13644768D-04 -0.47127674D-04 -0.14496698D-03
 -0.33978951D-04  0.36670199D-08 -0.92782400D-10 -0.11688854D-04 -0.19826509D-04
 -0.22571780D-04 -0.89237569D-04  0.43294595D-04  0.73435827D-04  0.83604094D-04
  0.33434973D-03 -0.62686275D-04 -0.11537621D-03 -0.18670049D-03 -0.24542301D-03
 -0.21049789D-03 -0.71972805D-04  0.25328485D-03  0.11301521D-03 -0.33373542D-03
  0.67852232D-04  0.52276487D-04  0.22952193D-04 -0.41891965D-05 -0.32275501D-05
 -0.14170683D-05  0.48821240D-08  0.37614134D-08  0.16514631D-08  0.70448808D-03
 -0.21360465D-03 -0.83333222D-04 -0.39437179D-08 -0.95862265D-04 -0.22437915D-03
 -0.26358172D-03  0.78814778D-04  0.19349839D-08  0.30604544D-08 -0.26523280D-04