 Entering Link 1 = D:\Gaussian\G16W\l1.exe PID=     42264.
  
 Copyright (c) 1988,1990,1992,1993,1995,1998,2003,2009,2016,
            Gaussian, Inc.  All Rights Reserved.
  
 This is part of the Gaussian(R) 16 program.  It is based on
 the Gaussian(R) 09 system (copyright 2009, Gaussian, Inc.),
 the Gaussian(R) 03 system (copyright 2003, Gaussian, Inc.),
 the Gaussian(R) 98 system (copyright 1998, Gaussian, Inc.),
 the Gaussian(R) 94 system (copyright 1995, Gaussian, Inc.),
 the Gaussian 92(TM) system (copyright 1992, Gaussian, Inc.),
 the Gaussian 90(TM) system (copyright 1990, Gaussian, Inc.),
 the Gaussian 88(TM) system (copyright 1988, Gaussian, Inc.),
 the Gaussian 86(TM) system (copyright 1986, Carnegie Mellon
 University), and the Gaussian 82(TM) system (copyright 1983,
 Carnegie Mellon University). Gaussian is a federally registered
 trademark of Gaussian, Inc.
  
 This software contains proprietary and confidential information,
 including trade secrets, belonging to Gaussian, Inc.
  
 This software is provided under written license and may be
 used, copied, transmitted, or stored only in accord with that
 written license.
  
 The following legend is applicable only to US Government
 contracts under FAR:
  
                    RESTRICTED RIGHTS LEGEND
  
 Use, reproduction and disclosure by the US Government is
 subject to restrictions as set forth in subparagraphs (a)
 and (c) of the Commercial Computer Software - Restricted
 Rights clause in FAR 52.227-19.
  
 Gaussian, Inc.
 340 Quinnipiac St., Bldg. 40, Wallingford CT 06492
  
  
 ---------------------------------------------------------------
 Warning -- This program may not be used in any manner that
 competes with the business of Gaussian, Inc. or will provide
 assistance to any competitor of Gaussian, Inc.  The licensee
 of this program is prohibited from giving any competitor of
 Gaussian, Inc. access to this program.  By using this program,
 the user acknowledges that Gaussian, Inc. is engaged in the
 business of creating and licensing software in the field of
 computational chemistry and represents and warrants to the
 licensee that it is not a competitor of Gaussian, Inc. and that
 it will not use this program in any manner prohibited above.
 ---------------------------------------------------------------
  

 Cite this work as:
 Gaussian 16, Revision A.03,
 M. J. Frisch, G. W. Trucks, H. B. Schlegel, G. E. Scuseria, 
 M. A. Robb, J. R. Cheeseman, G. Scalmani, V. Barone, 
 G. A. Petersson, H. Nakatsuji, X. Li, M. Caricato, A. V. Marenich, 
 J. Bloino, B. G. Janesko, R. Gomperts, B. Mennucci, H. P. Hratchian, 
 J. V. Ortiz, A. F. Izmaylov, J. L. Sonnenberg, D. Williams-Young, 
 F. Ding, F. Lipparini, F. Egidi, J. Goings, B. Peng, A. Petrone, 
 T. Henderson, D. Ranasinghe, V. G. Zakrzewski, J. Gao, N. Rega, 
 G. Zheng, W. Liang, M. Hada, M. Ehara, K. Toyota, R. Fukuda, 
 J. Hasegawa, M. Ishida, T. Nakajima, Y. Honda, O. Kitao, H. Nakai, 
 T. Vreven, K. Throssell, J. A. Montgomery, Jr., J. E. Peralta, 
 F. Ogliaro, M. J. Bearpark, J. J. Heyd, E. N. Brothers, K. N. Kudin, 
 V. N. Staroverov, T. A. Keith, R. Kobayashi, J. Normand, 
 K. Raghavachari, A. P. Rendell, J. C. Burant, S. S. Iyengar, 
 J. Tomasi, M. Cossi, J. M. Millam, M. Klene, C. Adamo, R. Cammi, 
 J. W. Ochterski, R. L. Martin, K. Morokuma, O. Farkas, 
 J. B. Foresman, and D. J. Fox, Gaussian, Inc., Wallingford CT, 2016.
 
 ******************************************
 Gaussian 16:  EM64W-G16RevA.03 17-Dec-2016
                03-Dec-2025 
 ******************************************
 %nprocs=   4
 Will use up to    4 processors via shared memory.
 ------------------------------------
 #P B3LYP/6-31G* SCF=conver=7 out=wfn
 ------------------------------------
 1/38=1,172=1/1;
 2/12=2,17=6,18=5,40=1/2;
 3/5=1,6=6,7=1,11=2,25=1,30=1,74=-5/1,2,3;
 4//1;
 5/5=2,6=7,38=5/2;
 6/7=2,8=2,9=2,10=2,28=1/1;
 99/5=1,6=100,9=1/99;
 Leave Link    1 at Wed Dec 03 16:07:20 2025, MaxMem=           0 cpu:               0.0 elap:               0.1
 (Enter D:\Gaussian\G16W\l101.exe)
 ----------------------------------------------------
 Generated by Multiwfn (http://sobereva.com/multiwfn)
 ----------------------------------------------------
 Symbolic Z-matrix:
 Charge =  0 Multiplicity = 2
 C                    -2.30269  -0.78311  -0.00003 
 C                    -1.90973   0.56612  -0.00003 
 C                    -0.56357   0.90567  -0.00001 
 C                     0.42348  -0.10245  0. 
 C                     0.05425  -1.45015  -0.00001 
 C                    -1.29925  -1.71516  -0.00002 
 H                    -3.3522   -1.05207  -0.00004 
 H                    -2.64377   1.3638   -0.00004 
 O                     1.70793   0.3812    0.00001 
 C                     2.78186  -0.55087   0.00007 
 H                     2.75724  -1.1819    0.89471 
 H                     2.75732  -1.18193  -0.89454 
 O                    -0.19355   2.21756  -0.00001 
 H                     0.77233   2.24174   0. 
 H                     3.69503   0.04162   0.0001 
 H                     0.79281  -2.24166   0. 
 
 ITRead=  0  0  0  0  0  0  0  0  0  0  0  0  0  0  0  0
 MicOpt= -1 -1 -1 -1 -1 -1 -1 -1 -1 -1 -1 -1 -1 -1 -1 -1
 NAtoms=     16 NQM=       16 NQMF=       0 NMMI=      0 NMMIF=      0
                NMic=       0 NMicF=      0.
                    Isotopes and Nuclear Properties:
 (Nuclear quadrupole moments (NQMom) in fm**2, nuclear magnetic moments (NMagM)
  in nuclear magnetons)

  Atom         1           2           3           4           5           6           7           8           9          10
 IAtWgt=          12          12          12          12          12          12           1           1          16          12
 AtmWgt=  12.0000000  12.0000000  12.0000000  12.0000000  12.0000000  12.0000000   1.0078250   1.0078250  15.9949146  12.0000000
 NucSpn=           0           0           0           0           0           0           1           1           0           0
 AtZEff=   0.0000000   0.0000000   0.0000000   0.0000000   0.0000000   0.0000000   0.0000000   0.0000000   0.0000000   0.0000000
 NQMom=    0.0000000   0.0000000   0.0000000   0.0000000   0.0000000   0.0000000   0.0000000   0.0000000   0.0000000   0.0000000
 NMagM=    0.0000000   0.0000000   0.0000000   0.0000000   0.0000000   0.0000000   2.7928460   2.7928460   0.0000000   0.0000000
 AtZNuc=   6.0000000   6.0000000   6.0000000   6.0000000   6.0000000   6.0000000   1.0000000   1.0000000   8.0000000   6.0000000

  Atom        11          12          13          14          15          16
 IAtWgt=           1           1          16           1           1           1
 AtmWgt=   1.0078250   1.0078250  15.9949146   1.0078250   1.0078250   1.0078250
 NucSpn=           1           1           0           1           1           1
 AtZEff=   0.0000000   0.0000000   0.0000000   0.0000000   0.0000000   0.0000000
 NQMom=    0.0000000   0.0000000   0.0000000   0.0000000   0.0000000   0.0000000
 NMagM=    2.7928460   2.7928460   0.0000000   2.7928460   2.7928460   2.7928460
 AtZNuc=   1.0000000   1.0000000   8.0000000   1.0000000   1.0000000   1.0000000
 Leave Link  101 at Wed Dec 03 16:07:20 2025, MaxMem=   104857600 cpu:               0.0 elap:               0.1
 (Enter D:\Gaussian\G16W\l202.exe)
                          Input orientation:                          
 ---------------------------------------------------------------------
 Center     Atomic      Atomic             Coordinates (Angstroms)
 Number     Number       Type             X           Y           Z
 ---------------------------------------------------------------------
      1          6           0       -2.302692   -0.783106   -0.000032
      2          6           0       -1.909728    0.566122   -0.000029
      3          6           0       -0.563568    0.905669   -0.000014
      4          6           0        0.423481   -0.102448   -0.000002
      5          6           0        0.054254   -1.450148   -0.000005
      6          6           0       -1.299247   -1.715162   -0.000020
      7          1           0       -3.352196   -1.052069   -0.000043
      8          1           0       -2.643774    1.363796   -0.000038
      9          8           0        1.707933    0.381199    0.000008
     10          6           0        2.781859   -0.550870    0.000074
     11          1           0        2.757240   -1.181895    0.894706
     12          1           0        2.757321   -1.181929   -0.894536
     13          8           0       -0.193547    2.217557   -0.000011
     14          1           0        0.772325    2.241741    0.000002
     15          1           0        3.695032    0.041619    0.000103
     16          1           0        0.792813   -2.241661    0.000002
 ---------------------------------------------------------------------
                    Distance matrix (angstroms):
                    1          2          3          4          5
     1  C    0.000000
     2  C    1.405289   0.000000
     3  C    2.424152   1.388322   0.000000
     4  C    2.809860   2.427107   1.410874   0.000000
     5  C    2.449518   2.814706   2.435483   1.397363   0.000000
     6  C    1.369537   2.361555   2.722128   2.359796   1.379202
     7  H    1.083420   2.167777   3.407225   3.893266   3.429631
     8  H    2.173827   1.084024   2.130056   3.399695   3.898415
     9  O    4.176209   3.622384   2.331263   1.372491   2.467486
    10  C    5.089852   4.822723   3.648752   2.400631   2.872025
    11  H    5.153882   5.063270   4.023209   2.722524   2.859825
    12  H    5.153924   5.063316   4.023250   2.722550   2.859842
    13  O    3.667761   2.381704   1.363072   2.400655   3.676067
    14  H    4.313401   3.162453   1.889365   2.370003   3.761073
    15  H    6.054161   5.629248   4.345372   3.274722   3.934544
    16  H    3.421920   3.897098   3.427164   2.170861   1.082572
                    6          7          8          9         10
     6  C    0.000000
     7  H    2.157381   0.000000
     8  H    3.359722   2.517591   0.000000
     9  O    3.665769   5.259198   4.461261   0.000000
    10  C    4.243937   6.154497   5.753559   1.421995   0.000000
    11  H    4.188078   6.175973   6.037554   2.084417   1.095064
    12  H    4.188107   6.176016   6.037605   2.084417   1.095064
    13  O    4.085199   4.546154   2.594710   2.643452   4.064139
    14  H    4.466373   5.278339   3.527112   2.082541   3.440480
    15  H    5.294252   7.131590   6.475231   2.015906   1.088544
    16  H    2.157294   4.312334   4.980909   2.777920   2.610570
                   11         12         13         14         15
    11  H    0.000000
    12  H    1.789242   0.000000
    13  O    4.589546   4.589586   0.000000
    14  H    4.057298   4.057330   0.966175   0.000000
    15  H    1.782345   1.782344   4.455979   3.658245   0.000000
    16  H    2.404698   2.404687   4.567005   4.483449   3.692728
                   16
    16  H    0.000000
 Stoichiometry    C7H7O2(2)
 Framework group  C1[X(C7H7O2)]
 Deg. of freedom    42
 Full point group                 C1      NOp   1
 Largest Abelian subgroup         C1      NOp   1
 Largest concise Abelian subgroup C1      NOp   1
                         Standard orientation:                         
 ---------------------------------------------------------------------
 Center     Atomic      Atomic             Coordinates (Angstroms)
 Number     Number       Type             X           Y           Z
 ---------------------------------------------------------------------
      1          6           0       -2.302692   -0.783106   -0.000032
      2          6           0       -1.909728    0.566122   -0.000029
      3          6           0       -0.563568    0.905669   -0.000014
      4          6           0        0.423481   -0.102448   -0.000002
      5          6           0        0.054254   -1.450148   -0.000005
      6          6           0       -1.299247   -1.715162   -0.000020
      7          1           0       -3.352196   -1.052069   -0.000043
      8          1           0       -2.643774    1.363796   -0.000038
      9          8           0        1.707933    0.381199    0.000008
     10          6           0        2.781859   -0.550869    0.000074
     11          1           0        2.757240   -1.181894    0.894706
     12          1           0        2.757321   -1.181928   -0.894536
     13          8           0       -0.193547    2.217557   -0.000011
     14          1           0        0.772325    2.241741    0.000002
     15          1           0        3.695032    0.041620    0.000103
     16          1           0        0.792813   -2.241661    0.000002
 ---------------------------------------------------------------------
 Rotational constants (GHZ):           2.7533954           1.5588935           1.0017186
 Leave Link  202 at Wed Dec 03 16:07:20 2025, MaxMem=   104857600 cpu:               0.0 elap:               0.0
 (Enter D:\Gaussian\G16W\l301.exe)
 Standard basis: 6-31G(d) (6D, 7F)
 Ernie: Thresh=  0.10000D-02 Tol=  0.10000D-05 Strict=F.
 There are   149 symmetry adapted cartesian basis functions of A   symmetry.
 There are   149 symmetry adapted basis functions of A   symmetry.
   149 basis functions,   280 primitive gaussians,   149 cartesian basis functions
    33 alpha electrons       32 beta electrons
       nuclear repulsion energy       422.2223138708 Hartrees.
 IExCor=  402 DFT=T Ex+Corr=B3LYP ExCW=0 ScaHFX=  0.200000
 ScaDFX=  0.800000  0.720000  1.000000  0.810000 ScalE2=  1.000000  1.000000
 IRadAn=      5 IRanWt=     -1 IRanGd=            0 ICorTp=0 IEmpDi=  4
 NAtoms=   16 NActive=   16 NUniq=   16 SFac= 1.00D+00 NAtFMM=   60 NAOKFM=F Big=F
 Integral buffers will be    131072 words long.
 Raffenetti 2 integral format.
 Two-electron integral symmetry is turned on.
 Leave Link  301 at Wed Dec 03 16:07:20 2025, MaxMem=   104857600 cpu:               0.0 elap:               0.1
 (Enter D:\Gaussian\G16W\l302.exe)
 NPDir=0 NMtPBC=     1 NCelOv=     1 NCel=       1 NClECP=     1 NCelD=      1
         NCelK=      1 NCelE2=     1 NClLst=     1 CellRange=     0.0.
 One-electron integrals computed using PRISM.
 One-electron integral symmetry used in STVInt
 NBasis=   149 RedAO= T EigKep=  5.26D-04  NBF=   149
 NBsUse=   149 1.00D-06 EigRej= -1.00D+00 NBFU=   149
 Precomputing XC quadrature grid using
 IXCGrd= 4 IRadAn=           5 IRanWt=          -1 IRanGd=           0 AccXCQ= 0.00D+00.
 Generated NRdTot=       0 NPtTot=           0 NUsed=           0 NTot=          32
 NSgBfM=   149   149   149   149   149 MxSgAt=    16 MxSgA2=    16.
 Leave Link  302 at Wed Dec 03 16:07:20 2025, MaxMem=   104857600 cpu:               0.0 elap:               0.2
 (Enter D:\Gaussian\G16W\l303.exe)
 DipDrv:  MaxL=1.
 Leave Link  303 at Wed Dec 03 16:07:21 2025, MaxMem=   104857600 cpu:               1.0 elap:               0.1
 (Enter D:\Gaussian\G16W\l401.exe)
 ExpMin= 1.61D-01 ExpMax= 5.48D+03 ExpMxC= 8.25D+02 IAcc=3 IRadAn=         5 AccDes= 0.00D+00
 Harris functional with IExCor=  402 and IRadAn=       5 diagonalized for initial guess.
 HarFok:  IExCor=  402 AccDes= 0.00D+00 IRadAn=         5 IDoV= 1 UseB2=F ITyADJ=14
 ICtDFT=  3500011 ScaDFX=  1.000000  1.000000  1.000000  1.000000
 FoFCou: FMM=F IPFlag=           0 FMFlag=      100000 FMFlg1=           0
         NFxFlg=           0 DoJE=T BraDBF=F KetDBF=T FulRan=T
         wScrn=  0.000000 ICntrl=       500 IOpCl=  0 I1Cent=   200000004 NGrid=           0
         NMat0=    1 NMatS0=      1 NMatT0=    0 NMatD0=    1 NMtDS0=    0 NMtDT0=    0
 Petite list used in FoFCou.
 Harris En= -421.284767125390    
 JPrj=0 DoOrth=F DoCkMO=F.
 Initial guess <Sx>= 0.0000 <Sy>= 0.0000 <Sz>= 0.5000 <S**2>= 0.7500 S= 0.5000
 Leave Link  401 at Wed Dec 03 16:07:21 2025, MaxMem=   104857600 cpu:               0.0 elap:               0.9
 (Enter D:\Gaussian\G16W\l502.exe)
 Integral symmetry usage will be decided dynamically.
 UHF open shell SCF:
 Using DIIS extrapolation, IDIIS=  1040.
 NGot=   104857600 LenX=   104810543 LenY=   104787901
 Requested convergence on RMS density matrix=1.00D-07 within 128 cycles.
 Requested convergence on MAX density matrix=1.00D-05.
 Requested convergence on             energy=1.00D-05.
 No special actions if energy rises.
 Fock matrices will be formed incrementally for  20 cycles.
 Integral accuracy reduced to 1.0D-05 until final iterations.

 Cycle   1  Pass 0  IDiag  1:
 FoFJK:  IHMeth= 1 ICntrl=       0 DoSepK=F KAlg= 0 I1Cent=           0 FoldK=F
 IRaf= 950000000 NMat=       1 IRICut=       1 DoRegI=T DoRafI=F ISym2E= 0 IDoP0=0 IntGTp=1.
 FoFCou: FMM=F IPFlag=           0 FMFlag=      100000 FMFlg1=           0
         NFxFlg=           0 DoJE=F BraDBF=F KetDBF=F FulRan=T
         wScrn=  0.000000 ICntrl=         0 IOpCl=  1 I1Cent=           0 NGrid=           0
         NMat0=    1 NMatS0=      1 NMatT0=    0 NMatD0=    1 NMtDS0=    0 NMtDT0=    0
 Symmetry not used in FoFCou.
 E= -421.110301815828    
 DIIS: error= 3.34D-02 at cycle   1 NSaved=   1.
 NSaved= 1 IEnMin= 1 EnMin= -421.110301815828     IErMin= 1 ErrMin= 3.34D-02
 ErrMax= 3.34D-02  0.00D+00 EMaxC= 1.00D-01 BMatC= 7.71D-01 BMatP= 7.71D-01
 IDIUse=3 WtCom= 6.66D-01 WtEn= 3.34D-01
 Coeff-Com:  0.100D+01
 Coeff-En:   0.100D+01
 Coeff:      0.100D+01
 Gap=     0.252 Goal=   None    Shift=    0.000
 Gap=     0.140 Goal=   None    Shift=    0.000
 GapD=    0.140 DampG=1.000 DampE=0.500 DampFc=0.5000 IDamp=-1.
 Damping current iteration by 5.00D-01
 RMSDP=6.55D-03 MaxDP=1.56D-01              OVMax= 2.21D-01

 Cycle   2  Pass 0  IDiag  1:
 RMSU=  3.22D-03    CP:  9.79D-01
 E= -421.194206676581     Delta-E=       -0.083904860753 Rises=F Damp=T
 DIIS: error= 7.32D-03 at cycle   2 NSaved=   2.
 NSaved= 2 IEnMin= 2 EnMin= -421.194206676581     IErMin= 2 ErrMin= 7.32D-03
 ErrMax= 7.32D-03  0.00D+00 EMaxC= 1.00D-01 BMatC= 5.72D-02 BMatP= 7.71D-01
 IDIUse=3 WtCom= 9.27D-01 WtEn= 7.32D-02
 Coeff-Com:  0.581D-01 0.942D+00
 Coeff-En:   0.944D-01 0.906D+00
 Coeff:      0.607D-01 0.939D+00
 Gap=     0.233 Goal=   None    Shift=    0.000
 Gap=     0.130 Goal=   None    Shift=    0.000
 RMSDP=1.79D-03 MaxDP=4.83D-02 DE=-8.39D-02 OVMax= 1.84D-01

 Cycle   3  Pass 0  IDiag  1:
 RMSU=  1.75D-03    CP:  9.72D-01  9.08D-01
 E= -421.284845552863     Delta-E=       -0.090638876282 Rises=F Damp=F
 DIIS: error= 1.06D-02 at cycle   3 NSaved=   3.
 NSaved= 3 IEnMin= 3 EnMin= -421.284845552863     IErMin= 2 ErrMin= 7.32D-03
 ErrMax= 1.06D-02  0.00D+00 EMaxC= 1.00D-01 BMatC= 5.79D-02 BMatP= 5.72D-02
 IDIUse=3 WtCom= 8.94D-01 WtEn= 1.06D-01
 Coeff-Com: -0.224D-01 0.509D+00 0.513D+00
 Coeff-En:   0.000D+00 0.000D+00 0.100D+01
 Coeff:     -0.201D-01 0.456D+00 0.564D+00
 Gap=     0.215 Goal=   None    Shift=    0.000
 Gap=     0.136 Goal=   None    Shift=    0.000
 RMSDP=1.29D-03 MaxDP=3.84D-02 DE=-9.06D-02 OVMax= 8.68D-02

 Cycle   4  Pass 0  IDiag  1:
 RMSU=  8.28D-04    CP:  9.74D-01  9.92D-01  4.54D-01
 E= -421.295548219203     Delta-E=       -0.010702666340 Rises=F Damp=F
 DIIS: error= 6.22D-03 at cycle   4 NSaved=   4.
 NSaved= 4 IEnMin= 4 EnMin= -421.295548219203     IErMin= 4 ErrMin= 6.22D-03
 ErrMax= 6.22D-03  0.00D+00 EMaxC= 1.00D-01 BMatC= 1.69D-02 BMatP= 5.72D-02
 IDIUse=3 WtCom= 9.38D-01 WtEn= 6.22D-02
 Coeff-Com: -0.133D-01 0.888D-01 0.361D+00 0.563D+00
 Coeff-En:   0.000D+00 0.000D+00 0.273D+00 0.727D+00
 Coeff:     -0.124D-01 0.833D-01 0.356D+00 0.574D+00
 Gap=     0.213 Goal=   None    Shift=    0.000
 Gap=     0.129 Goal=   None    Shift=    0.000
 RMSDP=5.48D-04 MaxDP=1.35D-02 DE=-1.07D-02 OVMax= 3.48D-02

 Cycle   5  Pass 0  IDiag  1:
 RMSU=  1.96D-04    CP:  9.74D-01  9.59D-01  6.65D-01  5.91D-01
 E= -421.300051231077     Delta-E=       -0.004503011874 Rises=F Damp=F
 DIIS: error= 7.39D-04 at cycle   5 NSaved=   5.
 NSaved= 5 IEnMin= 5 EnMin= -421.300051231077     IErMin= 5 ErrMin= 7.39D-04
 ErrMax= 7.39D-04  0.00D+00 EMaxC= 1.00D-01 BMatC= 7.17D-04 BMatP= 1.69D-02
 IDIUse=3 WtCom= 9.93D-01 WtEn= 7.39D-03
 Coeff-Com: -0.420D-02 0.145D-01 0.153D+00 0.304D+00 0.533D+00
 Coeff-En:   0.000D+00 0.000D+00 0.000D+00 0.000D+00 0.100D+01
 Coeff:     -0.417D-02 0.143D-01 0.152D+00 0.301D+00 0.536D+00
 Gap=     0.213 Goal=   None    Shift=    0.000
 Gap=     0.132 Goal=   None    Shift=    0.000
 RMSDP=1.12D-04 MaxDP=3.26D-03 DE=-4.50D-03 OVMax= 6.21D-03

 Cycle   6  Pass 0  IDiag  1:
 RMSU=  7.93D-05    CP:  9.73D-01  9.68D-01  6.56D-01  6.32D-01  6.79D-01
 E= -421.300225537384     Delta-E=       -0.000174306307 Rises=F Damp=F
 DIIS: error= 3.49D-04 at cycle   6 NSaved=   6.
 NSaved= 6 IEnMin= 6 EnMin= -421.300225537384     IErMin= 6 ErrMin= 3.49D-04
 ErrMax= 3.49D-04  0.00D+00 EMaxC= 1.00D-01 BMatC= 7.34D-05 BMatP= 7.17D-04
 IDIUse=3 WtCom= 9.97D-01 WtEn= 3.49D-03
 Coeff-Com: -0.472D-03-0.493D-02 0.222D-01 0.623D-01 0.270D+00 0.651D+00
 Coeff-En:   0.000D+00 0.000D+00 0.000D+00 0.000D+00 0.000D+00 0.100D+01
 Coeff:     -0.471D-03-0.491D-02 0.222D-01 0.621D-01 0.269D+00 0.653D+00
 Gap=     0.213 Goal=   None    Shift=    0.000
 Gap=     0.132 Goal=   None    Shift=    0.000
 RMSDP=3.88D-05 MaxDP=1.47D-03 DE=-1.74D-04 OVMax= 2.67D-03

 Cycle   7  Pass 0  IDiag  1:
 RMSU=  2.81D-05    CP:  9.73D-01  9.67D-01  6.59D-01  6.43D-01  7.81D-01
                    CP:  8.33D-01
 E= -421.300249476733     Delta-E=       -0.000023939349 Rises=F Damp=F
 DIIS: error= 1.61D-04 at cycle   7 NSaved=   7.
 NSaved= 7 IEnMin= 7 EnMin= -421.300249476733     IErMin= 7 ErrMin= 1.61D-04
 ErrMax= 1.61D-04  0.00D+00 EMaxC= 1.00D-01 BMatC= 7.25D-06 BMatP= 7.34D-05
 IDIUse=3 WtCom= 9.98D-01 WtEn= 1.61D-03
 Coeff-Com:  0.290D-03-0.287D-02-0.842D-02-0.126D-01 0.307D-01 0.193D+00
 Coeff-Com:  0.799D+00
 Coeff-En:   0.000D+00 0.000D+00 0.000D+00 0.000D+00 0.000D+00 0.000D+00
 Coeff-En:   0.100D+01
 Coeff:      0.290D-03-0.286D-02-0.840D-02-0.126D-01 0.306D-01 0.193D+00
 Coeff:      0.800D+00
 Gap=     0.213 Goal=   None    Shift=    0.000
 Gap=     0.132 Goal=   None    Shift=    0.000
 RMSDP=2.18D-05 MaxDP=8.93D-04 DE=-2.39D-05 OVMax= 1.91D-03

 Cycle   8  Pass 0  IDiag  1:
 RMSU=  1.58D-05    CP:  9.73D-01  9.66D-01  6.59D-01  6.45D-01  8.21D-01
                    CP:  9.54D-01  1.28D+00
 E= -421.300255344917     Delta-E=       -0.000005868184 Rises=F Damp=F
 DIIS: error= 1.03D-04 at cycle   8 NSaved=   8.
 NSaved= 8 IEnMin= 8 EnMin= -421.300255344917     IErMin= 8 ErrMin= 1.03D-04
 ErrMax= 1.03D-04  0.00D+00 EMaxC= 1.00D-01 BMatC= 4.47D-06 BMatP= 7.25D-06
 IDIUse=3 WtCom= 9.99D-01 WtEn= 1.03D-03
 Coeff-Com:  0.343D-03 0.398D-03-0.155D-01-0.367D-01-0.104D+00-0.172D+00
 Coeff-Com:  0.523D+00 0.805D+00
 Coeff-En:   0.000D+00 0.000D+00 0.000D+00 0.000D+00 0.000D+00 0.000D+00
 Coeff-En:   0.000D+00 0.100D+01
 Coeff:      0.342D-03 0.397D-03-0.154D-01-0.367D-01-0.104D+00-0.172D+00
 Coeff:      0.522D+00 0.805D+00
 Gap=     0.213 Goal=   None    Shift=    0.000
 Gap=     0.132 Goal=   None    Shift=    0.000
 RMSDP=2.03D-05 MaxDP=7.82D-04 DE=-5.87D-06 OVMax= 1.92D-03

 Cycle   9  Pass 0  IDiag  1:
 RMSU=  7.02D-06    CP:  9.73D-01  9.66D-01  6.61D-01  6.48D-01  8.53D-01
                    CP:  1.05D+00  1.85D+00  1.08D+00
 E= -421.300259580696     Delta-E=       -0.000004235779 Rises=F Damp=F
 DIIS: error= 4.89D-05 at cycle   9 NSaved=   9.
 NSaved= 9 IEnMin= 9 EnMin= -421.300259580696     IErMin= 9 ErrMin= 4.89D-05
 ErrMax= 4.89D-05  0.00D+00 EMaxC= 1.00D-01 BMatC= 6.57D-07 BMatP= 4.47D-06
 IDIUse=1 WtCom= 1.00D+00 WtEn= 0.00D+00
 Coeff-Com: -0.389D-04 0.946D-03 0.101D-03-0.120D-02-0.252D-01-0.735D-01
 Coeff-Com: -0.145D+00 0.130D+00 0.111D+01
 Coeff:     -0.389D-04 0.946D-03 0.101D-03-0.120D-02-0.252D-01-0.735D-01
 Coeff:     -0.145D+00 0.130D+00 0.111D+01
 Gap=     0.213 Goal=   None    Shift=    0.000
 Gap=     0.132 Goal=   None    Shift=    0.000
 RMSDP=1.33D-05 MaxDP=5.10D-04 DE=-4.24D-06 OVMax= 1.28D-03

 Cycle  10  Pass 0  IDiag  1:
 RMSU=  5.21D-06    CP:  9.73D-01  9.66D-01  6.61D-01  6.49D-01  8.61D-01
                    CP:  1.11D+00  2.16D+00  1.47D+00  1.44D+00
 E= -421.300260694306     Delta-E=       -0.000001113610 Rises=F Damp=F
 DIIS: error= 4.36D-05 at cycle  10 NSaved=  10.
 NSaved=10 IEnMin=10 EnMin= -421.300260694306     IErMin=10 ErrMin= 4.36D-05
 ErrMax= 4.36D-05  0.00D+00 EMaxC= 1.00D-01 BMatC= 5.24D-07 BMatP= 6.57D-07
 IDIUse=1 WtCom= 1.00D+00 WtEn= 0.00D+00
 Coeff-Com: -0.109D-03 0.523D-03 0.398D-02 0.853D-02 0.834D-02-0.971D-02
 Coeff-Com: -0.238D+00-0.116D+00 0.788D+00 0.554D+00
 Coeff:     -0.109D-03 0.523D-03 0.398D-02 0.853D-02 0.834D-02-0.971D-02
 Coeff:     -0.238D+00-0.116D+00 0.788D+00 0.554D+00
 Gap=     0.213 Goal=   None    Shift=    0.000
 Gap=     0.132 Goal=   None    Shift=    0.000
 RMSDP=5.71D-06 MaxDP=2.37D-04 DE=-1.11D-06 OVMax= 5.69D-04

 Initial convergence to 1.0D-05 achieved.  Increase integral accuracy.
 Cycle  11  Pass 1  IDiag  1:
 E= -421.300242268797     Delta-E=        0.000018425509 Rises=F Damp=F
 DIIS: error= 1.49D-05 at cycle   1 NSaved=   1.
 NSaved= 1 IEnMin= 1 EnMin= -421.300242268797     IErMin= 1 ErrMin= 1.49D-05
 ErrMax= 1.49D-05  0.00D+00 EMaxC= 1.00D-01 BMatC= 8.94D-08 BMatP= 8.94D-08
 IDIUse=1 WtCom= 1.00D+00 WtEn= 0.00D+00
 Coeff-Com:  0.100D+01
 Coeff:      0.100D+01
 Gap=     0.213 Goal=   None    Shift=    0.000
 Gap=     0.132 Goal=   None    Shift=    0.000
 RMSDP=5.71D-06 MaxDP=2.37D-04 DE= 1.84D-05 OVMax= 2.06D-04

 Cycle  12  Pass 1  IDiag  1:
 RMSU=  4.34D-06    CP:  1.00D+00
 E= -421.300242284422     Delta-E=       -0.000000015625 Rises=F Damp=F
 DIIS: error= 1.53D-05 at cycle   2 NSaved=   2.
 NSaved= 2 IEnMin= 2 EnMin= -421.300242284422     IErMin= 1 ErrMin= 1.49D-05
 ErrMax= 1.53D-05  0.00D+00 EMaxC= 1.00D-01 BMatC= 9.07D-08 BMatP= 8.94D-08
 IDIUse=1 WtCom= 1.00D+00 WtEn= 0.00D+00
 Coeff-Com:  0.502D+00 0.498D+00
 Coeff:      0.502D+00 0.498D+00
 Gap=     0.213 Goal=   None    Shift=    0.000
 Gap=     0.132 Goal=   None    Shift=    0.000
 RMSDP=1.52D-06 MaxDP=5.64D-05 DE=-1.56D-08 OVMax= 1.25D-04

 Cycle  13  Pass 1  IDiag  1:
 RMSU=  1.43D-06    CP:  1.00D+00  8.82D-01
 E= -421.300242307945     Delta-E=       -0.000000023522 Rises=F Damp=F
 DIIS: error= 8.00D-06 at cycle   3 NSaved=   3.
 NSaved= 3 IEnMin= 3 EnMin= -421.300242307945     IErMin= 3 ErrMin= 8.00D-06
 ErrMax= 8.00D-06  0.00D+00 EMaxC= 1.00D-01 BMatC= 2.04D-08 BMatP= 8.94D-08
 IDIUse=1 WtCom= 1.00D+00 WtEn= 0.00D+00
 Coeff-Com: -0.433D-01 0.300D+00 0.743D+00
 Coeff:     -0.433D-01 0.300D+00 0.743D+00
 Gap=     0.213 Goal=   None    Shift=    0.000
 Gap=     0.132 Goal=   None    Shift=    0.000
 RMSDP=7.74D-07 MaxDP=3.37D-05 DE=-2.35D-08 OVMax= 8.31D-05

 Cycle  14  Pass 1  IDiag  1:
 RMSU=  6.23D-07    CP:  1.00D+00  9.71D-01  8.22D-01
 E= -421.300242317731     Delta-E=       -0.000000009787 Rises=F Damp=F
 DIIS: error= 2.41D-06 at cycle   4 NSaved=   4.
 NSaved= 4 IEnMin= 4 EnMin= -421.300242317731     IErMin= 4 ErrMin= 2.41D-06
 ErrMax= 2.41D-06  0.00D+00 EMaxC= 1.00D-01 BMatC= 2.17D-09 BMatP= 2.04D-08
 IDIUse=1 WtCom= 1.00D+00 WtEn= 0.00D+00
 Coeff-Com: -0.605D-01 0.356D-01 0.204D+00 0.821D+00
 Coeff:     -0.605D-01 0.356D-01 0.204D+00 0.821D+00
 Gap=     0.213 Goal=   None    Shift=    0.000
 Gap=     0.132 Goal=   None    Shift=    0.000
 RMSDP=4.14D-07 MaxDP=1.64D-05 DE=-9.79D-09 OVMax= 3.75D-05

 Cycle  15  Pass 1  IDiag  1:
 RMSU=  2.68D-07    CP:  1.00D+00  9.90D-01  9.40D-01  1.41D+00
 E= -421.300242319961     Delta-E=       -0.000000002230 Rises=F Damp=F
 DIIS: error= 1.94D-06 at cycle   5 NSaved=   5.
 NSaved= 5 IEnMin= 5 EnMin= -421.300242319961     IErMin= 5 ErrMin= 1.94D-06
 ErrMax= 1.94D-06  0.00D+00 EMaxC= 1.00D-01 BMatC= 1.44D-09 BMatP= 2.17D-09
 IDIUse=1 WtCom= 1.00D+00 WtEn= 0.00D+00
 Coeff-Com: -0.153D-01-0.162D+00-0.318D+00 0.583D+00 0.912D+00
 Coeff:     -0.153D-01-0.162D+00-0.318D+00 0.583D+00 0.912D+00
 Gap=     0.213 Goal=   None    Shift=    0.000
 Gap=     0.132 Goal=   None    Shift=    0.000
 RMSDP=4.72D-07 MaxDP=1.80D-05 DE=-2.23D-09 OVMax= 4.14D-05

 Cycle  16  Pass 1  IDiag  1:
 RMSU=  1.47D-07    CP:  1.00D+00  1.02D+00  1.02D+00  2.08D+00  1.11D+00
 E= -421.300242321648     Delta-E=       -0.000000001687 Rises=F Damp=F
 DIIS: error= 7.61D-07 at cycle   6 NSaved=   6.
 NSaved= 6 IEnMin= 6 EnMin= -421.300242321648     IErMin= 6 ErrMin= 7.61D-07
 ErrMax= 7.61D-07  0.00D+00 EMaxC= 1.00D-01 BMatC= 2.27D-10 BMatP= 1.44D-09
 IDIUse=1 WtCom= 1.00D+00 WtEn= 0.00D+00
 Coeff-Com:  0.975D-02-0.824D-01-0.199D+00 0.299D-01 0.400D+00 0.842D+00
 Coeff:      0.975D-02-0.824D-01-0.199D+00 0.299D-01 0.400D+00 0.842D+00
 Gap=     0.213 Goal=   None    Shift=    0.000
 Gap=     0.132 Goal=   None    Shift=    0.000
 RMSDP=2.18D-07 MaxDP=7.90D-06 DE=-1.69D-09 OVMax= 1.84D-05

 Cycle  17  Pass 1  IDiag  1:
 RMSU=  6.15D-08    CP:  1.00D+00  1.02D+00  1.07D+00  2.36D+00  1.39D+00
                    CP:  1.11D+00
 E= -421.300242321927     Delta-E=       -0.000000000279 Rises=F Damp=F
 DIIS: error= 3.69D-07 at cycle   7 NSaved=   7.
 NSaved= 7 IEnMin= 7 EnMin= -421.300242321927     IErMin= 7 ErrMin= 3.69D-07
 ErrMax= 3.69D-07  0.00D+00 EMaxC= 1.00D-01 BMatC= 4.48D-11 BMatP= 2.27D-10
 IDIUse=1 WtCom= 1.00D+00 WtEn= 0.00D+00
 Coeff-Com:  0.579D-02-0.196D-01-0.551D-01-0.510D-01 0.801D-01 0.377D+00
 Coeff-Com:  0.663D+00
 Coeff:      0.579D-02-0.196D-01-0.551D-01-0.510D-01 0.801D-01 0.377D+00
 Coeff:      0.663D+00
 Gap=     0.213 Goal=   None    Shift=    0.000
 Gap=     0.132 Goal=   None    Shift=    0.000
 RMSDP=5.21D-08 MaxDP=2.01D-06 DE=-2.79D-10 OVMax= 4.27D-06

 SCF Done:  E(UB3LYP) =  -421.300242322     A.U. after   17 cycles
            NFock= 17  Conv=0.52D-07     -V/T= 2.0090
 <Sx>= 0.0000 <Sy>= 0.0000 <Sz>= 0.5000 <S**2>= 0.7580 S= 0.5040
 <L.S>= 0.000000000000E+00
 KE= 4.175301325397D+02 PE=-1.826309033974D+03 EE= 5.652563452420D+02
 Annihilation of the first spin contaminant:
 S**2 before annihilation     0.7580,   after     0.7500
 Leave Link  502 at Wed Dec 03 16:07:47 2025, MaxMem=   104857600 cpu:              26.0 elap:              25.9
 (Enter D:\Gaussian\G16W\l601.exe)
 Copying SCF densities to generalized density rwf, IOpCl= 1 IROHF=0.

 **********************************************************************

            Population analysis using the SCF density.

 **********************************************************************

 Orbital symmetries:
 Alpha Orbitals:
       Occupied  (A) (A) (A) (A) (A) (A) (A) (A) (A) (A) (A) (A)
                 (A) (A) (A) (A) (A) (A) (A) (A) (A) (A) (A) (A)
                 (A) (A) (A) (A) (A) (A) (A) (A) (A)
       Virtual   (A) (A) (A) (A) (A) (A) (A) (A) (A) (A) (A) (A)
                 (A) (A) (A) (A) (A) (A) (A) (A) (A) (A) (A) (A)
                 (A) (A) (A) (A) (A) (A) (A) (A) (A) (A) (A) (A)
                 (A) (A) (A) (A) (A) (A) (A) (A) (A) (A) (A) (A)
                 (A) (A) (A) (A) (A) (A) (A) (A) (A) (A) (A) (A)
                 (A) (A) (A) (A) (A) (A) (A) (A) (A) (A) (A) (A)
                 (A) (A) (A) (A) (A) (A) (A) (A) (A) (A) (A) (A)
                 (A) (A) (A) (A) (A) (A) (A) (A) (A) (A) (A) (A)
                 (A) (A) (A) (A) (A) (A) (A) (A) (A) (A) (A) (A)
                 (A) (A) (A) (A) (A) (A) (A) (A)
 Beta  Orbitals:
       Occupied  (A) (A) (A) (A) (A) (A) (A) (A) (A) (A) (A) (A)
                 (A) (A) (A) (A) (A) (A) (A) (A) (A) (A) (A) (A)
                 (A) (A) (A) (A) (A) (A) (A) (A)
       Virtual   (A) (A) (A) (A) (A) (A) (A) (A) (A) (A) (A) (A)
                 (A) (A) (A) (A) (A) (A) (A) (A) (A) (A) (A) (A)
                 (A) (A) (A) (A) (A) (A) (A) (A) (A) (A) (A) (A)
                 (A) (A) (A) (A) (A) (A) (A) (A) (A) (A) (A) (A)
                 (A) (A) (A) (A) (A) (A) (A) (A) (A) (A) (A) (A)
                 (A) (A) (A) (A) (A) (A) (A) (A) (A) (A) (A) (A)
                 (A) (A) (A) (A) (A) (A) (A) (A) (A) (A) (A) (A)
                 (A) (A) (A) (A) (A) (A) (A) (A) (A) (A) (A) (A)
                 (A) (A) (A) (A) (A) (A) (A) (A) (A) (A) (A) (A)
                 (A) (A) (A) (A) (A) (A) (A) (A) (A)
 The electronic state is 2-A.
 Alpha  occ. eigenvalues --  -19.19383 -19.16820 -10.25270 -10.25236 -10.24241
 Alpha  occ. eigenvalues --  -10.20246 -10.19606 -10.18866 -10.18808  -1.08223
 Alpha  occ. eigenvalues --   -1.04646  -0.85411  -0.76103  -0.74311  -0.70283
 Alpha  occ. eigenvalues --   -0.61083  -0.59691  -0.55345  -0.51657  -0.49292
 Alpha  occ. eigenvalues --   -0.48112  -0.45227  -0.43331  -0.42919  -0.40828
 Alpha  occ. eigenvalues --   -0.39308  -0.36248  -0.35123  -0.34514  -0.32615
 Alpha  occ. eigenvalues --   -0.24040  -0.23671  -0.20826
 Alpha virt. eigenvalues --    0.00510   0.02035   0.07751   0.09261   0.12795
 Alpha virt. eigenvalues --    0.13995   0.14945   0.15803   0.16283   0.17764
 Alpha virt. eigenvalues --    0.18496   0.22893   0.26589   0.30357   0.32840
 Alpha virt. eigenvalues --    0.34800   0.38434   0.48007   0.48992   0.51000
 Alpha virt. eigenvalues --    0.51332   0.53273   0.54423   0.55550   0.58072
 Alpha virt. eigenvalues --    0.60143   0.60310   0.61226   0.61722   0.64200
 Alpha virt. eigenvalues --    0.65429   0.66457   0.68733   0.72015   0.72345
 Alpha virt. eigenvalues --    0.76534   0.77799   0.82872   0.84493   0.85093
 Alpha virt. eigenvalues --    0.85103   0.89574   0.90810   0.92867   0.93460
 Alpha virt. eigenvalues --    0.95021   0.97262   1.00030   1.00828   1.05698
 Alpha virt. eigenvalues --    1.05725   1.10442   1.13286   1.17669   1.22771
 Alpha virt. eigenvalues --    1.23856   1.26227   1.33675   1.33840   1.34650
 Alpha virt. eigenvalues --    1.40249   1.43708   1.46170   1.46988   1.49738
 Alpha virt. eigenvalues --    1.52351   1.60511   1.66212   1.73210   1.74222
 Alpha virt. eigenvalues --    1.77248   1.80892   1.83299   1.86961   1.88931
 Alpha virt. eigenvalues --    1.91173   1.93017   1.99144   2.00876   2.03147
 Alpha virt. eigenvalues --    2.06849   2.11930   2.12934   2.15338   2.21489
 Alpha virt. eigenvalues --    2.22088   2.25031   2.28207   2.28693   2.34520
 Alpha virt. eigenvalues --    2.36327   2.44032   2.44719   2.48814   2.54454
 Alpha virt. eigenvalues --    2.58732   2.62632   2.67206   2.67722   2.70966
 Alpha virt. eigenvalues --    2.72596   2.84105   2.86385   2.93726   2.99857
 Alpha virt. eigenvalues --    3.22179   3.41183   3.93158   4.07203   4.09443
 Alpha virt. eigenvalues --    4.17896   4.19810   4.32792   4.36959   4.49836
 Alpha virt. eigenvalues --    4.90623
  Beta  occ. eigenvalues --  -19.19341 -19.16841 -10.25270 -10.25108 -10.24300
  Beta  occ. eigenvalues --  -10.19624 -10.18882 -10.18712 -10.18682  -1.08144
  Beta  occ. eigenvalues --   -1.04666  -0.84586  -0.75831  -0.73576  -0.69868
  Beta  occ. eigenvalues --   -0.60908  -0.58596  -0.55132  -0.50970  -0.48917
  Beta  occ. eigenvalues --   -0.48074  -0.44958  -0.42916  -0.41842  -0.40849
  Beta  occ. eigenvalues --   -0.38908  -0.35769  -0.34884  -0.34471  -0.32107
  Beta  occ. eigenvalues --   -0.24003  -0.20360
  Beta virt. eigenvalues --   -0.07171   0.00502   0.03067   0.07843   0.09339
  Beta virt. eigenvalues --    0.13044   0.14077   0.14978   0.15866   0.16428
  Beta virt. eigenvalues --    0.18357   0.18660   0.23190   0.27218   0.30745
  Beta virt. eigenvalues --    0.33110   0.35545   0.39450   0.48831   0.50267
  Beta virt. eigenvalues --    0.51348   0.51442   0.53747   0.54535   0.56338
  Beta virt. eigenvalues --    0.59085   0.60425   0.61160   0.61230   0.62318
  Beta virt. eigenvalues --    0.65127   0.66577   0.68222   0.69393   0.72122
  Beta virt. eigenvalues --    0.73120   0.76943   0.77986   0.82958   0.84753
  Beta virt. eigenvalues --    0.85148   0.85434   0.89925   0.90882   0.93135
  Beta virt. eigenvalues --    0.93921   0.94978   0.97486   1.00282   1.01157
  Beta virt. eigenvalues --    1.05748   1.06142   1.10769   1.13640   1.18519
  Beta virt. eigenvalues --    1.23009   1.24092   1.26298   1.33968   1.34175
  Beta virt. eigenvalues --    1.35094   1.40269   1.44258   1.47020   1.47161
  Beta virt. eigenvalues --    1.50055   1.55362   1.61336   1.66400   1.73197
  Beta virt. eigenvalues --    1.75568   1.77973   1.81582   1.84550   1.87763
  Beta virt. eigenvalues --    1.89016   1.91919   1.93197   1.99429   2.01504
  Beta virt. eigenvalues --    2.03518   2.07046   2.12005   2.14062   2.16042
  Beta virt. eigenvalues --    2.21613   2.22972   2.26380   2.28403   2.28904
  Beta virt. eigenvalues --    2.35226   2.36660   2.44105   2.44866   2.50340
  Beta virt. eigenvalues --    2.54712   2.58867   2.63072   2.67491   2.68227
  Beta virt. eigenvalues --    2.71445   2.72955   2.85666   2.86564   2.95019
  Beta virt. eigenvalues --    3.00270   3.22602   3.42032   3.93196   4.08406
  Beta virt. eigenvalues --    4.09560   4.18986   4.19842   4.32995   4.37444
  Beta virt. eigenvalues --    4.50857   4.90844
          Condensed to atoms (all electrons):
               1          2          3          4          5          6
     1  C    4.913422   0.526075  -0.008614  -0.037131  -0.063676   0.531163
     2  C    0.526075   4.932761   0.556213  -0.051928  -0.035616  -0.019252
     3  C   -0.008614   0.556213   4.619611   0.439853  -0.030418  -0.066540
     4  C   -0.037131  -0.051928   0.439853   4.752708   0.461142   0.008018
     5  C   -0.063676  -0.035616  -0.030418   0.461142   5.123377   0.484092
     6  C    0.531163  -0.019252  -0.066540   0.008018   0.484092   5.121132
     7  H    0.356965  -0.039511   0.003833   0.000486   0.004373  -0.038157
     8  H   -0.048983   0.345390  -0.037462   0.008274  -0.000576   0.007264
     9  O   -0.000117   0.004092  -0.054264   0.243910  -0.069522   0.004692
    10  C    0.000008  -0.000149   0.004233  -0.038889  -0.004605   0.000265
    11  H   -0.000007  -0.000002  -0.000214  -0.004007   0.004821  -0.000077
    12  H   -0.000007  -0.000002  -0.000214  -0.004007   0.004821  -0.000077
    13  O    0.003288  -0.056003   0.302384  -0.064307   0.005063  -0.000039
    14  H   -0.000136   0.005362  -0.035694  -0.013285   0.001477  -0.000114
    15  H    0.000000   0.000005   0.000025   0.003067   0.000123   0.000001
    16  H    0.003739   0.000596   0.002396  -0.043582   0.350428  -0.032364
               7          8          9         10         11         12
     1  C    0.356965  -0.048983  -0.000117   0.000008  -0.000007  -0.000007
     2  C   -0.039511   0.345390   0.004092  -0.000149  -0.000002  -0.000002
     3  C    0.003833  -0.037462  -0.054264   0.004233  -0.000214  -0.000214
     4  C    0.000486   0.008274   0.243910  -0.038889  -0.004007  -0.004007
     5  C    0.004373  -0.000576  -0.069522  -0.004605   0.004821   0.004821
     6  C   -0.038157   0.007264   0.004692   0.000265  -0.000077  -0.000077
     7  H    0.576177  -0.005880   0.000001   0.000000   0.000000   0.000000
     8  H   -0.005880   0.591231  -0.000048   0.000003   0.000000   0.000000
     9  O    0.000001  -0.000048   8.264407   0.245470  -0.035354  -0.035354
    10  C    0.000000   0.000003   0.245470   4.884425   0.366523   0.366525
    11  H    0.000000   0.000000  -0.035354   0.366523   0.584973  -0.047474
    12  H    0.000000   0.000000  -0.035354   0.366525  -0.047474   0.584974
    13  O   -0.000047  -0.001566  -0.011832   0.000273  -0.000018  -0.000018
    14  H    0.000004  -0.000310   0.028687  -0.001244   0.000103   0.000103
    15  H    0.000000   0.000000  -0.032507   0.386126  -0.031076  -0.031077
    16  H   -0.000154   0.000013  -0.006723   0.005462   0.001304   0.001304
              13         14         15         16
     1  C    0.003288  -0.000136   0.000000   0.003739
     2  C   -0.056003   0.005362   0.000005   0.000596
     3  C    0.302384  -0.035694   0.000025   0.002396
     4  C   -0.064307  -0.013285   0.003067  -0.043582
     5  C    0.005063   0.001477   0.000123   0.350428
     6  C   -0.000039  -0.000114   0.000001  -0.032364
     7  H   -0.000047   0.000004   0.000000  -0.000154
     8  H   -0.001566  -0.000310   0.000000   0.000013
     9  O   -0.011832   0.028687  -0.032507  -0.006723
    10  C    0.000273  -0.001244   0.386126   0.005462
    11  H   -0.000018   0.000103  -0.031076   0.001304
    12  H   -0.000018   0.000103  -0.031077   0.001304
    13  O    8.230461   0.245181   0.000008  -0.000043
    14  H    0.245181   0.346704  -0.000135  -0.000008
    15  H    0.000008  -0.000135   0.532359  -0.000066
    16  H   -0.000043  -0.000008  -0.000066   0.572186
          Atomic-Atomic Spin Densities.
               1          2          3          4          5          6
     1  C   -0.081766   0.015897   0.010870  -0.000594   0.004468  -0.023888
     2  C    0.015897   0.079847  -0.005714   0.001125   0.000137  -0.010658
     3  C    0.010870  -0.005714  -0.023455  -0.004919   0.010335  -0.027025
     4  C   -0.000594   0.001125  -0.004919   0.078669   0.014742  -0.002999
     5  C    0.004468   0.000137   0.010335   0.014742  -0.080848  -0.025821
     6  C   -0.023888  -0.010658  -0.027025  -0.002999  -0.025821   1.091670
     7  H    0.008968  -0.006093  -0.000762   0.000159  -0.000532  -0.003859
     8  H   -0.002198  -0.009214  -0.006517   0.000976  -0.000330   0.003530
     9  O   -0.000134   0.000405  -0.001507  -0.016387  -0.002105   0.001832
    10  C   -0.000003   0.000007  -0.000094  -0.001463   0.000227   0.000036
    11  H    0.000001  -0.000001   0.000014   0.000600  -0.000109  -0.000024
    12  H    0.000001  -0.000001   0.000014   0.000600  -0.000109  -0.000024
    13  O   -0.000035  -0.001561   0.009010  -0.001059  -0.000049  -0.000231
    14  H    0.000014  -0.000056   0.000267  -0.000159  -0.000005  -0.000030
    15  H    0.000000   0.000001  -0.000002  -0.000234   0.000000   0.000003
    16  H   -0.000514   0.000076  -0.000579  -0.005745   0.009900  -0.004762
               7          8          9         10         11         12
     1  C    0.008968  -0.002198  -0.000134  -0.000003   0.000001   0.000001
     2  C   -0.006093  -0.009214   0.000405   0.000007  -0.000001  -0.000001
     3  C   -0.000762  -0.006517  -0.001507  -0.000094   0.000014   0.000014
     4  C    0.000159   0.000976  -0.016387  -0.001463   0.000600   0.000600
     5  C   -0.000532  -0.000330  -0.002105   0.000227  -0.000109  -0.000109
     6  C   -0.003859   0.003530   0.001832   0.000036  -0.000024  -0.000024
     7  H    0.018637   0.001629   0.000001   0.000000   0.000000   0.000000
     8  H    0.001629   0.024489   0.000015   0.000000   0.000000   0.000000
     9  O    0.000001   0.000015   0.027301   0.001017  -0.000331  -0.000331
    10  C    0.000000   0.000000   0.001017  -0.000472  -0.000095  -0.000095
    11  H    0.000000   0.000000  -0.000331  -0.000095   0.000690  -0.000164
    12  H    0.000000   0.000000  -0.000331  -0.000095  -0.000164   0.000690
    13  O   -0.000003  -0.000630  -0.000189   0.000002   0.000000   0.000000
    14  H    0.000000  -0.000026  -0.000113  -0.000001   0.000000   0.000000
    15  H    0.000000   0.000000  -0.000010   0.000157  -0.000063  -0.000063
    16  H    0.000018   0.000006   0.001027   0.000073  -0.000173  -0.000173
              13         14         15         16
     1  C   -0.000035   0.000014   0.000000  -0.000514
     2  C   -0.001561  -0.000056   0.000001   0.000076
     3  C    0.009010   0.000267  -0.000002  -0.000579
     4  C   -0.001059  -0.000159  -0.000234  -0.005745
     5  C   -0.000049  -0.000005   0.000000   0.009900
     6  C   -0.000231  -0.000030   0.000003  -0.004762
     7  H   -0.000003   0.000000   0.000000   0.000018
     8  H   -0.000630  -0.000026   0.000000   0.000006
     9  O   -0.000189  -0.000113  -0.000010   0.001027
    10  C    0.000002  -0.000001   0.000157   0.000073
    11  H    0.000000   0.000000  -0.000063  -0.000173
    12  H    0.000000   0.000000  -0.000063  -0.000173
    13  O   -0.011392   0.000220   0.000000  -0.000002
    14  H    0.000220  -0.000003  -0.000002  -0.000002
    15  H    0.000000  -0.000002   0.000518   0.000018
    16  H   -0.000002  -0.000002   0.000018   0.019777
 Mulliken charges and spin densities:
               1          2
     1  C   -0.175990  -0.068913
     2  C   -0.168030   0.064197
     3  C    0.304869  -0.040063
     4  C    0.339677   0.063314
     5  C   -0.235304  -0.070099
     6  C   -0.000007   0.997749
     7  H    0.141909   0.018162
     8  H    0.142650   0.011729
     9  O   -0.545538   0.010489
    10  C   -0.214425  -0.000705
    11  H    0.160505   0.000345
    12  H    0.160505   0.000345
    13  O   -0.652786  -0.005921
    14  H    0.423305   0.000105
    15  H    0.173146   0.000321
    16  H    0.145513   0.018946
 Sum of Mulliken charges =   0.00000   1.00000
 Mulliken charges and spin densities with hydrogens summed into heavy atoms:
               1          2
     1  C   -0.034080  -0.050751
     2  C   -0.025380   0.075926
     3  C    0.304869  -0.040063
     4  C    0.339677   0.063314
     5  C   -0.089791  -0.051153
     6  C   -0.000007   0.997749
     9  O   -0.545538   0.010489
    10  C    0.279731   0.000307
    13  O   -0.229481  -0.005816
 Electronic spatial extent (au):  <R**2>=           1131.4461
 Charge=              0.0000 electrons
 Dipole moment (field-independent basis, Debye):
    X=              2.5633    Y=             -0.8734    Z=              0.0001  Tot=              2.7080
 Quadrupole moment (field-independent basis, Debye-Ang):
   XX=            -41.4902   YY=            -53.4683   ZZ=            -54.1419
   XY=             -1.3204   XZ=              0.0003   YZ=              0.0000
 Traceless Quadrupole moment (field-independent basis, Debye-Ang):
   XX=              8.2099   YY=             -3.7682   ZZ=             -4.4417
   XY=             -1.3204   XZ=              0.0003   YZ=              0.0000
 Octapole moment (field-independent basis, Debye-Ang**2):
  XXX=             19.4136  YYY=              9.6194  ZZZ=              0.0003  XYY=             15.7967
  XXY=              2.9256  XXZ=              0.0005  XZZ=              7.6495  YZZ=              5.2173
  YYZ=              0.0002  XYZ=              0.0000
 Hexadecapole moment (field-independent basis, Debye-Ang**3):
 XXXX=           -795.0965 YYYY=           -516.7474 ZZZZ=            -58.9486 XXXY=             -9.8868
 XXXZ=             -0.0049 YYYX=              5.9205 YYYZ=              0.0010 ZZZX=             -0.0082
 ZZZY=              0.0005 XXYY=           -223.0040 XXZZ=           -170.8476 YYZZ=            -97.0697
 XXYZ=              0.0003 YYXZ=             -0.0026 ZZXY=             -3.3955
 N-N= 4.222223138708D+02 E-N=-1.826309035043D+03  KE= 4.175301325397D+02
                          Isotropic Fermi Contact Couplings
        Atom                 a.u.       MegaHertz       Gauss      10(-4) cm-1
     1  C(13)              0.00511       5.74313       2.04929       1.91570
     2  C(13)              0.04677      52.57708      18.76081      17.53783
     3  C(13)             -0.00789      -8.87304      -3.16612      -2.95973
     4  C(13)              0.04962      55.78416      19.90517      18.60759
     5  C(13)              0.01153      12.95699       4.62338       4.32199
     6  C(13)              0.34703     390.12841     139.20752     130.13283
     7  H(1)               0.01087      48.59554      17.34010      16.20973
     8  H(1)               0.00407      18.20466       6.49587       6.07242
     9  O(17)              0.00105      -0.63699      -0.22729      -0.21248
    10  C(13)             -0.00022      -0.25141      -0.08971      -0.08386
    11  H(1)               0.00012       0.52800       0.18840       0.17612
    12  H(1)               0.00012       0.52810       0.18844       0.17615
    13  O(17)             -0.00078       0.47429       0.16924       0.15821
    14  H(1)               0.00011       0.49254       0.17575       0.16429
    15  H(1)               0.00023       1.00808       0.35971       0.33626
    16  H(1)               0.01179      52.70502      18.80646      17.58050
 --------------------------------------------------------
       Center         ----  Spin Dipole Couplings  ----
                      3XX-RR        3YY-RR        3ZZ-RR
 --------------------------------------------------------
     1   Atom        0.025387      0.076221     -0.101609
     2   Atom       -0.039729      0.049752     -0.010022
     3   Atom        0.017526      0.029778     -0.047304
     4   Atom       -0.031781      0.037148     -0.005367
     5   Atom        0.087586      0.002408     -0.089994
     6   Atom       -0.427580      0.823368     -0.395788
     7   Atom        0.016489     -0.003830     -0.012658
     8   Atom       -0.000420      0.006095     -0.005675
     9   Atom       -0.001424      0.015809     -0.014385
    10   Atom        0.003465     -0.000547     -0.002918
    11   Atom        0.003289     -0.001551     -0.001738
    12   Atom        0.003289     -0.001551     -0.001738
    13   Atom        0.017559      0.020540     -0.038099
    14   Atom       -0.002218      0.003457     -0.001239
    15   Atom        0.002088     -0.000847     -0.001241
    16   Atom        0.022873     -0.010307     -0.012565
 --------------------------------------------------------
                        XY            XZ            YZ
 --------------------------------------------------------
     1   Atom       -0.057693      0.000001      0.000000
     2   Atom        0.014752      0.000000      0.000000
     3   Atom        0.004496      0.000001      0.000000
     4   Atom        0.012902      0.000000      0.000000
     5   Atom        0.040162      0.000002      0.000000
     6   Atom        0.357420     -0.000001      0.000003
     7   Atom       -0.013463      0.000000      0.000000
     8   Atom       -0.006802      0.000000      0.000000
     9   Atom        0.042042      0.000001      0.000002
    10   Atom        0.000715      0.000000      0.000000
    11   Atom        0.000557      0.001481      0.000007
    12   Atom        0.000557     -0.001480     -0.000007
    13   Atom        0.002895      0.000001      0.000000
    14   Atom        0.001000      0.000000      0.000000
    15   Atom        0.000839      0.000000      0.000000
    16   Atom       -0.003566      0.000000      0.000000
 --------------------------------------------------------


 ---------------------------------------------------------------------------------
              Anisotropic Spin Dipole Couplings in Principal Axis System
 ---------------------------------------------------------------------------------

       Atom             a.u.   MegaHertz   Gauss  10(-4) cm-1        Axes

              Baa    -0.1016   -13.635    -4.865    -4.548  0.0000  0.0000  1.0000
     1 C(13)  Bbb    -0.0122    -1.642    -0.586    -0.548  0.8376  0.5463  0.0000
              Bcc     0.1138    15.277     5.451     5.096 -0.5463  0.8376  0.0000
 
              Baa    -0.0421    -5.649    -2.016    -1.884  0.9873 -0.1586  0.0000
     2 C(13)  Bbb    -0.0100    -1.345    -0.480    -0.449  0.0000  0.0000  1.0000
              Bcc     0.0521     6.994     2.496     2.333  0.1586  0.9873  0.0000
 
              Baa    -0.0473    -6.348    -2.265    -2.117  0.0000  0.0000  1.0000
     3 C(13)  Bbb     0.0161     2.154     0.769     0.719  0.9503 -0.3113  0.0000
              Bcc     0.0313     4.194     1.496     1.399  0.3113  0.9503  0.0000
 
              Baa    -0.0341    -4.578    -1.634    -1.527  0.9840 -0.1781  0.0000
     4 C(13)  Bbb    -0.0054    -0.720    -0.257    -0.240  0.0000  0.0000  1.0000
              Bcc     0.0395     5.298     1.891     1.767  0.1781  0.9840  0.0000
 
              Baa    -0.0900   -12.076    -4.309    -4.028  0.0000  0.0000  1.0000
     5 C(13)  Bbb    -0.0135    -1.817    -0.648    -0.606 -0.3691  0.9294  0.0000
              Bcc     0.1035    13.894     4.958     4.634  0.9294  0.3691  0.0000
 
              Baa    -0.5225   -70.114   -25.019   -23.388  0.9665 -0.2567  0.0000
     6 C(13)  Bbb    -0.3958   -53.111   -18.951   -17.716  0.0000  0.0000  1.0000
              Bcc     0.9183   123.225    43.970    41.104  0.2567  0.9665  0.0000
 
              Baa    -0.0127    -6.754    -2.410    -2.253  0.0000  0.0000  1.0000
     7 H(1)   Bbb    -0.0105    -5.622    -2.006    -1.875  0.4459  0.8951  0.0000
              Bcc     0.0232    12.376     4.416     4.128  0.8951 -0.4459  0.0000
 
              Baa    -0.0057    -3.028    -1.080    -1.010  0.0000  0.0000  1.0000
     8 H(1)   Bbb    -0.0047    -2.510    -0.896    -0.837  0.8462  0.5329  0.0000
              Bcc     0.0104     5.538     1.976     1.847 -0.5329  0.8462  0.0000
 
              Baa    -0.0357     2.585     0.922     0.862  0.7749 -0.6321  0.0000
     9 O(17)  Bbb    -0.0144     1.041     0.371     0.347  0.0000  0.0000  1.0000
              Bcc     0.0501    -3.626    -1.294    -1.209  0.6321  0.7749  0.0000
 
              Baa    -0.0029    -0.392    -0.140    -0.131  0.0000  0.0000  1.0000
    10 C(13)  Bbb    -0.0007    -0.090    -0.032    -0.030 -0.1704  0.9854  0.0000
              Bcc     0.0036     0.482     0.172     0.161  0.9854  0.1704  0.0000
 
              Baa    -0.0022    -1.161    -0.414    -0.387 -0.2765  0.2354  0.9318
    11 H(1)   Bbb    -0.0016    -0.839    -0.299    -0.280 -0.0333  0.9666 -0.2541
              Bcc     0.0037     1.999     0.713     0.667  0.9604  0.1013  0.2594
 
              Baa    -0.0022    -1.161    -0.414    -0.387  0.2764 -0.2353  0.9318
    12 H(1)   Bbb    -0.0016    -0.839    -0.299    -0.280 -0.0333  0.9666  0.2540
              Bcc     0.0037     1.999     0.713     0.667  0.9605  0.1013 -0.2593
 
              Baa    -0.0381     2.757     0.984     0.920  0.0000  0.0000  1.0000
    13 O(17)  Bbb     0.0158    -1.143    -0.408    -0.381  0.8537 -0.5207  0.0000
              Bcc     0.0223    -1.614    -0.576    -0.538  0.5207  0.8537  0.0000
 
              Baa    -0.0024    -1.275    -0.455    -0.425  0.9857 -0.1686  0.0000
    14 H(1)   Bbb    -0.0012    -0.661    -0.236    -0.220  0.0000  0.0000  1.0000
              Bcc     0.0036     1.936     0.691     0.646  0.1686  0.9857  0.0000
 
              Baa    -0.0012    -0.662    -0.236    -0.221  0.0000  0.0000  1.0000
    15 H(1)   Bbb    -0.0011    -0.571    -0.204    -0.190 -0.2567  0.9665  0.0000
              Bcc     0.0023     1.233     0.440     0.411  0.9665  0.2567  0.0000
 
              Baa    -0.0126    -6.704    -2.392    -2.236  0.0000  0.0000  1.0000
    16 H(1)   Bbb    -0.0107    -5.702    -2.035    -1.902  0.1057  0.9944  0.0000
              Bcc     0.0233    12.406     4.427     4.138  0.9944 -0.1057  0.0000
 

 ---------------------------------------------------------------------------------

 No NMR shielding tensors so no spin-rotation constants.
 Leave Link  601 at Wed Dec 03 16:07:48 2025, MaxMem=   104857600 cpu:               1.0 elap:               0.2
 (Enter D:\Gaussian\G16W\l9999.exe)
 1|1|UNPC-PC-20250526LCFF|SP|UB3LYP|6-31G(d)|C7H7O2(2)|ADMINISTRATOR|03
 -Dec-2025|0||#P B3LYP/6-31G* SCF=conver=7 out=wfn||Generated by Multiw
 fn (http://sobereva.com/multiwfn)||0,2|C,0,-2.302692,-0.783106,-0.0000
 32|C,0,-1.909728,0.566122,-0.000029|C,0,-0.563568,0.905669,-0.000014|C
 ,0,0.423481,-0.102448,-0.000002|C,0,0.054254,-1.450148,-0.000005|C,0,-
 1.299247,-1.715162,-0.00002|H,0,-3.352196,-1.052069,-0.000043|H,0,-2.6
 43774,1.363796,-0.000038|O,0,1.707933,0.381199,0.000008|C,0,2.781859,-
 0.55087,0.000074|H,0,2.75724,-1.181895,0.894706|H,0,2.757321,-1.181929
 ,-0.894536|O,0,-0.193547,2.217557,-0.000011|H,0,0.772325,2.241741,0.00
 0002|H,0,3.695032,0.041619,0.000103|H,0,0.792813,-2.241661,0.000002||V
 ersion=EM64W-G16RevA.03|State=2-A|HF=-421.3002423|S2=0.757993|S2-1=0.|
 S2A=0.750033|RMSD=5.214e-008|Dipole=1.0084812,-0.3436407,0.0000387|Qua
 drupole=6.1038879,-2.8015591,-3.3023288,-0.9816762,0.0002334,-0.000009
 3|PG=C01 [X(C7H7O2)]||@

 Writing a WFN file to "N.wfn"


 THE MOLECULE ALSO HAS A BODY.  WHEN THIS BODY IS HIT, THE MOLECULE
 FEELS HURT ALL OVER -- A. KITAIGORODSKI
 Job cpu time:       0 days  0 hours  0 minutes 28.0 seconds.
 Elapsed time:       0 days  0 hours  0 minutes 27.8 seconds.
 File lengths (MBytes):  RWF=     27 Int=      0 D2E=      0 Chk=      3 Scr=      1
 Normal termination of Gaussian 16 at Wed Dec 03 16:07:48 2025.
