 Generated by Multiwfn (http://sobereva.com/multiwfn)
GAUSSIAN             65 MOL ORBITALS    280 PRIMITIVES       16 NUCLEI
  C    1    (CENTRE  1)  -4.35145706 -1.47985639 -0.00006059  CHARGE =  6.0
  C    2    (CENTRE  2)  -3.60886317  1.06981514 -0.00005492  CHARGE =  6.0
  C    3    (CENTRE  3)  -1.06498956  1.71146642 -0.00002657  CHARGE =  6.0
  C    4    (CENTRE  4)   0.80026306 -0.19359829 -0.00000390  CHARGE =  6.0
  C    5    (CENTRE  5)   0.10252559 -2.74038231 -0.00000956  CHARGE =  6.0
  C    6    (CENTRE  6)  -2.45522052 -3.24118664 -0.00003791  CHARGE =  6.0
  H    7    (CENTRE  7)  -6.33473210 -1.98812315 -0.00008137  CHARGE =  1.0
  H    8    (CENTRE  8)  -4.99600933  2.57720029 -0.00007193  CHARGE =  1.0
  O    9    (CENTRE  9)   3.22752540  0.72036251  0.00001500  CHARGE =  8.0
  C   10    (CENTRE 10)   5.25695172 -1.04099228  0.00013972  CHARGE =  6.0
  H   11    (CENTRE 11)   5.21042876 -2.23345672  1.69074919  CHARGE =  1.0
  H   12    (CENTRE 12)   5.21058183 -2.23352097 -1.69042816  CHARGE =  1.0
  O   13    (CENTRE 13)  -0.36575164  4.19057556 -0.00002090  CHARGE =  8.0
  H   14    (CENTRE 14)   1.45948190  4.23627702  0.00000366  CHARGE =  1.0
  H   15    (CENTRE 15)   6.98259840  0.07864996  0.00019453  CHARGE =  1.0
  H   16    (CENTRE 16)   1.49820009 -4.23612486  0.00000366  CHARGE =  1.0
CENTRE ASSIGNMENTS    1  1  1  1  1  1  1  1  1  1  1  1  1  1  1  1  1  1  1  1
CENTRE ASSIGNMENTS    1  1  1  1  1  1  1  1  2  2  2  2  2  2  2  2  2  2  2  2
CENTRE ASSIGNMENTS    2  2  2  2  2  2  2  2  2  2  2  2  2  2  2  2  3  3  3  3
CENTRE ASSIGNMENTS    3  3  3  3  3  3  3  3  3  3  3  3  3  3  3  3  3  3  3  3
CENTRE ASSIGNMENTS    3  3  3  3  4  4  4  4  4  4  4  4  4  4  4  4  4  4  4  4
CENTRE ASSIGNMENTS    4  4  4  4  4  4  4  4  4  4  4  4  5  5  5  5  5  5  5  5
CENTRE ASSIGNMENTS    5  5  5  5  5  5  5  5  5  5  5  5  5  5  5  5  5  5  5  5
CENTRE ASSIGNMENTS    6  6  6  6  6  6  6  6  6  6  6  6  6  6  6  6  6  6  6  6
CENTRE ASSIGNMENTS    6  6  6  6  6  6  6  6  7  7  7  7  8  8  8  8  9  9  9  9
CENTRE ASSIGNMENTS    9  9  9  9  9  9  9  9  9  9  9  9  9  9  9  9  9  9  9  9
CENTRE ASSIGNMENTS    9  9  9  9 10 10 10 10 10 10 10 10 10 10 10 10 10 10 10 10
CENTRE ASSIGNMENTS   10 10 10 10 10 10 10 10 10 10 10 10 11 11 11 11 12 12 12 12
CENTRE ASSIGNMENTS   13 13 13 13 13 13 13 13 13 13 13 13 13 13 13 13 13 13 13 13
CENTRE ASSIGNMENTS   13 13 13 13 13 13 13 13 14 14 14 14 15 15 15 15 16 16 16 16
TYPE ASSIGNMENTS      1  1  1  1  1  1  1  1  1  2  2  2  3  3  3  4  4  4  1  2
TYPE ASSIGNMENTS      3  4  5  6  7  8  9 10  1  1  1  1  1  1  1  1  1  2  2  2
TYPE ASSIGNMENTS      3  3  3  4  4  4  1  2  3  4  5  6  7  8  9 10  1  1  1  1
TYPE ASSIGNMENTS      1  1  1  1  1  2  2  2  3  3  3  4  4  4  1  2  3  4  5  6
TYPE ASSIGNMENTS      7  8  9 10  1  1  1  1  1  1  1  1  1  2  2  2  3  3  3  4
TYPE ASSIGNMENTS      4  4  1  2  3  4  5  6  7  8  9 10  1  1  1  1  1  1  1  1
TYPE ASSIGNMENTS      1  2  2  2  3  3  3  4  4  4  1  2  3  4  5  6  7  8  9 10
TYPE ASSIGNMENTS      1  1  1  1  1  1  1  1  1  2  2  2  3  3  3  4  4  4  1  2
TYPE ASSIGNMENTS      3  4  5  6  7  8  9 10  1  1  1  1  1  1  1  1  1  1  1  1
TYPE ASSIGNMENTS      1  1  1  1  1  2  2  2  3  3  3  4  4  4  1  2  3  4  5  6
TYPE ASSIGNMENTS      7  8  9 10  1  1  1  1  1  1  1  1  1  2  2  2  3  3  3  4
TYPE ASSIGNMENTS      4  4  1  2  3  4  5  6  7  8  9 10  1  1  1  1  1  1  1  1
TYPE ASSIGNMENTS      1  1  1  1  1  1  1  1  1  2  2  2  3  3  3  4  4  4  1  2
TYPE ASSIGNMENTS      3  4  5  6  7  8  9 10  1  1  1  1  1  1  1  1  1  1  1  1
EXPONENTS  0.3047525D+04 0.4573695D+03 0.1039487D+03 0.2921016D+02 0.9286663D+01
EXPONENTS  0.3163927D+01 0.7868272D+01 0.1881289D+01 0.5442493D+00 0.7868272D+01
EXPONENTS  0.1881289D+01 0.5442493D+00 0.7868272D+01 0.1881289D+01 0.5442493D+00
EXPONENTS  0.7868272D+01 0.1881289D+01 0.5442493D+00 0.1687145D+00 0.1687145D+00
EXPONENTS  0.1687145D+00 0.1687145D+00 0.8000000D+00 0.8000000D+00 0.8000000D+00
EXPONENTS  0.8000000D+00 0.8000000D+00 0.8000000D+00 0.3047525D+04 0.4573695D+03
EXPONENTS  0.1039487D+03 0.2921016D+02 0.9286663D+01 0.3163927D+01 0.7868272D+01
EXPONENTS  0.1881289D+01 0.5442493D+00 0.7868272D+01 0.1881289D+01 0.5442493D+00
EXPONENTS  0.7868272D+01 0.1881289D+01 0.5442493D+00 0.7868272D+01 0.1881289D+01
EXPONENTS  0.5442493D+00 0.1687145D+00 0.1687145D+00 0.1687145D+00 0.1687145D+00
EXPONENTS  0.8000000D+00 0.8000000D+00 0.8000000D+00 0.8000000D+00 0.8000000D+00
EXPONENTS  0.8000000D+00 0.3047525D+04 0.4573695D+03 0.1039487D+03 0.2921016D+02
EXPONENTS  0.9286663D+01 0.3163927D+01 0.7868272D+01 0.1881289D+01 0.5442493D+00
EXPONENTS  0.7868272D+01 0.1881289D+01 0.5442493D+00 0.7868272D+01 0.1881289D+01
EXPONENTS  0.5442493D+00 0.7868272D+01 0.1881289D+01 0.5442493D+00 0.1687145D+00
EXPONENTS  0.1687145D+00 0.1687145D+00 0.1687145D+00 0.8000000D+00 0.8000000D+00
EXPONENTS  0.8000000D+00 0.8000000D+00 0.8000000D+00 0.8000000D+00 0.3047525D+04
EXPONENTS  0.4573695D+03 0.1039487D+03 0.2921016D+02 0.9286663D+01 0.3163927D+01
EXPONENTS  0.7868272D+01 0.1881289D+01 0.5442493D+00 0.7868272D+01 0.1881289D+01
EXPONENTS  0.5442493D+00 0.7868272D+01 0.1881289D+01 0.5442493D+00 0.7868272D+01
EXPONENTS  0.1881289D+01 0.5442493D+00 0.1687145D+00 0.1687145D+00 0.1687145D+00
EXPONENTS  0.1687145D+00 0.8000000D+00 0.8000000D+00 0.8000000D+00 0.8000000D+00
EXPONENTS  0.8000000D+00 0.8000000D+00 0.3047525D+04 0.4573695D+03 0.1039487D+03
EXPONENTS  0.2921016D+02 0.9286663D+01 0.3163927D+01 0.7868272D+01 0.1881289D+01
EXPONENTS  0.5442493D+00 0.7868272D+01 0.1881289D+01 0.5442493D+00 0.7868272D+01
EXPONENTS  0.1881289D+01 0.5442493D+00 0.7868272D+01 0.1881289D+01 0.5442493D+00
EXPONENTS  0.1687145D+00 0.1687145D+00 0.1687145D+00 0.1687145D+00 0.8000000D+00
EXPONENTS  0.8000000D+00 0.8000000D+00 0.8000000D+00 0.8000000D+00 0.8000000D+00
EXPONENTS  0.3047525D+04 0.4573695D+03 0.1039487D+03 0.2921016D+02 0.9286663D+01
EXPONENTS  0.3163927D+01 0.7868272D+01 0.1881289D+01 0.5442493D+00 0.7868272D+01
EXPONENTS  0.1881289D+01 0.5442493D+00 0.7868272D+01 0.1881289D+01 0.5442493D+00
EXPONENTS  0.7868272D+01 0.1881289D+01 0.5442493D+00 0.1687145D+00 0.1687145D+00
EXPONENTS  0.1687145D+00 0.1687145D+00 0.8000000D+00 0.8000000D+00 0.8000000D+00
EXPONENTS  0.8000000D+00 0.8000000D+00 0.8000000D+00 0.1873114D+02 0.2825394D+01
EXPONENTS  0.6401217D+00 0.1612778D+00 0.1873114D+02 0.2825394D+01 0.6401217D+00
EXPONENTS  0.1612778D+00 0.5484672D+04 0.8252349D+03 0.1880470D+03 0.5296450D+02
EXPONENTS  0.1689757D+02 0.5799635D+01 0.1553962D+02 0.3599934D+01 0.1013762D+01
EXPONENTS  0.1553962D+02 0.3599934D+01 0.1013762D+01 0.1553962D+02 0.3599934D+01
EXPONENTS  0.1013762D+01 0.1553962D+02 0.3599934D+01 0.1013762D+01 0.2700058D+00
EXPONENTS  0.2700058D+00 0.2700058D+00 0.2700058D+00 0.8000000D+00 0.8000000D+00
EXPONENTS  0.8000000D+00 0.8000000D+00 0.8000000D+00 0.8000000D+00 0.3047525D+04
EXPONENTS  0.4573695D+03 0.1039487D+03 0.2921016D+02 0.9286663D+01 0.3163927D+01
EXPONENTS  0.7868272D+01 0.1881289D+01 0.5442493D+00 0.7868272D+01 0.1881289D+01
EXPONENTS  0.5442493D+00 0.7868272D+01 0.1881289D+01 0.5442493D+00 0.7868272D+01
EXPONENTS  0.1881289D+01 0.5442493D+00 0.1687145D+00 0.1687145D+00 0.1687145D+00
EXPONENTS  0.1687145D+00 0.8000000D+00 0.8000000D+00 0.8000000D+00 0.8000000D+00
EXPONENTS  0.8000000D+00 0.8000000D+00 0.1873114D+02 0.2825394D+01 0.6401217D+00
EXPONENTS  0.1612778D+00 0.1873114D+02 0.2825394D+01 0.6401217D+00 0.1612778D+00
EXPONENTS  0.5484672D+04 0.8252349D+03 0.1880470D+03 0.5296450D+02 0.1689757D+02
EXPONENTS  0.5799635D+01 0.1553962D+02 0.3599934D+01 0.1013762D+01 0.1553962D+02
EXPONENTS  0.3599934D+01 0.1013762D+01 0.1553962D+02 0.3599934D+01 0.1013762D+01
EXPONENTS  0.1553962D+02 0.3599934D+01 0.1013762D+01 0.2700058D+00 0.2700058D+00
EXPONENTS  0.2700058D+00 0.2700058D+00 0.8000000D+00 0.8000000D+00 0.8000000D+00
EXPONENTS  0.8000000D+00 0.8000000D+00 0.8000000D+00 0.1873114D+02 0.2825394D+01
EXPONENTS  0.6401217D+00 0.1612778D+00 0.1873114D+02 0.2825394D+01 0.6401217D+00
EXPONENTS  0.1612778D+00 0.1873114D+02 0.2825394D+01 0.6401217D+00 0.1612778D+00
MO    1     MO 0.0        OCC NO =    1.0000000  ORB. ENERGY =  -19.193826
  0.45888186D-05  0.84654742D-05  0.13665900D-04  0.17788942D-04  0.15179336D-04
  0.52410600D-05 -0.19163609D-04 -0.88324898D-05  0.24767223D-04  0.10039485D-04
  0.76976400D-05  0.38416618D-05  0.13965640D-04  0.10707967D-04  0.53440262D-05
  0.49731008D-09  0.38130583D-09  0.19029833D-09 -0.14662681D-03 -0.61237771D-04
 -0.43252076D-04 -0.86660812D-09  0.95253592D-05 -0.22881133D-04  0.22369635D-04
  0.22821802D-04 -0.46769286D-09  0.16446278D-09  0.59078654D-05  0.10898858D-04
  0.17594136D-04  0.22902338D-04  0.19542606D-04  0.67475923D-05 -0.16349696D-04
 -0.75355601D-05  0.21130497D-04  0.76609572D-04  0.58739361D-04  0.29315058D-04
 -0.94064587D-05 -0.72122759D-05 -0.35994312D-05  0.10761915D-08  0.82515542D-09
  0.41181038D-09  0.18067677D-03  0.27204684D-04 -0.83468763D-04  0.80090251D-09
  0.21132135D-04  0.19886093D-04  0.35701502D-04  0.10420842D-04  0.60931402D-09
  0.53184067D-09  0.11859794D-04  0.21879003D-04  0.35319495D-04  0.45975488D-04
  0.39230968D-04  0.13545510D-04 -0.63474517D-04 -0.29255347D-04  0.82035046D-04
  0.37341886D-04  0.28631390D-04  0.14289070D-04  0.75085119D-04  0.57570507D-04
  0.28731718D-04  0.12968415D-08  0.99433581D-09  0.49624326D-09 -0.62223627D-04
  0.11496366D-03  0.32586319D-03 -0.46730791D-09 -0.60536860D-04  0.81175856D-04
  0.28572363D-04  0.61798693D-04 -0.21779695D-08  0.16859977D-08 -0.23050709D-04
 -0.42524056D-04 -0.68647012D-04 -0.89358013D-04 -0.76249354D-04 -0.26327070D-04
 -0.46310842D-04 -0.21344625D-04  0.59852556D-04  0.50545782D-03  0.38755300D-03
  0.19341611D-03  0.27914837D-03  0.21403327D-03  0.10681760D-03 -0.87793987D-09
 -0.67314861D-09 -0.33594833D-09 -0.40646109D-04 -0.62057591D-03 -0.36375028D-03
 -0.31816206D-08  0.26462148D-04  0.19718652D-04 -0.86240068D-04  0.17278278D-03
  0.39529865D-09 -0.17321217D-08  0.95685237D-05  0.17652058D-04  0.28495894D-04
  0.37093188D-04  0.31651684D-04  0.10928566D-04 -0.70832742D-04 -0.32646746D-04
  0.91544883D-04 -0.76389510D-04 -0.58570631D-04 -0.29230850D-04 -0.68550606D-04
 -0.52560257D-04 -0.26231252D-04 -0.99114193D-09 -0.75994477D-09 -0.37926570D-09
 -0.53326874D-03  0.23461063D-03 -0.20796673D-03  0.17387126D-08 -0.66625147D-04
 -0.82899987D-04  0.42265635D-04 -0.41135797D-05 -0.19624442D-08 -0.27460037D-08
 -0.19956357D-06 -0.36815581D-06 -0.59431763D-06 -0.77362497D-06 -0.66013559D-06
 -0.22792895D-06  0.65630996D-05  0.30249266D-05 -0.84822099D-05  0.86701812D-04
  0.66477450D-04  0.33176907D-04  0.30925834D-04  0.23711968D-04  0.11833934D-04
  0.13867910D-08  0.10633034D-08  0.53066292D-09  0.28959979D-03  0.76123160D-04
  0.61891462D-04  0.99093097D-09  0.52366869D-04 -0.16441669D-04  0.11928496D-04
 -0.70469397D-05  0.14231371D-08 -0.22278934D-09 -0.27948303D-05 -0.47405611D-05
 -0.53969612D-05 -0.19525398D-04  0.45191788D-05  0.76653825D-05  0.87267671D-05
  0.13414699D-04  0.82557313D+00  0.15194953D+01  0.24588302D+01  0.32322011D+01
  0.27722401D+01  0.94787597D+00 -0.15706235D-01 -0.70080915D-02  0.20694988D-01
 -0.34379941D-03 -0.26487891D-03 -0.11629611D-03 -0.28576271D-02 -0.22016477D-02
 -0.96664191D-03  0.10273461D-06  0.79151480D-07  0.34751763D-07  0.41242147D-02
 -0.31958610D-03 -0.45974573D-04 -0.15789500D-08 -0.95086431D-02 -0.95482834D-02
 -0.94378438D-02  0.19808729D-03 -0.13382070D-07  0.15110884D-07  0.74312550D-05
  0.13709214D-04  0.22130923D-04  0.28807886D-04  0.24581821D-04  0.84875121D-05
 -0.72593678D-04 -0.33458360D-04  0.93820733D-04 -0.37447991D-03 -0.28712745D-03
 -0.14329672D-03  0.43630923D-03  0.33453424D-03  0.16695603D-03 -0.28520100D-07
 -0.21867404D-07 -0.10913367D-07 -0.31098503D-03  0.65832064D-04 -0.10573896D-03
  0.55222617D-08  0.27669732D-03  0.26888841D-03  0.28016229D-04 -0.50592222D-03
  0.32516541D-07 -0.37980585D-07  0.12891091D-04  0.21865729D-04  0.24893360D-04
  0.97222543D-05  0.12891831D-04  0.21866986D-04  0.24894791D-04  0.97212997D-05
  0.26296600D-04  0.48399782D-04  0.78319984D-04  0.10295381D-03  0.88302886D-04
  0.30192256D-04 -0.99428162D-04 -0.44364652D-04  0.13100941D-03 -0.12122247D-03
 -0.93395379D-04 -0.41005602D-04 -0.22227181D-03 -0.17124845D-03 -0.75187292D-04
 -0.41019702D-08 -0.31603469D-08 -0.13875625D-08 -0.28741947D-03  0.14632394D-03
  0.18811870D-03  0.26589987D-08  0.16363141D-03 -0.14675766D-04  0.11283290D-03
 -0.36648753D-04  0.15746325D-08 -0.13840348D-08 -0.59037361D-05 -0.10013854D-04
 -0.11400419D-04 -0.15645734D-03  0.26312118D-04  0.44630333D-04  0.50810056D-04
  0.26047376D-04 -0.14871816D-04 -0.25225414D-04 -0.28718243D-04 -0.10938715D-03
MO    2     MO 0.0        OCC NO =    1.0000000  ORB. ENERGY =  -19.168197
  0.19419757D-05  0.35825659D-05  0.57833722D-05  0.75282322D-05  0.64238542D-05
  0.22180025D-05  0.14159451D-05  0.65260781D-06 -0.18299804D-05  0.45817301D-04
  0.35129801D-04  0.17532233D-04  0.74851913D-04  0.57391699D-04  0.28642480D-04
  0.39207102D-09  0.30061519D-09  0.15002805D-09  0.28358280D-03  0.89450184D-04
  0.35372362D-04  0.10310551D-08  0.74065585D-06  0.44798844D-04  0.26454657D-04
 -0.18312915D-04 -0.49352042D-09 -0.37242113D-09  0.63762156D-05  0.11762873D-04
  0.18988924D-04  0.24717937D-04  0.21091860D-04  0.72825125D-05 -0.61599820D-04
 -0.28391301D-04  0.79612171D-04 -0.98050628D-05 -0.75179003D-05 -0.37519591D-05
 -0.12461903D-04 -0.95549969D-05 -0.47686131D-05 -0.11679471D-09 -0.89550774D-10
 -0.44692112D-10 -0.33783047D-03 -0.18041877D-03  0.26349472D-03 -0.23332441D-08
 -0.90594348D-04 -0.50485002D-04  0.29676452D-04  0.17883852D-04 -0.28009712D-08
  0.44733052D-09 -0.33961685D-04 -0.62652677D-04 -0.10114085D-03 -0.13165533D-03
 -0.11234173D-03 -0.38788901D-04 -0.32415408D-04 -0.14940232D-04  0.41893970D-04
  0.10228581D-03  0.78426273D-04  0.39140207D-04  0.55261739D-03  0.42371196D-03
  0.21146197D-03  0.72548508D-09  0.55625595D-09  0.27761070D-09  0.18382139D-03
 -0.95714785D-04 -0.86128572D-03 -0.24536184D-09 -0.58111608D-04 -0.52092868D-04
 -0.12651281D-03 -0.11770848D-03  0.16610195D-08 -0.15753856D-08  0.25502267D-04
  0.47046704D-04  0.75947967D-04  0.98861687D-04  0.84358857D-04  0.29127086D-04
 -0.11666232D-03 -0.53769559D-04  0.15077545D-03  0.25244744D-04  0.19356068D-04
  0.96600346D-05 -0.50673009D-04 -0.38852849D-04 -0.19390295D-04 -0.10391436D-08
 -0.79674942D-09 -0.39763380D-09 -0.64196909D-03  0.55688026D-03  0.12171378D-03
  0.58788125D-08  0.54808704D-04 -0.55696190D-04  0.77227151D-04  0.12625126D-03
 -0.19299082D-08  0.80707389D-09 -0.38299490D-05 -0.70655080D-05 -0.11405921D-04
 -0.14847120D-04 -0.12669074D-04 -0.43743268D-05  0.21930730D-04  0.10107854D-04
 -0.28343477D-04  0.33757841D-04  0.25883371D-04  0.12917616D-04  0.10546169D-03
  0.80861339D-04  0.40355475D-04 -0.58962387D-09 -0.45208619D-09 -0.22562269D-09
  0.43544523D-03 -0.17124906D-03  0.16512373D-03 -0.15797676D-08 -0.43503863D-05
  0.43912655D-04 -0.83838729D-06 -0.57521779D-05  0.19067337D-09 -0.16207100D-09
  0.86478859D-05  0.15953661D-04  0.25754155D-04  0.33524258D-04  0.28606310D-04
  0.98770714D-05 -0.32231873D-04 -0.14855641D-04  0.41656768D-04 -0.38125298D-04
 -0.29232060D-04 -0.14588847D-04 -0.67870619D-05 -0.52038886D-05 -0.25971051D-05
 -0.17181630D-09 -0.13173784D-09 -0.65746416D-10 -0.31704075D-03 -0.44164544D-04
 -0.84350205D-04 -0.65883185D-09 -0.18516378D-04  0.18416704D-04  0.40211149D-04
  0.13065593D-04 -0.16419530D-08 -0.69505698D-11  0.16118433D-05  0.27339913D-05
  0.31125524D-05  0.11040912D-04 -0.10045941D-04 -0.17039817D-04 -0.19399229D-04
 -0.13872399D-03  0.40788001D-04  0.75071696D-04  0.12148018D-03  0.15968909D-03
  0.13696441D-03  0.46830456D-04 -0.15516495D-03 -0.69234299D-04  0.20444981D-03
 -0.13140158D-03 -0.10123783D-03 -0.44448861D-04 -0.12111096D-03 -0.93309467D-04
 -0.40967882D-04 -0.36729402D-08 -0.28298024D-08 -0.12424357D-08 -0.45459304D-03
  0.16401156D-03  0.11593810D-03  0.24013871D-08  0.81959507D-04  0.16082894D-03
  0.15970011D-03 -0.82837391D-04 -0.92622340D-09 -0.33440987D-09  0.10266127D-04
  0.18938999D-04  0.30573417D-04  0.39797505D-04  0.33959283D-04  0.11725324D-04
 -0.31622626D-04 -0.14574839D-04  0.40869371D-04 -0.62120296D-04 -0.47629903D-04
 -0.23770660D-04  0.16926208D-04  0.12977943D-04  0.64769031D-05 -0.33258398D-08
 -0.25500430D-08 -0.12726502D-08 -0.50008147D-04  0.30133908D-04 -0.80178631D-05
  0.83175799D-09  0.34147349D-04  0.16928370D-04  0.41303350D-04  0.56897963D-05
  0.22057033D-08  0.10102189D-08  0.44466224D-05  0.75423132D-05  0.85866570D-05
 -0.50358021D-05  0.44466579D-05  0.75423735D-05  0.85867256D-05 -0.50361483D-05
  0.82561586D+00  0.15195739D+01  0.24589574D+01  0.32323684D+01  0.27723836D+01
  0.94792503D+00 -0.15754285D-01 -0.70295314D-02  0.20758300D-01  0.21885444D-02
  0.16861555D-02  0.74031308D-03 -0.23602021D-02 -0.18184085D-02 -0.79837927D-03
  0.34058268D-07  0.26240059D-07  0.11520799D-07  0.39922187D-02 -0.17484076D-03
 -0.34929765D-03 -0.17371898D-08 -0.93002028D-02 -0.92126278D-02 -0.92582955D-02
  0.15481426D-03 -0.13352821D-08  0.17425805D-08  0.85732457D-04  0.14541847D-03
  0.16555379D-03 -0.20802192D-03 -0.42354810D-06 -0.71841774D-06 -0.81789320D-06
 -0.62542619D-05  0.10162099D-04  0.17236844D-04  0.19623537D-04  0.75235468D-04
MO    3     MO 0.0        OCC NO =    1.0000000  ORB. ENERGY =  -10.252701
 -0.51636583D-05 -0.95259412D-05 -0.15377823D-04 -0.20017356D-04 -0.17080846D-04
 -0.58976057D-05  0.15668146D-04  0.72214342D-05 -0.20249655D-04 -0.17694039D-04
 -0.13566667D-04 -0.67707176D-05  0.70334700D-04  0.53928187D-04  0.26913945D-04
  0.43685094D-09  0.33494959D-09  0.16716332D-09  0.16829106D-03  0.48346101D-04
  0.27915865D-04  0.72001820D-10 -0.94899307D-05  0.14480170D-04 -0.17068334D-04
  0.11804209D-04 -0.82278541D-10 -0.47597291D-09  0.69019952D-05  0.12732833D-04
  0.20554741D-04  0.26756165D-04  0.22831084D-04  0.78830248D-05 -0.27265736D-04
 -0.12566753D-04  0.35238487D-04 -0.86814173D-04 -0.66563601D-04 -0.33219902D-04
 -0.52899265D-04 -0.40559801D-04 -0.20242183D-04 -0.94140066D-09 -0.72180632D-09
 -0.36023194D-09 -0.27738228D-03 -0.10527052D-03  0.15500249D-03 -0.45338135D-09
 -0.32143244D-04  0.18246351D-04  0.13312564D-04  0.28984673D-04  0.55388603D-09
  0.98463780D-09 -0.13335400D-03 -0.24601210D-03 -0.39713981D-03 -0.51695803D-03
 -0.44112122D-03 -0.15230856D-03  0.10644147D-03  0.49058779D-04 -0.13756594D-03
  0.11773630D-03  0.90272724D-04  0.45052416D-04 -0.49870522D-05 -0.38237553D-05
 -0.19083219D-05  0.37412706D-08  0.28685690D-08  0.14316170D-08  0.74286140D-03
  0.48941377D-04 -0.42433211D-03 -0.19686217D-08  0.15669489D-04 -0.29752643D-04
 -0.83871413D-04 -0.49665168D-04  0.91938502D-09  0.52970965D-09 -0.24970126D-02
 -0.46065007D-02 -0.74363204D-02 -0.96798797D-02 -0.82598589D-02 -0.28519308D-02
  0.13741896D-03  0.63336274D-04 -0.17760152D-03 -0.16765715D-03 -0.12854887D-03
 -0.64154896D-04  0.16338511D-03  0.12527334D-03  0.62520174D-04 -0.85261457D-08
 -0.65373077D-08 -0.32625747D-08 -0.27018523D-03  0.53377870D-03 -0.33722608D-03
  0.12158035D-07  0.24090856D-03  0.84403806D-04  0.27444979D-05  0.15718910D-03
  0.14687765D-07 -0.53127838D-08 -0.12380533D-04 -0.22839666D-04 -0.36870303D-04
 -0.47994179D-04 -0.40953520D-04 -0.14140266D-04 -0.28108433D-04 -0.12955151D-04
  0.36327597D-04 -0.13858106D-03 -0.10625517D-03 -0.53028775D-04 -0.64357069D-04
 -0.49344919D-04 -0.24626573D-04 -0.12215788D-08 -0.93662918D-09 -0.46744360D-09
 -0.24996475D-03 -0.38829316D-04  0.17924695D-04 -0.20144804D-08 -0.87150912D-04
  0.17939048D-04 -0.11800545D-04 -0.15356287D-03  0.16786636D-08 -0.71221349D-08
 -0.20497074D-04 -0.37813098D-04 -0.61042065D-04 -0.79458632D-04 -0.67802194D-04
 -0.23410468D-04  0.50247550D-04  0.23159050D-04 -0.64940393D-04  0.34466902D-04
  0.26427034D-04  0.13188942D-04 -0.12610467D-04 -0.96689062D-05 -0.48254618D-05
  0.14606697D-08  0.11199489D-08  0.55893298D-09  0.78988924D-04  0.62660872D-04
  0.13829791D-04  0.91046586D-09  0.30140018D-04 -0.17364621D-04 -0.70632937D-04
  0.50182985D-04  0.32749353D-08  0.17978004D-09 -0.15221133D-05 -0.25817923D-05
 -0.29392793D-05  0.13335122D-04 -0.12443110D-04 -0.21105869D-04 -0.24028286D-04
 -0.51917389D-04 -0.53391082D-04 -0.98268093D-04 -0.15901632D-03 -0.20903141D-03
 -0.17928502D-03 -0.61300595D-04 -0.54786292D-04 -0.24445537D-04  0.72187997D-04
 -0.14547088D-03 -0.11207747D-03 -0.49208047D-04 -0.21299631D-03 -0.16410218D-03
 -0.72049695D-04 -0.73184493D-08 -0.56384706D-08 -0.24755923D-08  0.15124101D-03
  0.46910713D-04  0.26247671D-03 -0.39532939D-08 -0.48272590D-03 -0.41525205D-03
  0.15431926D-03  0.66964858D-03 -0.68996612D-07  0.62450059D-07  0.53254981D+00
  0.98245042D+00  0.15859796D+01  0.20644742D+01  0.17616196D+01  0.60824491D+00
 -0.19712020D-01 -0.90852521D-02  0.25475995D-01 -0.11000786D-02 -0.84347046D-03
 -0.42095088D-03  0.66246988D-03  0.50793989D-03  0.25349760D-03 -0.62803144D-07
 -0.48153467D-07 -0.24031955D-07 -0.26222821D-02  0.95153956D-04  0.78104486D-04
  0.13179833D-08 -0.99488304D-02 -0.99806019D-02 -0.10142493D-01 -0.24576058D-03
  0.27617801D-07 -0.15085386D-07 -0.94182333D-05 -0.15975106D-04 -0.18187094D-04
  0.48273947D-03 -0.94192215D-05 -0.15976783D-04 -0.18189002D-04  0.48274057D-03
 -0.44505197D-04 -0.81913320D-04 -0.13255121D-03 -0.17424228D-03 -0.14944659D-03
 -0.51098328D-04  0.14690978D-03  0.65550858D-04 -0.19357256D-03  0.47851380D-04
  0.36866909D-04  0.16186559D-04 -0.31320192D-05 -0.24130519D-05 -0.10594598D-05
 -0.26188900D-08 -0.20177136D-08 -0.88588494D-09  0.39770539D-03 -0.30036085D-04
 -0.62137673D-04  0.12427239D-08 -0.14030289D-03 -0.16699859D-03 -0.16967219D-03
  0.37614516D-04 -0.23669064D-09 -0.14857256D-08 -0.93176925D-06 -0.15804570D-05
 -0.17992944D-05 -0.42227785D-04 -0.45236346D-04 -0.76729405D-04 -0.87353716D-04
  0.39192066D-03  0.99850006D-05  0.16936451D-04  0.19281551D-04  0.55466045D-04
MO    4     MO 0.0        OCC NO =    1.0000000  ORB. ENERGY =  -10.252363
 -0.62062912D-04 -0.11449395D-03 -0.18482874D-03 -0.24059210D-03 -0.20529768D-03
 -0.70884355D-04  0.12174321D-03  0.56111333D-04 -0.15734203D-03 -0.61717859D-04
 -0.47321340D-04 -0.23616665D-04 -0.13793867D-04 -0.10576262D-04 -0.52782960D-05
 -0.70080396D-09 -0.53733202D-09 -0.26816634D-09  0.84970001D-03  0.39217893D-03
  0.16692041D-03  0.41394044D-08 -0.35434885D-04  0.22996959D-04 -0.13177245D-03
 -0.17546910D-04  0.20018270D-08 -0.20795791D-09  0.62966243D-04  0.11616042D-03
  0.18751894D-03  0.24409394D-03  0.20828581D-03  0.71916083D-04 -0.10563775D-04
 -0.48688345D-05  0.13652720D-04 -0.15357025D-03 -0.11774793D-03 -0.58764470D-04
  0.14816289D-04  0.11360191D-04  0.56695313D-05 -0.17790858D-08 -0.13640902D-08
 -0.68077660D-09 -0.10120892D-02 -0.25538305D-03  0.38313484D-03 -0.34989041D-08
  0.12299309D-03  0.13420904D-04 -0.20955970D-04  0.50708741D-04  0.26373898D-08
  0.39495786D-09  0.12849351D-01  0.23704544D-01  0.38266484D-01  0.49811592D-01
  0.42504321D-01  0.14675721D-01 -0.18246096D-03 -0.84096090D-04  0.23581421D-03
 -0.25392129D-03 -0.19469074D-03 -0.97164324D-04  0.27460745D-03  0.21055158D-03
  0.10507999D-03 -0.38106383D-08 -0.29217558D-08 -0.14581609D-08  0.17256041D-02
 -0.10026098D-03 -0.10872215D-02  0.66100262D-09 -0.85918904D-03 -0.59950094D-03
 -0.56478367D-03  0.15830265D-03 -0.61203072D-08  0.10011124D-08  0.53237831D+00
  0.98213403D+00  0.15854689D+01  0.20638094D+01  0.17610523D+01  0.60804903D+00
 -0.19751365D-01 -0.91033862D-02  0.25526845D-01  0.11154859D-02  0.85528383D-03
  0.42684657D-03  0.35121327D-03  0.26928806D-03  0.13439362D-03  0.72864984D-08
  0.55868248D-08  0.27882171D-08 -0.34576426D-02  0.15415753D-02  0.62010466D-03
  0.15076813D-07 -0.94163854D-02 -0.98672264D-02 -0.10475216D-01  0.59566538D-03
  0.17841284D-07  0.19408202D-08  0.24318178D-02  0.44862289D-02  0.72421645D-02
  0.94271464D-02  0.80442011D-02  0.27774693D-02  0.23947744D-03  0.11037493D-03
 -0.30950283D-03  0.11559546D-03  0.88631268D-04  0.44233215D-04 -0.33431445D-03
 -0.25633111D-03 -0.12792719D-03  0.29839826D-08  0.22879286D-08  0.11418367D-08
  0.23194376D-02 -0.64441057D-03  0.84669538D-03 -0.78488892D-08 -0.33273781D-03
 -0.45082090D-03 -0.35403406D-03 -0.28287759D-03  0.67365286D-09 -0.28025847D-08
  0.23612541D-04  0.43560528D-04  0.70320199D-04  0.91536005D-04  0.78107839D-04
  0.26968760D-04 -0.32467573D-04 -0.14964275D-04  0.41961389D-04 -0.17516203D-03
 -0.13430313D-03 -0.67026675D-04 -0.11755898D-03 -0.90136766D-04 -0.44984563D-04
 -0.26367595D-08 -0.20217000D-08 -0.10089700D-08 -0.12276772D-02 -0.22027098D-03
 -0.32259444D-03 -0.19534428D-08  0.46009629D-04  0.94254404D-04  0.97852425D-05
  0.70113529D-04  0.80423130D-09  0.96135506D-09  0.15867959D-04  0.26915061D-04
  0.30641846D-04  0.12128661D-03 -0.19026815D-04 -0.32273079D-04 -0.36741760D-04
 -0.83308340D-04  0.11629446D-03  0.21404390D-03  0.34636343D-03  0.45530442D-03
  0.39051195D-03  0.13352267D-03 -0.67799265D-03 -0.30251900D-03  0.89334265D-03
 -0.18681353D-03 -0.14392975D-03 -0.63192914D-04  0.12492850D-04  0.96250678D-05
  0.42259232D-05  0.42649326D-08  0.32859006D-08  0.14426874D-08 -0.16074297D-02
  0.83896040D-03  0.28003435D-03  0.35429000D-08 -0.38559216D-03  0.59302229D-03
  0.94370970D-03 -0.83286772D-03 -0.19293072D-07  0.50024987D-08  0.24966424D-02
  0.46058178D-02  0.74352180D-02  0.96784447D-02  0.82586344D-02  0.28515080D-02
 -0.51526218D-04 -0.23748387D-04  0.66592955D-04 -0.27073539D-04 -0.20758273D-04
 -0.10359833D-04  0.14905532D-04  0.11428617D-04  0.57036807D-05 -0.40531344D-08
 -0.31076864D-08 -0.15509533D-08 -0.44068763D-04 -0.56888619D-04 -0.78175602D-04
  0.36817400D-08  0.13006749D-03 -0.15589554D-03  0.10250336D-04 -0.59337905D-04
  0.37911794D-09  0.30425825D-08 -0.16269791D-04 -0.27596645D-04 -0.31417805D-04
 -0.15519043D-04 -0.16266973D-04 -0.27591865D-04 -0.31412363D-04 -0.15517374D-04
 -0.78789558D-04 -0.14501485D-03 -0.23466140D-03 -0.30846897D-03 -0.26457205D-03
 -0.90461676D-04  0.28295667D-03  0.12625472D-03 -0.37283187D-03  0.11126545D-03
  0.85724032D-04  0.37637468D-04  0.96776270D-04  0.74560899D-04  0.32736251D-04
  0.23027237D-08  0.17741244D-08  0.77893619D-09  0.79750913D-03 -0.12520031D-03
 -0.18711745D-03 -0.17412692D-08 -0.29411933D-03 -0.19255958D-03 -0.30599945D-03
  0.19899591D-04  0.32515160D-09  0.62858396D-09 -0.21959381D-05 -0.37247267D-05
 -0.42404697D-05  0.33333279D-04  0.18922138D-04  0.32095527D-04  0.36539623D-04
  0.35988049D-04  0.37608568D-04  0.63791250D-04  0.72624084D-04  0.28505651D-03
MO    5     MO 0.0        OCC NO =    1.0000000  ORB. ENERGY =  -10.242412
  0.35252768D-04  0.65034474D-04  0.10498581D-03  0.13666032D-03  0.11661250D-03
  0.40263495D-04 -0.69034388D-04 -0.31817887D-04  0.89220675D-04 -0.78319921D-04
 -0.60050748D-04 -0.29969532D-04 -0.19290814D-03 -0.14790973D-03 -0.73817319D-04
 -0.72806860D-09 -0.55823682D-09 -0.27859930D-09 -0.12557453D-02 -0.48185691D-03
 -0.17451376D-03 -0.52063403D-08  0.62999174D-04  0.42105904D-04  0.40185388D-04
  0.51296088D-04  0.42537697D-09  0.96158886D-09  0.26954927D-02  0.49726577D-02
  0.80274113D-02  0.10449304D-01  0.89164104D-02  0.30786222D-02  0.22171577D-03
  0.10218860D-03 -0.28654749D-03 -0.33883778D-03 -0.25979932D-03 -0.12965807D-03
  0.79806711D-04  0.61190724D-04  0.30538460D-04 -0.36903653D-08 -0.28295380D-08
 -0.14121378D-08  0.22271844D-02  0.84601040D-03 -0.73996461D-03  0.10110883D-07
 -0.38279992D-03 -0.37971815D-03 -0.34996775D-03 -0.31961893D-03 -0.60802231D-09
 -0.38292720D-08  0.53240661D+00  0.98218624D+00  0.15855531D+01  0.20639191D+01
  0.17611459D+01  0.60808135D+00 -0.19771304D-01 -0.91125761D-02  0.25552614D-01
  0.44450980D-03  0.34082192D-03  0.17009402D-03  0.91421469D-03  0.70096184D-03
  0.34982909D-03  0.59043965D-09  0.45271167D-09  0.22593485D-09 -0.37837208D-02
  0.41874805D-03  0.18006218D-02  0.37996311D-08 -0.99034887D-02 -0.93376733D-02
 -0.10421554D-01  0.40186802D-03  0.11807737D-07  0.23755189D-08 -0.13140178D-01
 -0.24241063D-01 -0.39132592D-01 -0.50939007D-01 -0.43466347D-01 -0.15007885D-01
  0.81926981D-03  0.37760071D-03 -0.10588318D-02  0.29402849D-03  0.22544240D-03
  0.11251156D-03 -0.27702003D-03 -0.21240139D-03 -0.10600318D-03  0.62454391D-08
  0.47886066D-08  0.23898503D-08  0.23992835D-02 -0.13041491D-02 -0.89477643D-04
 -0.14585570D-07 -0.14528438D-03 -0.36044842D-03 -0.76805117D-04  0.49108445D-04
  0.24095336D-09  0.27245863D-08 -0.58027985D-04 -0.10705030D-03 -0.17281238D-03
 -0.22495037D-03 -0.19195056D-03 -0.66275915D-04 -0.47919030D-04 -0.22085837D-04
  0.61930993D-04 -0.43698092D-05 -0.33504925D-05 -0.16721306D-05 -0.14835626D-03
 -0.11375017D-03 -0.56769307D-04  0.20806498D-08  0.15953103D-08  0.79617165D-09
 -0.12147574D-02  0.41077229D-03 -0.43492321D-03  0.40681162D-08  0.74948393D-04
  0.98590890D-04  0.25406941D-04  0.74323226D-04  0.45190805D-09  0.10531938D-08
 -0.94159733D-04 -0.17370632D-03 -0.28041586D-03 -0.36501813D-03 -0.31147064D-03
 -0.10754333D-03  0.12392072D-03  0.57114948D-04 -0.16015628D-03  0.17277255D-04
  0.13247103D-04  0.66112328D-05  0.53652929D-04  0.41137663D-04  0.20530577D-04
 -0.41090305D-09 -0.31505439D-09 -0.15723422D-09  0.11022420D-02  0.99699798D-04
  0.32518792D-03  0.12996995D-08 -0.10644085D-04 -0.45223005D-04 -0.14018565D-03
 -0.35157091D-04  0.36211604D-08 -0.14537116D-09 -0.12504442D-04 -0.21209901D-04
 -0.24146722D-04 -0.93085786D-04  0.42916642D-04  0.72794748D-04  0.82874248D-04
  0.33622598D-03 -0.64577407D-04 -0.11885690D-03 -0.19233290D-03 -0.25282698D-03
 -0.21684823D-03 -0.74144094D-04  0.26271918D-03  0.11722479D-03 -0.34616637D-03
  0.73169324D-04  0.56373019D-04  0.24750792D-04 -0.96958854D-05 -0.74701570D-05
 -0.32798013D-05  0.48934901D-08  0.37701703D-08  0.16553078D-08  0.72527800D-03
 -0.22608354D-03 -0.85419592D-04 -0.40646917D-08 -0.92015273D-04 -0.23476403D-03
 -0.27772750D-03  0.88860990D-04  0.21292440D-08  0.31748801D-08  0.29998782D-04