Generated by Multiwfn                                                   
SP        RB3LYP                                                      6-311G(d,p)         
Number of atoms                            I               21
Info1-9                                    I   N=           9
          53          52           0           0           0         110
           1          18        -502
Full Title                                 C   N=           2
Generated by Multiwfn   
Route                                      C   N=           6
# b3lyp/6-311g(d,p) pop=nbo geom=connectivity temperature=82
3.15        
Charge                                     I                0
Multiplicity                               I                1
Number of electrons                        I               82
Number of alpha electrons                  I               41
Number of beta electrons                   I               41
Number of basis functions                  I              258
Number of independent functions            I              258
Number of point charges in /Mol/           I                0
Number of translation vectors              I                0
Atomic numbers                             I   N=          21
           6           6           6           6           6           6
           1           1           1           8           1           8
           6           1           1           1           6           1
           1           8           1
Nuclear charges                            R   N=          21
  6.00000000E+00  6.00000000E+00  6.00000000E+00  6.00000000E+00  6.00000000E+00
  6.00000000E+00  1.00000000E+00  1.00000000E+00  1.00000000E+00  8.00000000E+00
  1.00000000E+00  8.00000000E+00  6.00000000E+00  1.00000000E+00  1.00000000E+00
  1.00000000E+00  6.00000000E+00  1.00000000E+00  1.00000000E+00  8.00000000E+00
  1.00000000E+00
Current cartesian coordinates              R   N=          63
 -1.75215028E+00  5.11422250E-01  5.65859591E-02  7.87074710E-01  1.12739360E+00
  2.51452627E-01  2.62508470E+00 -7.85574268E-01  2.89613757E-01  1.86105709E+00
 -3.29557843E+00  1.16514844E-01 -6.96048493E-01 -3.92355143E+00 -6.86745371E-02
 -2.51291623E+00 -2.03655784E+00 -9.79634023E-02  1.39877150E+00  3.07615099E+00
  3.50134126E-01  3.26364394E+00 -4.79105288E+00  1.21779621E-01 -1.30880731E+00
 -5.87190630E+00 -2.08552065E-01 -5.00755502E+00 -2.63027011E+00 -2.91526160E-01
 -5.93539732E+00 -1.05696729E+00 -2.84131661E-01 -3.73002835E+00  2.19188010E+00
 -9.67161831E-03 -3.18126133E+00  4.81595002E+00  1.75430835E-01 -2.00304922E+00
  5.44733964E+00 -1.40412320E+00 -4.99582171E+00  5.78301359E+00  1.05448607E-01
 -2.23207836E+00  5.25684580E+00  1.96044724E+00  5.38277337E+00 -8.48657105E-02
  5.81321330E-01  5.81711180E+00  3.42412705E-01  2.55743439E+00  6.56905273E+00
 -1.69605187E+00  2.92170556E-02  6.07449250E+00  2.14638306E+00 -7.66064735E-01
  5.64962727E+00  1.87444013E+00 -2.51523681E+00
Number of symbols in /Mol/                 I                0
Force Field                                I                0
Atom Types                                 C   N=          21
                                                            
                                                            
                                                            
                                                            
            
Int Atom Types                             I   N=          21
           0           0           0           0           0           0
           0           0           0           0           0           0
           0           0           0           0           0           0
           0           0           0
MM charges                                 R   N=          21
  0.00000000E+00  0.00000000E+00  0.00000000E+00  0.00000000E+00  0.00000000E+00
  0.00000000E+00  0.00000000E+00  0.00000000E+00  0.00000000E+00  0.00000000E+00
  0.00000000E+00  0.00000000E+00  0.00000000E+00  0.00000000E+00  0.00000000E+00
  0.00000000E+00  0.00000000E+00  0.00000000E+00  0.00000000E+00  0.00000000E+00
  0.00000000E+00
Integer atomic weights                     I   N=          21
          12          12          12          12          12          12
           1           1           1          16           1          16
          12           1           1           1          12           1
           1          16           1
Real atomic weights                        R   N=          21
  1.20000000E+01  1.20000000E+01  1.20000000E+01  1.20000000E+01  1.20000000E+01
  1.20000000E+01  1.00782504E+00  1.00782504E+00  1.00782504E+00  1.59949146E+01
  1.00782504E+00  1.59949146E+01  1.20000000E+01  1.00782504E+00  1.00782504E+00
  1.00782504E+00  1.20000000E+01  1.00782504E+00  1.00782504E+00  1.59949146E+01
  1.00782504E+00
Atom fragment info                         I   N=          21
           0           0           0           0           0           0
           0           0           0           0           0           0
           0           0           0           0           0           0
           0           0           0
Atom residue num                           I   N=          21
           0           0           0           0           0           0
           0           0           0           0           0           0
           0           0           0           0           0           0
           0           0           0
Nuclear spins                              I   N=          21
           0           0           0           0           0           0
           1           1           1           0           1           0
           0           1           1           1           0           1
           1           0           1
Nuclear ZEff                               R   N=          21
 -3.60000000E+00 -3.60000000E+00 -3.60000000E+00 -3.60000000E+00 -3.60000000E+00
 -3.60000000E+00 -1.00000000E+00 -1.00000000E+00 -1.00000000E+00 -5.60000000E+00
 -1.00000000E+00 -5.60000000E+00 -3.60000000E+00 -1.00000000E+00 -1.00000000E+00
 -1.00000000E+00 -3.60000000E+00 -1.00000000E+00 -1.00000000E+00 -5.60000000E+00
 -1.00000000E+00
Nuclear ZNuc                               R   N=          21
  6.00000000E+00  6.00000000E+00  6.00000000E+00  6.00000000E+00  6.00000000E+00
  6.00000000E+00  1.00000000E+00  1.00000000E+00  1.00000000E+00  8.00000000E+00
  1.00000000E+00  8.00000000E+00  6.00000000E+00  1.00000000E+00  1.00000000E+00
  1.00000000E+00  6.00000000E+00  1.00000000E+00  1.00000000E+00  8.00000000E+00
  1.00000000E+00
Nuclear QMom                               R   N=          21
  0.00000000E+00  0.00000000E+00  0.00000000E+00  0.00000000E+00  0.00000000E+00
  0.00000000E+00  0.00000000E+00  0.00000000E+00  0.00000000E+00  0.00000000E+00
  0.00000000E+00  0.00000000E+00  0.00000000E+00  0.00000000E+00  0.00000000E+00
  0.00000000E+00  0.00000000E+00  0.00000000E+00  0.00000000E+00  0.00000000E+00
  0.00000000E+00
Nuclear GFac                               R   N=          21
  0.00000000E+00  0.00000000E+00  0.00000000E+00  0.00000000E+00  0.00000000E+00
  0.00000000E+00  2.79284600E+00  2.79284600E+00  2.79284600E+00  0.00000000E+00
  2.79284600E+00  0.00000000E+00  0.00000000E+00  2.79284600E+00  2.79284600E+00
  2.79284600E+00  0.00000000E+00  2.79284600E+00  2.79284600E+00  0.00000000E+00
  2.79284600E+00
MicOpt                                     I   N=          21
          -1          -1          -1          -1          -1          -1
          -1          -1          -1          -1          -1          -1
          -1          -1          -1          -1          -1          -1
          -1          -1          -1
Number of residues                         I                0
Number of secondary structures             I                0
SymInf integers                            I   N=          26
           1           1           1           1           1           0
           0           0           0           0           0           0
           0           0           0           0           0           0
           0           0           0           0           0           0
           0           0
RotTr to input orientation                 R   N=          12
  1.00000000E+00 -9.47416211E-08  0.00000000E+00  9.47416211E-08  1.00000000E+00
  0.00000000E+00  0.00000000E+00  0.00000000E+00  1.00000000E+00  9.21817620E-08
 -2.30454407E-08  6.91363216E-08
Number of contracted shells                I               95
Number of primitive shells                 I              192
Pure/Cartesian d shells                    I                0
Pure/Cartesian f shells                    I                0
Highest angular momentum                   I                2
Largest degree of contraction              I                6
Shell types                                I   N=          95
           0          -1          -1          -1          -2           0
          -1          -1          -1          -2           0          -1
          -1          -1          -2           0          -1          -1
          -1          -2           0          -1          -1          -1
          -2           0          -1          -1          -1          -2
           0           0           0           1           0           0
           0           1           0           0           0           1
           0          -1          -1          -1          -2           0
           0           0           1           0          -1          -1
          -1          -2           0          -1          -1          -1
          -2           0           0           0           1           0
           0           0           1           0           0           0
           1           0          -1          -1          -1          -2
           0           0           0           1           0           0
           0           1           0          -1          -1          -1
          -2           0           0           0           1
Number of primitives per shell             I   N=          95
           6           3           1           1           1           6
           3           1           1           1           6           3
           1           1           1           6           3           1
           1           1           6           3           1           1
           1           6           3           1           1           1
           3           1           1           1           3           1
           1           1           3           1           1           1
           6           3           1           1           1           3
           1           1           1           6           3           1
           1           1           6           3           1           1
           1           3           1           1           1           3
           1           1           1           3           1           1
           1           6           3           1           1           1
           3           1           1           1           3           1
           1           1           6           3           1           1
           1           3           1           1           1
Shell to atom map                          I   N=          95
           1           1           1           1           1           2
           2           2           2           2           3           3
           3           3           3           4           4           4
           4           4           5           5           5           5
           5           6           6           6           6           6
           7           7           7           7           8           8
           8           8           9           9           9           9
          10          10          10          10          10          11
          11          11          11          12          12          12
          12          12          13          13          13          13
          13          14          14          14          14          15
          15          15          15          16          16          16
          16          17          17          17          17          17
          18          18          18          18          19          19
          19          19          20          20          20          20
          20          21          21          21          21
Primitive exponents                        R   N=         192
  4.56324000E+03  6.82024000E+02  1.54973000E+02  4.44553000E+01  1.30290000E+01
  1.82773000E+00  2.09642000E+01  4.80331000E+00  1.45933000E+00  4.83456000E-01
  1.45585000E-01  6.26000000E-01  4.56324000E+03  6.82024000E+02  1.54973000E+02
  4.44553000E+01  1.30290000E+01  1.82773000E+00  2.09642000E+01  4.80331000E+00
  1.45933000E+00  4.83456000E-01  1.45585000E-01  6.26000000E-01  4.56324000E+03
  6.82024000E+02  1.54973000E+02  4.44553000E+01  1.30290000E+01  1.82773000E+00
  2.09642000E+01  4.80331000E+00  1.45933000E+00  4.83456000E-01  1.45585000E-01
  6.26000000E-01  4.56324000E+03  6.82024000E+02  1.54973000E+02  4.44553000E+01
  1.30290000E+01  1.82773000E+00  2.09642000E+01  4.80331000E+00  1.45933000E+00
  4.83456000E-01  1.45585000E-01  6.26000000E-01  4.56324000E+03  6.82024000E+02
  1.54973000E+02  4.44553000E+01  1.30290000E+01  1.82773000E+00  2.09642000E+01
  4.80331000E+00  1.45933000E+00  4.83456000E-01  1.45585000E-01  6.26000000E-01
  4.56324000E+03  6.82024000E+02  1.54973000E+02  4.44553000E+01  1.30290000E+01
  1.82773000E+00  2.09642000E+01  4.80331000E+00  1.45933000E+00  4.83456000E-01
  1.45585000E-01  6.26000000E-01  3.38650000E+01  5.09479000E+00  1.15879000E+00
  3.25840000E-01  1.02741000E-01  7.50000000E-01  3.38650000E+01  5.09479000E+00
  1.15879000E+00  3.25840000E-01  1.02741000E-01  7.50000000E-01  3.38650000E+01
  5.09479000E+00  1.15879000E+00  3.25840000E-01  1.02741000E-01  7.50000000E-01
  8.58850000E+03  1.29723000E+03  2.99296000E+02  8.73771000E+01  2.56789000E+01
  3.74004000E+00  4.21175000E+01  9.62837000E+00  2.85332000E+00  9.05661000E-01
  2.55611000E-01  1.29200000E+00  3.38650000E+01  5.09479000E+00  1.15879000E+00
  3.25840000E-01  1.02741000E-01  7.50000000E-01  8.58850000E+03  1.29723000E+03
  2.99296000E+02  8.73771000E+01  2.56789000E+01  3.74004000E+00  4.21175000E+01
  9.62837000E+00  2.85332000E+00  9.05661000E-01  2.55611000E-01  1.29200000E+00
  4.56324000E+03  6.82024000E+02  1.54973000E+02  4.44553000E+01  1.30290000E+01
  1.82773000E+00  2.09642000E+01  4.80331000E+00  1.45933000E+00  4.83456000E-01
  1.45585000E-01  6.26000000E-01  3.38650000E+01  5.09479000E+00  1.15879000E+00
  3.25840000E-01  1.02741000E-01  7.50000000E-01  3.38650000E+01  5.09479000E+00
  1.15879000E+00  3.25840000E-01  1.02741000E-01  7.50000000E-01  3.38650000E+01
  5.09479000E+00  1.15879000E+00  3.25840000E-01  1.02741000E-01  7.50000000E-01
  4.56324000E+03  6.82024000E+02  1.54973000E+02  4.44553000E+01  1.30290000E+01
  1.82773000E+00  2.09642000E+01  4.80331000E+00  1.45933000E+00  4.83456000E-01
  1.45585000E-01  6.26000000E-01  3.38650000E+01  5.09479000E+00  1.15879000E+00
  3.25840000E-01  1.02741000E-01  7.50000000E-01  3.38650000E+01  5.09479000E+00
  1.15879000E+00  3.25840000E-01  1.02741000E-01  7.50000000E-01  8.58850000E+03
  1.29723000E+03  2.99296000E+02  8.73771000E+01  2.56789000E+01  3.74004000E+00
  4.21175000E+01  9.62837000E+00  2.85332000E+00  9.05661000E-01  2.55611000E-01
  1.29200000E+00  3.38650000E+01  5.09479000E+00  1.15879000E+00  3.25840000E-01
  1.02741000E-01  7.50000000E-01
Contraction coefficients                   R   N=         192
  1.96665025E-03  1.52306019E-02  7.61269097E-02  2.60801033E-01  6.16462078E-01
  2.21006028E-01  1.14660081E-01  9.19999648E-01 -3.03068213E-03  1.00000000E+00
  1.00000000E+00  1.00000000E+00  1.96665025E-03  1.52306019E-02  7.61269097E-02
  2.60801033E-01  6.16462078E-01  2.21006028E-01  1.14660081E-01  9.19999648E-01
 -3.03068213E-03  1.00000000E+00  1.00000000E+00  1.00000000E+00  1.96665025E-03
  1.52306019E-02  7.61269097E-02  2.60801033E-01  6.16462078E-01  2.21006028E-01
  1.14660081E-01  9.19999648E-01 -3.03068213E-03  1.00000000E+00  1.00000000E+00
  1.00000000E+00  1.96665025E-03  1.52306019E-02  7.61269097E-02  2.60801033E-01
  6.16462078E-01  2.21006028E-01  1.14660081E-01  9.19999648E-01 -3.03068213E-03
  1.00000000E+00  1.00000000E+00  1.00000000E+00  1.96665025E-03  1.52306019E-02
  7.61269097E-02  2.60801033E-01  6.16462078E-01  2.21006028E-01  1.14660081E-01
  9.19999648E-01 -3.03068213E-03  1.00000000E+00  1.00000000E+00  1.00000000E+00
  1.96665025E-03  1.52306019E-02  7.61269097E-02  2.60801033E-01  6.16462078E-01
  2.21006028E-01  1.14660081E-01  9.19999648E-01 -3.03068213E-03  1.00000000E+00
  1.00000000E+00  1.00000000E+00  2.54938145E-02  1.90373109E-01  8.52161486E-01
  1.00000000E+00  1.00000000E+00  1.00000000E+00  2.54938145E-02  1.90373109E-01
  8.52161486E-01  1.00000000E+00  1.00000000E+00  1.00000000E+00  2.54938145E-02
  1.90373109E-01  8.52161486E-01  1.00000000E+00  1.00000000E+00  1.00000000E+00
  1.89515008E-03  1.43859006E-02  7.07320031E-02  2.40001011E-01  5.94797026E-01
  2.80802012E-01  1.13889012E-01  9.20811101E-01 -3.27447036E-03  1.00000000E+00
  1.00000000E+00  1.00000000E+00  2.54938145E-02  1.90373109E-01  8.52161486E-01
  1.00000000E+00  1.00000000E+00  1.00000000E+00  1.89515008E-03  1.43859006E-02
  7.07320031E-02  2.40001011E-01  5.94797026E-01  2.80802012E-01  1.13889012E-01
  9.20811101E-01 -3.27447036E-03  1.00000000E+00  1.00000000E+00  1.00000000E+00
  1.96665025E-03  1.52306019E-02  7.61269097E-02  2.60801033E-01  6.16462078E-01
  2.21006028E-01  1.14660081E-01  9.19999648E-01 -3.03068213E-03  1.00000000E+00
  1.00000000E+00  1.00000000E+00  2.54938145E-02  1.90373109E-01  8.52161486E-01
  1.00000000E+00  1.00000000E+00  1.00000000E+00  2.54938145E-02  1.90373109E-01
  8.52161486E-01  1.00000000E+00  1.00000000E+00  1.00000000E+00  2.54938145E-02
  1.90373109E-01  8.52161486E-01  1.00000000E+00  1.00000000E+00  1.00000000E+00
  1.96665025E-03  1.52306019E-02  7.61269097E-02  2.60801033E-01  6.16462078E-01
  2.21006028E-01  1.14660081E-01  9.19999648E-01 -3.03068213E-03  1.00000000E+00
  1.00000000E+00  1.00000000E+00  2.54938145E-02  1.90373109E-01  8.52161486E-01
  1.00000000E+00  1.00000000E+00  1.00000000E+00  2.54938145E-02  1.90373109E-01
  8.52161486E-01  1.00000000E+00  1.00000000E+00  1.00000000E+00  1.89515008E-03
  1.43859006E-02  7.07320031E-02  2.40001011E-01  5.94797026E-01  2.80802012E-01
  1.13889012E-01  9.20811101E-01 -3.27447036E-03  1.00000000E+00  1.00000000E+00
  1.00000000E+00  2.54938145E-02  1.90373109E-01  8.52161486E-01  1.00000000E+00
  1.00000000E+00  1.00000000E+00
P(S=P) Contraction coefficients            R   N=         192
  0.00000000E+00  0.00000000E+00  0.00000000E+00  0.00000000E+00  0.00000000E+00
  0.00000000E+00  4.02486927E-02  2.37593957E-01  8.15853851E-01  1.00000000E+00
  1.00000000E+00  0.00000000E+00  0.00000000E+00  0.00000000E+00  0.00000000E+00
  0.00000000E+00  0.00000000E+00  0.00000000E+00  4.02486927E-02  2.37593957E-01
  8.15853851E-01  1.00000000E+00  1.00000000E+00  0.00000000E+00  0.00000000E+00
  0.00000000E+00  0.00000000E+00  0.00000000E+00  0.00000000E+00  0.00000000E+00
  4.02486927E-02  2.37593957E-01  8.15853851E-01  1.00000000E+00  1.00000000E+00
  0.00000000E+00  0.00000000E+00  0.00000000E+00  0.00000000E+00  0.00000000E+00
  0.00000000E+00  0.00000000E+00  4.02486927E-02  2.37593957E-01  8.15853851E-01
  1.00000000E+00  1.00000000E+00  0.00000000E+00  0.00000000E+00  0.00000000E+00
  0.00000000E+00  0.00000000E+00  0.00000000E+00  0.00000000E+00  4.02486927E-02
  2.37593957E-01  8.15853851E-01  1.00000000E+00  1.00000000E+00  0.00000000E+00
  0.00000000E+00  0.00000000E+00  0.00000000E+00  0.00000000E+00  0.00000000E+00
  0.00000000E+00  4.02486927E-02  2.37593957E-01  8.15853851E-01  1.00000000E+00
  1.00000000E+00  0.00000000E+00  0.00000000E+00  0.00000000E+00  0.00000000E+00
  0.00000000E+00  0.00000000E+00  0.00000000E+00  0.00000000E+00  0.00000000E+00
  0.00000000E+00  0.00000000E+00  0.00000000E+00  0.00000000E+00  0.00000000E+00
  0.00000000E+00  0.00000000E+00  0.00000000E+00  0.00000000E+00  0.00000000E+00
  0.00000000E+00  0.00000000E+00  0.00000000E+00  0.00000000E+00  0.00000000E+00
  0.00000000E+00  3.65113974E-02  2.37152983E-01  8.19701941E-01  1.00000000E+00
  1.00000000E+00  0.00000000E+00  0.00000000E+00  0.00000000E+00  0.00000000E+00
  0.00000000E+00  0.00000000E+00  0.00000000E+00  0.00000000E+00  0.00000000E+00
  0.00000000E+00  0.00000000E+00  0.00000000E+00  0.00000000E+00  3.65113974E-02
  2.37152983E-01  8.19701941E-01  1.00000000E+00  1.00000000E+00  0.00000000E+00
  0.00000000E+00  0.00000000E+00  0.00000000E+00  0.00000000E+00  0.00000000E+00
  0.00000000E+00  4.02486927E-02  2.37593957E-01  8.15853851E-01  1.00000000E+00
  1.00000000E+00  0.00000000E+00  0.00000000E+00  0.00000000E+00  0.00000000E+00
  0.00000000E+00  0.00000000E+00  0.00000000E+00  0.00000000E+00  0.00000000E+00
  0.00000000E+00  0.00000000E+00  0.00000000E+00  0.00000000E+00  0.00000000E+00
  0.00000000E+00  0.00000000E+00  0.00000000E+00  0.00000000E+00  0.00000000E+00
  0.00000000E+00  0.00000000E+00  0.00000000E+00  0.00000000E+00  0.00000000E+00
  0.00000000E+00  4.02486927E-02  2.37593957E-01  8.15853851E-01  1.00000000E+00
  1.00000000E+00  0.00000000E+00  0.00000000E+00  0.00000000E+00  0.00000000E+00
  0.00000000E+00  0.00000000E+00  0.00000000E+00  0.00000000E+00  0.00000000E+00
  0.00000000E+00  0.00000000E+00  0.00000000E+00  0.00000000E+00  0.00000000E+00
  0.00000000E+00  0.00000000E+00  0.00000000E+00  0.00000000E+00  0.00000000E+00
  3.65113974E-02  2.37152983E-01  8.19701941E-01  1.00000000E+00  1.00000000E+00
  0.00000000E+00  0.00000000E+00  0.00000000E+00  0.00000000E+00  0.00000000E+00
  0.00000000E+00  0.00000000E+00
Coordinates of each shell                  R   N=         285
 -1.75215042E+00  5.11422107E-01  5.65858899E-02 -1.75215042E+00  5.11422107E-01
  5.65858899E-02 -1.75215042E+00  5.11422107E-01  5.65858899E-02 -1.75215042E+00
  5.11422107E-01  5.65858899E-02 -1.75215042E+00  5.11422107E-01  5.65858899E-02
  7.87074511E-01  1.12739370E+00  2.51452558E-01  7.87074511E-01  1.12739370E+00
  2.51452558E-01  7.87074511E-01  1.12739370E+00  2.51452558E-01  7.87074511E-01
  1.12739370E+00  2.51452558E-01  7.87074511E-01  1.12739370E+00  2.51452558E-01
  2.62508468E+00 -7.85573996E-01  2.89613688E-01  2.62508468E+00 -7.85573996E-01
  2.89613688E-01  2.62508468E+00 -7.85573996E-01  2.89613688E-01  2.62508468E+00
 -7.85573996E-01  2.89613688E-01  2.62508468E+00 -7.85573996E-01  2.89613688E-01
  1.86105731E+00 -3.29557823E+00  1.16514775E-01  1.86105731E+00 -3.29557823E+00
  1.16514775E-01  1.86105731E+00 -3.29557823E+00  1.16514775E-01  1.86105731E+00
 -3.29557823E+00  1.16514775E-01  1.86105731E+00 -3.29557823E+00  1.16514775E-01
 -6.96048213E-01 -3.92355147E+00 -6.86746062E-02 -6.96048213E-01 -3.92355147E+00
 -6.86746062E-02 -6.96048213E-01 -3.92355147E+00 -6.86746062E-02 -6.96048213E-01
 -3.92355147E+00 -6.86746062E-02 -6.96048213E-01 -3.92355147E+00 -6.86746062E-02
 -2.51291613E+00 -2.03655806E+00 -9.79634714E-02 -2.51291613E+00 -2.03655806E+00
 -9.79634714E-02 -2.51291613E+00 -2.03655806E+00 -9.79634714E-02 -2.51291613E+00
 -2.03655806E+00 -9.79634714E-02 -2.51291613E+00 -2.03655806E+00 -9.79634714E-02
  1.39877111E+00  3.07615114E+00  3.50134056E-01  1.39877111E+00  3.07615114E+00
  3.50134056E-01  1.39877111E+00  3.07615114E+00  3.50134056E-01  1.39877111E+00
  3.07615114E+00  3.50134056E-01  3.26364431E+00 -4.79105255E+00  1.21779552E-01
  3.26364431E+00 -4.79105255E+00  1.21779552E-01  3.26364431E+00 -4.79105255E+00
  1.21779552E-01  3.26364431E+00 -4.79105255E+00  1.21779552E-01 -1.30880684E+00
 -5.87190640E+00 -2.08552134E-01 -1.30880684E+00 -5.87190640E+00 -2.08552134E-01
 -1.30880684E+00 -5.87190640E+00 -2.08552134E-01 -1.30880684E+00 -5.87190640E+00
 -2.08552134E-01 -5.00755486E+00 -2.63027056E+00 -2.91526229E-01 -5.00755486E+00
 -2.63027056E+00 -2.91526229E-01 -5.00755486E+00 -2.63027056E+00 -2.91526229E-01
 -5.00755486E+00 -2.63027056E+00 -2.91526229E-01 -5.00755486E+00 -2.63027056E+00
 -2.91526229E-01 -5.93539731E+00 -1.05696782E+00 -2.84131730E-01 -5.93539731E+00
 -1.05696782E+00 -2.84131730E-01 -5.93539731E+00 -1.05696782E+00 -2.84131730E-01
 -5.93539731E+00 -1.05696782E+00 -2.84131730E-01 -3.73002865E+00  2.19187977E+00
 -9.67168744E-03 -3.73002865E+00  2.19187977E+00 -9.67168744E-03 -3.73002865E+00
  2.19187977E+00 -9.67168744E-03 -3.73002865E+00  2.19187977E+00 -9.67168744E-03
 -3.73002865E+00  2.19187977E+00 -9.67168744E-03 -3.18126188E+00  4.81594974E+00
  1.75430766E-01 -3.18126188E+00  4.81594974E+00  1.75430766E-01 -3.18126188E+00
  4.81594974E+00  1.75430766E-01 -3.18126188E+00  4.81594974E+00  1.75430766E-01
 -3.18126188E+00  4.81594974E+00  1.75430766E-01 -2.00304983E+00  5.44733948E+00
 -1.40412327E+00 -2.00304983E+00  5.44733948E+00 -1.40412327E+00 -2.00304983E+00
  5.44733948E+00 -1.40412327E+00 -2.00304983E+00  5.44733948E+00 -1.40412327E+00
 -4.99582235E+00  5.78301314E+00  1.05448538E-01 -4.99582235E+00  5.78301314E+00
  1.05448538E-01 -4.99582235E+00  5.78301314E+00  1.05448538E-01 -4.99582235E+00
  5.78301314E+00  1.05448538E-01 -2.23207895E+00  5.25684561E+00  1.96044717E+00
 -2.23207895E+00  5.25684561E+00  1.96044717E+00 -2.23207895E+00  5.25684561E+00
  1.96044717E+00 -2.23207895E+00  5.25684561E+00  1.96044717E+00  5.38277329E+00
 -8.48651775E-02  5.81321261E-01  5.38277329E+00 -8.48651775E-02  5.81321261E-01
  5.38277329E+00 -8.48651775E-02  5.81321261E-01  5.38277329E+00 -8.48651775E-02
  5.81321261E-01  5.38277329E+00 -8.48651775E-02  5.81321261E-01  5.81711168E+00
  3.42413279E-01  2.55743433E+00  5.81711168E+00  3.42413279E-01  2.55743433E+00
  5.81711168E+00  3.42413279E-01  2.55743433E+00  5.81711168E+00  3.42413279E-01
  2.55743433E+00  6.56905279E+00 -1.69605123E+00  2.92169865E-02  6.56905279E+00
 -1.69605123E+00  2.92169865E-02  6.56905279E+00 -1.69605123E+00  2.92169865E-02
  6.56905279E+00 -1.69605123E+00  2.92169865E-02  6.07449221E+00  2.14638366E+00
 -7.66064804E-01  6.07449221E+00  2.14638366E+00 -7.66064804E-01  6.07449221E+00
  2.14638366E+00 -7.66064804E-01  6.07449221E+00  2.14638366E+00 -7.66064804E-01
  6.07449221E+00  2.14638366E+00 -7.66064804E-01  5.64962700E+00  1.87444069E+00
 -2.51523688E+00  5.64962700E+00  1.87444069E+00 -2.51523688E+00  5.64962700E+00
  1.87444069E+00 -2.51523688E+00  5.64962700E+00  1.87444069E+00 -2.51523688E+00
Num ILSW                                   I              100
ILSW                                       I   N=         100
           0           0           0           0           2           0
           0           0           0           0         402          -1
           5           0           0           0           0           0
           0           0           1           0           0           0
           1           0           0           0           0           0
           0           0      100000           0          -1           0
           0           0           0           0           0           0
           0           0           0           1           0           0
           0 -2000000000           1           0           0           0
           0           0           4          52           0           0
           0           0           5           0           0           0
           0           0           0           0           0           1
           0           0           0           0           0           0
           0           0           0           0           0           0
           0           0           0           0           0           0
           0           0           0           0           0           0
           0           0           0           0
Num RLSW                                   I               52
RLSW                                       R   N=          52
  8.00000000E-01  7.20000000E-01  1.00000000E+00  8.10000000E-01  2.00000000E-01
  0.00000000E+00  0.00000000E+00  1.00000000E+00  0.00000000E+00  0.00000000E+00
  0.00000000E+00  0.00000000E+00  1.00000000E+00  0.00000000E+00  0.00000000E+00
  0.00000000E+00  0.00000000E+00  1.00000000E+00  0.00000000E+00  0.00000000E+00
  0.00000000E+00  0.00000000E+00  1.00000000E+00  0.00000000E+00  0.00000000E+00
  0.00000000E+00  0.00000000E+00  1.00000000E+00  0.00000000E+00  0.00000000E+00
  0.00000000E+00  0.00000000E+00  1.00000000E+00  0.00000000E+00  0.00000000E+00
  0.00000000E+00  0.00000000E+00  0.00000000E+00  1.00000000E+00  1.00000000E+00
  0.00000000E+00  1.00000000E+00  0.00000000E+00  0.00000000E+00  0.00000000E+00
  0.00000000E+00  0.00000000E+00  0.00000000E+00  0.00000000E+00  0.00000000E+00
  0.00000000E+00  0.00000000E+00
MxBond                                     I                4
NBond                                      I   N=          21
           3           3           3           3           3           3
           1           1           1           2           1           2
           4           1           1           1           4           1
           1           2           1
IBond                                      I   N=          84
           2           6          12           0           1           3
           7           0           2           4          17           0
           3           5           8           0           4           6
           9           0           1           5          10           0
           2           0           0           0           4           0
           0           0           5           0           0           0
           6          11           0           0          10           0