 Entering Gaussian System, Link 0=g09
 Input=1.gjf
 Output=1.log
 Initial command:
 /home/t1000003974/apps//g09/l1.exe "/home/t1000003974/tmp/Gau-23304.inp" -scrdir="/home/t1000003974/tmp/"
 Entering Link 1 = /home/t1000003974/apps//g09/l1.exe PID=     23305.
  
 Copyright (c) 1988,1990,1992,1993,1995,1998,2003,2009,2015,
            Gaussian, Inc.  All Rights Reserved.
  
 This is part of the Gaussian(R) 09 program.  It is based on
 the Gaussian(R) 03 system (copyright 2003, Gaussian, Inc.),
 the Gaussian(R) 98 system (copyright 1998, Gaussian, Inc.),
 the Gaussian(R) 94 system (copyright 1995, Gaussian, Inc.),
 the Gaussian 92(TM) system (copyright 1992, Gaussian, Inc.),
 the Gaussian 90(TM) system (copyright 1990, Gaussian, Inc.),
 the Gaussian 88(TM) system (copyright 1988, Gaussian, Inc.),
 the Gaussian 86(TM) system (copyright 1986, Carnegie Mellon
 University), and the Gaussian 82(TM) system (copyright 1983,
 Carnegie Mellon University). Gaussian is a federally registered
 trademark of Gaussian, Inc.
  
 This software contains proprietary and confidential information,
 including trade secrets, belonging to Gaussian, Inc.
  
 This software is provided under written license and may be
 used, copied, transmitted, or stored only in accord with that
 written license.
  
 The following legend is applicable only to US Government
 contracts under FAR:
  
                    RESTRICTED RIGHTS LEGEND
  
 Use, reproduction and disclosure by the US Government is
 subject to restrictions as set forth in subparagraphs (a)
 and (c) of the Commercial Computer Software - Restricted
 Rights clause in FAR 52.227-19.
  
 Gaussian, Inc.
 340 Quinnipiac St., Bldg. 40, Wallingford CT 06492
  
  
 ---------------------------------------------------------------
 Warning -- This program may not be used in any manner that
 competes with the business of Gaussian, Inc. or will provide
 assistance to any competitor of Gaussian, Inc.  The licensee
 of this program is prohibited from giving any competitor of
 Gaussian, Inc. access to this program.  By using this program,
 the user acknowledges that Gaussian, Inc. is engaged in the
 business of creating and licensing software in the field of
 computational chemistry and represents and warrants to the
 licensee that it is not a competitor of Gaussian, Inc. and that
 it will not use this program in any manner prohibited above.
 ---------------------------------------------------------------
  

 Cite this work as:
 Gaussian 09, Revision E.01,
 M. J. Frisch, G. W. Trucks, H. B. Schlegel, G. E. Scuseria, 
 M. A. Robb, J. R. Cheeseman, G. Scalmani, V. Barone, B. Mennucci, 
 G. A. Petersson, H. Nakatsuji, M. Caricato, X. Li, H. P. Hratchian, 
 A. F. Izmaylov, J. Bloino, G. Zheng, J. L. Sonnenberg, M. Hada, 
 M. Ehara, K. Toyota, R. Fukuda, J. Hasegawa, M. Ishida, T. Nakajima, 
 Y. Honda, O. Kitao, H. Nakai, T. Vreven, J. A. Montgomery, Jr., 
 J. E. Peralta, F. Ogliaro, M. Bearpark, J. J. Heyd, E. Brothers, 
 K. N. Kudin, V. N. Staroverov, T. Keith, R. Kobayashi, J. Normand, 
 K. Raghavachari, A. Rendell, J. C. Burant, S. S. Iyengar, J. Tomasi, 
 M. Cossi, N. Rega, J. M. Millam, M. Klene, J. E. Knox, J. B. Cross, 
 V. Bakken, C. Adamo, J. Jaramillo, R. Gomperts, R. E. Stratmann, 
 O. Yazyev, A. J. Austin, R. Cammi, C. Pomelli, J. W. Ochterski, 
 R. L. Martin, K. Morokuma, V. G. Zakrzewski, G. A. Voth, 
 P. Salvador, J. J. Dannenberg, S. Dapprich, A. D. Daniels, 
 O. Farkas, J. B. Foresman, J. V. Ortiz, J. Cioslowski, 
 and D. J. Fox, Gaussian, Inc., Wallingford CT, 2013.
 
 ******************************************
 Gaussian 09:  ES64L-G09RevE.01 30-Nov-2015
                 4-Jul-2022 
 ******************************************
 %nprocshared=60
 Will use up to   60 processors via shared memory.
 %mem=120GB
 %chk=1.chk
 ----------------------------------------------------------------------
 # opt freq b3lyp/6-311g(d,p) pop=nbo geom=connectivity temperature=823
 .15
 ----------------------------------------------------------------------
 1/14=-1,18=20,19=15,26=3,38=1,57=2,112=823150/1,3;
 2/9=110,12=2,17=6,18=5,40=1/2;
 3/5=4,6=6,7=101,11=2,16=1,25=1,30=1,71=1,74=-5/1,2,3;
 4//1;
 5/5=2,38=5/2;
 6/7=2,8=2,9=2,10=2,28=1,40=1/1,7;
 7//1,2,3,16;
 1/14=-1,18=20,19=15,26=3/3(2);
 2/9=110/2;
 99//99;
 2/9=110/2;
 3/5=4,6=6,7=101,11=2,16=1,25=1,30=1,71=1,74=-5/1,2,3;
 4/5=5,16=3,69=1/1;
 5/5=2,38=5/2;
 7//1,2,3,16;
 1/14=-1,18=20,19=15,26=3/3(-5);
 2/9=110/2;
 6/7=2,8=2,9=2,10=2,19=2,28=1,40=1/1,7;
 99/9=1/99;
 ---------------------
 Generated by Multiwfn
 ---------------------
 Symbolic Z-matrix:
 Charge =  0 Multiplicity = 1
 C                    -0.92737   0.27024   0.03118 
 C                     0.41585   0.59759   0.13584 
 C                     1.38955  -0.41385   0.15598 
 C                     0.9865   -1.74239   0.06298 
 C                    -0.36622  -2.07606  -0.03694 
 C                    -1.32852  -1.07845  -0.0526 
 H                     0.73807   1.62925   0.18902 
 H                     1.72942  -2.53311   0.06617 
 H                    -0.68936  -3.10734  -0.11206 
 O                    -2.6482   -1.39388  -0.15656 
 H                    -3.14021  -0.56193  -0.15186 
 O                    -1.97514   1.15812  -0.00331 
 C                    -1.68646   2.54737   0.09171 
 H                    -1.0653    2.88094  -0.7461 
 H                    -2.64748   3.05766   0.05605 
 H                    -1.18227   2.78293   1.03469 
 C                     2.84831  -0.04143   0.30982 
 H                     3.07709   0.19191   1.35415 
 H                     3.47671  -0.89566   0.02392 
 O                     3.21403   1.13479  -0.41094 
 H                     2.98801   0.98496  -1.33535 
 

 GradGradGradGradGradGradGradGradGradGradGradGradGradGradGradGradGradGrad
 Berny optimization.
 Initialization pass.
                           ----------------------------
                           !    Initial Parameters    !
                           ! (Angstroms and Degrees)  !
 --------------------------                            --------------------------
 ! Name  Definition              Value          Derivative Info.                !
 --------------------------------------------------------------------------------
 ! R1    R(1,2)                  1.3865         estimate D2E/DX2                !
 ! R2    R(1,6)                  1.4096         estimate D2E/DX2                !
 ! R3    R(1,12)                 1.3738         estimate D2E/DX2                !
 ! R4    R(2,3)                  1.4041         estimate D2E/DX2                !
 ! R5    R(2,7)                  1.0821         estimate D2E/DX2                !
 ! R6    R(3,4)                  1.3914         estimate D2E/DX2                !
 ! R7    R(3,17)                 1.5134         estimate D2E/DX2                !
 ! R8    R(4,5)                  1.3968         estimate D2E/DX2                !
 ! R9    R(4,8)                  1.085          estimate D2E/DX2                !
 ! R10   R(5,6)                  1.3862         estimate D2E/DX2                !
 ! R11   R(5,9)                  1.0833         estimate D2E/DX2                !
 ! R12   R(6,10)                 1.3608         estimate D2E/DX2                !
 ! R13   R(10,11)                0.9666         estimate D2E/DX2                !
 ! R14   R(12,13)                1.4221         estimate D2E/DX2                !
 ! R15   R(13,14)                1.095          estimate D2E/DX2                !
 ! R16   R(13,15)                1.0887         estimate D2E/DX2                !
 ! R17   R(13,16)                1.0949         estimate D2E/DX2                !
 ! R18   R(17,18)                1.0943         estimate D2E/DX2                !
 ! R19   R(17,19)                1.0983         estimate D2E/DX2                !
 ! R20   R(17,20)                1.4272         estimate D2E/DX2                !
 ! R21   R(20,21)                0.9634         estimate D2E/DX2                !
 ! A1    A(2,1,6)              120.4041         estimate D2E/DX2                !
 ! A2    A(2,1,12)             126.028          estimate D2E/DX2                !
 ! A3    A(6,1,12)             113.5678         estimate D2E/DX2                !
 ! A4    A(1,2,3)              120.1876         estimate D2E/DX2                !
 ! A5    A(1,2,7)              121.15           estimate D2E/DX2                !
 ! A6    A(3,2,7)              118.6565         estimate D2E/DX2                !
 ! A7    A(2,3,4)              119.0746         estimate D2E/DX2                !
 ! A8    A(2,3,17)             119.5132         estimate D2E/DX2                !
 ! A9    A(4,3,17)             121.397          estimate D2E/DX2                !
 ! A10   A(3,4,5)              120.8889         estimate D2E/DX2                !
 ! A11   A(3,4,8)              119.8219         estimate D2E/DX2                !
 ! A12   A(5,4,8)              119.2892         estimate D2E/DX2                !
 ! A13   A(4,5,6)              120.0781         estimate D2E/DX2                !
 ! A14   A(4,5,9)              121.4145         estimate D2E/DX2                !
 ! A15   A(6,5,9)              118.5053         estimate D2E/DX2                !
 ! A16   A(1,6,5)              119.3639         estimate D2E/DX2                !
 ! A17   A(1,6,10)             120.1524         estimate D2E/DX2                !
 ! A18   A(5,6,10)             120.4823         estimate D2E/DX2                !
 ! A19   A(6,10,11)            107.0832         estimate D2E/DX2                !
 ! A20   A(1,12,13)            118.3502         estimate D2E/DX2                !
 ! A21   A(12,13,14)           111.2003         estimate D2E/DX2                !
 ! A22   A(12,13,15)           106.0522         estimate D2E/DX2                !
 ! A23   A(12,13,16)           111.1732         estimate D2E/DX2                !
 ! A24   A(14,13,15)           109.4443         estimate D2E/DX2                !
 ! A25   A(14,13,16)           109.4016         estimate D2E/DX2                !
 ! A26   A(15,13,16)           109.5018         estimate D2E/DX2                !
 ! A27   A(3,17,18)            110.5497         estimate D2E/DX2                !
 ! A28   A(3,17,19)            109.4897         estimate D2E/DX2                !
 ! A29   A(3,17,20)            113.4839         estimate D2E/DX2                !
 ! A30   A(18,17,19)           107.1365         estimate D2E/DX2                !
 ! A31   A(18,17,20)           104.6352         estimate D2E/DX2                !
 ! A32   A(19,17,20)           111.2798         estimate D2E/DX2                !
 ! A33   A(17,20,21)           107.2359         estimate D2E/DX2                !
 ! D1    D(6,1,2,3)              0.156          estimate D2E/DX2                !
 ! D2    D(6,1,2,7)            179.2636         estimate D2E/DX2                !
 ! D3    D(12,1,2,3)          -179.8013         estimate D2E/DX2                !
 ! D4    D(12,1,2,7)            -0.6936         estimate D2E/DX2                !
 ! D5    D(2,1,6,5)             -0.3598         estimate D2E/DX2                !
 ! D6    D(2,1,6,10)          -179.9325         estimate D2E/DX2                !
 ! D7    D(12,1,6,5)           179.6025         estimate D2E/DX2                !
 ! D8    D(12,1,6,10)            0.0297         estimate D2E/DX2                !
 ! D9    D(2,1,12,13)           -0.827          estimate D2E/DX2                !
 ! D10   D(6,1,12,13)          179.2132         estimate D2E/DX2                !
 ! D11   D(1,2,3,4)              0.3141         estimate D2E/DX2                !
 ! D12   D(1,2,3,17)          -178.2907         estimate D2E/DX2                !
 ! D13   D(7,2,3,4)           -178.8156         estimate D2E/DX2                !
 ! D14   D(7,2,3,17)             2.5796         estimate D2E/DX2                !
 ! D15   D(2,3,4,5)             -0.587          estimate D2E/DX2                !
 ! D16   D(2,3,4,8)            179.3175         estimate D2E/DX2                !
 ! D17   D(17,3,4,5)           177.9906         estimate D2E/DX2                !
 ! D18   D(17,3,4,8)            -2.1049         estimate D2E/DX2                !
 ! D19   D(2,3,17,18)           78.1129         estimate D2E/DX2                !
 ! D20   D(2,3,17,19)         -164.0816         estimate D2E/DX2                !
 ! D21   D(2,3,17,20)          -39.0857         estimate D2E/DX2                !
 ! D22   D(4,3,17,18)         -100.4585         estimate D2E/DX2                !
 ! D23   D(4,3,17,19)           17.347          estimate D2E/DX2                !
 ! D24   D(4,3,17,20)          142.3428         estimate D2E/DX2                !
 ! D25   D(3,4,5,6)              0.3862         estimate D2E/DX2                !
 ! D26   D(3,4,5,9)            179.8583         estimate D2E/DX2                !
 ! D27   D(8,4,5,6)           -179.5188         estimate D2E/DX2                !
 ! D28   D(8,4,5,9)             -0.0467         estimate D2E/DX2                !
 ! D29   D(4,5,6,1)              0.0907         estimate D2E/DX2                !
 ! D30   D(4,5,6,10)           179.662          estimate D2E/DX2                !
 ! D31   D(9,5,6,1)           -179.3967         estimate D2E/DX2                !
 ! D32   D(9,5,6,10)             0.1747         estimate D2E/DX2                !
 ! D33   D(1,6,10,11)           -0.2423         estimate D2E/DX2                !
 ! D34   D(5,6,10,11)         -179.8102         estimate D2E/DX2                !
 ! D35   D(1,12,13,14)          61.7572         estimate D2E/DX2                !
 ! D36   D(1,12,13,15)        -179.3517         estimate D2E/DX2                !
 ! D37   D(1,12,13,16)         -60.4062         estimate D2E/DX2                !
 ! D38   D(3,17,20,21)         -56.7703         estimate D2E/DX2                !
 ! D39   D(18,17,20,21)       -177.3683         estimate D2E/DX2                !
 ! D40   D(19,17,20,21)         67.2581         estimate D2E/DX2                !
 --------------------------------------------------------------------------------
 Trust Radius=3.00D-01 FncErr=1.00D-07 GrdErr=1.00D-06
 Number of steps in this run=    104 maximum allowed number of steps=    126.
 GradGradGradGradGradGradGradGradGradGradGradGradGradGradGradGradGradGrad

                          Input orientation:                          
 ---------------------------------------------------------------------
 Center     Atomic      Atomic             Coordinates (Angstroms)
 Number     Number       Type             X           Y           Z
 ---------------------------------------------------------------------
      1          6           0       -0.927372    0.270242    0.031176
      2          6           0        0.415848    0.597593    0.135844
      3          6           0        1.389552   -0.413854    0.155984
      4          6           0        0.986499   -1.742387    0.062977
      5          6           0       -0.366215   -2.076058   -0.036941
      6          6           0       -1.328523   -1.078454   -0.052595
      7          1           0        0.738070    1.629245    0.189023
      8          1           0        1.729416   -2.533113    0.066169
      9          1           0       -0.689360   -3.107337   -0.112061
     10          8           0       -2.648201   -1.393880   -0.156559
     11          1           0       -3.140213   -0.561927   -0.151860
     12          8           0       -1.975144    1.158123   -0.003311
     13          6           0       -1.686457    2.547365    0.091710
     14          1           0       -1.065303    2.880944   -0.746102
     15          1           0       -2.647480    3.057661    0.056052
     16          1           0       -1.182269    2.782932    1.034693
     17          6           0        2.848308   -0.041431    0.309822
     18          1           0        3.077095    0.191909    1.354147
     19          1           0        3.476714   -0.895661    0.023921
     20          8           0        3.214030    1.134794   -0.410942
     21          1           0        2.988011    0.984959   -1.335350
 ---------------------------------------------------------------------
                    Distance matrix (angstroms):
                    1          2          3          4          5
     1  C    0.000000
     2  C    1.386490   0.000000
     3  C    2.419029   1.404112   0.000000
     4  C    2.777515   2.409659   1.391439   0.000000
     5  C    2.413433   2.791037   2.425461   1.396838   0.000000
     6  C    1.409582   2.426412   2.805910   2.411118   1.386180
     7  H    2.155343   1.082109   2.144708   3.383121   3.872954
     8  H    3.862453   3.395826   2.148216   1.084981   2.147371
     9  H    3.388983   3.874203   3.413001   2.168463   1.083329
    10  O    2.401208   3.666042   4.166723   3.657964   2.384772
    11  H    2.371218   3.751377   4.542627   4.297603   3.162414
    12  O    1.373808   2.459756   3.717212   4.145923   3.612438
    13  C    2.401076   2.867620   4.270220   5.054453   4.809951
    14  H    2.727444   2.861001   4.206634   5.122469   5.056036
    15  H    3.275530   3.929667   5.325320   6.020491   5.618531
    16  H    2.717652   2.852650   4.195931   5.111389   5.042234
    17  C    3.798755   2.521008   1.513385   2.533874   3.820093
    18  H    4.218074   2.954840   2.156466   3.127173   4.351458
    19  H    4.555805   3.407526   2.146118   2.630521   4.020590
    20  O    4.253719   2.901273   2.459357   3.669423   4.823650
    21  H    4.208139   2.988392   2.595347   3.660572   4.722978
                    6          7          8          9         10
     6  C    0.000000
     7  H    3.414794   0.000000
     8  H    3.388381   4.280547   0.000000
     9  H    2.128011   4.956149   2.492384   0.000000
    10  O    1.360828   4.552531   4.528906   2.602878   0.000000
    11  H    1.886498   4.467495   5.257984   3.533748   0.966563
    12  O    2.328696   2.760521   5.230088   4.456368   2.643711
    13  C    3.646300   2.594368   6.122099   5.745553   4.064480
    14  H    4.028284   2.386077   6.146727   6.033477   4.596439
    15  H    4.342683   3.676956   7.100287   6.470680   4.456615
    16  H    4.014211   2.394547   6.138101   6.021069   4.584081
    17  C    4.318875   2.694226   2.742219   4.700304   5.679634
    18  H    4.796062   2.982363   3.301647   5.217372   6.129924
    19  H    4.809321   3.728616   2.395012   4.718705   6.147795
    20  O    5.065735   2.595153   3.985631   5.772474   6.389417
    21  H    4.953342   2.793036   3.990632   5.636167   6.230193
                   11         12         13         14         15
    11  H    0.000000
    12  O    2.082792   0.000000
    13  C    3.440993   1.422098   0.000000
    14  H    4.063464   2.085105   1.095005   0.000000
    15  H    3.658884   2.015888   1.088687   1.782684   0.000000
    16  H    4.053336   2.084732   1.094949   1.787322   1.783272
    17  C    6.028802   4.980228   5.226235   4.997159   6.314464
    18  H    6.441370   5.319904   5.461991   5.366695   6.532101
    19  H    6.627669   5.825936   6.206235   5.956979   7.289413
    20  O    6.581975   5.205212   5.124723   4.634012   6.186501
    21  H    6.430290   5.141714   5.131107   4.513461   6.163672
                   16         17         18         19         20
    16  H    0.000000
    17  C    4.974738   0.000000
    18  H    4.995761   1.094260   0.000000
    19  H    6.021613   1.098336   1.764088   0.000000
    20  O    4.912603   1.427151   2.005822   2.093050   0.000000
    21  H    5.122601   1.944115   2.805398   2.371324   0.963361
                   21
    21  H    0.000000
 Stoichiometry    C8H10O3
 Framework group  C1[X(C8H10O3)]
 Deg. of freedom    57
 Full point group                 C1      NOp   1
 Largest Abelian subgroup         C1      NOp   1
 Largest concise Abelian subgroup C1      NOp   1
                         Standard orientation:                         
 ---------------------------------------------------------------------
 Center     Atomic      Atomic             Coordinates (Angstroms)
 Number     Number       Type             X           Y           Z
 ---------------------------------------------------------------------
      1          6           0       -0.927372    0.270242    0.031176
      2          6           0        0.415848    0.597593    0.135844
      3          6           0        1.389552   -0.413854    0.155984
      4          6           0        0.986499   -1.742387    0.062977
      5          6           0       -0.366215   -2.076058   -0.036941
      6          6           0       -1.328523   -1.078454   -0.052595
      7          1           0        0.738070    1.629245    0.189023
      8          1           0        1.729416   -2.533113    0.066169
      9          1           0       -0.689360   -3.107337   -0.112061
     10          8           0       -2.648201   -1.393880   -0.156559
     11          1           0       -3.140213   -0.561927   -0.151860
     12          8           0       -1.975144    1.158123   -0.003311
     13          6           0       -1.686457    2.547365    0.091710
     14          1           0       -1.065303    2.880944   -0.746102
     15          1           0       -2.647480    3.057661    0.056052
     16          1           0       -1.182269    2.782932    1.034693
     17          6           0        2.848308   -0.041431    0.309822
     18          1           0        3.077095    0.191909    1.354147
     19          1           0        3.476714   -0.895661    0.023921
     20          8           0        3.214030    1.134794   -0.410942
     21          1           0        2.988011    0.984959   -1.335350
 ---------------------------------------------------------------------
 Rotational constants (GHZ):      1.5964514      0.8332850      0.5600447
 Standard basis: 6-311G(d,p) (5D, 7F)
 There are   269 symmetry adapted cartesian basis functions of A   symmetry.
 There are   258 symmetry adapted basis functions of A   symmetry.
   258 basis functions,   432 primitive gaussians,   269 cartesian basis functions
    41 alpha electrons       41 beta electrons
       nuclear repulsion energy       607.6481631151 Hartrees.
 NAtoms=   21 NActive=   21 NUniq=   21 SFac= 1.00D+00 NAtFMM=   60 NAOKFM=F Big=F
 Integral buffers will be    131072 words long.
 Raffenetti 2 integral format.
 Two-electron integral symmetry is turned on.
 One-electron integrals computed using PRISM.
 NBasis=   258 RedAO= T EigKep=  1.89D-04  NBF=   258
 NBsUse=   258 1.00D-06 EigRej= -1.00D+00 NBFU=   258
 ExpMin= 1.03D-01 ExpMax= 8.59D+03 ExpMxC= 1.30D+03 IAcc=1 IRadAn=         1 AccDes= 0.00D+00
 Harris functional with IExCor=  402 and IRadAn=       1 diagonalized for initial guess.
 HarFok:  IExCor=  402 AccDes= 0.00D+00 IRadAn=         1 IDoV= 1 UseB2=F ITyADJ=14
 ICtDFT=  3500011 ScaDFX=  1.000000  1.000000  1.000000  1.000000
 FoFCou: FMM=F IPFlag=           0 FMFlag=      100000 FMFlg1=           0
         NFxFlg=           0 DoJE=T BraDBF=F KetDBF=T FulRan=T
         wScrn=  0.000000 ICntrl=     500 IOpCl=  0 I1Cent=   200000004 NGrid=           0
         NMat0=    1 NMatS0=      1 NMatT0=    0 NMatD0=    1 NMtDS0=    0 NMtDT0=    0
 Petite list used in FoFCou.
 Keep R1 ints in memory in canonical form, NReq=568259313.
 Requested convergence on RMS density matrix=1.00D-08 within 128 cycles.
 Requested convergence on MAX density matrix=1.00D-06.
 Requested convergence on             energy=1.00D-06.
 No special actions if energy rises.
 Integral accuracy reduced to 1.0D-05 until final iterations.
 Initial convergence to 1.0D-05 achieved.  Increase integral accuracy.
 SCF Done:  E(RB3LYP) =  -536.667451267     A.U. after   14 cycles
            NFock= 14  Conv=0.60D-08     -V/T= 2.0036

 **********************************************************************

            Population analysis using the SCF density.

 **********************************************************************

 Orbital symmetries:
       Occupied  (A) (A) (A) (A) (A) (A) (A) (A) (A) (A) (A) (A)
                 (A) (A) (A) (A) (A) (A) (A) (A) (A) (A) (A) (A)
                 (A) (A) (A) (A) (A) (A) (A) (A) (A) (A) (A) (A)
                 (A) (A) (A) (A) (A)
       Virtual   (A) (A) (A) (A) (A) (A) (A) (A) (A) (A) (A) (A)
                 (A) (A) (A) (A) (A) (A) (A) (A) (A) (A) (A) (A)
                 (A) (A) (A) (A) (A) (A) (A) (A) (A) (A) (A) (A)
                 (A) (A) (A) (A) (A) (A) (A) (A) (A) (A) (A) (A)
                 (A) (A) (A) (A) (A) (A) (A) (A) (A) (A) (A) (A)
                 (A) (A) (A) (A) (A) (A) (A) (A) (A) (A) (A) (A)
                 (A) (A) (A) (A) (A) (A) (A) (A) (A) (A) (A) (A)
                 (A) (A) (A) (A) (A) (A) (A) (A) (A) (A) (A) (A)
                 (A) (A) (A) (A) (A) (A) (A) (A) (A) (A) (A) (A)
                 (A) (A) (A) (A) (A) (A) (A) (A) (A) (A) (A) (A)
                 (A) (A) (A) (A) (A) (A) (A) (A) (A) (A) (A) (A)
                 (A) (A) (A) (A) (A) (A) (A) (A) (A) (A) (A) (A)
                 (A) (A) (A) (A) (A) (A) (A) (A) (A) (A) (A) (A)
                 (A) (A) (A) (A) (A) (A) (A) (A) (A) (A) (A) (A)
                 (A) (A) (A) (A) (A) (A) (A) (A) (A) (A) (A) (A)
                 (A) (A) (A) (A) (A) (A) (A) (A) (A) (A) (A) (A)
                 (A) (A) (A) (A) (A) (A) (A) (A) (A) (A) (A) (A)
                 (A) (A) (A) (A) (A) (A) (A) (A) (A) (A) (A) (A)
                 (A)
 The electronic state is 1-A.
 Alpha  occ. eigenvalues --  -19.16427 -19.14222 -19.11511 -10.23597 -10.23527
 Alpha  occ. eigenvalues --  -10.23156 -10.21914 -10.17564 -10.17379 -10.17050
 Alpha  occ. eigenvalues --  -10.16941  -1.08620  -1.05329  -1.02162  -0.85695
 Alpha  occ. eigenvalues --   -0.76966  -0.75665  -0.71482  -0.67439  -0.61458
 Alpha  occ. eigenvalues --   -0.59765  -0.55959  -0.52923  -0.51025  -0.49039
 Alpha  occ. eigenvalues --   -0.48354  -0.45377  -0.44059  -0.43911  -0.43098
 Alpha  occ. eigenvalues --   -0.41350  -0.41049  -0.38789  -0.35693  -0.35282
 Alpha  occ. eigenvalues --   -0.35058  -0.33246  -0.32383  -0.28091  -0.24463
 Alpha  occ. eigenvalues --   -0.21295
 Alpha virt. eigenvalues --   -0.00640   0.00282   0.03860   0.04641   0.05595
 Alpha virt. eigenvalues --    0.06564   0.08388   0.09696   0.10346   0.10883
 Alpha virt. eigenvalues --    0.12207   0.12648   0.14633   0.16034   0.19057
 Alpha virt. eigenvalues --    0.20698   0.23326   0.25263   0.28051   0.29003
 Alpha virt. eigenvalues --    0.29816   0.31167   0.33518   0.35262   0.37184
 Alpha virt. eigenvalues --    0.37798   0.38957   0.39701   0.39970   0.41544
 Alpha virt. eigenvalues --    0.41824   0.43114   0.43803   0.45672   0.46254
 Alpha virt. eigenvalues --    0.47474   0.48698   0.50426   0.51334   0.51522
 Alpha virt. eigenvalues --    0.52816   0.53709   0.56058   0.56714   0.57103
 Alpha virt. eigenvalues --    0.58261   0.60176   0.60956   0.61547   0.62765
 Alpha virt. eigenvalues --    0.63307   0.65036   0.66443   0.69166   0.72843
 Alpha virt. eigenvalues --    0.75452   0.77841   0.79393   0.79962   0.81544
 Alpha virt. eigenvalues --    0.83135   0.85074   0.86390   0.88720   0.89086
 Alpha virt. eigenvalues --    0.89999   0.91952   0.95241   0.96710   0.98943
 Alpha virt. eigenvalues --    0.99684   0.99883   1.03149   1.05709   1.06759
 Alpha virt. eigenvalues --    1.08498   1.11893   1.13626   1.18001   1.20266
 Alpha virt. eigenvalues --    1.22922   1.24366   1.30862   1.31150   1.35143
 Alpha virt. eigenvalues --    1.36722   1.39728   1.40457   1.42338   1.42945
 Alpha virt. eigenvalues --    1.45098   1.45167   1.47988   1.51203   1.51799
 Alpha virt. eigenvalues --    1.53231   1.54032   1.55323   1.56149   1.56581
 Alpha virt. eigenvalues --    1.58053   1.59166   1.60862   1.64770   1.65209
 Alpha virt. eigenvalues --    1.67043   1.67117   1.68383   1.69442   1.71676
 Alpha virt. eigenvalues --    1.74702   1.75378   1.76975   1.82866   1.84994
 Alpha virt. eigenvalues --    1.86063   1.88567   1.90040   1.91114   1.93050
 Alpha virt. eigenvalues --    1.96280   1.97533   1.99820   2.00862   2.03790
 Alpha virt. eigenvalues --    2.04593   2.06317   2.09373   2.09989   2.13074
 Alpha virt. eigenvalues --    2.13565   2.16140   2.23715   2.24706   2.29845
 Alpha virt. eigenvalues --    2.31016   2.33880   2.37682   2.39320   2.41036
 Alpha virt. eigenvalues --    2.42593   2.43345   2.45972   2.49207   2.51502
 Alpha virt. eigenvalues --    2.52110   2.54422   2.55276   2.59476   2.59944
 Alpha virt. eigenvalues --    2.62432   2.66416   2.66847   2.67461   2.70445
 Alpha virt. eigenvalues --    2.71175   2.75027   2.77223   2.81929   2.84943
 Alpha virt. eigenvalues --    2.86695   2.88069   2.94160   2.96423   3.01001
 Alpha virt. eigenvalues --    3.02046   3.02490   3.06435   3.09667   3.10474
 Alpha virt. eigenvalues --    3.14505   3.16407   3.16779   3.21279   3.23541
 Alpha virt. eigenvalues --    3.30488   3.34738   3.35712   3.39338   3.43089
 Alpha virt. eigenvalues --    3.51947   3.58326   3.61550   3.63291   3.68502
 Alpha virt. eigenvalues --    3.74351   3.78651   3.85304   3.88915   3.92217
 Alpha virt. eigenvalues --    4.01050   4.04819   4.09827   4.13743   4.18058
 Alpha virt. eigenvalues --    4.28901   4.79631   4.84421   4.89788   4.91950
 Alpha virt. eigenvalues --    5.26088   5.31403   5.34640   5.62279   5.67755
 Alpha virt. eigenvalues --    5.77518  23.45383  23.81038  23.85153  23.88673
 Alpha virt. eigenvalues --   23.89401  24.05126  24.09750  24.17186  49.87906
 Alpha virt. eigenvalues --   49.88647  49.93647
          Condensed to atoms (all electrons):
               1          2          3          4          5          6
     1  C    5.239903   0.294688   0.001115  -0.052910  -0.042242   0.265828
     2  C    0.294688   5.227642   0.361772  -0.066606  -0.046500   0.016134
     3  C    0.001115   0.361772   5.361579   0.487672  -0.039591  -0.063519
     4  C   -0.052910  -0.066606   0.487672   4.879697   0.509715  -0.043474
     5  C   -0.042242  -0.046500  -0.039591   0.509715   4.868146   0.529178
     6  C    0.265828   0.016134  -0.063519  -0.043474   0.529178   4.889281
     7  H   -0.035983   0.404445  -0.049699   0.008278  -0.000091   0.005160
     8  H   -0.001977   0.011360  -0.059148   0.420491  -0.042793   0.010690
     9  H    0.016398  -0.002808   0.009801  -0.040857   0.403808  -0.049788
    10  O   -0.094097   0.007657  -0.000784   0.004635  -0.060455   0.398384
    11  H   -0.021984   0.003751  -0.000505  -0.000290   0.005337  -0.047074
    12  O    0.348283  -0.077149   0.005830   0.000258   0.002288  -0.067144
    13  C   -0.071519  -0.010153  -0.000401  -0.000003  -0.000237   0.006587
    14  H   -0.005655   0.005210  -0.000152  -0.000013  -0.000062  -0.000453
    15  H    0.004448   0.001065   0.000030  -0.000002   0.000028  -0.000259
    16  H   -0.005631   0.005819  -0.000309  -0.000062  -0.000050  -0.000418
    17  C    0.002630  -0.060232   0.349409  -0.041489   0.004814  -0.000082
    18  H   -0.000120  -0.013671  -0.029729   0.002276  -0.000456   0.000014
    19  H    0.000133   0.013915  -0.065090  -0.009416   0.000621   0.000008
    20  O    0.001215  -0.002445  -0.055337   0.005421  -0.000210   0.000079
    21  H   -0.000485  -0.002333   0.011999   0.001271  -0.000165  -0.000102
               7          8          9         10         11         12
     1  C   -0.035983  -0.001977   0.016398  -0.094097  -0.021984   0.348283
     2  C    0.404445   0.011360  -0.002808   0.007657   0.003751  -0.077149
     3  C   -0.049699  -0.059148   0.009801  -0.000784  -0.000505   0.005830
     4  C    0.008278   0.420491  -0.040857   0.004635  -0.000290   0.000258
     5  C   -0.000091  -0.042793   0.403808  -0.060455   0.005337   0.002288
     6  C    0.005160   0.010690  -0.049788   0.398384  -0.047074  -0.067144
     7  H    0.548987  -0.000131   0.000044  -0.000037   0.000014  -0.005642
     8  H   -0.000131   0.592270  -0.009751  -0.000113   0.000038   0.000011
     9  H    0.000044  -0.009751   0.569136   0.004022  -0.000820  -0.000139
    10  O   -0.000037  -0.000113   0.004022   7.773323   0.333229  -0.005734
    11  H    0.000014   0.000038  -0.000820   0.333229   0.448769   0.026684
    12  O   -0.005642   0.000011  -0.000139  -0.005734   0.026684   7.992736
    13  C    0.004295  -0.000003   0.000025  -0.000217  -0.001913   0.274431
    14  H   -0.000612   0.000000   0.000000  -0.000049   0.000325  -0.033373
    15  H   -0.000091  -0.000000  -0.000001   0.000025  -0.000478  -0.022515
    16  H   -0.000537  -0.000001   0.000001  -0.000049   0.000322  -0.033399
    17  C   -0.010784  -0.007724  -0.000219   0.000000   0.000004  -0.000071
    18  H   -0.002022   0.000157   0.000021  -0.000001   0.000000   0.000001
    19  H    0.001955   0.005821  -0.000017  -0.000000  -0.000001   0.000002
    20  O    0.030266   0.000093   0.000002   0.000000   0.000000   0.000000
    21  H   -0.002542  -0.000026   0.000001   0.000000   0.000000   0.000003
              13         14         15         16         17         18
     1  C   -0.071519  -0.005655   0.004448  -0.005631   0.002630  -0.000120
     2  C   -0.010153   0.005210   0.001065   0.005819  -0.060232  -0.013671
     3  C   -0.000401  -0.000152   0.000030  -0.000309   0.349409  -0.029729
     4  C   -0.000003  -0.000013  -0.000002  -0.000062  -0.041489   0.002276
     5  C   -0.000237  -0.000062   0.000028  -0.000050   0.004814  -0.000456
     6  C    0.006587  -0.000453  -0.000259  -0.000418  -0.000082   0.000014
     7  H    0.004295  -0.000612  -0.000091  -0.000537  -0.010784  -0.002022
     8  H   -0.000003   0.000000  -0.000000  -0.000001  -0.007724   0.000157
     9  H    0.000025   0.000000  -0.000001   0.000001  -0.000219   0.000021
    10  O   -0.000217  -0.000049   0.000025  -0.000049   0.000000  -0.000001
    11  H   -0.001913   0.000325  -0.000478   0.000322   0.000004   0.000000
    12  O    0.274431  -0.033373  -0.022515  -0.033399  -0.000071   0.000001
    13  C    4.718055   0.401165   0.401263   0.401167  -0.000021  -0.000004
    14  H    0.401165   0.592874  -0.027021  -0.048833  -0.000028  -0.000005
    15  H    0.401263  -0.027021   0.541202  -0.026390  -0.000000  -0.000000
    16  H    0.401167  -0.048833  -0.026390   0.589865   0.000061   0.000038
    17  C   -0.000021  -0.000028  -0.000000   0.000061   4.655566   0.385244
    18  H   -0.000004  -0.000005  -0.000000   0.000038   0.385244   0.603091
    19  H   -0.000001  -0.000006  -0.000000  -0.000003   0.416927  -0.043528
    20  O   -0.000041  -0.000077  -0.000000  -0.000083   0.291013  -0.034625
    21  H   -0.000000   0.000049  -0.000000   0.000004  -0.055677   0.012114
              19         20         21
     1  C    0.000133   0.001215  -0.000485
     2  C    0.013915  -0.002445  -0.002333
     3  C   -0.065090  -0.055337   0.011999
     4  C   -0.009416   0.005421   0.001271
     5  C    0.000621  -0.000210  -0.000165
     6  C    0.000008   0.000079  -0.000102
     7  H    0.001955   0.030266  -0.002542
     8  H    0.005821   0.000093  -0.000026
     9  H   -0.000017   0.000002   0.000001
    10  O   -0.000000   0.000000   0.000000
    11  H   -0.000001   0.000000   0.000000
    12  O    0.000002   0.000000   0.000003
    13  C   -0.000001  -0.000041  -0.000000
    14  H   -0.000006  -0.000077   0.000049
    15  H   -0.000000  -0.000000  -0.000000
    16  H   -0.000003  -0.000083   0.000004
    17  C    0.416927   0.291013  -0.055677
    18  H   -0.043528  -0.034625   0.012114
    19  H    0.617808  -0.027449  -0.009858
    20  O   -0.027449   7.882021   0.305638
    21  H   -0.009858   0.305638   0.508935
 Mulliken charges:
               1
     1  C    0.157959
     2  C   -0.071561
     3  C   -0.224944
     4  C   -0.064592
     5  C   -0.091082
     6  C    0.150969
     7  H    0.104726
     8  H    0.080738
     9  H    0.101140
    10  O   -0.359739
    11  H    0.254591
    12  O   -0.405361
    13  C   -0.122477
    14  H    0.116716
    15  H    0.128696
    16  H    0.118487
    17  C    0.070659
    18  H    0.121204
    19  H    0.098177
    20  O   -0.395480
    21  H    0.231174
 Sum of Mulliken charges =  -0.00000
 Mulliken charges with hydrogens summed into heavy atoms:
               1
     1  C    0.157959
     2  C    0.033164
     3  C   -0.224944
     4  C    0.016146
     5  C    0.010057
     6  C    0.150969
    10  O   -0.105148
    12  O   -0.405361
    13  C    0.241422
    17  C    0.290040
    20  O   -0.164306
 Electronic spatial extent (au):  <R**2>=           1959.6053
 Charge=              0.0000 electrons
 Dipole moment (field-independent basis, Debye):
    X=             -0.5550    Y=              1.5481    Z=             -0.4784  Tot=              1.7127
 Quadrupole moment (field-independent basis, Debye-Ang):
   XX=            -66.8056   YY=            -60.4447   ZZ=            -64.3965
   XY=            -10.9420   XZ=             -1.6576   YZ=             -0.3841
 Traceless Quadrupole moment (field-independent basis, Debye-Ang):
   XX=             -2.9233   YY=              3.4375   ZZ=             -0.5143
   XY=            -10.9420   XZ=             -1.6576   YZ=             -0.3841
 Octapole moment (field-independent basis, Debye-Ang**2):
  XXX=            -34.6217  YYY=             17.0135  ZZZ=             -6.7621  XYY=            -10.1468
  XXY=             -1.4601  XXZ=             -4.4667  XZZ=              7.0912  YZZ=              9.3791
  YYZ=             -0.9741  XYZ=             -1.5501
 Hexadecapole moment (field-independent basis, Debye-Ang**3):
 XXXX=          -1523.2918 YYYY=           -816.8030 ZZZZ=            -92.7093 XXXY=            -93.8742
 XXXZ=            -11.0313 YYYX=            -42.3859 YYYZ=              1.0678 ZZZX=            -16.2774
 ZZZY=             -5.1211 XXYY=           -420.9604 XXZZ=           -240.8326 YYZZ=           -169.1676
 XXYZ=             -5.1809 YYXZ=             -5.6951 ZZXY=             15.2482
 N-N= 6.076481631151D+02 E-N=-2.470530834002D+03  KE= 5.347617021345D+02
 ******************************Gaussian NBO Version 3.1******************************
             N A T U R A L   A T O M I C   O R B I T A L   A N D
          N A T U R A L   B O N D   O R B I T A L   A N A L Y S I S
 ******************************Gaussian NBO Version 3.1******************************
       /RESON  / : Allow strongly delocalized NBO set

 Analyzing the SCF density

 Job title: Generated by Multiwfn                                           

 Storage needed:    201294 in NPA,    267489 in NBO (********** available)


 NATURAL POPULATIONS:  Natural atomic orbital occupancies 
                                                          
   NAO  Atom  No  lang   Type(AO)    Occupancy      Energy
 ----------------------------------------------------------
     1    C    1  S      Cor( 1S)     1.99869     -10.10697
     2    C    1  S      Val( 2S)     0.81220      -0.11519
     3    C    1  S      Ryd( 3S)     0.00224       1.05391
     4    C    1  S      Ryd( 4S)     0.00005      22.49305
     5    C    1  px     Val( 2p)     0.92698      -0.04545
     6    C    1  px     Ryd( 3p)     0.00726       1.27848
     7    C    1  px     Ryd( 4p)     0.00029       2.78209
     8    C    1  py     Val( 2p)     0.93489      -0.06403
     9    C    1  py     Ryd( 3p)     0.00456       1.27438
    10    C    1  py     Ryd( 4p)     0.00019       2.85902
    11    C    1  pz     Val( 2p)     1.03907      -0.12261
    12    C    1  pz     Ryd( 3p)     0.00091       0.60488
    13    C    1  pz     Ryd( 4p)     0.00004       2.62660
    14    C    1  dxy    Ryd( 3d)     0.00164       2.50888
    15    C    1  dxz    Ryd( 3d)     0.00169       1.66004
    16    C    1  dyz    Ryd( 3d)     0.00138       1.60808
    17    C    1  dx2y2  Ryd( 3d)     0.00119       2.69866
    18    C    1  dz2    Ryd( 3d)     0.00064       2.15076

    19    C    2  S      Cor( 1S)     1.99894     -10.02846
    20    C    2  S      Val( 2S)     0.93341      -0.13899
    21    C    2  S      Ryd( 3S)     0.00183       1.08379
    22    C    2  S      Ryd( 4S)     0.00002      23.07549
    23    C    2  px     Val( 2p)     1.08687      -0.05725
    24    C    2  px     Ryd( 3p)     0.00394       1.10613
    25    C    2  px     Ryd( 4p)     0.00018       3.19860
    26    C    2  py     Val( 2p)     1.19048      -0.06140
    27    C    2  py     Ryd( 3p)     0.00429       1.30690
    28    C    2  py     Ryd( 4p)     0.00015       2.98372
    29    C    2  pz     Val( 2p)     1.06300      -0.11271
    30    C    2  pz     Ryd( 3p)     0.00158       0.54765
    31    C    2  pz     Ryd( 4p)     0.00005       2.70307
    32    C    2  dxy    Ryd( 3d)     0.00057       2.62261
    33    C    2  dxz    Ryd( 3d)     0.00063       1.70240
    34    C    2  dyz    Ryd( 3d)     0.00041       1.63481
    35    C    2  dx2y2  Ryd( 3d)     0.00083       2.60227
    36    C    2  dz2    Ryd( 3d)     0.00049       2.13829

    37    C    3  S      Cor( 1S)     1.99897     -10.03681
    38    C    3  S      Val( 2S)     0.87868      -0.11511
    39    C    3  S      Ryd( 3S)     0.00133       0.86018
    40    C    3  S      Ryd( 4S)     0.00002      23.12498
    41    C    3  px     Val( 2p)     1.06007      -0.05401
    42    C    3  px     Ryd( 3p)     0.00506       1.45867
    43    C    3  px     Ryd( 4p)     0.00013       3.17116
    44    C    3  py     Val( 2p)     1.08476      -0.04816
    45    C    3  py     Ryd( 3p)     0.00369       1.16831
    46    C    3  py     Ryd( 4p)     0.00016       3.24621
    47    C    3  pz     Val( 2p)     1.03955      -0.09834
    48    C    3  pz     Ryd( 3p)     0.00185       0.65799
    49    C    3  pz     Ryd( 4p)     0.00001       2.69466
    50    C    3  dxy    Ryd( 3d)     0.00074       2.62629
    51    C    3  dxz    Ryd( 3d)     0.00056       1.71018
    52    C    3  dyz    Ryd( 3d)     0.00061       1.69869
    53    C    3  dx2y2  Ryd( 3d)     0.00066       2.53412
    54    C    3  dz2    Ryd( 3d)     0.00040       2.12025

    55    C    4  S      Cor( 1S)     1.99902     -10.02597
    56    C    4  S      Val( 2S)     0.93090      -0.13337
    57    C    4  S      Ryd( 3S)     0.00130       1.03851
    58    C    4  S      Ryd( 4S)     0.00002      23.10895
    59    C    4  px     Val( 2p)     1.11147      -0.04464
    60    C    4  px     Ryd( 3p)     0.00538       1.19233
    61    C    4  px     Ryd( 4p)     0.00013       2.91100
    62    C    4  py     Val( 2p)     1.12874      -0.04509
    63    C    4  py     Ryd( 3p)     0.00442       1.16195
    64    C    4  py     Ryd( 4p)     0.00015       2.89396
    65    C    4  pz     Val( 2p)     1.02586      -0.10266
    66    C    4  pz     Ryd( 3p)     0.00098       0.60694
    67    C    4  pz     Ryd( 4p)     0.00004       2.61926
    68    C    4  dxy    Ryd( 3d)     0.00078       2.51504
    69    C    4  dxz    Ryd( 3d)     0.00051       1.66290
    70    C    4  dyz    Ryd( 3d)     0.00048       1.67236
    71    C    4  dx2y2  Ryd( 3d)     0.00066       2.61853
    72    C    4  dz2    Ryd( 3d)     0.00046       2.10459

    73    C    5  S      Cor( 1S)     1.99904     -10.02783
    74    C    5  S      Val( 2S)     0.94241      -0.14352
    75    C    5  S      Ryd( 3S)     0.00136       1.06864
    76    C    5  S      Ryd( 4S)     0.00002      23.06231
    77    C    5  px     Val( 2p)     1.07794      -0.04520
    78    C    5  px     Ryd( 3p)     0.00414       1.12543
    79    C    5  px     Ryd( 4p)     0.00014       2.88501
    80    C    5  py     Val( 2p)     1.16441      -0.05414
    81    C    5  py     Ryd( 3p)     0.00560       1.38021
    82    C    5  py     Ryd( 4p)     0.00012       2.73355
    83    C    5  pz     Val( 2p)     1.04472      -0.10447
    84    C    5  pz     Ryd( 3p)     0.00124       0.64341
    85    C    5  pz     Ryd( 4p)     0.00009       2.57468
    86    C    5  dxy    Ryd( 3d)     0.00086       2.63485
    87    C    5  dxz    Ryd( 3d)     0.00050       1.69357
    88    C    5  dyz    Ryd( 3d)     0.00053       1.64003
    89    C    5  dx2y2  Ryd( 3d)     0.00056       2.52827
    90    C    5  dz2    Ryd( 3d)     0.00049       2.11638

    91    C    6  S      Cor( 1S)     1.99871     -10.10482
    92    C    6  S      Val( 2S)     0.81177      -0.11145
    93    C    6  S      Ryd( 3S)     0.00183       1.17338
    94    C    6  S      Ryd( 4S)     0.00004      22.39582
    95    C    6  px     Val( 2p)     0.79755      -0.04379
    96    C    6  px     Ryd( 3p)     0.00764       1.13081
    97    C    6  px     Ryd( 4p)     0.00023       2.66720
    98    C    6  py     Val( 2p)     1.06702      -0.06264
    99    C    6  py     Ryd( 3p)     0.00565       1.35185
   100    C    6  py     Ryd( 4p)     0.00019       2.62588
   101    C    6  pz     Val( 2p)     0.99865      -0.11372
   102    C    6  pz     Ryd( 3p)     0.00085       0.62871
   103    C    6  pz     Ryd( 4p)     0.00008       2.58827
   104    C    6  dxy    Ryd( 3d)     0.00143       2.65618
   105    C    6  dxz    Ryd( 3d)     0.00284       1.60793
   106    C    6  dyz    Ryd( 3d)     0.00062       1.65299
   107    C    6  dx2y2  Ryd( 3d)     0.00154       2.57888
   108    C    6  dz2    Ryd( 3d)     0.00065       2.15577

   109    H    7  S      Val( 1S)     0.77528       0.06154
   110    H    7  S      Ryd( 2S)     0.00344       0.47704
   111    H    7  S      Ryd( 3S)     0.00035       2.28824
   112    H    7  px     Ryd( 2p)     0.00020       2.14447
   113    H    7  py     Ryd( 2p)     0.00038       2.70932
   114    H    7  pz     Ryd( 2p)     0.00021       1.62051

   115    H    8  S      Val( 1S)     0.79688       0.05640
   116    H    8  S      Ryd( 2S)     0.00264       0.43677
   117    H    8  S      Ryd( 3S)     0.00021       2.26944
   118    H    8  px     Ryd( 2p)     0.00027       2.35384
   119    H    8  py     Ryd( 2p)     0.00031       2.39341
   120    H    8  pz     Ryd( 2p)     0.00021       1.61026

   121    H    9  S      Val( 1S)     0.78236       0.06094
   122    H    9  S      Ryd( 2S)     0.00210       0.39959
   123    H    9  S      Ryd( 3S)     0.00020       2.26287
   124    H    9  px     Ryd( 2p)     0.00016       2.08285
   125    H    9  py     Ryd( 2p)     0.00041       2.65317
   126    H    9  pz     Ryd( 2p)     0.00017       1.61699

   127    O   10  S      Cor( 1S)     1.99975     -18.92873
   128    O   10  S      Val( 2S)     1.65372      -0.89982
   129    O   10  S      Ryd( 3S)     0.00034       2.06209
   130    O   10  S      Ryd( 4S)     0.00000      49.59250
   131    O   10  px     Val( 2p)     1.45310      -0.30990
   132    O   10  px     Ryd( 3p)     0.00118       0.84628
   133    O   10  px     Ryd( 4p)     0.00004       5.23442
   134    O   10  py     Val( 2p)     1.68905      -0.31286
   135    O   10  py     Ryd( 3p)     0.00081       1.10759
   136    O   10  py     Ryd( 4p)     0.00004       5.13591
   137    O   10  pz     Val( 2p)     1.86575      -0.31177
   138    O   10  pz     Ryd( 3p)     0.00188       0.86163
   139    O   10  pz     Ryd( 4p)     0.00000       4.78939
   140    O   10  dxy    Ryd( 3d)     0.00123       3.41937
   141    O   10  dxz    Ryd( 3d)     0.00035       2.98330
   142    O   10  dyz    Ryd( 3d)     0.00085       2.94119
   143    O   10  dx2y2  Ryd( 3d)     0.00121       3.44396
   144    O   10  dz2    Ryd( 3d)     0.00077       3.32155

   145    H   11  S      Val( 1S)     0.51753       0.10975
   146    H   11  S      Ryd( 2S)     0.00209       0.87669
   147    H   11  S      Ryd( 3S)     0.00049       1.79993
   148    H   11  px     Ryd( 2p)     0.00093       2.10740
   149    H   11  py     Ryd( 2p)     0.00101       2.36693
   150    H   11  pz     Ryd( 2p)     0.00156       1.51917

   151    O   12  S      Cor( 1S)     1.99970     -18.96938
   152    O   12  S      Val( 2S)     1.59279      -0.87431
   153    O   12  S      Ryd( 3S)     0.00061       2.04918
   154    O   12  S      Ryd( 4S)     0.00000      49.52761
   155    O   12  px     Val( 2p)     1.69647      -0.34656
   156    O   12  px     Ryd( 3p)     0.00303       0.97559
   157    O   12  px     Ryd( 4p)     0.00005       5.03994
   158    O   12  py     Val( 2p)     1.39993      -0.32201
   159    O   12  py     Ryd( 3p)     0.00094       1.41844
   160    O   12  py     Ryd( 4p)     0.00001       5.25596
   161    O   12  pz     Val( 2p)     1.85950      -0.32714
   162    O   12  pz     Ryd( 3p)     0.00259       0.91823
   163    O   12  pz     Ryd( 4p)     0.00001       4.84124
   164    O   12  dxy    Ryd( 3d)     0.00104       3.44600
   165    O   12  dxz    Ryd( 3d)     0.00074       2.89976
   166    O   12  dyz    Ryd( 3d)     0.00018       2.96630
   167    O   12  dx2y2  Ryd( 3d)     0.00086       3.32327
   168    O   12  dz2    Ryd( 3d)     0.00062       3.21520

   169    C   13  S      Cor( 1S)     1.99919     -10.11422
   170    C   13  S      Val( 2S)     1.07263      -0.26862
   171    C   13  S      Ryd( 3S)     0.00254       0.87086
   172    C   13  S      Ryd( 4S)     0.00001      23.39733
   173    C   13  px     Val( 2p)     1.18114      -0.11987
   174    C   13  px     Ryd( 3p)     0.00291       0.76465
   175    C   13  px     Ryd( 4p)     0.00012       2.94713
   176    C   13  py     Val( 2p)     0.74012      -0.08915
   177    C   13  py     Ryd( 3p)     0.00282       0.62697
   178    C   13  py     Ryd( 4p)     0.00019       2.94010
   179    C   13  pz     Val( 2p)     1.18165      -0.11942
   180    C   13  pz     Ryd( 3p)     0.00068       0.56911
   181    C   13  pz     Ryd( 4p)     0.00006       2.94245
   182    C   13  dxy    Ryd( 3d)     0.00148       2.00085
   183    C   13  dxz    Ryd( 3d)     0.00086       2.07140
   184    C   13  dyz    Ryd( 3d)     0.00151       1.77439
   185    C   13  dx2y2  Ryd( 3d)     0.00156       2.08004
   186    C   13  dz2    Ryd( 3d)     0.00108       2.09434

   187    H   14  S      Val( 1S)     0.82980      -0.00282
   188    H   14  S      Ryd( 2S)     0.00182       0.40581
   189    H   14  S      Ryd( 3S)     0.00019       2.08073
   190    H   14  px     Ryd( 2p)     0.00021       2.04246
   191    H   14  py     Ryd( 2p)     0.00010       1.77571
   192    H   14  pz     Ryd( 2p)     0.00036       2.30402

   193    H   15  S      Val( 1S)     0.81406       0.00806
   194    H   15  S      Ryd( 2S)     0.00075       0.34149
   195    H   15  S      Ryd( 3S)     0.00014       2.04515
   196    H   15  px     Ryd( 2p)     0.00038       2.45729
   197    H   15  py     Ryd( 2p)     0.00011       1.85887
   198    H   15  pz     Ryd( 2p)     0.00011       1.70838

   199    H   16  S      Val( 1S)     0.82857      -0.00196
   200    H   16  S      Ryd( 2S)     0.00184       0.40135
   201    H   16  S      Ryd( 3S)     0.00020       2.08744
   202    H   16  px     Ryd( 2p)     0.00018       1.94942
   203    H   16  py     Ryd( 2p)     0.00009       1.71931
   204    H   16  pz     Ryd( 2p)     0.00040       2.45402

   205    C   17  S      Cor( 1S)     1.99908     -10.09541
   206    C   17  S      Val( 2S)     0.98692      -0.21206
   207    C   17  S      Ryd( 3S)     0.00373       0.95966
   208    C   17  S      Ryd( 4S)     0.00002      23.32154
   209    C   17  px     Val( 2p)     1.05146      -0.07848
   210    C   17  px     Ryd( 3p)     0.00264       0.66783
   211    C   17  px     Ryd( 4p)     0.00017       2.73405
   212    C   17  py     Val( 2p)     0.89520      -0.07065
   213    C   17  py     Ryd( 3p)     0.00738       0.78161
   214    C   17  py     Ryd( 4p)     0.00032       2.83466
   215    C   17  pz     Val( 2p)     1.05841      -0.09096
   216    C   17  pz     Ryd( 3p)     0.00119       0.62890
   217    C   17  pz     Ryd( 4p)     0.00015       2.94742
   218    C   17  dxy    Ryd( 3d)     0.00162       2.18132
   219    C   17  dxz    Ryd( 3d)     0.00105       1.81297
   220    C   17  dyz    Ryd( 3d)     0.00136       1.99508
   221    C   17  dx2y2  Ryd( 3d)     0.00143       2.14876
   222    C   17  dz2    Ryd( 3d)     0.00147       2.15943

   223    H   18  S      Val( 1S)     0.81812       0.02894
   224    H   18  S      Ryd( 2S)     0.00197       0.56918
   225    H   18  S      Ryd( 3S)     0.00011       1.96922
   226    H   18  px     Ryd( 2p)     0.00025       1.83253
   227    H   18  py     Ryd( 2p)     0.00012       1.88889
   228    H   18  pz     Ryd( 2p)     0.00052       2.60836

   229    H   19  S      Val( 1S)     0.84144       0.01856
   230    H   19  S      Ryd( 2S)     0.00179       0.66916
   231    H   19  S      Ryd( 3S)     0.00015       1.87482
   232    H   19  px     Ryd( 2p)     0.00040       2.08019
   233    H   19  py     Ryd( 2p)     0.00024       2.32015
   234    H   19  pz     Ryd( 2p)     0.00013       1.82763

   235    O   20  S      Cor( 1S)     1.99980     -18.91656
   236    O   20  S      Val( 2S)     1.68708      -0.89016
   237    O   20  S      Ryd( 3S)     0.00068       1.74597
   238    O   20  S      Ryd( 4S)     0.00000      49.67096
   239    O   20  px     Val( 2p)     1.91148      -0.29435
   240    O   20  px     Ryd( 3p)     0.00168       0.95193
   241    O   20  px     Ryd( 4p)     0.00001       4.88796
   242    O   20  py     Val( 2p)     1.65485      -0.29584
   243    O   20  py     Ryd( 3p)     0.00067       0.87655
   244    O   20  py     Ryd( 4p)     0.00003       5.00336
   245    O   20  pz     Val( 2p)     1.46388      -0.26799
   246    O   20  pz     Ryd( 3p)     0.00185       0.95286
   247    O   20  pz     Ryd( 4p)     0.00005       5.23034
   248    O   20  dxy    Ryd( 3d)     0.00092       3.05527
   249    O   20  dxz    Ryd( 3d)     0.00040       3.11667
   250    O   20  dyz    Ryd( 3d)     0.00080       3.27682
   251    O   20  dx2y2  Ryd( 3d)     0.00098       3.09787
   252    O   20  dz2    Ryd( 3d)     0.00096       3.43322

   253    H   21  S      Val( 1S)     0.54905       0.10219
   254    H   21  S      Ryd( 2S)     0.00211       0.46377
   255    H   21  S      Ryd( 3S)     0.00048       2.12993
   256    H   21  px     Ryd( 2p)     0.00156       1.63168
   257    H   21  py     Ryd( 2p)     0.00118       1.67583
   258    H   21  pz     Ryd( 2p)     0.00071       2.54256

 WARNING:  1 low occupancy (<1.9990e) core orbital  found on  C    1
           1 low occupancy (<1.9990e) core orbital  found on  C    2
           1 low occupancy (<1.9990e) core orbital  found on  C    3
           1 low occupancy (<1.9990e) core orbital  found on  C    6


 Summary of Natural Population Analysis:                  
                                                          
                                       Natural Population 
                Natural  -----------------------------------------------
    Atom  No    Charge         Core      Valence    Rydberg      Total
 -----------------------------------------------------------------------
      C    1    0.26611      1.99869     3.71313    0.02207     5.73389
      C    2   -0.28767      1.99894     4.27376    0.01497     6.28767
      C    3   -0.07726      1.99897     4.06306    0.01523     6.07726
      C    4   -0.21131      1.99902     4.19697    0.01532     6.21131
      C    5   -0.24415      1.99904     4.22948    0.01564     6.24415
      C    6    0.30273      1.99871     3.67499    0.02358     5.69727
      H    7    0.22015      0.00000     0.77528    0.00458     0.77985
      H    8    0.19948      0.00000     0.79688    0.00363     0.80052
      H    9    0.21460      0.00000     0.78236    0.00303     0.78540
      O   10   -0.67009      1.99975     6.66163    0.00871     8.67009
      H   11    0.47639      0.00000     0.51753    0.00608     0.52361
      O   12   -0.55907      1.99970     6.54868    0.01069     8.55907
      C   13   -0.19056      1.99919     4.17553    0.01583     6.19056
      H   14    0.16751      0.00000     0.82980    0.00268     0.83249
      H   15    0.18445      0.00000     0.81406    0.00149     0.81555
      H   16    0.16872      0.00000     0.82857    0.00271     0.83128
      C   17   -0.01358      1.99908     3.99199    0.02252     6.01358
      H   18    0.17891      0.00000     0.81812    0.00297     0.82109
      H   19    0.15585      0.00000     0.84144    0.00270     0.84415
      O   20   -0.72613      1.99980     6.71730    0.00903     8.72613
      H   21    0.44491      0.00000     0.54905    0.00605     0.55509
 =======================================================================
   * Total *    0.00000     21.99088    59.79962    0.20949    82.00000

                                 Natural Population      
 --------------------------------------------------------
   Core                      21.99088 ( 99.9586% of  22)
   Valence                   59.79962 ( 99.6660% of  60)
   Natural Minimal Basis     81.79051 ( 99.7445% of  82)
   Natural Rydberg Basis      0.20949 (  0.2555% of  82)
 --------------------------------------------------------

    Atom  No          Natural Electron Configuration
 ----------------------------------------------------------------------------
      C    1      [core]2S( 0.81)2p( 2.90)3p( 0.01)3d( 0.01)
      C    2      [core]2S( 0.93)2p( 3.34)3p( 0.01)
      C    3      [core]2S( 0.88)2p( 3.18)3p( 0.01)
      C    4      [core]2S( 0.93)2p( 3.27)3p( 0.01)
      C    5      [core]2S( 0.94)2p( 3.29)3p( 0.01)
      C    6      [core]2S( 0.81)2p( 2.86)3p( 0.01)3d( 0.01)
      H    7            1S( 0.78)
      H    8            1S( 0.80)
      H    9            1S( 0.78)
      O   10      [core]2S( 1.65)2p( 5.01)
      H   11            1S( 0.52)
      O   12      [core]2S( 1.59)2p( 4.96)3p( 0.01)
      C   13      [core]2S( 1.07)2p( 3.10)3p( 0.01)3d( 0.01)
      H   14            1S( 0.83)
      H   15            1S( 0.81)
      H   16            1S( 0.83)
      C   17      [core]2S( 0.99)2p( 3.01)3p( 0.01)3d( 0.01)
      H   18            1S( 0.82)
      H   19            1S( 0.84)
      O   20      [core]2S( 1.69)2p( 5.03)
      H   21            1S( 0.55)


 NATURAL BOND ORBITAL ANALYSIS:

                       Occupancies       Lewis Structure    Low   High
           Occ.    -------------------  -----------------   occ   occ
  Cycle   Thresh.   Lewis   Non-Lewis     CR  BD  3C  LP    (L)   (NL)   Dev
 =============================================================================
   1(1)    1.90    78.60369   3.39631     11  23   0   7     3      3    0.43
   2(2)    1.90    78.60369   3.39631     11  23   0   7     3      3    0.43
   3(1)    1.80    78.37021   3.62979     11  21   0   9     3      3    0.43
   4(2)    1.80    78.37021   3.62979     11  21   0   9     3      3    0.43
   5(1)    1.70    79.68389   2.31611     11  23   0   7     1      3    0.41
   6(2)    1.70    79.68389   2.31611     11  23   0   7     1      3    0.41
   7(1)    1.60    80.31478   1.68522     11  24   0   6     0      3    0.41
   8(2)    1.60    79.61219   2.38781     11  23   0   7     1      3    0.43
   9(3)    1.60    80.31478   1.68522     11  24   0   6     0      3    0.41
  10(1)    1.50    79.39757   2.60243     11  24   0   6     1      5    0.75
  11(2)    1.50    80.31478   1.68522     11  24   0   6     0      3    0.41
  12(3)    1.50    80.16201   1.83799     11  24   0   6     0      3    0.43
  13(4)    1.50    80.31478   1.68522     11  24   0   6     0      3    0.41
  14(1)    1.60    80.31478   1.68522     11  24   0   6     0      3    0.41
 -----------------------------------------------------------------------------

 Structure accepted: RESONANCE keyword permits strongly delocalized structure

 WARNING:  1 low occupancy (<1.9990e) core orbital  found on  C    1
           1 low occupancy (<1.9990e) core orbital  found on  C    2
           1 low occupancy (<1.9990e) core orbital  found on  C    3
           1 low occupancy (<1.9990e) core orbital  found on  C    6

 --------------------------------------------------------
   Core                     21.99088 ( 99.959% of  22)
   Valence Lewis            58.32390 ( 97.207% of  60)
  ==================       ============================
   Total Lewis              80.31478 ( 97.945% of  82)
  -----------------------------------------------------
   Valence non-Lewis         1.54457 (  1.884% of  82)
   Rydberg non-Lewis         0.14065 (  0.172% of  82)
  ==================       ============================
   Total non-Lewis           1.68522 (  2.055% of  82)
 --------------------------------------------------------


       (Occupancy)   Bond orbital/ Coefficients/ Hybrids
 ---------------------------------------------------------------------------------
     1. (1.97641) BD ( 1) C   1 - C   2  
                ( 50.24%)   0.7088* C   1 s( 40.41%)p 1.47( 59.56%)d 0.00(  0.03%)
                                           -0.0000  0.6357 -0.0064 -0.0004  0.7297
                                           -0.0060  0.0006  0.2446  0.0127  0.0001
                                            0.0553  0.0004 -0.0000  0.0081  0.0021
                                            0.0007  0.0123 -0.0097
                ( 49.76%)   0.7054* C   2 s( 35.02%)p 1.85( 64.93%)d 0.00(  0.05%)
                                           -0.0000  0.5916  0.0139  0.0010 -0.7880
                                           -0.0155 -0.0014 -0.1527  0.0251  0.0012
                                           -0.0644 -0.0001 -0.0001  0.0081  0.0032
                                            0.0009  0.0159 -0.0125
     2. (1.71614) BD ( 2) C   1 - C   2  
                ( 49.09%)   0.7006* C   1 s(  0.00%)p 1.00( 99.96%)d 0.00(  0.04%)
                                            0.0000  0.0021 -0.0002  0.0001 -0.0640
                                            0.0006 -0.0002 -0.0401 -0.0001 -0.0001
                                            0.9969 -0.0090  0.0055 -0.0004  0.0196
                                           -0.0052 -0.0014  0.0016
                ( 50.91%)   0.7135* C   2 s(  0.00%)p 1.00( 99.95%)d 0.00(  0.05%)
                                           -0.0000  0.0061  0.0013  0.0000 -0.0687
                                            0.0004 -0.0001 -0.0418  0.0003 -0.0000
                                            0.9964 -0.0086  0.0056  0.0015 -0.0173
                                           -0.0134  0.0007 -0.0033
     3. (1.97057) BD ( 1) C   1 - C   6  
                ( 50.43%)   0.7101* C   1 s( 35.32%)p 1.83( 64.63%)d 0.00(  0.05%)
                                           -0.0002  0.5943 -0.0046  0.0004 -0.2608
                                           -0.0249  0.0023 -0.7581  0.0253 -0.0025
                                           -0.0484 -0.0004  0.0001  0.0150  0.0011
                                            0.0023 -0.0119 -0.0107
                ( 49.57%)   0.7041* C   6 s( 35.99%)p 1.78( 63.97%)d 0.00(  0.04%)
                                            0.0002  0.5998 -0.0112 -0.0000  0.1756
                                            0.0175  0.0013  0.7787  0.0029 -0.0006
                                            0.0456  0.0012  0.0001  0.0050  0.0002
                                            0.0018 -0.0175 -0.0104
     4. (1.99010) BD ( 1) C   1 - O  12  
                ( 32.09%)   0.5665* C   1 s( 24.02%)p 3.15( 75.76%)d 0.01(  0.22%)
                                           -0.0001  0.4895  0.0241 -0.0004 -0.6271
                                           -0.0389  0.0112  0.6018  0.0159 -0.0039
                                           -0.0171 -0.0024  0.0006 -0.0396  0.0016
                                           -0.0010  0.0046 -0.0246
                ( 67.91%)   0.8241* O  12 s( 33.40%)p 1.99( 66.54%)d 0.00(  0.06%)
                                           -0.0000  0.5779 -0.0019 -0.0002  0.6357
                                           -0.0059 -0.0017 -0.5105  0.0068 -0.0017
                                            0.0219 -0.0000 -0.0002 -0.0172  0.0019
                                           -0.0007  0.0121 -0.0138
     5. (1.96702) BD ( 1) C   2 - C   3  
                ( 50.40%)   0.7099* C   2 s( 36.82%)p 1.71( 63.14%)d 0.00(  0.03%)
                                           -0.0000  0.6067  0.0119  0.0006  0.5632
                                            0.0204  0.0015 -0.5599  0.0140  0.0018
                                            0.0116  0.0022  0.0002 -0.0143  0.0002
                                            0.0000 -0.0038 -0.0112
                ( 49.60%)   0.7043* C   3 s( 33.94%)p 1.95( 66.02%)d 0.00(  0.04%)
                                            0.0001  0.5825  0.0025  0.0000 -0.5508
                                            0.0074 -0.0015  0.5970  0.0168  0.0020
                                           -0.0091  0.0034 -0.0002 -0.0169 -0.0001
                                           -0.0005  0.0017 -0.0119
     6. (1.97403) BD ( 1) C   2 - H   7  
                ( 61.21%)   0.7823* C   2 s( 28.15%)p 2.55( 71.81%)d 0.00(  0.05%)
                                           -0.0003  0.5301 -0.0215 -0.0015  0.2360
                                            0.0046 -0.0020  0.8124 -0.0062 -0.0047
                                            0.0471  0.0001 -0.0004  0.0089  0.0006
                                            0.0015 -0.0152 -0.0124
                ( 38.79%)   0.6229* H   7 s( 99.96%)p 0.00(  0.04%)
                                            0.9998  0.0024  0.0016 -0.0086 -0.0189
                                           -0.0007
     7. (1.97350) BD ( 1) C   3 - C   4  
                ( 50.48%)   0.7105* C   3 s( 35.53%)p 1.81( 64.42%)d 0.00(  0.04%)
                                            0.0000  0.5961  0.0035  0.0000 -0.2073
                                            0.0171 -0.0001 -0.7733 -0.0143 -0.0019
                                           -0.0524 -0.0003 -0.0003  0.0105  0.0013
                                            0.0016 -0.0131 -0.0110
                ( 49.52%)   0.7037* C   4 s( 36.88%)p 1.71( 63.08%)d 0.00(  0.04%)
                                            0.0001  0.6073  0.0082  0.0006  0.2538
                                            0.0301  0.0012  0.7499 -0.0024  0.0005
                                            0.0551  0.0011  0.0002  0.0074  0.0010
                                            0.0025 -0.0143 -0.0111
     8. (1.70099) BD ( 2) C   3 - C   4  
                ( 50.53%)   0.7109* C   3 s(  0.02%)p99.99( 99.95%)d 2.42(  0.04%)
                                           -0.0000 -0.0081  0.0097  0.0002 -0.0811
                                            0.0033 -0.0010 -0.0520  0.0033  0.0004
                                            0.9950 -0.0075 -0.0005 -0.0001 -0.0127
                                           -0.0149 -0.0005 -0.0023
                ( 49.47%)   0.7033* C   4 s(  0.00%)p 1.00( 99.96%)d 0.00(  0.04%)
                                            0.0001 -0.0032  0.0014  0.0000 -0.0637
                                           -0.0029  0.0003 -0.0490  0.0010  0.0002
                                            0.9965 -0.0045  0.0046 -0.0007 -0.0032
                                            0.0202  0.0014  0.0013
     9. (1.97741) BD ( 1) C   3 - C  17  
                ( 51.21%)   0.7156* C   3 s( 30.48%)p 2.28( 69.49%)d 0.00(  0.03%)
                                            0.0000  0.5521 -0.0036 -0.0002  0.8040
                                           -0.0083 -0.0005  0.2045 -0.0052 -0.0013
                                            0.0808  0.0004  0.0005  0.0079  0.0029
                                            0.0011  0.0129 -0.0103
                ( 48.79%)   0.6985* C  17 s( 32.02%)p 2.12( 67.93%)d 0.00(  0.05%)
                                            0.0004  0.5657  0.0136  0.0006 -0.7971
                                           -0.0045  0.0038 -0.1842  0.0091  0.0035
                                           -0.0995 -0.0073 -0.0000  0.0081  0.0046
                                            0.0030  0.0177 -0.0086
    10. (1.97395) BD ( 1) C   4 - C   5  
                ( 49.82%)   0.7058* C   4 s( 35.52%)p 1.81( 64.44%)d 0.00(  0.05%)
                                            0.0001  0.5957  0.0153  0.0006 -0.7692
                                           -0.0016 -0.0011 -0.2179 -0.0431 -0.0018
                                           -0.0580 -0.0016 -0.0003  0.0051  0.0023
                                            0.0004  0.0169 -0.0115
                ( 50.18%)   0.7084* C   5 s( 36.75%)p 1.72( 63.21%)d 0.00(  0.04%)
                                           -0.0000  0.6060  0.0160  0.0003  0.7752
                                           -0.0217 -0.0004  0.1612  0.0363 -0.0010
                                            0.0580  0.0006 -0.0000  0.0109  0.0025
                                            0.0010  0.0123 -0.0110
    11. (1.97845) BD ( 1) C   4 - H   8  
                ( 60.17%)   0.7757* C   4 s( 27.56%)p 2.63( 72.39%)d 0.00(  0.05%)
                                           -0.0004  0.5245 -0.0213 -0.0010  0.5811
                                           -0.0137 -0.0032 -0.6212  0.0027  0.0045
                                            0.0083 -0.0009  0.0000 -0.0187  0.0003
                                            0.0001 -0.0014 -0.0124
                ( 39.83%)   0.6311* H   8 s( 99.95%)p 0.00(  0.05%)
                                            0.9998 -0.0008  0.0014 -0.0148  0.0158
                                           -0.0000
    12. (1.97405) BD ( 1) C   5 - C   6  
                ( 49.41%)   0.7029* C   5 s( 35.08%)p 1.85( 64.87%)d 0.00(  0.05%)
                                            0.0001  0.5922  0.0085  0.0008 -0.5785
                                            0.0336 -0.0008  0.5591  0.0165  0.0003
                                           -0.0071  0.0030  0.0000 -0.0183  0.0004
                                            0.0000 -0.0018 -0.0128
                ( 50.59%)   0.7112* C   6 s( 38.60%)p 1.59( 61.37%)d 0.00(  0.03%)
                                           -0.0001  0.6213 -0.0042  0.0003  0.5084
                                            0.0335  0.0014 -0.5947  0.0181 -0.0001
                                            0.0090  0.0030  0.0001 -0.0145  0.0004
                                           -0.0001 -0.0012 -0.0098
    13. (1.67556) BD ( 2) C   5 - C   6  
                ( 51.70%)   0.7191* C   5 s(  0.00%)p 1.00( 99.95%)d 0.00(  0.05%)
                                            0.0000 -0.0009  0.0004 -0.0001 -0.0631
                                           -0.0009 -0.0004 -0.0516 -0.0008 -0.0004
                                            0.9963  0.0122  0.0075 -0.0013 -0.0049
                                            0.0221  0.0014  0.0013
                ( 48.30%)   0.6950* C   6 s(  0.00%)p 1.00( 99.95%)d 0.00(  0.05%)
                                           -0.0000  0.0001 -0.0003  0.0001 -0.0680
                                           -0.0010 -0.0002 -0.0430 -0.0007 -0.0004
                                            0.9964  0.0147  0.0078 -0.0006  0.0214
                                           -0.0047 -0.0018  0.0018
    14. (1.97643) BD ( 1) C   5 - H   9  
                ( 60.79%)   0.7797* C   5 s( 28.13%)p 2.55( 71.83%)d 0.00(  0.05%)
                                            0.0003 -0.5299  0.0210  0.0009  0.2410
                                            0.0062 -0.0032  0.8105  0.0082 -0.0058
                                            0.0567  0.0010 -0.0005 -0.0109 -0.0011
                                           -0.0026  0.0136  0.0122
                ( 39.21%)   0.6262* H   9 s( 99.95%)p 0.00(  0.05%)
                                           -0.9998 -0.0000 -0.0013 -0.0069 -0.0201
                                           -0.0015
    15. (1.99274) BD ( 1) C   6 - O  10  
                ( 33.17%)   0.5759* C   6 s( 25.07%)p 2.98( 74.73%)d 0.01(  0.20%)
                                           -0.0001  0.5000  0.0279 -0.0009 -0.8385
                                            0.0404  0.0128 -0.1924  0.0330  0.0062
                                           -0.0656  0.0041  0.0011  0.0133  0.0059
                                            0.0012  0.0346 -0.0238
                ( 66.83%)   0.8175* O  10 s( 34.20%)p 1.92( 65.72%)d 0.00(  0.08%)
                                            0.0000  0.5848 -0.0056 -0.0002  0.7873
                                           -0.0049 -0.0003  0.1831  0.0037 -0.0037
                                            0.0617 -0.0002 -0.0002  0.0178  0.0036
                                            0.0018  0.0141 -0.0158
    16. (1.98759) BD ( 1) O  10 - H  11  
                ( 74.41%)   0.8626* O  10 s( 20.98%)p 3.76( 78.93%)d 0.00(  0.09%)
                                           -0.0002  0.4580  0.0067 -0.0003 -0.5087
                                            0.0255 -0.0019  0.7279 -0.0074 -0.0016
                                           -0.0012  0.0014 -0.0002 -0.0143 -0.0004
                                            0.0012 -0.0219 -0.0149
                ( 25.59%)   0.5058* H  11 s( 99.82%)p 0.00(  0.18%)
                                            0.9991 -0.0079  0.0003  0.0230 -0.0351
                                           -0.0001
    17. (1.99207) BD ( 1) O  12 - C  13  
                ( 68.66%)   0.8286* O  12 s( 28.69%)p 2.48( 71.25%)d 0.00(  0.06%)
                                           -0.0000  0.5356  0.0053 -0.0002  0.1734
                                            0.0247 -0.0023  0.8237 -0.0112  0.0004
                                            0.0567  0.0011 -0.0002  0.0165  0.0017
                                            0.0031 -0.0121 -0.0133
                ( 31.34%)   0.5598* C  13 s( 22.36%)p 3.46( 77.37%)d 0.01(  0.27%)
                                            0.0002  0.4700  0.0517 -0.0011 -0.1422
                                            0.0413 -0.0017 -0.8636  0.0500  0.0103
                                           -0.0566  0.0057  0.0004  0.0146  0.0011
                                            0.0058 -0.0418 -0.0266
    18. (1.99539) BD ( 1) C  13 - H  14  
                ( 58.95%)   0.7678* C  13 s( 26.19%)p 2.82( 73.74%)d 0.00(  0.07%)
                                            0.0000  0.5116 -0.0131  0.0001  0.4885
                                            0.0086 -0.0013  0.2396 -0.0136  0.0021
                                           -0.6641 -0.0086 -0.0035  0.0059 -0.0196
                                           -0.0108  0.0084  0.0106
                ( 41.05%)   0.6407* H  14 s( 99.96%)p 0.00(  0.04%)
                                            0.9998  0.0041  0.0002 -0.0106 -0.0061
                                            0.0168
    19. (1.99058) BD ( 1) C  13 - H  15  
                ( 59.35%)   0.7704* C  13 s( 25.47%)p 2.92( 74.46%)d 0.00(  0.07%)
                                           -0.0001  0.5046 -0.0005  0.0004 -0.7634
                                           -0.0148 -0.0015  0.4010  0.0036  0.0007
                                           -0.0285 -0.0009 -0.0000 -0.0183  0.0014
                                           -0.0009  0.0151 -0.0119
                ( 40.65%)   0.6376* H  15 s( 99.96%)p 0.00(  0.04%)
                                            0.9998  0.0000  0.0005  0.0187 -0.0091
                                            0.0007
    20. (1.99540) BD ( 1) C  13 - H  16  
                ( 59.01%)   0.7682* C  13 s( 26.21%)p 2.81( 73.72%)d 0.00(  0.07%)
                                            0.0000  0.5118 -0.0133  0.0001  0.3956
                                            0.0076 -0.0018  0.1627 -0.0145  0.0018
                                            0.7442  0.0082  0.0035  0.0026  0.0180
                                            0.0079  0.0070  0.0168
                ( 40.99%)   0.6403* H  16 s( 99.96%)p 0.00(  0.04%)
                                            0.9998  0.0041  0.0002 -0.0083 -0.0042
                                           -0.0186
    21. (1.97322) BD ( 1) C  17 - H  18  
                ( 59.27%)   0.7698* C  17 s( 23.07%)p 3.33( 76.85%)d 0.00(  0.08%)
                                           -0.0002  0.4800 -0.0179 -0.0002  0.1913
                                           -0.0070  0.0012  0.1943  0.0021 -0.0016
                                            0.8329  0.0176  0.0068 -0.0005  0.0082
                                            0.0130  0.0003  0.0236
                ( 40.73%)   0.6382* H  18 s( 99.96%)p 0.00(  0.04%)
                                            0.9998  0.0032  0.0005 -0.0049 -0.0026
                                           -0.0194
    22. (1.98610) BD ( 1) C  17 - H  19  
                ( 58.40%)   0.7642* C  17 s( 23.74%)p 3.21( 76.19%)d 0.00(  0.07%)
                                           -0.0002  0.4866 -0.0249  0.0003  0.5259
                                           -0.0021  0.0032 -0.6500 -0.0185 -0.0010
                                           -0.2497 -0.0129 -0.0029 -0.0207 -0.0048
                                            0.0122 -0.0078 -0.0091
                ( 41.60%)   0.6450* H  19 s( 99.96%)p 0.00(  0.04%)
                                            0.9998  0.0027  0.0010 -0.0122  0.0144
                                            0.0045
    23. (1.99294) BD ( 1) C  17 - O  20  
                ( 33.06%)   0.5750* C  17 s( 21.42%)p 3.66( 78.37%)d 0.01(  0.21%)
                                            0.0001  0.4597  0.0536 -0.0012  0.2227
                                           -0.0423 -0.0012  0.7069 -0.0476 -0.0100
                                           -0.4796  0.0165  0.0023  0.0148 -0.0107
                                           -0.0349 -0.0235 -0.0012
                ( 66.94%)   0.8182* O  20 s( 29.87%)p 2.35( 70.05%)d 0.00(  0.08%)
                                            0.0000  0.5465  0.0080 -0.0000 -0.2068
                                           -0.0070  0.0013 -0.7020 -0.0033  0.0028
                                            0.4060 -0.0086  0.0030  0.0158 -0.0030
                                           -0.0112 -0.0186 -0.0073
    24. (1.99061) BD ( 1) O  20 - H  21  
                ( 72.69%)   0.8526* O  20 s( 20.02%)p 3.99( 79.88%)d 0.00(  0.09%)
                                            0.0001 -0.4473 -0.0116  0.0002  0.1851
                                            0.0003 -0.0011  0.0997  0.0145 -0.0017
                                            0.8680 -0.0313 -0.0004 -0.0070 -0.0140
                                           -0.0153  0.0027 -0.0212
                ( 27.31%)   0.5226* H  21 s( 99.89%)p 0.00(  0.11%)
                                           -0.9994  0.0042 -0.0019 -0.0077 -0.0010
                                           -0.0328
    25. (1.99869) CR ( 1) C   1           s(100.00%)p 0.00(  0.00%)
                                            1.0000  0.0002  0.0000  0.0000 -0.0001
                                           -0.0000  0.0000 -0.0001  0.0000 -0.0000
                                           -0.0000  0.0000 -0.0000  0.0000 -0.0000
                                            0.0000 -0.0000 -0.0000
    26. (1.99894) CR ( 1) C   2           s(100.00%)p 0.00(  0.00%)
                                            1.0000  0.0002 -0.0000 -0.0000  0.0001
                                            0.0000 -0.0000  0.0002 -0.0000 -0.0000
                                            0.0000  0.0000 -0.0000  0.0000  0.0000
                                            0.0000 -0.0000 -0.0000
    27. (1.99897) CR ( 1) C   3           s(100.00%)
                                            1.0000 -0.0001  0.0000  0.0000  0.0000
                                           -0.0000  0.0000 -0.0000 -0.0000 -0.0000
[...]
 5,-0.00508400,-0.00142621,0.00749779,-0.00013692,-0.00044841,0.0058659
 3,-0.00023980,0.00036140,-0.00096106,-0.00017111,-0.00062888,0.0053167
 9,-0.00181949,0.00046484,0.00590351,-0.01789142,-0.00871851,-0.0413744
 0,-0.00005532,-0.00004180,-0.00041421,0.00000414,-0.00001704,0.0002766
 0,0.00030864,0.00023987,-0.00385903,0.02711299,0.01251492,0.03076671,-
 0.00198196,0.00172806,-0.00012948,-0.00073850,0.00115436,0.00010162,0.
 00044000,-0.00052195,-0.00008793,0.00006621,0.00203295,-0.00006271,-0.
 00578613,-0.00433754,-0.00066034,-0.03579195,0.04049040,-0.00053050,0.
 00027430,0.00007591,0.00001558,-0.00037614,-0.00019248,-0.00002678,0.0
 0004937,-0.00002341,0.00003602,-0.15134761,0.16499257,-0.00254316,0.19
 387131,-0.00999338,0.00368564,-0.00062433,0.00179793,-0.00094918,0.000
 03810,-0.00086160,-0.00009712,0.00021867,0.00095256,0.00027210,0.00001
 363,-0.00464386,0.00068883,-0.00033228,0.00041544,0.00934924,0.0005028
 5,-0.00032691,-0.00008579,-0.00002348,-0.00019754,0.00002027,-0.000005
 72,-0.00006483,0.00009139,0.00003683,0.21535336,-0.39044438,-0.0022876
 5,-0.20632301,0.37977408,-0.00075220,0.00014559,0.00176431,0.00011132,
 0.00005601,-0.00071748,0.00002502,0.00000158,-0.00012093,-0.00007726,0
 .00004648,0.00185522,-0.00061711,-0.00034464,0.00106336,-0.00221959,0.
 00334346,-0.00217359,-0.00001175,0.00000073,0.00016431,-0.00000470,-0.
 00001752,-0.00002850,0.00003377,0.00003931,-0.00055434,-0.00039884,-0.
 00563934,-0.00664019,0.00347810,0.00231623,0.00797270,-0.20840311,0.05
 816191,-0.00980605,-0.03646340,0.03460645,-0.00136214,-0.00243594,-0.0
 0366072,-0.00117174,-0.00666239,0.00090433,-0.00025293,0.00411013,-0.0
 0679851,-0.00024695,-0.00790435,0.01247695,-0.00042773,0.00242526,-0.0
 0009934,0.00045634,-0.00001381,0.00013156,0.00002908,0.00040007,-0.000
 20705,-0.00001735,0.01206371,-0.00461270,0.00071707,-0.00028148,0.0016
 0038,0.00026014,0.33568445,0.09408495,-0.16711818,0.00119123,0.0038899
 9,0.00831327,0.00062135,-0.00085268,-0.00664986,-0.00121545,0.00798508
 ,0.00195506,0.00041782,-0.01164401,-0.00042179,-0.00089805,0.04561617,
 -0.05708191,0.00064664,0.00123925,-0.00071384,0.00005958,0.00041721,0.
 00010852,0.00003770,0.00148920,-0.00141093,0.00003413,0.00065328,-0.00
 136512,0.00003675,0.00159089,-0.00071500,0.00013382,-0.06581811,0.5208
 4039,-0.00800323,-0.00184201,-0.03858062,-0.00263477,0.00236121,0.0047
 2700,-0.00030383,-0.00053517,0.00723600,-0.00026133,0.00008378,-0.0011
 9256,-0.00022627,-0.00087305,0.00411424,0.00072039,-0.00150511,0.00608
 647,0.00038677,0.00000219,-0.00330688,0.00004836,0.00003242,-0.0005196
 7,0.00009323,-0.00008198,0.00010112,0.00121390,-0.00038356,-0.00214477
 ,0.00021374,0.00027028,-0.00149611,0.01705805,0.01810597,0.06863554,0.
 00711165,0.03382253,0.00265286,-0.00138593,0.00462760,0.00019467,0.000
 18140,0.00014981,0.00000525,-0.00027461,0.00040428,0.00000620,0.000813
 16,0.00095887,-0.00000483,-0.00828865,0.00159322,-0.00066093,-0.001488
 43,0.00170972,0.00003963,-0.00003874,0.00000507,0.00000422,-0.00031030
 ,0.00037280,0.00002789,0.00190422,-0.00197978,0.00005399,0.00137184,0.
 00177411,0.00020785,-0.09888439,-0.05357594,-0.00595704,0.60615281,0.0
 1167955,-0.04450620,-0.00116466,-0.00222305,0.00600479,-0.00003059,-0.
 00182793,-0.00041127,0.00012711,-0.00267595,0.00044392,-0.00012549,0.0
 0117083,-0.00203112,-0.00006807,-0.00090284,0.00455038,-0.00006274,-0.
 00045904,-0.00116319,0.00004144,-0.00018588,-0.00003206,0.00000812,0.0
 0010777,0.00022173,0.00004287,0.00162619,0.00163051,0.00014050,-0.0018
 7081,-0.00283420,-0.00018126,-0.02022281,-0.20395950,-0.00920709,-0.04
 160793,0.45673582,0.00151887,0.00065132,-0.00472431,-0.00032952,0.0007
 5613,-0.00058359,-0.00001507,-0.00002023,0.00027602,-0.00011725,0.0000
 2715,0.00042841,0.00002017,0.00001508,0.00093544,-0.00083522,0.0002281
 8,0.00239276,-0.00007869,-0.00002677,-0.00026031,-0.00000273,0.0000150
 4,-0.00019491,-0.00000416,0.00007019,-0.00035171,0.00015771,0.00000863
 ,0.00021442,0.00003421,-0.00004190,-0.00106058,-0.00411890,-0.01216869
 ,-0.05882322,0.00098331,-0.00918835,0.56493649,0.00003951,0.00126647,-
 0.00104826,0.00008412,-0.00070055,-0.00038960,-0.00009788,0.00033835,0
 .00046448,0.00005784,-0.00035618,0.00003871,0.00019325,0.00004282,0.00
 005837,0.00038941,0.00010763,0.00014832,-0.00046191,0.00082255,-0.0008
 0135,0.00001923,-0.00000544,-0.00007547,0.00001017,-0.00003457,-0.0000
 0569,-0.00028766,-0.00015506,-0.00011971,0.00019204,0.00028062,0.00019
 297,-0.00224315,-0.00998091,0.00227974,-0.13221939,-0.03655983,0.11170
 473,0.13920241,-0.00585251,0.00527027,0.00106464,0.00062308,0.00067794
 ,-0.00009285,0.00050172,-0.00072148,-0.00044869,0.00075752,0.00048299,
 0.00003796,-0.00083087,0.00033072,-0.00019134,-0.00012350,-0.00177497,
 -0.00058534,0.00072279,-0.00039052,0.00087865,0.00002678,0.00001728,0.
 00006041,0.00000892,-0.00003202,0.00008506,0.00051754,-0.00033048,-0.0
 0006544,0.00052051,0.00084629,0.00042721,-0.02242499,-0.03126679,0.024
 92759,-0.03250038,-0.06481180,0.04745276,0.04730080,0.08157421,0.00091
 400,-0.00080925,0.00068925,0.00094183,0.00084620,-0.00009171,-0.000421
 42,-0.00024792,0.00001288,-0.00007398,-0.00000822,-0.00011413,0.000086
 16,-0.00013321,-0.00000841,-0.00025184,0.00032718,-0.00030875,-0.00057
 901,-0.00038320,-0.00007661,-0.00001807,-0.00006073,0.00002842,-0.0000
 1496,0.00000819,0.00001955,-0.00008494,-0.00014719,0.00004817,-0.00001
 117,-0.00007706,-0.00002202,-0.00396823,0.00309211,0.00934879,0.111491
 49,0.05165392,-0.20651367,-0.12282867,-0.05899358,0.21521214,0.0008658
 6,-0.00254636,-0.00008308,-0.00060960,-0.00042235,-0.00007619,0.000365
 00,0.00012385,0.00002689,-0.00004632,0.00014438,0.00000403,-0.00013330
 ,-0.00002105,-0.00000796,0.00024017,-0.00029721,-0.00001397,0.00033782
 ,0.00054852,0.00005190,0.00000254,0.00004840,0.00000316,0.00002283,-0.
 00001168,0.00000415,0.00021272,0.00019411,0.00002738,-0.00015529,-0.00
 010406,-0.00002414,0.01109932,-0.00528702,0.00042767,-0.27158494,0.112
 54640,-0.00893935,-0.01394603,0.00686893,-0.00186547,0.28412550,-0.004
 28120,-0.00361871,-0.00060507,-0.00105093,-0.00030854,-0.00008211,0.00
 039383,0.00003921,-0.00000072,0.00016499,0.00013414,-0.00000106,-0.000
 63356,-0.00031438,-0.00003862,0.00237939,-0.00081622,0.00009518,0.0001
 3861,0.00061046,0.00004729,0.00003073,0.00002054,0.00000489,0.00012084
 ,-0.00012841,0.00000462,-0.00055716,0.00011984,-0.00002988,0.00019847,
 -0.00023326,-0.00000561,0.03259279,-0.03315491,0.00055051,0.09932707,-
 0.09487904,0.00429757,-0.00721423,0.00606376,-0.00153575,-0.11681201,0
 .12196565,-0.00020537,-0.00036554,0.00048999,-0.00011749,-0.00005147,0
 .00037327,0.00003314,-0.00001267,0.00015276,0.00001371,0.00002903,-0.0
 0002529,-0.00005278,-0.00001385,-0.00002432,0.00011573,-0.00009426,0.0
 0033995,0.00003949,0.00009667,-0.00045226,0.00000383,0.00000560,-0.000
 02554,0.00001031,-0.00000561,-0.00003948,-0.00000267,0.00002678,-0.000
 11076,-0.00001257,-0.00002509,0.00016001,0.00250984,-0.00217905,0.0001
 5192,-0.00966893,0.00522023,-0.05125387,0.02239023,-0.01152461,0.00234
 269,0.00980392,-0.00387469,0.04702246,0.00016818,0.00098837,0.00115072
 ,0.00018451,-0.00063049,0.00025389,-0.00015955,0.00032548,-0.00037419,
 0.00004506,-0.00037631,-0.00006883,0.00022966,0.00003149,-0.00002462,0
 .00038797,0.00019803,-0.00002522,-0.00048916,0.00069199,0.00086965,0.0
 0000922,-0.00002221,0.00007140,0.00000776,-0.00003352,-0.00000503,-0.0
 0033825,-0.00017217,0.00006074,0.00020278,0.00026359,-0.00014468,-0.00
 216073,-0.00863383,-0.00478885,-0.10321920,-0.01867549,-0.09997718,0.0
 0905506,0.00392764,0.01660567,-0.01078316,-0.00478770,-0.02486699,0.10
 682464,-0.00551599,0.00542735,-0.00135848,0.00063297,0.00079608,0.0002
 9549,0.00041185,-0.00080045,0.00032982,0.00076800,0.00050693,0.0000861
 1,-0.00086964,0.00032992,0.00011736,-0.00024622,-0.00180345,0.00045612
 ,0.00069137,-0.00044398,-0.00086152,0.00003150,0.00001814,-0.00006302,
 0.00001323,-0.00001686,-0.00008415,0.00048804,-0.00032590,0.00010286,0
 .00054746,0.00083522,-0.00029125,-0.01873195,-0.02768107,-0.03186879,-
 0.01508349,-0.05540492,-0.03205652,0.00488523,0.00409192,0.00644835,0.
 00504653,0.00455256,0.01277009,0.02694542,0.06993789,-0.00156858,0.001
 46392,0.00064829,-0.00078082,-0.00085308,-0.00005292,0.00038684,0.0001
 5107,-0.00002468,0.00019875,0.00004400,-0.00008944,-0.00016672,0.00018
 730,-0.00000672,0.00035278,-0.00049851,-0.00024530,0.00056905,0.000456
 76,-0.00007883,0.00002026,0.00005546,0.00003437,0.00001412,-0.00001801
 ,0.00001259,0.00006577,0.00008680,0.00008801,0.00010079,0.00020537,-0.
 00006056,0.00025229,-0.00829466,0.00526356,-0.09934995,-0.03701079,-0.
 24528637,-0.01197957,-0.00308306,-0.02056381,0.00066455,0.00114775,0.0
 0085365,0.11126018,0.04595581,0.25945950,0.00091420,0.00574978,-0.0000
 1998,-0.03039833,-0.00019517,-0.00234642,-0.18955479,-0.01302813,-0.02
 143237,-0.00810743,-0.00978390,-0.00301124,0.00263176,0.00129291,0.001
 73326,-0.00320053,-0.00141937,0.00001857,0.00009423,-0.00179069,0.0000
 7888,0.00057106,0.00272195,-0.00070894,0.00063962,0.00037995,0.0001766
 5,0.00320730,0.00041515,0.00009303,-0.00035639,0.00037598,-0.00010387,
 0.00092881,-0.00261362,-0.00028877,0.00032855,0.00109687,0.00002656,-0
 .00009749,-0.00013075,0.00003647,0.00009478,-0.00009225,0.00000788,-0.
 00007675,-0.00011127,-0.00001604,0.48568715,0.00294219,-0.00325125,0.0
 0084723,0.02090539,0.01280661,0.00531243,-0.01313842,-0.09131091,-0.00
 950437,-0.02920958,-0.00585466,-0.00387429,-0.00053534,-0.00465952,-0.
 00057069,-0.00093185,-0.00221883,-0.00020126,0.00128922,-0.00149873,-0
 .00081196,-0.00174788,0.00009302,0.00006045,-0.00100488,-0.00005173,0.
 00004295,0.00126749,0.00028653,0.00014406,-0.00017530,0.00007578,-0.00
 002702,0.00331729,-0.00168353,-0.00016486,0.00046250,0.00167854,-0.000
 00841,-0.00009857,-0.00017875,0.00021140,-0.00004660,-0.00017578,0.000
 00943,-0.00005071,-0.00012600,-0.00014765,-0.05398811,0.51337577,-0.00
 107663,-0.00197013,0.00516313,0.00226156,-0.00092469,-0.00060692,-0.01
 705460,-0.00330578,-0.07178085,-0.00301168,-0.00115077,0.00128981,0.00
 078132,0.00003237,0.00755458,0.00090062,0.00146815,-0.00095227,-0.0006
 1280,0.00089546,-0.00210679,0.00020515,-0.00009801,-0.00409042,-0.0000
 7395,-0.00005075,0.00054481,-0.00167360,-0.00020603,-0.00046810,0.0000
 9881,-0.00024651,-0.00007611,0.00001031,0.00073603,0.00055219,-0.00015
 502,-0.00048443,0.00008493,-0.00004061,0.00010161,-0.00012000,0.000014
 64,0.00005190,-0.00000002,0.00000507,0.00001245,0.00004678,0.01656467,
 0.05726171,0.56084596,-0.00051789,-0.00092604,0.00093510,0.00106860,-0
 .00081126,0.00043114,-0.01130948,-0.00996175,-0.02881721,-0.00063080,0
 .00165953,-0.00030700,-0.00142147,0.00011204,0.00116241,0.00117730,-0.
 00018880,-0.00025874,-0.00011906,0.00039633,-0.00068536,0.00008841,-0.
 00024631,-0.00055542,-0.00016090,-0.00007053,0.00008161,-0.00142126,-0
 .00009957,-0.00006755,0.00008107,-0.00019565,-0.00003284,0.00001342,0.
 00036730,0.00009335,-0.00006983,-0.00024304,-0.00008426,0.00001405,0.0
 0002020,0.00000609,-0.00000578,0.00002777,0.00001421,0.00001467,0.0000
 3601,0.00003576,-0.05894240,-0.00851792,-0.05416023,0.06385514,-0.0009
 7338,-0.00154391,0.00005065,0.00160505,-0.00023110,0.00001243,-0.00376
 850,-0.00009814,-0.00529073,-0.00094703,-0.00008336,0.00016725,0.00007
 628,0.00026459,0.00070365,0.00055476,0.00105512,0.00015813,-0.00007359
 ,0.00006506,-0.00011155,-0.00001418,0.00000816,-0.00050918,0.00000426,
 -0.00003938,-0.00006146,-0.00096848,-0.00018771,-0.00017732,0.00008620
 ,-0.00010621,-0.00001352,-0.00011750,0.00045028,0.00003721,-0.00004138
 ,-0.00019980,-0.00000868,0.00000908,0.00004298,-0.00000706,-0.00001153
 ,0.00002420,-0.00000451,0.00001658,0.00002807,0.00000401,-0.00924010,-
 0.06200501,-0.06931183,0.01590775,0.07246680,-0.00041824,-0.00036567,0
 .00007613,0.00064580,-0.00022410,0.00075623,-0.00318237,-0.00274678,0.
 00056383,-0.00066837,0.00048226,0.00006061,-0.00019821,-0.00024063,0.0
 0005582,0.00026281,0.00025746,0.00001812,0.00003752,0.00006951,-0.0003
 4892,-0.00001296,0.00012206,-0.00019591,-0.00007481,-0.00001840,-0.000
 00358,-0.00007269,0.00000421,-0.00005216,0.00001877,-0.00000307,-0.000
 01948,-0.00018432,0.00019012,0.00001440,-0.00000964,-0.00007544,-0.000
 07180,0.00000603,0.00000813,0.00001037,-0.00000507,0.00000848,0.000008
 06,0.00000265,0.00001505,0.00001689,-0.04732012,-0.05621356,-0.2743022
 5,0.05246882,0.05320657,0.30665425,0.00014195,0.00167438,-0.00051531,-
 0.00499533,-0.00329897,-0.00014301,-0.02108611,0.02404763,0.00908532,0
 .00135067,0.00255092,-0.00049994,-0.00031148,-0.00036658,-0.00031977,0
 .00044818,-0.00020716,0.00015367,0.00031397,-0.00000080,0.00025812,0.0
 0023719,-0.00135074,0.00034139,-0.00004917,-0.00001785,-0.00002214,-0.
 00033861,-0.00017845,-0.00002702,0.00008576,0.00002474,0.00001338,-0.0
 0078409,-0.00002331,-0.00009194,-0.00000860,-0.00023994,-0.00000635,0.
 00002734,0.00000713,0.00001540,-0.00002302,0.00002005,-0.00000299,0.00
 002965,0.00000595,-0.00001490,-0.13434001,0.10492782,0.04334420,0.0045
 9398,-0.00443990,-0.00151803,0.14489692,-0.00038064,0.00032553,-0.0001
 2389,-0.00149182,0.00001334,-0.00063952,-0.00312079,0.00570920,0.00055
 583,-0.00194078,0.00031769,0.00008317,0.00047762,0.00024981,0.00069861
 ,-0.00037983,0.00015802,0.00016955,-0.00040046,0.00007641,0.00029436,0
 .00022254,0.00054520,-0.00054785,0.00006208,0.00001157,-0.00004427,0.0
 0028674,0.00008333,-0.00006033,-0.00004645,0.00002536,-0.00004737,-0.0
 0014332,0.00008834,-0.00002002,-0.00006472,-0.00010171,0.00000912,-0.0
 0001286,0.00001596,-0.00003982,0.00002365,0.00001076,-0.00000382,-0.00
 001691,0.00000731,0.00002956,0.10779409,-0.18144575,-0.05548560,0.0050
 4356,-0.00412991,-0.00438122,-0.11319966,0.21278747,-0.00062093,-0.000
 30264,0.00008827,0.00022906,-0.00051775,0.00119863,-0.00720930,0.00267
 369,0.00248366,0.00016330,0.00020302,0.00022952,0.00027149,0.00025898,
 -0.00022520,-0.00008903,0.00043503,0.00013341,0.00014226,0.00014112,-0
 .00026938,0.00017688,0.00013559,0.00016376,0.00004727,-0.00001015,-0.0
 0001712,-0.00006033,-0.00002975,-0.00003542,-0.00000007,-0.00001405,0.
 00000272,-0.00001739,0.00001554,-0.00016335,0.00000702,-0.00000034,-0.
 00001450,-0.00000026,0.00000572,0.00000710,0.00000567,0.00000126,0.000
 00654,0.00000171,0.00000483,0.00000406,0.04478876,-0.05859931,-0.07698
 020,0.01805626,-0.02338908,-0.00824093,-0.04586429,0.05532295,0.074624
 12,0.00237971,-0.00272729,-0.00020354,-0.00021299,0.00019933,0.0015650
 0,-0.01083616,-0.03766243,0.01812309,-0.00477301,0.00265742,0.00165688
 ,-0.00136630,-0.00144224,-0.00160052,0.00163451,-0.00032506,0.00038216
 ,-0.00020774,-0.00161562,-0.00049656,0.00014884,-0.00057158,0.00048413
 ,-0.00054658,-0.00015584,-0.00036056,-0.00223615,-0.00038656,-0.000259
 26,0.00031675,-0.00014969,0.00005836,-0.00092776,0.00155502,0.00003695
 ,-0.00006757,-0.00076227,-0.00005384,0.00012947,0.00002812,0.00007519,
 -0.00014889,0.00004735,0.00001056,0.00009858,0.00007823,-0.00003679,-0
 .07091269,-0.02423321,0.00073686,0.00330599,0.00383654,-0.00152267,0.0
 0981210,0.00759301,-0.00899775,0.11377950,-0.00012712,-0.00064073,-0.0
 0058888,0.00343090,-0.00231557,-0.00214341,-0.01341945,-0.02073435,0.0
 1252420,-0.00384338,0.00185050,0.00163303,-0.00033150,-0.00028403,-0.0
 0112361,0.00173933,0.00049160,0.00031112,-0.00078324,0.00161759,0.0010
 8625,0.00042237,0.00078630,0.00064322,-0.00044837,-0.00015602,-0.00023
 495,-0.00191548,0.00006924,-0.00014514,0.00010115,-0.00028911,0.000062
 30,-0.00116309,0.00202489,0.00005829,-0.00049918,-0.00131906,0.0001110
 3,0.00007873,0.00015137,-0.00021441,0.00002715,0.00012029,-0.00002810,
 0.00004942,0.00008825,0.00011729,-0.03399861,-0.17341393,0.03076685,-0
 .00083543,-0.00119944,0.00655775,-0.01081559,-0.03505319,0.02297039,0.
 09157235,0.28177812,0.00023664,0.00116667,0.00023310,-0.00139973,0.000
 99317,0.00208859,0.00491627,0.00383928,0.00159739,0.00172961,-0.000165
 36,-0.00005661,-0.00126415,0.00050542,-0.00000605,-0.00034763,-0.00135
 955,-0.00025473,-0.00026275,-0.00036031,-0.00102480,-0.00034706,0.0000
 4969,-0.00007768,0.00018496,0.00008358,0.00004755,0.00082717,0.0001662
 4,0.00010489,-0.00010142,0.00008439,-0.00004143,0.00069018,-0.00095501
 ,0.00003369,0.00016076,0.00057677,-0.00015444,-0.00004163,-0.00007687,
 0.00006729,0.00001826,-0.00005002,0.00002733,-0.00004649,-0.00002895,0
 .00001150,0.01787416,0.07103159,-0.12040469,0.01054802,0.03917698,-0.0
 2472104,-0.00338784,0.00533482,0.00538893,0.09443046,-0.01810686,0.605
 01366,-0.00103691,0.00035437,-0.00008177,-0.00030765,0.00043127,-0.001
 00284,0.00216124,0.00061360,0.00187017,-0.00045541,-0.00109153,-0.0002
 7178,0.00073890,0.00003803,0.00001387,-0.00075536,0.00030705,0.0000496
 3,-0.00034742,0.00039737,0.00095279,-0.00005605,0.00023484,0.00003846,
 0.00006142,0.00003431,0.00000110,0.00078745,0.00015327,0.00003679,-0.0
 0013595,0.00002181,0.00000608,0.00043943,-0.00045891,-0.00001611,-0.00
 002307,0.00022920,0.00011695,-0.00006040,0.00003131,-0.00005454,0.0000
 6978,-0.00001286,-0.00002307,-0.00003093,-0.00002324,-0.00000778,0.000
 88933,-0.00143353,0.01293590,0.00038626,-0.00150092,0.00174511,-0.0000
 0129,-0.00030506,-0.00103033,-0.03936962,-0.02924098,-0.12441777,0.037
 04624,-0.00004463,0.00040237,0.00002031,-0.00032795,0.00046528,0.00017
 836,0.00003777,0.00111796,-0.00074098,-0.00001751,-0.00041934,-0.00032
 045,0.00021148,-0.00021697,0.00000492,-0.00040474,-0.00008025,-0.00002
 660,0.00006622,-0.00012948,-0.00040192,0.00002964,-0.00012846,0.000061
 27,0.00002475,0.00001013,0.00001592,0.00050764,0.00000704,0.00004139,-
 0.00002795,0.00009005,-0.00000518,0.00020845,-0.00055832,0.00005217,0.
 00014521,0.00038818,-0.00012265,-0.00001410,-0.00005886,0.00007004,-0.
 00001204,-0.00003215,0.00002544,-0.00003868,-0.00001701,0.00000066,0.0
 0656531,-0.00044187,0.04190799,-0.00147419,-0.00458130,0.00334728,0.00
 088032,0.00030526,0.00069493,-0.03753558,-0.05357271,-0.10190568,0.031
 22058,0.05745046,0.00071380,-0.00018522,-0.00007801,-0.00019027,-0.000
 02699,0.00021207,0.00065333,-0.00178751,0.00209642,-0.00036601,0.00009
 685,0.00019042,-0.00023620,-0.00019920,-0.00033108,0.00030520,-0.00010
 558,0.00001356,0.00055971,-0.00017889,-0.00032428,0.00005977,-0.000030
 01,0.00017360,-0.00007861,-0.00003714,-0.00004650,-0.00039925,-0.00007
 822,-0.00002273,0.00006850,-0.00000523,0.00002870,-0.00040956,0.000392
 12,-0.00003773,-0.00002880,-0.00021170,0.00002480,0.00004724,0.0000120
 2,0.00003244,-0.00003697,0.00001407,0.00000293,0.00004041,0.00001833,-
 0.00003058,-0.00615114,-0.00479789,-0.02419356,0.00113584,0.00536803,-
 0.00027864,-0.00079795,-0.00110426,0.00161539,-0.10402817,-0.05425634,
 -0.46787243,0.10913913,0.05710277,0.48882520\\0.00000320,0.00000174,-0
 .00000100,-0.00000960,0.00000079,0.00000036,0.00000004,-0.00000444,-0.
 00000297,0.00000688,-0.00000039,-0.00000186,0.00000212,0.00000341,-0.0
 0000849,0.00000218,-0.00000743,-0.00000414,0.00000235,-0.00000161,0.00
 000627,0.00000321,0.00000310,-0.00000787,0.00000368,-0.00000099,-0.000
 01167,0.00000249,-0.00000037,-0.00000578,-0.00000096,-0.00000291,-0.00
 000807,-0.00000191,0.00000181,0.00000134,-0.00000235,-0.00000776,0.000
 00156,-0.00000320,0.00000110,0.00000820,-0.00000378,-0.00000148,0.0000
 0265,-0.00000540,-0.00000457,0.00000890,-0.00000164,0.00000107,0.00000
 285,-0.00000446,-0.00000005,0.00000530,0.00000331,0.00000549,0.0000018
 6,0.00000580,0.00000423,0.00000538,-0.00000196,0.00000924,0.00000718\\
 \@


 SCIENCE IS A VERY HUMAN FORM OF KNOWLEDGE.
 WE ARE ALWAYS AT THE BRINK OF THE KNOWN,
 WE ALWAYS FEEL FORWARD FOR WHAT IS HOPED.
 EVERY JUDGEMENT IN SCIENCE STANDS ON THE EDGE OF ERROR, AND IS PERSONAL.
 SCIENCE IS A TRIBUTE TO WHAT WE CAN KNOW ALTHOUGH WE ARE FALLIBLE.

                     -- J. BRONOWSKI
 Job cpu time:       0 days  0 hours 53 minutes 26.1 seconds.
 File lengths (MBytes):  RWF=    215 Int=      0 D2E=      0 Chk=      7 Scr=      2
 Normal termination of Gaussian 09 at Mon Jul  4 11:13:49 2022.
