 Entering Link 1 = D:\Gaussian\G16W\l1.exe PID=     19936.
  
 Copyright (c) 1988,1990,1992,1993,1995,1998,2003,2009,2016,
            Gaussian, Inc.  All Rights Reserved.
  
 This is part of the Gaussian(R) 16 program.  It is based on
 the Gaussian(R) 09 system (copyright 2009, Gaussian, Inc.),
 the Gaussian(R) 03 system (copyright 2003, Gaussian, Inc.),
 the Gaussian(R) 98 system (copyright 1998, Gaussian, Inc.),
 the Gaussian(R) 94 system (copyright 1995, Gaussian, Inc.),
 the Gaussian 92(TM) system (copyright 1992, Gaussian, Inc.),
 the Gaussian 90(TM) system (copyright 1990, Gaussian, Inc.),
 the Gaussian 88(TM) system (copyright 1988, Gaussian, Inc.),
 the Gaussian 86(TM) system (copyright 1986, Carnegie Mellon
 University), and the Gaussian 82(TM) system (copyright 1983,
 Carnegie Mellon University). Gaussian is a federally registered
 trademark of Gaussian, Inc.
  
 This software contains proprietary and confidential information,
 including trade secrets, belonging to Gaussian, Inc.
  
 This software is provided under written license and may be
 used, copied, transmitted, or stored only in accord with that
 written license.
  
 The following legend is applicable only to US Government
 contracts under FAR:
  
                    RESTRICTED RIGHTS LEGEND
  
 Use, reproduction and disclosure by the US Government is
 subject to restrictions as set forth in subparagraphs (a)
 and (c) of the Commercial Computer Software - Restricted
 Rights clause in FAR 52.227-19.
  
 Gaussian, Inc.
 340 Quinnipiac St., Bldg. 40, Wallingford CT 06492
  
  
 ---------------------------------------------------------------
 Warning -- This program may not be used in any manner that
 competes with the business of Gaussian, Inc. or will provide
 assistance to any competitor of Gaussian, Inc.  The licensee
 of this program is prohibited from giving any competitor of
 Gaussian, Inc. access to this program.  By using this program,
 the user acknowledges that Gaussian, Inc. is engaged in the
 business of creating and licensing software in the field of
 computational chemistry and represents and warrants to the
 licensee that it is not a competitor of Gaussian, Inc. and that
 it will not use this program in any manner prohibited above.
 ---------------------------------------------------------------
  

 Cite this work as:
 Gaussian 16, Revision A.03,
 M. J. Frisch, G. W. Trucks, H. B. Schlegel, G. E. Scuseria, 
 M. A. Robb, J. R. Cheeseman, G. Scalmani, V. Barone, 
 G. A. Petersson, H. Nakatsuji, X. Li, M. Caricato, A. V. Marenich, 
 J. Bloino, B. G. Janesko, R. Gomperts, B. Mennucci, H. P. Hratchian, 
 J. V. Ortiz, A. F. Izmaylov, J. L. Sonnenberg, D. Williams-Young, 
 F. Ding, F. Lipparini, F. Egidi, J. Goings, B. Peng, A. Petrone, 
 T. Henderson, D. Ranasinghe, V. G. Zakrzewski, J. Gao, N. Rega, 
 G. Zheng, W. Liang, M. Hada, M. Ehara, K. Toyota, R. Fukuda, 
 J. Hasegawa, M. Ishida, T. Nakajima, Y. Honda, O. Kitao, H. Nakai, 
 T. Vreven, K. Throssell, J. A. Montgomery, Jr., J. E. Peralta, 
 F. Ogliaro, M. J. Bearpark, J. J. Heyd, E. N. Brothers, K. N. Kudin, 
 V. N. Staroverov, T. A. Keith, R. Kobayashi, J. Normand, 
 K. Raghavachari, A. P. Rendell, J. C. Burant, S. S. Iyengar, 
 J. Tomasi, M. Cossi, J. M. Millam, M. Klene, C. Adamo, R. Cammi, 
 J. W. Ochterski, R. L. Martin, K. Morokuma, O. Farkas, 
 J. B. Foresman, and D. J. Fox, Gaussian, Inc., Wallingford CT, 2016.
 
 ******************************************
 Gaussian 16:  EM64W-G16RevA.03 17-Dec-2016
                03-Dec-2025 
 ******************************************
 %nprocs=   4
 Will use up to    4 processors via shared memory.
 ------------------------------------
 #P B3LYP/6-31G* SCF=conver=7 out=wfn
 ------------------------------------
 1/38=1,172=1/1;
 2/12=2,17=6,18=5,40=1/2;
 3/5=1,6=6,7=1,11=2,25=1,30=1,74=-5/1,2,3;
 4//1;
 5/5=2,6=7,38=5/2;
 6/7=2,8=2,9=2,10=2,28=1/1;
 99/5=1,6=100,9=1/99;
 Leave Link    1 at Wed Dec 03 10:47:45 2025, MaxMem=           0 cpu:               0.0 elap:               0.1
 (Enter D:\Gaussian\G16W\l101.exe)
 ----------------------------------------------------
 Generated by Multiwfn (http://sobereva.com/multiwfn)
 ----------------------------------------------------
 Symbolic Z-matrix:
 Charge = -1 Multiplicity = 2
 C                    -0.9272    0.27063   0.02994 
 C                     0.4165    0.59659   0.13306 
 C                     1.38914  -0.41571   0.15326 
 C                     0.98483  -1.74395   0.06166 
 C                    -0.36833  -2.07625  -0.03634 
 C                    -1.32978  -1.0777   -0.05184 
 H                     0.7402    1.62783   0.18528 
 H                     1.72705  -2.53532   0.06444 
 H                    -0.69259  -3.10728  -0.11036 
 O                    -2.64988  -1.39188  -0.15427 
 H                    -3.14088  -0.55932  -0.15036 
 O                    -1.97385   1.15989  -0.00512 
 C                    -1.68345   2.54849   0.09283 
 H                    -1.05997   2.88261  -0.74303 
 H                    -2.64368   3.06024   0.0558 
 H                    -1.18117   2.7818    1.03742 
 C                     2.84844  -0.04491   0.30762 
 H                     3.07828   0.1812    1.35334 
 H                     3.47619  -0.89751   0.01546 
 O                     3.21448   1.13582  -0.40538 
 H                     2.98965   0.99191  -1.33101 
 
 ITRead=  0  0  0  0  0  0  0  0  0  0  0  0  0  0  0  0  0  0  0  0
 ITRead=  0
 MicOpt= -1 -1 -1 -1 -1 -1 -1 -1 -1 -1 -1 -1 -1 -1 -1 -1 -1 -1 -1 -1
 MicOpt= -1
 NAtoms=     21 NQM=       21 NQMF=       0 NMMI=      0 NMMIF=      0
                NMic=       0 NMicF=      0.
                    Isotopes and Nuclear Properties:
 (Nuclear quadrupole moments (NQMom) in fm**2, nuclear magnetic moments (NMagM)
  in nuclear magnetons)

  Atom         1           2           3           4           5           6           7           8           9          10
 IAtWgt=          12          12          12          12          12          12           1           1           1          16
 AtmWgt=  12.0000000  12.0000000  12.0000000  12.0000000  12.0000000  12.0000000   1.0078250   1.0078250   1.0078250  15.9949146
 NucSpn=           0           0           0           0           0           0           1           1           1           0
 AtZEff=   0.0000000   0.0000000   0.0000000   0.0000000   0.0000000   0.0000000   0.0000000   0.0000000   0.0000000   0.0000000
 NQMom=    0.0000000   0.0000000   0.0000000   0.0000000   0.0000000   0.0000000   0.0000000   0.0000000   0.0000000   0.0000000
 NMagM=    0.0000000   0.0000000   0.0000000   0.0000000   0.0000000   0.0000000   2.7928460   2.7928460   2.7928460   0.0000000
 AtZNuc=   6.0000000   6.0000000   6.0000000   6.0000000   6.0000000   6.0000000   1.0000000   1.0000000   1.0000000   8.0000000

  Atom        11          12          13          14          15          16          17          18          19          20
 IAtWgt=           1          16          12           1           1           1          12           1           1          16
 AtmWgt=   1.0078250  15.9949146  12.0000000   1.0078250   1.0078250   1.0078250  12.0000000   1.0078250   1.0078250  15.9949146
 NucSpn=           1           0           0           1           1           1           0           1           1           0
 AtZEff=   0.0000000   0.0000000   0.0000000   0.0000000   0.0000000   0.0000000   0.0000000   0.0000000   0.0000000   0.0000000
 NQMom=    0.0000000   0.0000000   0.0000000   0.0000000   0.0000000   0.0000000   0.0000000   0.0000000   0.0000000   0.0000000
 NMagM=    2.7928460   0.0000000   0.0000000   2.7928460   2.7928460   2.7928460   0.0000000   2.7928460   2.7928460   0.0000000
 AtZNuc=   1.0000000   8.0000000   6.0000000   1.0000000   1.0000000   1.0000000   6.0000000   1.0000000   1.0000000   8.0000000

  Atom        21
 IAtWgt=           1
 AtmWgt=   1.0078250
 NucSpn=           1
 AtZEff=   0.0000000
 NQMom=    0.0000000
 NMagM=    2.7928460
 AtZNuc=   1.0000000
 Leave Link  101 at Wed Dec 03 10:47:45 2025, MaxMem=   104857600 cpu:               0.0 elap:               0.1
 (Enter D:\Gaussian\G16W\l202.exe)
                          Input orientation:                          
 ---------------------------------------------------------------------
 Center     Atomic      Atomic             Coordinates (Angstroms)
 Number     Number       Type             X           Y           Z
 ---------------------------------------------------------------------
      1          6           0       -0.927198    0.270633    0.029944
      2          6           0        0.416502    0.596591    0.133063
      3          6           0        1.389135   -0.415708    0.153257
      4          6           0        0.984829   -1.743945    0.061657
      5          6           0       -0.368333   -2.076254   -0.036341
      6          6           0       -1.329778   -1.077700   -0.051840
      7          1           0        0.740198    1.627829    0.185283
      8          1           0        1.727046   -2.535316    0.064443
      9          1           0       -0.692591   -3.107279   -0.110361
     10          8           0       -2.649884   -1.391879   -0.154269
     11          1           0       -3.140877   -0.559323   -0.150356
     12          8           0       -1.973846    1.159893   -0.005118
     13          6           0       -1.683451    2.548491    0.092834
     14          1           0       -1.059968    2.882608   -0.743030
     15          1           0       -2.643675    3.060239    0.055801
     16          1           0       -1.181165    2.781803    1.037424
     17          6           0        2.848441   -0.044909    0.307622
     18          1           0        3.078283    0.181197    1.353336
     19          1           0        3.476193   -0.897512    0.015461
     20          8           0        3.214483    1.135817   -0.405384
     21          1           0        2.989654    0.991911   -1.331006
 ---------------------------------------------------------------------
                    Distance matrix (angstroms):
                    1          2          3          4          5
     1  C    0.000000
     2  C    1.386511   0.000000
     3  C    2.419022   1.403984   0.000000
     4  C    2.777657   2.409606   1.391426   0.000000
     5  C    2.413421   2.790836   2.425295   1.396811   0.000000
     6  C    1.409525   2.426300   2.805849   2.411259   1.386264
     7  H    2.155533   1.082108   2.144339   3.382896   3.872750
     8  H    3.862583   3.395744   2.148211   1.084971   2.147442
     9  H    3.388955   3.874015   3.412863   2.168411   1.083344
    10  O    2.401151   3.665965   4.166672   3.658102   2.384901
    11  H    2.371015   3.751188   4.542446   4.297642   3.162448
    12  O    1.373858   2.459709   3.717155   4.146142   3.612658
    13  C    2.400940   2.867287   4.269767   5.054275   4.809832
    14  H    2.727184   2.858912   4.204798   5.121885   5.056489
    15  H    3.275494   3.929404   5.324966   6.020487   5.618650
    16  H    2.717626   2.854043   4.196698   5.111364   5.041268
    17  C    3.798963   2.521174   1.513570   2.533826   3.819988
    18  H    4.219389   2.957481   2.156318   3.123645   4.348155
    19  H    4.555724   3.407034   2.146377   2.631630   4.021504
    20  O    4.253419   2.899894   2.459920   3.671854   4.825988
    21  H    4.208819   2.986785   2.597323   3.666571   4.729257
                    6          7          8          9         10
     6  C    0.000000
     7  H    3.414808   0.000000
     8  H    3.388560   4.280216   0.000000
     9  H    2.128056   4.955960   2.492457   0.000000
    10  O    1.360838   4.552646   4.529106   2.602983   0.000000
    11  H    1.886399   4.467553   5.258076   3.533806   0.966560
    12  O    2.328912   2.760661   5.230297   4.456618   2.644015
    13  C    3.646269   2.594271   6.121878   5.745505   4.064673
    14  H    4.029216   2.382611   6.146004   6.034400   4.598447
    15  H    4.342862   3.676841   7.100247   6.470905   4.457076
    16  H    4.013022   2.397798   6.138089   6.019751   4.582236
    17  C    4.318956   2.694013   2.742041   4.700184   5.679723
    18  H    4.794825   2.987262   3.296442   5.213058   6.128567
    19  H    4.809819   3.727178   2.396730   4.719922   6.148335
    20  O    5.067046   2.590955   3.988787   5.775477   6.390861
    21  H    4.957524   2.786319   3.997848   5.643781   6.234706
                   11         12         13         14         15
    11  H    0.000000
    12  O    2.082969   0.000000
    13  C    3.441183   1.422016   0.000000
    14  H    4.065505   2.085050   1.095004   0.000000
    15  H    3.659363   2.015861   1.088709   1.782642   0.000000
    16  H    4.051471   2.084665   1.094978   1.787419   1.783268
    17  C    6.028789   4.980342   5.225888   4.994986   6.314166
    18  H    6.441072   5.322335   5.465076   5.368193   6.535540
    19  H    6.627781   5.825484   6.205066   5.953266   7.288224
    20  O    6.582487   5.203802   5.121877   4.629926   6.183373
    21  H    6.433014   5.140285   5.127199   4.507759   6.159189
                   16         17         18         19         20
    16  H    0.000000
    17  C    4.976006   0.000000
    18  H    5.000585   1.094289   0.000000
    19  H    6.022686   1.098345   1.764045   0.000000
    20  O    4.910467   1.427052   2.005728   2.092852   0.000000
    21  H    5.119463   1.944232   2.805495   2.370572   0.963345
                   21
    21  H    0.000000
 Stoichiometry    C8H10O3(1-,2)
 Framework group  C1[X(C8H10O3)]
 Deg. of freedom    57
 Full point group                 C1      NOp   1
 Largest Abelian subgroup         C1      NOp   1
 Largest concise Abelian subgroup C1      NOp   1
                         Standard orientation:                         
 ---------------------------------------------------------------------
 Center     Atomic      Atomic             Coordinates (Angstroms)
 Number     Number       Type             X           Y           Z
 ---------------------------------------------------------------------
      1          6           0       -0.927198    0.270633    0.029944
      2          6           0        0.416502    0.596591    0.133063
      3          6           0        1.389135   -0.415708    0.153257
      4          6           0        0.984829   -1.743945    0.061657
      5          6           0       -0.368333   -2.076254   -0.036341
      6          6           0       -1.329778   -1.077700   -0.051840
      7          1           0        0.740198    1.627829    0.185283
      8          1           0        1.727046   -2.535316    0.064443
      9          1           0       -0.692591   -3.107279   -0.110361
     10          8           0       -2.649884   -1.391879   -0.154269
     11          1           0       -3.140877   -0.559323   -0.150356
     12          8           0       -1.973846    1.159893   -0.005118
     13          6           0       -1.683451    2.548491    0.092834
     14          1           0       -1.059968    2.882608   -0.743030
     15          1           0       -2.643675    3.060239    0.055801
     16          1           0       -1.181165    2.781803    1.037424
     17          6           0        2.848441   -0.044909    0.307622
     18          1           0        3.078283    0.181197    1.353336
     19          1           0        3.476193   -0.897512    0.015461
     20          8           0        3.214483    1.135817   -0.405384
     21          1           0        2.989654    0.991911   -1.331006
 ---------------------------------------------------------------------
 Rotational constants (GHZ):           1.5962078           0.8334941           0.5599398
 Leave Link  202 at Wed Dec 03 10:47:45 2025, MaxMem=   104857600 cpu:               0.0 elap:               0.1
 (Enter D:\Gaussian\G16W\l301.exe)
 Standard basis: 6-31G(d) (6D, 7F)
 Ernie: Thresh=  0.10000D-02 Tol=  0.10000D-05 Strict=F.
 There are   185 symmetry adapted cartesian basis functions of A   symmetry.
 There are   185 symmetry adapted basis functions of A   symmetry.
   185 basis functions,   348 primitive gaussians,   185 cartesian basis functions
    42 alpha electrons       41 beta electrons
       nuclear repulsion energy       607.6458861871 Hartrees.
 IExCor=  402 DFT=T Ex+Corr=B3LYP ExCW=0 ScaHFX=  0.200000
 ScaDFX=  0.800000  0.720000  1.000000  0.810000 ScalE2=  1.000000  1.000000
 IRadAn=      5 IRanWt=     -1 IRanGd=            0 ICorTp=0 IEmpDi=  4
 NAtoms=   21 NActive=   21 NUniq=   21 SFac= 1.00D+00 NAtFMM=   60 NAOKFM=F Big=F
 Integral buffers will be    131072 words long.
 Raffenetti 2 integral format.
 Two-electron integral symmetry is turned on.
 Leave Link  301 at Wed Dec 03 10:47:46 2025, MaxMem=   104857600 cpu:               0.0 elap:               0.1
 (Enter D:\Gaussian\G16W\l302.exe)
 NPDir=0 NMtPBC=     1 NCelOv=     1 NCel=       1 NClECP=     1 NCelD=      1
         NCelK=      1 NCelE2=     1 NClLst=     1 CellRange=     0.0.
 One-electron integrals computed using PRISM.
 One-electron integral symmetry used in STVInt
 NBasis=   185 RedAO= T EigKep=  3.77D-04  NBF=   185
 NBsUse=   185 1.00D-06 EigRej= -1.00D+00 NBFU=   185
 Precomputing XC quadrature grid using
 IXCGrd= 4 IRadAn=           5 IRanWt=          -1 IRanGd=           0 AccXCQ= 0.00D+00.
 Generated NRdTot=       0 NPtTot=           0 NUsed=           0 NTot=          32
 NSgBfM=   184   184   184   184   184 MxSgAt=    21 MxSgA2=    21.
 Leave Link  302 at Wed Dec 03 10:47:46 2025, MaxMem=   104857600 cpu:               0.0 elap:               0.4
 (Enter D:\Gaussian\G16W\l303.exe)
 DipDrv:  MaxL=1.
 Leave Link  303 at Wed Dec 03 10:47:46 2025, MaxMem=   104857600 cpu:               0.0 elap:               0.1
 (Enter D:\Gaussian\G16W\l401.exe)
 ExpMin= 1.61D-01 ExpMax= 5.48D+03 ExpMxC= 8.25D+02 IAcc=3 IRadAn=         5 AccDes= 0.00D+00
 Harris functional with IExCor=  402 and IRadAn=       5 diagonalized for initial guess.
 HarFok:  IExCor=  402 AccDes= 0.00D+00 IRadAn=         5 IDoV= 1 UseB2=F ITyADJ=14
 ICtDFT=  3500011 ScaDFX=  1.000000  1.000000  1.000000  1.000000
 FoFCou: FMM=F IPFlag=           0 FMFlag=      100000 FMFlg1=           0
         NFxFlg=           0 DoJE=T BraDBF=F KetDBF=T FulRan=T
         wScrn=  0.000000 ICntrl=       500 IOpCl=  0 I1Cent=   200000004 NGrid=           0
         NMat0=    1 NMatS0=      1 NMatT0=    0 NMatD0=    1 NMtDS0=    0 NMtDT0=    0
 Petite list used in FoFCou.
 Harris En= -536.671597007909    
 JPrj=0 DoOrth=F DoCkMO=F.
 Initial guess <Sx>= 0.0000 <Sy>= 0.0000 <Sz>= 0.5000 <S**2>= 0.7500 S= 0.5000
 Leave Link  401 at Wed Dec 03 10:47:48 2025, MaxMem=   104857600 cpu:               2.0 elap:               1.4
 (Enter D:\Gaussian\G16W\l502.exe)
 Integral symmetry usage will be decided dynamically.
 UHF open shell SCF:
 Using DIIS extrapolation, IDIIS=  1040.
 NGot=   104857600 LenX=   104785858 LenY=   104751192
 Requested convergence on RMS density matrix=1.00D-07 within 128 cycles.
 Requested convergence on MAX density matrix=1.00D-05.
 Requested convergence on             energy=1.00D-05.
 No special actions if energy rises.
 Fock matrices will be formed incrementally for  20 cycles.
 Integral accuracy reduced to 1.0D-05 until final iterations.

 Cycle   1  Pass 0  IDiag  1:
 FoFJK:  IHMeth= 1 ICntrl=       0 DoSepK=F KAlg= 0 I1Cent=           0 FoldK=F
 IRaf= 910000000 NMat=       1 IRICut=       1 DoRegI=T DoRafI=F ISym2E= 0 IDoP0=0 IntGTp=1.
 FoFCou: FMM=F IPFlag=           0 FMFlag=      100000 FMFlg1=           0
         NFxFlg=           0 DoJE=F BraDBF=F KetDBF=F FulRan=T
         wScrn=  0.000000 ICntrl=         0 IOpCl=  1 I1Cent=           0 NGrid=           0
         NMat0=    1 NMatS0=      1 NMatT0=    0 NMatD0=    1 NMtDS0=    0 NMtDT0=    0
 Symmetry not used in FoFCou.
 E= -536.038110227072    
 DIIS: error= 3.57D-02 at cycle   1 NSaved=   1.
 NSaved= 1 IEnMin= 1 EnMin= -536.038110227072     IErMin= 1 ErrMin= 3.57D-02
 ErrMax= 3.57D-02  0.00D+00 EMaxC= 1.00D-01 BMatC= 1.51D+00 BMatP= 1.51D+00
 IDIUse=3 WtCom= 6.43D-01 WtEn= 3.57D-01
 Coeff-Com:  0.100D+01
 Coeff-En:   0.100D+01
 Coeff:      0.100D+01
 Gap=     0.045 Goal=   None    Shift=    0.000
 Gap=     0.270 Goal=   None    Shift=    0.000
 GapD=    0.045 DampG=0.250 DampE=0.500 DampFc=0.2500 IDamp=-1.
 Damping current iteration by 2.50D-01
 RMSDP=4.55D-02 MaxDP=6.10D+00              OVMax= 9.92D-01

 Cycle   2  Pass 0  IDiag  1:
 RMSU=  1.14D-02    CP:  9.91D-01
 E= -536.172738318268     Delta-E=       -0.134628091196 Rises=F Damp=T
 DIIS: error= 1.73D-02 at cycle   2 NSaved=   2.
 NSaved= 2 IEnMin= 2 EnMin= -536.172738318268     IErMin= 2 ErrMin= 1.73D-02
 ErrMax= 1.73D-02  0.00D+00 EMaxC= 1.00D-01 BMatC= 3.40D-01 BMatP= 1.51D+00
 IDIUse=3 WtCom= 8.27D-01 WtEn= 1.73D-01
 Coeff-Com: -0.724D+00 0.172D+01
 Coeff-En:   0.000D+00 0.100D+01
 Coeff:     -0.599D+00 0.160D+01
 Gap=    -0.056 Goal=   None    Shift=    0.000
 Gap=     0.336 Goal=   None    Shift=    0.000
 RMSDP=1.17D-02 MaxDP=1.56D+00 DE=-1.35D-01 OVMax= 9.87D-01

 Cycle   3  Pass 0  IDiag  1:
 RMSU=  4.41D-03    CP:  9.78D-01  4.41D-02
 E= -536.396335459353     Delta-E=       -0.223597141085 Rises=F Damp=F
 DIIS: error= 1.23D-02 at cycle   3 NSaved=   3.
 NSaved= 3 IEnMin= 3 EnMin= -536.396335459353     IErMin= 3 ErrMin= 1.23D-02
 ErrMax= 1.23D-02  0.00D+00 EMaxC= 1.00D-01 BMatC= 1.22D-01 BMatP= 3.40D-01
 IDIUse=3 WtCom= 8.77D-01 WtEn= 1.23D-01
 Coeff-Com: -0.430D+00 0.975D+00 0.455D+00
 Coeff-En:   0.000D+00 0.000D+00 0.100D+01
 Coeff:     -0.377D+00 0.855D+00 0.522D+00
 Gap=     0.043 Goal=   None    Shift=    0.000
 Gap=     0.221 Goal=   None    Shift=    0.000
 RMSDP=1.62D-03 MaxDP=3.49D-02 DE=-2.24D-01 OVMax= 7.13D-02

 Cycle   4  Pass 0  IDiag  1:
 RMSU=  1.61D-03    CP:  9.80D-01  5.47D-02  9.77D-01
 E= -536.428225437066     Delta-E=       -0.031889977713 Rises=F Damp=F
 DIIS: error= 3.57D-03 at cycle   4 NSaved=   4.
 NSaved= 4 IEnMin= 4 EnMin= -536.428225437066     IErMin= 4 ErrMin= 3.57D-03
 ErrMax= 3.57D-03  0.00D+00 EMaxC= 1.00D-01 BMatC= 1.73D-02 BMatP= 1.22D-01
 IDIUse=3 WtCom= 9.64D-01 WtEn= 3.57D-02
 Coeff-Com: -0.183D+00 0.350D+00 0.244D+00 0.589D+00
 Coeff-En:   0.000D+00 0.000D+00 0.000D+00 0.100D+01
 Coeff:     -0.176D+00 0.337D+00 0.236D+00 0.604D+00
 Gap=     0.050 Goal=   None    Shift=    0.000
 Gap=     0.211 Goal=   None    Shift=    0.000
 RMSDP=5.47D-04 MaxDP=1.70D-02 DE=-3.19D-02 OVMax= 3.36D-02

 Cycle   5  Pass 0  IDiag  1:
 RMSU=  4.69D-04    CP:  9.80D-01  5.73D-02  1.00D+00  8.40D-01
 E= -536.431184317471     Delta-E=       -0.002958880405 Rises=F Damp=F
 DIIS: error= 1.72D-03 at cycle   5 NSaved=   5.
 NSaved= 5 IEnMin= 5 EnMin= -536.431184317471     IErMin= 5 ErrMin= 1.72D-03
 ErrMax= 1.72D-03  0.00D+00 EMaxC= 1.00D-01 BMatC= 4.30D-03 BMatP= 1.73D-02
 IDIUse=3 WtCom= 9.83D-01 WtEn= 1.72D-02
 Coeff-Com: -0.822D-01 0.134D+00 0.526D-01 0.331D+00 0.565D+00
 Coeff-En:   0.000D+00 0.000D+00 0.000D+00 0.142D+00 0.858D+00
 Coeff:     -0.808D-01 0.131D+00 0.517D-01 0.328D+00 0.570D+00
 Gap=     0.054 Goal=   None    Shift=    0.000
 Gap=     0.210 Goal=   None    Shift=    0.000
 RMSDP=3.31D-04 MaxDP=8.55D-03 DE=-2.96D-03 OVMax= 2.56D-02

 Cycle   6  Pass 0  IDiag  1:
 RMSU=  2.26D-04    CP:  9.80D-01  5.88D-02  1.02D+00  9.76D-01  8.32D-01
 E= -536.432183290946     Delta-E=       -0.000998973475 Rises=F Damp=F
 DIIS: error= 6.71D-04 at cycle   6 NSaved=   6.
 NSaved= 6 IEnMin= 6 EnMin= -536.432183290946     IErMin= 6 ErrMin= 6.71D-04
 ErrMax= 6.71D-04  0.00D+00 EMaxC= 1.00D-01 BMatC= 8.62D-04 BMatP= 4.30D-03
 IDIUse=3 WtCom= 9.93D-01 WtEn= 6.71D-03
 Coeff-Com: -0.201D-01 0.236D-01-0.342D-01 0.533D-01 0.355D+00 0.623D+00
 Coeff-En:   0.000D+00 0.000D+00 0.000D+00 0.000D+00 0.613D-01 0.939D+00
 Coeff:     -0.200D-01 0.235D-01-0.339D-01 0.530D-01 0.353D+00 0.625D+00
 Gap=     0.056 Goal=   None    Shift=    0.000
 Gap=     0.210 Goal=   None    Shift=    0.000
 RMSDP=1.67D-04 MaxDP=4.82D-03 DE=-9.99D-04 OVMax= 1.49D-02

 Cycle   7  Pass 0  IDiag  1:
 RMSU=  1.15D-04    CP:  9.79D-01  5.97D-02  1.02D+00  9.92D-01  1.07D+00
                    CP:  8.81D-01
 E= -536.432424547262     Delta-E=       -0.000241256316 Rises=F Damp=F
 DIIS: error= 2.90D-04 at cycle   7 NSaved=   7.
 NSaved= 7 IEnMin= 7 EnMin= -536.432424547262     IErMin= 7 ErrMin= 2.90D-04
 ErrMax= 2.90D-04  0.00D+00 EMaxC= 1.00D-01 BMatC= 1.54D-04 BMatP= 8.62D-04
 IDIUse=3 WtCom= 9.97D-01 WtEn= 2.90D-03
 Coeff-Com: -0.532D-02 0.326D-02-0.282D-01-0.406D-02 0.155D+00 0.394D+00
 Coeff-Com:  0.485D+00
 Coeff-En:   0.000D+00 0.000D+00 0.000D+00 0.000D+00 0.000D+00 0.000D+00
 Coeff-En:   0.100D+01
 Coeff:     -0.530D-02 0.325D-02-0.281D-01-0.405D-02 0.154D+00 0.393D+00
 Coeff:      0.487D+00
 Gap=     0.056 Goal=   None    Shift=    0.000
 Gap=     0.210 Goal=   None    Shift=    0.000
 RMSDP=9.30D-05 MaxDP=3.70D-03 DE=-2.41D-04 OVMax= 1.08D-02

 Cycle   8  Pass 0  IDiag  1:
 RMSU=  5.68D-05    CP:  9.79D-01  5.99D-02  1.03D+00  1.01D+00  1.10D+00
                    CP:  1.17D+00  1.19D+00
 E= -536.432485088422     Delta-E=       -0.000060541160 Rises=F Damp=F
 DIIS: error= 1.42D-04 at cycle   8 NSaved=   8.
 NSaved= 8 IEnMin= 8 EnMin= -536.432485088422     IErMin= 8 ErrMin= 1.42D-04
 ErrMax= 1.42D-04  0.00D+00 EMaxC= 1.00D-01 BMatC= 2.04D-05 BMatP= 1.54D-04
 IDIUse=3 WtCom= 9.99D-01 WtEn= 1.42D-03
 Coeff-Com:  0.199D-02-0.211D-02-0.617D-03-0.112D-01-0.390D-01-0.181D-01
 Coeff-Com:  0.205D+00 0.864D+00
 Coeff-En:   0.000D+00 0.000D+00 0.000D+00 0.000D+00 0.000D+00 0.000D+00
 Coeff-En:   0.000D+00 0.100D+01
 Coeff:      0.198D-02-0.210D-02-0.616D-03-0.112D-01-0.389D-01-0.180D-01
 Coeff:      0.204D+00 0.865D+00
 Gap=     0.057 Goal=   None    Shift=    0.000
 Gap=     0.210 Goal=   None    Shift=    0.000
 RMSDP=1.11D-04 MaxDP=3.58D-03 DE=-6.05D-05 OVMax= 1.45D-02

 Cycle   9  Pass 0  IDiag  1:
 RMSU=  2.88D-05    CP:  9.79D-01  6.01D-02  1.03D+00  1.01D+00  1.18D+00
                    CP:  1.40D+00  1.83D+00  1.72D+00
 E= -536.432520738378     Delta-E=       -0.000035649957 Rises=F Damp=F
 DIIS: error= 1.12D-04 at cycle   9 NSaved=   9.
 NSaved= 9 IEnMin= 9 EnMin= -536.432520738378     IErMin= 9 ErrMin= 1.12D-04
 ErrMax= 1.12D-04  0.00D+00 EMaxC= 1.00D-01 BMatC= 8.10D-06 BMatP= 2.04D-05
 IDIUse=3 WtCom= 9.99D-01 WtEn= 1.12D-03
 Coeff-Com:  0.295D-02-0.349D-02 0.394D-02-0.439D-02-0.471D-01-0.686D-01
 Coeff-Com:  0.256D-01 0.315D+00 0.776D+00
 Coeff-En:   0.000D+00 0.000D+00 0.000D+00 0.000D+00 0.000D+00 0.000D+00
 Coeff-En:   0.000D+00 0.000D+00 0.100D+01
 Coeff:      0.295D-02-0.349D-02 0.393D-02-0.438D-02-0.470D-01-0.685D-01
 Coeff:      0.255D-01 0.315D+00 0.776D+00
 Gap=     0.057 Goal=   None    Shift=    0.000
 Gap=     0.209 Goal=   None    Shift=    0.000
 RMSDP=9.76D-05 MaxDP=3.28D-03 DE=-3.56D-05 OVMax= 1.29D-02

 Cycle  10  Pass 0  IDiag  1:
 RMSU=  1.63D-05    CP:  9.79D-01  6.03D-02  1.03D+00  1.02D+00  1.24D+00
                    CP:  1.61D+00  2.36D+00  2.47D+00  1.58D+00
 E= -536.432544819732     Delta-E=       -0.000024081354 Rises=F Damp=F
 DIIS: error= 1.07D-04 at cycle  10 NSaved=  10.
 NSaved=10 IEnMin=10 EnMin= -536.432544819732     IErMin=10 ErrMin= 1.07D-04
 ErrMax= 1.07D-04  0.00D+00 EMaxC= 1.00D-01 BMatC= 8.16D-06 BMatP= 8.10D-06
 IDIUse=3 WtCom= 9.99D-01 WtEn= 1.07D-03
 Coeff-Com:  0.465D-03-0.606D-03 0.262D-02 0.698D-02-0.944D-03-0.643D-02
 Coeff-Com: -0.716D-01-0.417D+00 0.600D+00 0.887D+00
 Coeff-En:   0.000D+00 0.000D+00 0.000D+00 0.000D+00 0.000D+00 0.000D+00
 Coeff-En:   0.000D+00 0.000D+00 0.000D+00 0.100D+01
 Coeff:      0.465D-03-0.606D-03 0.262D-02 0.697D-02-0.943D-03-0.642D-02
 Coeff:     -0.716D-01-0.417D+00 0.599D+00 0.887D+00
 Gap=     0.057 Goal=   None    Shift=    0.000
 Gap=     0.209 Goal=   None    Shift=    0.000
 RMSDP=1.26D-04 MaxDP=4.04D-03 DE=-2.41D-05 OVMax= 1.67D-02

 Cycle  11  Pass 0  IDiag  1:
 RMSU=  2.74D-05    CP:  9.79D-01  6.05D-02  1.03D+00  1.03D+00  1.32D+00
                    CP:  1.86D+00  3.00D+00  3.00D+00  2.78D+00  1.69D+00
 E= -536.432573646123     Delta-E=       -0.000028826391 Rises=F Damp=F
 DIIS: error= 8.64D-05 at cycle  11 NSaved=  11.
 NSaved=11 IEnMin=11 EnMin= -536.432573646123     IErMin=11 ErrMin= 8.64D-05
 ErrMax= 8.64D-05  0.00D+00 EMaxC= 1.00D-01 BMatC= 3.68D-06 BMatP= 8.10D-06
 IDIUse=1 WtCom= 1.00D+00 WtEn= 0.00D+00
 Coeff-Com: -0.146D-02 0.159D-02-0.447D-02 0.334D-02 0.316D-01 0.807D-01
 Coeff-Com:  0.348D-01-0.247D+00-0.441D+00-0.725D+00 0.227D+01
 Coeff:     -0.146D-02 0.159D-02-0.447D-02 0.334D-02 0.316D-01 0.807D-01
 Coeff:      0.348D-01-0.247D+00-0.441D+00-0.725D+00 0.227D+01
 Gap=     0.058 Goal=   None    Shift=    0.000
 Gap=     0.209 Goal=   None    Shift=    0.000
 RMSDP=2.54D-04 MaxDP=8.09D-03 DE=-2.88D-05 OVMax= 3.39D-02

 Cycle  12  Pass 0  IDiag  1:
 RMSU=  1.71D-04    CP:  9.79D-01  6.11D-02  1.04D+00  1.05D+00  1.48D+00
                    CP:  2.37D+00  3.00D+00  3.00D+00  3.00D+00  3.00D+00
                    CP:  3.00D+00
 E= -536.432615103353     Delta-E=       -0.000041457231 Rises=F Damp=F
 DIIS: error= 5.95D-05 at cycle  12 NSaved=  12.
 NSaved=12 IEnMin=12 EnMin= -536.432615103353     IErMin=12 ErrMin= 5.95D-05
 ErrMax= 5.95D-05  0.00D+00 EMaxC= 1.00D-01 BMatC= 3.99D-06 BMatP= 3.68D-06
 IDIUse=1 WtCom= 1.00D+00 WtEn= 0.00D+00
 Coeff-Com: -0.126D-02 0.130D-02-0.577D-02-0.127D-02 0.253D-01 0.759D-01
 Coeff-Com:  0.800D-01 0.349D-01-0.695D+00-0.136D+01 0.211D+01 0.742D+00
 Coeff:     -0.126D-02 0.130D-02-0.577D-02-0.127D-02 0.253D-01 0.759D-01
 Coeff:      0.800D-01 0.349D-01-0.695D+00-0.136D+01 0.211D+01 0.742D+00
 Gap=     0.058 Goal=   None    Shift=    0.000
 Gap=     0.209 Goal=   None    Shift=    0.000
 RMSDP=1.96D-04 MaxDP=6.10D-03 DE=-4.15D-05 OVMax= 2.59D-02

 Cycle  13  Pass 0  IDiag  1:
 RMSU=  4.07D-05    CP:  9.78D-01  6.16D-02  1.04D+00  1.06D+00  1.61D+00
                    CP:  2.77D+00  3.00D+00  3.00D+00  3.00D+00  3.00D+00
                    CP:  3.00D+00  1.92D+00
 E= -536.432634666268     Delta-E=       -0.000019562915 Rises=F Damp=F
 DIIS: error= 2.98D-05 at cycle  13 NSaved=  13.
 NSaved=13 IEnMin=13 EnMin= -536.432634666268     IErMin=13 ErrMin= 2.98D-05
 ErrMax= 2.98D-05  0.00D+00 EMaxC= 1.00D-01 BMatC= 6.13D-07 BMatP= 3.68D-06
 IDIUse=1 WtCom= 1.00D+00 WtEn= 0.00D+00
 Coeff-Com: -0.287D-04 0.146D-03-0.123D-02-0.264D-02-0.285D-02 0.659D-02
 Coeff-Com:  0.508D-01 0.217D+00-0.935D-01-0.432D+00 0.563D-01 0.116D-01
 Coeff-Com:  0.119D+01
 Coeff:     -0.287D-04 0.146D-03-0.123D-02-0.264D-02-0.285D-02 0.659D-02
 Coeff:      0.508D-01 0.217D+00-0.935D-01-0.432D+00 0.563D-01 0.116D-01
 Coeff:      0.119D+01
 Gap=     0.058 Goal=   None    Shift=    0.000
 Gap=     0.209 Goal=   None    Shift=    0.000
 RMSDP=9.18D-05 MaxDP=2.79D-03 DE=-1.96D-05 OVMax= 1.21D-02

 Cycle  14  Pass 0  IDiag  1:
 RMSU=  7.09D-06    CP:  9.78D-01  6.18D-02  1.04D+00  1.06D+00  1.66D+00
                    CP:  2.95D+00  3.00D+00  3.00D+00  3.00D+00  3.00D+00
                    CP:  3.00D+00  2.35D+00  1.53D+00
 E= -536.432639634535     Delta-E=       -0.000004968267 Rises=F Damp=F
 DIIS: error= 2.44D-05 at cycle  14 NSaved=  14.
 NSaved=14 IEnMin=14 EnMin= -536.432639634535     IErMin=14 ErrMin= 2.44D-05
 ErrMax= 2.44D-05  0.00D+00 EMaxC= 1.00D-01 BMatC= 6.48D-07 BMatP= 6.13D-07
 IDIUse=1 WtCom= 1.00D+00 WtEn= 0.00D+00
 Coeff-Com:  0.201D-03-0.169D-03-0.653D-04-0.171D-02-0.472D-02-0.590D-02
 Coeff-Com:  0.233D-01 0.132D+00 0.409D-01-0.104D+00-0.304D+00-0.238D+00
 Coeff-Com:  0.840D+00 0.623D+00
 Coeff:      0.201D-03-0.169D-03-0.653D-04-0.171D-02-0.472D-02-0.590D-02
 Coeff:      0.233D-01 0.132D+00 0.409D-01-0.104D+00-0.304D+00-0.238D+00
 Coeff:      0.840D+00 0.623D+00
 Gap=     0.058 Goal=   None    Shift=    0.000
 Gap=     0.209 Goal=   None    Shift=    0.000
 RMSDP=7.93D-05 MaxDP=2.43D-03 DE=-4.97D-06 OVMax= 1.05D-02

 Cycle  15  Pass 0  IDiag  1:
 RMSU=  2.39D-05    CP:  9.78D-01  6.20D-02  1.04D+00  1.07D+00  1.72D+00
                    CP:  3.00D+00  3.00D+00  3.00D+00  3.00D+00  3.00D+00
                    CP:  3.00D+00  2.72D+00  1.98D+00  1.28D+00
 E= -536.432641831880     Delta-E=       -0.000002197346 Rises=F Damp=F
 DIIS: error= 1.35D-05 at cycle  15 NSaved=  15.
 NSaved=15 IEnMin=15 EnMin= -536.432641831880     IErMin=15 ErrMin= 1.35D-05
 ErrMax= 1.35D-05  0.00D+00 EMaxC= 1.00D-01 BMatC= 1.20D-07 BMatP= 6.13D-07
 IDIUse=1 WtCom= 1.00D+00 WtEn= 0.00D+00
 Coeff-Com:  0.210D-03-0.264D-03 0.562D-03 0.176D-03-0.146D-02-0.556D-02
 Coeff-Com: -0.394D-02-0.129D-01 0.880D-01 0.120D+00-0.190D+00-0.258D+00
 Coeff-Com:  0.821D-01 0.333D+00 0.847D+00
 Coeff:      0.210D-03-0.264D-03 0.562D-03 0.176D-03-0.146D-02-0.556D-02
 Coeff:     -0.394D-02-0.129D-01 0.880D-01 0.120D+00-0.190D+00-0.258D+00
 Coeff:      0.821D-01 0.333D+00 0.847D+00
 Gap=     0.058 Goal=   None    Shift=    0.000
 Gap=     0.209 Goal=   None    Shift=    0.000
 RMSDP=3.38D-05 MaxDP=1.03D-03 DE=-2.20D-06 OVMax= 4.44D-03

 Cycle  16  Pass 0  IDiag  1:
 RMSU=  1.95D-06    CP:  9.78D-01  6.21D-02  1.04D+00  1.07D+00  1.74D+00
                    CP:  3.00D+00  3.00D+00  3.00D+00  3.00D+00  3.00D+00
                    CP:  3.00D+00  2.87D+00  2.17D+00  1.65D+00  1.64D+00
 E= -536.432642176337     Delta-E=       -0.000000344456 Rises=F Damp=F
 DIIS: error= 2.68D-06 at cycle  16 NSaved=  16.
 NSaved=16 IEnMin=16 EnMin= -536.432642176337     IErMin=16 ErrMin= 2.68D-06
 ErrMax= 2.68D-06  0.00D+00 EMaxC= 1.00D-01 BMatC= 1.31D-08 BMatP= 1.20D-07
 IDIUse=1 WtCom= 1.00D+00 WtEn= 0.00D+00
 Coeff-Com:  0.520D-04-0.743D-04 0.225D-03 0.364D-03 0.747D-03 0.118D-03
 Coeff-Com: -0.505D-02-0.311D-01 0.199D-01 0.446D-01 0.136D-01-0.665D-01
 Coeff-Com: -0.111D+00 0.966D-02 0.288D+00 0.836D+00
 Coeff:      0.520D-04-0.743D-04 0.225D-03 0.364D-03 0.747D-03 0.118D-03
 Coeff:     -0.505D-02-0.311D-01 0.199D-01 0.446D-01 0.136D-01-0.665D-01
 Coeff:     -0.111D+00 0.966D-02 0.288D+00 0.836D+00
 Gap=     0.058 Goal=   None    Shift=    0.000
 Gap=     0.209 Goal=   None    Shift=    0.000
 RMSDP=1.19D-05 MaxDP=3.63D-04 DE=-3.44D-07 OVMax= 1.57D-03

 Cycle  17  Pass 0  IDiag  1:
 RMSU=  6.41D-07    CP:  9.78D-01  6.21D-02  1.04D+00  1.07D+00  1.74D+00
                    CP:  3.00D+00  3.00D+00  3.00D+00  3.00D+00  3.00D+00
                    CP:  3.00D+00  2.93D+00  2.24D+00  1.76D+00  1.87D+00
                    CP:  1.25D+00
 E= -536.432642201255     Delta-E=       -0.000000024918 Rises=F Damp=F
 DIIS: error= 2.01D-06 at cycle  17 NSaved=  17.
 NSaved=17 IEnMin=17 EnMin= -536.432642201255     IErMin=17 ErrMin= 2.01D-06
 ErrMax= 2.01D-06  0.00D+00 EMaxC= 1.00D-01 BMatC= 4.26D-09 BMatP= 1.31D-08
 IDIUse=1 WtCom= 1.00D+00 WtEn= 0.00D+00
 Coeff-Com: -0.119D-04 0.101D-04-0.572D-05 0.150D-03 0.787D-03 0.150D-02
 Coeff-Com: -0.134D-02-0.122D-01-0.898D-02-0.932D-02 0.537D-01 0.201D-01
 Coeff-Com: -0.687D-01-0.705D-01-0.541D-01 0.502D+00 0.647D+00
 Coeff:     -0.119D-04 0.101D-04-0.572D-05 0.150D-03 0.787D-03 0.150D-02
 Coeff:     -0.134D-02-0.122D-01-0.898D-02-0.932D-02 0.537D-01 0.201D-01
 Coeff:     -0.687D-01-0.705D-01-0.541D-01 0.502D+00 0.647D+00
 Gap=     0.058 Goal=   None    Shift=    0.000
 Gap=     0.209 Goal=   None    Shift=    0.000
 RMSDP=2.19D-06 MaxDP=6.65D-05 DE=-2.49D-08 OVMax= 2.82D-04

 Initial convergence to 1.0D-05 achieved.  Increase integral accuracy.
 Cycle  18  Pass 1  IDiag  1:
 E= -536.432627326632     Delta-E=        0.000014874623 Rises=F Damp=F
 DIIS: error= 1.51D-05 at cycle   1 NSaved=   1.
 NSaved= 1 IEnMin= 1 EnMin= -536.432627326632     IErMin= 1 ErrMin= 1.51D-05
 ErrMax= 1.51D-05  0.00D+00 EMaxC= 1.00D-01 BMatC= 1.25D-07 BMatP= 1.25D-07
 IDIUse=1 WtCom= 1.00D+00 WtEn= 0.00D+00
 Coeff-Com:  0.100D+01
 Coeff:      0.100D+01
 Gap=     0.058 Goal=   None    Shift=    0.000
 Gap=     0.209 Goal=   None    Shift=    0.000
 RMSDP=2.19D-06 MaxDP=6.65D-05 DE= 1.49D-05 OVMax= 4.06D-05

 Cycle  19  Pass 1  IDiag  1:
 RMSU=  7.75D-06    CP:  1.00D+00
 E= -536.432627348227     Delta-E=       -0.000000021595 Rises=F Damp=F
 DIIS: error= 4.14D-07 at cycle   2 NSaved=   2.
 NSaved= 2 IEnMin= 2 EnMin= -536.432627348227     IErMin= 2 ErrMin= 4.14D-07
 ErrMax= 4.14D-07  0.00D+00 EMaxC= 1.00D-01 BMatC= 4.31D-10 BMatP= 1.25D-07
 IDIUse=1 WtCom= 1.00D+00 WtEn= 0.00D+00
 Coeff-Com: -0.917D-02 0.101D+01
 Coeff:     -0.917D-02 0.101D+01
 Gap=     0.058 Goal=   None    Shift=    0.000
 Gap=     0.209 Goal=   None    Shift=    0.000
 RMSDP=3.88D-07 MaxDP=1.12D-05 DE=-2.16D-08 OVMax= 2.73D-05

 Cycle  20  Pass 1  IDiag  1:
 RMSU=  3.51D-07    CP:  1.00D+00  1.02D+00
 E= -536.432627348245     Delta-E=       -0.000000000018 Rises=F Damp=F
 DIIS: error= 7.63D-07 at cycle   3 NSaved=   3.
 NSaved= 3 IEnMin= 3 EnMin= -536.432627348245     IErMin= 2 ErrMin= 4.14D-07
 ErrMax= 7.63D-07  0.00D+00 EMaxC= 1.00D-01 BMatC= 7.90D-10 BMatP= 4.31D-10
 IDIUse=1 WtCom= 1.00D+00 WtEn= 0.00D+00
 Coeff-Com: -0.793D-02 0.598D+00 0.410D+00
 Coeff:     -0.793D-02 0.598D+00 0.410D+00
 Gap=     0.058 Goal=   None    Shift=    0.000
 Gap=     0.209 Goal=   None    Shift=    0.000
 RMSDP=1.31D-07 MaxDP=4.21D-06 DE=-1.84D-11 OVMax= 8.60D-06

 Cycle  21  Pass 1  IDiag  1:
 RMSU=  1.08D-07    CP:  1.00D+00  1.02D+00  7.94D-01
 E= -536.432627348450     Delta-E=       -0.000000000205 Rises=F Damp=F
 DIIS: error= 2.44D-07 at cycle   4 NSaved=   4.
 NSaved= 4 IEnMin= 4 EnMin= -536.432627348450     IErMin= 4 ErrMin= 2.44D-07
 ErrMax= 2.44D-07  0.00D+00 EMaxC= 1.00D-01 BMatC= 5.72D-11 BMatP= 4.31D-10
 IDIUse=1 WtCom= 1.00D+00 WtEn= 0.00D+00
 Coeff-Com: -0.316D-02 0.181D+00 0.201D+00 0.621D+00
 Coeff:     -0.316D-02 0.181D+00 0.201D+00 0.621D+00
 Gap=     0.058 Goal=   None    Shift=    0.000
 Gap=     0.209 Goal=   None    Shift=    0.000
 RMSDP=7.55D-08 MaxDP=2.72D-06 DE=-2.05D-10 OVMax= 7.97D-06

 SCF Done:  E(UB3LYP) =  -536.432627348     A.U. after   21 cycles
            NFock= 21  Conv=0.75D-07     -V/T= 2.0079
 <Sx>= 0.0000 <Sy>= 0.0000 <Sz>= 0.5000 <S**2>= 0.7580 S= 0.5040
 <L.S>= 0.000000000000E+00
 KE= 5.322103876586D+02 PE=-2.482943837249D+03 EE= 8.066549360553D+02
 Annihilation of the first spin contaminant:
 S**2 before annihilation     0.7580,   after     0.7500
 Leave Link  502 at Wed Dec 03 10:48:30 2025, MaxMem=   104857600 cpu:              42.0 elap:              42.2
 (Enter D:\Gaussian\G16W\l601.exe)
 Copying SCF densities to generalized density rwf, IOpCl= 1 IROHF=0.

 **********************************************************************

            Population analysis using the SCF density.

 **********************************************************************

 Orbital symmetries:
 Alpha Orbitals:
       Occupied  (A) (A) (A) (A) (A) (A) (A) (A) (A) (A) (A) (A)
                 (A) (A) (A) (A) (A) (A) (A) (A) (A) (A) (A) (A)
                 (A) (A) (A) (A) (A) (A) (A) (A) (A) (A) (A) (A)
                 (A) (A) (A) (A) (A) (A)
       Virtual   (A) (A) (A) (A) (A) (A) (A) (A) (A) (A) (A) (A)
                 (A) (A) (A) (A) (A) (A) (A) (A) (A) (A) (A) (A)
                 (A) (A) (A) (A) (A) (A) (A) (A) (A) (A) (A) (A)
                 (A) (A) (A) (A) (A) (A) (A) (A) (A) (A) (A) (A)
                 (A) (A) (A) (A) (A) (A) (A) (A) (A) (A) (A) (A)
                 (A) (A) (A) (A) (A) (A) (A) (A) (A) (A) (A) (A)
                 (A) (A) (A) (A) (A) (A) (A) (A) (A) (A) (A) (A)
                 (A) (A) (A) (A) (A) (A) (A) (A) (A) (A) (A) (A)
                 (A) (A) (A) (A) (A) (A) (A) (A) (A) (A) (A) (A)
                 (A) (A) (A) (A) (A) (A) (A) (A) (A) (A) (A) (A)
                 (A) (A) (A) (A) (A) (A) (A) (A) (A) (A) (A) (A)
                 (A) (A) (A) (A) (A) (A) (A) (A) (A) (A) (A)
 Beta  Orbitals:
       Occupied  (A) (A) (A) (A) (A) (A) (A) (A) (A) (A) (A) (A)
                 (A) (A) (A) (A) (A) (A) (A) (A) (A) (A) (A) (A)
                 (A) (A) (A) (A) (A) (A) (A) (A) (A) (A) (A) (A)
                 (A) (A) (A) (A) (A)
       Virtual   (A) (A) (A) (A) (A) (A) (A) (A) (A) (A) (A) (A)
                 (A) (A) (A) (A) (A) (A) (A) (A) (A) (A) (A) (A)
                 (A) (A) (A) (A) (A) (A) (A) (A) (A) (A) (A) (A)
                 (A) (A) (A) (A) (A) (A) (A) (A) (A) (A) (A) (A)
                 (A) (A) (A) (A) (A) (A) (A) (A) (A) (A) (A) (A)
                 (A) (A) (A) (A) (A) (A) (A) (A) (A) (A) (A) (A)
                 (A) (A) (A) (A) (A) (A) (A) (A) (A) (A) (A) (A)
                 (A) (A) (A) (A) (A) (A) (A) (A) (A) (A) (A) (A)
                 (A) (A) (A) (A) (A) (A) (A) (A) (A) (A) (A) (A)
                 (A) (A) (A) (A) (A) (A) (A) (A) (A) (A) (A) (A)
                 (A) (A) (A) (A) (A) (A) (A) (A) (A) (A) (A) (A)
                 (A) (A) (A) (A) (A) (A) (A) (A) (A) (A) (A) (A)
 The electronic state is 2-A.
 Alpha  occ. eigenvalues --  -19.01803 -18.98124 -18.97946 -10.10624 -10.05863
 Alpha  occ. eigenvalues --  -10.03892 -10.01576  -9.98605  -9.96734  -9.95960
 Alpha  occ. eigenvalues --   -9.95547  -0.90337  -0.86201  -0.85272  -0.64270
 Alpha  occ. eigenvalues --   -0.58736  -0.55295  -0.52611  -0.48547  -0.42092
 Alpha  occ. eigenvalues --   -0.40089  -0.37013  -0.33639  -0.33043  -0.32467
 Alpha  occ. eigenvalues --   -0.30649  -0.27435  -0.26603  -0.24729  -0.22412
 Alpha  occ. eigenvalues --   -0.22237  -0.21772  -0.19790  -0.17405  -0.16926
 Alpha  occ. eigenvalues --   -0.15918  -0.13890  -0.12863  -0.10348  -0.04494
 Alpha  occ. eigenvalues --   -0.01655   0.15043
 Alpha virt. eigenvalues --    0.20826   0.23122   0.23881   0.24316   0.27457
 Alpha virt. eigenvalues --    0.27972   0.29624   0.29962   0.30237   0.32296
 Alpha virt. eigenvalues --    0.34296   0.35677   0.36316   0.39216   0.42359
 Alpha virt. eigenvalues --    0.44654   0.47484   0.51811   0.53428   0.54378
 Alpha virt. eigenvalues --    0.58865   0.65545   0.66825   0.67848   0.69218
 Alpha virt. eigenvalues --    0.71619   0.72596   0.73862   0.74700   0.77031
 Alpha virt. eigenvalues --    0.79079   0.79231   0.81042   0.81585   0.82996
 Alpha virt. eigenvalues --    0.84935   0.87095   0.88085   0.88818   0.91230
 Alpha virt. eigenvalues --    0.92549   0.93220   0.96209   0.97068   0.97502
 Alpha virt. eigenvalues --    1.00210   1.01426   1.02619   1.04887   1.06317
 Alpha virt. eigenvalues --    1.07263   1.08492   1.09103   1.12097   1.13243
 Alpha virt. eigenvalues --    1.15265   1.16122   1.18381   1.19006   1.22497
 Alpha virt. eigenvalues --    1.23800   1.25666   1.27859   1.31071   1.31627
 Alpha virt. eigenvalues --    1.37306   1.41884   1.42404   1.44684   1.46559
 Alpha virt. eigenvalues --    1.50469   1.53229   1.53830   1.58150   1.59831
 Alpha virt. eigenvalues --    1.61647   1.64646   1.68349   1.70218   1.70579
 Alpha virt. eigenvalues --    1.77626   1.83811   1.86025   1.90085   1.91450
 Alpha virt. eigenvalues --    1.93573   1.96379   1.98956   2.01628   2.05589
 Alpha virt. eigenvalues --    2.06797   2.08852   2.09549   2.12784   2.14171
 Alpha virt. eigenvalues --    2.16442   2.20502   2.21641   2.23836   2.25315
 Alpha virt. eigenvalues --    2.27925   2.30509   2.32238   2.33319   2.38793
 Alpha virt. eigenvalues --    2.41364   2.41627   2.48260   2.49087   2.50663
 Alpha virt. eigenvalues --    2.52689   2.54737   2.57859   2.62816   2.63494
 Alpha virt. eigenvalues --    2.64896   2.67083   2.77532   2.79084   2.81515
 Alpha virt. eigenvalues --    2.85324   2.88290   2.89497   2.95897   3.02332
 Alpha virt. eigenvalues --    3.02746   3.09469   3.11872   3.16312   3.24082
 Alpha virt. eigenvalues --    3.44220   3.65473   3.91163   4.11560   4.29462
 Alpha virt. eigenvalues --    4.31140   4.37434   4.39375   4.47626   4.52842
 Alpha virt. eigenvalues --    4.61729   4.75817   5.14416
  Beta  occ. eigenvalues --  -19.01802 -18.98033 -18.97871 -10.10621 -10.05869
  Beta  occ. eigenvalues --  -10.03978 -10.01190  -9.98715  -9.96474  -9.95606
  Beta  occ. eigenvalues --   -9.95021  -0.90300  -0.85967  -0.85088  -0.63709
  Beta  occ. eigenvalues --   -0.58604  -0.54695  -0.52049  -0.48228  -0.41835
  Beta  occ. eigenvalues --   -0.39433  -0.36906  -0.33438  -0.32910  -0.32437
  Beta  occ. eigenvalues --   -0.30442  -0.27214  -0.26226  -0.24554  -0.22101
  Beta  occ. eigenvalues --   -0.21587  -0.21292  -0.19678  -0.17219  -0.16522
  Beta  occ. eigenvalues --   -0.15714  -0.13627  -0.11803  -0.10047  -0.02337
  Beta  occ. eigenvalues --    0.00269
  Beta virt. eigenvalues --    0.21194   0.22421   0.23206   0.24019   0.24815
  Beta virt. eigenvalues --    0.27463   0.28047   0.29857   0.30027   0.30490
  Beta virt. eigenvalues --    0.32816   0.34580   0.35960   0.37277   0.40776
  Beta virt. eigenvalues --    0.42906   0.45088   0.47989   0.52008   0.53725
  Beta virt. eigenvalues --    0.54871   0.59324   0.65702   0.66985   0.67949
  Beta virt. eigenvalues --    0.69786   0.71931   0.73366   0.74162   0.75100
  Beta virt. eigenvalues --    0.77414   0.79647   0.80314   0.81645   0.81960
  Beta virt. eigenvalues --    0.83555   0.85376   0.87450   0.89053   0.89437
  Beta virt. eigenvalues --    0.91455   0.92780   0.93707   0.96779   0.97195
  Beta virt. eigenvalues --    0.97594   1.00512   1.01687   1.03116   1.05228
  Beta virt. eigenvalues --    1.06378   1.07520   1.08711   1.09210   1.12445
  Beta virt. eigenvalues --    1.13519   1.15444   1.16281   1.18529   1.19255
  Beta virt. eigenvalues --    1.22724   1.23966   1.26019   1.28128   1.31291
  Beta virt. eigenvalues --    1.31991   1.37592   1.42138   1.42642   1.45693
  Beta virt. eigenvalues --    1.46815   1.50790   1.53471   1.54160   1.58540
  Beta virt. eigenvalues --    1.60523   1.62166   1.65356   1.69102   1.70439
  Beta virt. eigenvalues --    1.71396   1.77778   1.83946   1.86239   1.90502
  Beta virt. eigenvalues --    1.91686   1.93925   1.96691   1.99445   2.02210
  Beta virt. eigenvalues --    2.05931   2.07213   2.09473   2.10242   2.13048
  Beta virt. eigenvalues --    2.14302   2.16763   2.21004   2.22254   2.24080
  Beta virt. eigenvalues --    2.25556   2.28267   2.30943   2.32857   2.33843
  Beta virt. eigenvalues --    2.38994   2.41553   2.41770   2.48731   2.49856
  Beta virt. eigenvalues --    2.51595   2.53604   2.55420   2.58347   2.63465
  Beta virt. eigenvalues --    2.63626   2.65134   2.67526   2.77939   2.79740
  Beta virt. eigenvalues --    2.82005   2.85798   2.89494   2.90016   2.96349
  Beta virt. eigenvalues --    3.02653   3.03036   3.09799   3.12184   3.16466
  Beta virt. eigenvalues --    3.24694   3.44392   3.65728   3.91242   4.11735
  Beta virt. eigenvalues --    4.29821   4.31578   4.37812   4.39838   4.47827
  Beta virt. eigenvalues --    4.53154   4.62372   4.76269   5.14831
          Condensed to atoms (all electrons):
               1          2          3          4          5          6
     1  C    4.858856   0.373554   0.023660  -0.053342  -0.047646   0.503677
     2  C    0.373554   5.533199   0.357483  -0.042582  -0.033815  -0.060951
     3  C    0.023660   0.357483   4.893995   0.538672  -0.037449  -0.027068
     4  C   -0.053342  -0.042582   0.538672   5.014480   0.505707  -0.004657
     5  C   -0.047646  -0.033815  -0.037449   0.505707   5.172783   0.443980
     6  C    0.503677  -0.060951  -0.027068  -0.004657   0.443980   4.808013
     7  H   -0.056999   0.330704  -0.044093   0.007863   0.000744   0.003587
     8  H    0.000523   0.008605  -0.054946   0.328208  -0.058518   0.005637
     9  H    0.009887   0.000167   0.005329  -0.054488   0.322584  -0.045973
    10  O   -0.070208   0.006178  -0.000030   0.003421  -0.042117   0.239970
    11  H   -0.014284   0.001678  -0.000147  -0.000063   0.005067  -0.046450
    12  O    0.200768  -0.061119   0.003138   0.000432   0.003540  -0.052535
    13  C   -0.042386  -0.008842   0.000287   0.000002  -0.000138   0.004504
    14  H   -0.002129   0.007281  -0.000045   0.000002  -0.000006  -0.000245
    15  H    0.002839   0.000419   0.000004   0.000000   0.000006   0.000037
    16  H   -0.000700   0.007416  -0.000424  -0.000020   0.000005  -0.000187
    17  C    0.005348  -0.079495   0.395354  -0.045876   0.005666   0.000832
    18  H   -0.000526   0.003265  -0.047164  -0.000894   0.000060  -0.000042
    19  H   -0.000001   0.008126  -0.045508  -0.007307  -0.000317   0.000017
    20  O    0.000710   0.005426  -0.070466   0.002416  -0.000004  -0.000008
    21  H   -0.000180  -0.007143   0.020634   0.000839  -0.000207   0.000036
               7          8          9         10         11         12
     1  C   -0.056999   0.000523   0.009887  -0.070208  -0.014284   0.200768
     2  C    0.330704   0.008605   0.000167   0.006178   0.001678  -0.061119
     3  C   -0.044093  -0.054946   0.005329  -0.000030  -0.000147   0.003138
     4  C    0.007863   0.328208  -0.054488   0.003421  -0.000063   0.000432
     5  C    0.000744  -0.058518   0.322584  -0.042117   0.005067   0.003540
     6  C    0.003587   0.005637  -0.045973   0.239970  -0.046450  -0.052535
     7  H    0.713299  -0.000256   0.000021  -0.000060  -0.000016  -0.008119
     8  H   -0.000256   0.755174  -0.008990  -0.000067   0.000008   0.000003
     9  H    0.000021  -0.008990   0.751640  -0.002291  -0.000534  -0.000078
    10  O   -0.000060  -0.000067  -0.002291   8.339124   0.243476  -0.012297
    11  H   -0.000016   0.000008  -0.000534   0.243476   0.397441   0.030642
    12  O   -0.008119   0.000003  -0.000078  -0.012297   0.030642   8.311373
    13  C    0.004899  -0.000001   0.000005   0.000278  -0.001794   0.266850
    14  H    0.001047   0.000000   0.000000  -0.000020   0.000122  -0.038295
    15  H    0.000093   0.000000   0.000000   0.000012  -0.000129  -0.037802
    16  H    0.001925   0.000000   0.000000  -0.000020   0.000123  -0.038606
    17  C   -0.016536  -0.013468  -0.000194   0.000000   0.000000  -0.000056
    18  H    0.001548  -0.000056   0.000005   0.000000   0.000000   0.000000
    19  H    0.000597   0.010887  -0.000007   0.000000   0.000000   0.000000
    20  O    0.013728   0.000095   0.000000   0.000000   0.000000   0.000000
    21  H    0.000252  -0.000039   0.000000   0.000000   0.000000  -0.000001
              13         14         15         16         17         18
     1  C   -0.042386  -0.002129   0.002839  -0.000700   0.005348  -0.000526
     2  C   -0.008842   0.007281   0.000419   0.007416  -0.079495   0.003265
     3  C    0.000287  -0.000045   0.000004  -0.000424   0.395354  -0.047164
     4  C    0.000002   0.000002   0.000000  -0.000020  -0.045876  -0.000894
     5  C   -0.000138  -0.000006   0.000006   0.000005   0.005666   0.000060
     6  C    0.004504  -0.000245   0.000037  -0.000187   0.000832  -0.000042
     7  H    0.004899   0.001047   0.000093   0.001925  -0.016536   0.001548
     8  H   -0.000001   0.000000   0.000000   0.000000  -0.013468  -0.000056
     9  H    0.000005   0.000000   0.000000   0.000000  -0.000194   0.000005
    10  O    0.000278  -0.000020   0.000012  -0.000020   0.000000   0.000000
    11  H   -0.001794   0.000122  -0.000129   0.000123   0.000000   0.000000
    12  O    0.266850  -0.038295  -0.037802  -0.038606  -0.000056   0.000000
    13  C    4.861467   0.358853   0.373559   0.356051  -0.000009  -0.000004
    14  H    0.358853   0.637033  -0.039595  -0.055468  -0.000029  -0.000005
    15  H    0.373559  -0.039595   0.626658  -0.038470   0.000000   0.000000
    16  H    0.356051  -0.055468  -0.038470   0.636029   0.000028   0.000020
    17  C   -0.000009  -0.000029   0.000000   0.000028   5.046895   0.296070
    18  H   -0.000004  -0.000005   0.000000   0.000020   0.296070   0.781025
    19  H    0.000000   0.000000   0.000000   0.000000   0.330779  -0.052841
    20  O   -0.000009   0.000003   0.000000  -0.000007   0.202412  -0.073192
    21  H    0.000001  -0.000012   0.000000   0.000006  -0.015584   0.016120
              19         20         21
     1  C   -0.000001   0.000710  -0.000180
     2  C    0.008126   0.005426  -0.007143
     3  C   -0.045508  -0.070466   0.020634
     4  C   -0.007307   0.002416   0.000839
     5  C   -0.000317  -0.000004  -0.000207
     6  C    0.000017  -0.000008   0.000036
     7  H    0.000597   0.013728   0.000252
     8  H    0.010887   0.000095  -0.000039
     9  H   -0.000007   0.000000   0.000000
    10  O    0.000000   0.000000   0.000000
    11  H    0.000000   0.000000   0.000000
    12  O    0.000000   0.000000  -0.000001
    13  C    0.000000  -0.000009   0.000001
    14  H    0.000000   0.000003  -0.000012
    15  H    0.000000   0.000000   0.000000
    16  H    0.000000  -0.000007   0.000006
    17  C    0.330779   0.202412  -0.015584
    18  H   -0.052841  -0.073192   0.016120
    19  H    0.730808  -0.037599  -0.005932
    20  O   -0.037599   8.411316   0.173176
    21  H   -0.005932   0.173176   0.475869
          Atomic-Atomic Spin Densities.
               1          2          3          4          5          6
     1  C   -0.054684  -0.068937   0.007194   0.004918  -0.014634   0.057404
     2  C   -0.068937   0.649094  -0.154438  -0.006213   0.018802  -0.034635
     3  C    0.007194  -0.154438   0.311912   0.016087  -0.026097   0.012205
     4  C    0.004918  -0.006213   0.016087  -0.099618  -0.009173  -0.000074
     5  C   -0.014634   0.018802  -0.026097  -0.009173   0.451266  -0.151662
     6  C    0.057404  -0.034635   0.012205  -0.000074  -0.151662   0.402929
     7  H   -0.000433   0.004731  -0.002351  -0.000434  -0.000056   0.000011
     8  H   -0.000024   0.000050  -0.002239   0.001556  -0.000340   0.000196
     9  H   -0.000253  -0.000060   0.000008  -0.000100   0.004536  -0.001505
    10  O   -0.003471   0.000501  -0.000086  -0.000060   0.008595  -0.045559
    11  H    0.000331   0.000025  -0.000006  -0.000001   0.000046  -0.000283
    12  O    0.001852   0.003061   0.000045  -0.000017   0.000294  -0.005993
    13  C    0.002692  -0.002525   0.000116   0.000001  -0.000024   0.000399
    14  H   -0.001275   0.001364   0.000001   0.000003   0.000005  -0.000092
    15  H   -0.000020   0.000003  -0.000001   0.000000   0.000000  -0.000005
    16  H   -0.000915   0.001693  -0.000203  -0.000004   0.000010  -0.000098
    17  C    0.000403  -0.018748   0.041626   0.004351  -0.000798   0.000204
    18  H   -0.000272   0.011835  -0.022308  -0.003129   0.000275  -0.000074
    19  H   -0.000010   0.000150   0.000604   0.000280  -0.000058   0.000005
    20  O   -0.000023   0.005957  -0.014759   0.000754   0.000047  -0.000017
    21  H    0.000124  -0.007835   0.010692  -0.000348  -0.000134   0.000067
               7          8          9         10         11         12
     1  C   -0.000433  -0.000024  -0.000253  -0.003471   0.000331   0.001852
     2  C    0.004731   0.000050  -0.000060   0.000501   0.000025   0.003061
     3  C   -0.002351  -0.002239   0.000008  -0.000086  -0.000006   0.000045
     4  C   -0.000434   0.001556  -0.000100  -0.000060  -0.000001  -0.000017
     5  C   -0.000056  -0.000340   0.004536   0.008595   0.000046   0.000294
     6  C    0.000011   0.000196  -0.001505  -0.045559  -0.000283  -0.005993
     7  H   -0.026765  -0.000001   0.000000   0.000000   0.000002   0.000139
     8  H   -0.000001   0.002642   0.000235   0.000000   0.000000   0.000000
     9  H    0.000000   0.000235  -0.020872   0.000271   0.000003   0.000002
    10  O    0.000000   0.000000   0.000271   0.058298   0.000022   0.000572
    11  H    0.000002   0.000000   0.000003   0.000022  -0.001275  -0.000096
    12  O    0.000139   0.000000   0.000002   0.000572  -0.000096   0.002072
    13  C   -0.000287   0.000000   0.000000  -0.000023   0.000021  -0.003645
    14  H   -0.000172   0.000000   0.000000   0.000002  -0.000002   0.001083
    15  H   -0.000017   0.000000   0.000000   0.000000  -0.000003  -0.000038
    16  H    0.000502   0.000000   0.000000   0.000003   0.000004   0.000891
    17  C    0.001326   0.001626   0.000001   0.000000   0.000000  -0.000001
    18  H    0.000739  -0.000371   0.000000   0.000000   0.000000   0.000000
    19  H    0.000021  -0.000292   0.000000   0.000000   0.000000   0.000000
    20  O   -0.000928   0.000058   0.000000   0.000000   0.000000   0.000000
    21  H    0.000595  -0.000052   0.000000   0.000000   0.000000  -0.000002
              13         14         15         16         17         18
     1  C    0.002692  -0.001275  -0.000020  -0.000915   0.000403  -0.000272
     2  C   -0.002525   0.001364   0.000003   0.001693  -0.018748   0.011835
     3  C    0.000116   0.000001  -0.000001  -0.000203   0.041626  -0.022308
     4  C    0.000001   0.000003   0.000000  -0.000004   0.004351  -0.003129
     5  C   -0.000024   0.000005   0.000000   0.000010  -0.000798   0.000275
     6  C    0.000399  -0.000092  -0.000005  -0.000098   0.000204  -0.000074
     7  H   -0.000287  -0.000172  -0.000017   0.000502   0.001326   0.000739
     8  H    0.000000   0.000000   0.000000   0.000000   0.001626  -0.000371
     9  H    0.000000   0.000000   0.000000   0.000000   0.000001   0.000000
    10  O   -0.000023   0.000002   0.000000   0.000003   0.000000   0.000000
    11  H    0.000021  -0.000002  -0.000003   0.000004   0.000000   0.000000
    12  O   -0.003645   0.001083  -0.000038   0.000891  -0.000001   0.000000
    13  C    0.004016   0.001048   0.000043  -0.001304   0.000001  -0.000003
    14  H    0.001048  -0.002978  -0.000053   0.000562  -0.000010  -0.000003
    15  H    0.000043  -0.000053  -0.000131   0.000111   0.000000   0.000000
    16  H   -0.001304   0.000562   0.000111  -0.001039   0.000005   0.000015
    17  C    0.000001  -0.000010   0.000000   0.000005   0.082706  -0.055736
    18  H   -0.000003  -0.000003   0.000000   0.000015  -0.055736   0.120257
    19  H    0.000000   0.000000   0.000000   0.000000  -0.000399   0.004063
    20  O    0.000000   0.000006   0.000000  -0.000004  -0.048321  -0.026809
    21  H    0.000003  -0.000023   0.000000   0.000007   0.020125   0.005873
              19         20         21
     1  C   -0.000010  -0.000023   0.000124
     2  C    0.000150   0.005957  -0.007835
     3  C    0.000604  -0.014759   0.010692
     4  C    0.000280   0.000754  -0.000348
     5  C   -0.000058   0.000047  -0.000134
     6  C    0.000005  -0.000017   0.000067
     7  H    0.000021  -0.000928   0.000595
     8  H   -0.000292   0.000058  -0.000052
     9  H    0.000000   0.000000   0.000000
    10  O    0.000000   0.000000   0.000000
    11  H    0.000000   0.000000   0.000000
    12  O    0.000000   0.000000  -0.000002
    13  C    0.000000   0.000000   0.000003
    14  H    0.000000   0.000006  -0.000023
    15  H    0.000000   0.000000   0.000000
    16  H    0.000000  -0.000004   0.000007
    17  C   -0.000399  -0.048321   0.020125
    18  H    0.004063  -0.026809   0.005873
    19  H   -0.003615  -0.003219   0.001542
    20  O   -0.003219   0.135307  -0.047403
    21  H    0.001542  -0.047403   0.039261
 Mulliken charges and spin densities:
               1          2
     1  C    0.308577  -0.070032
     2  C   -0.349553   0.403875
     3  C    0.088782   0.178003
     4  C   -0.192810  -0.091221
     5  C   -0.239925   0.280903
     6  C    0.227827   0.233426
     7  H    0.045772  -0.023379
     8  H    0.027201   0.003044
     9  H    0.022917  -0.017735
    10  O   -0.705349   0.019066
    11  H    0.384862  -0.001213
    12  O   -0.567840   0.000217
    13  C   -0.173574   0.000528
    14  H    0.131510  -0.000535
    15  H    0.112367  -0.000109
    16  H    0.132299   0.000237
    17  C   -0.112138   0.028361
    18  H    0.076609   0.034353
    19  H    0.068298  -0.000927
    20  O   -0.627997   0.000646
    21  H    0.342165   0.022493
 Sum of Mulliken charges =  -1.00000   1.00000
 Mulliken charges and spin densities with hydrogens summed into heavy atoms:
               1          2
     1  C    0.308577  -0.070032
     2  C   -0.303782   0.380496
     3  C    0.088782   0.178003
     4  C   -0.165609  -0.088177
     5  C   -0.217009   0.263168
     6  C    0.227827   0.233426
    10  O   -0.320487   0.017853
    12  O   -0.567840   0.000217
    13  C    0.202603   0.000121
    17  C    0.032769   0.061787
    20  O   -0.285832   0.023139
 Electronic spatial extent (au):  <R**2>=           1989.6453
 Charge=             -1.0000 electrons
 Dipole moment (field-independent basis, Debye):
    X=             -1.5328    Y=              3.3713    Z=             -0.7107  Tot=              3.7710
 Quadrupole moment (field-independent basis, Debye-Ang):
   XX=            -87.1269   YY=            -76.6924   ZZ=            -68.1465
   XY=            -11.1962   XZ=             -2.5325   YZ=             -0.7531
 Traceless Quadrupole moment (field-independent basis, Debye-Ang):
   XX=             -9.8050   YY=              0.6295   ZZ=              9.1755
   XY=            -11.1962   XZ=             -2.5325   YZ=             -0.7531
 Octapole moment (field-independent basis, Debye-Ang**2):
  XXX=            -53.1771  YYY=             29.9142  ZZZ=             -7.7291  XYY=             -4.3312
  XXY=             -0.2136  XXZ=             -6.2383  XZZ=              3.2674  YZZ=              9.4647
  YYZ=             -0.9837  XYZ=             -0.7992
 Hexadecapole moment (field-independent basis, Debye-Ang**3):
 XXXX=          -1724.4394 YYYY=           -950.2579 ZZZZ=            -98.2580 XXXY=            -93.9838
 XXXZ=            -21.2850 YYYX=            -26.1048 YYYZ=             -1.6876 ZZZX=            -19.2369
 ZZZY=             -5.9863 XXYY=           -472.6882 XXZZ=           -259.1605 YYZZ=           -177.9531
 XXYZ=             -5.5722 YYXZ=             -5.6902 ZZXY=             12.8071
 N-N= 6.076458861871D+02 E-N=-2.482943863871D+03  KE= 5.322103876586D+02
                          Isotropic Fermi Contact Couplings
        Atom                 a.u.       MegaHertz       Gauss      10(-4) cm-1
     1  C(13)             -0.01980     -22.26391      -7.94432      -7.42644
     2  C(13)              0.03996      44.92284      16.02959      14.98465
     3  C(13)              0.01501      16.87632       6.02189       5.62933
     4  C(13)             -0.01657     -18.63320      -6.64879      -6.21537
     5  C(13)              0.02470      27.76503       9.90725       9.26142
     6  C(13)              0.02114      23.76112       8.47856       7.92586
     7  H(1)              -0.00657     -29.37418     -10.48144      -9.79817
     8  H(1)               0.00070       3.13553       1.11883       1.04590
     9  H(1)              -0.00474     -21.19165      -7.56171      -7.06877
    10  O(17)              0.00588      -3.56301      -1.27137      -1.18849
    11  H(1)              -0.00054      -2.41013      -0.86000      -0.80393
    12  O(17)             -0.00043       0.26307       0.09387       0.08775
    13  C(13)             -0.00031      -0.35044      -0.12505      -0.11690
    14  H(1)               0.00020       0.87583       0.31252       0.29215
    15  H(1)              -0.00003      -0.12167      -0.04341      -0.04058
    16  H(1)               0.00011       0.47879       0.17084       0.15971
    17  C(13)             -0.00766      -8.60582      -3.07077      -2.87059
    18  H(1)               0.00564      25.19441       8.98999       8.40395
    19  H(1)               0.00001       0.05029       0.01794       0.01678
    20  O(17)              0.08297     -50.29367     -17.94603     -16.77616
    21  H(1)               0.00072       3.22184       1.14963       1.07469
 --------------------------------------------------------
       Center         ----  Spin Dipole Couplings  ----
                      3XX-RR        3YY-RR        3ZZ-RR
 --------------------------------------------------------
     1   Atom        0.020429      0.014640     -0.035069
     2   Atom       -0.208575     -0.205792      0.414367
     3   Atom       -0.103618     -0.112579      0.216196
     4   Atom        0.033766      0.031865     -0.065631
     5   Atom       -0.145964     -0.137806      0.283770
     6   Atom       -0.158097     -0.156177      0.314274
     7   Atom       -0.024503      0.025029     -0.000526
     8   Atom        0.002505      0.002919     -0.005424
     9   Atom       -0.017652      0.019068     -0.001416
    10   Atom       -0.080179     -0.079810      0.159988
    11   Atom        0.006883     -0.000523     -0.006360
    12   Atom        0.001208      0.003179     -0.004387
    13   Atom       -0.000773     -0.000235      0.001008
    14   Atom       -0.000552      0.002890     -0.002338
    15   Atom        0.000592      0.000836     -0.001428
    16   Atom       -0.000387      0.002386     -0.001999
    17   Atom       -0.004094      0.001546      0.002548
    18   Atom        0.004255     -0.001445     -0.002811
    19   Atom        0.006923     -0.005116     -0.001806
    20   Atom       -0.012772      0.048767     -0.035995
    21   Atom       -0.000589     -0.003165      0.003754
 --------------------------------------------------------
                        XY            XZ            YZ
 --------------------------------------------------------
     1   Atom        0.007731      0.003208      0.001964
     2   Atom        0.003329     -0.060149     -0.022966
     3   Atom       -0.003401     -0.030165     -0.016538
     4   Atom        0.007019      0.004680      0.004134
     5   Atom        0.000336     -0.033483     -0.022740
     6   Atom       -0.000667     -0.030027     -0.016945
     7   Atom        0.017214      0.000501      0.005818
     8   Atom        0.001122      0.000768      0.000183
     9   Atom        0.012521     -0.000740      0.001740
    10   Atom       -0.003290     -0.015977     -0.012964
    11   Atom       -0.006879      0.000458     -0.000132
    12   Atom       -0.004265     -0.002768      0.000947
    13   Atom       -0.003627      0.000029      0.000406
    14   Atom       -0.002973      0.000451     -0.001640
    15   Atom       -0.001874      0.000083      0.000001
    16   Atom       -0.003242     -0.000356      0.001713
    17   Atom        0.004205     -0.003376     -0.017620
    18   Atom        0.003676      0.005201      0.001510
    19   Atom       -0.003630     -0.001858     -0.000088
    20   Atom        0.032274      0.003524      0.010897
    21   Atom        0.003849     -0.002367     -0.003026
 --------------------------------------------------------


 ---------------------------------------------------------------------------------
              Anisotropic Spin Dipole Couplings in Principal Axis System
 ---------------------------------------------------------------------------------

       Atom             a.u.   MegaHertz   Gauss  10(-4) cm-1        Axes

              Baa    -0.0353    -4.737    -1.690    -1.580 -0.0532 -0.0310  0.9981
     1 C(13)  Bbb     0.0093     1.245     0.444     0.415 -0.5689  0.8224 -0.0047
              Bcc     0.0260     3.492     1.246     1.165  0.8207  0.5681  0.0614
 
              Baa    -0.2145   -28.783   -10.270    -9.601  0.9859 -0.1420  0.0891
     2 C(13)  Bbb    -0.2065   -27.709    -9.887    -9.243  0.1379  0.9892  0.0500
              Bcc     0.4210    56.491    20.158    18.843 -0.0952 -0.0370  0.9948
 
              Baa    -0.1159   -15.555    -5.550    -5.189  0.4547  0.8865  0.0854
     3 C(13)  Bbb    -0.1039   -13.940    -4.974    -4.650  0.8859 -0.4601  0.0597
              Bcc     0.2198    29.495    10.525     9.839 -0.0923 -0.0485  0.9946
 
              Baa    -0.0660    -8.856    -3.160    -2.954 -0.0441 -0.0390  0.9983
     4 C(13)  Bbb     0.0257     3.453     1.232     1.152 -0.6581  0.7530  0.0004
              Bcc     0.0403     5.403     1.928     1.802  0.7517  0.6569  0.0589
 
              Baa    -0.1488   -19.963    -7.123    -6.659  0.9860  0.1438  0.0839
     5 C(13)  Bbb    -0.1388   -18.627    -6.647    -6.213 -0.1477  0.9882  0.0415
              Bcc     0.2876    38.590    13.770    12.872 -0.0769 -0.0533  0.9956
 
              Baa    -0.1608   -21.572    -7.697    -7.196  0.9138  0.3996  0.0720
     6 C(13)  Bbb    -0.1560   -20.937    -7.471    -6.984 -0.4012  0.9160  0.0074
              Bcc     0.3168    42.508    15.168    14.179 -0.0630 -0.0356  0.9974
 
              Baa    -0.0300   -15.982    -5.703    -5.331  0.9521 -0.3027  0.0436
     7 H(1)   Bbb    -0.0015    -0.794    -0.283    -0.265 -0.0942 -0.1546  0.9835
              Bcc     0.0314    16.776     5.986     5.596  0.2910  0.9405  0.1757
 
              Baa    -0.0055    -2.934    -1.047    -0.979 -0.0942 -0.0091  0.9955
     8 H(1)   Bbb     0.0016     0.855     0.305     0.285  0.7550 -0.6525  0.0655
              Bcc     0.0039     2.079     0.742     0.693  0.6490  0.7577  0.0683
 
              Baa    -0.0216   -11.519    -4.110    -3.842  0.9532 -0.2962  0.0605
     9 H(1)   Bbb    -0.0014    -0.762    -0.272    -0.254 -0.0752 -0.0386  0.9964
              Bcc     0.0230    12.280     4.382     4.096  0.2928  0.9544  0.0591
 
              Baa    -0.0850     6.151     2.195     2.052  0.7348  0.6732  0.0835
    10 O(17)  Bbb    -0.0767     5.551     1.981     1.851 -0.6752  0.7376 -0.0052
              Bcc     0.1617   -11.702    -4.175    -3.903 -0.0651 -0.0526  0.9965
 
              Baa    -0.0064    -3.405    -1.215    -1.136 -0.0584 -0.0461  0.9972
    11 H(1)   Bbb    -0.0046    -2.467    -0.880    -0.823  0.5098  0.8575  0.0695
              Bcc     0.0110     5.872     2.095     1.959  0.8583 -0.5125  0.0265
 
              Baa    -0.0056     0.406     0.145     0.135  0.4343  0.1144  0.8935
    12 O(17)  Bbb    -0.0015     0.109     0.039     0.036  0.6379  0.6613 -0.3947
              Bcc     0.0071    -0.515    -0.184    -0.172 -0.6360  0.7414  0.2142
 
              Baa    -0.0042    -0.558    -0.199    -0.186  0.7301  0.6809 -0.0576
    13 C(13)  Bbb     0.0010     0.133     0.047     0.044  0.1293 -0.0549  0.9901
              Bcc     0.0032     0.425     0.152     0.142 -0.6710  0.7303  0.1282
 
              Baa    -0.0030    -1.579    -0.564    -0.527  0.3565  0.4157  0.8368
    14 H(1)   Bbb    -0.0020    -1.075    -0.384    -0.359  0.8040  0.3197 -0.5013
              Bcc     0.0050     2.655     0.947     0.886 -0.4759  0.8515 -0.2202
 
              Baa    -0.0014    -0.770    -0.275    -0.257 -0.1659 -0.1371  0.9766
    15 H(1)   Bbb    -0.0011    -0.614    -0.219    -0.205  0.7105  0.6701  0.2148
              Bcc     0.0026     1.383     0.494     0.461 -0.6838  0.7295 -0.0138
 
              Baa    -0.0031    -1.648    -0.588    -0.550 -0.5473 -0.5274  0.6499
    16 H(1)   Bbb    -0.0018    -0.972    -0.347    -0.324  0.6565  0.2111  0.7242
              Bcc     0.0049     2.620     0.935     0.874 -0.5191  0.8230  0.2307
 
              Baa    -0.0156    -2.096    -0.748    -0.699 -0.0617  0.7222  0.6889
    17 C(13)  Bbb    -0.0052    -0.698    -0.249    -0.233  0.9757 -0.1016  0.1940
              Bcc     0.0208     2.794     0.997     0.932 -0.2101 -0.6842  0.6984
 
              Baa    -0.0056    -2.997    -1.069    -1.000 -0.4998  0.1305  0.8563
    18 H(1)   Bbb    -0.0030    -1.578    -0.563    -0.526 -0.2591  0.9208 -0.2915
              Bcc     0.0086     4.574     1.632     1.526  0.8265  0.3675  0.4264
 
              Baa    -0.0062    -3.312    -1.182    -1.105  0.2820  0.9494  0.1380
    19 H(1)   Bbb    -0.0020    -1.087    -0.388    -0.362  0.1293 -0.1802  0.9751
              Bcc     0.0082     4.399     1.570     1.467  0.9507 -0.2572 -0.1735
 
              Baa    -0.0374     2.706     0.966     0.903  0.0440 -0.1415  0.9890
    20 O(17)  Bbb    -0.0265     1.917     0.684     0.639  0.9198 -0.3806 -0.0954
              Bcc     0.0639    -4.623    -1.650    -1.542  0.3899  0.9138  0.1134
 
              Baa    -0.0061    -3.242    -1.157    -1.081 -0.5312  0.8372  0.1298
    21 H(1)   Bbb    -0.0007    -0.383    -0.137    -0.128  0.7066  0.3533  0.6131
              Bcc     0.0068     3.625     1.294     1.209 -0.4675 -0.4174  0.7793
 

 ---------------------------------------------------------------------------------

 No NMR shielding tensors so no spin-rotation constants.
 Leave Link  601 at Wed Dec 03 10:48:30 2025, MaxMem=   104857600 cpu:               0.0 elap:               0.2
 (Enter D:\Gaussian\G16W\l9999.exe)
 1|1|UNPC-PC-20250526LCFF|SP|UB3LYP|6-31G(d)|C8H10O3(1-,2)|ADMINISTRATO
 R|03-Dec-2025|0||#P B3LYP/6-31G* SCF=conver=7 out=wfn||Generated by Mu
 ltiwfn (http://sobereva.com/multiwfn)||-1,2|C,0,-0.927198,0.270633,0.0
 29944|C,0,0.416502,0.596591,0.133063|C,0,1.389135,-0.415708,0.153257|C
 ,0,0.984829,-1.743945,0.061657|C,0,-0.368333,-2.076254,-0.036341|C,0,-
 1.329778,-1.0777,-0.05184|H,0,0.740198,1.627829,0.185283|H,0,1.727046,
 -2.535316,0.064443|H,0,-0.692591,-3.107279,-0.110361|O,0,-2.649884,-1.
 391879,-0.154269|H,0,-3.140877,-0.559323,-0.150356|O,0,-1.973846,1.159
 893,-0.005118|C,0,-1.683451,2.548491,0.092834|H,0,-1.059968,2.882608,-
 0.74303|H,0,-2.643675,3.060239,0.055801|H,0,-1.181165,2.781803,1.03742
 4|C,0,2.848441,-0.044909,0.307622|H,0,3.078283,0.181197,1.353336|H,0,3
 .476193,-0.897512,0.015461|O,0,3.214483,1.135817,-0.405384|H,0,2.98965
 4,0.991911,-1.331006||Version=EM64W-G16RevA.03|State=2-A|HF=-536.43262
 73|S2=0.757978|S2-1=0.|S2A=0.750043|RMSD=7.548e-008|Dipole=-0.6030547,
 1.3263682,-0.2796127|Quadrupole=-7.2897692,0.4680271,6.8217421,-8.3240
 901,-1.8828766,-0.5598807|PG=C01 [X(C8H10O3)]||@

 Writing a WFN file to "N+1.wfn"


 I take a simple view of life: keep your eyes open and get on with it.
 -- Laurence Olivier
 Job cpu time:       0 days  0 hours  0 minutes 45.0 seconds.
 Elapsed time:       0 days  0 hours  0 minutes 44.8 seconds.
 File lengths (MBytes):  RWF=     38 Int=      0 D2E=      0 Chk=      4 Scr=      1
 Normal termination of Gaussian 16 at Wed Dec 03 10:48:30 2025.
