 Generated by Multiwfn (http://sobereva.com/multiwfn)
GAUSSIAN             83 MOL ORBITALS    348 PRIMITIVES       21 NUCLEI
  C    1    (CENTRE  1)  -1.75215042  0.51142211  0.05658589  CHARGE =  6.0
  C    2    (CENTRE  2)   0.78707451  1.12739370  0.25145256  CHARGE =  6.0
  C    3    (CENTRE  3)   2.62508468 -0.78557400  0.28961369  CHARGE =  6.0
  C    4    (CENTRE  4)   1.86105731 -3.29557823  0.11651477  CHARGE =  6.0
  C    5    (CENTRE  5)  -0.69604821 -3.92355147 -0.06867461  CHARGE =  6.0
  C    6    (CENTRE  6)  -2.51291613 -2.03655806 -0.09796347  CHARGE =  6.0
  H    7    (CENTRE  7)   1.39877111  3.07615114  0.35013406  CHARGE =  1.0
  H    8    (CENTRE  8)   3.26364431 -4.79105255  0.12177955  CHARGE =  1.0
  H    9    (CENTRE  9)  -1.30880684 -5.87190640 -0.20855213  CHARGE =  1.0
  O   10    (CENTRE 10)  -5.00755486 -2.63027056 -0.29152623  CHARGE =  8.0
  H   11    (CENTRE 11)  -5.93539731 -1.05696782 -0.28413173  CHARGE =  1.0
  O   12    (CENTRE 12)  -3.73002865  2.19187977 -0.00967169  CHARGE =  8.0
  C   13    (CENTRE 13)  -3.18126188  4.81594974  0.17543077  CHARGE =  6.0
  H   14    (CENTRE 14)  -2.00304983  5.44733948 -1.40412327  CHARGE =  1.0
  H   15    (CENTRE 15)  -4.99582235  5.78301314  0.10544854  CHARGE =  1.0
  H   16    (CENTRE 16)  -2.23207895  5.25684561  1.96044717  CHARGE =  1.0
  C   17    (CENTRE 17)   5.38277329 -0.08486518  0.58132126  CHARGE =  6.0
  H   18    (CENTRE 18)   5.81711168  0.34241328  2.55743433  CHARGE =  1.0
  H   19    (CENTRE 19)   6.56905279 -1.69605123  0.02921699  CHARGE =  1.0
  O   20    (CENTRE 20)   6.07449221  2.14638366 -0.76606480  CHARGE =  8.0
  H   21    (CENTRE 21)   5.64962700  1.87444069 -2.51523688  CHARGE =  1.0
CENTRE ASSIGNMENTS    1  1  1  1  1  1  1  1  1  1  1  1  1  1  1  1  1  1  1  1
CENTRE ASSIGNMENTS    1  1  1  1  1  1  1  1  2  2  2  2  2  2  2  2  2  2  2  2
CENTRE ASSIGNMENTS    2  2  2  2  2  2  2  2  2  2  2  2  2  2  2  2  3  3  3  3
CENTRE ASSIGNMENTS    3  3  3  3  3  3  3  3  3  3  3  3  3  3  3  3  3  3  3  3
CENTRE ASSIGNMENTS    3  3  3  3  4  4  4  4  4  4  4  4  4  4  4  4  4  4  4  4
CENTRE ASSIGNMENTS    4  4  4  4  4  4  4  4  4  4  4  4  5  5  5  5  5  5  5  5
CENTRE ASSIGNMENTS    5  5  5  5  5  5  5  5  5  5  5  5  5  5  5  5  5  5  5  5
CENTRE ASSIGNMENTS    6  6  6  6  6  6  6  6  6  6  6  6  6  6  6  6  6  6  6  6
CENTRE ASSIGNMENTS    6  6  6  6  6  6  6  6  7  7  7  7  8  8  8  8  9  9  9  9
CENTRE ASSIGNMENTS   10 10 10 10 10 10 10 10 10 10 10 10 10 10 10 10 10 10 10 10
CENTRE ASSIGNMENTS   10 10 10 10 10 10 10 10 11 11 11 11 12 12 12 12 12 12 12 12
CENTRE ASSIGNMENTS   12 12 12 12 12 12 12 12 12 12 12 12 12 12 12 12 12 12 12 12
CENTRE ASSIGNMENTS   13 13 13 13 13 13 13 13 13 13 13 13 13 13 13 13 13 13 13 13
CENTRE ASSIGNMENTS   13 13 13 13 13 13 13 13 14 14 14 14 15 15 15 15 16 16 16 16
CENTRE ASSIGNMENTS   17 17 17 17 17 17 17 17 17 17 17 17 17 17 17 17 17 17 17 17
CENTRE ASSIGNMENTS   17 17 17 17 17 17 17 17 18 18 18 18 19 19 19 19 20 20 20 20
CENTRE ASSIGNMENTS   20 20 20 20 20 20 20 20 20 20 20 20 20 20 20 20 20 20 20 20
CENTRE ASSIGNMENTS   20 20 20 20 21 21 21 21
TYPE ASSIGNMENTS      1  1  1  1  1  1  1  1  1  2  2  2  3  3  3  4  4  4  1  2
TYPE ASSIGNMENTS      3  4  5  6  7  8  9 10  1  1  1  1  1  1  1  1  1  2  2  2
TYPE ASSIGNMENTS      3  3  3  4  4  4  1  2  3  4  5  6  7  8  9 10  1  1  1  1
TYPE ASSIGNMENTS      1  1  1  1  1  2  2  2  3  3  3  4  4  4  1  2  3  4  5  6
TYPE ASSIGNMENTS      7  8  9 10  1  1  1  1  1  1  1  1  1  2  2  2  3  3  3  4
TYPE ASSIGNMENTS      4  4  1  2  3  4  5  6  7  8  9 10  1  1  1  1  1  1  1  1
TYPE ASSIGNMENTS      1  2  2  2  3  3  3  4  4  4  1  2  3  4  5  6  7  8  9 10
TYPE ASSIGNMENTS      1  1  1  1  1  1  1  1  1  2  2  2  3  3  3  4  4  4  1  2
TYPE ASSIGNMENTS      3  4  5  6  7  8  9 10  1  1  1  1  1  1  1  1  1  1  1  1
TYPE ASSIGNMENTS      1  1  1  1  1  1  1  1  1  2  2  2  3  3  3  4  4  4  1  2
TYPE ASSIGNMENTS      3  4  5  6  7  8  9 10  1  1  1  1  1  1  1  1  1  1  1  1
TYPE ASSIGNMENTS      1  2  2  2  3  3  3  4  4  4  1  2  3  4  5  6  7  8  9 10
TYPE ASSIGNMENTS      1  1  1  1  1  1  1  1  1  2  2  2  3  3  3  4  4  4  1  2
TYPE ASSIGNMENTS      3  4  5  6  7  8  9 10  1  1  1  1  1  1  1  1  1  1  1  1
TYPE ASSIGNMENTS      1  1  1  1  1  1  1  1  1  2  2  2  3  3  3  4  4  4  1  2
TYPE ASSIGNMENTS      3  4  5  6  7  8  9 10  1  1  1  1  1  1  1  1  1  1  1  1
TYPE ASSIGNMENTS      1  1  1  1  1  2  2  2  3  3  3  4  4  4  1  2  3  4  5  6
TYPE ASSIGNMENTS      7  8  9 10  1  1  1  1
EXPONENTS  0.3047525D+04 0.4573695D+03 0.1039487D+03 0.2921016D+02 0.9286663D+01
EXPONENTS  0.3163927D+01 0.7868272D+01 0.1881289D+01 0.5442493D+00 0.7868272D+01
EXPONENTS  0.1881289D+01 0.5442493D+00 0.7868272D+01 0.1881289D+01 0.5442493D+00
EXPONENTS  0.7868272D+01 0.1881289D+01 0.5442493D+00 0.1687145D+00 0.1687145D+00
EXPONENTS  0.1687145D+00 0.1687145D+00 0.8000000D+00 0.8000000D+00 0.8000000D+00
EXPONENTS  0.8000000D+00 0.8000000D+00 0.8000000D+00 0.3047525D+04 0.4573695D+03
EXPONENTS  0.1039487D+03 0.2921016D+02 0.9286663D+01 0.3163927D+01 0.7868272D+01
EXPONENTS  0.1881289D+01 0.5442493D+00 0.7868272D+01 0.1881289D+01 0.5442493D+00
EXPONENTS  0.7868272D+01 0.1881289D+01 0.5442493D+00 0.7868272D+01 0.1881289D+01
EXPONENTS  0.5442493D+00 0.1687145D+00 0.1687145D+00 0.1687145D+00 0.1687145D+00
EXPONENTS  0.8000000D+00 0.8000000D+00 0.8000000D+00 0.8000000D+00 0.8000000D+00
EXPONENTS  0.8000000D+00 0.3047525D+04 0.4573695D+03 0.1039487D+03 0.2921016D+02
EXPONENTS  0.9286663D+01 0.3163927D+01 0.7868272D+01 0.1881289D+01 0.5442493D+00
EXPONENTS  0.7868272D+01 0.1881289D+01 0.5442493D+00 0.7868272D+01 0.1881289D+01
EXPONENTS  0.5442493D+00 0.7868272D+01 0.1881289D+01 0.5442493D+00 0.1687145D+00
EXPONENTS  0.1687145D+00 0.1687145D+00 0.1687145D+00 0.8000000D+00 0.8000000D+00
EXPONENTS  0.8000000D+00 0.8000000D+00 0.8000000D+00 0.8000000D+00 0.3047525D+04
EXPONENTS  0.4573695D+03 0.1039487D+03 0.2921016D+02 0.9286663D+01 0.3163927D+01
EXPONENTS  0.7868272D+01 0.1881289D+01 0.5442493D+00 0.7868272D+01 0.1881289D+01
EXPONENTS  0.5442493D+00 0.7868272D+01 0.1881289D+01 0.5442493D+00 0.7868272D+01
EXPONENTS  0.1881289D+01 0.5442493D+00 0.1687145D+00 0.1687145D+00 0.1687145D+00
EXPONENTS  0.1687145D+00 0.8000000D+00 0.8000000D+00 0.8000000D+00 0.8000000D+00
EXPONENTS  0.8000000D+00 0.8000000D+00 0.3047525D+04 0.4573695D+03 0.1039487D+03
EXPONENTS  0.2921016D+02 0.9286663D+01 0.3163927D+01 0.7868272D+01 0.1881289D+01
EXPONENTS  0.5442493D+00 0.7868272D+01 0.1881289D+01 0.5442493D+00 0.7868272D+01
EXPONENTS  0.1881289D+01 0.5442493D+00 0.7868272D+01 0.1881289D+01 0.5442493D+00
EXPONENTS  0.1687145D+00 0.1687145D+00 0.1687145D+00 0.1687145D+00 0.8000000D+00
EXPONENTS  0.8000000D+00 0.8000000D+00 0.8000000D+00 0.8000000D+00 0.8000000D+00
EXPONENTS  0.3047525D+04 0.4573695D+03 0.1039487D+03 0.2921016D+02 0.9286663D+01
EXPONENTS  0.3163927D+01 0.7868272D+01 0.1881289D+01 0.5442493D+00 0.7868272D+01
EXPONENTS  0.1881289D+01 0.5442493D+00 0.7868272D+01 0.1881289D+01 0.5442493D+00
EXPONENTS  0.7868272D+01 0.1881289D+01 0.5442493D+00 0.1687145D+00 0.1687145D+00
EXPONENTS  0.1687145D+00 0.1687145D+00 0.8000000D+00 0.8000000D+00 0.8000000D+00
EXPONENTS  0.8000000D+00 0.8000000D+00 0.8000000D+00 0.1873114D+02 0.2825394D+01
EXPONENTS  0.6401217D+00 0.1612778D+00 0.1873114D+02 0.2825394D+01 0.6401217D+00
EXPONENTS  0.1612778D+00 0.1873114D+02 0.2825394D+01 0.6401217D+00 0.1612778D+00
EXPONENTS  0.5484672D+04 0.8252349D+03 0.1880470D+03 0.5296450D+02 0.1689757D+02
EXPONENTS  0.5799635D+01 0.1553962D+02 0.3599934D+01 0.1013762D+01 0.1553962D+02
EXPONENTS  0.3599934D+01 0.1013762D+01 0.1553962D+02 0.3599934D+01 0.1013762D+01
EXPONENTS  0.1553962D+02 0.3599934D+01 0.1013762D+01 0.2700058D+00 0.2700058D+00
EXPONENTS  0.2700058D+00 0.2700058D+00 0.8000000D+00 0.8000000D+00 0.8000000D+00
EXPONENTS  0.8000000D+00 0.8000000D+00 0.8000000D+00 0.1873114D+02 0.2825394D+01
EXPONENTS  0.6401217D+00 0.1612778D+00 0.5484672D+04 0.8252349D+03 0.1880470D+03
EXPONENTS  0.5296450D+02 0.1689757D+02 0.5799635D+01 0.1553962D+02 0.3599934D+01
EXPONENTS  0.1013762D+01 0.1553962D+02 0.3599934D+01 0.1013762D+01 0.1553962D+02
EXPONENTS  0.3599934D+01 0.1013762D+01 0.1553962D+02 0.3599934D+01 0.1013762D+01
EXPONENTS  0.2700058D+00 0.2700058D+00 0.2700058D+00 0.2700058D+00 0.8000000D+00
EXPONENTS  0.8000000D+00 0.8000000D+00 0.8000000D+00 0.8000000D+00 0.8000000D+00
EXPONENTS  0.3047525D+04 0.4573695D+03 0.1039487D+03 0.2921016D+02 0.9286663D+01
EXPONENTS  0.3163927D+01 0.7868272D+01 0.1881289D+01 0.5442493D+00 0.7868272D+01
EXPONENTS  0.1881289D+01 0.5442493D+00 0.7868272D+01 0.1881289D+01 0.5442493D+00
EXPONENTS  0.7868272D+01 0.1881289D+01 0.5442493D+00 0.1687145D+00 0.1687145D+00
EXPONENTS  0.1687145D+00 0.1687145D+00 0.8000000D+00 0.8000000D+00 0.8000000D+00
EXPONENTS  0.8000000D+00 0.8000000D+00 0.8000000D+00 0.1873114D+02 0.2825394D+01
EXPONENTS  0.6401217D+00 0.1612778D+00 0.1873114D+02 0.2825394D+01 0.6401217D+00
EXPONENTS  0.1612778D+00 0.1873114D+02 0.2825394D+01 0.6401217D+00 0.1612778D+00
EXPONENTS  0.3047525D+04 0.4573695D+03 0.1039487D+03 0.2921016D+02 0.9286663D+01
EXPONENTS  0.3163927D+01 0.7868272D+01 0.1881289D+01 0.5442493D+00 0.7868272D+01
EXPONENTS  0.1881289D+01 0.5442493D+00 0.7868272D+01 0.1881289D+01 0.5442493D+00
EXPONENTS  0.7868272D+01 0.1881289D+01 0.5442493D+00 0.1687145D+00 0.1687145D+00
EXPONENTS  0.1687145D+00 0.1687145D+00 0.8000000D+00 0.8000000D+00 0.8000000D+00
EXPONENTS  0.8000000D+00 0.8000000D+00 0.8000000D+00 0.1873114D+02 0.2825394D+01
EXPONENTS  0.6401217D+00 0.1612778D+00 0.1873114D+02 0.2825394D+01 0.6401217D+00
EXPONENTS  0.1612778D+00 0.5484672D+04 0.8252349D+03 0.1880470D+03 0.5296450D+02
EXPONENTS  0.1689757D+02 0.5799635D+01 0.1553962D+02 0.3599934D+01 0.1013762D+01
EXPONENTS  0.1553962D+02 0.3599934D+01 0.1013762D+01 0.1553962D+02 0.3599934D+01
EXPONENTS  0.1013762D+01 0.1553962D+02 0.3599934D+01 0.1013762D+01 0.2700058D+00
EXPONENTS  0.2700058D+00 0.2700058D+00 0.2700058D+00 0.8000000D+00 0.8000000D+00
EXPONENTS  0.8000000D+00 0.8000000D+00 0.8000000D+00 0.8000000D+00 0.1873114D+02
EXPONENTS  0.2825394D+01 0.6401217D+00 0.1612778D+00
MO    1     MO 0.0        OCC NO =    1.0000000  ORB. ENERGY =  -19.018034
 -0.27138226D-04 -0.50064729D-04 -0.80819995D-04 -0.10520362D-03 -0.89770440D-04
 -0.30995575D-04 -0.25445822D-04 -0.11727956D-04  0.32886414D-04 -0.48476058D-03
 -0.37168367D-03 -0.18549620D-03  0.31009709D-03  0.23776278D-03  0.11866029D-03
 -0.22022958D-04 -0.16885807D-04 -0.84272014D-05  0.35051403D-04  0.67402148D-03
 -0.39673349D-03  0.30559754D-04  0.11044459D-03 -0.48080104D-04 -0.98409723D-04
 -0.10978241D-03  0.25347307D-04 -0.30949598D-05  0.13494998D-04  0.24895636D-04
  0.40189275D-04  0.52314495D-04  0.44640053D-04  0.15413138D-04 -0.89605300D-04
 -0.41299001D-04  0.11580671D-03  0.85746549D-04  0.65745015D-04  0.32811370D-04
 -0.31408787D-04 -0.24082266D-04 -0.12018738D-04  0.44158371D-05  0.33857838D-05
  0.16897434D-05 -0.68566022D-03  0.65636332D-04  0.35653040D-03  0.17746516D-04
 -0.10002877D-03 -0.67066588D-04  0.56164858D-04 -0.63961610D-05 -0.20117474D-04
 -0.11037407D-04 -0.43958425D-05 -0.81094710D-05 -0.13091201D-04 -0.17040854D-04
 -0.14540991D-04 -0.50206548D-05  0.27483974D-04  0.12667338D-04 -0.35520539D-04
 -0.57279494D-04 -0.43918283D-04 -0.21918301D-04  0.36766196D-04  0.28189987D-04
  0.14068779D-04 -0.25325114D-05 -0.19417691D-05 -0.96907887D-06  0.35240334D-03
 -0.14977707D-03  0.85218585D-04 -0.36901260D-05  0.29960054D-04  0.26500809D-04
 -0.48038913D-05 -0.73117165D-04  0.48058639D-05  0.34285776D-06  0.45058636D-05
  0.83124384D-05  0.13418853D-04  0.17467360D-04  0.14904930D-04  0.51463140D-05
 -0.17660230D-04 -0.81395840D-05  0.22824243D-04 -0.19346425D-04 -0.14833611D-04
 -0.74030117D-05  0.68985971D-05  0.52894067D-05  0.26397846D-05  0.41912072D-06
  0.32135518D-06  0.16037876D-06 -0.15245225D-03  0.97237002D-04 -0.27007448D-04
  0.34299858D-05 -0.29044959D-05 -0.19790467D-05  0.20771035D-04 -0.28489009D-04
 -0.35745600D-05 -0.49084545D-05  0.55023991D-05  0.10150852D-04  0.16386622D-04
  0.21330513D-04  0.18201366D-04  0.62844942D-05 -0.14641279D-04 -0.67481522D-05
  0.18922523D-04 -0.32227092D-04 -0.24709690D-04 -0.12331867D-04  0.74912185D-04
  0.57437912D-04  0.28665544D-04  0.12996401D-05  0.99648157D-06  0.49731414D-06
  0.22415750D-03  0.72153188D-04  0.75971179D-04  0.89106664D-05  0.24919620D-04
  0.15559796D-04  0.35084984D-04 -0.11615739D-05 -0.17635378D-05 -0.48057937D-06
  0.12950808D-04  0.23891712D-04  0.38568632D-04  0.50204899D-04  0.42839931D-04
  0.14791599D-04 -0.68028443D-04 -0.31354247D-04  0.87920582D-04 -0.86570263D-04
 -0.66376587D-04 -0.33126569D-04 -0.59290094D-05 -0.45459883D-05 -0.22687668D-05
 -0.53864293D-05 -0.41299724D-05 -0.20611457D-05 -0.93971392D-04 -0.36560162D-03
 -0.67033847D-04 -0.27992043D-04  0.71236200D-04 -0.49604112D-04  0.31815600D-04
  0.79703850D-04  0.92378481D-05 -0.14435921D-05 -0.16140795D-04 -0.27377844D-04
 -0.31168707D-04 -0.11544439D-03 -0.45359496D-05 -0.76938290D-05 -0.87591524D-05
 -0.25805796D-04  0.45287467D-05  0.76816115D-05  0.87452432D-05  0.16534802D-04
  0.27055863D-04  0.49797231D-04  0.80581320D-04  0.10592640D-03  0.90852459D-04
  0.31063999D-04 -0.10424146D-03 -0.46512335D-04  0.13735155D-03  0.25290505D-03
  0.19484971D-03  0.85549517D-04 -0.64869522D-06 -0.49978470D-06 -0.21943240D-06
  0.15860872D-04  0.12219947D-04  0.53652150D-05 -0.30782007D-03 -0.23883299D-03
  0.38342306D-04 -0.14055360D-04  0.19212285D-04  0.14586441D-03  0.11586615D-03
 -0.12836335D-03 -0.18551269D-04 -0.54643347D-05 -0.61856652D-05 -0.10492059D-04
 -0.11944838D-04 -0.15611440D-03  0.82557052D+00  0.15194905D+01  0.24588224D+01
  0.32321909D+01  0.27722313D+01  0.94787297D+00 -0.15684670D-01 -0.69984691D-02
  0.20666573D-01  0.24720932D-02  0.19046145D-02  0.83622836D-03  0.13047087D-02
  0.10052077D-02  0.44134033D-03  0.26483368D-03  0.20404008D-03  0.89584584D-04
  0.41714314D-02  0.21217126D-03 -0.28696436D-03  0.27578431D-05 -0.94719130D-02
 -0.96152696D-02 -0.94483028D-02 -0.14005211D-03 -0.11799944D-04 -0.29929618D-04
  0.73732024D-05  0.13602119D-04  0.21958037D-04  0.28582840D-04  0.24389789D-04
  0.84212081D-05 -0.74529225D-04 -0.34350452D-04  0.96322252D-04 -0.19452073D-03
 -0.14914616D-03 -0.74434385D-04 -0.54316183D-03 -0.41646204D-03 -0.20784374D-03
 -0.45326289D-04 -0.34753323D-04 -0.17344344D-04 -0.30344191D-03  0.54138469D-04
  0.10666860D-03  0.10117313D-04  0.57665437D-04  0.48302813D-03  0.28497817D-04
  0.26114420D-03  0.20930008D-04  0.70627523D-04  0.13124575D-04  0.22261763D-04
  0.25344231D-04  0.10956545D-04  0.24938627D-04  0.42300632D-04  0.48157775D-04
  0.22608613D-04  0.12957512D-04  0.21978394D-04  0.25021624D-04  0.10610826D-04
  0.47857642D-05  0.88288004D-05  0.14252421D-04  0.18552418D-04  0.15830812D-04
  0.54659989D-05 -0.16183703D-04 -0.74590539D-05  0.20915966D-04 -0.47814603D-05
 -0.36661205D-05 -0.18296510D-05  0.37031824D-05  0.28393653D-05  0.14170423D-05
  0.51779968D-05  0.39701595D-05  0.19813878D-05 -0.81236216D-05  0.91319703D-05
 -0.30931192D-04 -0.78658911D-05 -0.81648108D-05  0.25104902D-04  0.16837523D-04
  0.16166879D-04 -0.56695742D-05  0.13369953D-04  0.38649018D-05  0.65556049D-05
  0.74633245D-05  0.98657122D-05 -0.14319092D-05 -0.24287891D-05 -0.27650905D-05
 -0.11222883D-04  0.18966621D-05  0.34908707D-05  0.56488877D-05  0.74256210D-05
  0.63689120D-05  0.21776392D-05 -0.24357665D-06 -0.10868343D-06  0.32094361D-06
 -0.20611493D-04 -0.15880044D-04 -0.69721947D-05 -0.14463403D-04 -0.11143272D-04
 -0.48924968D-05 -0.20747507D-04 -0.15984836D-04 -0.70182039D-05  0.13950279D-04
  0.26907675D-05  0.51697046D-06  0.15755925D-04 -0.48317492D-05  0.68052100D-06
  0.68505468D-05 -0.56895407D-05 -0.78464204D-05 -0.65559976D-06  0.30896906D-05
  0.52407001D-05  0.59663518D-05  0.27112868D-05
MO    2     MO 0.0        OCC NO =    1.0000000  ORB. ENERGY =  -18.981236
  0.28219866D-04  0.52060143D-04  0.84041213D-04  0.10939669D-03  0.93348393D-04
  0.32230957D-04 -0.12836037D-03 -0.59161175D-04  0.16589411D-03  0.25037953D-04
  0.19197514D-04  0.95809051D-05  0.45542574D-04  0.34919157D-04  0.17427107D-04
  0.38953877D-05  0.29867362D-05  0.14905907D-05 -0.74458272D-03 -0.42080050D-03
  0.45856562D-03 -0.10496613D-04  0.19533798D-04 -0.23590042D-04  0.85615342D-04
 -0.15562478D-03 -0.15594294D-04 -0.19152636D-04 -0.64206527D-05 -0.11844851D-04
 -0.19121261D-04 -0.24890201D-04 -0.21238854D-04 -0.73332657D-05  0.34455990D-04
  0.15880734D-04 -0.44531236D-04 -0.97276011D-04 -0.74585075D-04 -0.37223180D-04
 -0.22765147D-04 -0.17454871D-04 -0.87112038D-05 -0.90952752D-05 -0.69736801D-05
 -0.34803551D-05  0.56095303D-03 -0.77049300D-04 -0.28681461D-03 -0.15779196D-04
  0.37132212D-04  0.14472691D-04 -0.94592867D-05  0.36407630D-04  0.73189668D-05
  0.63388969D-05  0.84614795D-05  0.15609778D-04  0.25199021D-04  0.32801638D-04
  0.27989697D-04  0.96641698D-05 -0.37098572D-04 -0.17098698D-04  0.47946534D-04
 -0.22204516D-04 -0.17025015D-04 -0.84966754D-05 -0.28901201D-04 -0.22159608D-04
 -0.11059197D-04 -0.23107292D-05 -0.17717206D-05 -0.88421275D-06 -0.33707051D-03
  0.20460405D-03  0.29099562D-05  0.12783370D-04  0.43417228D-05 -0.28491923D-04
  0.33269067D-04  0.43021551D-04 -0.26264460D-05 -0.35635228D-05  0.11502364D-05
  0.21219616D-05  0.34255040D-05  0.44589884D-05  0.38048629D-05  0.13137277D-05
  0.50160129D-05  0.23118758D-05 -0.64827410D-05 -0.82476921D-04 -0.63238072D-04
 -0.31560230D-04  0.57449413D-05  0.44048566D-05  0.21983322D-05 -0.44361169D-05
 -0.34013331D-05 -0.16975036D-05  0.35172609D-03 -0.11749568D-03  0.77194906D-04
 -0.27132873D-05  0.24033413D-04  0.24141383D-04  0.24532068D-04  0.42998404D-04
  0.69440544D-06  0.31706857D-05  0.74267906D-05  0.13700978D-04  0.22117627D-04
  0.28790579D-04  0.24567053D-04  0.84824131D-05 -0.66120744D-04 -0.30474990D-04
  0.85455054D-04  0.14270007D-04  0.10941337D-04  0.54604938D-05 -0.99454796D-05
 -0.76255629D-05 -0.38056903D-05  0.16592494D-05  0.12722072D-05  0.63492054D-06
 -0.42063626D-03 -0.16103216D-03 -0.31786731D-03 -0.25927801D-04 -0.50795572D-04
 -0.90762028D-04  0.32008191D-04  0.18283171D-04 -0.97849041D-05 -0.10506422D-04
 -0.36270741D-04 -0.66912435D-04 -0.10801742D-03 -0.14060658D-03 -0.11997985D-03
 -0.41426160D-04 -0.21053124D-04 -0.97033655D-05  0.27209250D-04 -0.54038093D-03
 -0.41432982D-03 -0.20677962D-03 -0.17886069D-03 -0.13713903D-03 -0.68441989D-04
 -0.44911827D-04 -0.34435540D-04 -0.17185748D-04  0.23069128D-03  0.85133598D-03
  0.35158548D-03  0.71787992D-04 -0.93383978D-04 -0.10343858D-04 -0.13520590D-03
  0.76404849D-04  0.67231806D-05  0.15421217D-04  0.12526907D-04  0.21248005D-04
  0.24190103D-04  0.93444734D-04  0.38898948D-05  0.65979978D-05  0.75115873D-05
  0.25115697D-04 -0.11563024D-04 -0.19613078D-04 -0.22328796D-04 -0.14690934D-03
  0.82559872D+00  0.15195424D+01  0.24589064D+01  0.32323013D+01  0.27723260D+01
  0.94790535D+00 -0.15751888D-01 -0.70284618D-02  0.20755142D-01  0.72593258D-03
  0.55929192D-03  0.24555928D-03  0.29851863D-02  0.22999252D-02  0.10097910D-02
  0.18181560D-03  0.14007912D-03  0.61502279D-04  0.40678834D-02  0.41619530D-03
  0.20290488D-04  0.29301810D-04 -0.92230731D-02 -0.94006707D-02 -0.92904280D-02
 -0.91085153D-05  0.91727048D-05 -0.10425404D-04  0.85155211D-04  0.14443935D-03
  0.16443910D-03 -0.20502323D-03  0.44204602D-04  0.81360066D-04  0.13165594D-03
  0.17306542D-03  0.14843721D-03  0.50753202D-04 -0.16321389D-03 -0.72825719D-04
  0.21505532D-03  0.16821659D-03  0.12960182D-03  0.56902178D-04 -0.64096915D-04
 -0.49383217D-04 -0.21681892D-04  0.55618114D-05  0.42850758D-05  0.18813791D-05
 -0.48379838D-03 -0.18339831D-03  0.93582579D-04 -0.72969906D-05  0.11894074D-03
  0.14633584D-03  0.16731867D-03  0.10891195D-03 -0.17480927D-05  0.53941677D-05
  0.10125631D-04  0.18679811D-04  0.30155008D-04  0.39252860D-04  0.33494537D-04
  0.11564859D-04 -0.31719065D-04 -0.14619288D-04  0.40994010D-04  0.14196407D-04
  0.10884904D-04  0.54323301D-05 -0.61027790D-04 -0.46792239D-04 -0.23352607D-04
 -0.24386035D-05 -0.18697665D-05 -0.93314452D-06 -0.50014144D-04 -0.71494945D-05
  0.30965125D-04  0.63380430D-06  0.23075925D-04  0.25160305D-04  0.40243477D-04
 -0.17733317D-04 -0.37119600D-05 -0.14986044D-05  0.45950110D-05  0.77940084D-05
  0.88732031D-05 -0.66083033D-05 -0.47608793D-06 -0.80753524D-06 -0.91935033D-06
 -0.59925869D-05  0.44649621D-05  0.75734208D-05  0.86220719D-05 -0.55327565D-05
  0.87503189D-06  0.16142630D-05  0.26059210D-05  0.33921348D-05  0.28945148D-05
  0.99940640D-06 -0.56828002D-05 -0.26191974D-05  0.73445030D-05  0.19700321D-04
  0.15104956D-04  0.75384318D-05 -0.24255678D-05 -0.18597716D-05 -0.92815635D-06
  0.47258083D-06  0.36234501D-06  0.18083555D-06 -0.85441344D-04  0.22224404D-04
  0.18577262D-04  0.92067791D-05 -0.19113553D-05 -0.70301887D-05  0.73740827D-06
 -0.13890532D-04 -0.18879967D-05 -0.10803287D-05  0.33238177D-06  0.56378240D-06
  0.64184633D-06 -0.29882792D-05  0.30783607D-05  0.52214824D-05  0.59444732D-05
  0.80999856D-05 -0.32410832D-04 -0.59653233D-04 -0.96530192D-04 -0.12689164D-03
 -0.10883422D-03 -0.37212269D-04  0.42617669D-05  0.19015921D-05 -0.56154269D-05
  0.11534706D-04  0.88868689D-05  0.39018141D-05  0.79342269D-05  0.61128941D-05
  0.26838898D-05  0.85116877D-05  0.65577965D-05  0.28792259D-05  0.58295265D-05
 -0.48358709D-05 -0.58480026D-05 -0.43212423D-05 -0.38689398D-05  0.87693342D-06
 -0.27150679D-05  0.35214124D-05 -0.22576818D-05 -0.84640509D-06 -0.18061249D-05
 -0.30635296D-05 -0.34877202D-05 -0.58375542D-06
MO    3     MO 0.0        OCC NO =    1.0000000  ORB. ENERGY =  -18.979458
  0.11033143D-05  0.20353995D-05  0.32857658D-05  0.42770908D-05  0.36496494D-05
  0.12601362D-05 -0.44866903D-05 -0.20679115D-05  0.57986396D-05  0.15654599D-04
  0.12002954D-04  0.59903151D-05  0.27415741D-04  0.21020651D-04  0.10490778D-04
  0.13754812D-04  0.10546318D-04  0.52633516D-05 -0.42279193D-04 -0.10351713D-03
 -0.14237408D-03 -0.22243728D-04 -0.22645448D-04  0.11134236D-04  0.99499449D-05
 -0.11194819D-04 -0.89122858D-05 -0.49047472D-05  0.10576737D-05  0.19512014D-05
  0.31498441D-05  0.41001611D-05  0.34986749D-05  0.12080084D-05 -0.48773036D-05
 -0.22479448D-05  0.63034718D-05  0.28655988D-04  0.21971594D-04  0.10965365D-04
 -0.23140571D-04 -0.17742722D-04 -0.88548617D-05 -0.30328166D-04 -0.23253714D-04
 -0.11605233D-04 -0.59974319D-04 -0.19034523D-03  0.14138367D-03  0.86861427D-05
  0.31251108D-04 -0.52308173D-04  0.15061489D-04  0.97250160D-04  0.15180936D-04
 -0.61351607D-05 -0.52930930D-05 -0.97647231D-05 -0.15763291D-04 -0.20519121D-04
 -0.17509003D-04 -0.60454380D-05 -0.52874487D-05 -0.24369803D-05  0.68335471D-05
  0.25691717D-04  0.19698779D-04  0.98310713D-05 -0.41363147D-04 -0.31714638D-04
 -0.15827827D-04  0.33847431D-04  0.25952064D-04  0.12951899D-04  0.16345537D-03
 -0.12582861D-03  0.18975706D-03 -0.16984038D-04 -0.36336138D-04 -0.41525923D-04
 -0.29788657D-04 -0.13122285D-03  0.24328649D-04  0.60644931D-04  0.10979979D-07
  0.20255918D-07  0.32699332D-07  0.42564814D-07  0.36320633D-07  0.12540642D-07
  0.39058653D-05  0.18002097D-05 -0.50479760D-05  0.17604864D-04  0.13498293D-04
  0.67365941D-05  0.30098747D-04  0.23077810D-04  0.11517445D-04  0.30745218D-04
  0.23573483D-04  0.11764820D-04  0.84611800D-04  0.38223102D-04  0.21496915D-04
  0.82170392D-06  0.17808862D-04  0.10234411D-04  0.32110130D-05  0.27802557D-04
  0.55052094D-05  0.27030354D-04  0.30688185D-05  0.56613709D-05  0.91392081D-05
  0.11896533D-04  0.10151334D-04  0.35050115D-05 -0.12974523D-04 -0.59799458D-05
  0.16768392D-04 -0.20155598D-05 -0.15454034D-05 -0.77126463D-06  0.43419890D-05
  0.33291618D-05  0.16614850D-05 -0.53302402D-05 -0.40868901D-05 -0.20396446D-05
 -0.58747225D-04  0.31537412D-04 -0.22555521D-04  0.25536863D-05 -0.11223932D-04
  0.17425631D-05  0.16753339D-04  0.23671411D-05  0.35913179D-05  0.75237046D-06
  0.13820764D-05  0.25496612D-05  0.41159437D-05  0.53577357D-05  0.45717656D-05
  0.15785208D-05 -0.77762528D-05 -0.35840678D-05  0.10050100D-04 -0.82530731D-05
 -0.63279330D-05 -0.31580820D-05 -0.58084021D-05 -0.44535143D-05 -0.22226158D-05
 -0.46045837D-05 -0.35305028D-05 -0.17619683D-05 -0.91696507D-04  0.27938940D-04
 -0.98147944D-04  0.13543032D-05  0.23651171D-05 -0.16297014D-04  0.73873042D-05
 -0.10573520D-04 -0.16958504D-05  0.51430722D-05  0.13419965D-04  0.22762801D-04
  0.25914645D-04 -0.85025311D-04  0.12918621D-06  0.21912426D-06  0.24946523D-06
 -0.21557285D-04  0.12908139D-05  0.21894647D-05  0.24926282D-05 -0.27351204D-05
  0.30752653D-04  0.56601298D-04  0.91591585D-04  0.12039970D-03  0.10326612D-03
  0.35308442D-04  0.36798562D-05  0.16419447D-05 -0.48486846D-05  0.11095300D-04
  0.85483302D-05  0.37531774D-05 -0.12596970D-04 -0.97052864D-05 -0.42611435D-05
  0.37970197D-05  0.29253990D-05  0.12844077D-05  0.22384310D-04  0.17651299D-05
  0.20855111D-04 -0.75395041D-06 -0.58450599D-05 -0.29615132D-06  0.21577618D-05
  0.19309968D-04 -0.33122774D-05  0.23164153D-05 -0.25964849D-05 -0.44041298D-05
 -0.50139461D-05  0.64570890D-06 -0.96031997D-05 -0.17675014D-04 -0.28601509D-04
 -0.37597484D-04 -0.32247143D-04 -0.11025846D-04  0.27658360D-04  0.12341106D-04
 -0.36443452D-04 -0.12065340D-04 -0.92956942D-05 -0.40813105D-05 -0.29676923D-04
 -0.22864469D-04 -0.10038734D-04 -0.12141278D-04 -0.93541999D-05 -0.41069976D-05
  0.68033800D-04  0.31982727D-04  0.30161816D-04  0.84341351D-05 -0.10614674D-04
 -0.37283685D-04 -0.32594424D-04  0.11862832D-04  0.93906693D-05 -0.41556884D-05
  0.18401737D-05  0.33947612D-05  0.54801972D-05  0.71335885D-05  0.60871040D-05
  0.21017307D-05 -0.46819410D-05 -0.21579023D-05  0.60509834D-05  0.15668671D-04
  0.12013743D-04  0.59956996D-05  0.20970913D-04  0.16079166D-04  0.80246308D-05
  0.67912278D-06  0.52070827D-06  0.25986992D-06 -0.32111152D-04 -0.40154050D-05
  0.46913413D-05  0.84758853D-06  0.10334695D-04 -0.17561788D-05  0.95602835D-05
 -0.62862335D-05 -0.56672021D-06  0.21110322D-06 -0.14893162D-06 -0.25261621D-06
 -0.28759463D-06  0.12534612D-04  0.12166936D-05  0.20637427D-05  0.23494981D-05
  0.45211009D-06  0.14419427D-05  0.24458077D-05  0.27844656D-05  0.76331309D-05
 -0.20011430D-05 -0.36917181D-05 -0.59595777D-05 -0.77575994D-05 -0.66195737D-05
 -0.22855797D-05 -0.71871166D-04 -0.33125355D-04  0.92886952D-04  0.16006823D-03
  0.12273017D-03  0.61250956D-04  0.41087514D-03  0.31503299D-03  0.15722354D-03
 -0.15962019D-03 -0.12238663D-03 -0.61079508D-04 -0.29324047D-03 -0.80690035D-04
 -0.21235153D-03  0.28325658D-04  0.54214513D-04  0.22610169D-03  0.50131389D-04
  0.18709183D-03 -0.97633678D-04 -0.24462321D-03  0.28463264D-04  0.48279082D-04
  0.54964029D-04  0.39048780D-04  0.22483728D-05  0.38136658D-05  0.43417237D-05
 -0.10058117D-04  0.82571208D+00  0.15197510D+01  0.24592440D+01  0.32327451D+01
  0.27727067D+01  0.94803551D+00 -0.16068046D-01 -0.71695306D-02  0.21171720D-01
 -0.10479178D-02 -0.80736415D-03 -0.35447635D-03 -0.22461676D-02 -0.17305511D-02
 -0.75980513D-03 -0.16659509D-02 -0.12835254D-02 -0.56353677D-03  0.31102963D-02
 -0.34350728D-04 -0.90057458D-04  0.11712018D-03 -0.89012143D-02 -0.89742858D-02
 -0.89267528D-02 -0.82731961D-04 -0.20658448D-04  0.92773679D-05  0.85858879D-04
  0.14563291D-03  0.16579792D-03 -0.19486626D-03
MO    4     MO 0.0        OCC NO =    1.0000000  ORB. ENERGY =  -10.106239
 -0.14392537D-04 -0.26551420D-04 -0.42862225D-04 -0.55793881D-04 -0.47609020D-04
 -0.16438250D-04  0.50040711D-04  0.23063718D-04 -0.64673072D-04 -0.53699080D-04
 -0.41173048D-04 -0.20548237D-04 -0.21225314D-03 -0.16274224D-03 -0.81219785D-04
 -0.15044573D-04 -0.11535224D-04 -0.57568854D-05 -0.22325989D-03  0.53851906D-04
  0.60105862D-03  0.30394269D-04  0.14956753D-03  0.83983450D-04 -0.47815037D-04
 -0.21374302D-03  0.18102781D-04  0.11694647D-05  0.47678877D-05  0.87958218D-05
  0.14199184D-04  0.18483118D-04  0.15771678D-04  0.54455814D-05 -0.44506580D-04
 -0.20513042D-04  0.57520711D-04  0.10038633D-03  0.76969869D-04  0.38413359D-04
 -0.84376580D-04 -0.64694610D-04 -0.32287145D-04  0.42590443D-05  0.32655650D-05
  0.16297458D-05 -0.36592842D-03  0.93835288D-06  0.93028908D-05  0.38118829D-06
 -0.83871156D-04 -0.53781583D-05  0.25125656D-05  0.17445405D-03 -0.23937483D-05
  0.12991479D-04 -0.11486197D-04 -0.21189790D-04 -0.34206891D-04 -0.44527208D-04
 -0.37995148D-04 -0.13118811D-04  0.39343903D-04  0.18133569D-04 -0.50848420D-04
  0.59245227D-04  0.45425482D-04  0.22670499D-04  0.81430966D-05  0.62436100D-05
  0.31159990D-05  0.78151892D-05  0.59921914D-05  0.29905235D-05  0.47449137D-04
 -0.15489174D-03  0.95630533D-04 -0.67416184D-05  0.12815340D-04  0.74926316D-05
 -0.52912015D-04 -0.10619050D-03  0.52848348D-05 -0.88409566D-06 -0.58716151D-05
 -0.10831983D-04 -0.17486180D-04 -0.22761810D-04 -0.19422694D-04 -0.67061895D-05
  0.21668386D-04  0.99869391D-05 -0.28004420D-04 -0.45740384D-04 -0.35070825D-04
 -0.17502800D-04 -0.45719877D-04 -0.35055102D-04 -0.17494953D-04 -0.40163287D-05
 -0.30794661D-05 -0.15368694D-05  0.18886550D-03 -0.61647240D-05  0.29869840D-04
  0.12743536D-05  0.23110506D-04 -0.13429073D-04 -0.22415245D-04  0.42876615D-04
  0.78784498D-05  0.47225050D-05  0.71419709D-05  0.13175542D-04  0.21269410D-04
  0.27686452D-04  0.23624899D-04  0.81571100D-05 -0.27801648D-04 -0.12813754D-04
  0.35931105D-04  0.88062635D-04  0.67520843D-04  0.33697633D-04 -0.40149189D-04
 -0.30783851D-04 -0.15363299D-04  0.42430425D-05  0.32532958D-05  0.16236226D-05
 -0.24899058D-03 -0.71154173D-04 -0.16391406D-03 -0.11975968D-04  0.13942785D-04
 -0.25956617D-04  0.17135963D-04  0.25855463D-04  0.25360565D-06 -0.18644411D-05
 -0.30443360D-04 -0.56162055D-04 -0.90662970D-04 -0.11801625D-03 -0.10070348D-03
 -0.34770491D-04  0.10027113D-03  0.46214870D-04 -0.12959132D-03 -0.44997114D-04
 -0.34500933D-04 -0.17218384D-04  0.96394500D-04  0.73909189D-04  0.36885865D-04