 Generated by Multiwfn (http://sobereva.com/multiwfn)
GAUSSIAN             81 MOL ORBITALS    348 PRIMITIVES       21 NUCLEI
  C    1    (CENTRE  1)  -1.75215042  0.51142211  0.05658589  CHARGE =  6.0
  C    2    (CENTRE  2)   0.78707451  1.12739370  0.25145256  CHARGE =  6.0
  C    3    (CENTRE  3)   2.62508468 -0.78557400  0.28961369  CHARGE =  6.0
  C    4    (CENTRE  4)   1.86105731 -3.29557823  0.11651477  CHARGE =  6.0
  C    5    (CENTRE  5)  -0.69604821 -3.92355147 -0.06867461  CHARGE =  6.0
  C    6    (CENTRE  6)  -2.51291613 -2.03655806 -0.09796347  CHARGE =  6.0
  H    7    (CENTRE  7)   1.39877111  3.07615114  0.35013406  CHARGE =  1.0
  H    8    (CENTRE  8)   3.26364431 -4.79105255  0.12177955  CHARGE =  1.0
  H    9    (CENTRE  9)  -1.30880684 -5.87190640 -0.20855213  CHARGE =  1.0
  O   10    (CENTRE 10)  -5.00755486 -2.63027056 -0.29152623  CHARGE =  8.0
  H   11    (CENTRE 11)  -5.93539731 -1.05696782 -0.28413173  CHARGE =  1.0
  O   12    (CENTRE 12)  -3.73002865  2.19187977 -0.00967169  CHARGE =  8.0
  C   13    (CENTRE 13)  -3.18126188  4.81594974  0.17543077  CHARGE =  6.0
  H   14    (CENTRE 14)  -2.00304983  5.44733948 -1.40412327  CHARGE =  1.0
  H   15    (CENTRE 15)  -4.99582235  5.78301314  0.10544854  CHARGE =  1.0
  H   16    (CENTRE 16)  -2.23207895  5.25684561  1.96044717  CHARGE =  1.0
  C   17    (CENTRE 17)   5.38277329 -0.08486518  0.58132126  CHARGE =  6.0
  H   18    (CENTRE 18)   5.81711168  0.34241328  2.55743433  CHARGE =  1.0
  H   19    (CENTRE 19)   6.56905279 -1.69605123  0.02921699  CHARGE =  1.0
  O   20    (CENTRE 20)   6.07449221  2.14638366 -0.76606480  CHARGE =  8.0
  H   21    (CENTRE 21)   5.64962700  1.87444069 -2.51523688  CHARGE =  1.0
CENTRE ASSIGNMENTS    1  1  1  1  1  1  1  1  1  1  1  1  1  1  1  1  1  1  1  1
CENTRE ASSIGNMENTS    1  1  1  1  1  1  1  1  2  2  2  2  2  2  2  2  2  2  2  2
CENTRE ASSIGNMENTS    2  2  2  2  2  2  2  2  2  2  2  2  2  2  2  2  3  3  3  3
CENTRE ASSIGNMENTS    3  3  3  3  3  3  3  3  3  3  3  3  3  3  3  3  3  3  3  3
CENTRE ASSIGNMENTS    3  3  3  3  4  4  4  4  4  4  4  4  4  4  4  4  4  4  4  4
CENTRE ASSIGNMENTS    4  4  4  4  4  4  4  4  4  4  4  4  5  5  5  5  5  5  5  5
CENTRE ASSIGNMENTS    5  5  5  5  5  5  5  5  5  5  5  5  5  5  5  5  5  5  5  5
CENTRE ASSIGNMENTS    6  6  6  6  6  6  6  6  6  6  6  6  6  6  6  6  6  6  6  6
CENTRE ASSIGNMENTS    6  6  6  6  6  6  6  6  7  7  7  7  8  8  8  8  9  9  9  9
CENTRE ASSIGNMENTS   10 10 10 10 10 10 10 10 10 10 10 10 10 10 10 10 10 10 10 10
CENTRE ASSIGNMENTS   10 10 10 10 10 10 10 10 11 11 11 11 12 12 12 12 12 12 12 12
CENTRE ASSIGNMENTS   12 12 12 12 12 12 12 12 12 12 12 12 12 12 12 12 12 12 12 12
CENTRE ASSIGNMENTS   13 13 13 13 13 13 13 13 13 13 13 13 13 13 13 13 13 13 13 13
CENTRE ASSIGNMENTS   13 13 13 13 13 13 13 13 14 14 14 14 15 15 15 15 16 16 16 16
CENTRE ASSIGNMENTS   17 17 17 17 17 17 17 17 17 17 17 17 17 17 17 17 17 17 17 17
CENTRE ASSIGNMENTS   17 17 17 17 17 17 17 17 18 18 18 18 19 19 19 19 20 20 20 20
CENTRE ASSIGNMENTS   20 20 20 20 20 20 20 20 20 20 20 20 20 20 20 20 20 20 20 20
CENTRE ASSIGNMENTS   20 20 20 20 21 21 21 21
TYPE ASSIGNMENTS      1  1  1  1  1  1  1  1  1  2  2  2  3  3  3  4  4  4  1  2
TYPE ASSIGNMENTS      3  4  5  6  7  8  9 10  1  1  1  1  1  1  1  1  1  2  2  2
TYPE ASSIGNMENTS      3  3  3  4  4  4  1  2  3  4  5  6  7  8  9 10  1  1  1  1
TYPE ASSIGNMENTS      1  1  1  1  1  2  2  2  3  3  3  4  4  4  1  2  3  4  5  6
TYPE ASSIGNMENTS      7  8  9 10  1  1  1  1  1  1  1  1  1  2  2  2  3  3  3  4
TYPE ASSIGNMENTS      4  4  1  2  3  4  5  6  7  8  9 10  1  1  1  1  1  1  1  1
TYPE ASSIGNMENTS      1  2  2  2  3  3  3  4  4  4  1  2  3  4  5  6  7  8  9 10
TYPE ASSIGNMENTS      1  1  1  1  1  1  1  1  1  2  2  2  3  3  3  4  4  4  1  2
TYPE ASSIGNMENTS      3  4  5  6  7  8  9 10  1  1  1  1  1  1  1  1  1  1  1  1
TYPE ASSIGNMENTS      1  1  1  1  1  1  1  1  1  2  2  2  3  3  3  4  4  4  1  2
TYPE ASSIGNMENTS      3  4  5  6  7  8  9 10  1  1  1  1  1  1  1  1  1  1  1  1
TYPE ASSIGNMENTS      1  2  2  2  3  3  3  4  4  4  1  2  3  4  5  6  7  8  9 10
TYPE ASSIGNMENTS      1  1  1  1  1  1  1  1  1  2  2  2  3  3  3  4  4  4  1  2
TYPE ASSIGNMENTS      3  4  5  6  7  8  9 10  1  1  1  1  1  1  1  1  1  1  1  1
TYPE ASSIGNMENTS      1  1  1  1  1  1  1  1  1  2  2  2  3  3  3  4  4  4  1  2
TYPE ASSIGNMENTS      3  4  5  6  7  8  9 10  1  1  1  1  1  1  1  1  1  1  1  1
TYPE ASSIGNMENTS      1  1  1  1  1  2  2  2  3  3  3  4  4  4  1  2  3  4  5  6
TYPE ASSIGNMENTS      7  8  9 10  1  1  1  1
EXPONENTS  0.3047525D+04 0.4573695D+03 0.1039487D+03 0.2921016D+02 0.9286663D+01
EXPONENTS  0.3163927D+01 0.7868272D+01 0.1881289D+01 0.5442493D+00 0.7868272D+01
EXPONENTS  0.1881289D+01 0.5442493D+00 0.7868272D+01 0.1881289D+01 0.5442493D+00
EXPONENTS  0.7868272D+01 0.1881289D+01 0.5442493D+00 0.1687145D+00 0.1687145D+00
EXPONENTS  0.1687145D+00 0.1687145D+00 0.8000000D+00 0.8000000D+00 0.8000000D+00
EXPONENTS  0.8000000D+00 0.8000000D+00 0.8000000D+00 0.3047525D+04 0.4573695D+03
EXPONENTS  0.1039487D+03 0.2921016D+02 0.9286663D+01 0.3163927D+01 0.7868272D+01
EXPONENTS  0.1881289D+01 0.5442493D+00 0.7868272D+01 0.1881289D+01 0.5442493D+00
EXPONENTS  0.7868272D+01 0.1881289D+01 0.5442493D+00 0.7868272D+01 0.1881289D+01
EXPONENTS  0.5442493D+00 0.1687145D+00 0.1687145D+00 0.1687145D+00 0.1687145D+00
EXPONENTS  0.8000000D+00 0.8000000D+00 0.8000000D+00 0.8000000D+00 0.8000000D+00
EXPONENTS  0.8000000D+00 0.3047525D+04 0.4573695D+03 0.1039487D+03 0.2921016D+02
EXPONENTS  0.9286663D+01 0.3163927D+01 0.7868272D+01 0.1881289D+01 0.5442493D+00
EXPONENTS  0.7868272D+01 0.1881289D+01 0.5442493D+00 0.7868272D+01 0.1881289D+01
EXPONENTS  0.5442493D+00 0.7868272D+01 0.1881289D+01 0.5442493D+00 0.1687145D+00
EXPONENTS  0.1687145D+00 0.1687145D+00 0.1687145D+00 0.8000000D+00 0.8000000D+00
EXPONENTS  0.8000000D+00 0.8000000D+00 0.8000000D+00 0.8000000D+00 0.3047525D+04
EXPONENTS  0.4573695D+03 0.1039487D+03 0.2921016D+02 0.9286663D+01 0.3163927D+01
EXPONENTS  0.7868272D+01 0.1881289D+01 0.5442493D+00 0.7868272D+01 0.1881289D+01
EXPONENTS  0.5442493D+00 0.7868272D+01 0.1881289D+01 0.5442493D+00 0.7868272D+01
EXPONENTS  0.1881289D+01 0.5442493D+00 0.1687145D+00 0.1687145D+00 0.1687145D+00
EXPONENTS  0.1687145D+00 0.8000000D+00 0.8000000D+00 0.8000000D+00 0.8000000D+00
EXPONENTS  0.8000000D+00 0.8000000D+00 0.3047525D+04 0.4573695D+03 0.1039487D+03
EXPONENTS  0.2921016D+02 0.9286663D+01 0.3163927D+01 0.7868272D+01 0.1881289D+01
EXPONENTS  0.5442493D+00 0.7868272D+01 0.1881289D+01 0.5442493D+00 0.7868272D+01
EXPONENTS  0.1881289D+01 0.5442493D+00 0.7868272D+01 0.1881289D+01 0.5442493D+00
EXPONENTS  0.1687145D+00 0.1687145D+00 0.1687145D+00 0.1687145D+00 0.8000000D+00
EXPONENTS  0.8000000D+00 0.8000000D+00 0.8000000D+00 0.8000000D+00 0.8000000D+00
EXPONENTS  0.3047525D+04 0.4573695D+03 0.1039487D+03 0.2921016D+02 0.9286663D+01
EXPONENTS  0.3163927D+01 0.7868272D+01 0.1881289D+01 0.5442493D+00 0.7868272D+01
EXPONENTS  0.1881289D+01 0.5442493D+00 0.7868272D+01 0.1881289D+01 0.5442493D+00
EXPONENTS  0.7868272D+01 0.1881289D+01 0.5442493D+00 0.1687145D+00 0.1687145D+00
EXPONENTS  0.1687145D+00 0.1687145D+00 0.8000000D+00 0.8000000D+00 0.8000000D+00
EXPONENTS  0.8000000D+00 0.8000000D+00 0.8000000D+00 0.1873114D+02 0.2825394D+01
EXPONENTS  0.6401217D+00 0.1612778D+00 0.1873114D+02 0.2825394D+01 0.6401217D+00
EXPONENTS  0.1612778D+00 0.1873114D+02 0.2825394D+01 0.6401217D+00 0.1612778D+00
EXPONENTS  0.5484672D+04 0.8252349D+03 0.1880470D+03 0.5296450D+02 0.1689757D+02
EXPONENTS  0.5799635D+01 0.1553962D+02 0.3599934D+01 0.1013762D+01 0.1553962D+02
EXPONENTS  0.3599934D+01 0.1013762D+01 0.1553962D+02 0.3599934D+01 0.1013762D+01
EXPONENTS  0.1553962D+02 0.3599934D+01 0.1013762D+01 0.2700058D+00 0.2700058D+00
EXPONENTS  0.2700058D+00 0.2700058D+00 0.8000000D+00 0.8000000D+00 0.8000000D+00
EXPONENTS  0.8000000D+00 0.8000000D+00 0.8000000D+00 0.1873114D+02 0.2825394D+01
EXPONENTS  0.6401217D+00 0.1612778D+00 0.5484672D+04 0.8252349D+03 0.1880470D+03
EXPONENTS  0.5296450D+02 0.1689757D+02 0.5799635D+01 0.1553962D+02 0.3599934D+01
EXPONENTS  0.1013762D+01 0.1553962D+02 0.3599934D+01 0.1013762D+01 0.1553962D+02
EXPONENTS  0.3599934D+01 0.1013762D+01 0.1553962D+02 0.3599934D+01 0.1013762D+01
EXPONENTS  0.2700058D+00 0.2700058D+00 0.2700058D+00 0.2700058D+00 0.8000000D+00
EXPONENTS  0.8000000D+00 0.8000000D+00 0.8000000D+00 0.8000000D+00 0.8000000D+00
EXPONENTS  0.3047525D+04 0.4573695D+03 0.1039487D+03 0.2921016D+02 0.9286663D+01
EXPONENTS  0.3163927D+01 0.7868272D+01 0.1881289D+01 0.5442493D+00 0.7868272D+01
EXPONENTS  0.1881289D+01 0.5442493D+00 0.7868272D+01 0.1881289D+01 0.5442493D+00
EXPONENTS  0.7868272D+01 0.1881289D+01 0.5442493D+00 0.1687145D+00 0.1687145D+00
EXPONENTS  0.1687145D+00 0.1687145D+00 0.8000000D+00 0.8000000D+00 0.8000000D+00
EXPONENTS  0.8000000D+00 0.8000000D+00 0.8000000D+00 0.1873114D+02 0.2825394D+01
EXPONENTS  0.6401217D+00 0.1612778D+00 0.1873114D+02 0.2825394D+01 0.6401217D+00
EXPONENTS  0.1612778D+00 0.1873114D+02 0.2825394D+01 0.6401217D+00 0.1612778D+00
EXPONENTS  0.3047525D+04 0.4573695D+03 0.1039487D+03 0.2921016D+02 0.9286663D+01
EXPONENTS  0.3163927D+01 0.7868272D+01 0.1881289D+01 0.5442493D+00 0.7868272D+01
EXPONENTS  0.1881289D+01 0.5442493D+00 0.7868272D+01 0.1881289D+01 0.5442493D+00
EXPONENTS  0.7868272D+01 0.1881289D+01 0.5442493D+00 0.1687145D+00 0.1687145D+00
EXPONENTS  0.1687145D+00 0.1687145D+00 0.8000000D+00 0.8000000D+00 0.8000000D+00
EXPONENTS  0.8000000D+00 0.8000000D+00 0.8000000D+00 0.1873114D+02 0.2825394D+01
EXPONENTS  0.6401217D+00 0.1612778D+00 0.1873114D+02 0.2825394D+01 0.6401217D+00
EXPONENTS  0.1612778D+00 0.5484672D+04 0.8252349D+03 0.1880470D+03 0.5296450D+02
EXPONENTS  0.1689757D+02 0.5799635D+01 0.1553962D+02 0.3599934D+01 0.1013762D+01
EXPONENTS  0.1553962D+02 0.3599934D+01 0.1013762D+01 0.1553962D+02 0.3599934D+01
EXPONENTS  0.1013762D+01 0.1553962D+02 0.3599934D+01 0.1013762D+01 0.2700058D+00
EXPONENTS  0.2700058D+00 0.2700058D+00 0.2700058D+00 0.8000000D+00 0.8000000D+00
EXPONENTS  0.8000000D+00 0.8000000D+00 0.8000000D+00 0.8000000D+00 0.1873114D+02
EXPONENTS  0.2825394D+01 0.6401217D+00 0.1612778D+00
MO    1     MO 0.0        OCC NO =    1.0000000  ORB. ENERGY =  -19.400026
  0.28771705D-04  0.53078178D-04  0.85684636D-04  0.11153594D-03  0.95173817D-04
  0.32861232D-04 -0.13098434D-03 -0.60370562D-04  0.16928536D-03  0.30869519D-04
  0.23668789D-04  0.11812385D-04  0.49526445D-04  0.37973736D-04  0.18951556D-04
  0.44388876D-05  0.34034575D-05  0.16985638D-05 -0.76924192D-03 -0.43688658D-03
  0.46745955D-03 -0.11218507D-04  0.17745956D-04 -0.22493336D-04  0.86069510D-04
 -0.16358282D-03 -0.16239328D-04 -0.19666523D-04 -0.69998867D-05 -0.12913424D-04
 -0.20846270D-04 -0.27135650D-04 -0.23154899D-04 -0.79948303D-05  0.37070318D-04
  0.17085676D-04 -0.47910018D-04 -0.10019550D-03 -0.76823557D-04 -0.38340339D-04
 -0.23280268D-04 -0.17849833D-04 -0.89083177D-05 -0.93764556D-05 -0.71892714D-05
 -0.35879503D-05  0.58628223D-03 -0.82704513D-04 -0.29684143D-03 -0.16527466D-04
  0.39924515D-04  0.14236958D-04 -0.11685082D-04  0.36929004D-04  0.80126933D-05
  0.65691255D-05  0.88251837D-05  0.16280741D-04  0.26282163D-04  0.34211568D-04
  0.29192793D-04  0.10079570D-04 -0.38728778D-04 -0.17850058D-04  0.50053427D-04
 -0.23154031D-04 -0.17753042D-04 -0.88600124D-05 -0.29646424D-04 -0.22730998D-04
 -0.11344361D-04 -0.24010291D-05 -0.18409568D-05 -0.91876648D-06 -0.35040729D-03
  0.21331465D-03  0.37211568D-05  0.13339143D-04  0.41214141D-05 -0.29573033D-04
  0.34529737D-04  0.44359228D-04 -0.28450939D-05 -0.37108546D-05  0.78575163D-06
  0.14495583D-05  0.23400366D-05  0.30460323D-05  0.25991849D-05  0.89743609D-06
  0.66816553D-05  0.30795688D-05 -0.86354325D-05 -0.84363205D-04 -0.64684355D-04
 -0.32282027D-04  0.58302430D-05  0.44702605D-05  0.22309733D-05 -0.45686519D-05
 -0.35029525D-05 -0.17482188D-05  0.36965343D-03 -0.12458432D-03  0.80628822D-04
 -0.29431855D-05  0.25436617D-04  0.24419715D-04  0.23354213D-04  0.45420136D-04
  0.10860863D-05  0.35145535D-05  0.75924721D-05  0.14006628D-04  0.22611041D-04
  0.29432857D-04  0.25115110D-04  0.86716441D-05 -0.67646392D-04 -0.31178160D-04
  0.87426816D-04  0.19142611D-04  0.14677340D-04  0.73250213D-05 -0.10236258D-04
 -0.78485134D-05 -0.39169583D-05  0.19881190D-05  0.15243635D-05  0.76076423D-06
 -0.43868695D-03 -0.16837784D-03 -0.32759203D-03 -0.26851048D-04 -0.54624004D-04
 -0.89624417D-04  0.30953893D-04  0.18764204D-04 -0.10093156D-04 -0.10201129D-04
 -0.36930625D-04 -0.68129792D-04 -0.10998261D-03 -0.14316468D-03 -0.12216268D-03
 -0.42179837D-04 -0.28267409D-04 -0.13028423D-04  0.36533058D-04 -0.54830711D-03
 -0.42040711D-03 -0.20981261D-03 -0.18153200D-03 -0.13918722D-03 -0.69464178D-04
 -0.45602385D-04 -0.34965017D-04 -0.17449994D-04  0.24636131D-03  0.86910255D-03
  0.35773457D-03  0.73176971D-04 -0.12137346D-03 -0.10545374D-04 -0.13942959D-03
  0.65506784D-04  0.31541568D-05  0.15033490D-04  0.12876791D-04  0.21841475D-04
  0.24865747D-04  0.96566639D-04  0.40584040D-05  0.68838213D-05  0.78369873D-05
  0.26899801D-04 -0.12420689D-04 -0.21067839D-04 -0.23984990D-04 -0.15088585D-03
  0.82557437D+00  0.15194976D+01  0.24588339D+01  0.32322059D+01  0.27722443D+01
  0.94787739D+00 -0.15796466D-01 -0.70483525D-02  0.20813879D-01  0.11039521D-02
  0.85053561D-03  0.37343094D-03  0.31457223D-02  0.24236094D-02  0.10640951D-02
  0.21025786D-03  0.16199235D-03  0.71123367D-04  0.41084725D-02  0.40725486D-03
  0.16596006D-04  0.28744172D-04 -0.92943320D-02 -0.94787385D-02 -0.93193312D-02
 -0.56644135D-05  0.41239406D-05 -0.13830980D-04  0.88726005D-04  0.15049610D-03
  0.17133449D-03 -0.21136061D-03 -0.46832000D-04 -0.86195881D-04 -0.13948121D-03
 -0.18335195D-03 -0.15725990D-03 -0.53769831D-04 -0.16434190D-03 -0.73329037D-04
  0.21654163D-03  0.17203940D-03  0.13254708D-03  0.58195310D-04 -0.58952099D-04
 -0.45419414D-04 -0.19941569D-04  0.60190967D-05  0.46373895D-05  0.20360638D-05
 -0.49546558D-03 -0.18756370D-03  0.94677890D-04 -0.75275495D-05  0.12122175D-03
  0.14758086D-03  0.16838708D-03  0.11178259D-03 -0.14820075D-05  0.55631042D-05
  0.10272028D-04  0.18949887D-04  0.30590993D-04  0.39820383D-04  0.33978805D-04
  0.11732065D-04 -0.31841803D-04 -0.14675858D-04  0.41152638D-04  0.13798861D-04
  0.10580091D-04  0.52802070D-05 -0.63481689D-04 -0.48673733D-04 -0.24291604D-04
 -0.25831782D-05 -0.19806172D-05 -0.98846679D-06 -0.49893786D-04 -0.69916661D-05
  0.31213143D-04  0.63759392D-06  0.23355521D-04  0.27034660D-04  0.40916367D-04
 -0.17748428D-04 -0.37852389D-05 -0.13470707D-05  0.46334068D-05  0.78591349D-05
  0.89473473D-05 -0.70306384D-05 -0.50400187D-06 -0.85488257D-06 -0.97325359D-06
 -0.59814682D-05  0.45053252D-05  0.76418843D-05  0.87000152D-05 -0.59258202D-05
  0.74819941D-06  0.13802818D-05  0.22282028D-05  0.29004580D-05  0.24749661D-05
  0.85454631D-06 -0.54508523D-05 -0.25122928D-05  0.70447314D-05  0.21209089D-04
  0.16261784D-04  0.81157700D-05 -0.25196061D-05 -0.19318741D-05 -0.96414058D-06
  0.48064994D-06  0.36853189D-06  0.18392324D-06 -0.88428927D-04  0.22807693D-04
  0.19255076D-04  0.96390160D-05 -0.22632187D-05 -0.78028260D-05 -0.35975818D-07
 -0.14270238D-04 -0.18396407D-05 -0.10830330D-05  0.30806062D-06  0.52252911D-06
  0.59488092D-06 -0.32335570D-05  0.31418792D-05  0.53292218D-05  0.60671306D-05
  0.85828259D-05 -0.15362916D-05 -0.28275966D-05 -0.45755851D-05 -0.60147346D-05
 -0.51588030D-05 -0.17638823D-05  0.39825403D-05  0.17770017D-05 -0.52475099D-05
  0.12365122D-04  0.95266599D-05  0.41827168D-05  0.79998998D-05  0.61634915D-05
  0.27061047D-05  0.85682849D-05  0.66014016D-05  0.28983709D-05  0.64677315D-05
 -0.50569051D-05 -0.60324263D-05 -0.44222026D-05 -0.46478659D-05  0.25080586D-06
 -0.35528575D-05  0.34559756D-05 -0.23646373D-05 -0.10882173D-05 -0.18712445D-05
 -0.31739849D-05 -0.36134696D-05 -0.62815567D-06
MO    2     MO 0.0        OCC NO =    1.0000000  ORB. ENERGY =  -19.399817
 -0.26841650D-04 -0.49517603D-04 -0.79936764D-04 -0.10405392D-03 -0.88789395D-04
 -0.30656844D-04 -0.35057766D-04 -0.16158092D-04  0.45308977D-04 -0.49519687D-03
 -0.37968555D-03 -0.18948970D-03  0.31913049D-03  0.24468902D-03  0.12211697D-03
 -0.22546576D-04 -0.17287284D-04 -0.86275664D-05  0.40452046D-04  0.67426018D-03
 -0.40315772D-03  0.30162548D-04  0.10295728D-03 -0.55193994D-04 -0.10076605D-03
 -0.89407840D-04  0.26149544D-04 -0.25462294D-05  0.13371054D-04  0.24666984D-04
  0.39820160D-04  0.51834016D-04  0.44230060D-04  0.15271577D-04 -0.90031102D-04
 -0.41495253D-04  0.11635702D-03  0.88333869D-04  0.67728808D-04  0.33801422D-04
 -0.34130552D-04 -0.26169143D-04 -0.13060236D-04  0.45214307D-05  0.34667463D-05
  0.17301494D-05 -0.69077879D-03  0.62178450D-04  0.36353007D-03  0.17872893D-04
 -0.10292557D-03 -0.67603792D-04  0.54257338D-04 -0.40267952D-06 -0.20123377D-04
 -0.10615575D-04 -0.47323343D-05 -0.87302327D-05 -0.14093302D-04 -0.18345292D-04
 -0.15654071D-04 -0.54049746D-05  0.29041193D-04  0.13385059D-04 -0.37533103D-04
 -0.57298033D-04 -0.43932497D-04 -0.21925395D-04  0.37052340D-04  0.28409384D-04
  0.14178274D-04 -0.25714939D-05 -0.19716584D-05 -0.98399575D-06  0.36513286D-03
 -0.15634990D-03  0.85345355D-04 -0.41840892D-05  0.29860487D-04  0.28436809D-04
 -0.62490991D-05 -0.75090470D-04  0.48481248D-05  0.48696578D-06  0.47817891D-05
  0.88214672D-05  0.14240583D-04  0.18537008D-04  0.15817663D-04  0.54614588D-05
 -0.18870559D-04 -0.86974235D-05  0.24388483D-04 -0.18836116D-04 -0.14442339D-04
 -0.72077394D-05  0.76436162D-05  0.58606401D-05  0.29248701D-05  0.46424664D-06
  0.35595488D-06  0.17764643D-06 -0.16126930D-03  0.10110109D-03 -0.31925757D-04
  0.34424565D-05 -0.33010627D-05 -0.23249423D-05  0.21644369D-04 -0.29262545D-04
 -0.37620018D-05 -0.50472415D-05  0.48799761D-05  0.90026030D-05  0.14532993D-04
  0.18917638D-04  0.16142455D-04  0.55736018D-05 -0.11916964D-04 -0.54925180D-05
  0.15401594D-04 -0.33949616D-04 -0.26030412D-04 -0.12991000D-04  0.76463713D-04
  0.58627525D-04  0.29259244D-04  0.12304221D-05  0.94340960D-06  0.47082751D-06
  0.24453184D-03  0.69707096D-04  0.84279375D-04  0.91453234D-05  0.26648434D-04
  0.15997789D-04  0.32399901D-04 -0.44072745D-05 -0.13429520D-05 -0.39812421D-06
  0.12972915D-04  0.23932495D-04  0.38634467D-04  0.50290597D-04  0.42913058D-04
  0.14816848D-04 -0.69004034D-04 -0.31803896D-04  0.89181445D-04 -0.83242505D-04
 -0.63825073D-04 -0.31853185D-04 -0.15179003D-04 -0.11638297D-04 -0.58083259D-05
 -0.55667727D-05 -0.42682482D-05 -0.21301550D-05 -0.11114482D-03 -0.37626276D-03
 -0.60900508D-04 -0.28365482D-04  0.71375797D-04 -0.53925269D-04  0.29992745D-04
  0.84334011D-04  0.97514449D-05 -0.13591664D-05 -0.16798671D-04 -0.28493725D-04
 -0.32439099D-04 -0.11798251D-03 -0.50121287D-05 -0.85015189D-05 -0.96786788D-05
 -0.27676833D-04  0.45189175D-05  0.76649394D-05  0.87262626D-05  0.18242472D-04
  0.11850726D-03  0.21811662D-03  0.35295387D-03  0.46396774D-03  0.39794243D-03
  0.13606328D-03 -0.10665597D-03 -0.47589688D-04  0.14053299D-03  0.25056664D-03
  0.19304809D-03  0.84758508D-04 -0.45078848D-05 -0.34730822D-05 -0.15248702D-05
  0.15661941D-04  0.12066681D-04  0.52979231D-05 -0.31136134D-03 -0.23924964D-03
  0.36671425D-04 -0.14200410D-04  0.18208823D-04  0.14301529D-03  0.11273403D-03
 -0.13134529D-03 -0.18431672D-04 -0.56815450D-05 -0.58680030D-05 -0.99532437D-05
 -0.11331416D-04 -0.15659438D-03  0.82554626D+00  0.15194458D+01  0.24587502D+01
  0.32320959D+01  0.27721499D+01  0.94784512D+00 -0.15723916D-01 -0.70159806D-02
  0.20718285D-01  0.27021946D-02  0.20818952D-02  0.91406414D-03  0.87494811D-03
  0.67410035D-03  0.29596636D-03  0.25575125D-03  0.19704255D-03  0.86512293D-04
  0.42128441D-02  0.20376069D-03 -0.25321892D-03  0.41511878D-05 -0.95502596D-02
 -0.96897079D-02 -0.94790862D-02 -0.13107929D-03 -0.15664229D-04 -0.34003096D-04
  0.86186047D-05  0.15899643D-04  0.25666953D-04  0.33410747D-04  0.28509451D-04
  0.98436283D-05 -0.71817732D-04 -0.33100727D-04  0.92817893D-04 -0.19555314D-03
 -0.14993775D-03 -0.74829443D-04 -0.54230649D-03 -0.41580622D-03 -0.20751645D-03
 -0.45409526D-04 -0.34817145D-04 -0.17376195D-04 -0.32532182D-03  0.59128735D-04
  0.11267771D-03  0.10801132D-04  0.61347873D-04  0.50882989D-03  0.34331875D-04
  0.26402199D-03  0.20758537D-04  0.73236165D-04  0.14389054D-04  0.24406559D-04
  0.27786005D-04  0.11618679D-04  0.27120097D-04  0.46000818D-04  0.52370306D-04
  0.25919719D-04  0.14237608D-04  0.24149678D-04  0.27493555D-04  0.11236094D-04
  0.46309251D-05  0.85431526D-05  0.13791297D-04  0.17952171D-04  0.15318620D-04
  0.52891514D-05 -0.15640550D-04 -0.72087153D-05  0.20213990D-04 -0.47065254D-05
 -0.36086652D-05 -0.18009768D-05  0.28937772D-05  0.22187648D-05  0.11073191D-05
  0.49567705D-05  0.38005372D-05  0.18967344D-05 -0.49882962D-05  0.81366461D-05
 -0.30914135D-04 -0.79074804D-05 -0.84243162D-05  0.24986734D-04  0.16288250D-04
  0.16859770D-04 -0.55803442D-05  0.13094621D-04  0.37664774D-05  0.63886585D-05
  0.72732619D-05  0.96722759D-05 -0.14672921D-05 -0.24888051D-05 -0.28334166D-05
 -0.11034554D-04  0.89901989D-06  0.16546765D-05  0.26775790D-05  0.35197525D-05
  0.30188712D-05  0.10322034D-05  0.81285449D-08  0.36269409D-08 -0.10710405D-07
 -0.19621928D-04 -0.15117637D-04 -0.66374571D-05 -0.14738697D-04 -0.11355371D-04
 -0.49856196D-05 -0.20942054D-04 -0.16134724D-04 -0.70840128D-05  0.14138853D-04
  0.25371625D-05  0.77948094D-06  0.15625831D-04 -0.51439887D-05 -0.93779646D-07
  0.60965041D-05 -0.59603585D-05 -0.77702997D-05 -0.56776582D-06  0.30589279D-05
  0.51885206D-05  0.59069473D-05  0.26509627D-05
MO    3     MO 0.0        OCC NO =    1.0000000  ORB. ENERGY =  -19.299948
  0.76635108D-06  0.14137681D-05  0.22822601D-05  0.29708245D-05  0.25350099D-05
  0.87527801D-06 -0.31697842D-05 -0.14609506D-05  0.40966581D-05  0.16535630D-04
  0.12678472D-04  0.63274462D-05  0.27452891D-04  0.21049136D-04  0.10504994D-04
  0.12994185D-04  0.99631170D-05  0.49722937D-05 -0.34755124D-04 -0.97119647D-04
 -0.14175961D-03 -0.21205810D-04 -0.21080948D-04  0.99793879D-05  0.86745421D-05
 -0.98604923D-05 -0.80407185D-05 -0.45064443D-05  0.13634581D-05  0.25153139D-05
  0.40604966D-05  0.52855601D-05  0.45101780D-05  0.15572561D-05 -0.69934215D-05
 -0.32232616D-05  0.90383620D-05  0.24670623D-04  0.18915869D-04  0.94403444D-05
 -0.23464396D-04 -0.17991010D-04 -0.89787750D-05 -0.27290285D-04 -0.20924459D-04
 -0.10442772D-04 -0.75160037D-04 -0.18695880D-03  0.14475012D-03  0.83265356D-05
  0.26270044D-04 -0.51456727D-04  0.15553130D-04  0.95369371D-04  0.15191854D-04
 -0.68716577D-05 -0.56628211D-05 -0.10446799D-04 -0.16864373D-04 -0.21952403D-04
 -0.18732025D-04 -0.64677181D-05 -0.52494205D-05 -0.24194531D-05  0.67843991D-05
  0.21586624D-04  0.16551254D-04  0.82602358D-05 -0.47541701D-04 -0.36451961D-04
 -0.18192083D-04  0.34463893D-04  0.26424727D-04  0.13187791D-04  0.15757987D-03
 -0.13026854D-03  0.19662964D-03 -0.17186929D-04 -0.40039227D-04 -0.45918467D-04
 -0.32296205D-04 -0.13668115D-03  0.24771859D-04  0.57279112D-04 -0.18123711D-06
 -0.33434708D-06 -0.53973986D-06 -0.70258093D-06 -0.59951358D-06 -0.20699763D-06
  0.51890022D-05  0.23916064D-05 -0.67063139D-05  0.19433112D-04  0.14900078D-04
  0.74361832D-05  0.31772154D-04  0.24360873D-04  0.12157783D-04  0.29301028D-04
  0.22466170D-04  0.11212193D-04  0.91915723D-04  0.39286843D-04  0.25073452D-04
  0.16733460D-05  0.18771089D-04  0.12504174D-04  0.25778033D-05  0.30223773D-04
  0.55173454D-05  0.27473966D-04  0.32030915D-05  0.59090783D-05  0.95390846D-05
  0.12417054D-04  0.10595495D-04  0.36583696D-05 -0.13539877D-04 -0.62405171D-05
  0.17499061D-04 -0.30302618D-05 -0.23234125D-05 -0.11595457D-05  0.52100694D-05
  0.39947507D-05  0.19936606D-05 -0.47870175D-05 -0.36703814D-05 -0.18317776D-05
 -0.58533727D-04  0.31567179D-04 -0.23994218D-04  0.23022882D-05 -0.11683408D-04
  0.18353763D-05  0.17319570D-04  0.19416467D-05  0.28707577D-05  0.56232848D-06
  0.14027016D-05  0.25877105D-05  0.41773671D-05  0.54376907D-05  0.46399913D-05
  0.16020775D-05 -0.76989502D-05 -0.35484391D-05  0.99501937D-05 -0.76310478D-05
 -0.58510034D-05 -0.29200608D-05 -0.66034149D-05 -0.50630797D-05 -0.25268316D-05
 -0.48145760D-05 -0.36915115D-05 -0.18423230D-05 -0.89800288D-04  0.26099452D-04
 -0.97497169D-04  0.10945395D-05  0.27180057D-05 -0.15702384D-04  0.73915811D-05
 -0.11145656D-04 -0.16703660D-05  0.46089206D-05  0.12947580D-04  0.21961546D-04
  0.25002444D-04 -0.84759959D-04  0.15535468D-07  0.26351094D-07  0.29999789D-07
 -0.20884321D-04  0.11024475D-05  0.18699596D-05  0.21288829D-05 -0.33686379D-05
 -0.53944479D-07 -0.99286639D-07 -0.16066452D-06 -0.21119801D-06 -0.18114331D-06
 -0.61935974D-07  0.36957307D-05  0.16490278D-05 -0.48696013D-05  0.11108413D-04
  0.85584331D-05  0.37576131D-05 -0.13311996D-04 -0.10256175D-04 -0.45030134D-05
  0.38215147D-05  0.29442710D-05  0.12926936D-05  0.20033469D-04  0.10798087D-05
  0.20880898D-04 -0.72281521D-06 -0.51693237D-05  0.11003448D-05  0.28306567D-05
  0.19328762D-04 -0.31888693D-05  0.22822792D-05 -0.26024499D-05 -0.44142476D-05
 -0.50254649D-05  0.64558583D-06 -0.89294127D-05 -0.16434886D-04 -0.26594748D-04
 -0.34959541D-04 -0.29984595D-04 -0.10252242D-04  0.28263674D-04  0.12611196D-04
 -0.37241032D-04 -0.11483345D-04 -0.88472983D-05 -0.38844405D-05 -0.27733419D-04
 -0.21367104D-04 -0.93813097D-05 -0.11244700D-04 -0.86634351D-05 -0.38037146D-05
  0.70551192D-04  0.31800838D-04  0.28281143D-04  0.79872870D-05 -0.11897304D-04
 -0.37785067D-04 -0.33041451D-04  0.11290096D-04  0.88717202D-05 -0.39593295D-05
  0.18822853D-05  0.34724488D-05  0.56056090D-05  0.72968374D-05  0.62264046D-05
  0.21498279D-05 -0.47613765D-05 -0.21945141D-05  0.61536466D-05  0.15734387D-04
  0.12064130D-04  0.60208464D-05  0.20016783D-04  0.15347599D-04  0.76595277D-05
  0.67422911D-06  0.51695612D-06  0.25799733D-06 -0.31665128D-04 -0.43115117D-05
  0.46699665D-05  0.83909143D-06  0.10441583D-04 -0.12136202D-05  0.96435392D-05
 -0.58573092D-05 -0.52921367D-06  0.13956965D-06 -0.92103168D-07 -0.15622441D-06
 -0.17785596D-06  0.12429405D-04  0.11668318D-05  0.19791675D-05  0.22532123D-05
  0.21682014D-06  0.14395448D-05  0.24417404D-05  0.27798351D-05  0.76391134D-05
 -0.28907131D-05 -0.53328012D-05 -0.86087946D-05 -0.11206093D-04 -0.95621792D-05
 -0.33015907D-05 -0.76429143D-04 -0.35226122D-04  0.98777724D-04  0.16099976D-03
  0.12344441D-03  0.61607411D-04  0.41698276D-03  0.31971593D-03  0.15956066D-03
 -0.16166119D-03 -0.12395155D-03 -0.61860510D-04 -0.27501402D-03 -0.82544591D-04
 -0.21270814D-03  0.23856023D-04  0.50753472D-04  0.20659945D-03  0.41858641D-04
  0.17910913D-03 -0.89804772D-04 -0.22773731D-03  0.27857086D-04  0.47250891D-04
  0.53793469D-04  0.39417727D-04  0.78472645D-06  0.13310446D-05  0.15153472D-05
 -0.12611282D-04  0.82572062D+00  0.15197667D+01  0.24592695D+01  0.32327785D+01
  0.27727354D+01  0.94804531D+00 -0.16074316D-01 -0.71723285D-02  0.21179982D-01
 -0.14520882D-02 -0.11187556D-02 -0.49119399D-03 -0.25875431D-02 -0.19935625D-02
 -0.87528130D-03 -0.15787856D-02 -0.12163692D-02 -0.53405159D-03  0.30795725D-02
 -0.16540895D-04 -0.70754230D-04  0.11319578D-03 -0.88673620D-02 -0.89545002D-02
 -0.88984467D-02 -0.90421530D-04 -0.24459048D-04  0.79125456D-05  0.87828807D-04
  0.14897428D-03  0.16960195D-03 -0.19461371D-03
MO    4     MO 0.0        OCC NO =    1.0000000  ORB. ENERGY =  -10.476329
  0.17119017D-01  0.31581244D-01  0.50981920D-01  0.66363312D-01  0.56627935D-01
  0.19552265D-01 -0.27926608D-03 -0.12871348D-03  0.36092603D-03  0.55234107D-04
  0.42350010D-04  0.21135623D-04  0.40385863D-03  0.30965318D-03  0.15453864D-03
  0.19878138D-04  0.15241295D-04  0.76064744D-05  0.25278064D-02  0.74000625D-03
 -0.11081113D-02  0.48322014D-05 -0.80837443D-03 -0.76496535D-03 -0.69295997D-03
 -0.24551754D-03 -0.22417800D-04 -0.20173713D-04  0.70217218D-04  0.12953706D-03
  0.20911297D-03  0.27220296D-03  0.23227128D-03  0.80197690D-04 -0.63396914D-04
 -0.29219580D-04  0.81934752D-04  0.10386980D-03  0.79640774D-04  0.39746328D-04
  0.84569218D-04  0.64842313D-04  0.32360859D-04  0.15434159D-04  0.11833934D-04
  0.59059625D-05 -0.13886659D-02  0.24167895D-03  0.68268912D-03  0.42100284D-04
  0.91815047D-04  0.86862565D-05  0.24415616D-04  0.33092958D-05  0.93411883D-05
 -0.58869778D-05 -0.62985464D-04 -0.11619588D-03 -0.18757618D-03 -0.24416845D-03
 -0.20834938D-03 -0.71938036D-04  0.13726469D-03  0.63265171D-04 -0.17740214D-03
  0.13737316D-03  0.10532903D-03  0.52566566D-04  0.35723978D-04  0.27390881D-04
  0.13669969D-04  0.90149017D-05  0.69120548D-05  0.34495998D-05  0.11237068D-02
 -0.68970733D-03 -0.19133008D-03 -0.54187092D-04 -0.27653502D-04  0.57361655D-04
 -0.12368001D-03 -0.24219262D-04  0.10656180D-04  0.13844061D-04  0.32914624D-04
  0.60721054D-04  0.98022609D-04  0.12759631D-03  0.10887816D-03  0.37593013D-04
 -0.97772199D-04 -0.45063117D-04  0.12636168D-03  0.16958944D-03  0.13003043D-03
  0.64894295D-04 -0.29342221D-05 -0.22497754D-05 -0.11227956D-05  0.95961654D-05
  0.73577310D-05  0.36720234D-05 -0.15740272D-02  0.51828667D-03 -0.43704526D-03
  0.91821184D-05  0.62125305D-04  0.37343839D-05  0.57160618D-04 -0.52459859D-04
  0.41963249D-06 -0.11129843D-04  0.16129045D-02  0.29754939D-02  0.48033697D-02
  0.62525601D-02  0.53353209D-02  0.18421581D-02  0.29519856D-03  0.13605675D-03
 -0.38151732D-03  0.84363354D-04  0.64684469D-04  0.32282083D-04 -0.29629312D-03
 -0.22717877D-03 -0.11337813D-03 -0.11042674D-04 -0.84668217D-05 -0.42255374D-05
  0.24965485D-02  0.26998676D-03  0.12097569D-02  0.73631837D-04 -0.43944127D-03
 -0.19762186D-03 -0.35149801D-03  0.13011249D-03 -0.56279144D-05  0.18625010D-04
  0.53224440D+00  0.98188698D+00  0.15850700D+01  0.20632902D+01  0.17606093D+01
  0.60789608D+00 -0.20019371D-01 -0.92269099D-02  0.25873219D-01 -0.84307209D-03
 -0.64641421D-03 -0.32260599D-03  0.75815311D-04  0.58130372D-04  0.29011129D-04