 Entering Link 1 = D:\Gaussian\G16W\l1.exe PID=     33508.
  
 Copyright (c) 1988,1990,1992,1993,1995,1998,2003,2009,2016,
            Gaussian, Inc.  All Rights Reserved.
  
 This is part of the Gaussian(R) 16 program.  It is based on
 the Gaussian(R) 09 system (copyright 2009, Gaussian, Inc.),
 the Gaussian(R) 03 system (copyright 2003, Gaussian, Inc.),
 the Gaussian(R) 98 system (copyright 1998, Gaussian, Inc.),
 the Gaussian(R) 94 system (copyright 1995, Gaussian, Inc.),
 the Gaussian 92(TM) system (copyright 1992, Gaussian, Inc.),
 the Gaussian 90(TM) system (copyright 1990, Gaussian, Inc.),
 the Gaussian 88(TM) system (copyright 1988, Gaussian, Inc.),
 the Gaussian 86(TM) system (copyright 1986, Carnegie Mellon
 University), and the Gaussian 82(TM) system (copyright 1983,
 Carnegie Mellon University). Gaussian is a federally registered
 trademark of Gaussian, Inc.
  
 This software contains proprietary and confidential information,
 including trade secrets, belonging to Gaussian, Inc.
  
 This software is provided under written license and may be
 used, copied, transmitted, or stored only in accord with that
 written license.
  
 The following legend is applicable only to US Government
 contracts under FAR:
  
                    RESTRICTED RIGHTS LEGEND
  
 Use, reproduction and disclosure by the US Government is
 subject to restrictions as set forth in subparagraphs (a)
 and (c) of the Commercial Computer Software - Restricted
 Rights clause in FAR 52.227-19.
  
 Gaussian, Inc.
 340 Quinnipiac St., Bldg. 40, Wallingford CT 06492
  
  
 ---------------------------------------------------------------
 Warning -- This program may not be used in any manner that
 competes with the business of Gaussian, Inc. or will provide
 assistance to any competitor of Gaussian, Inc.  The licensee
 of this program is prohibited from giving any competitor of
 Gaussian, Inc. access to this program.  By using this program,
 the user acknowledges that Gaussian, Inc. is engaged in the
 business of creating and licensing software in the field of
 computational chemistry and represents and warrants to the
 licensee that it is not a competitor of Gaussian, Inc. and that
 it will not use this program in any manner prohibited above.
 ---------------------------------------------------------------
  

 Cite this work as:
 Gaussian 16, Revision A.03,
 M. J. Frisch, G. W. Trucks, H. B. Schlegel, G. E. Scuseria, 
 M. A. Robb, J. R. Cheeseman, G. Scalmani, V. Barone, 
 G. A. Petersson, H. Nakatsuji, X. Li, M. Caricato, A. V. Marenich, 
 J. Bloino, B. G. Janesko, R. Gomperts, B. Mennucci, H. P. Hratchian, 
 J. V. Ortiz, A. F. Izmaylov, J. L. Sonnenberg, D. Williams-Young, 
 F. Ding, F. Lipparini, F. Egidi, J. Goings, B. Peng, A. Petrone, 
 T. Henderson, D. Ranasinghe, V. G. Zakrzewski, J. Gao, N. Rega, 
 G. Zheng, W. Liang, M. Hada, M. Ehara, K. Toyota, R. Fukuda, 
 J. Hasegawa, M. Ishida, T. Nakajima, Y. Honda, O. Kitao, H. Nakai, 
 T. Vreven, K. Throssell, J. A. Montgomery, Jr., J. E. Peralta, 
 F. Ogliaro, M. J. Bearpark, J. J. Heyd, E. N. Brothers, K. N. Kudin, 
 V. N. Staroverov, T. A. Keith, R. Kobayashi, J. Normand, 
 K. Raghavachari, A. P. Rendell, J. C. Burant, S. S. Iyengar, 
 J. Tomasi, M. Cossi, J. M. Millam, M. Klene, C. Adamo, R. Cammi, 
 J. W. Ochterski, R. L. Martin, K. Morokuma, O. Farkas, 
 J. B. Foresman, and D. J. Fox, Gaussian, Inc., Wallingford CT, 2016.
 
 ******************************************
 Gaussian 16:  EM64W-G16RevA.03 17-Dec-2016
                03-Dec-2025 
 ******************************************
 %nprocs=   4
 Will use up to    4 processors via shared memory.
 ------------------------------------
 #P B3LYP/6-31G* SCF=conver=7 out=wfn
 ------------------------------------
 1/38=1,172=1/1;
 2/12=2,17=6,18=5,40=1/2;
 3/5=1,6=6,7=1,11=2,25=1,30=1,74=-5/1,2,3;
 4//1;
 5/5=2,6=7,38=5/2;
 6/7=2,8=2,9=2,10=2,28=1/1;
 99/5=1,6=100,9=1/99;
 Leave Link    1 at Wed Dec 03 10:48:42 2025, MaxMem=           0 cpu:               1.0 elap:               0.1
 (Enter D:\Gaussian\G16W\l101.exe)
 ----------------------------------------------------
 Generated by Multiwfn (http://sobereva.com/multiwfn)
 ----------------------------------------------------
 Symbolic Z-matrix:
 Charge =  1 Multiplicity = 2
 C                    -0.9272    0.27063   0.02994 
 C                     0.4165    0.59659   0.13306 
 C                     1.38914  -0.41571   0.15326 
 C                     0.98483  -1.74395   0.06166 
 C                    -0.36833  -2.07625  -0.03634 
 C                    -1.32978  -1.0777   -0.05184 
 H                     0.7402    1.62783   0.18528 
 H                     1.72705  -2.53532   0.06444 
 H                    -0.69259  -3.10728  -0.11036 
 O                    -2.64988  -1.39188  -0.15427 
 H                    -3.14088  -0.55932  -0.15036 
 O                    -1.97385   1.15989  -0.00512 
 C                    -1.68345   2.54849   0.09283 
 H                    -1.05997   2.88261  -0.74303 
 H                    -2.64368   3.06024   0.0558 
 H                    -1.18117   2.7818    1.03742 
 C                     2.84844  -0.04491   0.30762 
 H                     3.07828   0.1812    1.35334 
 H                     3.47619  -0.89751   0.01546 
 O                     3.21448   1.13582  -0.40538 
 H                     2.98965   0.99191  -1.33101 
 
 ITRead=  0  0  0  0  0  0  0  0  0  0  0  0  0  0  0  0  0  0  0  0
 ITRead=  0
 MicOpt= -1 -1 -1 -1 -1 -1 -1 -1 -1 -1 -1 -1 -1 -1 -1 -1 -1 -1 -1 -1
 MicOpt= -1
 NAtoms=     21 NQM=       21 NQMF=       0 NMMI=      0 NMMIF=      0
                NMic=       0 NMicF=      0.
                    Isotopes and Nuclear Properties:
 (Nuclear quadrupole moments (NQMom) in fm**2, nuclear magnetic moments (NMagM)
  in nuclear magnetons)

  Atom         1           2           3           4           5           6           7           8           9          10
 IAtWgt=          12          12          12          12          12          12           1           1           1          16
 AtmWgt=  12.0000000  12.0000000  12.0000000  12.0000000  12.0000000  12.0000000   1.0078250   1.0078250   1.0078250  15.9949146
 NucSpn=           0           0           0           0           0           0           1           1           1           0
 AtZEff=   0.0000000   0.0000000   0.0000000   0.0000000   0.0000000   0.0000000   0.0000000   0.0000000   0.0000000   0.0000000
 NQMom=    0.0000000   0.0000000   0.0000000   0.0000000   0.0000000   0.0000000   0.0000000   0.0000000   0.0000000   0.0000000
 NMagM=    0.0000000   0.0000000   0.0000000   0.0000000   0.0000000   0.0000000   2.7928460   2.7928460   2.7928460   0.0000000
 AtZNuc=   6.0000000   6.0000000   6.0000000   6.0000000   6.0000000   6.0000000   1.0000000   1.0000000   1.0000000   8.0000000

  Atom        11          12          13          14          15          16          17          18          19          20
 IAtWgt=           1          16          12           1           1           1          12           1           1          16
 AtmWgt=   1.0078250  15.9949146  12.0000000   1.0078250   1.0078250   1.0078250  12.0000000   1.0078250   1.0078250  15.9949146
 NucSpn=           1           0           0           1           1           1           0           1           1           0
 AtZEff=   0.0000000   0.0000000   0.0000000   0.0000000   0.0000000   0.0000000   0.0000000   0.0000000   0.0000000   0.0000000
 NQMom=    0.0000000   0.0000000   0.0000000   0.0000000   0.0000000   0.0000000   0.0000000   0.0000000   0.0000000   0.0000000
 NMagM=    2.7928460   0.0000000   0.0000000   2.7928460   2.7928460   2.7928460   0.0000000   2.7928460   2.7928460   0.0000000
 AtZNuc=   1.0000000   8.0000000   6.0000000   1.0000000   1.0000000   1.0000000   6.0000000   1.0000000   1.0000000   8.0000000

  Atom        21
 IAtWgt=           1
 AtmWgt=   1.0078250
 NucSpn=           1
 AtZEff=   0.0000000
 NQMom=    0.0000000
 NMagM=    2.7928460
 AtZNuc=   1.0000000
 Leave Link  101 at Wed Dec 03 10:48:42 2025, MaxMem=   104857600 cpu:               0.0 elap:               0.1
 (Enter D:\Gaussian\G16W\l202.exe)
                          Input orientation:                          
 ---------------------------------------------------------------------
 Center     Atomic      Atomic             Coordinates (Angstroms)
 Number     Number       Type             X           Y           Z
 ---------------------------------------------------------------------
      1          6           0       -0.927198    0.270633    0.029944
      2          6           0        0.416502    0.596591    0.133063
      3          6           0        1.389135   -0.415708    0.153257
      4          6           0        0.984829   -1.743945    0.061657
      5          6           0       -0.368333   -2.076254   -0.036341
      6          6           0       -1.329778   -1.077700   -0.051840
      7          1           0        0.740198    1.627829    0.185283
      8          1           0        1.727046   -2.535316    0.064443
      9          1           0       -0.692591   -3.107279   -0.110361
     10          8           0       -2.649884   -1.391879   -0.154269
     11          1           0       -3.140877   -0.559323   -0.150356
     12          8           0       -1.973846    1.159893   -0.005118
     13          6           0       -1.683451    2.548491    0.092834
     14          1           0       -1.059968    2.882608   -0.743030
     15          1           0       -2.643675    3.060239    0.055801
     16          1           0       -1.181165    2.781803    1.037424
     17          6           0        2.848441   -0.044909    0.307622
     18          1           0        3.078283    0.181197    1.353336
     19          1           0        3.476193   -0.897512    0.015461
     20          8           0        3.214483    1.135817   -0.405384
     21          1           0        2.989654    0.991911   -1.331006
 ---------------------------------------------------------------------
                    Distance matrix (angstroms):
                    1          2          3          4          5
     1  C    0.000000
     2  C    1.386511   0.000000
     3  C    2.419022   1.403984   0.000000
     4  C    2.777657   2.409606   1.391426   0.000000
     5  C    2.413421   2.790836   2.425295   1.396811   0.000000
     6  C    1.409525   2.426300   2.805849   2.411259   1.386264
     7  H    2.155533   1.082108   2.144339   3.382896   3.872750
     8  H    3.862583   3.395744   2.148211   1.084971   2.147442
     9  H    3.388955   3.874015   3.412863   2.168411   1.083344
    10  O    2.401151   3.665965   4.166672   3.658102   2.384901
    11  H    2.371015   3.751188   4.542446   4.297642   3.162448
    12  O    1.373858   2.459709   3.717155   4.146142   3.612658
    13  C    2.400940   2.867287   4.269767   5.054275   4.809832
    14  H    2.727184   2.858912   4.204798   5.121885   5.056489
    15  H    3.275494   3.929404   5.324966   6.020487   5.618650
    16  H    2.717626   2.854043   4.196698   5.111364   5.041268
    17  C    3.798963   2.521174   1.513570   2.533826   3.819988
    18  H    4.219389   2.957481   2.156318   3.123645   4.348155
    19  H    4.555724   3.407034   2.146377   2.631630   4.021504
    20  O    4.253419   2.899894   2.459920   3.671854   4.825988
    21  H    4.208819   2.986785   2.597323   3.666571   4.729257
                    6          7          8          9         10
     6  C    0.000000
     7  H    3.414808   0.000000
     8  H    3.388560   4.280216   0.000000
     9  H    2.128056   4.955960   2.492457   0.000000
    10  O    1.360838   4.552646   4.529106   2.602983   0.000000
    11  H    1.886399   4.467553   5.258076   3.533806   0.966560
    12  O    2.328912   2.760661   5.230297   4.456618   2.644015
    13  C    3.646269   2.594271   6.121878   5.745505   4.064673
    14  H    4.029216   2.382611   6.146004   6.034400   4.598447
    15  H    4.342862   3.676841   7.100247   6.470905   4.457076
    16  H    4.013022   2.397798   6.138089   6.019751   4.582236
    17  C    4.318956   2.694013   2.742041   4.700184   5.679723
    18  H    4.794825   2.987262   3.296442   5.213058   6.128567
    19  H    4.809819   3.727178   2.396730   4.719922   6.148335
    20  O    5.067046   2.590955   3.988787   5.775477   6.390861
    21  H    4.957524   2.786319   3.997848   5.643781   6.234706
                   11         12         13         14         15
    11  H    0.000000
    12  O    2.082969   0.000000
    13  C    3.441183   1.422016   0.000000
    14  H    4.065505   2.085050   1.095004   0.000000
    15  H    3.659363   2.015861   1.088709   1.782642   0.000000
    16  H    4.051471   2.084665   1.094978   1.787419   1.783268
    17  C    6.028789   4.980342   5.225888   4.994986   6.314166
    18  H    6.441072   5.322335   5.465076   5.368193   6.535540
    19  H    6.627781   5.825484   6.205066   5.953266   7.288224
    20  O    6.582487   5.203802   5.121877   4.629926   6.183373
    21  H    6.433014   5.140285   5.127199   4.507759   6.159189
                   16         17         18         19         20
    16  H    0.000000
    17  C    4.976006   0.000000
    18  H    5.000585   1.094289   0.000000
    19  H    6.022686   1.098345   1.764045   0.000000
    20  O    4.910467   1.427052   2.005728   2.092852   0.000000
    21  H    5.119463   1.944232   2.805495   2.370572   0.963345
                   21
    21  H    0.000000
 Stoichiometry    C8H10O3(1+,2)
 Framework group  C1[X(C8H10O3)]
 Deg. of freedom    57
 Full point group                 C1      NOp   1
 Largest Abelian subgroup         C1      NOp   1
 Largest concise Abelian subgroup C1      NOp   1
                         Standard orientation:                         
 ---------------------------------------------------------------------
 Center     Atomic      Atomic             Coordinates (Angstroms)
 Number     Number       Type             X           Y           Z
 ---------------------------------------------------------------------
      1          6           0       -0.927198    0.270633    0.029944
      2          6           0        0.416502    0.596591    0.133063
      3          6           0        1.389135   -0.415708    0.153257
      4          6           0        0.984829   -1.743945    0.061657
      5          6           0       -0.368333   -2.076254   -0.036341
      6          6           0       -1.329778   -1.077700   -0.051840
      7          1           0        0.740198    1.627829    0.185283
      8          1           0        1.727046   -2.535316    0.064443
      9          1           0       -0.692591   -3.107279   -0.110361
     10          8           0       -2.649884   -1.391879   -0.154269
     11          1           0       -3.140877   -0.559323   -0.150356
     12          8           0       -1.973846    1.159893   -0.005118
     13          6           0       -1.683451    2.548491    0.092834
     14          1           0       -1.059968    2.882608   -0.743030
     15          1           0       -2.643675    3.060239    0.055801
     16          1           0       -1.181165    2.781803    1.037424
     17          6           0        2.848441   -0.044909    0.307622
     18          1           0        3.078283    0.181197    1.353336
     19          1           0        3.476193   -0.897512    0.015461
     20          8           0        3.214483    1.135817   -0.405384
     21          1           0        2.989654    0.991911   -1.331006
 ---------------------------------------------------------------------
 Rotational constants (GHZ):           1.5962078           0.8334941           0.5599398
 Leave Link  202 at Wed Dec 03 10:48:42 2025, MaxMem=   104857600 cpu:               0.0 elap:               0.1
 (Enter D:\Gaussian\G16W\l301.exe)
 Standard basis: 6-31G(d) (6D, 7F)
 Ernie: Thresh=  0.10000D-02 Tol=  0.10000D-05 Strict=F.
 There are   185 symmetry adapted cartesian basis functions of A   symmetry.
 There are   185 symmetry adapted basis functions of A   symmetry.
   185 basis functions,   348 primitive gaussians,   185 cartesian basis functions
    41 alpha electrons       40 beta electrons
       nuclear repulsion energy       607.6458861871 Hartrees.
 IExCor=  402 DFT=T Ex+Corr=B3LYP ExCW=0 ScaHFX=  0.200000
 ScaDFX=  0.800000  0.720000  1.000000  0.810000 ScalE2=  1.000000  1.000000
 IRadAn=      5 IRanWt=     -1 IRanGd=            0 ICorTp=0 IEmpDi=  4
 NAtoms=   21 NActive=   21 NUniq=   21 SFac= 1.00D+00 NAtFMM=   60 NAOKFM=F Big=F
 Integral buffers will be    131072 words long.
 Raffenetti 2 integral format.
 Two-electron integral symmetry is turned on.
 Leave Link  301 at Wed Dec 03 10:48:42 2025, MaxMem=   104857600 cpu:               0.0 elap:               0.1
 (Enter D:\Gaussian\G16W\l302.exe)
 NPDir=0 NMtPBC=     1 NCelOv=     1 NCel=       1 NClECP=     1 NCelD=      1
         NCelK=      1 NCelE2=     1 NClLst=     1 CellRange=     0.0.
 One-electron integrals computed using PRISM.
 One-electron integral symmetry used in STVInt
 NBasis=   185 RedAO= T EigKep=  3.77D-04  NBF=   185
 NBsUse=   185 1.00D-06 EigRej= -1.00D+00 NBFU=   185
 Precomputing XC quadrature grid using
 IXCGrd= 4 IRadAn=           5 IRanWt=          -1 IRanGd=           0 AccXCQ= 0.00D+00.
 Generated NRdTot=       0 NPtTot=           0 NUsed=           0 NTot=          32
 NSgBfM=   184   184   184   184   184 MxSgAt=    21 MxSgA2=    21.
 Leave Link  302 at Wed Dec 03 10:48:42 2025, MaxMem=   104857600 cpu:               0.0 elap:               0.4
 (Enter D:\Gaussian\G16W\l303.exe)
 DipDrv:  MaxL=1.
 Leave Link  303 at Wed Dec 03 10:48:42 2025, MaxMem=   104857600 cpu:               0.0 elap:               0.1
 (Enter D:\Gaussian\G16W\l401.exe)
 ExpMin= 1.61D-01 ExpMax= 5.48D+03 ExpMxC= 8.25D+02 IAcc=3 IRadAn=         5 AccDes= 0.00D+00
 Harris functional with IExCor=  402 and IRadAn=       5 diagonalized for initial guess.
 HarFok:  IExCor=  402 AccDes= 0.00D+00 IRadAn=         5 IDoV= 1 UseB2=F ITyADJ=14
 ICtDFT=  3500011 ScaDFX=  1.000000  1.000000  1.000000  1.000000
 FoFCou: FMM=F IPFlag=           0 FMFlag=      100000 FMFlg1=           0
         NFxFlg=           0 DoJE=T BraDBF=F KetDBF=T FulRan=T
         wScrn=  0.000000 ICntrl=       500 IOpCl=  0 I1Cent=   200000004 NGrid=           0
         NMat0=    1 NMatS0=      1 NMatT0=    0 NMatD0=    1 NMtDS0=    0 NMtDT0=    0
 Petite list used in FoFCou.
 Harris En= -536.247494408322    
 JPrj=0 DoOrth=F DoCkMO=F.
 Initial guess <Sx>= 0.0000 <Sy>= 0.0000 <Sz>= 0.5000 <S**2>= 0.7500 S= 0.5000
 Leave Link  401 at Wed Dec 03 10:48:44 2025, MaxMem=   104857600 cpu:               2.0 elap:               1.4
 (Enter D:\Gaussian\G16W\l502.exe)
 Integral symmetry usage will be decided dynamically.
 UHF open shell SCF:
 Using DIIS extrapolation, IDIIS=  1040.
 NGot=   104857600 LenX=   104785858 LenY=   104751192
 Requested convergence on RMS density matrix=1.00D-07 within 128 cycles.
 Requested convergence on MAX density matrix=1.00D-05.
 Requested convergence on             energy=1.00D-05.
 No special actions if energy rises.
 Fock matrices will be formed incrementally for  20 cycles.
 Integral accuracy reduced to 1.0D-05 until final iterations.

 Cycle   1  Pass 0  IDiag  1:
 FoFJK:  IHMeth= 1 ICntrl=       0 DoSepK=F KAlg= 0 I1Cent=           0 FoldK=F
 IRaf= 910000000 NMat=       1 IRICut=       1 DoRegI=T DoRafI=F ISym2E= 0 IDoP0=0 IntGTp=1.
 FoFCou: FMM=F IPFlag=           0 FMFlag=      100000 FMFlg1=           0
         NFxFlg=           0 DoJE=F BraDBF=F KetDBF=F FulRan=T
         wScrn=  0.000000 ICntrl=         0 IOpCl=  1 I1Cent=           0 NGrid=           0
         NMat0=    1 NMatS0=      1 NMatT0=    0 NMatD0=    1 NMtDS0=    0 NMtDT0=    0
 Symmetry not used in FoFCou.
 E= -536.037373446840    
 DIIS: error= 2.22D-02 at cycle   1 NSaved=   1.
 NSaved= 1 IEnMin= 1 EnMin= -536.037373446840     IErMin= 1 ErrMin= 2.22D-02
 ErrMax= 2.22D-02  0.00D+00 EMaxC= 1.00D-01 BMatC= 8.55D-01 BMatP= 8.55D-01
 IDIUse=3 WtCom= 7.78D-01 WtEn= 2.22D-01
 Coeff-Com:  0.100D+01
 Coeff-En:   0.100D+01
 Coeff:      0.100D+01
 Gap=     0.248 Goal=   None    Shift=    0.000
 Gap=     0.027 Goal=   None    Shift=    0.000
 GapD=    0.027 DampG=0.250 DampE=0.500 DampFc=0.2500 IDamp=-1.
 Damping current iteration by 2.50D-01
 RMSDP=6.71D-03 MaxDP=3.91D-01              OVMax= 8.42D-01

 Cycle   2  Pass 0  IDiag  1:
 RMSU=  1.65D-03    CP:  9.89D-01
 E= -536.090003022928     Delta-E=       -0.052629576087 Rises=F Damp=T
 DIIS: error= 1.40D-02 at cycle   2 NSaved=   2.
 NSaved= 2 IEnMin= 2 EnMin= -536.090003022928     IErMin= 2 ErrMin= 1.40D-02
 ErrMax= 1.40D-02  0.00D+00 EMaxC= 1.00D-01 BMatC= 2.10D-01 BMatP= 8.55D-01
 IDIUse=3 WtCom= 8.60D-01 WtEn= 1.40D-01
 Coeff-Com: -0.356D+00 0.136D+01
 Coeff-En:   0.101D+00 0.899D+00
 Coeff:     -0.292D+00 0.129D+01
 Gap=     0.390 Goal=   None    Shift=    0.000
 Gap=    -0.111 Goal=   None    Shift=    0.000
 RMSDP=2.73D-03 MaxDP=7.68D-02 DE=-5.26D-02 OVMax= 6.21D-01

 Cycle   3  Pass 0  IDiag  1:
 RMSU=  2.69D-03    CP:  9.71D-01  9.28D-01
 E= -536.152860031848     Delta-E=       -0.062857008921 Rises=F Damp=F
 DIIS: error= 1.26D-02 at cycle   3 NSaved=   3.
 NSaved= 3 IEnMin= 3 EnMin= -536.152860031848     IErMin= 3 ErrMin= 1.26D-02
 ErrMax= 1.26D-02  0.00D+00 EMaxC= 1.00D-01 BMatC= 3.24D-01 BMatP= 2.10D-01
 IDIUse=2 WtCom= 0.00D+00 WtEn= 1.00D+00
 Coeff-En:   0.000D+00 0.217D+00 0.783D+00
 Coeff:      0.000D+00 0.217D+00 0.783D+00
 Gap=     0.268 Goal=   None    Shift=    0.000
 Gap=     0.059 Goal=   None    Shift=    0.000
 RMSDP=5.29D-03 MaxDP=3.64D-01 DE=-6.29D-02 OVMax= 8.44D-01

 Cycle   4  Pass 0  IDiag  1:
 RMSU=  1.74D-03    CP:  9.68D-01  2.99D+00 -3.55D-01
 E= -535.692072972100     Delta-E=        0.460787059748 Rises=F Damp=F
 DIIS: error= 3.35D-02 at cycle   4 NSaved=   4.
 NSaved= 4 IEnMin= 3 EnMin= -536.152860031848     IErMin= 3 ErrMin= 1.26D-02
 ErrMax= 3.35D-02  0.00D+00 EMaxC= 1.00D-01 BMatC= 1.77D+00 BMatP= 2.10D-01
 IDIUse=2 WtCom= 0.00D+00 WtEn= 1.00D+00
 Coeff-En:   0.000D+00 0.000D+00 0.798D+00 0.202D+00
 Coeff:      0.000D+00 0.000D+00 0.798D+00 0.202D+00
 Gap=     0.236 Goal=   None    Shift=    0.000
 Gap=     0.006 Goal=   None    Shift=    0.000
 RMSDP=4.11D-03 MaxDP=2.90D-01 DE= 4.61D-01 OVMax= 9.04D-01

 Cycle   5  Pass 0  IDiag  1:
 RMSU=  1.63D-03    CP:  9.79D-01  1.24D+00  3.81D-01  2.13D-01
 E= -536.218932298516     Delta-E=       -0.526859326416 Rises=F Damp=F
 DIIS: error= 6.38D-03 at cycle   5 NSaved=   5.
 NSaved= 5 IEnMin= 5 EnMin= -536.218932298516     IErMin= 5 ErrMin= 6.38D-03
 ErrMax= 6.38D-03  0.00D+00 EMaxC= 1.00D-01 BMatC= 5.99D-02 BMatP= 2.10D-01
 IDIUse=3 WtCom= 9.36D-01 WtEn= 6.38D-02
 Coeff-Com: -0.128D+00 0.267D+00 0.354D+00 0.347D-01 0.472D+00
 Coeff-En:   0.000D+00 0.000D+00 0.138D+00 0.000D+00 0.862D+00
 Coeff:     -0.120D+00 0.250D+00 0.341D+00 0.324D-01 0.497D+00
 Gap=     0.229 Goal=   None    Shift=    0.000
 Gap=     0.069 Goal=   None    Shift=    0.000
 RMSDP=1.07D-03 MaxDP=3.43D-02 DE=-5.27D-01 OVMax= 1.37D-01

 Cycle   6  Pass 0  IDiag  1:
 RMSU=  5.98D-04    CP:  9.77D-01  1.08D+00  6.11D-01  1.49D-01  6.58D-01
 E= -536.228231544719     Delta-E=       -0.009299246203 Rises=F Damp=F
 DIIS: error= 4.19D-03 at cycle   6 NSaved=   6.
 NSaved= 6 IEnMin= 6 EnMin= -536.228231544719     IErMin= 6 ErrMin= 4.19D-03
 ErrMax= 4.19D-03  0.00D+00 EMaxC= 1.00D-01 BMatC= 1.80D-02 BMatP= 5.99D-02
 IDIUse=3 WtCom= 9.58D-01 WtEn= 4.19D-02
 Coeff-Com: -0.116D+00 0.171D+00 0.111D+00-0.330D-02 0.353D+00 0.483D+00
 Coeff-En:   0.000D+00 0.000D+00 0.000D+00 0.000D+00 0.280D+00 0.720D+00
 Coeff:     -0.111D+00 0.164D+00 0.106D+00-0.316D-02 0.350D+00 0.493D+00
 Gap=     0.224 Goal=   None    Shift=    0.000
 Gap=     0.066 Goal=   None    Shift=    0.000
 RMSDP=4.26D-04 MaxDP=1.61D-02 DE=-9.30D-03 OVMax= 4.79D-02

 Cycle   7  Pass 0  IDiag  1:
 RMSU=  2.43D-04    CP:  9.77D-01  1.19D+00  5.55D-01  1.35D-01  7.87D-01
                    CP:  7.58D-01
 E= -536.233201122592     Delta-E=       -0.004969577872 Rises=F Damp=F
 DIIS: error= 1.16D-03 at cycle   7 NSaved=   7.
 NSaved= 7 IEnMin= 7 EnMin= -536.233201122592     IErMin= 7 ErrMin= 1.16D-03
 ErrMax= 1.16D-03  0.00D+00 EMaxC= 1.00D-01 BMatC= 1.93D-03 BMatP= 1.80D-02
 IDIUse=3 WtCom= 9.88D-01 WtEn= 1.16D-02
 Coeff-Com: -0.401D-01 0.513D-01-0.392D-01 0.411D-02 0.226D-01 0.278D+00
 Coeff-Com:  0.723D+00
 Coeff-En:   0.000D+00 0.000D+00 0.000D+00 0.000D+00 0.000D+00 0.000D+00
 Coeff-En:   0.100D+01
 Coeff:     -0.396D-01 0.507D-01-0.388D-01 0.406D-02 0.223D-01 0.275D+00
 Coeff:      0.726D+00
 Gap=     0.221 Goal=   None    Shift=    0.000
 Gap=     0.069 Goal=   None    Shift=    0.000
 RMSDP=1.40D-04 MaxDP=6.12D-03 DE=-4.97D-03 OVMax= 1.12D-02

 Cycle   8  Pass 0  IDiag  1:
 RMSU=  8.11D-05    CP:  9.77D-01  1.20D+00  5.47D-01  1.44D-01  8.02D-01
                    CP:  9.36D-01  1.03D+00
 E= -536.233622968765     Delta-E=       -0.000421846173 Rises=F Damp=F
 DIIS: error= 3.88D-04 at cycle   8 NSaved=   8.
 NSaved= 8 IEnMin= 8 EnMin= -536.233622968765     IErMin= 8 ErrMin= 3.88D-04
 ErrMax= 3.88D-04  0.00D+00 EMaxC= 1.00D-01 BMatC= 2.98D-04 BMatP= 1.93D-03
 IDIUse=3 WtCom= 9.96D-01 WtEn= 3.88D-03
 Coeff-Com: -0.647D-02 0.515D-02-0.466D-01 0.659D-02-0.523D-01 0.942D-01
 Coeff-Com:  0.368D+00 0.632D+00
 Coeff-En:   0.000D+00 0.000D+00 0.000D+00 0.000D+00 0.000D+00 0.000D+00
 Coeff-En:   0.000D+00 0.100D+01
 Coeff:     -0.645D-02 0.513D-02-0.464D-01 0.656D-02-0.521D-01 0.938D-01
 Coeff:      0.366D+00 0.633D+00
 Gap=     0.220 Goal=   None    Shift=    0.000
 Gap=     0.069 Goal=   None    Shift=    0.000
 RMSDP=6.50D-05 MaxDP=2.45D-03 DE=-4.22D-04 OVMax= 7.06D-03

 Cycle   9  Pass 0  IDiag  1:
 RMSU=  4.01D-05    CP:  9.77D-01  1.21D+00  5.42D-01  1.51D-01  8.08D-01
                    CP:  1.00D+00  1.12D+00  9.62D-01
 E= -536.233704585605     Delta-E=       -0.000081616840 Rises=F Damp=F
 DIIS: error= 2.21D-04 at cycle   9 NSaved=   9.
 NSaved= 9 IEnMin= 9 EnMin= -536.233704585605     IErMin= 9 ErrMin= 2.21D-04
 ErrMax= 2.21D-04  0.00D+00 EMaxC= 1.00D-01 BMatC= 6.54D-05 BMatP= 2.98D-04
 IDIUse=3 WtCom= 9.98D-01 WtEn= 2.21D-03
 Coeff-Com:  0.237D-02-0.366D-02-0.114D-01 0.227D-02-0.228D-01-0.207D-01
 Coeff-Com: -0.773D-01 0.310D+00 0.821D+00
 Coeff-En:   0.000D+00 0.000D+00 0.000D+00 0.000D+00 0.000D+00 0.000D+00
 Coeff-En:   0.000D+00 0.000D+00 0.100D+01
 Coeff:      0.236D-02-0.365D-02-0.114D-01 0.226D-02-0.227D-01-0.207D-01
 Coeff:     -0.771D-01 0.309D+00 0.822D+00
 Gap=     0.219 Goal=   None    Shift=    0.000
 Gap=     0.070 Goal=   None    Shift=    0.000
 RMSDP=4.03D-05 MaxDP=1.56D-03 DE=-8.16D-05 OVMax= 4.10D-03

 Cycle  10  Pass 0  IDiag  1:
 RMSU=  1.88D-05    CP:  9.77D-01  1.21D+00  5.38D-01  1.53D-01  8.14D-01
                    CP:  1.03D+00  1.19D+00  1.20D+00  1.15D+00
 E= -536.233726672492     Delta-E=       -0.000022086887 Rises=F Damp=F
 DIIS: error= 9.34D-05 at cycle  10 NSaved=  10.
 NSaved=10 IEnMin=10 EnMin= -536.233726672492     IErMin=10 ErrMin= 9.34D-05
 ErrMax= 9.34D-05  0.00D+00 EMaxC= 1.00D-01 BMatC= 1.15D-05 BMatP= 6.54D-05
 IDIUse=1 WtCom= 1.00D+00 WtEn= 0.00D+00
 Coeff-Com:  0.103D-02-0.364D-03 0.234D-02-0.636D-04-0.251D-02-0.272D-01
 Coeff-Com: -0.127D+00 0.705D-01 0.504D+00 0.579D+00
 Coeff:      0.103D-02-0.364D-03 0.234D-02-0.636D-04-0.251D-02-0.272D-01
 Coeff:     -0.127D+00 0.705D-01 0.504D+00 0.579D+00
 Gap=     0.218 Goal=   None    Shift=    0.000
 Gap=     0.070 Goal=   None    Shift=    0.000
 RMSDP=1.73D-05 MaxDP=8.05D-04 DE=-2.21D-05 OVMax= 3.06D-03

 Cycle  11  Pass 0  IDiag  1:
 RMSU=  9.90D-06    CP:  9.77D-01  1.22D+00  5.38D-01  1.54D-01  8.15D-01
                    CP:  1.04D+00  1.20D+00  1.30D+00  1.36D+00  7.68D-01
 E= -536.233730852442     Delta-E=       -0.000004179950 Rises=F Damp=F
 DIIS: error= 4.97D-05 at cycle  11 NSaved=  11.
 NSaved=11 IEnMin=11 EnMin= -536.233730852442     IErMin=11 ErrMin= 4.97D-05
 ErrMax= 4.97D-05  0.00D+00 EMaxC= 1.00D-01 BMatC= 2.17D-06 BMatP= 1.15D-05
 IDIUse=1 WtCom= 1.00D+00 WtEn= 0.00D+00
 Coeff-Com:  0.104D-02-0.117D-02 0.329D-02-0.184D-03 0.281D-02-0.837D-02
 Coeff-Com: -0.511D-01-0.146D-01 0.805D-01 0.314D+00 0.674D+00
 Coeff:      0.104D-02-0.117D-02 0.329D-02-0.184D-03 0.281D-02-0.837D-02
 Coeff:     -0.511D-01-0.146D-01 0.805D-01 0.314D+00 0.674D+00
 Gap=     0.218 Goal=   None    Shift=    0.000
 Gap=     0.070 Goal=   None    Shift=    0.000
 RMSDP=7.52D-06 MaxDP=2.41D-04 DE=-4.18D-06 OVMax= 9.10D-04

 Initial convergence to 1.0D-05 achieved.  Increase integral accuracy.
 Cycle  12  Pass 1  IDiag  1:
 E= -536.233718036081     Delta-E=        0.000012816361 Rises=F Damp=F
 DIIS: error= 2.57D-05 at cycle   1 NSaved=   1.
 NSaved= 1 IEnMin= 1 EnMin= -536.233718036081     IErMin= 1 ErrMin= 2.57D-05
 ErrMax= 2.57D-05  0.00D+00 EMaxC= 1.00D-01 BMatC= 8.19D-07 BMatP= 8.19D-07
 IDIUse=1 WtCom= 1.00D+00 WtEn= 0.00D+00
 Coeff-Com:  0.100D+01
 Coeff:      0.100D+01
 Gap=     0.218 Goal=   None    Shift=    0.000
 Gap=     0.070 Goal=   None    Shift=    0.000
 RMSDP=7.52D-06 MaxDP=2.41D-04 DE= 1.28D-05 OVMax= 1.09D-03

 Cycle  13  Pass 1  IDiag  1:
 RMSU=  1.03D-05    CP:  1.00D+00
 E= -536.233718023739     Delta-E=        0.000000012342 Rises=F Damp=F
 DIIS: error= 4.28D-05 at cycle   2 NSaved=   2.
 NSaved= 2 IEnMin= 1 EnMin= -536.233718036081     IErMin= 1 ErrMin= 2.57D-05
 ErrMax= 4.28D-05  0.00D+00 EMaxC= 1.00D-01 BMatC= 2.01D-06 BMatP= 8.19D-07
 IDIUse=1 WtCom= 1.00D+00 WtEn= 0.00D+00
 Coeff-Com:  0.626D+00 0.374D+00
 Coeff:      0.626D+00 0.374D+00
 Gap=     0.218 Goal=   None    Shift=    0.000
 Gap=     0.070 Goal=   None    Shift=    0.000
 RMSDP=4.66D-06 MaxDP=1.56D-04 DE= 1.23D-08 OVMax= 5.84D-04

 Cycle  14  Pass 1  IDiag  1:
 RMSU=  4.25D-06    CP:  1.00D+00  8.15D-01
 E= -536.233718569063     Delta-E=       -0.000000545325 Rises=F Damp=F
 DIIS: error= 1.40D-05 at cycle   3 NSaved=   3.
 NSaved= 3 IEnMin= 3 EnMin= -536.233718569063     IErMin= 3 ErrMin= 1.40D-05
 ErrMax= 1.40D-05  0.00D+00 EMaxC= 1.00D-01 BMatC= 1.33D-07 BMatP= 8.19D-07
 IDIUse=1 WtCom= 1.00D+00 WtEn= 0.00D+00
 Coeff-Com:  0.143D+00 0.179D+00 0.678D+00
 Coeff:      0.143D+00 0.179D+00 0.678D+00
 Gap=     0.218 Goal=   None    Shift=    0.000
 Gap=     0.070 Goal=   None    Shift=    0.000
 RMSDP=2.41D-06 MaxDP=9.95D-05 DE=-5.45D-07 OVMax= 3.46D-04

 Cycle  15  Pass 1  IDiag  1:
 RMSU=  1.97D-06    CP:  1.00D+00  9.37D-01  1.14D+00
 E= -536.233718668437     Delta-E=       -0.000000099374 Rises=F Damp=F
 DIIS: error= 8.62D-06 at cycle   4 NSaved=   4.
 NSaved= 4 IEnMin= 4 EnMin= -536.233718668437     IErMin= 4 ErrMin= 8.62D-06
 ErrMax= 8.62D-06  0.00D+00 EMaxC= 1.00D-01 BMatC= 7.12D-08 BMatP= 1.33D-07
 IDIUse=1 WtCom= 1.00D+00 WtEn= 0.00D+00
 Coeff-Com: -0.207D+00-0.329D-01 0.506D+00 0.734D+00
 Coeff:     -0.207D+00-0.329D-01 0.506D+00 0.734D+00
 Gap=     0.218 Goal=   None    Shift=    0.000
 Gap=     0.070 Goal=   None    Shift=    0.000
 RMSDP=2.87D-06 MaxDP=1.12D-04 DE=-9.94D-08 OVMax= 4.98D-04

 Cycle  16  Pass 1  IDiag  1:
 RMSU=  1.57D-06    CP:  1.00D+00  1.06D+00  1.54D+00  1.59D+00
 E= -536.233718758629     Delta-E=       -0.000000090192 Rises=F Damp=F
 DIIS: error= 5.30D-06 at cycle   5 NSaved=   5.
 NSaved= 5 IEnMin= 5 EnMin= -536.233718758629     IErMin= 5 ErrMin= 5.30D-06
 ErrMax= 5.30D-06  0.00D+00 EMaxC= 1.00D-01 BMatC= 2.04D-08 BMatP= 7.12D-08
 IDIUse=1 WtCom= 1.00D+00 WtEn= 0.00D+00
 Coeff-Com: -0.116D+00-0.686D-01-0.202D+00 0.260D+00 0.113D+01
 Coeff:     -0.116D+00-0.686D-01-0.202D+00 0.260D+00 0.113D+01
 Gap=     0.218 Goal=   None    Shift=    0.000
 Gap=     0.070 Goal=   None    Shift=    0.000
 RMSDP=2.69D-06 MaxDP=9.95D-05 DE=-9.02D-08 OVMax= 4.51D-04

 Cycle  17  Pass 1  IDiag  1:
 RMSU=  4.99D-07    CP:  1.00D+00  1.17D+00  1.87D+00  2.46D+00  1.51D+00
 E= -536.233718801631     Delta-E=       -0.000000043002 Rises=F Damp=F
 DIIS: error= 2.49D-06 at cycle   6 NSaved=   6.
 NSaved= 6 IEnMin= 6 EnMin= -536.233718801631     IErMin= 6 ErrMin= 2.49D-06
 ErrMax= 2.49D-06  0.00D+00 EMaxC= 1.00D-01 BMatC= 7.98D-09 BMatP= 2.04D-08
 IDIUse=1 WtCom= 1.00D+00 WtEn= 0.00D+00
 Coeff-Com:  0.130D-01-0.304D-01-0.353D+00-0.114D+00 0.780D+00 0.704D+00
 Coeff:      0.130D-01-0.304D-01-0.353D+00-0.114D+00 0.780D+00 0.704D+00
 Gap=     0.218 Goal=   None    Shift=    0.000
 Gap=     0.070 Goal=   None    Shift=    0.000
 RMSDP=1.42D-06 MaxDP=5.68D-05 DE=-4.30D-08 OVMax= 2.62D-04

 Cycle  18  Pass 1  IDiag  1:
 RMSU=  2.44D-07    CP:  1.00D+00  1.24D+00  2.04D+00  2.89D+00  1.88D+00
                    CP:  7.58D-01
 E= -536.233718810694     Delta-E=       -0.000000009063 Rises=F Damp=F
 DIIS: error= 1.15D-06 at cycle   7 NSaved=   7.
 NSaved= 7 IEnMin= 7 EnMin= -536.233718810694     IErMin= 7 ErrMin= 1.15D-06
 ErrMax= 1.15D-06  0.00D+00 EMaxC= 1.00D-01 BMatC= 9.27D-10 BMatP= 7.98D-09
 IDIUse=1 WtCom= 1.00D+00 WtEn= 0.00D+00
 Coeff-Com:  0.135D-01-0.120D-01-0.121D+00-0.848D-01 0.214D+00 0.309D+00
 Coeff-Com:  0.682D+00
 Coeff:      0.135D-01-0.120D-01-0.121D+00-0.848D-01 0.214D+00 0.309D+00
 Coeff:      0.682D+00
 Gap=     0.218 Goal=   None    Shift=    0.000
 Gap=     0.070 Goal=   None    Shift=    0.000
 RMSDP=2.90D-07 MaxDP=1.19D-05 DE=-9.06D-09 OVMax= 4.09D-05

 Cycle  19  Pass 1  IDiag  1:
 RMSU=  1.06D-07    CP:  1.00D+00  1.25D+00  2.07D+00  2.97D+00  1.94D+00
                    CP:  8.89D-01  1.15D+00
 E= -536.233718811254     Delta-E=       -0.000000000559 Rises=F Damp=F
 DIIS: error= 7.25D-07 at cycle   8 NSaved=   8.
 NSaved= 8 IEnMin= 8 EnMin= -536.233718811254     IErMin= 8 ErrMin= 7.25D-07
 ErrMax= 7.25D-07  0.00D+00 EMaxC= 1.00D-01 BMatC= 3.47D-10 BMatP= 9.27D-10
 IDIUse=1 WtCom= 1.00D+00 WtEn= 0.00D+00
 Coeff-Com:  0.390D-02 0.597D-02 0.982D-01-0.382D-02-0.212D+00-0.101D+00
 Coeff-Com:  0.427D+00 0.783D+00
 Coeff:      0.390D-02 0.597D-02 0.982D-01-0.382D-02-0.212D+00-0.101D+00
 Coeff:      0.427D+00 0.783D+00
 Gap=     0.218 Goal=   None    Shift=    0.000
 Gap=     0.070 Goal=   None    Shift=    0.000
 RMSDP=1.05D-07 MaxDP=4.74D-06 DE=-5.59D-10 OVMax= 1.07D-05

 Cycle  20  Pass 1  IDiag  1:
 RMSU=  6.54D-08    CP:  1.00D+00  1.24D+00  2.08D+00  2.97D+00  1.95D+00
                    CP:  9.43D-01  1.45D+00  1.02D+00
 E= -536.233718811407     Delta-E=       -0.000000000153 Rises=F Damp=F
 DIIS: error= 2.72D-07 at cycle   9 NSaved=   9.
 NSaved= 9 IEnMin= 9 EnMin= -536.233718811407     IErMin= 9 ErrMin= 2.72D-07
 ErrMax= 2.72D-07  0.00D+00 EMaxC= 1.00D-01 BMatC= 1.20D-10 BMatP= 3.47D-10
 IDIUse=1 WtCom= 1.00D+00 WtEn= 0.00D+00
 Coeff-Com: -0.635D-03 0.646D-02 0.921D-01 0.114D-01-0.192D+00-0.146D+00
 Coeff-Com:  0.982D-01 0.525D+00 0.606D+00
 Coeff:     -0.635D-03 0.646D-02 0.921D-01 0.114D-01-0.192D+00-0.146D+00
 Coeff:      0.982D-01 0.525D+00 0.606D+00
 Gap=     0.218 Goal=   None    Shift=    0.000
 Gap=     0.070 Goal=   None    Shift=    0.000
 RMSDP=7.83D-08 MaxDP=3.84D-06 DE=-1.53D-10 OVMax= 1.12D-05

 SCF Done:  E(UB3LYP) =  -536.233718811     A.U. after   20 cycles
            NFock= 20  Conv=0.78D-07     -V/T= 2.0091
 <Sx>= 0.0000 <Sy>= 0.0000 <Sz>= 0.5000 <S**2>= 0.7594 S= 0.5047
 <L.S>= 0.000000000000E+00
 KE= 5.314219468062D+02 PE=-2.451347897887D+03 EE= 7.760463460819D+02
 Annihilation of the first spin contaminant:
 S**2 before annihilation     0.7594,   after     0.7501
 Leave Link  502 at Wed Dec 03 10:49:40 2025, MaxMem=   104857600 cpu:              56.0 elap:              56.6
 (Enter D:\Gaussian\G16W\l601.exe)
 Copying SCF densities to generalized density rwf, IOpCl= 1 IROHF=0.

 **********************************************************************

            Population analysis using the SCF density.

 **********************************************************************

 Orbital symmetries:
 Alpha Orbitals:
       Occupied  (A) (A) (A) (A) (A) (A) (A) (A) (A) (A) (A) (A)
                 (A) (A) (A) (A) (A) (A) (A) (A) (A) (A) (A) (A)
                 (A) (A) (A) (A) (A) (A) (A) (A) (A) (A) (A) (A)
                 (A) (A) (A) (A) (A)
       Virtual   (A) (A) (A) (A) (A) (A) (A) (A) (A) (A) (A) (A)
                 (A) (A) (A) (A) (A) (A) (A) (A) (A) (A) (A) (A)
                 (A) (A) (A) (A) (A) (A) (A) (A) (A) (A) (A) (A)
                 (A) (A) (A) (A) (A) (A) (A) (A) (A) (A) (A) (A)
                 (A) (A) (A) (A) (A) (A) (A) (A) (A) (A) (A) (A)
                 (A) (A) (A) (A) (A) (A) (A) (A) (A) (A) (A) (A)
                 (A) (A) (A) (A) (A) (A) (A) (A) (A) (A) (A) (A)
                 (A) (A) (A) (A) (A) (A) (A) (A) (A) (A) (A) (A)
                 (A) (A) (A) (A) (A) (A) (A) (A) (A) (A) (A) (A)
                 (A) (A) (A) (A) (A) (A) (A) (A) (A) (A) (A) (A)
                 (A) (A) (A) (A) (A) (A) (A) (A) (A) (A) (A) (A)
                 (A) (A) (A) (A) (A) (A) (A) (A) (A) (A) (A) (A)
 Beta  Orbitals:
       Occupied  (A) (A) (A) (A) (A) (A) (A) (A) (A) (A) (A) (A)
                 (A) (A) (A) (A) (A) (A) (A) (A) (A) (A) (A) (A)
                 (A) (A) (A) (A) (A) (A) (A) (A) (A) (A) (A) (A)
                 (A) (A) (A) (A)
       Virtual   (A) (A) (A) (A) (A) (A) (A) (A) (A) (A) (A) (A)
                 (A) (A) (A) (A) (A) (A) (A) (A) (A) (A) (A) (A)
                 (A) (A) (A) (A) (A) (A) (A) (A) (A) (A) (A) (A)
                 (A) (A) (A) (A) (A) (A) (A) (A) (A) (A) (A) (A)
                 (A) (A) (A) (A) (A) (A) (A) (A) (A) (A) (A) (A)
                 (A) (A) (A) (A) (A) (A) (A) (A) (A) (A) (A) (A)
                 (A) (A) (A) (A) (A) (A) (A) (A) (A) (A) (A) (A)
                 (A) (A) (A) (A) (A) (A) (A) (A) (A) (A) (A) (A)
                 (A) (A) (A) (A) (A) (A) (A) (A) (A) (A) (A) (A)
                 (A) (A) (A) (A) (A) (A) (A) (A) (A) (A) (A) (A)
                 (A) (A) (A) (A) (A) (A) (A) (A) (A) (A) (A) (A)
                 (A) (A) (A) (A) (A) (A) (A) (A) (A) (A) (A) (A)
                 (A)
 The electronic state is 2-A.
 Alpha  occ. eigenvalues --  -19.40003 -19.39982 -19.29995 -10.47633 -10.46868
 Alpha  occ. eigenvalues --  -10.40816 -10.40388 -10.39694 -10.39534 -10.38685
 Alpha  occ. eigenvalues --  -10.38179  -1.29000  -1.26080  -1.17274  -1.06406
 Alpha  occ. eigenvalues --   -0.96955  -0.95205  -0.89109  -0.85620  -0.80591
 Alpha  occ. eigenvalues --   -0.78532  -0.75550  -0.71104  -0.68947  -0.66968
 Alpha  occ. eigenvalues --   -0.66528  -0.63084  -0.61854  -0.61598  -0.61456
 Alpha  occ. eigenvalues --   -0.60027  -0.59878  -0.56973  -0.54691  -0.54409
 Alpha  occ. eigenvalues --   -0.53062  -0.51691  -0.48778  -0.44344  -0.43053
 Alpha  occ. eigenvalues --   -0.42073
 Alpha virt. eigenvalues --   -0.20246  -0.19480  -0.10551  -0.06120  -0.05311
 Alpha virt. eigenvalues --   -0.03847  -0.03749  -0.03277  -0.00558   0.00253
 Alpha virt. eigenvalues --    0.01257   0.01712   0.02214   0.03112   0.03418
 Alpha virt. eigenvalues --    0.07118   0.07833   0.09129   0.14553   0.15234
 Alpha virt. eigenvalues --    0.16511   0.20609   0.30149   0.31826   0.32148
 Alpha virt. eigenvalues --    0.32591   0.34388   0.37270   0.38272   0.38382
 Alpha virt. eigenvalues --    0.38946   0.40392   0.41756   0.42816   0.43923
 Alpha virt. eigenvalues --    0.44939   0.45977   0.49848   0.51387   0.53437
 Alpha virt. eigenvalues --    0.54964   0.57814   0.58200   0.59813   0.64692
 Alpha virt. eigenvalues --    0.66223   0.66587   0.68391   0.70188   0.71529
 Alpha virt. eigenvalues --    0.73110   0.73453   0.74439   0.75020   0.76327
 Alpha virt. eigenvalues --    0.76808   0.80419   0.81328   0.82463   0.86148
 Alpha virt. eigenvalues --    0.88501   0.88647   0.89454   0.91471   0.95517
 Alpha virt. eigenvalues --    0.97124   1.00370   1.02580   1.04207   1.08136
 Alpha virt. eigenvalues --    1.11091   1.12939   1.15202   1.16863   1.19790
 Alpha virt. eigenvalues --    1.21809   1.22840   1.25099   1.28693   1.32284
 Alpha virt. eigenvalues --    1.34158   1.44519   1.48075   1.50450   1.51789
 Alpha virt. eigenvalues --    1.53113   1.54942   1.57795   1.61366   1.62257
 Alpha virt. eigenvalues --    1.65664   1.68458   1.68963   1.72487   1.74824
 Alpha virt. eigenvalues --    1.76445   1.78246   1.82521   1.84017   1.87027
 Alpha virt. eigenvalues --    1.89660   1.91746   1.93777   1.94543   1.95277
 Alpha virt. eigenvalues --    2.03511   2.04827   2.05960   2.08620   2.10884
 Alpha virt. eigenvalues --    2.11235   2.12856   2.19259   2.20738   2.24167
 Alpha virt. eigenvalues --    2.24706   2.29652   2.32442   2.37616   2.38663
 Alpha virt. eigenvalues --    2.42156   2.46659   2.46783   2.49379   2.57404
 Alpha virt. eigenvalues --    2.62131   2.67026   2.70780   2.72324   2.76492
 Alpha virt. eigenvalues --    2.84256   3.03156   3.23974   3.60458   3.73493
 Alpha virt. eigenvalues --    3.89310   3.90503   3.98098   4.02098   4.11324
 Alpha virt. eigenvalues --    4.15421   4.22011   4.36109   4.73405
  Beta  occ. eigenvalues --  -19.39589 -19.39488 -19.29927 -10.47261 -10.46627
  Beta  occ. eigenvalues --  -10.40470 -10.40399 -10.39706 -10.39352 -10.38707
  Beta  occ. eigenvalues --  -10.38305  -1.28082  -1.25151  -1.17109  -1.05638
  Beta  occ. eigenvalues --   -0.95887  -0.94967  -0.88918  -0.85240  -0.80199
  Beta  occ. eigenvalues --   -0.78122  -0.75181  -0.70886  -0.68644  -0.66738
  Beta  occ. eigenvalues --   -0.64943  -0.62928  -0.61418  -0.61241  -0.60061
  Beta  occ. eigenvalues --   -0.59594  -0.58785  -0.56813  -0.54383  -0.52820
  Beta  occ. eigenvalues --   -0.52564  -0.49894  -0.48523  -0.43557  -0.42092
  Beta virt. eigenvalues --   -0.35080  -0.18391  -0.17318  -0.10179  -0.05933
  Beta virt. eigenvalues --   -0.05064  -0.03737  -0.03287  -0.02327  -0.00414
  Beta virt. eigenvalues --    0.00384   0.01371   0.01891   0.02494   0.03311
  Beta virt. eigenvalues --    0.03798   0.07420   0.08231   0.09764   0.14880
  Beta virt. eigenvalues --    0.15452   0.16945   0.20992   0.30341   0.32411
  Beta virt. eigenvalues --    0.32592   0.32980   0.34639   0.37689   0.38524
  Beta virt. eigenvalues --    0.38658   0.39348   0.40719   0.42103   0.43026
  Beta virt. eigenvalues --    0.44288   0.45218   0.46151   0.50530   0.52032
  Beta virt. eigenvalues --    0.53631   0.55270   0.58040   0.58762   0.60400
  Beta virt. eigenvalues --    0.64803   0.66359   0.66675   0.68436   0.70411
  Beta virt. eigenvalues --    0.71604   0.73315   0.73690   0.75168   0.75605
  Beta virt. eigenvalues --    0.76903   0.77250   0.80618   0.81558   0.82618
  Beta virt. eigenvalues --    0.87015   0.88674   0.89128   0.89641   0.91776
  Beta virt. eigenvalues --    0.95833   0.97358   1.00600   1.03498   1.04393
  Beta virt. eigenvalues --    1.08407   1.11295   1.13762   1.15739   1.17211
  Beta virt. eigenvalues --    1.20421   1.22287   1.23635   1.25584   1.29182
  Beta virt. eigenvalues --    1.32700   1.34421   1.44719   1.48381   1.50745
  Beta virt. eigenvalues --    1.52833   1.53462   1.55514   1.58262   1.61582
  Beta virt. eigenvalues --    1.62659   1.66588   1.68803   1.69617   1.73002
  Beta virt. eigenvalues --    1.75111   1.76723   1.78476   1.83105   1.84118
  Beta virt. eigenvalues --    1.87515   1.89979   1.92762   1.94051   1.94984
  Beta virt. eigenvalues --    1.95708   2.03887   2.05369   2.06210   2.09112
  Beta virt. eigenvalues --    2.11120   2.12182   2.13324   2.19572   2.21121
  Beta virt. eigenvalues --    2.25092   2.25373   2.30005   2.32610   2.38451
  Beta virt. eigenvalues --    2.39291   2.42597   2.47418   2.47617   2.49930
  Beta virt. eigenvalues --    2.57659   2.62439   2.67302   2.71000   2.72524
  Beta virt. eigenvalues --    2.76732   2.84814   3.03364   3.24161   3.60552
  Beta virt. eigenvalues --    3.74179   3.89726   3.90750   3.98720   4.02365
  Beta virt. eigenvalues --    4.11472   4.15654   4.22346   4.36613   4.73989
          Condensed to atoms (all electrons):
               1          2          3          4          5          6
     1  C    4.777078   0.407160  -0.002393  -0.033067  -0.064050   0.371760
     2  C    0.407160   5.232513   0.461827  -0.059062  -0.036487  -0.048162
     3  C   -0.002393   0.461827   4.894266   0.452984  -0.021108  -0.027033
     4  C   -0.033067  -0.059062   0.452984   4.978996   0.517932  -0.016851
     5  C   -0.064050  -0.036487  -0.021108   0.517932   4.946512   0.512512
     6  C    0.371760  -0.048162  -0.027033  -0.016851   0.512512   4.617789
     7  H   -0.035553   0.353174  -0.037911   0.005699   0.000164   0.003027
     8  H    0.000263   0.005906  -0.041328   0.363720  -0.033024   0.003543
     9  H    0.005881   0.000049   0.003185  -0.029312   0.355695  -0.030823
    10  O   -0.057252   0.004836  -0.000170   0.003068  -0.052667   0.331728
    11  H   -0.012231   0.001245  -0.000070  -0.000154   0.005018  -0.026773
    12  O    0.275671  -0.060512   0.003135   0.000093   0.003769  -0.050404
    13  C   -0.038269  -0.000054   0.000212   0.000019  -0.000146   0.003932
    14  H   -0.006548   0.004484   0.000042   0.000000  -0.000007  -0.000274
    15  H    0.002931   0.000191   0.000000   0.000000   0.000004  -0.000043
    16  H   -0.005797   0.003420  -0.000029  -0.000003  -0.000005  -0.000230
    17  C    0.003528  -0.052002   0.321214  -0.040125   0.004528   0.000377
    18  H   -0.000268  -0.008625  -0.026554   0.002902  -0.000290   0.000013
    19  H    0.000034   0.008020  -0.053878  -0.003554   0.000219  -0.000013
    20  O    0.000920   0.003218  -0.046815   0.002491  -0.000078   0.000006
    21  H   -0.000214  -0.001737   0.001301   0.000810  -0.000039  -0.000011
               7          8          9         10         11         12
     1  C   -0.035553   0.000263   0.005881  -0.057252  -0.012231   0.275671
     2  C    0.353174   0.005906   0.000049   0.004836   0.001245  -0.060512
     3  C   -0.037911  -0.041328   0.003185  -0.000170  -0.000070   0.003135
     4  C    0.005699   0.363720  -0.029312   0.003068  -0.000154   0.000093
     5  C    0.000164  -0.033024   0.355695  -0.052667   0.005018   0.003769
     6  C    0.003027   0.003543  -0.030823   0.331728  -0.026773  -0.050404
     7  H    0.487931  -0.000099   0.000010  -0.000031  -0.000004  -0.006051
     8  H   -0.000099   0.491093  -0.004161  -0.000039   0.000003   0.000002
     9  H    0.000010  -0.004161   0.474491  -0.001920  -0.000169  -0.000044
    10  O   -0.000031  -0.000039  -0.001920   8.079826   0.240751  -0.012512
    11  H   -0.000004   0.000003  -0.000169   0.240751   0.297756   0.026894
    12  O   -0.006051   0.000002  -0.000044  -0.012512   0.026894   8.189625
    13  C    0.006660   0.000000   0.000002   0.000179  -0.000877   0.208653
    14  H    0.000988   0.000000   0.000000  -0.000008   0.000086  -0.028584
    15  H   -0.000087   0.000000   0.000000   0.000005  -0.000128  -0.027645
    16  H    0.001269   0.000000   0.000000  -0.000008   0.000084  -0.028421
    17  C   -0.009154  -0.005128  -0.000093   0.000000   0.000000  -0.000033
    18  H    0.000109   0.000190   0.000002   0.000000   0.000000   0.000001
    19  H    0.000533   0.006056   0.000001   0.000000   0.000000   0.000000
    20  O    0.015702   0.000028   0.000000   0.000000   0.000000   0.000000
    21  H   -0.000606   0.000013   0.000000   0.000000   0.000000   0.000000
              13         14         15         16         17         18
     1  C   -0.038269  -0.006548   0.002931  -0.005797   0.003528  -0.000268
     2  C   -0.000054   0.004484   0.000191   0.003420  -0.052002  -0.008625
     3  C    0.000212   0.000042   0.000000  -0.000029   0.321214  -0.026554
     4  C    0.000019   0.000000   0.000000  -0.000003  -0.040125   0.002902
     5  C   -0.000146  -0.000007   0.000004  -0.000005   0.004528  -0.000290
     6  C    0.003932  -0.000274  -0.000043  -0.000230   0.000377   0.000013
     7  H    0.006660   0.000988  -0.000087   0.001269  -0.009154   0.000109
     8  H    0.000000   0.000000   0.000000   0.000000  -0.005128   0.000190
     9  H    0.000002   0.000000   0.000000   0.000000  -0.000093   0.000002
    10  O    0.000179  -0.000008   0.000005  -0.000008   0.000000   0.000000
    11  H   -0.000877   0.000086  -0.000128   0.000084   0.000000   0.000000
    12  O    0.208653  -0.028584  -0.027645  -0.028421  -0.000033   0.000001
    13  C    4.953252   0.370742   0.385373   0.371397  -0.000009  -0.000001
    14  H    0.370742   0.514867  -0.024401  -0.036615  -0.000005   0.000001
    15  H    0.385373  -0.024401   0.458570  -0.024088   0.000000   0.000000
    16  H    0.371397  -0.036615  -0.024088   0.511344   0.000008  -0.000002
    17  C   -0.000009  -0.000005   0.000000   0.000008   4.910386   0.370591
    18  H   -0.000001   0.000001   0.000000  -0.000002   0.370591   0.496815
    19  H    0.000000   0.000000   0.000000   0.000000   0.367090  -0.032376
    20  O   -0.000007  -0.000012   0.000000   0.000002   0.264361  -0.035200
    21  H   -0.000002   0.000011   0.000000  -0.000001  -0.032975   0.006721
              19         20         21
     1  C    0.000034   0.000920  -0.000214
     2  C    0.008020   0.003218  -0.001737
     3  C   -0.053878  -0.046815   0.001301
     4  C   -0.003554   0.002491   0.000810
     5  C    0.000219  -0.000078  -0.000039
     6  C   -0.000013   0.000006  -0.000011
     7  H    0.000533   0.015702  -0.000606
     8  H    0.006056   0.000028   0.000013
     9  H    0.000001   0.000000   0.000000
    10  O    0.000000   0.000000   0.000000
    11  H    0.000000   0.000000   0.000000
    12  O    0.000000   0.000000   0.000000
    13  C    0.000000  -0.000007  -0.000002
    14  H    0.000000  -0.000012   0.000011
    15  H    0.000000   0.000000   0.000000
    16  H    0.000000   0.000002  -0.000001
    17  C    0.367090   0.264361  -0.032975
    18  H   -0.032376  -0.035200   0.006721
    19  H    0.559090  -0.031569  -0.004818
    20  O   -0.031569   8.163085   0.239233
    21  H   -0.004818   0.239233   0.381267
          Atomic-Atomic Spin Densities.
               1          2          3          4          5          6
     1  C    0.168365   0.008620  -0.005541  -0.003439  -0.000907   0.041170
     2  C    0.008620  -0.112039  -0.005079  -0.002337   0.002008  -0.001455
     3  C   -0.005541  -0.005079   0.253213   0.040278  -0.006257  -0.005521
     4  C   -0.003439  -0.002337   0.040278   0.128658  -0.026778  -0.006338
     5  C   -0.000907   0.002008  -0.006257  -0.026778  -0.024073   0.030409
     6  C    0.041170  -0.001455  -0.005521  -0.006338   0.030409   0.256675
     7  H   -0.000114   0.001310  -0.000325   0.000016  -0.000036   0.000100
     8  H   -0.000028  -0.000008  -0.000916   0.000462   0.000363   0.000015
     9  H    0.000039  -0.000033   0.000049   0.000074   0.001117  -0.000634
    10  O   -0.004979  -0.000011   0.000061   0.000286  -0.002521  -0.061702
    11  H    0.000174  -0.000020   0.000001  -0.000005  -0.000086   0.000671
    12  O   -0.043964   0.000943   0.000230   0.000038  -0.000075  -0.007014
    13  C    0.000644   0.000336  -0.000008   0.000001  -0.000004  -0.000003
    14  H    0.001380  -0.000590  -0.000048  -0.000002   0.000002   0.000074
    15  H    0.000024  -0.000003   0.000000   0.000000   0.000000  -0.000001
    16  H    0.001183   0.000293  -0.000033  -0.000004   0.000002   0.000065
    17  C   -0.000017   0.000956  -0.009192  -0.001259   0.000030  -0.000016
    18  H    0.000016  -0.000148  -0.003388  -0.000862   0.000021   0.000015
    19  H    0.000009   0.000076  -0.003115   0.000132   0.000021   0.000000
    20  O    0.000059   0.000971  -0.005141  -0.000052   0.000004   0.000002
    21  H   -0.000036  -0.000225   0.001584   0.000094  -0.000005  -0.000005
               7          8          9         10         11         12
     1  C   -0.000114  -0.000028   0.000039  -0.004979   0.000174  -0.043964
     2  C    0.001310  -0.000008  -0.000033  -0.000011  -0.000020   0.000943
     3  C   -0.000325  -0.000916   0.000049   0.000061   0.000001   0.000230
     4  C    0.000016   0.000462   0.000074   0.000286  -0.000005   0.000038
     5  C   -0.000036   0.000363   0.001117  -0.002521  -0.000086  -0.000075
     6  C    0.000100   0.000015  -0.000634  -0.061702   0.000671  -0.007014
     7  H    0.001899   0.000002  -0.000001   0.000000   0.000000   0.000015
     8  H    0.000002  -0.006449   0.000106   0.000000   0.000000   0.000000
     9  H   -0.000001   0.000106  -0.001198  -0.000072   0.000007   0.000000
    10  O    0.000000   0.000000  -0.000072   0.244716  -0.001684   0.002092
    11  H    0.000000   0.000000   0.000007  -0.001684  -0.004401  -0.000357
    12  O    0.000015   0.000000   0.000000   0.002092  -0.000357   0.186565
    13  C   -0.000050   0.000000   0.000000  -0.000003   0.000019  -0.004072
    14  H    0.000145   0.000000   0.000000  -0.000004  -0.000001  -0.002135
    15  H    0.000005   0.000000   0.000000   0.000000   0.000001   0.000075
    16  H   -0.000191   0.000000   0.000000  -0.000005  -0.000001  -0.002311
    17  C    0.000075   0.000258   0.000001   0.000000   0.000000   0.000000
    18  H   -0.000088  -0.000040   0.000000   0.000000   0.000000   0.000000
    19  H    0.000007   0.000044   0.000000   0.000000   0.000000   0.000000
    20  O   -0.000012   0.000004   0.000000   0.000000   0.000000   0.000000
    21  H   -0.000047  -0.000004   0.000000   0.000000   0.000000   0.000000
              13         14         15         16         17         18
     1  C    0.000644   0.001380   0.000024   0.001183  -0.000017   0.000016
     2  C    0.000336  -0.000590  -0.000003   0.000293   0.000956  -0.000148
     3  C   -0.000008  -0.000048   0.000000  -0.000033  -0.009192  -0.003388
     4  C    0.000001  -0.000002   0.000000  -0.000004  -0.001259  -0.000862
     5  C   -0.000004   0.000002   0.000000   0.000002   0.000030   0.000021
     6  C   -0.000003   0.000074  -0.000001   0.000065  -0.000016   0.000015
     7  H   -0.000050   0.000145   0.000005  -0.000191   0.000075  -0.000088
     8  H    0.000000   0.000000   0.000000   0.000000   0.000258  -0.000040
     9  H    0.000000   0.000000   0.000000   0.000000   0.000001   0.000000
    10  O   -0.000003  -0.000004   0.000000  -0.000005   0.000000   0.000000
    11  H    0.000019  -0.000001   0.000001  -0.000001   0.000000   0.000000
    12  O   -0.004072  -0.002135   0.000075  -0.002311   0.000000   0.000000
    13  C   -0.008688   0.001924   0.000196   0.001593   0.000000   0.000000
    14  H    0.001924   0.010619  -0.000115  -0.002265  -0.000001  -0.000001
    15  H    0.000196  -0.000115  -0.000266  -0.000007   0.000000   0.000000
    16  H    0.001593  -0.002265  -0.000007   0.010950   0.000002   0.000004
    17  C    0.000000  -0.000001   0.000000   0.000002  -0.013581   0.006207
    18  H    0.000000  -0.000001   0.000000   0.000004   0.006207   0.021993
    19  H    0.000000   0.000000   0.000000   0.000000   0.003876  -0.003114
    20  O    0.000000   0.000008   0.000000  -0.000003  -0.000879  -0.002771
    21  H    0.000000  -0.000006   0.000000   0.000001   0.000406   0.000274
              19         20         21
     1  C    0.000009   0.000059  -0.000036
     2  C    0.000076   0.000971  -0.000225
     3  C   -0.003115  -0.005141   0.001584
     4  C    0.000132  -0.000052   0.000094
     5  C    0.000021   0.000004  -0.000005
     6  C    0.000000   0.000002  -0.000005
     7  H    0.000007  -0.000012  -0.000047
     8  H    0.000044   0.000004  -0.000004
     9  H    0.000000   0.000000   0.000000
    10  O    0.000000   0.000000   0.000000
    11  H    0.000000   0.000000   0.000000
    12  O    0.000000   0.000000   0.000000
    13  C    0.000000   0.000000   0.000000
    14  H    0.000000   0.000008  -0.000006
    15  H    0.000000   0.000000   0.000000
    16  H    0.000000  -0.000003   0.000001
    17  C    0.003876  -0.000879   0.000406
    18  H   -0.003114  -0.002771   0.000274
    19  H    0.009783   0.001126  -0.000411
    20  O    0.001126   0.031582  -0.001448
    21  H   -0.000411  -0.001448   0.000647
 Mulliken charges and spin densities:
               1          2
     1  C    0.410413   0.162655
     2  C   -0.219401  -0.106436
     3  C    0.119121   0.250852
     4  C   -0.146584   0.128960
     5  C   -0.138451  -0.026763
     6  C    0.355927   0.246505
     7  H    0.214229   0.002710
     8  H    0.212962  -0.006192
     9  H    0.227207  -0.000545
    10  O   -0.535786   0.176173
    11  H    0.468568  -0.005682
    12  O   -0.493637   0.130029
    13  C   -0.261057  -0.008117
    14  H    0.205233   0.008985
    15  H    0.229319  -0.000092
    16  H    0.207676   0.009272
    17  C   -0.102559  -0.013135
    18  H    0.225973   0.018117
    19  H    0.185167   0.008435
    20  O   -0.575366   0.023448
    21  H    0.411046   0.000820
 Sum of Mulliken charges =   1.00000   1.00000
 Mulliken charges and spin densities with hydrogens summed into heavy atoms:
               1          2
     1  C    0.410413   0.162655
     2  C   -0.005173  -0.103726
     3  C    0.119121   0.250852
     4  C    0.066378   0.122768
     5  C    0.088755  -0.027308
     6  C    0.355927   0.246505
    10  O   -0.067219   0.170491
    12  O   -0.493637   0.130029
    13  C    0.381171   0.010048
    17  C    0.308582   0.013417
    20  O   -0.164320   0.024268
 Electronic spatial extent (au):  <R**2>=           1925.4273
 Charge=              1.0000 electrons
 Dipole moment (field-independent basis, Debye):
    X=             -1.4272    Y=             -0.1019    Z=             -0.4007  Tot=              1.4858
 Quadrupole moment (field-independent basis, Debye-Ang):
   XX=            -43.2229   YY=            -43.5916   ZZ=            -58.7759
   XY=            -11.3521   XZ=             -1.1120   YZ=             -0.3114
 Traceless Quadrupole moment (field-independent basis, Debye-Ang):
   XX=              5.3072   YY=              4.9386   ZZ=            -10.2458
   XY=            -11.3521   XZ=             -1.1120   YZ=             -0.3114
 Octapole moment (field-independent basis, Debye-Ang**2):
  XXX=            -32.9206  YYY=             12.2067  ZZZ=             -5.7946  XYY=            -18.2442
  XXY=             -4.4450  XXZ=             -4.4893  XZZ=              8.6940  YZZ=              8.4205
  YYZ=             -0.9194  XYZ=             -3.2064
 Hexadecapole moment (field-independent basis, Debye-Ang**3):
 XXXX=          -1282.9468 YYYY=           -672.9473 ZZZZ=            -77.3764 XXXY=            -83.0914
 XXXZ=             -5.2393 YYYX=            -64.2264 YYYZ=              2.5166 ZZZX=            -14.0086
 ZZZY=             -4.6433 XXYY=           -354.9081 XXZZ=           -216.7649 YYZZ=           -152.4664
 XXYZ=             -6.2936 YYXZ=             -6.3473 ZZXY=             14.7591
 N-N= 6.076458861871D+02 E-N=-2.451347859630D+03  KE= 5.314219468062D+02
                          Isotropic Fermi Contact Couplings
        Atom                 a.u.       MegaHertz       Gauss      10(-4) cm-1
     1  C(13)              0.01062      11.93339       4.25813       3.98055
     2  C(13)             -0.01606     -18.05778      -6.44346      -6.02343
     3  C(13)              0.02460      27.65991       9.86974       9.22635
     4  C(13)              0.00891      10.01180       3.57246       3.33958
     5  C(13)             -0.00807      -9.06916      -3.23610      -3.02515
     6  C(13)              0.01825      20.51873       7.32159       6.84431
     7  H(1)               0.00094       4.20091       1.49899       1.40127
     8  H(1)              -0.00229     -10.25699      -3.65995      -3.42136
     9  H(1)              -0.00028      -1.24103      -0.44283      -0.41396
    10  O(17)              0.03477     -21.07631      -7.52055      -7.03030
    11  H(1)              -0.00291     -13.00384      -4.64009      -4.33761
    12  O(17)              0.02873     -17.41419      -6.21382      -5.80875
    13  C(13)             -0.00381      -4.28355      -1.52848      -1.42884
    14  H(1)               0.00426      19.03831       6.79334       6.35050
    15  H(1)              -0.00008      -0.37307      -0.13312      -0.12444
    16  H(1)               0.00425      19.01549       6.78520       6.34288
    17  C(13)             -0.00798      -8.96896      -3.20035      -2.99172
    18  H(1)               0.01046      46.74188      16.67866      15.59141
    19  H(1)               0.00513      22.93897       8.18520       7.65162
    20  O(17)              0.00708      -4.29317      -1.53191      -1.43205
    21  H(1)              -0.00014      -0.61599      -0.21980      -0.20547
 --------------------------------------------------------
       Center         ----  Spin Dipole Couplings  ----
                      3XX-RR        3YY-RR        3ZZ-RR
 --------------------------------------------------------
     1   Atom       -0.108236     -0.095558      0.203794
     2   Atom        0.045246      0.040268     -0.085514
     3   Atom       -0.125926     -0.135165      0.261091
     4   Atom       -0.077046     -0.072994      0.150040
     5   Atom        0.001522      0.000622     -0.002144
     6   Atom       -0.151347     -0.155418      0.306764
     7   Atom        0.005098      0.000093     -0.005191
     8   Atom       -0.003679      0.008517     -0.004838
     9   Atom       -0.002277      0.007904     -0.005627
    10   Atom       -0.384826     -0.391228      0.776055
    11   Atom       -0.002901      0.018711     -0.015810
    12   Atom       -0.301207     -0.283110      0.584317
    13   Atom       -0.006585      0.007303     -0.000718
    14   Atom       -0.001909      0.004488     -0.002579
    15   Atom       -0.002018      0.005113     -0.003095
    16   Atom       -0.002362      0.004002     -0.001640
    17   Atom       -0.003944     -0.001885      0.005829
    18   Atom        0.001335     -0.003884      0.002549
    19   Atom        0.006923     -0.002451     -0.004472
    20   Atom        0.091508     -0.053810     -0.037698
    21   Atom       -0.000194     -0.002832      0.003026
 --------------------------------------------------------
                        XY            XZ            YZ
 --------------------------------------------------------
     1   Atom       -0.001935     -0.016822     -0.011108
     2   Atom       -0.001611      0.008155      0.005944
     3   Atom        0.007401     -0.060138     -0.020951
     4   Atom        0.000471     -0.015990     -0.008955
     5   Atom       -0.005101      0.001268      0.000209
     6   Atom        0.005348     -0.028132     -0.017803
     7   Atom       -0.001093      0.000304      0.000158
     8   Atom       -0.012479     -0.000093     -0.000461
     9   Atom       -0.002860      0.000072      0.000345
    10   Atom       -0.001416     -0.074278     -0.047980
    11   Atom       -0.024800     -0.000132     -0.000201
    12   Atom        0.001152     -0.044173     -0.046328
    13   Atom        0.001846     -0.000346      0.000671
    14   Atom        0.001969     -0.001358     -0.002347
    15   Atom       -0.003108     -0.000091      0.000239
    16   Atom        0.001364      0.001499      0.003196
    17   Atom        0.002332     -0.003045      0.010357
    18   Atom        0.003025      0.004127      0.000989
    19   Atom       -0.001791     -0.000727      0.000000
    20   Atom        0.024967     -0.045655     -0.008068
    21   Atom        0.003640     -0.000769     -0.000816
 --------------------------------------------------------


 ---------------------------------------------------------------------------------
              Anisotropic Spin Dipole Couplings in Principal Axis System
 ---------------------------------------------------------------------------------

       Atom             a.u.   MegaHertz   Gauss  10(-4) cm-1        Axes

              Baa    -0.1096   -14.708    -5.248    -4.906  0.9815  0.1819  0.0591
     1 C(13)  Bbb    -0.0955   -12.814    -4.572    -4.274 -0.1837  0.9826  0.0261
              Bcc     0.2051    27.522     9.821     9.181 -0.0533 -0.0365  0.9979
 
              Baa    -0.0863   -11.582    -4.133    -3.863 -0.0624 -0.0476  0.9969
     2 C(13)  Bbb     0.0403     5.405     1.929     1.803  0.2172  0.9743  0.0601
              Bcc     0.0460     6.177     2.204     2.060  0.9741 -0.2202  0.0504
 
              Baa    -0.1399   -18.775    -6.699    -6.263 -0.6499  0.7578 -0.0579
     3 C(13)  Bbb    -0.1315   -17.643    -6.296    -5.885  0.7450  0.6502  0.1488
              Bcc     0.2714    36.418    12.995    12.148 -0.1504 -0.0536  0.9872
 
              Baa    -0.0782   -10.490    -3.743    -3.499  0.9969  0.0324  0.0711
     4 C(13)  Bbb    -0.0733    -9.842    -3.512    -3.283 -0.0351  0.9987  0.0375
              Bcc     0.1515    20.332     7.255     6.782 -0.0698 -0.0399  0.9968
 
              Baa    -0.0045    -0.603    -0.215    -0.201  0.6397  0.6542 -0.4034
     5 C(13)  Bbb    -0.0018    -0.238    -0.085    -0.079  0.2062  0.3595  0.9101
              Bcc     0.0063     0.841     0.300     0.281  0.7404 -0.6654  0.0951
 
              Baa    -0.1591   -21.351    -7.619    -7.122 -0.5760  0.8174 -0.0035
     6 C(13)  Bbb    -0.1501   -20.139    -7.186    -6.718  0.8151  0.5747  0.0726
              Bcc     0.3092    41.490    14.805    13.840 -0.0614 -0.0389  0.9974
 
              Baa    -0.0052    -2.778    -0.991    -0.927 -0.0333 -0.0367  0.9988
     7 H(1)   Bbb    -0.0001    -0.067    -0.024    -0.022  0.2022  0.9784  0.0427
              Bcc     0.0053     2.845     1.015     0.949  0.9788 -0.2034  0.0252
 
              Baa    -0.0115    -6.128    -2.187    -2.044  0.8469  0.5295  0.0486
     8 H(1)   Bbb    -0.0048    -2.576    -0.919    -0.859 -0.0498 -0.0120  0.9987
              Bcc     0.0163     8.704     3.106     2.903 -0.5294  0.8482 -0.0162
 
              Baa    -0.0056    -3.011    -1.074    -1.004 -0.0523 -0.0364  0.9980
     9 H(1)   Bbb    -0.0030    -1.609    -0.574    -0.537  0.9661  0.2511  0.0598
              Bcc     0.0087     4.620     1.649     1.541 -0.2528  0.9673  0.0221
 
              Baa    -0.3962    28.667    10.229     9.562  0.5555  0.8286  0.0691
    10 O(17)  Bbb    -0.3866    27.971     9.981     9.330  0.8291 -0.5583  0.0299
              Bcc     0.7827   -56.638   -20.210   -18.892 -0.0634 -0.0407  0.9972
 
              Baa    -0.0192   -10.224    -3.648    -3.410  0.8346  0.5469  0.0657
    11 H(1)   Bbb    -0.0158    -8.428    -3.007    -2.811 -0.0560 -0.0344  0.9978
              Bcc     0.0350    18.652     6.655     6.221 -0.5480  0.8365 -0.0019
 
              Baa    -0.3035    21.960     7.836     7.325  0.9965  0.0640  0.0529
    12 O(17)  Bbb    -0.2855    20.658     7.371     6.891 -0.0666  0.9965  0.0497
              Bcc     0.5890   -42.618   -15.207   -14.216 -0.0496 -0.0530  0.9974
 
              Baa    -0.0069    -0.920    -0.328    -0.307  0.9887 -0.1322  0.0702
    13 C(13)  Bbb    -0.0007    -0.099    -0.035    -0.033 -0.0793 -0.0649  0.9947
              Bcc     0.0076     1.019     0.363     0.340  0.1270  0.9891  0.0746
 
              Baa    -0.0037    -1.985    -0.708    -0.662  0.5064  0.1225  0.8536
    14 H(1)   Bbb    -0.0021    -1.145    -0.409    -0.382  0.8146 -0.3928 -0.4269
              Bcc     0.0059     3.131     1.117     1.044  0.2829  0.9114 -0.2987
 
              Baa    -0.0032    -1.698    -0.606    -0.566  0.9365  0.3505  0.0133
    15 H(1)   Bbb    -0.0031    -1.655    -0.591    -0.552 -0.0029 -0.0302  0.9995
              Bcc     0.0063     3.353     1.196     1.118 -0.3507  0.9361  0.0273
 
              Baa    -0.0037    -1.992    -0.711    -0.664 -0.6239 -0.2019  0.7550
    16 H(1)   Bbb    -0.0021    -1.139    -0.406    -0.380  0.7493 -0.4293  0.5043
              Bcc     0.0059     3.131     1.117     1.044  0.2223  0.8803  0.4191
 
              Baa    -0.0110    -1.475    -0.526    -0.492 -0.4631  0.7148 -0.5240
    17 C(13)  Bbb    -0.0021    -0.284    -0.101    -0.095  0.8835  0.4196 -0.2084
              Bcc     0.0131     1.759     0.628     0.587 -0.0710  0.5595  0.8258
 
              Baa    -0.0054    -2.873    -1.025    -0.958 -0.4765  0.8680  0.1396
    18 H(1)   Bbb    -0.0014    -0.769    -0.274    -0.257 -0.5735 -0.4273  0.6990
              Bcc     0.0068     3.642     1.300     1.215  0.6664  0.2530  0.7014
 
              Baa    -0.0045    -2.415    -0.862    -0.805  0.0730  0.0631  0.9953
    19 H(1)   Bbb    -0.0028    -1.479    -0.528    -0.493  0.1757  0.9816 -0.0751
              Bcc     0.0073     3.893     1.389     1.299  0.9817 -0.1804 -0.0606
 
              Baa    -0.0580     4.198     1.498     1.400 -0.1438  0.9872  0.0689
    20 O(17)  Bbb    -0.0522     3.777     1.348     1.260  0.3062 -0.0218  0.9517
              Bcc     0.1102    -7.975    -2.846    -2.660  0.9411  0.1580 -0.2991
 
              Baa    -0.0054    -2.876    -1.026    -0.959 -0.5707  0.8207  0.0275
    21 H(1)   Bbb     0.0015     0.825     0.295     0.275  0.6695  0.4457  0.5942
              Bcc     0.0038     2.051     0.732     0.684 -0.4754 -0.3575  0.8039
 

 ---------------------------------------------------------------------------------

 No NMR shielding tensors so no spin-rotation constants.
 Leave Link  601 at Wed Dec 03 10:49:41 2025, MaxMem=   104857600 cpu:               1.0 elap:               0.3
 (Enter D:\Gaussian\G16W\l9999.exe)
 1|1|UNPC-PC-20250526LCFF|SP|UB3LYP|6-31G(d)|C8H10O3(1+,2)|ADMINISTRATO
 R|03-Dec-2025|0||#P B3LYP/6-31G* SCF=conver=7 out=wfn||Generated by Mu
 ltiwfn (http://sobereva.com/multiwfn)||1,2|C,0,-0.927198,0.270633,0.02
 9944|C,0,0.416502,0.596591,0.133063|C,0,1.389135,-0.415708,0.153257|C,
 0,0.984829,-1.743945,0.061657|C,0,-0.368333,-2.076254,-0.036341|C,0,-1
 .329778,-1.0777,-0.05184|H,0,0.740198,1.627829,0.185283|H,0,1.727046,-
 2.535316,0.064443|H,0,-0.692591,-3.107279,-0.110361|O,0,-2.649884,-1.3
 91879,-0.154269|H,0,-3.140877,-0.559323,-0.150356|O,0,-1.973846,1.1598
 93,-0.005118|C,0,-1.683451,2.548491,0.092834|H,0,-1.059968,2.882608,-0
 .74303|H,0,-2.643675,3.060239,0.055801|H,0,-1.181165,2.781803,1.037424
 |C,0,2.848441,-0.044909,0.307622|H,0,3.078283,0.181197,1.353336|H,0,3.
 476193,-0.897512,0.015461|O,0,3.214483,1.135817,-0.405384|H,0,2.989654
 ,0.991911,-1.331006||Version=EM64W-G16RevA.03|State=2-A|HF=-536.233718
 8|S2=0.75936|S2-1=0.|S2A=0.750053|RMSD=7.831e-008|Dipole=-0.5614956,-0
 .0400723,-0.1576289|Quadrupole=3.9457751,3.6717234,-7.6174985,-8.43998
 7,-0.8267152,-0.2315294|PG=C01 [X(C8H10O3)]||@

 Writing a WFN file to "N-1.wfn"


 Everywhere is walking distance if you have the time.
                                    -- Steven Wright
 Job cpu time:       0 days  0 hours  1 minutes  0.0 seconds.
 Elapsed time:       0 days  0 hours  0 minutes 59.1 seconds.
 File lengths (MBytes):  RWF=     38 Int=      0 D2E=      0 Chk=      4 Scr=      1
 Normal termination of Gaussian 16 at Wed Dec 03 10:49:41 2025.
