 Entering Link 1 = D:\Gaussian\G16W\l1.exe PID=     36348.
  
 Copyright (c) 1988,1990,1992,1993,1995,1998,2003,2009,2016,
            Gaussian, Inc.  All Rights Reserved.
  
 This is part of the Gaussian(R) 16 program.  It is based on
 the Gaussian(R) 09 system (copyright 2009, Gaussian, Inc.),
 the Gaussian(R) 03 system (copyright 2003, Gaussian, Inc.),
 the Gaussian(R) 98 system (copyright 1998, Gaussian, Inc.),
 the Gaussian(R) 94 system (copyright 1995, Gaussian, Inc.),
 the Gaussian 92(TM) system (copyright 1992, Gaussian, Inc.),
 the Gaussian 90(TM) system (copyright 1990, Gaussian, Inc.),
 the Gaussian 88(TM) system (copyright 1988, Gaussian, Inc.),
 the Gaussian 86(TM) system (copyright 1986, Carnegie Mellon
 University), and the Gaussian 82(TM) system (copyright 1983,
 Carnegie Mellon University). Gaussian is a federally registered
 trademark of Gaussian, Inc.
  
 This software contains proprietary and confidential information,
 including trade secrets, belonging to Gaussian, Inc.
  
 This software is provided under written license and may be
 used, copied, transmitted, or stored only in accord with that
 written license.
  
 The following legend is applicable only to US Government
 contracts under FAR:
  
                    RESTRICTED RIGHTS LEGEND
  
 Use, reproduction and disclosure by the US Government is
 subject to restrictions as set forth in subparagraphs (a)
 and (c) of the Commercial Computer Software - Restricted
 Rights clause in FAR 52.227-19.
  
 Gaussian, Inc.
 340 Quinnipiac St., Bldg. 40, Wallingford CT 06492
  
  
 ---------------------------------------------------------------
 Warning -- This program may not be used in any manner that
 competes with the business of Gaussian, Inc. or will provide
 assistance to any competitor of Gaussian, Inc.  The licensee
 of this program is prohibited from giving any competitor of
 Gaussian, Inc. access to this program.  By using this program,
 the user acknowledges that Gaussian, Inc. is engaged in the
 business of creating and licensing software in the field of
 computational chemistry and represents and warrants to the
 licensee that it is not a competitor of Gaussian, Inc. and that
 it will not use this program in any manner prohibited above.
 ---------------------------------------------------------------
  

 Cite this work as:
 Gaussian 16, Revision A.03,
 M. J. Frisch, G. W. Trucks, H. B. Schlegel, G. E. Scuseria, 
 M. A. Robb, J. R. Cheeseman, G. Scalmani, V. Barone, 
 G. A. Petersson, H. Nakatsuji, X. Li, M. Caricato, A. V. Marenich, 
 J. Bloino, B. G. Janesko, R. Gomperts, B. Mennucci, H. P. Hratchian, 
 J. V. Ortiz, A. F. Izmaylov, J. L. Sonnenberg, D. Williams-Young, 
 F. Ding, F. Lipparini, F. Egidi, J. Goings, B. Peng, A. Petrone, 
 T. Henderson, D. Ranasinghe, V. G. Zakrzewski, J. Gao, N. Rega, 
 G. Zheng, W. Liang, M. Hada, M. Ehara, K. Toyota, R. Fukuda, 
 J. Hasegawa, M. Ishida, T. Nakajima, Y. Honda, O. Kitao, H. Nakai, 
 T. Vreven, K. Throssell, J. A. Montgomery, Jr., J. E. Peralta, 
 F. Ogliaro, M. J. Bearpark, J. J. Heyd, E. N. Brothers, K. N. Kudin, 
 V. N. Staroverov, T. A. Keith, R. Kobayashi, J. Normand, 
 K. Raghavachari, A. P. Rendell, J. C. Burant, S. S. Iyengar, 
 J. Tomasi, M. Cossi, J. M. Millam, M. Klene, C. Adamo, R. Cammi, 
 J. W. Ochterski, R. L. Martin, K. Morokuma, O. Farkas, 
 J. B. Foresman, and D. J. Fox, Gaussian, Inc., Wallingford CT, 2016.
 
 ******************************************
 Gaussian 16:  EM64W-G16RevA.03 17-Dec-2016
                03-Dec-2025 
 ******************************************
 %nprocs=   4
 Will use up to    4 processors via shared memory.
 ------------------------------------
 #P B3LYP/6-31G* SCF=conver=7 out=wfn
 ------------------------------------
 1/38=1,172=1/1;
 2/12=2,17=6,18=5,40=1/2;
 3/5=1,6=6,7=1,11=2,25=1,30=1,74=-5/1,2,3;
 4//1;
 5/5=2,6=7,38=5/2;
 6/7=2,8=2,9=2,10=2,28=1/1;
 99/5=1,6=100,9=1/99;
 Leave Link    1 at Wed Dec 03 10:47:15 2025, MaxMem=           0 cpu:               0.0 elap:               0.1
 (Enter D:\Gaussian\G16W\l101.exe)
 ----------------------------------------------------
 Generated by Multiwfn (http://sobereva.com/multiwfn)
 ----------------------------------------------------
 Symbolic Z-matrix:
 Charge =  0 Multiplicity = 1
 C                    -0.9272    0.27063   0.02994 
 C                     0.4165    0.59659   0.13306 
 C                     1.38914  -0.41571   0.15326 
 C                     0.98483  -1.74395   0.06166 
 C                    -0.36833  -2.07625  -0.03634 
 C                    -1.32978  -1.0777   -0.05184 
 H                     0.7402    1.62783   0.18528 
 H                     1.72705  -2.53532   0.06444 
 H                    -0.69259  -3.10728  -0.11036 
 O                    -2.64988  -1.39188  -0.15427 
 H                    -3.14088  -0.55932  -0.15036 
 O                    -1.97385   1.15989  -0.00512 
 C                    -1.68345   2.54849   0.09283 
 H                    -1.05997   2.88261  -0.74303 
 H                    -2.64368   3.06024   0.0558 
 H                    -1.18117   2.7818    1.03742 
 C                     2.84844  -0.04491   0.30762 
 H                     3.07828   0.1812    1.35334 
 H                     3.47619  -0.89751   0.01546 
 O                     3.21448   1.13582  -0.40538 
 H                     2.98965   0.99191  -1.33101 
 
 ITRead=  0  0  0  0  0  0  0  0  0  0  0  0  0  0  0  0  0  0  0  0
 ITRead=  0
 MicOpt= -1 -1 -1 -1 -1 -1 -1 -1 -1 -1 -1 -1 -1 -1 -1 -1 -1 -1 -1 -1
 MicOpt= -1
 NAtoms=     21 NQM=       21 NQMF=       0 NMMI=      0 NMMIF=      0
                NMic=       0 NMicF=      0.
                    Isotopes and Nuclear Properties:
 (Nuclear quadrupole moments (NQMom) in fm**2, nuclear magnetic moments (NMagM)
  in nuclear magnetons)

  Atom         1           2           3           4           5           6           7           8           9          10
 IAtWgt=          12          12          12          12          12          12           1           1           1          16
 AtmWgt=  12.0000000  12.0000000  12.0000000  12.0000000  12.0000000  12.0000000   1.0078250   1.0078250   1.0078250  15.9949146
 NucSpn=           0           0           0           0           0           0           1           1           1           0
 AtZEff=   0.0000000   0.0000000   0.0000000   0.0000000   0.0000000   0.0000000   0.0000000   0.0000000   0.0000000   0.0000000
 NQMom=    0.0000000   0.0000000   0.0000000   0.0000000   0.0000000   0.0000000   0.0000000   0.0000000   0.0000000   0.0000000
 NMagM=    0.0000000   0.0000000   0.0000000   0.0000000   0.0000000   0.0000000   2.7928460   2.7928460   2.7928460   0.0000000
 AtZNuc=   6.0000000   6.0000000   6.0000000   6.0000000   6.0000000   6.0000000   1.0000000   1.0000000   1.0000000   8.0000000

  Atom        11          12          13          14          15          16          17          18          19          20
 IAtWgt=           1          16          12           1           1           1          12           1           1          16
 AtmWgt=   1.0078250  15.9949146  12.0000000   1.0078250   1.0078250   1.0078250  12.0000000   1.0078250   1.0078250  15.9949146
 NucSpn=           1           0           0           1           1           1           0           1           1           0
 AtZEff=   0.0000000   0.0000000   0.0000000   0.0000000   0.0000000   0.0000000   0.0000000   0.0000000   0.0000000   0.0000000
 NQMom=    0.0000000   0.0000000   0.0000000   0.0000000   0.0000000   0.0000000   0.0000000   0.0000000   0.0000000   0.0000000
 NMagM=    2.7928460   0.0000000   0.0000000   2.7928460   2.7928460   2.7928460   0.0000000   2.7928460   2.7928460   0.0000000
 AtZNuc=   1.0000000   8.0000000   6.0000000   1.0000000   1.0000000   1.0000000   6.0000000   1.0000000   1.0000000   8.0000000

  Atom        21
 IAtWgt=           1
 AtmWgt=   1.0078250
 NucSpn=           1
 AtZEff=   0.0000000
 NQMom=    0.0000000
 NMagM=    2.7928460
 AtZNuc=   1.0000000
 Leave Link  101 at Wed Dec 03 10:47:15 2025, MaxMem=   104857600 cpu:               0.0 elap:               0.1
 (Enter D:\Gaussian\G16W\l202.exe)
                          Input orientation:                          
 ---------------------------------------------------------------------
 Center     Atomic      Atomic             Coordinates (Angstroms)
 Number     Number       Type             X           Y           Z
 ---------------------------------------------------------------------
      1          6           0       -0.927198    0.270633    0.029944
      2          6           0        0.416502    0.596591    0.133063
      3          6           0        1.389135   -0.415708    0.153257
      4          6           0        0.984829   -1.743945    0.061657
      5          6           0       -0.368333   -2.076254   -0.036341
      6          6           0       -1.329778   -1.077700   -0.051840
      7          1           0        0.740198    1.627829    0.185283
      8          1           0        1.727046   -2.535316    0.064443
      9          1           0       -0.692591   -3.107279   -0.110361
     10          8           0       -2.649884   -1.391879   -0.154269
     11          1           0       -3.140877   -0.559323   -0.150356
     12          8           0       -1.973846    1.159893   -0.005118
     13          6           0       -1.683451    2.548491    0.092834
     14          1           0       -1.059968    2.882608   -0.743030
     15          1           0       -2.643675    3.060239    0.055801
     16          1           0       -1.181165    2.781803    1.037424
     17          6           0        2.848441   -0.044909    0.307622
     18          1           0        3.078283    0.181197    1.353336
     19          1           0        3.476193   -0.897512    0.015461
     20          8           0        3.214483    1.135817   -0.405384
     21          1           0        2.989654    0.991911   -1.331006
 ---------------------------------------------------------------------
                    Distance matrix (angstroms):
                    1          2          3          4          5
     1  C    0.000000
     2  C    1.386511   0.000000
     3  C    2.419022   1.403984   0.000000
     4  C    2.777657   2.409606   1.391426   0.000000
     5  C    2.413421   2.790836   2.425295   1.396811   0.000000
     6  C    1.409525   2.426300   2.805849   2.411259   1.386264
     7  H    2.155533   1.082108   2.144339   3.382896   3.872750
     8  H    3.862583   3.395744   2.148211   1.084971   2.147442
     9  H    3.388955   3.874015   3.412863   2.168411   1.083344
    10  O    2.401151   3.665965   4.166672   3.658102   2.384901
    11  H    2.371015   3.751188   4.542446   4.297642   3.162448
    12  O    1.373858   2.459709   3.717155   4.146142   3.612658
    13  C    2.400940   2.867287   4.269767   5.054275   4.809832
    14  H    2.727184   2.858912   4.204798   5.121885   5.056489
    15  H    3.275494   3.929404   5.324966   6.020487   5.618650
    16  H    2.717626   2.854043   4.196698   5.111364   5.041268
    17  C    3.798963   2.521174   1.513570   2.533826   3.819988
    18  H    4.219389   2.957481   2.156318   3.123645   4.348155
    19  H    4.555724   3.407034   2.146377   2.631630   4.021504
    20  O    4.253419   2.899894   2.459920   3.671854   4.825988
    21  H    4.208819   2.986785   2.597323   3.666571   4.729257
                    6          7          8          9         10
     6  C    0.000000
     7  H    3.414808   0.000000
     8  H    3.388560   4.280216   0.000000
     9  H    2.128056   4.955960   2.492457   0.000000
    10  O    1.360838   4.552646   4.529106   2.602983   0.000000
    11  H    1.886399   4.467553   5.258076   3.533806   0.966560
    12  O    2.328912   2.760661   5.230297   4.456618   2.644015
    13  C    3.646269   2.594271   6.121878   5.745505   4.064673
    14  H    4.029216   2.382611   6.146004   6.034400   4.598447
    15  H    4.342862   3.676841   7.100247   6.470905   4.457076
    16  H    4.013022   2.397798   6.138089   6.019751   4.582236
    17  C    4.318956   2.694013   2.742041   4.700184   5.679723
    18  H    4.794825   2.987262   3.296442   5.213058   6.128567
    19  H    4.809819   3.727178   2.396730   4.719922   6.148335
    20  O    5.067046   2.590955   3.988787   5.775477   6.390861
    21  H    4.957524   2.786319   3.997848   5.643781   6.234706
                   11         12         13         14         15
    11  H    0.000000
    12  O    2.082969   0.000000
    13  C    3.441183   1.422016   0.000000
    14  H    4.065505   2.085050   1.095004   0.000000
    15  H    3.659363   2.015861   1.088709   1.782642   0.000000
    16  H    4.051471   2.084665   1.094978   1.787419   1.783268
    17  C    6.028789   4.980342   5.225888   4.994986   6.314166
    18  H    6.441072   5.322335   5.465076   5.368193   6.535540
    19  H    6.627781   5.825484   6.205066   5.953266   7.288224
    20  O    6.582487   5.203802   5.121877   4.629926   6.183373
    21  H    6.433014   5.140285   5.127199   4.507759   6.159189
                   16         17         18         19         20
    16  H    0.000000
    17  C    4.976006   0.000000
    18  H    5.000585   1.094289   0.000000
    19  H    6.022686   1.098345   1.764045   0.000000
    20  O    4.910467   1.427052   2.005728   2.092852   0.000000
    21  H    5.119463   1.944232   2.805495   2.370572   0.963345
                   21
    21  H    0.000000
 Stoichiometry    C8H10O3
 Framework group  C1[X(C8H10O3)]
 Deg. of freedom    57
 Full point group                 C1      NOp   1
 Largest Abelian subgroup         C1      NOp   1
 Largest concise Abelian subgroup C1      NOp   1
                         Standard orientation:                         
 ---------------------------------------------------------------------
 Center     Atomic      Atomic             Coordinates (Angstroms)
 Number     Number       Type             X           Y           Z
 ---------------------------------------------------------------------
      1          6           0       -0.927198    0.270633    0.029944
      2          6           0        0.416502    0.596591    0.133063
      3          6           0        1.389135   -0.415708    0.153257
      4          6           0        0.984829   -1.743945    0.061657
      5          6           0       -0.368333   -2.076254   -0.036341
      6          6           0       -1.329778   -1.077700   -0.051840
      7          1           0        0.740198    1.627829    0.185283
      8          1           0        1.727046   -2.535316    0.064443
      9          1           0       -0.692591   -3.107279   -0.110361
     10          8           0       -2.649884   -1.391879   -0.154269
     11          1           0       -3.140877   -0.559323   -0.150356
     12          8           0       -1.973846    1.159893   -0.005118
     13          6           0       -1.683451    2.548491    0.092834
     14          1           0       -1.059968    2.882608   -0.743030
     15          1           0       -2.643675    3.060239    0.055801
     16          1           0       -1.181165    2.781803    1.037424
     17          6           0        2.848441   -0.044909    0.307622
     18          1           0        3.078283    0.181197    1.353336
     19          1           0        3.476193   -0.897512    0.015461
     20          8           0        3.214483    1.135817   -0.405384
     21          1           0        2.989654    0.991911   -1.331006
 ---------------------------------------------------------------------
 Rotational constants (GHZ):           1.5962078           0.8334941           0.5599398
 Leave Link  202 at Wed Dec 03 10:47:15 2025, MaxMem=   104857600 cpu:               0.0 elap:               0.1
 (Enter D:\Gaussian\G16W\l301.exe)
 Standard basis: 6-31G(d) (6D, 7F)
 Ernie: Thresh=  0.10000D-02 Tol=  0.10000D-05 Strict=F.
 There are   185 symmetry adapted cartesian basis functions of A   symmetry.
 There are   185 symmetry adapted basis functions of A   symmetry.
   185 basis functions,   348 primitive gaussians,   185 cartesian basis functions
    41 alpha electrons       41 beta electrons
       nuclear repulsion energy       607.6458861871 Hartrees.
 IExCor=  402 DFT=T Ex+Corr=B3LYP ExCW=0 ScaHFX=  0.200000
 ScaDFX=  0.800000  0.720000  1.000000  0.810000 ScalE2=  1.000000  1.000000
 IRadAn=      5 IRanWt=     -1 IRanGd=            0 ICorTp=0 IEmpDi=  4
 NAtoms=   21 NActive=   21 NUniq=   21 SFac= 1.00D+00 NAtFMM=   60 NAOKFM=F Big=F
 Integral buffers will be    131072 words long.
 Raffenetti 2 integral format.
 Two-electron integral symmetry is turned on.
 Leave Link  301 at Wed Dec 03 10:47:15 2025, MaxMem=   104857600 cpu:               0.0 elap:               0.1
 (Enter D:\Gaussian\G16W\l302.exe)
 NPDir=0 NMtPBC=     1 NCelOv=     1 NCel=       1 NClECP=     1 NCelD=      1
         NCelK=      1 NCelE2=     1 NClLst=     1 CellRange=     0.0.
 One-electron integrals computed using PRISM.
 One-electron integral symmetry used in STVInt
 NBasis=   185 RedAO= T EigKep=  3.77D-04  NBF=   185
 NBsUse=   185 1.00D-06 EigRej= -1.00D+00 NBFU=   185
 Precomputing XC quadrature grid using
 IXCGrd= 4 IRadAn=           5 IRanWt=          -1 IRanGd=           0 AccXCQ= 0.00D+00.
 Generated NRdTot=       0 NPtTot=           0 NUsed=           0 NTot=          32
 NSgBfM=   184   184   184   184   184 MxSgAt=    21 MxSgA2=    21.
 Leave Link  302 at Wed Dec 03 10:47:15 2025, MaxMem=   104857600 cpu:               0.0 elap:               0.4
 (Enter D:\Gaussian\G16W\l303.exe)
 DipDrv:  MaxL=1.
 Leave Link  303 at Wed Dec 03 10:47:15 2025, MaxMem=   104857600 cpu:               0.0 elap:               0.1
 (Enter D:\Gaussian\G16W\l401.exe)
 ExpMin= 1.61D-01 ExpMax= 5.48D+03 ExpMxC= 8.25D+02 IAcc=3 IRadAn=         5 AccDes= 0.00D+00
 Harris functional with IExCor=  402 and IRadAn=       5 diagonalized for initial guess.
 HarFok:  IExCor=  402 AccDes= 0.00D+00 IRadAn=         5 IDoV= 1 UseB2=F ITyADJ=14
 ICtDFT=  3500011 ScaDFX=  1.000000  1.000000  1.000000  1.000000
 FoFCou: FMM=F IPFlag=           0 FMFlag=      100000 FMFlg1=           0
         NFxFlg=           0 DoJE=T BraDBF=F KetDBF=T FulRan=T
         wScrn=  0.000000 ICntrl=       500 IOpCl=  0 I1Cent=   200000004 NGrid=           0
         NMat0=    1 NMatS0=      1 NMatT0=    0 NMatD0=    1 NMtDS0=    0 NMtDT0=    0
 Petite list used in FoFCou.
 Harris En= -536.534226461710    
 JPrj=0 DoOrth=F DoCkMO=F.
 Leave Link  401 at Wed Dec 03 10:47:17 2025, MaxMem=   104857600 cpu:               2.0 elap:               1.4
 (Enter D:\Gaussian\G16W\l502.exe)
 Integral symmetry usage will be decided dynamically.
 Closed shell SCF:
 Using DIIS extrapolation, IDIIS=  1040.
 NGot=   104857600 LenX=   104785858 LenY=   104751192
 Requested convergence on RMS density matrix=1.00D-07 within 128 cycles.
 Requested convergence on MAX density matrix=1.00D-05.
 Requested convergence on             energy=1.00D-05.
 No special actions if energy rises.
 Fock matrices will be formed incrementally for  20 cycles.
 Integral accuracy reduced to 1.0D-05 until final iterations.

 Cycle   1  Pass 0  IDiag  1:
 FoFJK:  IHMeth= 1 ICntrl=       0 DoSepK=F KAlg= 0 I1Cent=           0 FoldK=F
 IRaf= 910000000 NMat=       1 IRICut=       1 DoRegI=T DoRafI=F ISym2E= 0 IDoP0=0 IntGTp=1.
 FoFCou: FMM=F IPFlag=           0 FMFlag=      100000 FMFlg1=           0
         NFxFlg=           0 DoJE=F BraDBF=F KetDBF=F FulRan=T
         wScrn=  0.000000 ICntrl=         0 IOpCl=  0 I1Cent=           0 NGrid=           0
         NMat0=    1 NMatS0=      1 NMatT0=    0 NMatD0=    1 NMtDS0=    0 NMtDT0=    0
 Symmetry not used in FoFCou.
 E= -536.261783145252    
 DIIS: error= 2.86D-02 at cycle   1 NSaved=   1.
 NSaved= 1 IEnMin= 1 EnMin= -536.261783145252     IErMin= 1 ErrMin= 2.86D-02
 ErrMax= 2.86D-02  0.00D+00 EMaxC= 1.00D-01 BMatC= 2.64D-01 BMatP= 2.64D-01
 IDIUse=3 WtCom= 7.14D-01 WtEn= 2.86D-01
 Coeff-Com:  0.100D+01
 Coeff-En:   0.100D+01
 Coeff:      0.100D+01
 Gap=     0.229 Goal=   None    Shift=    0.000
 GapD=    0.229 DampG=1.000 DampE=0.500 DampFc=0.5000 IDamp=-1.
 Damping current iteration by 5.00D-01
 RMSDP=6.22D-03 MaxDP=1.28D-01              OVMax= 2.02D-01

 Cycle   2  Pass 0  IDiag  1:
 RMSU=  3.08D-03    CP:  9.82D-01
 E= -536.371663760391     Delta-E=       -0.109880615139 Rises=F Damp=T
 DIIS: error= 7.51D-03 at cycle   2 NSaved=   2.
 NSaved= 2 IEnMin= 2 EnMin= -536.371663760391     IErMin= 2 ErrMin= 7.51D-03
 ErrMax= 7.51D-03  0.00D+00 EMaxC= 1.00D-01 BMatC= 1.80D-02 BMatP= 2.64D-01
 IDIUse=3 WtCom= 9.25D-01 WtEn= 7.51D-02
 Coeff-Com:  0.697D-01 0.930D+00
 Coeff-En:   0.108D+00 0.892D+00
 Coeff:      0.726D-01 0.927D+00
 Gap=     0.232 Goal=   None    Shift=    0.000
 RMSDP=1.62D-03 MaxDP=4.45D-02 DE=-1.10D-01 OVMax= 1.65D-01

 Cycle   3  Pass 0  IDiag  1:
 RMSU=  1.57D-03    CP:  9.75D-01  8.74D-01
 E= -536.496867984096     Delta-E=       -0.125204223705 Rises=F Damp=F
 DIIS: error= 6.62D-03 at cycle   3 NSaved=   3.
 NSaved= 3 IEnMin= 3 EnMin= -536.496867984096     IErMin= 3 ErrMin= 6.62D-03
 ErrMax= 6.62D-03  0.00D+00 EMaxC= 1.00D-01 BMatC= 1.42D-02 BMatP= 1.80D-02
 IDIUse=3 WtCom= 9.34D-01 WtEn= 6.62D-02
 Coeff-Com: -0.124D-01 0.467D+00 0.545D+00
 Coeff-En:   0.000D+00 0.000D+00 0.100D+01
 Coeff:     -0.115D-01 0.436D+00 0.575D+00
 Gap=     0.215 Goal=   None    Shift=    0.000
 RMSDP=1.03D-03 MaxDP=3.45D-02 DE=-1.25D-01 OVMax= 7.52D-02

 Cycle   4  Pass 0  IDiag  1:
 RMSU=  6.96D-04    CP:  9.77D-01  9.33D-01  5.29D-01
 E= -536.507321630391     Delta-E=       -0.010453646294 Rises=F Damp=F
 DIIS: error= 3.99D-03 at cycle   4 NSaved=   4.
 NSaved= 4 IEnMin= 4 EnMin= -536.507321630391     IErMin= 4 ErrMin= 3.99D-03
 ErrMax= 3.99D-03  0.00D+00 EMaxC= 1.00D-01 BMatC= 3.76D-03 BMatP= 1.42D-02
 IDIUse=3 WtCom= 9.60D-01 WtEn= 3.99D-02
 Coeff-Com: -0.116D-01 0.103D+00 0.354D+00 0.555D+00
 Coeff-En:   0.000D+00 0.000D+00 0.252D+00 0.748D+00
 Coeff:     -0.111D-01 0.986D-01 0.350D+00 0.562D+00
 Gap=     0.210 Goal=   None    Shift=    0.000
 RMSDP=4.40D-04 MaxDP=1.20D-02 DE=-1.05D-02 OVMax= 3.15D-02

 Cycle   5  Pass 0  IDiag  1:
 RMSU=  1.72D-04    CP:  9.76D-01  9.18D-01  6.96D-01  5.62D-01
 E= -536.511107575883     Delta-E=       -0.003785945493 Rises=F Damp=F
 DIIS: error= 7.63D-04 at cycle   5 NSaved=   5.
 NSaved= 5 IEnMin= 5 EnMin= -536.511107575883     IErMin= 5 ErrMin= 7.63D-04
 ErrMax= 7.63D-04  0.00D+00 EMaxC= 1.00D-01 BMatC= 3.04D-04 BMatP= 3.76D-03
 IDIUse=3 WtCom= 9.92D-01 WtEn= 7.63D-03
 Coeff-Com: -0.442D-02 0.267D-01 0.169D+00 0.334D+00 0.475D+00
 Coeff-En:   0.000D+00 0.000D+00 0.000D+00 0.000D+00 0.100D+01
 Coeff:     -0.438D-02 0.265D-01 0.168D+00 0.331D+00 0.479D+00
 Gap=     0.211 Goal=   None    Shift=    0.000
 RMSDP=1.16D-04 MaxDP=2.83D-03 DE=-3.79D-03 OVMax= 6.50D-03

 Cycle   6  Pass 0  IDiag  1:
 RMSU=  6.63D-05    CP:  9.76D-01  9.22D-01  6.81D-01  6.02D-01  4.98D-01
 E= -536.511371134092     Delta-E=       -0.000263558209 Rises=F Damp=F
 DIIS: error= 1.75D-04 at cycle   6 NSaved=   6.
 NSaved= 6 IEnMin= 6 EnMin= -536.511371134092     IErMin= 6 ErrMin= 1.75D-04
 ErrMax= 1.75D-04  0.00D+00 EMaxC= 1.00D-01 BMatC= 1.56D-05 BMatP= 3.04D-04
 IDIUse=3 WtCom= 9.98D-01 WtEn= 1.75D-03
 Coeff-Com: -0.631D-03 0.207D-03 0.371D-01 0.886D-01 0.235D+00 0.639D+00
 Coeff-En:   0.000D+00 0.000D+00 0.000D+00 0.000D+00 0.000D+00 0.100D+01
 Coeff:     -0.630D-03 0.207D-03 0.370D-01 0.885D-01 0.235D+00 0.640D+00
 Gap=     0.211 Goal=   None    Shift=    0.000
 RMSDP=2.65D-05 MaxDP=5.78D-04 DE=-2.64D-04 OVMax= 1.19D-03

 Cycle   7  Pass 0  IDiag  1:
 RMSU=  1.15D-05    CP:  9.76D-01  9.21D-01  6.84D-01  6.09D-01  5.58D-01
                    CP:  7.00D-01
 E= -536.511384515214     Delta-E=       -0.000013381122 Rises=F Damp=F
 DIIS: error= 4.13D-05 at cycle   7 NSaved=   7.
 NSaved= 7 IEnMin= 7 EnMin= -536.511384515214     IErMin= 7 ErrMin= 4.13D-05
 ErrMax= 4.13D-05  0.00D+00 EMaxC= 1.00D-01 BMatC= 6.67D-07 BMatP= 1.56D-05
 IDIUse=1 WtCom= 1.00D+00 WtEn= 0.00D+00
 Coeff-Com: -0.174D-03-0.611D-03 0.158D-01 0.387D-01 0.114D+00 0.331D+00
 Coeff-Com:  0.501D+00
 Coeff:     -0.174D-03-0.611D-03 0.158D-01 0.387D-01 0.114D+00 0.331D+00
 Coeff:      0.501D+00
 Gap=     0.211 Goal=   None    Shift=    0.000
 RMSDP=6.73D-06 MaxDP=1.83D-04 DE=-1.34D-05 OVMax= 5.04D-04

 Initial convergence to 1.0D-05 achieved.  Increase integral accuracy.
 Cycle   8  Pass 1  IDiag  1:
 E= -536.511370645482     Delta-E=        0.000013869732 Rises=F Damp=F
 DIIS: error= 1.72D-05 at cycle   1 NSaved=   1.
 NSaved= 1 IEnMin= 1 EnMin= -536.511370645482     IErMin= 1 ErrMin= 1.72D-05
 ErrMax= 1.72D-05  0.00D+00 EMaxC= 1.00D-01 BMatC= 1.45D-07 BMatP= 1.45D-07
 IDIUse=1 WtCom= 1.00D+00 WtEn= 0.00D+00
 Coeff-Com:  0.100D+01
 Coeff:      0.100D+01
 Gap=     0.211 Goal=   None    Shift=    0.000
 RMSDP=6.73D-06 MaxDP=1.83D-04 DE= 1.39D-05 OVMax= 4.68D-04

 Cycle   9  Pass 1  IDiag  1:
 RMSU=  9.53D-06    CP:  1.00D+00
 E= -536.511370344119     Delta-E=        0.000000301363 Rises=F Damp=F
 DIIS: error= 3.32D-05 at cycle   2 NSaved=   2.
 NSaved= 2 IEnMin= 1 EnMin= -536.511370645482     IErMin= 1 ErrMin= 1.72D-05
 ErrMax= 3.32D-05  0.00D+00 EMaxC= 1.00D-01 BMatC= 4.09D-07 BMatP= 1.45D-07
 IDIUse=1 WtCom= 1.00D+00 WtEn= 0.00D+00
 Coeff-Com:  0.635D+00 0.365D+00
 Coeff:      0.635D+00 0.365D+00
 Gap=     0.211 Goal=   None    Shift=    0.000
 RMSDP=4.23D-06 MaxDP=1.11D-04 DE= 3.01D-07 OVMax= 3.38D-04

 Cycle  10  Pass 1  IDiag  1:
 RMSU=  3.26D-06    CP:  1.00D+00  7.18D-01
 E= -536.511370785197     Delta-E=       -0.000000441079 Rises=F Damp=F
 DIIS: error= 4.03D-06 at cycle   3 NSaved=   3.
 NSaved= 3 IEnMin= 3 EnMin= -536.511370785197     IErMin= 3 ErrMin= 4.03D-06
 ErrMax= 4.03D-06  0.00D+00 EMaxC= 1.00D-01 BMatC= 4.36D-09 BMatP= 1.45D-07
 IDIUse=1 WtCom= 1.00D+00 WtEn= 0.00D+00
 Coeff-Com:  0.768D-01 0.110D+00 0.813D+00
 Coeff:      0.768D-01 0.110D+00 0.813D+00
 Gap=     0.211 Goal=   None    Shift=    0.000
 RMSDP=5.91D-07 MaxDP=1.51D-05 DE=-4.41D-07 OVMax= 3.66D-05

 Cycle  11  Pass 1  IDiag  1:
 RMSU=  4.01D-07    CP:  1.00D+00  7.51D-01  9.07D-01
 E= -536.511370788325     Delta-E=       -0.000000003127 Rises=F Damp=F
 DIIS: error= 1.61D-06 at cycle   4 NSaved=   4.
 NSaved= 4 IEnMin= 4 EnMin= -536.511370788325     IErMin= 4 ErrMin= 1.61D-06
 ErrMax= 1.61D-06  0.00D+00 EMaxC= 1.00D-01 BMatC= 2.01D-09 BMatP= 4.36D-09
 IDIUse=1 WtCom= 1.00D+00 WtEn= 0.00D+00
 Coeff-Com:  0.174D-02 0.427D-01 0.512D+00 0.444D+00
 Coeff:      0.174D-02 0.427D-01 0.512D+00 0.444D+00
 Gap=     0.211 Goal=   None    Shift=    0.000
 RMSDP=2.53D-07 MaxDP=6.14D-06 DE=-3.13D-09 OVMax= 1.23D-05

 Cycle  12  Pass 1  IDiag  1:
 RMSU=  1.25D-07    CP:  1.00D+00  7.50D-01  9.23D-01  4.64D-01
 E= -536.511370789983     Delta-E=       -0.000000001658 Rises=F Damp=F
 DIIS: error= 4.58D-07 at cycle   5 NSaved=   5.
 NSaved= 5 IEnMin= 5 EnMin= -536.511370789983     IErMin= 5 ErrMin= 4.58D-07
 ErrMax= 4.58D-07  0.00D+00 EMaxC= 1.00D-01 BMatC= 4.42D-11 BMatP= 2.01D-09
 IDIUse=1 WtCom= 1.00D+00 WtEn= 0.00D+00
 Coeff-Com: -0.353D-02 0.137D-01 0.195D+00 0.215D+00 0.581D+00
 Coeff:     -0.353D-02 0.137D-01 0.195D+00 0.215D+00 0.581D+00
 Gap=     0.211 Goal=   None    Shift=    0.000
 RMSDP=5.78D-08 MaxDP=1.43D-06 DE=-1.66D-09 OVMax= 3.68D-06

 SCF Done:  E(RB3LYP) =  -536.511370790     A.U. after   12 cycles
            NFock= 12  Conv=0.58D-07     -V/T= 2.0090
 KE= 5.317518518475D+02 PE=-2.467357360729D+03 EE= 7.914482519043D+02
 Leave Link  502 at Wed Dec 03 10:47:33 2025, MaxMem=   104857600 cpu:              16.0 elap:              16.6
 (Enter D:\Gaussian\G16W\l601.exe)
 Copying SCF densities to generalized density rwf, IOpCl= 0 IROHF=0.

 **********************************************************************

            Population analysis using the SCF density.

 **********************************************************************

 Orbital symmetries:
       Occupied  (A) (A) (A) (A) (A) (A) (A) (A) (A) (A) (A) (A)
                 (A) (A) (A) (A) (A) (A) (A) (A) (A) (A) (A) (A)
                 (A) (A) (A) (A) (A) (A) (A) (A) (A) (A) (A) (A)
                 (A) (A) (A) (A) (A)
       Virtual   (A) (A) (A) (A) (A) (A) (A) (A) (A) (A) (A) (A)
                 (A) (A) (A) (A) (A) (A) (A) (A) (A) (A) (A) (A)
                 (A) (A) (A) (A) (A) (A) (A) (A) (A) (A) (A) (A)
                 (A) (A) (A) (A) (A) (A) (A) (A) (A) (A) (A) (A)
                 (A) (A) (A) (A) (A) (A) (A) (A) (A) (A) (A) (A)
                 (A) (A) (A) (A) (A) (A) (A) (A) (A) (A) (A) (A)
                 (A) (A) (A) (A) (A) (A) (A) (A) (A) (A) (A) (A)
                 (A) (A) (A) (A) (A) (A) (A) (A) (A) (A) (A) (A)
                 (A) (A) (A) (A) (A) (A) (A) (A) (A) (A) (A) (A)
                 (A) (A) (A) (A) (A) (A) (A) (A) (A) (A) (A) (A)
                 (A) (A) (A) (A) (A) (A) (A) (A) (A) (A) (A) (A)
                 (A) (A) (A) (A) (A) (A) (A) (A) (A) (A) (A) (A)
 The electronic state is 1-A.
 Alpha  occ. eigenvalues --  -19.18984 -19.16976 -19.14344 -10.24920 -10.24541
 Alpha  occ. eigenvalues --  -10.24244 -10.23132 -10.18666 -10.18585 -10.18320
 Alpha  occ. eigenvalues --  -10.18182  -1.07912  -1.04690  -1.01607  -0.84919
 Alpha  occ. eigenvalues --   -0.76320  -0.74978  -0.70918  -0.66883  -0.60815
 Alpha  occ. eigenvalues --   -0.59083  -0.55247  -0.52183  -0.50409  -0.48363
 Alpha  occ. eigenvalues --   -0.47757  -0.44773  -0.43432  -0.43279  -0.42330
 Alpha  occ. eigenvalues --   -0.40570  -0.40333  -0.38056  -0.34943  -0.34537
 Alpha  occ. eigenvalues --   -0.34267  -0.32491  -0.31576  -0.27180  -0.23580
 Alpha  occ. eigenvalues --   -0.20424
 Alpha virt. eigenvalues --    0.00646   0.01456   0.07855   0.08792   0.09971
 Alpha virt. eigenvalues --    0.11968   0.13430   0.14555   0.15298   0.15540
 Alpha virt. eigenvalues --    0.16492   0.17122   0.19006   0.19321   0.21584
 Alpha virt. eigenvalues --    0.24680   0.26283   0.28558   0.33497   0.34584
 Alpha virt. eigenvalues --    0.35377   0.40176   0.48486   0.49829   0.51057
 Alpha virt. eigenvalues --    0.51732   0.54130   0.54413   0.55339   0.56447
 Alpha virt. eigenvalues --    0.58095   0.59993   0.60449   0.62161   0.63014
 Alpha virt. eigenvalues --    0.64031   0.65499   0.68625   0.70005   0.71649
 Alpha virt. eigenvalues --    0.73295   0.75615   0.75714   0.78515   0.81087
 Alpha virt. eigenvalues --    0.82553   0.83766   0.84805   0.85634   0.88004
 Alpha virt. eigenvalues --    0.90054   0.90771   0.91642   0.92808   0.94664
 Alpha virt. eigenvalues --    0.95459   0.97736   0.98744   1.01157   1.03151
 Alpha virt. eigenvalues --    1.04928   1.06936   1.07628   1.09848   1.13399
 Alpha virt. eigenvalues --    1.14486   1.18829   1.23125   1.24169   1.25408
 Alpha virt. eigenvalues --    1.29114   1.32521   1.34930   1.35699   1.40074
 Alpha virt. eigenvalues --    1.40920   1.42755   1.45229   1.49261   1.51064
 Alpha virt. eigenvalues --    1.52529   1.60885   1.66570   1.68332   1.71919
 Alpha virt. eigenvalues --    1.73219   1.75233   1.76891   1.80343   1.81837
 Alpha virt. eigenvalues --    1.87012   1.87596   1.89552   1.91288   1.94318
 Alpha virt. eigenvalues --    1.95571   1.97568   2.02292   2.02879   2.06620
 Alpha virt. eigenvalues --    2.07209   2.11071   2.12434   2.12974   2.14096
 Alpha virt. eigenvalues --    2.21838   2.23675   2.24294   2.28940   2.29937
 Alpha virt. eigenvalues --    2.31443   2.32920   2.36863   2.39341   2.44367
 Alpha virt. eigenvalues --    2.45296   2.47716   2.49009   2.58235   2.59497
 Alpha virt. eigenvalues --    2.62394   2.66839   2.67944   2.69733   2.76979
 Alpha virt. eigenvalues --    2.82401   2.85226   2.90693   2.91674   2.96459
 Alpha virt. eigenvalues --    3.04812   3.24017   3.44828   3.75444   3.93949
 Alpha virt. eigenvalues --    4.09990   4.10725   4.19102   4.20279   4.29426
 Alpha virt. eigenvalues --    4.34467   4.41812   4.56213   4.94495
          Condensed to atoms (all electrons):
               1          2          3          4          5          6
     1  C    4.810516   0.410020  -0.002641  -0.044034  -0.048202   0.437772
     2  C    0.410020   5.262733   0.469393  -0.047572  -0.046943  -0.036693
     3  C   -0.002641   0.469393   4.820555   0.530547  -0.017852  -0.033812
     4  C   -0.044034  -0.047572   0.530547   4.994960   0.502150  -0.020232
     5  C   -0.048202  -0.046943  -0.017852   0.502150   4.959687   0.563134
     6  C    0.437772  -0.036693  -0.033812  -0.020232   0.563134   4.594334
     7  H   -0.043626   0.345568  -0.041027   0.006475   0.000414   0.003018
     8  H    0.000347   0.007314  -0.046181   0.354963  -0.045206   0.004417
     9  H    0.007548   0.000078   0.003955  -0.041468   0.345532  -0.035245
    10  O   -0.064951   0.005420  -0.000047   0.003393  -0.055160   0.303558
    11  H   -0.013212   0.001536  -0.000107  -0.000125   0.005264  -0.036397
    12  O    0.244580  -0.065174   0.003322   0.000274   0.003526  -0.053595
    13  C   -0.040496  -0.003845   0.000272   0.000012  -0.000150   0.004288
    14  H   -0.004412   0.005199  -0.000046  -0.000001  -0.000007  -0.000226
    15  H    0.002974   0.000226   0.000002   0.000000   0.000006   0.000014
    16  H   -0.003714   0.005069  -0.000153  -0.000010  -0.000004  -0.000176
    17  C    0.003952  -0.058927   0.348331  -0.044828   0.005345   0.000455
    18  H   -0.000235  -0.008516  -0.028980   0.001885  -0.000247   0.000030
    19  H    0.000034   0.008174  -0.053242  -0.004945   0.000022  -0.000001
    20  O    0.000889   0.002180  -0.054218   0.002030  -0.000064   0.000009
    21  H   -0.000288  -0.000955   0.005502   0.001028  -0.000051  -0.000021
               7          8          9         10         11         12
     1  C   -0.043626   0.000347   0.007548  -0.064951  -0.013212   0.244580
     2  C    0.345568   0.007314   0.000078   0.005420   0.001536  -0.065174
     3  C   -0.041027  -0.046181   0.003955  -0.000047  -0.000107   0.003322
     4  C    0.006475   0.354963  -0.041468   0.003393  -0.000125   0.000274
     5  C    0.000414  -0.045206   0.345532  -0.055160   0.005264   0.003526
     6  C    0.003018   0.004417  -0.035245   0.303558  -0.036397  -0.053595
     7  H    0.577643  -0.000164   0.000016  -0.000043  -0.000007  -0.006753
     8  H   -0.000164   0.610664  -0.005959  -0.000053   0.000005   0.000002
     9  H    0.000016  -0.005959   0.589254  -0.001385  -0.000323  -0.000058
    10  O   -0.000043  -0.000053  -0.001385   8.227640   0.245286  -0.011889
    11  H   -0.000007   0.000005  -0.000323   0.245286   0.346124   0.029152
    12  O   -0.006753   0.000002  -0.000058  -0.011889   0.029152   8.266756
    13  C    0.006030   0.000000   0.000003   0.000256  -0.001293   0.246031
    14  H    0.001339   0.000000   0.000000  -0.000018   0.000106  -0.035410
    15  H   -0.000078   0.000000   0.000000   0.000008  -0.000139  -0.032664
    16  H    0.001418   0.000000   0.000000  -0.000018   0.000104  -0.035461
    17  C   -0.012039  -0.009091  -0.000135   0.000000   0.000000  -0.000043
    18  H    0.000325   0.000215   0.000003   0.000000   0.000000   0.000000
    19  H    0.000551   0.008077  -0.000003   0.000000   0.000000   0.000000
    20  O    0.015674   0.000036   0.000000   0.000000   0.000000   0.000000
    21  H   -0.000608   0.000010   0.000000   0.000000   0.000000   0.000001
              13         14         15         16         17         18
     1  C   -0.040496  -0.004412   0.002974  -0.003714   0.003952  -0.000235
     2  C   -0.003845   0.005199   0.000226   0.005069  -0.058927  -0.008516
     3  C    0.000272  -0.000046   0.000002  -0.000153   0.348331  -0.028980
     4  C    0.000012  -0.000001   0.000000  -0.000010  -0.044828   0.001885
     5  C   -0.000150  -0.000007   0.000006  -0.000004   0.005345  -0.000247
     6  C    0.004288  -0.000226   0.000014  -0.000176   0.000455   0.000030
     7  H    0.006030   0.001339  -0.000078   0.001418  -0.012039   0.000325
     8  H    0.000000   0.000000   0.000000   0.000000  -0.009091   0.000215
     9  H    0.000003   0.000000   0.000000   0.000000  -0.000135   0.000003
    10  O    0.000256  -0.000018   0.000008  -0.000018   0.000000   0.000000
    11  H   -0.001293   0.000106  -0.000139   0.000104   0.000000   0.000000
    12  O    0.246031  -0.035410  -0.032664  -0.035461  -0.000043   0.000000
    13  C    4.882746   0.366756   0.385269   0.366903  -0.000009  -0.000001
    14  H    0.366756   0.586711  -0.031649  -0.047477  -0.000012  -0.000001
    15  H    0.385269  -0.031649   0.536563  -0.031037   0.000000   0.000000
    16  H    0.366903  -0.047477  -0.031037   0.583412   0.000015   0.000004
    17  C   -0.000009  -0.000012   0.000000   0.000015   4.914065   0.367618
    18  H   -0.000001  -0.000001   0.000000   0.000004   0.367618   0.585755
    19  H    0.000000   0.000000   0.000000   0.000000   0.357650  -0.044619
    20  O   -0.000008  -0.000003   0.000000  -0.000003   0.257846  -0.042004
    21  H   -0.000002   0.000005   0.000000   0.000000  -0.034911   0.008398
              19         20         21
     1  C    0.000034   0.000889  -0.000288
     2  C    0.008174   0.002180  -0.000955
     3  C   -0.053242  -0.054218   0.005502
     4  C   -0.004945   0.002030   0.001028
     5  C    0.000022  -0.000064  -0.000051
     6  C   -0.000001   0.000009  -0.000021
     7  H    0.000551   0.015674  -0.000608
     8  H    0.008077   0.000036   0.000010
     9  H   -0.000003   0.000000   0.000000
    10  O    0.000000   0.000000   0.000000
    11  H    0.000000   0.000000   0.000000
    12  O    0.000000   0.000000   0.000001
    13  C    0.000000  -0.000008  -0.000002
    14  H    0.000000  -0.000003   0.000005
    15  H    0.000000   0.000000   0.000000
    16  H    0.000000  -0.000003   0.000000
    17  C    0.357650   0.257846  -0.034911
    18  H   -0.044619  -0.042004   0.008398
    19  H    0.637572  -0.032449  -0.006037
    20  O   -0.032449   8.231368   0.232003
    21  H   -0.006037   0.232003   0.408047
 Mulliken charges:
               1
     1  C    0.347178
     2  C   -0.254284
     3  C    0.096424
     4  C   -0.194501
     5  C   -0.171195
     6  C    0.305369
     7  H    0.145872
     8  H    0.120603
     9  H    0.138188
    10  O   -0.651999
    11  H    0.424027
    12  O   -0.552597
    13  C   -0.212761
    14  H    0.159145
    15  H    0.170506
    16  H    0.161128
    17  C   -0.095283
    18  H    0.160371
    19  H    0.129216
    20  O   -0.613286
    21  H    0.387879
 Sum of Mulliken charges =   0.00000
 Mulliken charges with hydrogens summed into heavy atoms:
               1
     1  C    0.347178
     2  C   -0.108412
     3  C    0.096424
     4  C   -0.073898
     5  C   -0.033007
     6  C    0.305369
    10  O   -0.227972
    12  O   -0.552597
    13  C    0.278018
    17  C    0.194304
    20  O   -0.225407
 Electronic spatial extent (au):  <R**2>=           1957.6106
 Charge=              0.0000 electrons
 Dipole moment (field-independent basis, Debye):
    X=             -0.5816    Y=              1.5437    Z=             -0.5291  Tot=              1.7324
 Quadrupole moment (field-independent basis, Debye-Ang):
   XX=            -66.0177   YY=            -59.7855   ZZ=            -63.0750
   XY=            -10.7774   XZ=             -1.8498   YZ=             -0.4884
 Traceless Quadrupole moment (field-independent basis, Debye-Ang):
   XX=             -3.0583   YY=              3.1739   ZZ=             -0.1156
   XY=            -10.7774   XZ=             -1.8498   YZ=             -0.4884
 Octapole moment (field-independent basis, Debye-Ang**2):
  XXX=            -35.6960  YYY=             16.9792  ZZZ=             -6.6805  XYY=             -9.8698
  XXY=             -1.0681  XXZ=             -5.0380  XZZ=              7.3166  YZZ=              8.8720
  YYZ=             -0.9883  XYZ=             -1.8303
 Hexadecapole moment (field-independent basis, Debye-Ang**3):
 XXXX=          -1504.6502 YYYY=           -806.4535 ZZZZ=            -86.1245 XXXY=            -90.5440
 XXXZ=            -12.7904 YYYX=            -41.3504 YYYZ=              0.4937 ZZZX=            -16.4955
 ZZZY=             -5.2422 XXYY=           -416.2992 XXZZ=           -235.6825 YYZZ=           -164.5392
 XXYZ=             -6.1192 YYXZ=             -6.0622 ZZXY=             14.8064
 N-N= 6.076458861871D+02 E-N=-2.467357313219D+03  KE= 5.317518518475D+02
 No NMR shielding tensors so no spin-rotation constants.
 Leave Link  601 at Wed Dec 03 10:47:34 2025, MaxMem=   104857600 cpu:               1.0 elap:               0.1
 (Enter D:\Gaussian\G16W\l9999.exe)
 1|1|UNPC-PC-20250526LCFF|SP|RB3LYP|6-31G(d)|C8H10O3|ADMINISTRATOR|03-D
 ec-2025|0||#P B3LYP/6-31G* SCF=conver=7 out=wfn||Generated by Multiwfn
  (http://sobereva.com/multiwfn)||0,1|C,0,-0.927198,0.270633,0.029944|C
 ,0,0.416502,0.596591,0.133063|C,0,1.389135,-0.415708,0.153257|C,0,0.98
 4829,-1.743945,0.061657|C,0,-0.368333,-2.076254,-0.036341|C,0,-1.32977
 8,-1.0777,-0.05184|H,0,0.740198,1.627829,0.185283|H,0,1.727046,-2.5353
 16,0.064443|H,0,-0.692591,-3.107279,-0.110361|O,0,-2.649884,-1.391879,
 -0.154269|H,0,-3.140877,-0.559323,-0.150356|O,0,-1.973846,1.159893,-0.
 005118|C,0,-1.683451,2.548491,0.092834|H,0,-1.059968,2.882608,-0.74303
 |H,0,-2.643675,3.060239,0.055801|H,0,-1.181165,2.781803,1.037424|C,0,2
 .848441,-0.044909,0.307622|H,0,3.078283,0.181197,1.353336|H,0,3.476193
 ,-0.897512,0.015461|O,0,3.214483,1.135817,-0.405384|H,0,2.989654,0.991
 911,-1.331006||Version=EM64W-G16RevA.03|State=1-A|HF=-536.5113708|RMSD
 =5.781e-008|Dipole=-0.2288097,0.6073195,-0.2081673|Quadrupole=-2.27376
 44,2.3597111,-0.0859467,-8.012755,-1.375308,-0.3631062|PG=C01 [X(C8H10
 O3)]||@

 Writing a WFN file to "N.wfn"


 At the touch of love, everyone becomves a poet.
                                -- Plato
 Job cpu time:       0 days  0 hours  0 minutes 19.0 seconds.
 Elapsed time:       0 days  0 hours  0 minutes 19.1 seconds.
 File lengths (MBytes):  RWF=     22 Int=      0 D2E=      0 Chk=      3 Scr=      1
 Normal termination of Gaussian 16 at Wed Dec 03 10:47:34 2025.
