 Generated by Multiwfn (http://sobereva.com/multiwfn)
GAUSSIAN             41 MOL ORBITALS    348 PRIMITIVES       21 NUCLEI
  C    1    (CENTRE  1)  -1.75215042  0.51142211  0.05658589  CHARGE =  6.0
  C    2    (CENTRE  2)   0.78707451  1.12739370  0.25145256  CHARGE =  6.0
  C    3    (CENTRE  3)   2.62508468 -0.78557400  0.28961369  CHARGE =  6.0
  C    4    (CENTRE  4)   1.86105731 -3.29557823  0.11651477  CHARGE =  6.0
  C    5    (CENTRE  5)  -0.69604821 -3.92355147 -0.06867461  CHARGE =  6.0
  C    6    (CENTRE  6)  -2.51291613 -2.03655806 -0.09796347  CHARGE =  6.0
  H    7    (CENTRE  7)   1.39877111  3.07615114  0.35013406  CHARGE =  1.0
  H    8    (CENTRE  8)   3.26364431 -4.79105255  0.12177955  CHARGE =  1.0
  H    9    (CENTRE  9)  -1.30880684 -5.87190640 -0.20855213  CHARGE =  1.0
  O   10    (CENTRE 10)  -5.00755486 -2.63027056 -0.29152623  CHARGE =  8.0
  H   11    (CENTRE 11)  -5.93539731 -1.05696782 -0.28413173  CHARGE =  1.0
  O   12    (CENTRE 12)  -3.73002865  2.19187977 -0.00967169  CHARGE =  8.0
  C   13    (CENTRE 13)  -3.18126188  4.81594974  0.17543077  CHARGE =  6.0
  H   14    (CENTRE 14)  -2.00304983  5.44733948 -1.40412327  CHARGE =  1.0
  H   15    (CENTRE 15)  -4.99582235  5.78301314  0.10544854  CHARGE =  1.0
  H   16    (CENTRE 16)  -2.23207895  5.25684561  1.96044717  CHARGE =  1.0
  C   17    (CENTRE 17)   5.38277329 -0.08486518  0.58132126  CHARGE =  6.0
  H   18    (CENTRE 18)   5.81711168  0.34241328  2.55743433  CHARGE =  1.0
  H   19    (CENTRE 19)   6.56905279 -1.69605123  0.02921699  CHARGE =  1.0
  O   20    (CENTRE 20)   6.07449221  2.14638366 -0.76606480  CHARGE =  8.0
  H   21    (CENTRE 21)   5.64962700  1.87444069 -2.51523688  CHARGE =  1.0
CENTRE ASSIGNMENTS    1  1  1  1  1  1  1  1  1  1  1  1  1  1  1  1  1  1  1  1
CENTRE ASSIGNMENTS    1  1  1  1  1  1  1  1  2  2  2  2  2  2  2  2  2  2  2  2
CENTRE ASSIGNMENTS    2  2  2  2  2  2  2  2  2  2  2  2  2  2  2  2  3  3  3  3
CENTRE ASSIGNMENTS    3  3  3  3  3  3  3  3  3  3  3  3  3  3  3  3  3  3  3  3
CENTRE ASSIGNMENTS    3  3  3  3  4  4  4  4  4  4  4  4  4  4  4  4  4  4  4  4
CENTRE ASSIGNMENTS    4  4  4  4  4  4  4  4  4  4  4  4  5  5  5  5  5  5  5  5
CENTRE ASSIGNMENTS    5  5  5  5  5  5  5  5  5  5  5  5  5  5  5  5  5  5  5  5
CENTRE ASSIGNMENTS    6  6  6  6  6  6  6  6  6  6  6  6  6  6  6  6  6  6  6  6
CENTRE ASSIGNMENTS    6  6  6  6  6  6  6  6  7  7  7  7  8  8  8  8  9  9  9  9
CENTRE ASSIGNMENTS   10 10 10 10 10 10 10 10 10 10 10 10 10 10 10 10 10 10 10 10
CENTRE ASSIGNMENTS   10 10 10 10 10 10 10 10 11 11 11 11 12 12 12 12 12 12 12 12
CENTRE ASSIGNMENTS   12 12 12 12 12 12 12 12 12 12 12 12 12 12 12 12 12 12 12 12
CENTRE ASSIGNMENTS   13 13 13 13 13 13 13 13 13 13 13 13 13 13 13 13 13 13 13 13
CENTRE ASSIGNMENTS   13 13 13 13 13 13 13 13 14 14 14 14 15 15 15 15 16 16 16 16
CENTRE ASSIGNMENTS   17 17 17 17 17 17 17 17 17 17 17 17 17 17 17 17 17 17 17 17
CENTRE ASSIGNMENTS   17 17 17 17 17 17 17 17 18 18 18 18 19 19 19 19 20 20 20 20
CENTRE ASSIGNMENTS   20 20 20 20 20 20 20 20 20 20 20 20 20 20 20 20 20 20 20 20
CENTRE ASSIGNMENTS   20 20 20 20 21 21 21 21
TYPE ASSIGNMENTS      1  1  1  1  1  1  1  1  1  2  2  2  3  3  3  4  4  4  1  2
TYPE ASSIGNMENTS      3  4  5  6  7  8  9 10  1  1  1  1  1  1  1  1  1  2  2  2
TYPE ASSIGNMENTS      3  3  3  4  4  4  1  2  3  4  5  6  7  8  9 10  1  1  1  1
TYPE ASSIGNMENTS      1  1  1  1  1  2  2  2  3  3  3  4  4  4  1  2  3  4  5  6
TYPE ASSIGNMENTS      7  8  9 10  1  1  1  1  1  1  1  1  1  2  2  2  3  3  3  4
TYPE ASSIGNMENTS      4  4  1  2  3  4  5  6  7  8  9 10  1  1  1  1  1  1  1  1
TYPE ASSIGNMENTS      1  2  2  2  3  3  3  4  4  4  1  2  3  4  5  6  7  8  9 10
TYPE ASSIGNMENTS      1  1  1  1  1  1  1  1  1  2  2  2  3  3  3  4  4  4  1  2
TYPE ASSIGNMENTS      3  4  5  6  7  8  9 10  1  1  1  1  1  1  1  1  1  1  1  1
TYPE ASSIGNMENTS      1  1  1  1  1  1  1  1  1  2  2  2  3  3  3  4  4  4  1  2
TYPE ASSIGNMENTS      3  4  5  6  7  8  9 10  1  1  1  1  1  1  1  1  1  1  1  1
TYPE ASSIGNMENTS      1  2  2  2  3  3  3  4  4  4  1  2  3  4  5  6  7  8  9 10
TYPE ASSIGNMENTS      1  1  1  1  1  1  1  1  1  2  2  2  3  3  3  4  4  4  1  2
TYPE ASSIGNMENTS      3  4  5  6  7  8  9 10  1  1  1  1  1  1  1  1  1  1  1  1
TYPE ASSIGNMENTS      1  1  1  1  1  1  1  1  1  2  2  2  3  3  3  4  4  4  1  2
TYPE ASSIGNMENTS      3  4  5  6  7  8  9 10  1  1  1  1  1  1  1  1  1  1  1  1
TYPE ASSIGNMENTS      1  1  1  1  1  2  2  2  3  3  3  4  4  4  1  2  3  4  5  6
TYPE ASSIGNMENTS      7  8  9 10  1  1  1  1
EXPONENTS  0.3047525D+04 0.4573695D+03 0.1039487D+03 0.2921016D+02 0.9286663D+01
EXPONENTS  0.3163927D+01 0.7868272D+01 0.1881289D+01 0.5442493D+00 0.7868272D+01
EXPONENTS  0.1881289D+01 0.5442493D+00 0.7868272D+01 0.1881289D+01 0.5442493D+00
EXPONENTS  0.7868272D+01 0.1881289D+01 0.5442493D+00 0.1687145D+00 0.1687145D+00
EXPONENTS  0.1687145D+00 0.1687145D+00 0.8000000D+00 0.8000000D+00 0.8000000D+00
EXPONENTS  0.8000000D+00 0.8000000D+00 0.8000000D+00 0.3047525D+04 0.4573695D+03
EXPONENTS  0.1039487D+03 0.2921016D+02 0.9286663D+01 0.3163927D+01 0.7868272D+01
EXPONENTS  0.1881289D+01 0.5442493D+00 0.7868272D+01 0.1881289D+01 0.5442493D+00
EXPONENTS  0.7868272D+01 0.1881289D+01 0.5442493D+00 0.7868272D+01 0.1881289D+01
EXPONENTS  0.5442493D+00 0.1687145D+00 0.1687145D+00 0.1687145D+00 0.1687145D+00
EXPONENTS  0.8000000D+00 0.8000000D+00 0.8000000D+00 0.8000000D+00 0.8000000D+00
EXPONENTS  0.8000000D+00 0.3047525D+04 0.4573695D+03 0.1039487D+03 0.2921016D+02
EXPONENTS  0.9286663D+01 0.3163927D+01 0.7868272D+01 0.1881289D+01 0.5442493D+00
EXPONENTS  0.7868272D+01 0.1881289D+01 0.5442493D+00 0.7868272D+01 0.1881289D+01
EXPONENTS  0.5442493D+00 0.7868272D+01 0.1881289D+01 0.5442493D+00 0.1687145D+00
EXPONENTS  0.1687145D+00 0.1687145D+00 0.1687145D+00 0.8000000D+00 0.8000000D+00
EXPONENTS  0.8000000D+00 0.8000000D+00 0.8000000D+00 0.8000000D+00 0.3047525D+04
EXPONENTS  0.4573695D+03 0.1039487D+03 0.2921016D+02 0.9286663D+01 0.3163927D+01
EXPONENTS  0.7868272D+01 0.1881289D+01 0.5442493D+00 0.7868272D+01 0.1881289D+01
EXPONENTS  0.5442493D+00 0.7868272D+01 0.1881289D+01 0.5442493D+00 0.7868272D+01
EXPONENTS  0.1881289D+01 0.5442493D+00 0.1687145D+00 0.1687145D+00 0.1687145D+00
EXPONENTS  0.1687145D+00 0.8000000D+00 0.8000000D+00 0.8000000D+00 0.8000000D+00
EXPONENTS  0.8000000D+00 0.8000000D+00 0.3047525D+04 0.4573695D+03 0.1039487D+03
EXPONENTS  0.2921016D+02 0.9286663D+01 0.3163927D+01 0.7868272D+01 0.1881289D+01
EXPONENTS  0.5442493D+00 0.7868272D+01 0.1881289D+01 0.5442493D+00 0.7868272D+01
EXPONENTS  0.1881289D+01 0.5442493D+00 0.7868272D+01 0.1881289D+01 0.5442493D+00
EXPONENTS  0.1687145D+00 0.1687145D+00 0.1687145D+00 0.1687145D+00 0.8000000D+00
EXPONENTS  0.8000000D+00 0.8000000D+00 0.8000000D+00 0.8000000D+00 0.8000000D+00
EXPONENTS  0.3047525D+04 0.4573695D+03 0.1039487D+03 0.2921016D+02 0.9286663D+01
EXPONENTS  0.3163927D+01 0.7868272D+01 0.1881289D+01 0.5442493D+00 0.7868272D+01
EXPONENTS  0.1881289D+01 0.5442493D+00 0.7868272D+01 0.1881289D+01 0.5442493D+00
EXPONENTS  0.7868272D+01 0.1881289D+01 0.5442493D+00 0.1687145D+00 0.1687145D+00
EXPONENTS  0.1687145D+00 0.1687145D+00 0.8000000D+00 0.8000000D+00 0.8000000D+00
EXPONENTS  0.8000000D+00 0.8000000D+00 0.8000000D+00 0.1873114D+02 0.2825394D+01
EXPONENTS  0.6401217D+00 0.1612778D+00 0.1873114D+02 0.2825394D+01 0.6401217D+00
EXPONENTS  0.1612778D+00 0.1873114D+02 0.2825394D+01 0.6401217D+00 0.1612778D+00
EXPONENTS  0.5484672D+04 0.8252349D+03 0.1880470D+03 0.5296450D+02 0.1689757D+02
EXPONENTS  0.5799635D+01 0.1553962D+02 0.3599934D+01 0.1013762D+01 0.1553962D+02
EXPONENTS  0.3599934D+01 0.1013762D+01 0.1553962D+02 0.3599934D+01 0.1013762D+01
EXPONENTS  0.1553962D+02 0.3599934D+01 0.1013762D+01 0.2700058D+00 0.2700058D+00
EXPONENTS  0.2700058D+00 0.2700058D+00 0.8000000D+00 0.8000000D+00 0.8000000D+00
EXPONENTS  0.8000000D+00 0.8000000D+00 0.8000000D+00 0.1873114D+02 0.2825394D+01
EXPONENTS  0.6401217D+00 0.1612778D+00 0.5484672D+04 0.8252349D+03 0.1880470D+03
EXPONENTS  0.5296450D+02 0.1689757D+02 0.5799635D+01 0.1553962D+02 0.3599934D+01
EXPONENTS  0.1013762D+01 0.1553962D+02 0.3599934D+01 0.1013762D+01 0.1553962D+02
EXPONENTS  0.3599934D+01 0.1013762D+01 0.1553962D+02 0.3599934D+01 0.1013762D+01
EXPONENTS  0.2700058D+00 0.2700058D+00 0.2700058D+00 0.2700058D+00 0.8000000D+00
EXPONENTS  0.8000000D+00 0.8000000D+00 0.8000000D+00 0.8000000D+00 0.8000000D+00
EXPONENTS  0.3047525D+04 0.4573695D+03 0.1039487D+03 0.2921016D+02 0.9286663D+01
EXPONENTS  0.3163927D+01 0.7868272D+01 0.1881289D+01 0.5442493D+00 0.7868272D+01
EXPONENTS  0.1881289D+01 0.5442493D+00 0.7868272D+01 0.1881289D+01 0.5442493D+00
EXPONENTS  0.7868272D+01 0.1881289D+01 0.5442493D+00 0.1687145D+00 0.1687145D+00
EXPONENTS  0.1687145D+00 0.1687145D+00 0.8000000D+00 0.8000000D+00 0.8000000D+00
EXPONENTS  0.8000000D+00 0.8000000D+00 0.8000000D+00 0.1873114D+02 0.2825394D+01
EXPONENTS  0.6401217D+00 0.1612778D+00 0.1873114D+02 0.2825394D+01 0.6401217D+00
EXPONENTS  0.1612778D+00 0.1873114D+02 0.2825394D+01 0.6401217D+00 0.1612778D+00
EXPONENTS  0.3047525D+04 0.4573695D+03 0.1039487D+03 0.2921016D+02 0.9286663D+01
EXPONENTS  0.3163927D+01 0.7868272D+01 0.1881289D+01 0.5442493D+00 0.7868272D+01
EXPONENTS  0.1881289D+01 0.5442493D+00 0.7868272D+01 0.1881289D+01 0.5442493D+00
EXPONENTS  0.7868272D+01 0.1881289D+01 0.5442493D+00 0.1687145D+00 0.1687145D+00
EXPONENTS  0.1687145D+00 0.1687145D+00 0.8000000D+00 0.8000000D+00 0.8000000D+00
EXPONENTS  0.8000000D+00 0.8000000D+00 0.8000000D+00 0.1873114D+02 0.2825394D+01
EXPONENTS  0.6401217D+00 0.1612778D+00 0.1873114D+02 0.2825394D+01 0.6401217D+00
EXPONENTS  0.1612778D+00 0.5484672D+04 0.8252349D+03 0.1880470D+03 0.5296450D+02
EXPONENTS  0.1689757D+02 0.5799635D+01 0.1553962D+02 0.3599934D+01 0.1013762D+01
EXPONENTS  0.1553962D+02 0.3599934D+01 0.1013762D+01 0.1553962D+02 0.3599934D+01
EXPONENTS  0.1013762D+01 0.1553962D+02 0.3599934D+01 0.1013762D+01 0.2700058D+00
EXPONENTS  0.2700058D+00 0.2700058D+00 0.2700058D+00 0.8000000D+00 0.8000000D+00
EXPONENTS  0.8000000D+00 0.8000000D+00 0.8000000D+00 0.8000000D+00 0.1873114D+02
EXPONENTS  0.2825394D+01 0.6401217D+00 0.1612778D+00
MO    1     MO 0.0        OCC NO =    2.0000000  ORB. ENERGY =  -19.189839
 -0.26836195D-04 -0.49507539D-04 -0.79920518D-04 -0.10403277D-03 -0.88771349D-04
 -0.30650614D-04 -0.31510749D-04 -0.14523276D-04  0.40724781D-04 -0.48380675D-03
 -0.37095233D-03 -0.18513121D-03  0.31048864D-03  0.23806300D-03  0.11881012D-03
 -0.22013736D-04 -0.16878737D-04 -0.84236725D-05  0.37570678D-04  0.66387869D-03
 -0.39282934D-03  0.29936211D-04  0.10127941D-03 -0.53667909D-04 -0.99111990D-04
 -0.93011890D-04  0.25076677D-04 -0.24795775D-05  0.13239547D-04  0.24424379D-04
  0.39428522D-04  0.51324220D-04  0.43795050D-04  0.15121378D-04 -0.88660543D-04
 -0.40863563D-04  0.11458570D-03  0.85343213D-04  0.65435763D-04  0.32657032D-04
 -0.32433511D-04 -0.24867959D-04 -0.12410855D-04  0.44316565D-05  0.33979131D-05
  0.16957968D-05 -0.67734772D-03  0.63816084D-04  0.35351455D-03  0.17557094D-04
 -0.10072096D-03 -0.65693439D-04  0.54191291D-04 -0.16741047D-05 -0.19863337D-04
 -0.10480001D-04 -0.44293090D-05 -0.81712103D-05 -0.13190867D-04 -0.17170589D-04
 -0.14651695D-04 -0.50588782D-05  0.27520810D-04  0.12684316D-04 -0.35568146D-04
 -0.56276733D-04 -0.43149430D-04 -0.21534590D-04  0.36658099D-04  0.28107105D-04
  0.14027415D-04 -0.25009498D-05 -0.19175697D-05 -0.95700167D-06  0.35078264D-03
 -0.14995381D-03  0.84001320D-04 -0.38180937D-05  0.29201860D-04  0.27236461D-04
 -0.52073296D-05 -0.73273846D-04  0.46885912D-05  0.38403567D-06  0.45101294D-05
  0.83203080D-05  0.13431557D-04  0.17483896D-04  0.14919040D-04  0.51511861D-05
 -0.17753313D-04 -0.81824856D-05  0.22944544D-04 -0.18949148D-04 -0.14529005D-04
 -0.72509917D-05  0.68662580D-05  0.52646111D-05  0.26274099D-05  0.40836027D-06
  0.31310476D-06  0.15626122D-06 -0.15277134D-03  0.96994709D-04 -0.27984825D-04
  0.33936146D-05 -0.30581806D-05 -0.22281654D-05  0.20698400D-04 -0.28536783D-04
 -0.35990783D-05 -0.49036350D-05  0.52701971D-05  0.97224845D-05  0.15695105D-04
  0.20430363D-04  0.17433266D-04  0.60192877D-05 -0.13780483D-04 -0.63514120D-05
  0.17810022D-04 -0.32305430D-04 -0.24769755D-04 -0.12361844D-04  0.74234658D-04
  0.56918428D-04  0.28406285D-04  0.12657204D-05  0.97047415D-06  0.48433462D-06
  0.22579606D-03  0.70659758D-04  0.76994354D-04  0.88515966D-05  0.25578114D-04
  0.15234124D-04  0.33791897D-04 -0.25825018D-05 -0.15671237D-05 -0.49945298D-06
  0.12717025D-04  0.23460429D-04  0.37872406D-04  0.49298620D-04  0.42066601D-04
  0.14524587D-04 -0.67380056D-04 -0.31055406D-04  0.87082601D-04 -0.85048581D-04
 -0.65209858D-04 -0.32544289D-04 -0.95554973D-05 -0.73265492D-05 -0.36564616D-05
 -0.54663479D-05 -0.41912488D-05 -0.20917269D-05 -0.96968824D-04 -0.36302878D-03
 -0.65137956D-04 -0.27699210D-04  0.71479280D-04 -0.52281905D-04  0.30251323D-04
  0.82179576D-04  0.96019753D-05 -0.13592571D-05 -0.16115293D-04 -0.27334587D-04
 -0.31119461D-04 -0.11473322D-03 -0.46135833D-05 -0.78255105D-05 -0.89090671D-05
 -0.25975610D-04  0.44917412D-05  0.76188432D-05  0.86737837D-05  0.16779648D-04
  0.24837532D-04  0.45714318D-04  0.73974395D-04  0.97241413D-04  0.83403395D-04
  0.28517037D-04 -0.10178421D-03 -0.45415916D-04  0.13411381D-03  0.25018133D-03
  0.19275123D-03  0.84628170D-04 -0.31262400D-05 -0.24085994D-05 -0.10575049D-05
  0.15636551D-04  0.12047120D-04  0.52893345D-05 -0.30160692D-03 -0.23684719D-03
  0.38353842D-04 -0.13942948D-04  0.16423748D-04  0.14172010D-03  0.11186467D-03
 -0.12897206D-03 -0.18426057D-04 -0.55335609D-05 -0.61469258D-05 -0.10426350D-04
 -0.11870030D-04 -0.15611232D-03  0.82557355D+00  0.15194960D+01  0.24588314D+01
  0.32322027D+01  0.27722415D+01  0.94787645D+00 -0.15688717D-01 -0.70002752D-02
  0.20671906D-01  0.26478057D-02  0.20399916D-02  0.89566618D-03  0.10878807D-02
  0.83815345D-03  0.36799451D-03  0.26122087D-03  0.20125659D-03  0.88362485D-04
  0.41561114D-02  0.20070491D-03 -0.26764812D-03  0.31730117D-05 -0.94628692D-02
 -0.96013673D-02 -0.94393994D-02 -0.13740982D-03 -0.11171792D-04 -0.29284411D-04
  0.77390875D-05  0.14277105D-04  0.23047675D-04  0.30001224D-04  0.25600099D-04
  0.88390990D-05 -0.73194908D-04 -0.33735466D-04  0.94597768D-04 -0.19368773D-03
 -0.14850746D-03 -0.74115632D-04 -0.53978838D-03 -0.41387549D-03 -0.20655288D-03
 -0.45038676D-04 -0.34532800D-04 -0.17234287D-04 -0.31014395D-03  0.56854134D-04
  0.10873377D-03  0.10378019D-04  0.56818603D-04  0.48890077D-03  0.31491728D-04
  0.25854841D-03  0.20191272D-04  0.70811276D-04  0.13376490D-04  0.22689058D-04
  0.25830691D-04  0.10664270D-04  0.25904668D-04  0.43939220D-04  0.50023249D-04
  0.23857564D-04  0.13228136D-04  0.22437422D-04  0.25544212D-04  0.10340652D-04
  0.46470466D-05  0.85728936D-05  0.13839308D-04  0.18014668D-04  0.15371948D-04
  0.53075644D-05 -0.15672215D-04 -0.72233094D-05  0.20254914D-04 -0.48312458D-05
 -0.37042929D-05 -0.18487018D-05  0.33743448D-05  0.25872335D-05  0.12912109D-05
  0.50185376D-05  0.38478963D-05  0.19203700D-05 -0.65771606D-05  0.85448622D-05
 -0.30536806D-04 -0.78048212D-05 -0.79970527D-05  0.24667240D-04  0.16382967D-04
  0.16348994D-04 -0.55178528D-05  0.13066420D-04  0.37642795D-05  0.63849305D-05
  0.72690176D-05  0.96623385D-05 -0.14420282D-05 -0.24459527D-05 -0.27846308D-05
 -0.11029881D-04  0.17499517D-05  0.32208453D-05  0.52119357D-05  0.68512353D-05
  0.58762647D-05  0.20091947D-05 -0.18670436D-06 -0.83307120D-07  0.24600704D-06
 -0.19981545D-04 -0.15394703D-04 -0.67591040D-05 -0.14369962D-04 -0.11071281D-04
 -0.48608886D-05 -0.20539070D-04 -0.15824246D-04 -0.69476965D-05  0.13740899D-04
  0.26274147D-05  0.63912366D-06  0.15495196D-04 -0.48381035D-05  0.39672082D-06
  0.65117399D-05 -0.57279925D-05 -0.76902302D-05 -0.62115056D-06  0.30377100D-05
  0.51525311D-05  0.58659745D-05  0.26661542D-05
MO    2     MO 0.0        OCC NO =    2.0000000  ORB. ENERGY =  -19.169758
  0.27903031D-04  0.51475644D-04  0.83097651D-04  0.10816845D-03  0.92300335D-04
  0.31869088D-04 -0.12712796D-03 -0.58593162D-04  0.16430134D-03  0.26606759D-04
  0.20400375D-04  0.10181217D-04  0.46098182D-04  0.35345162D-04  0.17639713D-04
  0.40023417D-05  0.30687418D-05  0.15315172D-05 -0.74030010D-03 -0.41644834D-03
  0.45448926D-03 -0.10342114D-04  0.17613173D-04 -0.22199889D-04  0.83941074D-04
 -0.15928473D-03 -0.15774521D-04 -0.19189595D-04 -0.64447359D-05 -0.11889279D-04
 -0.19192983D-04 -0.24983562D-04 -0.21318518D-04 -0.73607721D-05  0.34401672D-04
  0.15855699D-04 -0.44461035D-04 -0.96770070D-04 -0.74197152D-04 -0.37029579D-04
 -0.22221705D-04 -0.17038194D-04 -0.85032529D-05 -0.90172922D-05 -0.69138877D-05
 -0.34505145D-05  0.55694930D-03 -0.76659238D-04 -0.28479697D-03 -0.15683709D-04
  0.37875722D-04  0.13791311D-04 -0.99486737D-05  0.35454590D-04  0.74609080D-05
  0.62439963D-05  0.84144990D-05  0.15523108D-04  0.25059109D-04  0.32619514D-04
  0.27834290D-04  0.96105116D-05 -0.36908574D-04 -0.17011128D-04  0.47700979D-04
 -0.22021222D-04 -0.16884476D-04 -0.84265371D-05 -0.28686656D-04 -0.21995108D-04
 -0.10977100D-04 -0.22989516D-05 -0.17626903D-05 -0.87970598D-06 -0.33478293D-03
  0.20327148D-03  0.28504025D-05  0.12698279D-04  0.42393429D-05 -0.28585312D-04
  0.33160040D-04  0.42889355D-04 -0.26345823D-05 -0.35673042D-05  0.10929998D-05
  0.20163712D-05  0.32550483D-05  0.42371057D-05  0.36155300D-05  0.12483556D-05
  0.50730644D-05  0.23381707D-05 -0.65564748D-05 -0.81539907D-04 -0.62519629D-04
 -0.31201677D-04  0.54674129D-05  0.41920654D-05  0.20921345D-05 -0.44075164D-05
 -0.33794040D-05 -0.16865595D-05  0.34896226D-03 -0.11678482D-03  0.76627288D-04
 -0.27057155D-05  0.23842678D-04  0.23962910D-04  0.24012317D-04  0.43947943D-04
  0.79887107D-06  0.32659348D-05  0.72991991D-05  0.13465597D-04  0.21737649D-04
  0.28295960D-04  0.24144994D-04  0.83366862D-05 -0.65411449D-04 -0.30148077D-04
  0.84538354D-04  0.14953403D-04  0.11465321D-04  0.57219987D-05 -0.91345980D-05
 -0.70038304D-05 -0.34954022D-05  0.17298929D-05  0.13263721D-05  0.66195266D-06
 -0.41654233D-03 -0.15960098D-03 -0.31441567D-03 -0.25646571D-04 -0.52456767D-04
 -0.86860141D-04  0.30247805D-04  0.18561375D-04 -0.97713221D-05 -0.98959174D-05
 -0.36243552D-04 -0.66862276D-04 -0.10793644D-03 -0.14050118D-03 -0.11988991D-03
 -0.41395105D-04 -0.26505664D-04 -0.12216436D-04  0.34256163D-04 -0.53190376D-03
 -0.40783006D-03 -0.20353578D-03 -0.17697191D-03 -0.13569084D-03 -0.67719237D-04
 -0.44223073D-04 -0.33907447D-04 -0.16922193D-04  0.23393193D-03  0.84085605D-03
  0.34924511D-03  0.70936323D-04 -0.11711541D-03 -0.12702711D-04 -0.13522449D-03
  0.66629638D-04  0.31665234D-05  0.14541283D-04  0.12496215D-04  0.21195946D-04
  0.24130835D-04  0.92760331D-04  0.38956041D-05  0.66076818D-05  0.75226122D-05
  0.25052888D-04 -0.11486276D-04 -0.19482898D-04 -0.22180590D-04 -0.14535828D-03
  0.82560984D+00  0.15195628D+01  0.24589395D+01  0.32323448D+01  0.27723633D+01
  0.94791811D+00 -0.15743895D-01 -0.70248953D-02  0.20744610D-01  0.98409494D-03
  0.75819210D-03  0.33288717D-03  0.30568106D-02  0.23551078D-02  0.10340192D-02
  0.19808332D-03  0.15261252D-03  0.67005118D-04  0.40392114D-02  0.40157638D-03
  0.17535077D-04  0.28380961D-04 -0.91840116D-02 -0.93676404D-02 -0.92740982D-02
 -0.55613200D-05  0.12433109D-04 -0.83986290D-05  0.85512610D-04  0.14504557D-03
  0.16512926D-03 -0.20667120D-03  0.44651282D-04  0.82182194D-04  0.13298630D-03
  0.17481422D-03  0.14993714D-03  0.51266054D-04 -0.16063726D-03 -0.71676033D-04
  0.21166029D-03  0.16769158D-03  0.12919732D-03  0.56724583D-04 -0.60048363D-04
 -0.46264027D-04 -0.20312400D-04  0.57843825D-05  0.44565549D-05  0.19566676D-05
 -0.47680071D-03 -0.18212740D-03  0.91368816D-04 -0.73316707D-05  0.11535468D-03
  0.14213833D-03  0.16332505D-03  0.10814642D-03 -0.17469206D-05  0.53039323D-05
  0.10046053D-04  0.18533006D-04  0.29918018D-04  0.38944369D-04  0.33231301D-04
  0.11473970D-04 -0.31267962D-04 -0.14411375D-04  0.40411000D-04  0.13748974D-04
  0.10541841D-04  0.52611175D-05 -0.61262953D-04 -0.46972547D-04 -0.23442593D-04
 -0.24821732D-05 -0.19031730D-05 -0.94981670D-06 -0.49225909D-04 -0.69524999D-05
  0.30466380D-04  0.62576025D-06  0.22821703D-04  0.26047176D-04  0.39949231D-04
 -0.17375716D-04 -0.36829176D-05 -0.13545795D-05  0.45264806D-05  0.76777678D-05
  0.87408673D-05 -0.65950287D-05 -0.46666154D-06 -0.79154629D-06 -0.90114748D-06
 -0.58373150D-05  0.43989354D-05  0.74614270D-05  0.84945709D-05 -0.55339490D-05
  0.83289875D-06  0.15365356D-05  0.24804448D-05  0.32288021D-05  0.27551427D-05
  0.95128457D-06 -0.55444066D-05 -0.25554119D-05  0.71656418D-05  0.19717524D-04
  0.15118147D-04  0.75450147D-05 -0.23890401D-05 -0.18317644D-05 -0.91417883D-06
  0.46270897D-06  0.35477589D-06  0.17705803D-06 -0.84682752D-04  0.21999632D-04
  0.18478027D-04  0.91508691D-05 -0.19648228D-05 -0.71033292D-05  0.57675867D-06
 -0.13795796D-04 -0.18517817D-05 -0.11271081D-05  0.31610448D-06  0.53617302D-06
  0.61041404D-06 -0.30051392D-05  0.30524143D-05  0.51774723D-05  0.58943692D-05
  0.80565128D-05 -0.31252666D-05 -0.57521588D-05 -0.93080788D-05 -0.12235730D-04
 -0.10494515D-04 -0.35882528D-05  0.36668789D-05  0.16361542D-05 -0.48315853D-05
  0.11514018D-04  0.88709305D-05  0.38948163D-05  0.78091138D-05  0.60165012D-05
  0.26415681D-05  0.84054065D-05  0.64759126D-05  0.28432744D-05  0.58461602D-05
 -0.47999479D-05 -0.57848922D-05 -0.43027267D-05 -0.41578896D-05  0.54024989D-06
 -0.30417904D-05  0.34637428D-05 -0.22242545D-05 -0.86517230D-06 -0.17954943D-05
 -0.30454982D-05 -0.34671921D-05 -0.57613613D-06
MO    3     MO 0.0        OCC NO =    2.0000000  ORB. ENERGY =  -19.143444
  0.89843981D-06  0.16574460D-05  0.26756318D-05  0.34828776D-05  0.29719457D-05
  0.10261414D-05 -0.37032592D-05 -0.17068288D-05  0.47861260D-05  0.16164730D-04
  0.12394090D-04  0.61855193D-05  0.27488058D-04  0.21076100D-04  0.10518451D-04
  0.13271568D-04  0.10175797D-04  0.50784358D-05 -0.38037662D-04 -0.99957533D-04
 -0.14231612D-03 -0.21666347D-04 -0.21796300D-04  0.10431307D-04  0.91703286D-05
 -0.10384310D-04 -0.83999212D-05 -0.46264953D-05  0.12550862D-05  0.23153889D-05
  0.37377556D-05  0.48654473D-05  0.41516950D-05  0.14334805D-05 -0.61965006D-05
 -0.28559615D-05  0.80084141D-05  0.26401107D-04  0.20242694D-04  0.10102523D-04
 -0.23390621D-04 -0.17934445D-04 -0.89505449D-05 -0.28286698D-04 -0.21688446D-04
 -0.10824055D-04 -0.69111486D-04 -0.18890235D-03  0.14351715D-03  0.84182715D-05
  0.28313797D-04 -0.51840925D-04  0.15430769D-04  0.96271446D-04  0.15282294D-04
 -0.64461921D-05 -0.55069286D-05 -0.10159208D-04 -0.16400112D-04 -0.21348072D-04
 -0.18216349D-04 -0.62896675D-05 -0.53183846D-05 -0.24512386D-05  0.68735289D-05
  0.23149704D-04  0.17749725D-04  0.88583567D-05 -0.45241956D-04 -0.34688662D-04
 -0.17312074D-04  0.33579562D-04  0.25746678D-04  0.12849397D-04  0.15974413D-03
 -0.12845735D-03  0.19453360D-03 -0.16829525D-04 -0.38429452D-04 -0.44348913D-04
 -0.31163373D-04 -0.13486079D-03  0.24828645D-04  0.58628810D-04 -0.12587877D-06
 -0.23222175D-06 -0.37487792D-06 -0.48797966D-06 -0.41639393D-06 -0.14377082D-06
  0.47856327D-05  0.22056938D-05 -0.61849955D-05  0.18727088D-04  0.14358743D-04
  0.71660191D-05  0.31143169D-04  0.23878607D-04  0.11917098D-04  0.29791817D-04
  0.22842476D-04  0.11399996D-04  0.89622170D-04  0.39022468D-04  0.24099119D-04
  0.13150558D-05  0.18376407D-04  0.11782367D-04  0.27329523D-05  0.29399594D-04
  0.55004698D-05  0.27119742D-04  0.31587610D-05  0.58272973D-05  0.94070646D-05
  0.12245203D-04  0.10448854D-04  0.36077382D-05 -0.13355189D-04 -0.61553944D-05
  0.17260368D-04 -0.26740822D-05 -0.20503166D-05 -0.10232517D-05  0.48874442D-05
  0.37473822D-05  0.18702064D-05 -0.48519591D-05 -0.37201745D-05 -0.18566278D-05
 -0.58843608D-04  0.31754594D-04 -0.23634004D-04  0.24181312D-05 -0.11508955D-04
  0.17930501D-05  0.17126402D-04  0.21397827D-05  0.31947982D-05  0.61033701D-06
  0.13920903D-05  0.25681348D-05  0.41457659D-05  0.53965553D-05  0.46048904D-05
  0.15899580D-05 -0.77207324D-05 -0.35584785D-05  0.99783451D-05 -0.78742835D-05
 -0.60375011D-05 -0.30131362D-05 -0.62804243D-05 -0.48154310D-05 -0.24032375D-05
 -0.47868010D-05 -0.36702154D-05 -0.18316947D-05 -0.90506293D-04  0.26956976D-04
 -0.98057714D-04  0.11770795D-05  0.25888146D-05 -0.15961905D-04  0.73845878D-05
 -0.10978597D-04 -0.17024516D-05  0.48150660D-05  0.13191426D-04  0.22375155D-04
  0.25473323D-04 -0.84939306D-04  0.44853389D-07  0.76079837D-07  0.86614206D-07
 -0.21049747D-04  0.11677168D-05  0.19806687D-05  0.22549213D-05 -0.31633779D-05
  0.15768813D-05  0.29023035D-05  0.46964748D-05  0.61736476D-05  0.52951017D-05
  0.18104852D-05  0.38998712D-05  0.17401149D-05 -0.51385827D-05  0.11104142D-04
  0.85551426D-05  0.37561684D-05 -0.13090066D-04 -0.10085190D-04 -0.44279418D-05
  0.38503893D-05  0.29665174D-05  0.13024609D-05  0.20954595D-04  0.13388541D-05
  0.20925125D-04 -0.71992911D-06 -0.53429930D-05  0.67621810D-06  0.26796743D-05
  0.19371889D-04 -0.32267824D-05  0.23053461D-05 -0.26063557D-05 -0.44208725D-05
 -0.50330071D-05  0.65096965D-06 -0.96326669D-05 -0.17729249D-04 -0.28689272D-04
 -0.37712851D-04 -0.32346093D-04 -0.11059679D-04  0.28103716D-04  0.12539823D-04
 -0.37030266D-04 -0.11760868D-04 -0.90611150D-05 -0.39783175D-05 -0.28524552D-04
 -0.21976629D-04 -0.96489240D-05 -0.11606904D-04 -0.89424937D-05 -0.39262364D-05
  0.69705393D-04  0.31957661D-04  0.29060166D-04  0.81902007D-05 -0.11406420D-04
 -0.37666814D-04 -0.32947674D-04  0.11500087D-04  0.91005266D-05 -0.40416013D-05
  0.18663511D-05  0.34430534D-05  0.55581557D-05  0.72350672D-05  0.61736960D-05
  0.21316289D-05 -0.47313980D-05 -0.21806970D-05  0.61149020D-05  0.15728353D-04
  0.12059503D-04  0.60185373D-05  0.20432244D-04  0.15666148D-04  0.78185061D-05
  0.68381537D-06  0.52430625D-06  0.26166557D-06 -0.31876291D-04 -0.41993846D-05
  0.46820554D-05  0.83412913D-06  0.10404730D-04 -0.14364078D-05  0.96142253D-05
 -0.60349941D-05 -0.54047311D-06  0.17550776D-06 -0.11104120D-06 -0.18834689D-06
 -0.21442628D-06  0.12472405D-04  0.11876385D-05  0.20144598D-05  0.22933912D-05
  0.31107983D-06  0.14393289D-05  0.24413742D-05  0.27794182D-05  0.76595469D-05
 -0.25681522D-05 -0.47377393D-05 -0.76481802D-05 -0.99556581D-05 -0.84951811D-05
 -0.29331819D-05 -0.74180327D-04 -0.34189645D-04  0.95871333D-04  0.16060742D-03
  0.12314358D-03  0.61457278D-04  0.41503980D-03  0.31822619D-03  0.15881717D-03
 -0.16127040D-03 -0.12365191D-03 -0.61710970D-04 -0.28105491D-03 -0.81383023D-04
 -0.21233967D-03  0.25058334D-04  0.51587147D-04  0.21461547D-03  0.45379904D-04
  0.18169961D-03 -0.92812867D-04 -0.23564090D-03  0.28109761D-04  0.47679475D-04
  0.54281397D-04  0.39279318D-04  0.12151260D-05  0.20610837D-05  0.23464709D-05
 -0.11881346D-04  0.82572163D+00  0.15197686D+01  0.24592725D+01  0.32327825D+01
  0.27727388D+01  0.94804647D+00 -0.16064768D-01 -0.71680683D-02  0.21167402D-01
 -0.12521899D-02 -0.96474480D-03 -0.42357493D-03 -0.24609084D-02 -0.18959973D-02
 -0.83244493D-03 -0.16384443D-02 -0.12623330D-02 -0.55423219D-03  0.30851078D-02
 -0.24593837D-04 -0.76986140D-04  0.11564543D-03 -0.88720709D-02 -0.89518654D-02
 -0.88965627D-02 -0.90516709D-04 -0.20403494D-04  0.88731064D-05  0.86730772D-04
  0.14711181D-03  0.16748159D-03 -0.19385264D-03
MO    4     MO 0.0        OCC NO =    2.0000000  ORB. ENERGY =  -10.249203
 -0.23888087D-03 -0.44068856D-03 -0.71140798D-03 -0.92604181D-03 -0.79019316D-03
 -0.27283471D-03  0.62247843D-04  0.28689974D-04 -0.80449681D-04 -0.53285153D-04
 -0.40855675D-04 -0.20389845D-04 -0.22202799D-03 -0.17023698D-03 -0.84960186D-04
 -0.15446190D-04 -0.11843159D-04 -0.59105661D-05 -0.22212566D-03  0.62726878D-04
  0.62603983D-03  0.32146769D-04  0.15483369D-03  0.91725821D-04 -0.47365645D-04
 -0.21415375D-03  0.18615129D-04  0.19841677D-05  0.30666951D-05  0.56574536D-05
  0.91328843D-05  0.11888302D-04  0.10144309D-04  0.35025863D-05 -0.47342686D-04
 -0.21820201D-04  0.61186121D-04  0.10671352D-03  0.81821162D-04  0.40834494D-04
 -0.86588181D-04 -0.66390325D-04 -0.33133425D-04  0.45585128D-05  0.34951785D-05
  0.17443390D-05 -0.39037114D-03  0.43802467D-05  0.84529061D-05  0.57304107D-06
 -0.89004771D-04 -0.51355544D-05  0.36327528D-05  0.18311555D-03 -0.26958520D-05
  0.13604789D-04 -0.14345554D-04 -0.26464746D-04 -0.42722306D-04 -0.55611748D-04
 -0.47453605D-04 -0.16384590D-04  0.40849051D-04  0.18827290D-04 -0.52793687D-04
  0.60521283D-04  0.46403881D-04  0.23158789D-04  0.92213294D-05  0.70703305D-05
  0.35285905D-05  0.81504752D-05  0.62492675D-05  0.31188224D-05  0.48647130D-04
 -0.15946884D-03  0.99640010D-04 -0.68642371D-05  0.13593839D-04  0.83023715D-05
 -0.54492992D-04 -0.11079765D-03  0.55548883D-05 -0.94691596D-06 -0.68122294D-05
 -0.12567233D-04 -0.20287411D-04 -0.26408181D-04 -0.22534149D-04 -0.77805000D-05
  0.22492218D-04  0.10366643D-04 -0.29069148D-04 -0.47445413D-04 -0.36378133D-04
 -0.18155238D-04 -0.47518844D-04 -0.36434436D-04 -0.18183337D-04 -0.41522843D-05
 -0.31837082D-05 -0.15888935D-05  0.19565667D-03 -0.63990629D-05  0.31986667D-04
  0.13599931D-05  0.23848358D-04 -0.13826589D-04 -0.23118384D-04  0.43960343D-04
  0.81177530D-05  0.48470110D-05  0.83996243D-05  0.15495667D-04  0.25014811D-04
  0.32561851D-04  0.27785086D-04  0.95935226D-05 -0.29551435D-04 -0.13620229D-04
  0.38192545D-04  0.91345809D-04  0.70038173D-04  0.34953957D-04 -0.41801663D-04
 -0.32050864D-04 -0.15995627D-04  0.43864927D-05  0.33632844D-05  0.16785146D-05
 -0.26175249D-03 -0.71533716D-04 -0.17087981D-03 -0.12324893D-04  0.14322075D-04
 -0.27009739D-04  0.18500404D-04  0.27680120D-04  0.18746754D-06 -0.19626924D-05
 -0.10494126D-03 -0.19359614D-03 -0.31252419D-03 -0.40681364D-03 -0.34713482D-03
 -0.11985731D-03  0.10576329D-03  0.48746202D-04 -0.13668944D-03 -0.48357766D-04
 -0.37077667D-04 -0.18504355D-04  0.10203990D-03  0.78237723D-04  0.39046107D-04