 Entering Link 1 = D:\Gaussian\G16W\l1.exe PID=     31752.
  
 Copyright (c) 1988,1990,1992,1993,1995,1998,2003,2009,2016,
            Gaussian, Inc.  All Rights Reserved.
  
 This is part of the Gaussian(R) 16 program.  It is based on
 the Gaussian(R) 09 system (copyright 2009, Gaussian, Inc.),
 the Gaussian(R) 03 system (copyright 2003, Gaussian, Inc.),
 the Gaussian(R) 98 system (copyright 1998, Gaussian, Inc.),
 the Gaussian(R) 94 system (copyright 1995, Gaussian, Inc.),
 the Gaussian 92(TM) system (copyright 1992, Gaussian, Inc.),
 the Gaussian 90(TM) system (copyright 1990, Gaussian, Inc.),
 the Gaussian 88(TM) system (copyright 1988, Gaussian, Inc.),
 the Gaussian 86(TM) system (copyright 1986, Carnegie Mellon
 University), and the Gaussian 82(TM) system (copyright 1983,
 Carnegie Mellon University). Gaussian is a federally registered
 trademark of Gaussian, Inc.
  
 This software contains proprietary and confidential information,
 including trade secrets, belonging to Gaussian, Inc.
  
 This software is provided under written license and may be
 used, copied, transmitted, or stored only in accord with that
 written license.
  
 The following legend is applicable only to US Government
 contracts under FAR:
  
                    RESTRICTED RIGHTS LEGEND
  
 Use, reproduction and disclosure by the US Government is
 subject to restrictions as set forth in subparagraphs (a)
 and (c) of the Commercial Computer Software - Restricted
 Rights clause in FAR 52.227-19.
  
 Gaussian, Inc.
 340 Quinnipiac St., Bldg. 40, Wallingford CT 06492
  
  
 ---------------------------------------------------------------
 Warning -- This program may not be used in any manner that
 competes with the business of Gaussian, Inc. or will provide
 assistance to any competitor of Gaussian, Inc.  The licensee
 of this program is prohibited from giving any competitor of
 Gaussian, Inc. access to this program.  By using this program,
 the user acknowledges that Gaussian, Inc. is engaged in the
 business of creating and licensing software in the field of
 computational chemistry and represents and warrants to the
 licensee that it is not a competitor of Gaussian, Inc. and that
 it will not use this program in any manner prohibited above.
 ---------------------------------------------------------------
  

 Cite this work as:
 Gaussian 16, Revision A.03,
 M. J. Frisch, G. W. Trucks, H. B. Schlegel, G. E. Scuseria, 
 M. A. Robb, J. R. Cheeseman, G. Scalmani, V. Barone, 
 G. A. Petersson, H. Nakatsuji, X. Li, M. Caricato, A. V. Marenich, 
 J. Bloino, B. G. Janesko, R. Gomperts, B. Mennucci, H. P. Hratchian, 
 J. V. Ortiz, A. F. Izmaylov, J. L. Sonnenberg, D. Williams-Young, 
 F. Ding, F. Lipparini, F. Egidi, J. Goings, B. Peng, A. Petrone, 
 T. Henderson, D. Ranasinghe, V. G. Zakrzewski, J. Gao, N. Rega, 
 G. Zheng, W. Liang, M. Hada, M. Ehara, K. Toyota, R. Fukuda, 
 J. Hasegawa, M. Ishida, T. Nakajima, Y. Honda, O. Kitao, H. Nakai, 
 T. Vreven, K. Throssell, J. A. Montgomery, Jr., J. E. Peralta, 
 F. Ogliaro, M. J. Bearpark, J. J. Heyd, E. N. Brothers, K. N. Kudin, 
 V. N. Staroverov, T. A. Keith, R. Kobayashi, J. Normand, 
 K. Raghavachari, A. P. Rendell, J. C. Burant, S. S. Iyengar, 
 J. Tomasi, M. Cossi, J. M. Millam, M. Klene, C. Adamo, R. Cammi, 
 J. W. Ochterski, R. L. Martin, K. Morokuma, O. Farkas, 
 J. B. Foresman, and D. J. Fox, Gaussian, Inc., Wallingford CT, 2016.
 
 ******************************************
 Gaussian 16:  EM64W-G16RevA.03 17-Dec-2016
                03-Dec-2025 
 ******************************************
 %nprocs=   4
 Will use up to    4 processors via shared memory.
 ------------------------------------
 #P B3LYP/6-31G* SCF=conver=7 out=wfn
 ------------------------------------
 1/38=1,172=1/1;
 2/12=2,17=6,18=5,40=1/2;
 3/5=1,6=6,7=1,11=2,25=1,30=1,74=-5/1,2,3;
 4//1;
 5/5=2,6=7,38=5/2;
 6/7=2,8=2,9=2,10=2,28=1/1;
 99/5=1,6=100,9=1/99;
 Leave Link    1 at Wed Dec 03 16:43:04 2025, MaxMem=           0 cpu:               0.0 elap:               0.1
 (Enter D:\Gaussian\G16W\l101.exe)
 ----------------------------------------------------
 Generated by Multiwfn (http://sobereva.com/multiwfn)
 ----------------------------------------------------
 Symbolic Z-matrix:
 Charge = -1 Multiplicity = 1
 C                    -1.51955   0.05587   0. 
 C                    -0.55173   1.06529  -0.00003 
 C                     0.80376   0.76569  -0.00004 
 C                     1.27322  -0.62592   0. 
 C                     0.22827  -1.63103   0.00003 
 C                    -1.09901  -1.30151   0.00003 
 H                    -0.8669    2.1062   -0.00006 
 H                     0.56238  -2.66197   0.00004 
 O                     2.48447  -0.90684  -0.00001 
 H                    -1.85298  -2.08206   0.00004 
 O                     1.76843   1.7023   -0.00007 
 C                    -2.98626   0.38817   0.00008 
 H                    -3.48316  -0.03534  -0.8791 
 H                    -3.48281  -0.03429   0.87997 
 H                    -3.15811   1.46558  -0.00052 
 H                     1.36624   2.57892  -0.00007 
 
 ITRead=  0  0  0  0  0  0  0  0  0  0  0  0  0  0  0  0
 MicOpt= -1 -1 -1 -1 -1 -1 -1 -1 -1 -1 -1 -1 -1 -1 -1 -1
 NAtoms=     16 NQM=       16 NQMF=       0 NMMI=      0 NMMIF=      0
                NMic=       0 NMicF=      0.
                    Isotopes and Nuclear Properties:
 (Nuclear quadrupole moments (NQMom) in fm**2, nuclear magnetic moments (NMagM)
  in nuclear magnetons)

  Atom         1           2           3           4           5           6           7           8           9          10
 IAtWgt=          12          12          12          12          12          12           1           1          16           1
 AtmWgt=  12.0000000  12.0000000  12.0000000  12.0000000  12.0000000  12.0000000   1.0078250   1.0078250  15.9949146   1.0078250
 NucSpn=           0           0           0           0           0           0           1           1           0           1
 AtZEff=   0.0000000   0.0000000   0.0000000   0.0000000   0.0000000   0.0000000   0.0000000   0.0000000   0.0000000   0.0000000
 NQMom=    0.0000000   0.0000000   0.0000000   0.0000000   0.0000000   0.0000000   0.0000000   0.0000000   0.0000000   0.0000000
 NMagM=    0.0000000   0.0000000   0.0000000   0.0000000   0.0000000   0.0000000   2.7928460   2.7928460   0.0000000   2.7928460
 AtZNuc=   6.0000000   6.0000000   6.0000000   6.0000000   6.0000000   6.0000000   1.0000000   1.0000000   8.0000000   1.0000000

  Atom        11          12          13          14          15          16
 IAtWgt=          16          12           1           1           1           1
 AtmWgt=  15.9949146  12.0000000   1.0078250   1.0078250   1.0078250   1.0078250
 NucSpn=           0           0           1           1           1           1
 AtZEff=   0.0000000   0.0000000   0.0000000   0.0000000   0.0000000   0.0000000
 NQMom=    0.0000000   0.0000000   0.0000000   0.0000000   0.0000000   0.0000000
 NMagM=    0.0000000   0.0000000   2.7928460   2.7928460   2.7928460   2.7928460
 AtZNuc=   8.0000000   6.0000000   1.0000000   1.0000000   1.0000000   1.0000000
 Leave Link  101 at Wed Dec 03 16:43:04 2025, MaxMem=   104857600 cpu:               0.0 elap:               0.1
 (Enter D:\Gaussian\G16W\l202.exe)
                          Input orientation:                          
 ---------------------------------------------------------------------
 Center     Atomic      Atomic             Coordinates (Angstroms)
 Number     Number       Type             X           Y           Z
 ---------------------------------------------------------------------
      1          6           0       -1.519548    0.055869    0.000003
      2          6           0       -0.551731    1.065288   -0.000034
      3          6           0        0.803755    0.765685   -0.000037
      4          6           0        1.273216   -0.625921    0.000004
      5          6           0        0.228265   -1.631034    0.000026
      6          6           0       -1.099009   -1.301508    0.000026
      7          1           0       -0.866903    2.106204   -0.000063
      8          1           0        0.562377   -2.661966    0.000037
      9          8           0        2.484465   -0.906843   -0.000011
     10          1           0       -1.852978   -2.082064    0.000042
     11          8           0        1.768432    1.702299   -0.000074
     12          6           0       -2.986255    0.388170    0.000077
     13          1           0       -3.483156   -0.035340   -0.879103
     14          1           0       -3.482810   -0.034288    0.879967
     15          1           0       -3.158107    1.465581   -0.000518
     16          1           0        1.366238    2.578921   -0.000073
 ---------------------------------------------------------------------
                    Distance matrix (angstroms):
                    1          2          3          4          5
     1  C    0.000000
     2  C    1.398426   0.000000
     3  C    2.429316   1.388202   0.000000
     4  C    2.874781   2.488096   1.468660   0.000000
     5  C    2.429093   2.806875   2.464843   1.449888   0.000000
     6  C    1.421030   2.429246   2.809590   2.466550   1.367569
     7  H    2.151701   1.087584   2.141983   3.470535   3.894399
     8  H    3.423600   3.890200   3.436140   2.156565   1.083721
     9  O    4.118123   3.620468   2.371104   1.243399   2.369576
    10  H    2.163778   3.405741   3.894599   3.448687   2.129554
    11  O    3.677165   2.406021   1.344562   2.380304   3.671951
    12  C    1.503879   2.526934   3.808765   4.378524   3.796093
    13  H    2.153347   3.252291   4.448821   4.872852   4.134459
    14  H    2.153338   3.251875   4.448483   4.872797   4.134728
    15  H    2.161519   2.636936   4.023208   4.900102   4.588741
    16  H    3.833217   2.443295   1.898476   3.206192   4.361044
                    6          7          8          9         10
     6  C    0.000000
     7  H    3.415607   0.000000
     8  H    2.147335   4.977779   0.000000
     9  O    3.605142   4.506675   2.602860   0.000000
    10  H    1.085236   4.302782   2.483994   4.493835   0.000000
    11  O    4.152719   2.666108   4.527845   2.705610   5.237940
    12  C    2.533122   2.728240   4.679329   5.621907   2.717788
    13  H    2.839050   3.493380   4.902896   6.094655   2.760336
    14  H    2.839481   3.492725   4.903316   6.094595   2.761160
    15  H    3.449154   2.379078   5.556856   6.121031   3.780099
    16  H    4.597301   2.282626   5.302178   3.660735   5.664639
                   11         12         13         14         15
    11  O    0.000000
    12  C    4.932949   0.000000
    13  H    5.601005   1.095093   0.000000
    14  H    5.600513   1.095100   1.759070   0.000000
    15  H    4.932223   1.091031   1.769275   1.769263   0.000000
    16  H    0.964482   4.872739   5.578860   5.578225   4.659316
                   16
    16  H    0.000000
 Stoichiometry    C7H7O2(1-)
 Framework group  C1[X(C7H7O2)]
 Deg. of freedom    42
 Full point group                 C1      NOp   1
 Largest Abelian subgroup         C1      NOp   1
 Largest concise Abelian subgroup C1      NOp   1
                         Standard orientation:                         
 ---------------------------------------------------------------------
 Center     Atomic      Atomic             Coordinates (Angstroms)
 Number     Number       Type             X           Y           Z
 ---------------------------------------------------------------------
      1          6           0       -1.519548    0.055869    0.000003
      2          6           0       -0.551731    1.065288   -0.000034
      3          6           0        0.803755    0.765685   -0.000037
      4          6           0        1.273216   -0.625921    0.000004
      5          6           0        0.228265   -1.631034    0.000026
      6          6           0       -1.099009   -1.301508    0.000026
      7          1           0       -0.866903    2.106204   -0.000063
      8          1           0        0.562377   -2.661966    0.000037
      9          8           0        2.484465   -0.906843   -0.000011
     10          1           0       -1.852978   -2.082064    0.000042
     11          8           0        1.768432    1.702299   -0.000074
     12          6           0       -2.986255    0.388170    0.000077
     13          1           0       -3.483156   -0.035340   -0.879103
     14          1           0       -3.482810   -0.034288    0.879967
     15          1           0       -3.158107    1.465581   -0.000518
     16          1           0        1.366238    2.578921   -0.000073
 ---------------------------------------------------------------------
 Rotational constants (GHZ):           3.0564221           1.3622738           0.9477990
 Leave Link  202 at Wed Dec 03 16:43:04 2025, MaxMem=   104857600 cpu:               0.0 elap:               0.0
 (Enter D:\Gaussian\G16W\l301.exe)
 Standard basis: 6-31G(d) (6D, 7F)
 Ernie: Thresh=  0.10000D-02 Tol=  0.10000D-05 Strict=F.
 There are   149 symmetry adapted cartesian basis functions of A   symmetry.
 There are   149 symmetry adapted basis functions of A   symmetry.
   149 basis functions,   280 primitive gaussians,   149 cartesian basis functions
    33 alpha electrons       33 beta electrons
       nuclear repulsion energy       415.6655617141 Hartrees.
 IExCor=  402 DFT=T Ex+Corr=B3LYP ExCW=0 ScaHFX=  0.200000
 ScaDFX=  0.800000  0.720000  1.000000  0.810000 ScalE2=  1.000000  1.000000
 IRadAn=      5 IRanWt=     -1 IRanGd=            0 ICorTp=0 IEmpDi=  4
 NAtoms=   16 NActive=   16 NUniq=   16 SFac= 1.00D+00 NAtFMM=   60 NAOKFM=F Big=F
 Integral buffers will be    131072 words long.
 Raffenetti 2 integral format.
 Two-electron integral symmetry is turned on.
 Leave Link  301 at Wed Dec 03 16:43:04 2025, MaxMem=   104857600 cpu:               0.0 elap:               0.1
 (Enter D:\Gaussian\G16W\l302.exe)
 NPDir=0 NMtPBC=     1 NCelOv=     1 NCel=       1 NClECP=     1 NCelD=      1
         NCelK=      1 NCelE2=     1 NClLst=     1 CellRange=     0.0.
 One-electron integrals computed using PRISM.
 One-electron integral symmetry used in STVInt
 NBasis=   149 RedAO= T EigKep=  4.48D-04  NBF=   149
 NBsUse=   149 1.00D-06 EigRej= -1.00D+00 NBFU=   149
 Precomputing XC quadrature grid using
 IXCGrd= 4 IRadAn=           5 IRanWt=          -1 IRanGd=           0 AccXCQ= 0.00D+00.
 Generated NRdTot=       0 NPtTot=           0 NUsed=           0 NTot=          32
 NSgBfM=   149   149   149   149   149 MxSgAt=    16 MxSgA2=    16.
 Leave Link  302 at Wed Dec 03 16:43:04 2025, MaxMem=   104857600 cpu:               0.0 elap:               0.2
 (Enter D:\Gaussian\G16W\l303.exe)
 DipDrv:  MaxL=1.
 Leave Link  303 at Wed Dec 03 16:43:04 2025, MaxMem=   104857600 cpu:               0.0 elap:               0.1
 (Enter D:\Gaussian\G16W\l401.exe)
 ExpMin= 1.61D-01 ExpMax= 5.48D+03 ExpMxC= 8.25D+02 IAcc=3 IRadAn=         5 AccDes= 0.00D+00
 Harris functional with IExCor=  402 and IRadAn=       5 diagonalized for initial guess.
 HarFok:  IExCor=  402 AccDes= 0.00D+00 IRadAn=         5 IDoV= 1 UseB2=F ITyADJ=14
 ICtDFT=  3500011 ScaDFX=  1.000000  1.000000  1.000000  1.000000
 FoFCou: FMM=F IPFlag=           0 FMFlag=      100000 FMFlg1=           0
         NFxFlg=           0 DoJE=T BraDBF=F KetDBF=T FulRan=T
         wScrn=  0.000000 ICntrl=       500 IOpCl=  0 I1Cent=   200000004 NGrid=           0
         NMat0=    1 NMatS0=      1 NMatT0=    0 NMatD0=    1 NMtDS0=    0 NMtDT0=    0
 Petite list used in FoFCou.
 Harris En= -421.656751127354    
 JPrj=0 DoOrth=F DoCkMO=F.
 Leave Link  401 at Wed Dec 03 16:43:05 2025, MaxMem=   104857600 cpu:               1.0 elap:               0.8
 (Enter D:\Gaussian\G16W\l502.exe)
 Keep R1 ints in memory in canonical form, NReq=66347889.
 FoFCou: FMM=F IPFlag=           0 FMFlag=           0 FMFlg1=           0
         NFxFlg=           0 DoJE=F BraDBF=F KetDBF=F FulRan=T
         wScrn=  0.000000 ICntrl=       600 IOpCl=  0 I1Cent=           0 NGrid=           0
         NMat0=    1 NMatS0=  11175 NMatT0=    0 NMatD0=    1 NMtDS0=    0 NMtDT0=    0
 Symmetry not used in FoFCou.
 Two-electron integral symmetry not used.
 Closed shell SCF:
 Using DIIS extrapolation, IDIIS=  1040.
 NGot=   104857600 LenX=    42364643 LenY=    42342001
 Requested convergence on RMS density matrix=1.00D-07 within 128 cycles.
 Requested convergence on MAX density matrix=1.00D-05.
 Requested convergence on             energy=1.00D-05.
 No special actions if energy rises.
 Integral accuracy reduced to 1.0D-05 until final iterations.

 Cycle   1  Pass 0  IDiag  1:
 E= -421.052687073582    
 DIIS: error= 4.19D-02 at cycle   1 NSaved=   1.
 NSaved= 1 IEnMin= 1 EnMin= -421.052687073582     IErMin= 1 ErrMin= 4.19D-02
 ErrMax= 4.19D-02  0.00D+00 EMaxC= 1.00D-01 BMatC= 3.47D-01 BMatP= 3.47D-01
 IDIUse=3 WtCom= 5.81D-01 WtEn= 4.19D-01
 Coeff-Com:  0.100D+01
 Coeff-En:   0.100D+01
 Coeff:      0.100D+01
 Gap=     0.155 Goal=   None    Shift=    0.000
 GapD=    0.155 DampG=1.000 DampE=0.500 DampFc=0.5000 IDamp=-1.
 Damping current iteration by 5.00D-01
 RMSDP=1.40D-02 MaxDP=3.42D-01              OVMax= 3.96D-01

 Cycle   2  Pass 0  IDiag  1:
 E= -421.182944424333     Delta-E=       -0.130257350751 Rises=F Damp=T
 DIIS: error= 1.18D-02 at cycle   2 NSaved=   2.
 NSaved= 2 IEnMin= 2 EnMin= -421.182944424333     IErMin= 2 ErrMin= 1.18D-02
 ErrMax= 1.18D-02  0.00D+00 EMaxC= 1.00D-01 BMatC= 3.26D-02 BMatP= 3.47D-01
 IDIUse=3 WtCom= 8.82D-01 WtEn= 1.18D-01
 Coeff-Com:  0.146D+00 0.854D+00
 Coeff-En:   0.227D+00 0.773D+00
 Coeff:      0.156D+00 0.844D+00
 Gap=     0.250 Goal=   None    Shift=    0.000
 RMSDP=4.31D-03 MaxDP=1.19D-01 DE=-1.30D-01 OVMax= 2.90D-01

 Cycle   3  Pass 0  IDiag  1:
 E= -421.361299126369     Delta-E=       -0.178354702036 Rises=F Damp=F
 DIIS: error= 1.49D-02 at cycle   3 NSaved=   3.
 NSaved= 3 IEnMin= 3 EnMin= -421.361299126369     IErMin= 2 ErrMin= 1.18D-02
 ErrMax= 1.49D-02  0.00D+00 EMaxC= 1.00D-01 BMatC= 4.78D-02 BMatP= 3.26D-02
 IDIUse=2 WtCom= 0.00D+00 WtEn= 1.00D+00
 Coeff-En:   0.000D+00 0.000D+00 0.100D+01
 Coeff:      0.000D+00 0.000D+00 0.100D+01
 Gap=     0.181 Goal=   None    Shift=    0.000
 RMSDP=6.60D-03 MaxDP=1.75D-01 DE=-1.78D-01 OVMax= 3.70D-01

 Cycle   4  Pass 0  IDiag  1:
 E= -421.136650348366     Delta-E=        0.224648778003 Rises=F Damp=F
 DIIS: error= 3.84D-02 at cycle   4 NSaved=   4.
 NSaved= 4 IEnMin= 3 EnMin= -421.361299126369     IErMin= 2 ErrMin= 1.18D-02
 ErrMax= 3.84D-02  0.00D+00 EMaxC= 1.00D-01 BMatC= 3.02D-01 BMatP= 3.26D-02
 IDIUse=2 WtCom= 0.00D+00 WtEn= 1.00D+00
 Coeff-En:   0.000D+00 0.000D+00 0.808D+00 0.192D+00
 Coeff:      0.000D+00 0.000D+00 0.808D+00 0.192D+00
 Gap=     0.174 Goal=   None    Shift=    0.000
 RMSDP=3.80D-03 MaxDP=1.07D-01 DE= 2.25D-01 OVMax= 1.92D-01

 Cycle   5  Pass 0  IDiag  1:
 E= -421.384478866365     Delta-E=       -0.247828517999 Rises=F Damp=F
 DIIS: error= 1.03D-02 at cycle   5 NSaved=   5.
 NSaved= 5 IEnMin= 5 EnMin= -421.384478866365     IErMin= 5 ErrMin= 1.03D-02
 ErrMax= 1.03D-02  0.00D+00 EMaxC= 1.00D-01 BMatC= 2.28D-02 BMatP= 3.26D-02
 IDIUse=3 WtCom= 8.97D-01 WtEn= 1.03D-01
 Coeff-Com:  0.163D-02 0.708D-02 0.371D+00-0.352D-01 0.656D+00
 Coeff-En:   0.000D+00 0.000D+00 0.358D+00 0.000D+00 0.642D+00
 Coeff:      0.146D-02 0.635D-02 0.369D+00-0.316D-01 0.654D+00
 Gap=     0.170 Goal=   None    Shift=    0.000
 RMSDP=1.26D-03 MaxDP=3.22D-02 DE=-2.48D-01 OVMax= 6.53D-02

 Cycle   6  Pass 0  IDiag  1:
 E= -421.404291262519     Delta-E=       -0.019812396154 Rises=F Damp=F
 DIIS: error= 1.18D-03 at cycle   6 NSaved=   6.
 NSaved= 6 IEnMin= 6 EnMin= -421.404291262519     IErMin= 6 ErrMin= 1.18D-03
 ErrMax= 1.18D-03  0.00D+00 EMaxC= 1.00D-01 BMatC= 3.06D-04 BMatP= 2.28D-02
 IDIUse=3 WtCom= 9.88D-01 WtEn= 1.18D-02
 Coeff-Com: -0.309D-02 0.118D-01 0.155D+00-0.539D-01 0.407D+00 0.483D+00
 Coeff-En:   0.000D+00 0.000D+00 0.000D+00 0.000D+00 0.000D+00 0.100D+01
 Coeff:     -0.306D-02 0.117D-01 0.153D+00-0.532D-01 0.402D+00 0.489D+00
 Gap=     0.168 Goal=   None    Shift=    0.000
 RMSDP=1.60D-04 MaxDP=4.97D-03 DE=-1.98D-02 OVMax= 1.08D-02

 Cycle   7  Pass 0  IDiag  1:
 E= -421.404615686131     Delta-E=       -0.000324423612 Rises=F Damp=F
 DIIS: error= 2.09D-04 at cycle   7 NSaved=   7.
 NSaved= 7 IEnMin= 7 EnMin= -421.404615686131     IErMin= 7 ErrMin= 2.09D-04
 ErrMax= 2.09D-04  0.00D+00 EMaxC= 1.00D-01 BMatC= 1.62D-05 BMatP= 3.06D-04
 IDIUse=3 WtCom= 9.98D-01 WtEn= 2.09D-03
 Coeff-Com: -0.853D-03 0.234D-02 0.540D-01-0.214D-01 0.144D+00 0.230D+00
 Coeff-Com:  0.592D+00
 Coeff-En:   0.000D+00 0.000D+00 0.000D+00 0.000D+00 0.000D+00 0.000D+00
 Coeff-En:   0.100D+01
 Coeff:     -0.851D-03 0.233D-02 0.539D-01-0.214D-01 0.144D+00 0.230D+00
 Coeff:      0.593D+00
 Gap=     0.168 Goal=   None    Shift=    0.000
 RMSDP=3.31D-05 MaxDP=6.15D-04 DE=-3.24D-04 OVMax= 2.24D-03

 Cycle   8  Pass 0  IDiag  1:
 E= -421.404629527809     Delta-E=       -0.000013841679 Rises=F Damp=F
 DIIS: error= 1.11D-04 at cycle   8 NSaved=   8.
 NSaved= 8 IEnMin= 8 EnMin= -421.404629527809     IErMin= 8 ErrMin= 1.11D-04
 ErrMax= 1.11D-04  0.00D+00 EMaxC= 1.00D-01 BMatC= 2.39D-06 BMatP= 1.62D-05
 IDIUse=3 WtCom= 9.99D-01 WtEn= 1.11D-03
 Coeff-Com:  0.284D-03-0.114D-02 0.788D-02-0.311D-02 0.158D-01 0.494D-01
 Coeff-Com:  0.325D+00 0.606D+00
 Coeff-En:   0.000D+00 0.000D+00 0.000D+00 0.000D+00 0.000D+00 0.000D+00
 Coeff-En:   0.000D+00 0.100D+01
 Coeff:      0.284D-03-0.114D-02 0.787D-02-0.310D-02 0.158D-01 0.494D-01
 Coeff:      0.325D+00 0.606D+00
 Gap=     0.168 Goal=   None    Shift=    0.000
 RMSDP=1.39D-05 MaxDP=3.67D-04 DE=-1.38D-05 OVMax= 5.28D-04

 Cycle   9  Pass 0  IDiag  1:
 E= -421.404631737928     Delta-E=       -0.000002210119 Rises=F Damp=F
 DIIS: error= 1.50D-05 at cycle   9 NSaved=   9.
 NSaved= 9 IEnMin= 9 EnMin= -421.404631737928     IErMin= 9 ErrMin= 1.50D-05
 ErrMax= 1.50D-05  0.00D+00 EMaxC= 1.00D-01 BMatC= 5.14D-08 BMatP= 2.39D-06
 IDIUse=1 WtCom= 1.00D+00 WtEn= 0.00D+00
 Coeff-Com:  0.156D-03-0.454D-03 0.510D-03-0.324D-03-0.570D-03 0.100D-01
 Coeff-Com:  0.105D+00 0.245D+00 0.641D+00
 Coeff:      0.156D-03-0.454D-03 0.510D-03-0.324D-03-0.570D-03 0.100D-01
 Coeff:      0.105D+00 0.245D+00 0.641D+00
 Gap=     0.168 Goal=   None    Shift=    0.000
 RMSDP=2.85D-06 MaxDP=8.42D-05 DE=-2.21D-06 OVMax= 1.69D-04

 Initial convergence to 1.0D-05 achieved.  Increase integral accuracy.
 Cycle  10  Pass 1  IDiag  1:
 E= -421.404613211800     Delta-E=        0.000018526128 Rises=F Damp=F
 DIIS: error= 1.14D-05 at cycle   1 NSaved=   1.
 NSaved= 1 IEnMin= 1 EnMin= -421.404613211800     IErMin= 1 ErrMin= 1.14D-05
 ErrMax= 1.14D-05  0.00D+00 EMaxC= 1.00D-01 BMatC= 2.35D-08 BMatP= 2.35D-08
 IDIUse=1 WtCom= 1.00D+00 WtEn= 0.00D+00
 Coeff-Com:  0.100D+01
 Coeff:      0.100D+01
 Gap=     0.168 Goal=   None    Shift=    0.000
 RMSDP=2.85D-06 MaxDP=8.42D-05 DE= 1.85D-05 OVMax= 2.25D-04

 Cycle  11  Pass 1  IDiag  1:
 E= -421.404613153787     Delta-E=        0.000000058012 Rises=F Damp=F
 DIIS: error= 2.43D-05 at cycle   2 NSaved=   2.
 NSaved= 2 IEnMin= 1 EnMin= -421.404613211800     IErMin= 1 ErrMin= 1.14D-05
 ErrMax= 2.43D-05  0.00D+00 EMaxC= 1.00D-01 BMatC= 7.38D-08 BMatP= 2.35D-08
 IDIUse=1 WtCom= 1.00D+00 WtEn= 0.00D+00
 Coeff-Com:  0.647D+00 0.353D+00
 Coeff:      0.647D+00 0.353D+00
 Gap=     0.168 Goal=   None    Shift=    0.000
 RMSDP=2.54D-06 MaxDP=5.49D-05 DE= 5.80D-08 OVMax= 1.60D-04

 Cycle  12  Pass 1  IDiag  1:
 E= -421.404613238608     Delta-E=       -0.000000084821 Rises=F Damp=F
 DIIS: error= 2.08D-06 at cycle   3 NSaved=   3.
 NSaved= 3 IEnMin= 3 EnMin= -421.404613238608     IErMin= 3 ErrMin= 2.08D-06
 ErrMax= 2.08D-06  0.00D+00 EMaxC= 1.00D-01 BMatC= 1.37D-09 BMatP= 2.35D-08
 IDIUse=1 WtCom= 1.00D+00 WtEn= 0.00D+00
 Coeff-Com:  0.227D+00 0.161D+00 0.613D+00
 Coeff:      0.227D+00 0.161D+00 0.613D+00
 Gap=     0.168 Goal=   None    Shift=    0.000
 RMSDP=4.65D-07 MaxDP=1.09D-05 DE=-8.48D-08 OVMax= 2.85D-05

 Cycle  13  Pass 1  IDiag  1:
 E= -421.404613239446     Delta-E=       -0.000000000837 Rises=F Damp=F
 DIIS: error= 1.47D-06 at cycle   4 NSaved=   4.
 NSaved= 4 IEnMin= 4 EnMin= -421.404613239446     IErMin= 4 ErrMin= 1.47D-06
 ErrMax= 1.47D-06  0.00D+00 EMaxC= 1.00D-01 BMatC= 6.30D-10 BMatP= 1.37D-09
 IDIUse=1 WtCom= 1.00D+00 WtEn= 0.00D+00
 Coeff-Com:  0.449D-02 0.308D-01 0.425D+00 0.539D+00
 Coeff:      0.449D-02 0.308D-01 0.425D+00 0.539D+00
 Gap=     0.168 Goal=   None    Shift=    0.000
 RMSDP=2.37D-07 MaxDP=5.97D-06 DE=-8.37D-10 OVMax= 1.21D-05

 Cycle  14  Pass 1  IDiag  1:
 E= -421.404613239962     Delta-E=       -0.000000000516 Rises=F Damp=F
 DIIS: error= 5.12D-07 at cycle   5 NSaved=   5.
 NSaved= 5 IEnMin= 5 EnMin= -421.404613239962     IErMin= 5 ErrMin= 5.12D-07
 ErrMax= 5.12D-07  0.00D+00 EMaxC= 1.00D-01 BMatC= 6.29D-11 BMatP= 6.30D-10
 IDIUse=1 WtCom= 1.00D+00 WtEn= 0.00D+00
 Coeff-Com: -0.103D-01 0.109D-01 0.231D+00 0.349D+00 0.419D+00
 Coeff:     -0.103D-01 0.109D-01 0.231D+00 0.349D+00 0.419D+00
 Gap=     0.168 Goal=   None    Shift=    0.000
 RMSDP=6.75D-08 MaxDP=1.70D-06 DE=-5.16D-10 OVMax= 3.56D-06

 SCF Done:  E(RB3LYP) =  -421.404613240     A.U. after   14 cycles
            NFock= 14  Conv=0.68D-07     -V/T= 2.0083
 KE= 4.179187860804D+02 PE=-1.827133096305D+03 EE= 5.721441352708D+02
 Leave Link  502 at Wed Dec 03 16:43:16 2025, MaxMem=   104857600 cpu:              11.0 elap:              11.3
 (Enter D:\Gaussian\G16W\l601.exe)
 Copying SCF densities to generalized density rwf, IOpCl= 0 IROHF=0.

 **********************************************************************

            Population analysis using the SCF density.

 **********************************************************************

 Orbital symmetries:
       Occupied  (A) (A) (A) (A) (A) (A) (A) (A) (A) (A) (A) (A)
                 (A) (A) (A) (A) (A) (A) (A) (A) (A) (A) (A) (A)
                 (A) (A) (A) (A) (A) (A) (A) (A) (A)
       Virtual   (A) (A) (A) (A) (A) (A) (A) (A) (A) (A) (A) (A)
                 (A) (A) (A) (A) (A) (A) (A) (A) (A) (A) (A) (A)
                 (A) (A) (A) (A) (A) (A) (A) (A) (A) (A) (A) (A)
                 (A) (A) (A) (A) (A) (A) (A) (A) (A) (A) (A) (A)
                 (A) (A) (A) (A) (A) (A) (A) (A) (A) (A) (A) (A)
                 (A) (A) (A) (A) (A) (A) (A) (A) (A) (A) (A) (A)
                 (A) (A) (A) (A) (A) (A) (A) (A) (A) (A) (A) (A)
                 (A) (A) (A) (A) (A) (A) (A) (A) (A) (A) (A) (A)
                 (A) (A) (A) (A) (A) (A) (A) (A) (A) (A) (A) (A)
                 (A) (A) (A) (A) (A) (A) (A) (A)
 The electronic state is 1-A.
 Alpha  occ. eigenvalues --  -18.99963 -18.86272 -10.03720 -10.03608 -10.02633
 Alpha  occ. eigenvalues --  -10.00211  -9.99633  -9.99522  -9.97425  -0.88728
 Alpha  occ. eigenvalues --   -0.76877  -0.65010  -0.57348  -0.54881  -0.48390
 Alpha  occ. eigenvalues --   -0.43460  -0.38411  -0.35206  -0.29302  -0.28053
 Alpha  occ. eigenvalues --   -0.26857  -0.24688  -0.24223  -0.22423  -0.21172
 Alpha  occ. eigenvalues --   -0.18880  -0.16903  -0.15208  -0.15110  -0.10888
 Alpha  occ. eigenvalues --   -0.04822  -0.00832   0.03553
 Alpha virt. eigenvalues --    0.20362   0.21889   0.22065   0.24214   0.27543
 Alpha virt. eigenvalues --    0.28902   0.31465   0.32920   0.35049   0.38448
 Alpha virt. eigenvalues --    0.39782   0.43771   0.46492   0.51388   0.52770
 Alpha virt. eigenvalues --    0.55303   0.57854   0.65898   0.68237   0.68482
 Alpha virt. eigenvalues --    0.72042   0.72771   0.73817   0.75611   0.78086
 Alpha virt. eigenvalues --    0.79552   0.80027   0.83593   0.83920   0.85514
 Alpha virt. eigenvalues --    0.87139   0.89509   0.90120   0.91967   0.92622
 Alpha virt. eigenvalues --    0.96753   0.97447   1.00886   1.02391   1.02431
 Alpha virt. eigenvalues --    1.05221   1.07790   1.09678   1.10281   1.11782
 Alpha virt. eigenvalues --    1.12666   1.15605   1.19847   1.25025   1.26483
 Alpha virt. eigenvalues --    1.27687   1.29617   1.31235   1.38752   1.41617
 Alpha virt. eigenvalues --    1.44071   1.46547   1.51107   1.55021   1.57489
 Alpha virt. eigenvalues --    1.59064   1.63453   1.64562   1.66475   1.68752
 Alpha virt. eigenvalues --    1.84103   1.90060   1.91655   1.92343   1.99742
 Alpha virt. eigenvalues --    2.01960   2.03535   2.05667   2.06934   2.07621
 Alpha virt. eigenvalues --    2.11399   2.11590   2.14831   2.15438   2.18081
 Alpha virt. eigenvalues --    2.26370   2.28256   2.28925   2.32948   2.34391
 Alpha virt. eigenvalues --    2.42186   2.49646   2.50480   2.51037   2.52788
 Alpha virt. eigenvalues --    2.54216   2.56688   2.64072   2.65004   2.78676
 Alpha virt. eigenvalues --    2.80209   2.84050   2.88124   2.90708   2.96319
 Alpha virt. eigenvalues --    3.02378   3.04189   3.09657   3.13721   3.26009
 Alpha virt. eigenvalues --    3.43963   3.58310   4.02524   4.27171   4.28634
 Alpha virt. eigenvalues --    4.37023   4.38669   4.50381   4.57513   4.75443
 Alpha virt. eigenvalues --    5.15499
          Condensed to atoms (all electrons):
               1          2          3          4          5          6
     1  C    4.722394   0.498374  -0.002189  -0.029842  -0.024944   0.547821
     2  C    0.498374   5.285289   0.402456  -0.024411  -0.036909  -0.038978
     3  C   -0.002189   0.402456   5.150905   0.288709  -0.086175  -0.043441
     4  C   -0.029842  -0.024411   0.288709   4.449724   0.450026  -0.003543
     5  C   -0.024944  -0.036909  -0.086175   0.450026   5.319702   0.432896
     6  C    0.547821  -0.038978  -0.043441  -0.003543   0.432896   5.078153
     7  H   -0.035894   0.300700  -0.053729   0.002802   0.000000   0.007439
     8  H    0.005428   0.000107   0.011295  -0.031143   0.308292  -0.056955
     9  O    0.000000   0.007081  -0.100633   0.550558  -0.089103   0.006533
    10  H   -0.061544   0.007765  -0.000427   0.004022  -0.044897   0.328351
    11  O    0.004294  -0.068830   0.250507  -0.043208   0.002947   0.000510
    12  C    0.328517  -0.046795   0.007830   0.000304   0.007236  -0.077384
    13  H   -0.036302   0.000305  -0.000072   0.000021   0.000159  -0.002757
    14  H   -0.036319   0.000300  -0.000072   0.000021   0.000159  -0.002757
    15  H   -0.024178  -0.004923  -0.000115  -0.000006  -0.000152   0.003897
    16  H    0.000533  -0.008527  -0.039022   0.006477  -0.000264  -0.000009
               7          8          9         10         11         12
     1  C   -0.035894   0.005428   0.000000  -0.061544   0.004294   0.328517
     2  C    0.300700   0.000107   0.007081   0.007765  -0.068830  -0.046795
     3  C   -0.053729   0.011295  -0.100633  -0.000427   0.250507   0.007830
     4  C    0.002802  -0.031143   0.550558   0.004022  -0.043208   0.000304
     5  C    0.000000   0.308292  -0.089103  -0.044897   0.002947   0.007236
     6  C    0.007439  -0.056955   0.006533   0.328351   0.000510  -0.077384
     7  H    0.754480   0.000029  -0.000093  -0.000286  -0.005973  -0.016917
     8  H    0.000029   0.727511   0.003673  -0.009885  -0.000066  -0.000243
     9  O   -0.000093   0.003673   8.297952  -0.000101   0.000693   0.000000
    10  H   -0.000286  -0.009885  -0.000101   0.748727   0.000003  -0.011796
    11  O   -0.005973  -0.000066   0.000693   0.000003   8.268943  -0.000081
    12  C   -0.016917  -0.000243   0.000000  -0.011796  -0.000081   5.281896
    13  H    0.000153  -0.000002   0.000000   0.002887   0.000000   0.349432
    14  H    0.000154  -0.000002   0.000000   0.002879   0.000000   0.349415
    15  H    0.009735   0.000004   0.000000   0.000003  -0.000001   0.348597
    16  H    0.011449   0.000010  -0.000298  -0.000001   0.231010  -0.000029
              13         14         15         16
     1  C   -0.036302  -0.036319  -0.024178   0.000533
     2  C    0.000305   0.000300  -0.004923  -0.008527
     3  C   -0.000072  -0.000072  -0.000115  -0.039022
     4  C    0.000021   0.000021  -0.000006   0.006477
     5  C    0.000159   0.000159  -0.000152  -0.000264
     6  C   -0.002757  -0.002757   0.003897  -0.000009
     7  H    0.000153   0.000154   0.009735   0.011449
     8  H   -0.000002  -0.000002   0.000004   0.000010
     9  O    0.000000   0.000000   0.000000  -0.000298
    10  H    0.002887   0.002879   0.000003  -0.000001
    11  O    0.000000   0.000000  -0.000001   0.231010
    12  C    0.349432   0.349415   0.348597  -0.000029
    13  H    0.663694  -0.053518  -0.033234   0.000000
    14  H   -0.053518   0.663772  -0.033261   0.000000
    15  H   -0.033234  -0.033261   0.626948   0.000007
    16  H    0.000000   0.000000   0.000007   0.434771
 Mulliken charges:
               1
     1  C    0.143851
     2  C   -0.273005
     3  C    0.214175
     4  C    0.379489
     5  C   -0.238975
     6  C   -0.179776
     7  H    0.025952
     8  H    0.041947
     9  O   -0.676261
    10  H    0.034300
    11  O   -0.640749
    12  C   -0.519980
    13  H    0.109232
    14  H    0.109227
    15  H    0.106681
    16  H    0.363893
 Sum of Mulliken charges =  -1.00000
 Mulliken charges with hydrogens summed into heavy atoms:
               1
     1  C    0.143851
     2  C   -0.247054
     3  C    0.214175
     4  C    0.379489
     5  C   -0.197027
     6  C   -0.145476
     9  O   -0.676261
    11  O   -0.276856
    12  C   -0.194841
 Electronic spatial extent (au):  <R**2>=           1217.7005
 Charge=             -1.0000 electrons
 Dipole moment (field-independent basis, Debye):
    X=             -5.0901    Y=              3.3039    Z=              0.0000  Tot=              6.0683
 Quadrupole moment (field-independent basis, Debye-Ang):
   XX=            -80.6054   YY=            -54.5257   ZZ=            -56.7391
   XY=              4.9803   XZ=              0.0005   YZ=             -0.0001
 Traceless Quadrupole moment (field-independent basis, Debye-Ang):
   XX=            -16.6487   YY=              9.4310   ZZ=              7.2176
   XY=              4.9803   XZ=              0.0005   YZ=             -0.0001
 Octapole moment (field-independent basis, Debye-Ang**2):
  XXX=            -18.8544  YYY=             28.4552  ZZZ=              0.0001  XYY=              3.5406
  XXY=             10.8228  XXZ=             -0.0013  XZZ=              7.6847  YZZ=              2.8793
  YYZ=             -0.0009  XYZ=              0.0002
 Hexadecapole moment (field-independent basis, Debye-Ang**3):
 XXXX=          -1255.8338 YYYY=           -448.3855 ZZZZ=            -63.2011 XXXY=             44.0610
 XXXZ=              0.0190 YYYX=             30.1906 YYYZ=              0.0023 ZZZX=              0.0085
 ZZZY=              0.0050 XXYY=           -278.7503 XXZZ=           -186.9325 YYZZ=            -99.3782
 XXYZ=              0.0018 YYXZ=              0.0049 ZZXY=              2.6298
 N-N= 4.156655617141D+02 E-N=-1.827133065697D+03  KE= 4.179187860804D+02
 No NMR shielding tensors so no spin-rotation constants.
 Leave Link  601 at Wed Dec 03 16:43:17 2025, MaxMem=   104857600 cpu:               1.0 elap:               0.2
 (Enter D:\Gaussian\G16W\l9999.exe)
 1|1|UNPC-PC-20250526LCFF|SP|RB3LYP|6-31G(d)|C7H7O2(1-)|ADMINISTRATOR|0
 3-Dec-2025|0||#P B3LYP/6-31G* SCF=conver=7 out=wfn||Generated by Multi
 wfn (http://sobereva.com/multiwfn)||-1,1|C,0,-1.519548,0.055869,0.0000
 03|C,0,-0.551731,1.065288,-0.000034|C,0,0.803755,0.765685,-0.000037|C,
 0,1.273216,-0.625921,0.000004|C,0,0.228265,-1.631034,0.000026|C,0,-1.0
 99009,-1.301508,0.000026|H,0,-0.866903,2.106204,-0.000063|H,0,0.562377
 ,-2.661966,0.000037|O,0,2.484465,-0.906843,-0.000011|H,0,-1.852978,-2.
 082064,0.000042|O,0,1.768432,1.702299,-0.000074|C,0,-2.986255,0.38817,
 0.000077|H,0,-3.483156,-0.03534,-0.879103|H,0,-3.48281,-0.034288,0.879
 967|H,0,-3.158107,1.465581,-0.000518|H,0,1.366238,2.578921,-0.000073||
 Version=EM64W-G16RevA.03|State=1-A|HF=-421.4046132|RMSD=6.754e-008|Dip
 ole=-2.0025867,1.2998591,0.0000128|Quadrupole=-12.3778749,7.0117393,5.
 3661357,3.702712,0.0003698,-0.0000631|PG=C01 [X(C7H7O2)]||@

 Writing a WFN file to "N+1.wfn"


 I MET A TRAVELLER FROM AN ANTIQUE LAND
 WHO SAID... TWO VAST AND TRUNKLESS LEGS OF STONE
 STAND IN THE DESERT..... NEAR THEM,  ON THE SAND,
 HALF SUNK,  A SHATTERED VISAGE LIES,  WHOSE FROWN,
 AND WRINKLED LIP,  AND SNEER OF COLD COMMAND
 TELL THAT ITS SCULPTOR WELL THOSE PASSIONS READ
 WHICH YET SURVIVE,  STAMPED ON THESE LIFELESS THINGS
 THE HAND THAT MOCKED THEM,  AND THE HEART THAT FED-
 AND ON THE PEDESTAL THESE WORDS APPEAR 
 MY NAME IS OZYMANDIAS, KING OF KINGS--   
 LOOK ON MY WORKS YE MIGHTY AND DESPAIR. 
 NOTHING BESIDE REMAINS,  ROUND THE DECAY 
 OF THAT COLOSSAL WRECK,  BOUNDLESS AND BARE
 THE LONE AND LEVEL SANDS STRETCH FAR AWAY.
                                    SHELLEY
 Job cpu time:       0 days  0 hours  0 minutes 13.0 seconds.
 Elapsed time:       0 days  0 hours  0 minutes 13.0 seconds.
 File lengths (MBytes):  RWF=     15 Int=      0 D2E=      0 Chk=      2 Scr=      1
 Normal termination of Gaussian 16 at Wed Dec 03 16:43:17 2025.
