 Generated by Multiwfn (http://sobereva.com/multiwfn)
GAUSSIAN             33 MOL ORBITALS    280 PRIMITIVES       16 NUCLEI
  C    1    (CENTRE  1)  -2.87152940  0.10557749  0.00000570  CHARGE =  6.0
  C    2    (CENTRE  2)  -1.04262028  2.01310289 -0.00006422  CHARGE =  6.0
  C    3    (CENTRE  3)   1.51887701  1.44693519 -0.00006989  CHARGE =  6.0
  C    4    (CENTRE  4)   2.40602965 -1.18281905  0.00000759  CHARGE =  6.0
  C    5    (CENTRE  5)   0.43135838 -3.08220728  0.00004916  CHARGE =  6.0
  C    6    (CENTRE  6)  -2.07682595 -2.45949331  0.00004916  CHARGE =  6.0
  H    7    (CENTRE  7)  -1.63820898  3.98014906 -0.00011902  CHARGE =  1.0
  H    8    (CENTRE  8)   1.06273850 -5.03038644  0.00006995  CHARGE =  1.0
  O    9    (CENTRE  9)   4.69495851 -1.71368476 -0.00002076  CHARGE =  8.0
  H   10    (CENTRE 10)  -3.50162091 -3.93453033  0.00007940  CHARGE =  1.0
  O   11    (CENTRE 11)   3.34185240  3.21687908 -0.00013981  CHARGE =  8.0
  C   12    (CENTRE 12)  -5.64320392  0.73353546  0.00014554  CHARGE =  6.0
  H   13    (CENTRE 13)  -6.58221075 -0.06678242 -1.66126388  CHARGE =  1.0
  H   14    (CENTRE 14)  -6.58155690 -0.06479443  1.66289666  CHARGE =  1.0
  H   15    (CENTRE 15)  -5.96795707  2.76954718 -0.00097885  CHARGE =  1.0
  H   16    (CENTRE 16)   2.58181594  4.87345460 -0.00013792  CHARGE =  1.0
CENTRE ASSIGNMENTS    1  1  1  1  1  1  1  1  1  1  1  1  1  1  1  1  1  1  1  1
CENTRE ASSIGNMENTS    1  1  1  1  1  1  1  1  2  2  2  2  2  2  2  2  2  2  2  2
CENTRE ASSIGNMENTS    2  2  2  2  2  2  2  2  2  2  2  2  2  2  2  2  3  3  3  3
CENTRE ASSIGNMENTS    3  3  3  3  3  3  3  3  3  3  3  3  3  3  3  3  3  3  3  3
CENTRE ASSIGNMENTS    3  3  3  3  4  4  4  4  4  4  4  4  4  4  4  4  4  4  4  4
CENTRE ASSIGNMENTS    4  4  4  4  4  4  4  4  4  4  4  4  5  5  5  5  5  5  5  5
CENTRE ASSIGNMENTS    5  5  5  5  5  5  5  5  5  5  5  5  5  5  5  5  5  5  5  5
CENTRE ASSIGNMENTS    6  6  6  6  6  6  6  6  6  6  6  6  6  6  6  6  6  6  6  6
CENTRE ASSIGNMENTS    6  6  6  6  6  6  6  6  7  7  7  7  8  8  8  8  9  9  9  9
CENTRE ASSIGNMENTS    9  9  9  9  9  9  9  9  9  9  9  9  9  9  9  9  9  9  9  9
CENTRE ASSIGNMENTS    9  9  9  9 10 10 10 10 11 11 11 11 11 11 11 11 11 11 11 11
CENTRE ASSIGNMENTS   11 11 11 11 11 11 11 11 11 11 11 11 11 11 11 11 12 12 12 12
CENTRE ASSIGNMENTS   12 12 12 12 12 12 12 12 12 12 12 12 12 12 12 12 12 12 12 12
CENTRE ASSIGNMENTS   12 12 12 12 13 13 13 13 14 14 14 14 15 15 15 15 16 16 16 16
TYPE ASSIGNMENTS      1  1  1  1  1  1  1  1  1  2  2  2  3  3  3  4  4  4  1  2
TYPE ASSIGNMENTS      3  4  5  6  7  8  9 10  1  1  1  1  1  1  1  1  1  2  2  2
TYPE ASSIGNMENTS      3  3  3  4  4  4  1  2  3  4  5  6  7  8  9 10  1  1  1  1
TYPE ASSIGNMENTS      1  1  1  1  1  2  2  2  3  3  3  4  4  4  1  2  3  4  5  6
TYPE ASSIGNMENTS      7  8  9 10  1  1  1  1  1  1  1  1  1  2  2  2  3  3  3  4
TYPE ASSIGNMENTS      4  4  1  2  3  4  5  6  7  8  9 10  1  1  1  1  1  1  1  1
TYPE ASSIGNMENTS      1  2  2  2  3  3  3  4  4  4  1  2  3  4  5  6  7  8  9 10
TYPE ASSIGNMENTS      1  1  1  1  1  1  1  1  1  2  2  2  3  3  3  4  4  4  1  2
TYPE ASSIGNMENTS      3  4  5  6  7  8  9 10  1  1  1  1  1  1  1  1  1  1  1  1
TYPE ASSIGNMENTS      1  1  1  1  1  2  2  2  3  3  3  4  4  4  1  2  3  4  5  6
TYPE ASSIGNMENTS      7  8  9 10  1  1  1  1  1  1  1  1  1  1  1  1  1  2  2  2
TYPE ASSIGNMENTS      3  3  3  4  4  4  1  2  3  4  5  6  7  8  9 10  1  1  1  1
TYPE ASSIGNMENTS      1  1  1  1  1  2  2  2  3  3  3  4  4  4  1  2  3  4  5  6
TYPE ASSIGNMENTS      7  8  9 10  1  1  1  1  1  1  1  1  1  1  1  1  1  1  1  1
EXPONENTS  0.3047525D+04 0.4573695D+03 0.1039487D+03 0.2921016D+02 0.9286663D+01
EXPONENTS  0.3163927D+01 0.7868272D+01 0.1881289D+01 0.5442493D+00 0.7868272D+01
EXPONENTS  0.1881289D+01 0.5442493D+00 0.7868272D+01 0.1881289D+01 0.5442493D+00
EXPONENTS  0.7868272D+01 0.1881289D+01 0.5442493D+00 0.1687145D+00 0.1687145D+00
EXPONENTS  0.1687145D+00 0.1687145D+00 0.8000000D+00 0.8000000D+00 0.8000000D+00
EXPONENTS  0.8000000D+00 0.8000000D+00 0.8000000D+00 0.3047525D+04 0.4573695D+03
EXPONENTS  0.1039487D+03 0.2921016D+02 0.9286663D+01 0.3163927D+01 0.7868272D+01
EXPONENTS  0.1881289D+01 0.5442493D+00 0.7868272D+01 0.1881289D+01 0.5442493D+00
EXPONENTS  0.7868272D+01 0.1881289D+01 0.5442493D+00 0.7868272D+01 0.1881289D+01
EXPONENTS  0.5442493D+00 0.1687145D+00 0.1687145D+00 0.1687145D+00 0.1687145D+00
EXPONENTS  0.8000000D+00 0.8000000D+00 0.8000000D+00 0.8000000D+00 0.8000000D+00
EXPONENTS  0.8000000D+00 0.3047525D+04 0.4573695D+03 0.1039487D+03 0.2921016D+02
EXPONENTS  0.9286663D+01 0.3163927D+01 0.7868272D+01 0.1881289D+01 0.5442493D+00
EXPONENTS  0.7868272D+01 0.1881289D+01 0.5442493D+00 0.7868272D+01 0.1881289D+01
EXPONENTS  0.5442493D+00 0.7868272D+01 0.1881289D+01 0.5442493D+00 0.1687145D+00
EXPONENTS  0.1687145D+00 0.1687145D+00 0.1687145D+00 0.8000000D+00 0.8000000D+00
EXPONENTS  0.8000000D+00 0.8000000D+00 0.8000000D+00 0.8000000D+00 0.3047525D+04
EXPONENTS  0.4573695D+03 0.1039487D+03 0.2921016D+02 0.9286663D+01 0.3163927D+01
EXPONENTS  0.7868272D+01 0.1881289D+01 0.5442493D+00 0.7868272D+01 0.1881289D+01
EXPONENTS  0.5442493D+00 0.7868272D+01 0.1881289D+01 0.5442493D+00 0.7868272D+01
EXPONENTS  0.1881289D+01 0.5442493D+00 0.1687145D+00 0.1687145D+00 0.1687145D+00
EXPONENTS  0.1687145D+00 0.8000000D+00 0.8000000D+00 0.8000000D+00 0.8000000D+00
EXPONENTS  0.8000000D+00 0.8000000D+00 0.3047525D+04 0.4573695D+03 0.1039487D+03
EXPONENTS  0.2921016D+02 0.9286663D+01 0.3163927D+01 0.7868272D+01 0.1881289D+01
EXPONENTS  0.5442493D+00 0.7868272D+01 0.1881289D+01 0.5442493D+00 0.7868272D+01
EXPONENTS  0.1881289D+01 0.5442493D+00 0.7868272D+01 0.1881289D+01 0.5442493D+00
EXPONENTS  0.1687145D+00 0.1687145D+00 0.1687145D+00 0.1687145D+00 0.8000000D+00
EXPONENTS  0.8000000D+00 0.8000000D+00 0.8000000D+00 0.8000000D+00 0.8000000D+00
EXPONENTS  0.3047525D+04 0.4573695D+03 0.1039487D+03 0.2921016D+02 0.9286663D+01
EXPONENTS  0.3163927D+01 0.7868272D+01 0.1881289D+01 0.5442493D+00 0.7868272D+01
EXPONENTS  0.1881289D+01 0.5442493D+00 0.7868272D+01 0.1881289D+01 0.5442493D+00
EXPONENTS  0.7868272D+01 0.1881289D+01 0.5442493D+00 0.1687145D+00 0.1687145D+00
EXPONENTS  0.1687145D+00 0.1687145D+00 0.8000000D+00 0.8000000D+00 0.8000000D+00
EXPONENTS  0.8000000D+00 0.8000000D+00 0.8000000D+00 0.1873114D+02 0.2825394D+01
EXPONENTS  0.6401217D+00 0.1612778D+00 0.1873114D+02 0.2825394D+01 0.6401217D+00
EXPONENTS  0.1612778D+00 0.5484672D+04 0.8252349D+03 0.1880470D+03 0.5296450D+02
EXPONENTS  0.1689757D+02 0.5799635D+01 0.1553962D+02 0.3599934D+01 0.1013762D+01
EXPONENTS  0.1553962D+02 0.3599934D+01 0.1013762D+01 0.1553962D+02 0.3599934D+01
EXPONENTS  0.1013762D+01 0.1553962D+02 0.3599934D+01 0.1013762D+01 0.2700058D+00
EXPONENTS  0.2700058D+00 0.2700058D+00 0.2700058D+00 0.8000000D+00 0.8000000D+00
EXPONENTS  0.8000000D+00 0.8000000D+00 0.8000000D+00 0.8000000D+00 0.1873114D+02
EXPONENTS  0.2825394D+01 0.6401217D+00 0.1612778D+00 0.5484672D+04 0.8252349D+03
EXPONENTS  0.1880470D+03 0.5296450D+02 0.1689757D+02 0.5799635D+01 0.1553962D+02
EXPONENTS  0.3599934D+01 0.1013762D+01 0.1553962D+02 0.3599934D+01 0.1013762D+01
EXPONENTS  0.1553962D+02 0.3599934D+01 0.1013762D+01 0.1553962D+02 0.3599934D+01
EXPONENTS  0.1013762D+01 0.2700058D+00 0.2700058D+00 0.2700058D+00 0.2700058D+00
EXPONENTS  0.8000000D+00 0.8000000D+00 0.8000000D+00 0.8000000D+00 0.8000000D+00
EXPONENTS  0.8000000D+00 0.3047525D+04 0.4573695D+03 0.1039487D+03 0.2921016D+02
EXPONENTS  0.9286663D+01 0.3163927D+01 0.7868272D+01 0.1881289D+01 0.5442493D+00
EXPONENTS  0.7868272D+01 0.1881289D+01 0.5442493D+00 0.7868272D+01 0.1881289D+01
EXPONENTS  0.5442493D+00 0.7868272D+01 0.1881289D+01 0.5442493D+00 0.1687145D+00
EXPONENTS  0.1687145D+00 0.1687145D+00 0.1687145D+00 0.8000000D+00 0.8000000D+00
EXPONENTS  0.8000000D+00 0.8000000D+00 0.8000000D+00 0.8000000D+00 0.1873114D+02
EXPONENTS  0.2825394D+01 0.6401217D+00 0.1612778D+00 0.1873114D+02 0.2825394D+01
EXPONENTS  0.6401217D+00 0.1612778D+00 0.1873114D+02 0.2825394D+01 0.6401217D+00
EXPONENTS  0.1612778D+00 0.1873114D+02 0.2825394D+01 0.6401217D+00 0.1612778D+00
MO    1     MO 0.0        OCC NO =    2.0000000  ORB. ENERGY =  -18.999634
 -0.36134762D-05 -0.66661580D-05 -0.10761246D-04 -0.14007945D-04 -0.11953005D-04
 -0.41270853D-05  0.24154850D-04  0.11132948D-04 -0.31217950D-04  0.82237904D-04
  0.63054809D-04  0.31468769D-04  0.41164491D-04  0.31562321D-04  0.15751810D-04
 -0.20781176D-08 -0.15933688D-08 -0.79520268D-09  0.32777385D-03  0.96999453D-04
  0.11896424D-03 -0.27414658D-08  0.29226515D-04  0.31232674D-04 -0.20347232D-05
  0.82831876D-04 -0.61461953D-08 -0.33610323D-09  0.14387953D-04  0.26542964D-04
  0.42848574D-04  0.55776112D-04  0.47593857D-04  0.16433015D-04 -0.92229127D-04
 -0.42508320D-04  0.11919777D-03 -0.93204622D-04 -0.71463392D-04 -0.35665241D-04
 -0.37104561D-04 -0.28449424D-04 -0.14198256D-04 -0.27912699D-08 -0.21401687D-08
 -0.10680942D-08 -0.59095299D-03  0.54297992D-05  0.30610234D-03 -0.80511501D-08
 -0.10035913D-03 -0.57224474D-04  0.62545138D-04 -0.59632317D-04  0.34933823D-08
  0.86101165D-08 -0.21585111D-04 -0.39820314D-04 -0.64282334D-04 -0.83676499D-04
 -0.71401308D-04 -0.24653156D-04 -0.87745233D-04 -0.40441698D-04  0.11340274D-03
  0.43740477D-03  0.33537423D-03  0.16737525D-03  0.34269686D-03  0.26275821D-03
  0.13113476D-03 -0.15259102D-07 -0.11699711D-07 -0.58389760D-08 -0.16534890D-03
 -0.57471596D-03 -0.39431512D-03  0.17680535D-07 -0.25844418D-04 -0.14534560D-03
 -0.92256365D-04 -0.88339709D-04  0.11856912D-08  0.30545930D-08  0.11269729D-04
  0.20790449D-04  0.33562230D-04  0.43688052D-04  0.37279094D-04  0.12871575D-04
 -0.59077306D-04 -0.27228676D-04  0.76352051D-04  0.73935075D-04  0.56688726D-04
  0.28291647D-04  0.70618774D-05  0.54145997D-05  0.27022647D-05 -0.43091301D-09
 -0.33039677D-09 -0.16489114D-09 -0.39420724D-05  0.23200359D-03 -0.31562949D-04
 -0.24134900D-08  0.88567988D-05 -0.20679256D-04  0.36719795D-04  0.48863967D-04
 -0.20504350D-08  0.32607715D-08  0.90492414D-05  0.16694083D-04  0.26949427D-04
  0.35080146D-04  0.29933952D-04  0.10335474D-04 -0.28239613D-04 -0.13015612D-04
  0.36497135D-04  0.18129541D-04  0.13900582D-04  0.69373649D-05  0.78394310D-04
  0.60107784D-04  0.29997997D-04 -0.16911362D-08 -0.12966560D-08 -0.64712221D-09
  0.11664419D-03 -0.42312878D-04 -0.37421415D-05  0.16627290D-08  0.32104669D-04
 -0.16130628D-05  0.56124662D-04 -0.21025160D-04  0.55728467D-09  0.62580375D-08
  0.40408829D-05  0.74546400D-05  0.12034100D-04  0.15664823D-04  0.13366822D-04
  0.46152424D-05 -0.13766216D-04 -0.63448364D-05  0.17791584D-04  0.37526089D-04
  0.28772625D-04  0.14359556D-04  0.13751062D-04  0.10543442D-04  0.52619167D-05
  0.22271683D-08  0.17076514D-08  0.85223771D-09 -0.55051667D-04 -0.73610634D-04
  0.13108976D-05 -0.93459062D-09 -0.32820834D-05  0.31190316D-05  0.24813108D-04
  0.32459729D-04 -0.95099075D-09  0.70457729D-09 -0.18753140D-04 -0.31808876D-04
 -0.36213280D-04 -0.64563534D-04 -0.55998016D-06 -0.94983235D-06 -0.10813506D-05
 -0.17653280D-04  0.38396156D-04  0.70669424D-04  0.11435647D-03  0.15032478D-03
  0.12893269D-03  0.44084276D-04 -0.15585181D-03 -0.69540775D-04  0.20535484D-03
 -0.36261496D-04 -0.27937527D-04 -0.12266079D-04  0.17333450D-03  0.13354489D-03
  0.58633399D-04 -0.12845616D-08 -0.98968549D-09 -0.43452524D-09 -0.42913200D-03
  0.96898783D-04 -0.40665432D-04 -0.18562536D-08  0.18817255D-03  0.22664320D-03
  0.23998262D-03  0.29189739D-04  0.24314499D-08 -0.28924330D-09 -0.38087535D-05
 -0.64603669D-05 -0.73548994D-05 -0.20082848D-04  0.82562333D+00  0.15195877D+01
  0.24589797D+01  0.32323976D+01  0.27724087D+01  0.94793361D+00 -0.15811186D-01
 -0.70549206D-02  0.20833275D-01 -0.31237989D-02 -0.24067187D-02 -0.10566791D-02
  0.11186000D-02  0.86182096D-03  0.37838582D-03  0.54924786D-07  0.42316586D-07
  0.18579261D-07  0.38783856D-02 -0.21193869D-03 -0.33265557D-03  0.11422498D-07
 -0.92425387D-02 -0.91921064D-02 -0.92142067D-02  0.19916883D-03 -0.37053507D-08
 -0.58930714D-08  0.48984913D-05  0.90367599D-05  0.14588133D-04  0.18989414D-04
  0.16203701D-04  0.55947487D-05 -0.18749039D-04 -0.86414152D-05  0.24231430D-04
 -0.88468302D-05 -0.67831883D-05 -0.33852864D-05 -0.25584094D-05 -0.19616260D-05
 -0.97898887D-06  0.30520372D-10  0.23401085D-10  0.11678782D-10 -0.41673351D-04
 -0.22388424D-04 -0.21592570D-04  0.50221876D-09 -0.18130424D-04  0.18867743D-04
  0.23324233D-04 -0.32782500D-04  0.97913173D-08  0.31302055D-07  0.16799492D-05
  0.28495117D-05  0.32440684D-05 -0.26750144D-05  0.16823901D-05  0.28536520D-05
  0.32487819D-05 -0.26646170D-05  0.55313956D-05  0.93822938D-05  0.10681410D-04
  0.10039763D-04  0.88705969D-04  0.15046211D-03  0.17129580D-03 -0.18219277D-03
MO    2     MO 0.0        OCC NO =    2.0000000  ORB. ENERGY =  -18.862724
  0.11725232D-04  0.21630763D-04  0.34918758D-04  0.45453848D-04  0.38785851D-04
  0.13391822D-04 -0.48457873D-04 -0.22334189D-04  0.62627399D-04  0.49059169D-04
  0.37615459D-04  0.18772750D-04 -0.25745983D-04 -0.19740387D-04 -0.98518364D-05
  0.34906218D-08  0.26763874D-08  0.13357049D-08 -0.38698829D-03 -0.24114127D-03
  0.31974282D-04  0.91835153D-09  0.19482468D-04 -0.43558733D-04  0.50860912D-04
 -0.40703539D-04  0.36913233D-09  0.46360795D-08 -0.32986893D-05 -0.60854376D-05
 -0.98237832D-05 -0.12787647D-04 -0.10911722D-04 -0.37675554D-05  0.24545052D-04
  0.11312792D-04 -0.31722249D-04  0.11410805D-03  0.87490815D-04  0.43664049D-04
 -0.44630282D-04 -0.34219669D-04 -0.17078013D-04  0.15226050D-08  0.11674370D-08
  0.58263286D-09  0.59815254D-03  0.82114756D-04 -0.26171452D-03  0.76789616D-08
  0.42152743D-04  0.19983889D-04  0.10780172D-04  0.50695519D-05  0.12250988D-08
  0.11984524D-08  0.26754395D-04  0.49356635D-04  0.79676913D-04  0.10371567D-03
  0.88500766D-04  0.30557188D-04 -0.10895659D-03 -0.50217994D-04  0.14081650D-03
 -0.14428472D-04 -0.11062837D-04 -0.55211310D-05  0.63197786D-04  0.48456054D-04
  0.24182967D-04  0.61875465D-09  0.47442182D-09  0.23676974D-09 -0.60713828D-03
  0.46766382D-03  0.39887061D-03 -0.19967355D-07  0.23511866D-04  0.44640571D-04
  0.75933926D-04  0.13405005D-03 -0.10199924D-08  0.32293392D-08 -0.44606349D-04
 -0.82290003D-04 -0.13284158D-03 -0.17292027D-03 -0.14755318D-03 -0.50946566D-04
 -0.67328350D-04 -0.31031575D-04  0.87015776D-04  0.16442380D-03  0.12606974D-03
  0.62917634D-04 -0.26746177D-04 -0.20507272D-04 -0.10234566D-04 -0.32408288D-08
 -0.24848620D-08 -0.12401203D-08 -0.10262601D-03 -0.11436033D-02  0.24798093D-03
  0.84472894D-08 -0.94246981D-03 -0.16882082D-03 -0.19709247D-03  0.38506237D-03
  0.27422128D-07 -0.95739040D-08  0.14256625D-04  0.26300689D-04  0.42457466D-04
  0.55267006D-04  0.47159436D-04  0.16283020D-04 -0.88211426D-04 -0.40656566D-04
  0.11400525D-03 -0.78648515D-04 -0.60302693D-04 -0.30095270D-04 -0.12965958D-05
 -0.99414743D-06 -0.49614924D-06  0.33896657D-08  0.25989807D-08  0.12970735D-08
 -0.70547965D-03  0.19752107D-03 -0.42203205D-03  0.29411351D-08 -0.94988340D-04
 -0.31074437D-04  0.52493233D-04  0.73130475D-05  0.30017526D-08 -0.27320460D-08
 -0.33414264D-05 -0.61642793D-05 -0.99510581D-05 -0.12953321D-04 -0.11053092D-04
 -0.38163671D-05  0.24567209D-04  0.11323004D-04 -0.31750886D-04  0.12382439D-03
  0.94940688D-04  0.47382057D-04 -0.94767767D-05 -0.72661913D-05 -0.36263387D-05
  0.44127339D-09  0.33834045D-09  0.16885560D-09  0.54226440D-03  0.18620657D-03
  0.12063070D-03 -0.22061527D-08  0.46495915D-04  0.23679475D-04  0.10055557D-04
 -0.71510111D-04  0.22729286D-08 -0.21779090D-08  0.10817532D-04  0.18348582D-04
  0.20889212D-04  0.69855871D-04 -0.22249697D-04 -0.37739698D-04 -0.42965312D-04
 -0.16403361D-03  0.82560534D+00  0.15195545D+01  0.24589261D+01  0.32323272D+01
  0.27723482D+01  0.94791295D+00 -0.15573008D-01 -0.69486458D-02  0.20519444D-01
 -0.31028951D-02 -0.23906134D-02 -0.10496080D-02  0.70491235D-03  0.54309697D-03
  0.23844882D-03  0.34049107D-07  0.26233001D-07  0.11517700D-07  0.45583961D-02
 -0.64101547D-03  0.14448710D-03  0.12264583D-07 -0.88162799D-02 -0.93750694D-02
 -0.93572922D-02 -0.26863608D-03 -0.16978855D-07  0.68144683D-08  0.61162612D-05
  0.10374337D-04  0.11810816D-04  0.44409623D-04  0.81772267D-04  0.15050462D-03
  0.24354489D-03  0.32014657D-03  0.27458786D-03  0.93886252D-04 -0.21283080D-03
 -0.94964688D-04  0.28043200D-03  0.45855976D-05  0.35329557D-05  0.15511579D-05
 -0.16745594D-03 -0.12901577D-03 -0.56644874D-04 -0.38154200D-08 -0.29395754D-08
 -0.12906319D-08 -0.63002346D-03  0.12828019D-03  0.14137794D-03 -0.22118149D-08
  0.21791928D-03  0.25044739D-03  0.26197755D-03 -0.10540100D-03  0.19783062D-08
 -0.10566897D-08  0.52473818D-06  0.96803947D-06  0.15627159D-05  0.20341917D-05
  0.17357795D-05  0.59932294D-06 -0.52267624D-05 -0.24090100D-05  0.67551156D-05
 -0.30370277D-04 -0.23286002D-04 -0.11621347D-04  0.12652636D-04  0.97012389D-05
  0.48415981D-05 -0.43054975D-08 -0.33011824D-08 -0.16475214D-08 -0.10229031D-03
 -0.30380657D-04  0.63638864D-05  0.87852282D-08 -0.10043544D-04 -0.26024698D-05
 -0.18069618D-05  0.93674252D-05  0.32093238D-08 -0.31506506D-08  0.11985718D-05
  0.20330047D-05  0.23145040D-05  0.13638976D-05  0.11978910D-05  0.20318499D-05
  0.23131892D-05  0.13555972D-05  0.21906362D-05  0.37157336D-05  0.42302313D-05
  0.33522389D-05  0.44564070D-05  0.75589097D-05  0.86055515D-05 -0.31312807D-04
MO    3     MO 0.0        OCC NO =    2.0000000  ORB. ENERGY =  -10.037204
  0.36669692D-04  0.67648421D-04  0.10920553D-03  0.14215315D-03  0.12129954D-03
  0.41881816D-04 -0.77687839D-04 -0.35806254D-04  0.10040447D-03 -0.13256049D-03
 -0.10163897D-03 -0.50724971D-04 -0.48016112D-04 -0.36815709D-04 -0.18373619D-04
  0.64981415D-08  0.49823628D-08  0.24865482D-08 -0.12497256D-02 -0.49200826D-03
 -0.53765475D-04  0.54633109D-09  0.17775486D-04  0.47349088D-04  0.30835743D-04
  0.26530234D-04  0.11327487D-07 -0.82290892D-08  0.42297122D-02  0.78029931D-02
  0.12596450D-01  0.16396836D-01  0.13991449D-01  0.48309113D-02  0.19668365D-03
  0.90651316D-04 -0.25419575D-03 -0.38980579D-03 -0.29887836D-03 -0.14916125D-03
  0.23122597D-03  0.17728941D-03  0.88479839D-04  0.34187517D-08  0.26212820D-08
  0.13082034D-08  0.23608825D-02  0.45145324D-03 -0.10172045D-02  0.25508253D-07
 -0.53956722D-03 -0.29069792D-03 -0.42174280D-03 -0.13784196D-03  0.88247235D-08
 -0.74319339D-08  0.53248262D+00  0.98232646D+00  0.15857795D+01  0.20642137D+01
  0.17613973D+01  0.60816816D+00 -0.19790767D-01 -0.91215466D-02  0.25577769D-01
  0.88989419D-03  0.68231442D-03  0.34052272D-03  0.12733872D-02  0.97635252D-03
  0.48726833D-03 -0.50863299D-07 -0.38998751D-07 -0.19463110D-07 -0.34915630D-02
  0.12080215D-02  0.11816912D-02 -0.47346800D-07 -0.95739532D-02 -0.97856326D-02
 -0.10466493D-01  0.99727976D-03 -0.46599167D-07 -0.45645655D-07  0.76514242D-02
  0.14115384D-01  0.22786606D-01  0.29661390D-01  0.25310118D-01  0.87389755D-02
  0.34945927D-04  0.16106546D-04 -0.45164436D-04  0.92264147D-04  0.70742296D-04
  0.35305364D-04 -0.24474822D-03 -0.18765741D-03 -0.93654199D-04  0.58281299D-08
  0.44686404D-08  0.22301647D-08  0.16994026D-02 -0.10055538D-02  0.52299495D-03
 -0.92225421D-08 -0.41513919D-03 -0.72586925D-03 -0.51164890D-03 -0.14261120D-03
  0.89308752D-08  0.14526984D-07  0.34136926D-04  0.62975963D-04  0.10166273D-03
  0.13233467D-03  0.11292141D-03  0.38989050D-04 -0.26745553D-04 -0.12327001D-04
  0.34566197D-04 -0.10580123D-03 -0.81121674D-04 -0.40485401D-04 -0.17592769D-03
 -0.13489020D-03 -0.67319662D-04  0.73314682D-08  0.56213048D-08  0.28054251D-08
 -0.10584858D-02  0.23981494D-03 -0.41860410D-03  0.32051306D-08  0.29860975D-04
  0.40466701D-04 -0.13835303D-04  0.61908760D-04  0.42306379D-08 -0.11468703D-07
 -0.76335388D-04 -0.14082389D-03 -0.22733342D-03 -0.29592056D-03 -0.25250955D-03
 -0.87185480D-04  0.12851061D-03  0.59230425D-04 -0.16608829D-03 -0.56516428D-04
 -0.43333213D-04 -0.21626310D-04 -0.59954650D-04 -0.45969423D-04 -0.22941964D-04
 -0.18472647D-08 -0.14163654D-08 -0.70686559D-09  0.92746298D-03  0.39228296D-03
  0.26405928D-03 -0.35212948D-08  0.92009838D-05 -0.16927487D-04 -0.13699687D-03
 -0.61481074D-04  0.24888125D-08 -0.32009459D-08  0.31068523D-04  0.52698095D-04
  0.59994918D-04  0.33756420D-03 -0.21242887D-04 -0.36031958D-04 -0.41021110D-04
 -0.81160826D-04 -0.87518425D-04 -0.16108062D-03 -0.26065885D-03 -0.34264336D-03
 -0.29388321D-03 -0.10048366D-03  0.30062467D-03  0.13413814D-03 -0.39611173D-03
  0.12319790D-04  0.94917342D-05  0.41673826D-05  0.92947211D-04  0.71610815D-04
  0.31441005D-04 -0.15530197D-07 -0.11965180D-07 -0.52533585D-08  0.90381216D-03
 -0.16698905D-03 -0.55264860D-04  0.11625650D-07 -0.26421685D-03 -0.29502083D-03
 -0.32804273D-03  0.63340681D-05 -0.10531404D-07 -0.37406912D-08  0.17486728D-04
  0.29660800D-04  0.33767772D-04  0.13738370D-03  0.10810020D-03  0.19896207D-03
  0.32195819D-03  0.42322306D-03  0.36299596D-03  0.12411448D-03 -0.68615567D-03
 -0.30616132D-03  0.90409849D-03  0.14425849D-03  0.11114339D-03  0.48797936D-04
  0.68983985D-04  0.53148441D-04  0.23335028D-04 -0.71894491D-08 -0.55390830D-08
 -0.24319558D-08 -0.16879616D-02  0.59603895D-03  0.59912902D-03 -0.22572465D-07
  0.11085029D-03  0.53262767D-04  0.97775186D-03 -0.13965137D-02  0.58864868D-07
  0.64526104D-07 -0.53342932D-03 -0.98407293D-03 -0.15885988D-02 -0.20678837D-02
 -0.17645289D-02 -0.60924942D-03  0.83245899D-04  0.38367959D-04 -0.10758776D-03
 -0.23722335D-04 -0.18188782D-04 -0.90774770D-05  0.95476372D-05  0.73205226D-05
  0.36534538D-05 -0.83815894D-08 -0.64264711D-08 -0.32072595D-08  0.25948936D-04
  0.29088146D-04  0.33977654D-04  0.15266376D-07  0.30485974D-04 -0.54368540D-04
 -0.72942143D-04  0.53920906D-04 -0.19377379D-07 -0.57209560D-07 -0.51035999D-05
 -0.86566713D-05 -0.98553143D-05  0.32188644D-06 -0.51108450D-05 -0.86689604D-05
 -0.98693051D-05  0.28590076D-06 -0.98755076D-05 -0.16750730D-04 -0.19070114D-04
 -0.14113119D-04  0.41075827D-04  0.69672378D-04  0.79319540D-04 -0.59406141D-04
MO    4     MO 0.0        OCC NO =    2.0000000  ORB. ENERGY =  -10.036085
  0.15899427D-02  0.29331338D-02  0.47349874D-02  0.61635467D-02  0.52593656D-02
  0.18159325D-02  0.41076135D-04  0.18931953D-04 -0.53087173D-04  0.29720889D-03
  0.22788093D-03  0.11372855D-03 -0.11009417D-03 -0.84413228D-04 -0.42128117D-04
  0.36294000D-07  0.27827937D-07  0.13888091D-07  0.90852471D-03 -0.38354924D-03
  0.20641144D-03 -0.10060168D-07 -0.37967893D-03 -0.22218851D-03 -0.18514555D-03
  0.14783632D-03 -0.20658976D-07  0.55895978D-08 -0.16988457D-04 -0.31340386D-04
 -0.50593100D-04 -0.65857184D-04 -0.56196054D-04 -0.19403147D-04  0.11426772D-04
  0.52665887D-05 -0.14768065D-04  0.11523750D-03  0.88356805D-04  0.44096238D-04
 -0.46027525D-04 -0.35290987D-04 -0.17612676D-04 -0.54833854D-07 -0.42043121D-07
 -0.20982464D-07 -0.28984713D-03 -0.75238547D-04  0.11102875D-03  0.29596084D-07
 -0.74256697D-04  0.75115756D-04 -0.56465737D-04  0.51331951D-04 -0.34021972D-07
 -0.14573267D-07  0.49333496D-03  0.91010667D-03  0.14691944D-02  0.19124545D-02
  0.16319009D-02  0.56345616D-03  0.58611099D-04  0.27013802D-04 -0.75749520D-04
  0.13115901D-04  0.10056441D-04  0.50188687D-05 -0.61310075D-05 -0.47008677D-05
 -0.23460624D-05  0.33086911D-07  0.25368945D-07  0.12660881D-07  0.32818887D-03
 -0.20821372D-03 -0.13485409D-03 -0.19803449D-07 -0.88783499D-05 -0.51214191D-04
 -0.92333591D-04 -0.46678260D-04  0.84560786D-08 -0.42230619D-08  0.29485492D-04
  0.54394976D-04  0.87810357D-04  0.11430299D-03  0.97534952D-04  0.33676475D-04
 -0.21290571D-04 -0.98128047D-05  0.27516129D-04 -0.23002416D-05 -0.17636793D-05
 -0.88019959D-06  0.85503229D-05  0.65558453D-05  0.32718263D-05 -0.10209380D-07
 -0.78279051D-08 -0.39066733D-08 -0.18294450D-03  0.15556660D-03 -0.57011937D-04
  0.17980195D-07 -0.30202653D-04  0.14448160D-04  0.28096491D-05  0.29852359D-04
 -0.42428772D-08  0.37379300D-08 -0.23774620D-04 -0.43859532D-04 -0.70802884D-04
 -0.92164318D-04 -0.78643979D-04 -0.27153876D-04  0.77003942D-04  0.35491046D-04
 -0.99520599D-04  0.18003892D-04  0.13804243D-04  0.68892846D-05 -0.94158086D-05
 -0.72194449D-05 -0.36030090D-05  0.27105693D-07  0.20782926D-07  0.10372137D-07
  0.44040095D-03 -0.17610489D-03  0.13851042D-03 -0.22024778D-07  0.40085862D-04
 -0.14079097D-04 -0.85648183D-04 -0.49803973D-04  0.10899354D-07 -0.20284532D-07
 -0.32701028D-05 -0.60327011D-05 -0.97386501D-05 -0.12676829D-04 -0.10817161D-04
 -0.37349057D-05  0.15491508D-04  0.71400220D-05 -0.20021367D-04  0.12867025D-03
  0.98656186D-04  0.49236351D-04 -0.22493101D-04 -0.17246283D-04 -0.86071038D-05
 -0.50603707D-07 -0.38799713D-07 -0.19363776D-07 -0.22245180D-03 -0.21869400D-03
  0.82119771D-04  0.29207267D-07 -0.45730215D-04  0.13369535D-03 -0.40488662D-04
  0.62144378D-04 -0.33612039D-07  0.13931780D-07 -0.89064240D-05 -0.15106981D-04
 -0.17198764D-04 -0.63569942D-04  0.13786037D-05  0.23383728D-05  0.26621548D-05
  0.58159665D-04  0.24619416D-05  0.45312868D-05  0.73324774D-05  0.96387468D-05
  0.82670971D-05  0.28266609D-05 -0.10379399D-04 -0.46312677D-05  0.13676195D-04
  0.19386194D-04  0.14936018D-04  0.65577163D-05 -0.56977362D-05 -0.43897986D-05
 -0.19273580D-05  0.12489379D-07  0.96223935D-08  0.42247491D-08 -0.90931204D-04
  0.82288378D-06  0.60314865D-05 -0.92660305D-08  0.31925525D-04  0.12818847D-04
 -0.20091060D-04 -0.16125914D-04  0.10958519D-07 -0.34349039D-08 -0.19466876D-04
 -0.33019506D-04 -0.37591541D-04 -0.19433398D-05 -0.19868251D-04 -0.36568188D-04
 -0.59174231D-04 -0.77786183D-04 -0.66716757D-04 -0.22811592D-04  0.69797630D-04
  0.31143566D-04 -0.91967369D-04  0.11052459D-04  0.85153238D-05  0.37386858D-05
  0.70762842D-04  0.54518955D-04  0.23936758D-04 -0.23542358D-07 -0.18138118D-07
 -0.79636107D-08  0.20458638D-03 -0.31734880D-04 -0.71345007D-04  0.14316893D-07
 -0.70292184D-04 -0.56409992D-04 -0.72893066D-04  0.33202775D-04 -0.13058769D-07
 -0.16382952D-07  0.53255484D+00  0.98245969D+00  0.15859946D+01  0.20644937D+01
  0.17616362D+01  0.60825064D+00 -0.20029992D-01 -0.92318048D-02  0.25886944D-01
 -0.26404983D-03 -0.20245666D-03 -0.10104006D-03  0.60998491D-05  0.46769774D-05
  0.23341395D-05  0.69482927D-07  0.53275101D-07  0.26588009D-07 -0.33921595D-02
 -0.18565840D-03  0.52790868D-04 -0.22046145D-07 -0.10296323D-01 -0.10099107D-01
 -0.10111512D-01  0.25867109D-04  0.70847774D-07 -0.19163939D-07 -0.16006931D-05
 -0.27150785D-05 -0.30910209D-05  0.50713152D-03 -0.16007549D-05 -0.27151833D-05
 -0.30911402D-05  0.50717337D-03 -0.10965972D-04 -0.18600364D-04 -0.21175857D-04
  0.49628469D-03 -0.10823994D-05 -0.18359543D-05 -0.20901691D-05  0.25102851D-04
MO    5     MO 0.0        OCC NO =    2.0000000  ORB. ENERGY =  -10.026330
 -0.98338695D-04 -0.18141569D-03 -0.29286117D-03 -0.38121823D-03 -0.32529421D-03
 -0.11231627D-03  0.15349793D-03  0.70747057D-04 -0.19838213D-03 -0.14017613D-03
 -0.10747817D-03 -0.53639138D-04  0.44975685D-04  0.34484503D-04  0.17210184D-04
 -0.47462519D-08 -0.36391249D-08 -0.18161784D-08  0.12590630D-02  0.74781116D-03
 -0.12507769D-03 -0.49164843D-08 -0.41528290D-04  0.50155438D-04 -0.14390949D-03
  0.51904430D-04 -0.31422376D-08 -0.93554588D-08 -0.61856174D-04 -0.11411256D-03
 -0.18421306D-03 -0.23979067D-03 -0.20461381D-03 -0.70648232D-04 -0.92031551D-04
 -0.42417258D-04  0.11894242D-03 -0.15618056D-03 -0.11974935D-03 -0.59763318D-04
  0.83184688D-04  0.63780743D-04  0.31831061D-04 -0.34065448D-08 -0.26119225D-08
 -0.13035324D-08 -0.16213445D-02 -0.20875691D-03  0.77313128D-03 -0.20413514D-07
  0.90352593D-04 -0.61152254D-05  0.40132334D-04  0.17585616D-04 -0.28569359D-08
 -0.21771540D-08 -0.79258228D-02 -0.14621595D-01 -0.23603789D-01 -0.30725120D-01
 -0.26217800D-01 -0.90523764D-02  0.60427709D-03  0.27851076D-03 -0.78097324D-03
 -0.83314509D-04 -0.63880281D-04 -0.31880737D-04  0.28149904D-03  0.21583561D-03
  0.10771710D-03 -0.10390316D-07 -0.79666356D-08 -0.39759095D-08  0.24557872D-02
 -0.82172642D-03 -0.11565738D-02  0.44618120D-07 -0.31234154D-03 -0.50461098D-03
 -0.21151597D-03  0.24838524D-03 -0.12814544D-07  0.15759010D-07  0.53256808D+00
  0.98248412D+00  0.15860340D+01  0.20645450D+01  0.17616800D+01  0.60826577D+00
 -0.19838897D-01 -0.91437293D-02  0.25639971D-01  0.52612566D-03  0.40339979D-03
  0.20132477D-03  0.52884369D-05  0.40548380D-05  0.20236483D-05 -0.34814827D-07
 -0.26693801D-07 -0.13322078D-07 -0.33641196D-02  0.21198851D-02 -0.56411559D-03
  0.64310537D-08 -0.90634835D-02 -0.99986124D-02 -0.10264896D-01 -0.43901047D-03
 -0.41480157D-07 -0.79830735D-09  0.17500612D-02  0.32285212D-02  0.52118343D-02
  0.67842597D-02  0.57890211D-02  0.19988099D-02  0.23722474D-03  0.10933667D-03
 -0.30659143D-03 -0.80564090D-04 -0.61771434D-04 -0.30828275D-04 -0.30913663D-03
 -0.23702636D-03 -0.11829277D-03  0.19801629D-08  0.15182633D-08  0.75771981D-09
  0.25542800D-02 -0.34107925D-03  0.12088871D-02 -0.18067363D-07 -0.49650281D-03
 -0.32502826D-03 -0.36884301D-03 -0.38268567D-03  0.20930045D-08  0.34476120D-08
  0.55948034D-04  0.10321320D-03  0.16661810D-03  0.21688727D-03  0.18507030D-03
  0.63900326D-04 -0.11540365D-03 -0.53189436D-04  0.14914873D-03 -0.19998251D-03
 -0.15333390D-03 -0.76524364D-04 -0.44389988D-06 -0.34035427D-06 -0.16986064D-06
 -0.13288780D-08 -0.10188994D-08 -0.50850220D-09 -0.16915833D-02 -0.60590670D-03
 -0.44753337D-03  0.11343945D-07  0.28868025D-04  0.15778181D-04  0.55226302D-04
  0.11008727D-04 -0.35154837D-09  0.48260534D-08 -0.31582323D-04 -0.53569598D-04
 -0.60987094D-04 -0.20798038D-03  0.48680963D-04  0.82572126D-04  0.94005447D-04
  0.36197590D-03  0.11774619D-03  0.21671584D-03  0.35068713D-03  0.46098805D-03
  0.39538677D-03  0.13518945D-03 -0.88957570D-03 -0.39692694D-03  0.11721306D-02
  0.66677340D-04  0.51371296D-04  0.22554766D-04 -0.75541900D-04 -0.58200961D-04
 -0.25553357D-04  0.34739302D-07  0.26764760D-07  0.11751171D-07 -0.26629414D-02
  0.93039402D-03 -0.18475700D-03 -0.29862934D-07  0.23729684D-03  0.10191638D-02
  0.11717667D-02  0.38123914D-03  0.44508433D-07 -0.43965739D-08 -0.22433548D-04