 Entering Link 1 = D:\Gaussian\G16W\l1.exe PID=     24612.
  
 Copyright (c) 1988,1990,1992,1993,1995,1998,2003,2009,2016,
            Gaussian, Inc.  All Rights Reserved.
  
 This is part of the Gaussian(R) 16 program.  It is based on
 the Gaussian(R) 09 system (copyright 2009, Gaussian, Inc.),
 the Gaussian(R) 03 system (copyright 2003, Gaussian, Inc.),
 the Gaussian(R) 98 system (copyright 1998, Gaussian, Inc.),
 the Gaussian(R) 94 system (copyright 1995, Gaussian, Inc.),
 the Gaussian 92(TM) system (copyright 1992, Gaussian, Inc.),
 the Gaussian 90(TM) system (copyright 1990, Gaussian, Inc.),
 the Gaussian 88(TM) system (copyright 1988, Gaussian, Inc.),
 the Gaussian 86(TM) system (copyright 1986, Carnegie Mellon
 University), and the Gaussian 82(TM) system (copyright 1983,
 Carnegie Mellon University). Gaussian is a federally registered
 trademark of Gaussian, Inc.
  
 This software contains proprietary and confidential information,
 including trade secrets, belonging to Gaussian, Inc.
  
 This software is provided under written license and may be
 used, copied, transmitted, or stored only in accord with that
 written license.
  
 The following legend is applicable only to US Government
 contracts under FAR:
  
                    RESTRICTED RIGHTS LEGEND
  
 Use, reproduction and disclosure by the US Government is
 subject to restrictions as set forth in subparagraphs (a)
 and (c) of the Commercial Computer Software - Restricted
 Rights clause in FAR 52.227-19.
  
 Gaussian, Inc.
 340 Quinnipiac St., Bldg. 40, Wallingford CT 06492
  
  
 ---------------------------------------------------------------
 Warning -- This program may not be used in any manner that
 competes with the business of Gaussian, Inc. or will provide
 assistance to any competitor of Gaussian, Inc.  The licensee
 of this program is prohibited from giving any competitor of
 Gaussian, Inc. access to this program.  By using this program,
 the user acknowledges that Gaussian, Inc. is engaged in the
 business of creating and licensing software in the field of
 computational chemistry and represents and warrants to the
 licensee that it is not a competitor of Gaussian, Inc. and that
 it will not use this program in any manner prohibited above.
 ---------------------------------------------------------------
  

 Cite this work as:
 Gaussian 16, Revision A.03,
 M. J. Frisch, G. W. Trucks, H. B. Schlegel, G. E. Scuseria, 
 M. A. Robb, J. R. Cheeseman, G. Scalmani, V. Barone, 
 G. A. Petersson, H. Nakatsuji, X. Li, M. Caricato, A. V. Marenich, 
 J. Bloino, B. G. Janesko, R. Gomperts, B. Mennucci, H. P. Hratchian, 
 J. V. Ortiz, A. F. Izmaylov, J. L. Sonnenberg, D. Williams-Young, 
 F. Ding, F. Lipparini, F. Egidi, J. Goings, B. Peng, A. Petrone, 
 T. Henderson, D. Ranasinghe, V. G. Zakrzewski, J. Gao, N. Rega, 
 G. Zheng, W. Liang, M. Hada, M. Ehara, K. Toyota, R. Fukuda, 
 J. Hasegawa, M. Ishida, T. Nakajima, Y. Honda, O. Kitao, H. Nakai, 
 T. Vreven, K. Throssell, J. A. Montgomery, Jr., J. E. Peralta, 
 F. Ogliaro, M. J. Bearpark, J. J. Heyd, E. N. Brothers, K. N. Kudin, 
 V. N. Staroverov, T. A. Keith, R. Kobayashi, J. Normand, 
 K. Raghavachari, A. P. Rendell, J. C. Burant, S. S. Iyengar, 
 J. Tomasi, M. Cossi, J. M. Millam, M. Klene, C. Adamo, R. Cammi, 
 J. W. Ochterski, R. L. Martin, K. Morokuma, O. Farkas, 
 J. B. Foresman, and D. J. Fox, Gaussian, Inc., Wallingford CT, 2016.
 
 ******************************************
 Gaussian 16:  EM64W-G16RevA.03 17-Dec-2016
                03-Dec-2025 
 ******************************************
 %nprocs=   4
 Will use up to    4 processors via shared memory.
 ------------------------------------
 #P B3LYP/6-31G* SCF=conver=7 out=wfn
 ------------------------------------
 1/38=1,172=1/1;
 2/12=2,17=6,18=5,40=1/2;
 3/5=1,6=6,7=1,11=2,25=1,30=1,74=-5/1,2,3;
 4//1;
 5/5=2,6=7,38=5/2;
 6/7=2,8=2,9=2,10=2,28=1/1;
 99/5=1,6=100,9=1/99;
 Leave Link    1 at Wed Dec 03 16:43:37 2025, MaxMem=           0 cpu:               1.0 elap:               0.1
 (Enter D:\Gaussian\G16W\l101.exe)
 ----------------------------------------------------
 Generated by Multiwfn (http://sobereva.com/multiwfn)
 ----------------------------------------------------
 Symbolic Z-matrix:
 Charge =  1 Multiplicity = 1
 C                    -1.51955   0.05587   0. 
 C                    -0.55173   1.06529  -0.00003 
 C                     0.80376   0.76569  -0.00004 
 C                     1.27322  -0.62592   0. 
 C                     0.22827  -1.63103   0.00003 
 C                    -1.09901  -1.30151   0.00003 
 H                    -0.8669    2.1062   -0.00006 
 H                     0.56238  -2.66197   0.00004 
 O                     2.48447  -0.90684  -0.00001 
 H                    -1.85298  -2.08206   0.00004 
 O                     1.76843   1.7023   -0.00007 
 C                    -2.98626   0.38817   0.00008 
 H                    -3.48316  -0.03534  -0.8791 
 H                    -3.48281  -0.03429   0.87997 
 H                    -3.15811   1.46558  -0.00052 
 H                     1.36624   2.57892  -0.00007 
 
 ITRead=  0  0  0  0  0  0  0  0  0  0  0  0  0  0  0  0
 MicOpt= -1 -1 -1 -1 -1 -1 -1 -1 -1 -1 -1 -1 -1 -1 -1 -1
 NAtoms=     16 NQM=       16 NQMF=       0 NMMI=      0 NMMIF=      0
                NMic=       0 NMicF=      0.
                    Isotopes and Nuclear Properties:
 (Nuclear quadrupole moments (NQMom) in fm**2, nuclear magnetic moments (NMagM)
  in nuclear magnetons)

  Atom         1           2           3           4           5           6           7           8           9          10
 IAtWgt=          12          12          12          12          12          12           1           1          16           1
 AtmWgt=  12.0000000  12.0000000  12.0000000  12.0000000  12.0000000  12.0000000   1.0078250   1.0078250  15.9949146   1.0078250
 NucSpn=           0           0           0           0           0           0           1           1           0           1
 AtZEff=   0.0000000   0.0000000   0.0000000   0.0000000   0.0000000   0.0000000   0.0000000   0.0000000   0.0000000   0.0000000
 NQMom=    0.0000000   0.0000000   0.0000000   0.0000000   0.0000000   0.0000000   0.0000000   0.0000000   0.0000000   0.0000000
 NMagM=    0.0000000   0.0000000   0.0000000   0.0000000   0.0000000   0.0000000   2.7928460   2.7928460   0.0000000   2.7928460
 AtZNuc=   6.0000000   6.0000000   6.0000000   6.0000000   6.0000000   6.0000000   1.0000000   1.0000000   8.0000000   1.0000000

  Atom        11          12          13          14          15          16
 IAtWgt=          16          12           1           1           1           1
 AtmWgt=  15.9949146  12.0000000   1.0078250   1.0078250   1.0078250   1.0078250
 NucSpn=           0           0           1           1           1           1
 AtZEff=   0.0000000   0.0000000   0.0000000   0.0000000   0.0000000   0.0000000
 NQMom=    0.0000000   0.0000000   0.0000000   0.0000000   0.0000000   0.0000000
 NMagM=    0.0000000   0.0000000   2.7928460   2.7928460   2.7928460   2.7928460
 AtZNuc=   8.0000000   6.0000000   1.0000000   1.0000000   1.0000000   1.0000000
 Leave Link  101 at Wed Dec 03 16:43:37 2025, MaxMem=   104857600 cpu:               0.0 elap:               0.1
 (Enter D:\Gaussian\G16W\l202.exe)
                          Input orientation:                          
 ---------------------------------------------------------------------
 Center     Atomic      Atomic             Coordinates (Angstroms)
 Number     Number       Type             X           Y           Z
 ---------------------------------------------------------------------
      1          6           0       -1.519548    0.055869    0.000003
      2          6           0       -0.551731    1.065288   -0.000034
      3          6           0        0.803755    0.765685   -0.000037
      4          6           0        1.273216   -0.625921    0.000004
      5          6           0        0.228265   -1.631034    0.000026
      6          6           0       -1.099009   -1.301508    0.000026
      7          1           0       -0.866903    2.106204   -0.000063
      8          1           0        0.562377   -2.661966    0.000037
      9          8           0        2.484465   -0.906843   -0.000011
     10          1           0       -1.852978   -2.082064    0.000042
     11          8           0        1.768432    1.702299   -0.000074
     12          6           0       -2.986255    0.388170    0.000077
     13          1           0       -3.483156   -0.035340   -0.879103
     14          1           0       -3.482810   -0.034288    0.879967
     15          1           0       -3.158107    1.465581   -0.000518
     16          1           0        1.366238    2.578921   -0.000073
 ---------------------------------------------------------------------
                    Distance matrix (angstroms):
                    1          2          3          4          5
     1  C    0.000000
     2  C    1.398426   0.000000
     3  C    2.429316   1.388202   0.000000
     4  C    2.874781   2.488096   1.468660   0.000000
     5  C    2.429093   2.806875   2.464843   1.449888   0.000000
     6  C    1.421030   2.429246   2.809590   2.466550   1.367569
     7  H    2.151701   1.087584   2.141983   3.470535   3.894399
     8  H    3.423600   3.890200   3.436140   2.156565   1.083721
     9  O    4.118123   3.620468   2.371104   1.243399   2.369576
    10  H    2.163778   3.405741   3.894599   3.448687   2.129554
    11  O    3.677165   2.406021   1.344562   2.380304   3.671951
    12  C    1.503879   2.526934   3.808765   4.378524   3.796093
    13  H    2.153347   3.252291   4.448821   4.872852   4.134459
    14  H    2.153338   3.251875   4.448483   4.872797   4.134728
    15  H    2.161519   2.636936   4.023208   4.900102   4.588741
    16  H    3.833217   2.443295   1.898476   3.206192   4.361044
                    6          7          8          9         10
     6  C    0.000000
     7  H    3.415607   0.000000
     8  H    2.147335   4.977779   0.000000
     9  O    3.605142   4.506675   2.602860   0.000000
    10  H    1.085236   4.302782   2.483994   4.493835   0.000000
    11  O    4.152719   2.666108   4.527845   2.705610   5.237940
    12  C    2.533122   2.728240   4.679329   5.621907   2.717788
    13  H    2.839050   3.493380   4.902896   6.094655   2.760336
    14  H    2.839481   3.492725   4.903316   6.094595   2.761160
    15  H    3.449154   2.379078   5.556856   6.121031   3.780099
    16  H    4.597301   2.282626   5.302178   3.660735   5.664639
                   11         12         13         14         15
    11  O    0.000000
    12  C    4.932949   0.000000
    13  H    5.601005   1.095093   0.000000
    14  H    5.600513   1.095100   1.759070   0.000000
    15  H    4.932223   1.091031   1.769275   1.769263   0.000000
    16  H    0.964482   4.872739   5.578860   5.578225   4.659316
                   16
    16  H    0.000000
 Stoichiometry    C7H7O2(1+)
 Framework group  C1[X(C7H7O2)]
 Deg. of freedom    42
 Full point group                 C1      NOp   1
 Largest Abelian subgroup         C1      NOp   1
 Largest concise Abelian subgroup C1      NOp   1
                         Standard orientation:                         
 ---------------------------------------------------------------------
 Center     Atomic      Atomic             Coordinates (Angstroms)
 Number     Number       Type             X           Y           Z
 ---------------------------------------------------------------------
      1          6           0       -1.519548    0.055869    0.000003
      2          6           0       -0.551731    1.065288   -0.000034
      3          6           0        0.803755    0.765685   -0.000037
      4          6           0        1.273216   -0.625921    0.000004
      5          6           0        0.228265   -1.631034    0.000026
      6          6           0       -1.099009   -1.301508    0.000026
      7          1           0       -0.866903    2.106204   -0.000063
      8          1           0        0.562377   -2.661966    0.000037
      9          8           0        2.484465   -0.906843   -0.000011
     10          1           0       -1.852978   -2.082064    0.000042
     11          8           0        1.768432    1.702299   -0.000074
     12          6           0       -2.986255    0.388170    0.000077
     13          1           0       -3.483156   -0.035340   -0.879103
     14          1           0       -3.482810   -0.034288    0.879967
     15          1           0       -3.158107    1.465581   -0.000518
     16          1           0        1.366238    2.578921   -0.000073
 ---------------------------------------------------------------------
 Rotational constants (GHZ):           3.0564221           1.3622738           0.9477990
 Leave Link  202 at Wed Dec 03 16:43:37 2025, MaxMem=   104857600 cpu:               0.0 elap:               0.0
 (Enter D:\Gaussian\G16W\l301.exe)
 Standard basis: 6-31G(d) (6D, 7F)
 Ernie: Thresh=  0.10000D-02 Tol=  0.10000D-05 Strict=F.
 There are   149 symmetry adapted cartesian basis functions of A   symmetry.
 There are   149 symmetry adapted basis functions of A   symmetry.
   149 basis functions,   280 primitive gaussians,   149 cartesian basis functions
    32 alpha electrons       32 beta electrons
       nuclear repulsion energy       415.6655617141 Hartrees.
 IExCor=  402 DFT=T Ex+Corr=B3LYP ExCW=0 ScaHFX=  0.200000
 ScaDFX=  0.800000  0.720000  1.000000  0.810000 ScalE2=  1.000000  1.000000
 IRadAn=      5 IRanWt=     -1 IRanGd=            0 ICorTp=0 IEmpDi=  4
 NAtoms=   16 NActive=   16 NUniq=   16 SFac= 1.00D+00 NAtFMM=   60 NAOKFM=F Big=F
 Integral buffers will be    131072 words long.
 Raffenetti 2 integral format.
 Two-electron integral symmetry is turned on.
 Leave Link  301 at Wed Dec 03 16:43:37 2025, MaxMem=   104857600 cpu:               0.0 elap:               0.1
 (Enter D:\Gaussian\G16W\l302.exe)
 NPDir=0 NMtPBC=     1 NCelOv=     1 NCel=       1 NClECP=     1 NCelD=      1
         NCelK=      1 NCelE2=     1 NClLst=     1 CellRange=     0.0.
 One-electron integrals computed using PRISM.
 One-electron integral symmetry used in STVInt
 NBasis=   149 RedAO= T EigKep=  4.48D-04  NBF=   149
 NBsUse=   149 1.00D-06 EigRej= -1.00D+00 NBFU=   149
 Precomputing XC quadrature grid using
 IXCGrd= 4 IRadAn=           5 IRanWt=          -1 IRanGd=           0 AccXCQ= 0.00D+00.
 Generated NRdTot=       0 NPtTot=           0 NUsed=           0 NTot=          32
 NSgBfM=   149   149   149   149   149 MxSgAt=    16 MxSgA2=    16.
 Leave Link  302 at Wed Dec 03 16:43:37 2025, MaxMem=   104857600 cpu:               0.0 elap:               0.2
 (Enter D:\Gaussian\G16W\l303.exe)
 DipDrv:  MaxL=1.
 Leave Link  303 at Wed Dec 03 16:43:37 2025, MaxMem=   104857600 cpu:               0.0 elap:               0.1
 (Enter D:\Gaussian\G16W\l401.exe)
 ExpMin= 1.61D-01 ExpMax= 5.48D+03 ExpMxC= 8.25D+02 IAcc=3 IRadAn=         5 AccDes= 0.00D+00
 Harris functional with IExCor=  402 and IRadAn=       5 diagonalized for initial guess.
 HarFok:  IExCor=  402 AccDes= 0.00D+00 IRadAn=         5 IDoV= 1 UseB2=F ITyADJ=14
 ICtDFT=  3500011 ScaDFX=  1.000000  1.000000  1.000000  1.000000
 FoFCou: FMM=F IPFlag=           0 FMFlag=      100000 FMFlg1=           0
         NFxFlg=           0 DoJE=T BraDBF=F KetDBF=T FulRan=T
         wScrn=  0.000000 ICntrl=       500 IOpCl=  0 I1Cent=   200000004 NGrid=           0
         NMat0=    1 NMatS0=      1 NMatT0=    0 NMatD0=    1 NMtDS0=    0 NMtDT0=    0
 Petite list used in FoFCou.
 Harris En= -421.132229766457    
 JPrj=0 DoOrth=F DoCkMO=F.
 Leave Link  401 at Wed Dec 03 16:43:38 2025, MaxMem=   104857600 cpu:               1.0 elap:               0.8
 (Enter D:\Gaussian\G16W\l502.exe)
 Keep R1 ints in memory in canonical form, NReq=66347889.
 FoFCou: FMM=F IPFlag=           0 FMFlag=           0 FMFlg1=           0
         NFxFlg=           0 DoJE=F BraDBF=F KetDBF=F FulRan=T
         wScrn=  0.000000 ICntrl=       600 IOpCl=  0 I1Cent=           0 NGrid=           0
         NMat0=    1 NMatS0=  11175 NMatT0=    0 NMatD0=    1 NMtDS0=    0 NMtDT0=    0
 Symmetry not used in FoFCou.
 Two-electron integral symmetry not used.
 Closed shell SCF:
 Using DIIS extrapolation, IDIIS=  1040.
 NGot=   104857600 LenX=    42364643 LenY=    42342001
 Requested convergence on RMS density matrix=1.00D-07 within 128 cycles.
 Requested convergence on MAX density matrix=1.00D-05.
 Requested convergence on             energy=1.00D-05.
 No special actions if energy rises.
 Integral accuracy reduced to 1.0D-05 until final iterations.

 Cycle   1  Pass 0  IDiag  1:
 E= -420.913140140491    
 DIIS: error= 2.93D-02 at cycle   1 NSaved=   1.
 NSaved= 1 IEnMin= 1 EnMin= -420.913140140491     IErMin= 1 ErrMin= 2.93D-02
 ErrMax= 2.93D-02  0.00D+00 EMaxC= 1.00D-01 BMatC= 1.89D-01 BMatP= 1.89D-01
 IDIUse=3 WtCom= 7.07D-01 WtEn= 2.93D-01
 Coeff-Com:  0.100D+01
 Coeff-En:   0.100D+01
 Coeff:      0.100D+01
 Gap=     0.089 Goal=   None    Shift=    0.000
 GapD=    0.089 DampG=0.500 DampE=0.500 DampFc=0.2500 IDamp=-1.
 Damping current iteration by 2.50D-01
 RMSDP=7.55D-03 MaxDP=2.03D-01              OVMax= 3.59D-01

 Cycle   2  Pass 0  IDiag  1:
 E= -420.972844681857     Delta-E=       -0.059704541366 Rises=F Damp=T
 DIIS: error= 1.50D-02 at cycle   2 NSaved=   2.
 NSaved= 2 IEnMin= 2 EnMin= -420.972844681857     IErMin= 2 ErrMin= 1.50D-02
 ErrMax= 1.50D-02  0.00D+00 EMaxC= 1.00D-01 BMatC= 4.14D-02 BMatP= 1.89D-01
 IDIUse=3 WtCom= 8.50D-01 WtEn= 1.50D-01
 Coeff-Com: -0.466D+00 0.147D+01
 Coeff-En:   0.000D+00 0.100D+01
 Coeff:     -0.396D+00 0.140D+01
 Gap=     0.135 Goal=   None    Shift=    0.000
 RMSDP=2.50D-03 MaxDP=4.90D-02 DE=-5.97D-02 OVMax= 2.77D-01

 Cycle   3  Pass 0  IDiag  1:
 E= -421.052525736293     Delta-E=       -0.079681054435 Rises=F Damp=F
 DIIS: error= 1.89D-02 at cycle   3 NSaved=   3.
 NSaved= 3 IEnMin= 3 EnMin= -421.052525736293     IErMin= 2 ErrMin= 1.50D-02
 ErrMax= 1.89D-02  0.00D+00 EMaxC= 1.00D-01 BMatC= 3.90D-02 BMatP= 4.14D-02
 IDIUse=3 WtCom= 8.11D-01 WtEn= 1.89D-01
 Coeff-Com: -0.370D+00 0.915D+00 0.455D+00
 Coeff-En:   0.000D+00 0.000D+00 0.100D+01
 Coeff:     -0.300D+00 0.742D+00 0.558D+00
 Gap=     0.111 Goal=   None    Shift=    0.000
 RMSDP=1.96D-03 MaxDP=8.31D-02 DE=-7.97D-02 OVMax= 1.10D-01

 Cycle   4  Pass 0  IDiag  1:
 E= -421.071004830888     Delta-E=       -0.018479094595 Rises=F Damp=F
 DIIS: error= 1.40D-02 at cycle   4 NSaved=   4.
 NSaved= 4 IEnMin= 4 EnMin= -421.071004830888     IErMin= 4 ErrMin= 1.40D-02
 ErrMax= 1.40D-02  0.00D+00 EMaxC= 1.00D-01 BMatC= 1.93D-02 BMatP= 3.90D-02
 IDIUse=3 WtCom= 8.60D-01 WtEn= 1.40D-01
 Coeff-Com: -0.566D-01 0.187D+00 0.396D+00 0.473D+00
 Coeff-En:   0.000D+00 0.000D+00 0.363D+00 0.637D+00
 Coeff:     -0.487D-01 0.161D+00 0.391D+00 0.496D+00
 Gap=     0.118 Goal=   None    Shift=    0.000
 RMSDP=1.00D-03 MaxDP=4.07D-02 DE=-1.85D-02 OVMax= 5.83D-02

 Cycle   5  Pass 0  IDiag  1:
 E= -421.086587714434     Delta-E=       -0.015582883546 Rises=F Damp=F
 DIIS: error= 3.07D-03 at cycle   5 NSaved=   5.
 NSaved= 5 IEnMin= 5 EnMin= -421.086587714434     IErMin= 5 ErrMin= 3.07D-03
 ErrMax= 3.07D-03  0.00D+00 EMaxC= 1.00D-01 BMatC= 1.05D-03 BMatP= 1.93D-02
 IDIUse=3 WtCom= 9.69D-01 WtEn= 3.07D-02
 Coeff-Com:  0.795D-02 0.742D-02 0.198D+00 0.321D+00 0.466D+00
 Coeff-En:   0.000D+00 0.000D+00 0.000D+00 0.611D-02 0.994D+00
 Coeff:      0.771D-02 0.719D-02 0.192D+00 0.312D+00 0.482D+00
 Gap=     0.104 Goal=   None    Shift=    0.000
 RMSDP=2.63D-04 MaxDP=6.76D-03 DE=-1.56D-02 OVMax= 2.18D-02

 Cycle   6  Pass 0  IDiag  1:
 E= -421.087567272544     Delta-E=       -0.000979558110 Rises=F Damp=F
 DIIS: error= 1.02D-03 at cycle   6 NSaved=   6.
 NSaved= 6 IEnMin= 6 EnMin= -421.087567272544     IErMin= 6 ErrMin= 1.02D-03
 ErrMax= 1.02D-03  0.00D+00 EMaxC= 1.00D-01 BMatC= 1.23D-04 BMatP= 1.05D-03
 IDIUse=3 WtCom= 9.90D-01 WtEn= 1.02D-02
 Coeff-Com:  0.982D-02-0.119D-01 0.800D-01 0.141D+00 0.304D+00 0.477D+00
 Coeff-En:   0.000D+00 0.000D+00 0.000D+00 0.000D+00 0.109D+00 0.891D+00
 Coeff:      0.972D-02-0.118D-01 0.791D-01 0.139D+00 0.302D+00 0.482D+00
 Gap=     0.104 Goal=   None    Shift=    0.000
 RMSDP=9.31D-05 MaxDP=2.89D-03 DE=-9.80D-04 OVMax= 7.75D-03

 Cycle   7  Pass 0  IDiag  1:
 E= -421.087687254352     Delta-E=       -0.000119981808 Rises=F Damp=F
 DIIS: error= 3.75D-04 at cycle   7 NSaved=   7.
 NSaved= 7 IEnMin= 7 EnMin= -421.087687254352     IErMin= 7 ErrMin= 3.75D-04
 ErrMax= 3.75D-04  0.00D+00 EMaxC= 1.00D-01 BMatC= 2.02D-05 BMatP= 1.23D-04
 IDIUse=3 WtCom= 9.96D-01 WtEn= 3.75D-03
 Coeff-Com:  0.314D-02-0.580D-02 0.160D-01 0.286D-01 0.109D+00 0.331D+00
 Coeff-Com:  0.518D+00
 Coeff-En:   0.000D+00 0.000D+00 0.000D+00 0.000D+00 0.000D+00 0.136D+00
 Coeff-En:   0.864D+00
 Coeff:      0.313D-02-0.578D-02 0.159D-01 0.285D-01 0.109D+00 0.330D+00
 Coeff:      0.519D+00
 Gap=     0.104 Goal=   None    Shift=    0.000
 RMSDP=3.09D-05 MaxDP=1.09D-03 DE=-1.20D-04 OVMax= 1.72D-03

 Cycle   8  Pass 0  IDiag  1:
 E= -421.087705399830     Delta-E=       -0.000018145479 Rises=F Damp=F
 DIIS: error= 7.15D-05 at cycle   8 NSaved=   8.
 NSaved= 8 IEnMin= 8 EnMin= -421.087705399830     IErMin= 8 ErrMin= 7.15D-05
 ErrMax= 7.15D-05  0.00D+00 EMaxC= 1.00D-01 BMatC= 1.50D-06 BMatP= 2.02D-05
 IDIUse=1 WtCom= 1.00D+00 WtEn= 0.00D+00
 Coeff-Com:  0.127D-02-0.279D-02 0.155D-02 0.216D-02 0.337D-01 0.151D+00
 Coeff-Com:  0.295D+00 0.518D+00
 Coeff:      0.127D-02-0.279D-02 0.155D-02 0.216D-02 0.337D-01 0.151D+00
 Coeff:      0.295D+00 0.518D+00
 Gap=     0.104 Goal=   None    Shift=    0.000
 RMSDP=9.09D-06 MaxDP=2.98D-04 DE=-1.81D-05 OVMax= 6.57D-04

 Initial convergence to 1.0D-05 achieved.  Increase integral accuracy.
 Cycle   9  Pass 1  IDiag  1:
 E= -421.087687286977     Delta-E=        0.000018112853 Rises=F Damp=F
 DIIS: error= 2.77D-05 at cycle   1 NSaved=   1.
 NSaved= 1 IEnMin= 1 EnMin= -421.087687286977     IErMin= 1 ErrMin= 2.77D-05
 ErrMax= 2.77D-05  0.00D+00 EMaxC= 1.00D-01 BMatC= 1.44D-07 BMatP= 1.44D-07
 IDIUse=1 WtCom= 1.00D+00 WtEn= 0.00D+00
 Coeff-Com:  0.100D+01
 Coeff:      0.100D+01
 Gap=     0.104 Goal=   None    Shift=    0.000
 RMSDP=9.09D-06 MaxDP=2.98D-04 DE= 1.81D-05 OVMax= 4.64D-04

 Cycle  10  Pass 1  IDiag  1:
 E= -421.087686923382     Delta-E=        0.000000363596 Rises=F Damp=F
 DIIS: error= 5.54D-05 at cycle   2 NSaved=   2.
 NSaved= 2 IEnMin= 1 EnMin= -421.087687286977     IErMin= 1 ErrMin= 2.77D-05
 ErrMax= 5.54D-05  0.00D+00 EMaxC= 1.00D-01 BMatC= 5.41D-07 BMatP= 1.44D-07
 IDIUse=1 WtCom= 1.00D+00 WtEn= 0.00D+00
 Coeff-Com:  0.664D+00 0.336D+00
 Coeff:      0.664D+00 0.336D+00
 Gap=     0.104 Goal=   None    Shift=    0.000
 RMSDP=5.27D-06 MaxDP=1.75D-04 DE= 3.64D-07 OVMax= 5.11D-04

 Cycle  11  Pass 1  IDiag  1:
 E= -421.087687415707     Delta-E=       -0.000000492325 Rises=F Damp=F
 DIIS: error= 1.13D-05 at cycle   3 NSaved=   3.
 NSaved= 3 IEnMin= 3 EnMin= -421.087687415707     IErMin= 3 ErrMin= 1.13D-05
 ErrMax= 1.13D-05  0.00D+00 EMaxC= 1.00D-01 BMatC= 1.84D-08 BMatP= 1.44D-07
 IDIUse=1 WtCom= 1.00D+00 WtEn= 0.00D+00
 Coeff-Com:  0.343D+00 0.223D+00 0.434D+00
 Coeff:      0.343D+00 0.223D+00 0.434D+00
 Gap=     0.104 Goal=   None    Shift=    0.000
 RMSDP=8.84D-07 MaxDP=3.61D-05 DE=-4.92D-07 OVMax= 5.71D-05

 Cycle  12  Pass 1  IDiag  1:
 E= -421.087687428483     Delta-E=       -0.000000012776 Rises=F Damp=F
 DIIS: error= 4.06D-06 at cycle   4 NSaved=   4.
 NSaved= 4 IEnMin= 4 EnMin= -421.087687428483     IErMin= 4 ErrMin= 4.06D-06
 ErrMax= 4.06D-06  0.00D+00 EMaxC= 1.00D-01 BMatC= 3.01D-09 BMatP= 1.84D-08
 IDIUse=1 WtCom= 1.00D+00 WtEn= 0.00D+00
 Coeff-Com:  0.651D-01 0.919D-01 0.273D+00 0.570D+00
 Coeff:      0.651D-01 0.919D-01 0.273D+00 0.570D+00
 Gap=     0.104 Goal=   None    Shift=    0.000
 RMSDP=4.26D-07 MaxDP=1.18D-05 DE=-1.28D-08 OVMax= 1.91D-05

 Cycle  13  Pass 1  IDiag  1:
 E= -421.087687430571     Delta-E=       -0.000000002088 Rises=F Damp=F
 DIIS: error= 2.59D-06 at cycle   5 NSaved=   5.
 NSaved= 5 IEnMin= 5 EnMin= -421.087687430571     IErMin= 5 ErrMin= 2.59D-06
 ErrMax= 2.59D-06  0.00D+00 EMaxC= 1.00D-01 BMatC= 8.17D-10 BMatP= 3.01D-09
 IDIUse=1 WtCom= 1.00D+00 WtEn= 0.00D+00
 Coeff-Com: -0.290D-01 0.264D-01 0.895D-01 0.393D+00 0.520D+00
 Coeff:     -0.290D-01 0.264D-01 0.895D-01 0.393D+00 0.520D+00
 Gap=     0.104 Goal=   None    Shift=    0.000
 RMSDP=2.14D-07 MaxDP=5.12D-06 DE=-2.09D-09 OVMax= 1.21D-05

 Cycle  14  Pass 1  IDiag  1:
 E= -421.087687431267     Delta-E=       -0.000000000696 Rises=F Damp=F
 DIIS: error= 7.49D-07 at cycle   6 NSaved=   6.
 NSaved= 6 IEnMin= 6 EnMin= -421.087687431267     IErMin= 6 ErrMin= 7.49D-07
 ErrMax= 7.49D-07  0.00D+00 EMaxC= 1.00D-01 BMatC= 1.03D-10 BMatP= 8.17D-10
 IDIUse=1 WtCom= 1.00D+00 WtEn= 0.00D+00
 Coeff-Com: -0.235D-01 0.635D-02 0.640D-02 0.112D+00 0.299D+00 0.599D+00
 Coeff:     -0.235D-01 0.635D-02 0.640D-02 0.112D+00 0.299D+00 0.599D+00
 Gap=     0.104 Goal=   None    Shift=    0.000
 RMSDP=8.12D-08 MaxDP=1.90D-06 DE=-6.96D-10 OVMax= 5.38D-06

 SCF Done:  E(RB3LYP) =  -421.087687431     A.U. after   14 cycles
            NFock= 14  Conv=0.81D-07     -V/T= 2.0094
 KE= 4.171863681076D+02 PE=-1.799344947419D+03 EE= 5.454053301657D+02
 Leave Link  502 at Wed Dec 03 16:43:49 2025, MaxMem=   104857600 cpu:              11.0 elap:              11.4
 (Enter D:\Gaussian\G16W\l601.exe)
 Copying SCF densities to generalized density rwf, IOpCl= 0 IROHF=0.

 **********************************************************************

            Population analysis using the SCF density.

 **********************************************************************

 Orbital symmetries:
       Occupied  (A) (A) (A) (A) (A) (A) (A) (A) (A) (A) (A) (A)
                 (A) (A) (A) (A) (A) (A) (A) (A) (A) (A) (A) (A)
                 (A) (A) (A) (A) (A) (A) (A) (A)
       Virtual   (A) (A) (A) (A) (A) (A) (A) (A) (A) (A) (A) (A)
                 (A) (A) (A) (A) (A) (A) (A) (A) (A) (A) (A) (A)
                 (A) (A) (A) (A) (A) (A) (A) (A) (A) (A) (A) (A)
                 (A) (A) (A) (A) (A) (A) (A) (A) (A) (A) (A) (A)
                 (A) (A) (A) (A) (A) (A) (A) (A) (A) (A) (A) (A)
                 (A) (A) (A) (A) (A) (A) (A) (A) (A) (A) (A) (A)
                 (A) (A) (A) (A) (A) (A) (A) (A) (A) (A) (A) (A)
                 (A) (A) (A) (A) (A) (A) (A) (A) (A) (A) (A) (A)
                 (A) (A) (A) (A) (A) (A) (A) (A) (A) (A) (A) (A)
                 (A) (A) (A) (A) (A) (A) (A) (A) (A)
 The electronic state is 1-A.
 Alpha  occ. eigenvalues --  -19.42229 -19.37081 -10.50686 -10.48729 -10.45842
 Alpha  occ. eigenvalues --  -10.41241 -10.40996 -10.40832 -10.37253  -1.30210
 Alpha  occ. eigenvalues --   -1.24114  -1.07644  -0.97303  -0.96791  -0.88408
 Alpha  occ. eigenvalues --   -0.84757  -0.79716  -0.76090  -0.70623  -0.68672
 Alpha  occ. eigenvalues --   -0.65045  -0.64687  -0.62727  -0.61745  -0.60862
 Alpha  occ. eigenvalues --   -0.59406  -0.58044  -0.56561  -0.56208  -0.52051
 Alpha  occ. eigenvalues --   -0.46770  -0.45738
 Alpha virt. eigenvalues --   -0.35343  -0.20490  -0.19511  -0.11592  -0.08616
 Alpha virt. eigenvalues --   -0.05500  -0.04455  -0.04008   0.00237   0.01758
 Alpha virt. eigenvalues --    0.02003   0.02636   0.04079   0.06748   0.11689
 Alpha virt. eigenvalues --    0.12539   0.16105   0.17401   0.27287   0.29643
 Alpha virt. eigenvalues --    0.29833   0.30363   0.35294   0.35497   0.35921
 Alpha virt. eigenvalues --    0.38437   0.38955   0.40607   0.43757   0.44732
 Alpha virt. eigenvalues --    0.45195   0.46380   0.51210   0.51748   0.53525
 Alpha virt. eigenvalues --    0.55612   0.58020   0.59172   0.64383   0.65950
 Alpha virt. eigenvalues --    0.69858   0.70159   0.70867   0.72355   0.73603
 Alpha virt. eigenvalues --    0.73840   0.74860   0.78765   0.81793   0.84505
 Alpha virt. eigenvalues --    0.85461   0.87408   0.90410   0.92173   0.99930
 Alpha virt. eigenvalues --    1.00322   1.03111   1.07433   1.11919   1.12830
 Alpha virt. eigenvalues --    1.16552   1.20155   1.20286   1.22974   1.24478
 Alpha virt. eigenvalues --    1.26640   1.42975   1.48649   1.49349   1.52237
 Alpha virt. eigenvalues --    1.58069   1.58839   1.60849   1.65727   1.66157
 Alpha virt. eigenvalues --    1.69382   1.69946   1.70340   1.71712   1.73247
 Alpha virt. eigenvalues --    1.76457   1.83781   1.86203   1.86491   1.91965
 Alpha virt. eigenvalues --    1.94873   2.02982   2.05914   2.08818   2.10082
 Alpha virt. eigenvalues --    2.13806   2.14819   2.16896   2.21155   2.25038
 Alpha virt. eigenvalues --    2.35993   2.38090   2.40520   2.43133   2.47891
 Alpha virt. eigenvalues --    2.54674   2.60233   2.62297   2.67214   2.71058
 Alpha virt. eigenvalues --    2.82892   3.00004   3.15414   3.61048   3.84215
 Alpha virt. eigenvalues --    3.86596   3.94708   4.00273   4.10106   4.14819
 Alpha virt. eigenvalues --    4.33775   4.71971
          Condensed to atoms (all electrons):
               1          2          3          4          5          6
     1  C    4.637767   0.499507   0.011420  -0.016595  -0.013966   0.444073
     2  C    0.499507   5.194052   0.404719  -0.052251  -0.022039  -0.060722
     3  C    0.011420   0.404719   4.868459   0.241885  -0.117262  -0.017894
     4  C   -0.016595  -0.052251   0.241885   4.577815   0.394130  -0.017280
     5  C   -0.013966  -0.022039  -0.117262   0.394130   5.110758   0.504844
     6  C    0.444073  -0.060722  -0.017894  -0.017280   0.504844   4.994864
     7  H   -0.021482   0.351378  -0.038051   0.002728  -0.000264   0.005170
     8  H    0.003281  -0.000006   0.005942  -0.027631   0.354380  -0.028906
     9  O   -0.000332   0.005215  -0.068238   0.496144  -0.060233   0.004791
    10  H   -0.041692   0.005410  -0.000273   0.002876  -0.026791   0.365912
    11  O    0.003350  -0.056707   0.346499  -0.050155   0.003045   0.000130
    12  C    0.359196  -0.038789   0.005281   0.000214   0.005046  -0.058471
    13  H   -0.020979   0.000444  -0.000207   0.000006  -0.000045  -0.001898
    14  H   -0.020966   0.000437  -0.000207   0.000006  -0.000046  -0.001896
    15  H   -0.031263  -0.002895   0.000430  -0.000004  -0.000151   0.003682
    16  H    0.000504  -0.003786  -0.023461   0.005757  -0.000209   0.000027
               7          8          9         10         11         12
     1  C   -0.021482   0.003281  -0.000332  -0.041692   0.003350   0.359196
     2  C    0.351378  -0.000006   0.005215   0.005410  -0.056707  -0.038789
     3  C   -0.038051   0.005942  -0.068238  -0.000273   0.346499   0.005281
     4  C    0.002728  -0.027631   0.496144   0.002876  -0.050155   0.000214
     5  C   -0.000264   0.354380  -0.060233  -0.026791   0.003045   0.005046
     6  C    0.005170  -0.028906   0.004791   0.365912   0.000130  -0.058471
     7  H    0.493015   0.000009  -0.000042  -0.000115  -0.003815  -0.007182
     8  H    0.000009   0.454120   0.000009  -0.004291  -0.000037  -0.000114
     9  O   -0.000042   0.000009   7.952057  -0.000048  -0.002492   0.000000
    10  H   -0.000115  -0.004291  -0.000048   0.478199   0.000002  -0.004945
    11  O   -0.003815  -0.000037  -0.002492   0.000002   8.015223  -0.000050
    12  C   -0.007182  -0.000114   0.000000  -0.004945  -0.000050   5.200991
    13  H    0.000098   0.000000   0.000000   0.001364   0.000001   0.360248
    14  H    0.000098   0.000000   0.000000   0.001361   0.000001   0.360231
    15  H    0.004872   0.000001   0.000000   0.000031  -0.000001   0.372467
    16  H    0.005634   0.000003  -0.000195  -0.000001   0.245217  -0.000015
              13         14         15         16
     1  C   -0.020979  -0.020966  -0.031263   0.000504
     2  C    0.000444   0.000437  -0.002895  -0.003786
     3  C   -0.000207  -0.000207   0.000430  -0.023461
     4  C    0.000006   0.000006  -0.000004   0.005757
     5  C   -0.000045  -0.000046  -0.000151  -0.000209
     6  C   -0.001898  -0.001896   0.003682   0.000027
     7  H    0.000098   0.000098   0.004872   0.005634
     8  H    0.000000   0.000000   0.000001   0.000003
     9  O    0.000000   0.000000   0.000000  -0.000195
    10  H    0.001364   0.001361   0.000031  -0.000001
    11  O    0.000001   0.000001  -0.000001   0.245217
    12  C    0.360248   0.360231   0.372467  -0.000015
    13  H    0.458344  -0.018530  -0.021199   0.000000
    14  H   -0.018530   0.458312  -0.021191   0.000000
    15  H   -0.021199  -0.021191   0.478756   0.000003
    16  H    0.000000   0.000000   0.000003   0.304847
 Mulliken charges:
               1
     1  C    0.208178
     2  C   -0.223970
     3  C    0.380957
     4  C    0.442354
     5  C   -0.131198
     6  C   -0.136426
     7  H    0.207948
     8  H    0.243238
     9  O   -0.326638
    10  H    0.223000
    11  O   -0.500211
    12  C   -0.554108
    13  H    0.242354
    14  H    0.242390
    15  H    0.216461
    16  H    0.465673
 Sum of Mulliken charges =   1.00000
 Mulliken charges with hydrogens summed into heavy atoms:
               1
     1  C    0.208178
     2  C   -0.016021
     3  C    0.380957
     4  C    0.442354
     5  C    0.112039
     6  C    0.086573
     9  O   -0.326638
    11  O   -0.034538
    12  C    0.147096
 Electronic spatial extent (au):  <R**2>=           1161.9103
 Charge=              1.0000 electrons
 Dipole moment (field-independent basis, Debye):
    X=             -4.6861    Y=              1.8689    Z=              0.0003  Tot=              5.0450
 Quadrupole moment (field-independent basis, Debye-Ang):
   XX=            -37.6167   YY=            -30.0416   ZZ=            -49.1721
   XY=              3.4786   XZ=             -0.0010   YZ=             -0.0003
 Traceless Quadrupole moment (field-independent basis, Debye-Ang):
   XX=              1.3268   YY=              8.9018   ZZ=            -10.2286
   XY=              3.4786   XZ=             -0.0010   YZ=             -0.0003
 Octapole moment (field-independent basis, Debye-Ang**2):
  XXX=            -47.3506  YYY=             23.5228  ZZZ=              0.0018  XYY=              9.1687
  XXY=              6.6360  XXZ=              0.0035  XZZ=              4.4785  YZZ=              1.2828
  YYZ=             -0.0019  XYZ=             -0.0008
 Hexadecapole moment (field-independent basis, Debye-Ang**3):
 XXXX=           -837.1625 YYYY=           -294.4822 ZZZZ=            -50.8551 XXXY=             13.3935
 XXXZ=             -0.0013 YYYX=             37.8141 YYYZ=             -0.0011 ZZZX=              0.0012
 ZZZY=              0.0050 XXYY=           -204.0655 XXZZ=           -152.7164 YYZZ=            -86.1010
 XXYZ=              0.0046 YYXZ=              0.0060 ZZXY=              2.2126
 N-N= 4.156655617141D+02 E-N=-1.799344904584D+03  KE= 4.171863681076D+02
 No NMR shielding tensors so no spin-rotation constants.
 Leave Link  601 at Wed Dec 03 16:43:50 2025, MaxMem=   104857600 cpu:               1.0 elap:               0.2
 (Enter D:\Gaussian\G16W\l9999.exe)
 1|1|UNPC-PC-20250526LCFF|SP|RB3LYP|6-31G(d)|C7H7O2(1+)|ADMINISTRATOR|0
 3-Dec-2025|0||#P B3LYP/6-31G* SCF=conver=7 out=wfn||Generated by Multi
 wfn (http://sobereva.com/multiwfn)||1,1|C,0,-1.519548,0.055869,0.00000
 3|C,0,-0.551731,1.065288,-0.000034|C,0,0.803755,0.765685,-0.000037|C,0
 ,1.273216,-0.625921,0.000004|C,0,0.228265,-1.631034,0.000026|C,0,-1.09
 9009,-1.301508,0.000026|H,0,-0.866903,2.106204,-0.000063|H,0,0.562377,
 -2.661966,0.000037|O,0,2.484465,-0.906843,-0.000011|H,0,-1.852978,-2.0
 82064,0.000042|O,0,1.768432,1.702299,-0.000074|C,0,-2.986255,0.38817,0
 .000077|H,0,-3.483156,-0.03534,-0.879103|H,0,-3.48281,-0.034288,0.8799
 67|H,0,-3.158107,1.465581,-0.000518|H,0,1.366238,2.578921,-0.000073||V
 ersion=EM64W-G16RevA.03|State=1-A|HF=-421.0876874|RMSD=8.116e-008|Dipo
 le=-1.843648,0.7352772,0.0001017|Quadrupole=0.9864251,6.6183019,-7.604
 7269,2.5862465,-0.0007796,-0.0002056|PG=C01 [X(C7H7O2)]||@

 Writing a WFN file to "N-1.wfn"


 YE HAVE SOWN MUCH, AND BRING IN LITTLE.
 YE EAT, BUT YE HAVE NOT ENOUGH.
 YE DRINK, BUT YE ARE NOT FILLED WITH DRINK.
 YE CLOTHE YOU, BUT THERE IS NONE WARM.
 AND HE THAT EARNETH WAGES EARNETH WAGES TO PUT
 IT INTO A BAG WITH HOLES.
                                     HAGGAI I,6
 Job cpu time:       0 days  0 hours  0 minutes 14.0 seconds.
 Elapsed time:       0 days  0 hours  0 minutes 13.1 seconds.
 File lengths (MBytes):  RWF=     15 Int=      0 D2E=      0 Chk=      2 Scr=      1
 Normal termination of Gaussian 16 at Wed Dec 03 16:43:50 2025.
