 Generated by Multiwfn (http://sobereva.com/multiwfn)
GAUSSIAN             32 MOL ORBITALS    280 PRIMITIVES       16 NUCLEI
  C    1    (CENTRE  1)  -2.87152940  0.10557749  0.00000570  CHARGE =  6.0
  C    2    (CENTRE  2)  -1.04262028  2.01310289 -0.00006422  CHARGE =  6.0
  C    3    (CENTRE  3)   1.51887701  1.44693519 -0.00006989  CHARGE =  6.0
  C    4    (CENTRE  4)   2.40602965 -1.18281905  0.00000759  CHARGE =  6.0
  C    5    (CENTRE  5)   0.43135838 -3.08220728  0.00004916  CHARGE =  6.0
  C    6    (CENTRE  6)  -2.07682595 -2.45949331  0.00004916  CHARGE =  6.0
  H    7    (CENTRE  7)  -1.63820898  3.98014906 -0.00011902  CHARGE =  1.0
  H    8    (CENTRE  8)   1.06273850 -5.03038644  0.00006995  CHARGE =  1.0
  O    9    (CENTRE  9)   4.69495851 -1.71368476 -0.00002076  CHARGE =  8.0
  H   10    (CENTRE 10)  -3.50162091 -3.93453033  0.00007940  CHARGE =  1.0
  O   11    (CENTRE 11)   3.34185240  3.21687908 -0.00013981  CHARGE =  8.0
  C   12    (CENTRE 12)  -5.64320392  0.73353546  0.00014554  CHARGE =  6.0
  H   13    (CENTRE 13)  -6.58221075 -0.06678242 -1.66126388  CHARGE =  1.0
  H   14    (CENTRE 14)  -6.58155690 -0.06479443  1.66289666  CHARGE =  1.0
  H   15    (CENTRE 15)  -5.96795707  2.76954718 -0.00097885  CHARGE =  1.0
  H   16    (CENTRE 16)   2.58181594  4.87345460 -0.00013792  CHARGE =  1.0
CENTRE ASSIGNMENTS    1  1  1  1  1  1  1  1  1  1  1  1  1  1  1  1  1  1  1  1
CENTRE ASSIGNMENTS    1  1  1  1  1  1  1  1  2  2  2  2  2  2  2  2  2  2  2  2
CENTRE ASSIGNMENTS    2  2  2  2  2  2  2  2  2  2  2  2  2  2  2  2  3  3  3  3
CENTRE ASSIGNMENTS    3  3  3  3  3  3  3  3  3  3  3  3  3  3  3  3  3  3  3  3
CENTRE ASSIGNMENTS    3  3  3  3  4  4  4  4  4  4  4  4  4  4  4  4  4  4  4  4
CENTRE ASSIGNMENTS    4  4  4  4  4  4  4  4  4  4  4  4  5  5  5  5  5  5  5  5
CENTRE ASSIGNMENTS    5  5  5  5  5  5  5  5  5  5  5  5  5  5  5  5  5  5  5  5
CENTRE ASSIGNMENTS    6  6  6  6  6  6  6  6  6  6  6  6  6  6  6  6  6  6  6  6
CENTRE ASSIGNMENTS    6  6  6  6  6  6  6  6  7  7  7  7  8  8  8  8  9  9  9  9
CENTRE ASSIGNMENTS    9  9  9  9  9  9  9  9  9  9  9  9  9  9  9  9  9  9  9  9
CENTRE ASSIGNMENTS    9  9  9  9 10 10 10 10 11 11 11 11 11 11 11 11 11 11 11 11
CENTRE ASSIGNMENTS   11 11 11 11 11 11 11 11 11 11 11 11 11 11 11 11 12 12 12 12
CENTRE ASSIGNMENTS   12 12 12 12 12 12 12 12 12 12 12 12 12 12 12 12 12 12 12 12
CENTRE ASSIGNMENTS   12 12 12 12 13 13 13 13 14 14 14 14 15 15 15 15 16 16 16 16
TYPE ASSIGNMENTS      1  1  1  1  1  1  1  1  1  2  2  2  3  3  3  4  4  4  1  2
TYPE ASSIGNMENTS      3  4  5  6  7  8  9 10  1  1  1  1  1  1  1  1  1  2  2  2
TYPE ASSIGNMENTS      3  3  3  4  4  4  1  2  3  4  5  6  7  8  9 10  1  1  1  1
TYPE ASSIGNMENTS      1  1  1  1  1  2  2  2  3  3  3  4  4  4  1  2  3  4  5  6
TYPE ASSIGNMENTS      7  8  9 10  1  1  1  1  1  1  1  1  1  2  2  2  3  3  3  4
TYPE ASSIGNMENTS      4  4  1  2  3  4  5  6  7  8  9 10  1  1  1  1  1  1  1  1
TYPE ASSIGNMENTS      1  2  2  2  3  3  3  4  4  4  1  2  3  4  5  6  7  8  9 10
TYPE ASSIGNMENTS      1  1  1  1  1  1  1  1  1  2  2  2  3  3  3  4  4  4  1  2
TYPE ASSIGNMENTS      3  4  5  6  7  8  9 10  1  1  1  1  1  1  1  1  1  1  1  1
TYPE ASSIGNMENTS      1  1  1  1  1  2  2  2  3  3  3  4  4  4  1  2  3  4  5  6
TYPE ASSIGNMENTS      7  8  9 10  1  1  1  1  1  1  1  1  1  1  1  1  1  2  2  2
TYPE ASSIGNMENTS      3  3  3  4  4  4  1  2  3  4  5  6  7  8  9 10  1  1  1  1
TYPE ASSIGNMENTS      1  1  1  1  1  2  2  2  3  3  3  4  4  4  1  2  3  4  5  6
TYPE ASSIGNMENTS      7  8  9 10  1  1  1  1  1  1  1  1  1  1  1  1  1  1  1  1
EXPONENTS  0.3047525D+04 0.4573695D+03 0.1039487D+03 0.2921016D+02 0.9286663D+01
EXPONENTS  0.3163927D+01 0.7868272D+01 0.1881289D+01 0.5442493D+00 0.7868272D+01
EXPONENTS  0.1881289D+01 0.5442493D+00 0.7868272D+01 0.1881289D+01 0.5442493D+00
EXPONENTS  0.7868272D+01 0.1881289D+01 0.5442493D+00 0.1687145D+00 0.1687145D+00
EXPONENTS  0.1687145D+00 0.1687145D+00 0.8000000D+00 0.8000000D+00 0.8000000D+00
EXPONENTS  0.8000000D+00 0.8000000D+00 0.8000000D+00 0.3047525D+04 0.4573695D+03
EXPONENTS  0.1039487D+03 0.2921016D+02 0.9286663D+01 0.3163927D+01 0.7868272D+01
EXPONENTS  0.1881289D+01 0.5442493D+00 0.7868272D+01 0.1881289D+01 0.5442493D+00
EXPONENTS  0.7868272D+01 0.1881289D+01 0.5442493D+00 0.7868272D+01 0.1881289D+01
EXPONENTS  0.5442493D+00 0.1687145D+00 0.1687145D+00 0.1687145D+00 0.1687145D+00
EXPONENTS  0.8000000D+00 0.8000000D+00 0.8000000D+00 0.8000000D+00 0.8000000D+00
EXPONENTS  0.8000000D+00 0.3047525D+04 0.4573695D+03 0.1039487D+03 0.2921016D+02
EXPONENTS  0.9286663D+01 0.3163927D+01 0.7868272D+01 0.1881289D+01 0.5442493D+00
EXPONENTS  0.7868272D+01 0.1881289D+01 0.5442493D+00 0.7868272D+01 0.1881289D+01
EXPONENTS  0.5442493D+00 0.7868272D+01 0.1881289D+01 0.5442493D+00 0.1687145D+00
EXPONENTS  0.1687145D+00 0.1687145D+00 0.1687145D+00 0.8000000D+00 0.8000000D+00
EXPONENTS  0.8000000D+00 0.8000000D+00 0.8000000D+00 0.8000000D+00 0.3047525D+04
EXPONENTS  0.4573695D+03 0.1039487D+03 0.2921016D+02 0.9286663D+01 0.3163927D+01
EXPONENTS  0.7868272D+01 0.1881289D+01 0.5442493D+00 0.7868272D+01 0.1881289D+01
EXPONENTS  0.5442493D+00 0.7868272D+01 0.1881289D+01 0.5442493D+00 0.7868272D+01
EXPONENTS  0.1881289D+01 0.5442493D+00 0.1687145D+00 0.1687145D+00 0.1687145D+00
EXPONENTS  0.1687145D+00 0.8000000D+00 0.8000000D+00 0.8000000D+00 0.8000000D+00
EXPONENTS  0.8000000D+00 0.8000000D+00 0.3047525D+04 0.4573695D+03 0.1039487D+03
EXPONENTS  0.2921016D+02 0.9286663D+01 0.3163927D+01 0.7868272D+01 0.1881289D+01
EXPONENTS  0.5442493D+00 0.7868272D+01 0.1881289D+01 0.5442493D+00 0.7868272D+01
EXPONENTS  0.1881289D+01 0.5442493D+00 0.7868272D+01 0.1881289D+01 0.5442493D+00
EXPONENTS  0.1687145D+00 0.1687145D+00 0.1687145D+00 0.1687145D+00 0.8000000D+00
EXPONENTS  0.8000000D+00 0.8000000D+00 0.8000000D+00 0.8000000D+00 0.8000000D+00
EXPONENTS  0.3047525D+04 0.4573695D+03 0.1039487D+03 0.2921016D+02 0.9286663D+01
EXPONENTS  0.3163927D+01 0.7868272D+01 0.1881289D+01 0.5442493D+00 0.7868272D+01
EXPONENTS  0.1881289D+01 0.5442493D+00 0.7868272D+01 0.1881289D+01 0.5442493D+00
EXPONENTS  0.7868272D+01 0.1881289D+01 0.5442493D+00 0.1687145D+00 0.1687145D+00
EXPONENTS  0.1687145D+00 0.1687145D+00 0.8000000D+00 0.8000000D+00 0.8000000D+00
EXPONENTS  0.8000000D+00 0.8000000D+00 0.8000000D+00 0.1873114D+02 0.2825394D+01
EXPONENTS  0.6401217D+00 0.1612778D+00 0.1873114D+02 0.2825394D+01 0.6401217D+00
EXPONENTS  0.1612778D+00 0.5484672D+04 0.8252349D+03 0.1880470D+03 0.5296450D+02
EXPONENTS  0.1689757D+02 0.5799635D+01 0.1553962D+02 0.3599934D+01 0.1013762D+01
EXPONENTS  0.1553962D+02 0.3599934D+01 0.1013762D+01 0.1553962D+02 0.3599934D+01
EXPONENTS  0.1013762D+01 0.1553962D+02 0.3599934D+01 0.1013762D+01 0.2700058D+00
EXPONENTS  0.2700058D+00 0.2700058D+00 0.2700058D+00 0.8000000D+00 0.8000000D+00
EXPONENTS  0.8000000D+00 0.8000000D+00 0.8000000D+00 0.8000000D+00 0.1873114D+02
EXPONENTS  0.2825394D+01 0.6401217D+00 0.1612778D+00 0.5484672D+04 0.8252349D+03
EXPONENTS  0.1880470D+03 0.5296450D+02 0.1689757D+02 0.5799635D+01 0.1553962D+02
EXPONENTS  0.3599934D+01 0.1013762D+01 0.1553962D+02 0.3599934D+01 0.1013762D+01
EXPONENTS  0.1553962D+02 0.3599934D+01 0.1013762D+01 0.1553962D+02 0.3599934D+01
EXPONENTS  0.1013762D+01 0.2700058D+00 0.2700058D+00 0.2700058D+00 0.2700058D+00
EXPONENTS  0.8000000D+00 0.8000000D+00 0.8000000D+00 0.8000000D+00 0.8000000D+00
EXPONENTS  0.8000000D+00 0.3047525D+04 0.4573695D+03 0.1039487D+03 0.2921016D+02
EXPONENTS  0.9286663D+01 0.3163927D+01 0.7868272D+01 0.1881289D+01 0.5442493D+00
EXPONENTS  0.7868272D+01 0.1881289D+01 0.5442493D+00 0.7868272D+01 0.1881289D+01
EXPONENTS  0.5442493D+00 0.7868272D+01 0.1881289D+01 0.5442493D+00 0.1687145D+00
EXPONENTS  0.1687145D+00 0.1687145D+00 0.1687145D+00 0.8000000D+00 0.8000000D+00
EXPONENTS  0.8000000D+00 0.8000000D+00 0.8000000D+00 0.8000000D+00 0.1873114D+02
EXPONENTS  0.2825394D+01 0.6401217D+00 0.1612778D+00 0.1873114D+02 0.2825394D+01
EXPONENTS  0.6401217D+00 0.1612778D+00 0.1873114D+02 0.2825394D+01 0.6401217D+00
EXPONENTS  0.1612778D+00 0.1873114D+02 0.2825394D+01 0.6401217D+00 0.1612778D+00
MO    1     MO 0.0        OCC NO =    2.0000000  ORB. ENERGY =  -19.422292
 -0.37540891D-05 -0.69255614D-05 -0.11180004D-04 -0.14553043D-04 -0.12418138D-04
 -0.42876845D-05  0.24548973D-04  0.11314599D-04 -0.31727318D-04  0.81780862D-04
  0.62704378D-04  0.31293879D-04  0.40787433D-04  0.31273216D-04  0.15607527D-04
 -0.20594620D-08 -0.15790649D-08 -0.78806403D-09  0.32913819D-03  0.98373228D-04
  0.12072076D-03 -0.28911629D-08  0.28420337D-04  0.32414042D-04 -0.31469240D-05
  0.84685159D-04 -0.60906569D-08 -0.51603035D-09  0.14231823D-04  0.26254935D-04
  0.42383606D-04  0.55170861D-04  0.47077396D-04  0.16254693D-04 -0.91463503D-04
 -0.42155445D-04  0.11820827D-03 -0.94583568D-04 -0.72520681D-04 -0.36192903D-04
 -0.38789527D-04 -0.29741349D-04 -0.14843018D-04 -0.27676447D-08 -0.21220544D-08
 -0.10590539D-08 -0.58893954D-03  0.94589254D-05  0.30421544D-03 -0.79773394D-08
 -0.10049121D-03 -0.55161191D-04  0.60522592D-04 -0.68874432D-04  0.37843971D-08
  0.84146759D-08 -0.21446148D-04 -0.39563956D-04 -0.63868492D-04 -0.83137799D-04
 -0.70941635D-04 -0.24494442D-04 -0.96789773D-04 -0.44610318D-04  0.12509199D-03
  0.43244775D-03  0.33157350D-03  0.16547842D-03  0.33735796D-03  0.25866469D-03
  0.12909181D-03 -0.14853652D-07 -0.11388838D-07 -0.56838286D-08 -0.16165967D-03
 -0.56640039D-03 -0.38862330D-03  0.17385159D-07 -0.45636868D-04 -0.16316966D-03
 -0.92437017D-04 -0.12189565D-03  0.25997848D-08  0.44601222D-08  0.10881272D-04
  0.20073822D-04  0.32405373D-04  0.42182168D-04  0.35994120D-04  0.12427905D-04
 -0.57879887D-04 -0.26676787D-04  0.74804495D-04  0.72446133D-04  0.55547100D-04
  0.27721896D-04  0.27951619D-05  0.21431528D-05  0.10695835D-05 -0.22559617D-09
 -0.17297284D-09 -0.86325568D-10 -0.57259543D-05  0.22932870D-03 -0.28349558D-04
 -0.24421025D-08  0.95111468D-05 -0.23618195D-04  0.34318076D-04  0.45473012D-04
 -0.20041574D-08  0.32953880D-08  0.87944304D-05  0.16224007D-04  0.26190577D-04
  0.34092350D-04  0.29091064D-04  0.10044445D-04 -0.27322195D-04 -0.12592775D-04
  0.35311454D-04  0.17720762D-04  0.13587156D-04  0.67809432D-05  0.77526224D-04
  0.59442191D-04  0.29665819D-04 -0.16928799D-08 -0.12979929D-08 -0.64778943D-09
  0.11920913D-03 -0.40618559D-04 -0.27907197D-05  0.16355115D-08  0.32784384D-04
 -0.24648743D-05  0.54829577D-04 -0.19665640D-04  0.52563250D-09  0.62159127D-08
  0.40577371D-05  0.74857326D-05  0.12084293D-04  0.15730159D-04  0.13422574D-04
  0.46344921D-05 -0.13830344D-04 -0.63743930D-05  0.17874463D-04  0.37458678D-04
  0.28720939D-04  0.14333761D-04  0.14059947D-04  0.10780275D-04  0.53801129D-05
  0.22324387D-08  0.17116924D-08  0.85425446D-09 -0.53924774D-04 -0.74342325D-04
  0.67775959D-06 -0.90109459D-09 -0.32737158D-05  0.31104144D-05  0.24766247D-04
  0.32328840D-04 -0.94494987D-09  0.75336384D-09 -0.19052014D-04 -0.32315821D-04
 -0.36790420D-04 -0.62327102D-04 -0.68451425D-06 -0.11610657D-05 -0.13218323D-05
 -0.17447106D-04 -0.30962555D-06 -0.56987631D-06 -0.92216743D-06 -0.12122149D-05
 -0.10397097D-05 -0.35549440D-06 -0.15231696D-03 -0.67963531D-04  0.20069722D-03
 -0.32815901D-04 -0.25282883D-04 -0.11100547D-04  0.17216273D-03  0.13264210D-03
  0.58237026D-04 -0.14343176D-08 -0.11050644D-08 -0.48518279D-09 -0.42223787D-03
  0.94743760D-04 -0.41233595D-04 -0.17968078D-08  0.18590247D-03  0.22274544D-03
  0.23594367D-03  0.30209054D-04  0.23656710D-08 -0.33947041D-09 -0.40145534D-05
 -0.68094424D-05 -0.77523095D-05 -0.20522423D-04  0.82563455D+00  0.15196083D+01
  0.24590131D+01  0.32324415D+01  0.27724463D+01  0.94794649D+00 -0.15803539D-01
 -0.70515085D-02  0.20823199D-01 -0.33718107D-02 -0.25977983D-02 -0.11405734D-02
  0.80009520D-03  0.61643022D-03  0.27064607D-03  0.63167080D-07  0.48666830D-07
  0.21367360D-07  0.38516292D-02 -0.20040076D-03 -0.31449099D-03  0.11000424D-07
 -0.92131209D-02 -0.91611819D-02 -0.91983851D-02  0.20218293D-03 -0.40296201D-08
 -0.63815668D-08  0.47657120D-05  0.87918080D-05  0.14192704D-04  0.18474684D-04
  0.15764481D-04  0.54430965D-05 -0.18297927D-04 -0.84334978D-05  0.23648408D-04
 -0.90320463D-05 -0.69252002D-05 -0.34561603D-05 -0.29291149D-05 -0.22458595D-05
 -0.11208413D-05 -0.20895802D-09 -0.16021576D-09 -0.79958892D-10 -0.40449575D-04
 -0.21928911D-04 -0.21908443D-04  0.67501707D-09 -0.18119570D-04  0.18664586D-04
  0.22668452D-04 -0.33584130D-04  0.96726467D-08  0.31271358D-07  0.16574945D-05
  0.28114244D-05  0.32007073D-05 -0.27530166D-05  0.16599277D-05  0.28155516D-05
  0.32054060D-05 -0.27428578D-05  0.54659620D-05  0.92713061D-05  0.10555054D-04
  0.10181847D-04  0.89736454D-04  0.15221001D-03  0.17328572D-03 -0.18678237D-03
MO    2     MO 0.0        OCC NO =    2.0000000  ORB. ENERGY =  -19.370814
  0.11880663D-04  0.21917503D-04  0.35381645D-04  0.46056390D-04  0.39300001D-04
  0.13569346D-04 -0.49032197D-04 -0.22598895D-04  0.63369659D-04  0.49931298D-04
  0.38284152D-04  0.19106475D-04 -0.26261662D-04 -0.20135777D-04 -0.10049164D-04
  0.35231165D-08  0.27013023D-08  0.13481391D-08 -0.38988329D-03 -0.24347267D-03
  0.32404616D-04  0.89500993D-09  0.19905826D-04 -0.43783009D-04  0.51370060D-04
 -0.41263453D-04  0.43977942D-09  0.46566550D-08 -0.34777103D-05 -0.64156964D-05
 -0.10356923D-04 -0.13481637D-04 -0.11503905D-04 -0.39720220D-05  0.25286439D-04
  0.11654497D-04 -0.32680426D-04  0.11516092D-03  0.88298091D-04  0.44066936D-04
 -0.45069212D-04 -0.34556213D-04 -0.17245972D-04  0.15045350D-08  0.11535820D-08
  0.57571829D-09  0.60536182D-03  0.84249497D-04 -0.26369309D-03  0.77284028D-08
  0.43410393D-04  0.19245208D-04  0.10088840D-04  0.54159095D-05  0.11662509D-08
  0.11989732D-08  0.26825535D-04  0.49487875D-04  0.79888774D-04  0.10399145D-03
  0.88736090D-04  0.30638440D-04 -0.10860644D-03 -0.50056607D-04  0.14036395D-03
 -0.17610036D-04 -0.13502259D-04 -0.67385735D-05  0.65081947D-04  0.49900709D-04
  0.24903951D-04  0.59015741D-09  0.45249527D-09  0.22582685D-09 -0.61507985D-03
  0.47142621D-03  0.39992622D-03 -0.20030943D-07  0.22283869D-04  0.47928204D-04
  0.76001669D-04  0.13819773D-03 -0.11635513D-08  0.29044019D-08 -0.45647727D-04
 -0.84211142D-04 -0.13594289D-03 -0.17695726D-03 -0.15099795D-03 -0.52135962D-04
 -0.72829696D-04 -0.33567140D-04  0.94125765D-04  0.13412741D-03  0.10284039D-03
  0.51324563D-04 -0.19988861D-04 -0.15326191D-04 -0.76488432D-05 -0.26654327D-08
 -0.20436847D-08 -0.10199419D-08 -0.93447310D-04 -0.11458001D-02  0.25007707D-03
  0.83471676D-08 -0.10006434D-02 -0.17495648D-03 -0.19808905D-03  0.40826128D-03
  0.28980420D-07 -0.97762800D-08  0.14190600D-04  0.26178886D-04  0.42260839D-04
  0.55011056D-04  0.46941034D-04  0.16207611D-04 -0.87278034D-04 -0.40226366D-04
  0.11279893D-03 -0.80633998D-04 -0.61825035D-04 -0.30855026D-04 -0.47392603D-06
 -0.36337642D-06 -0.18135030D-06  0.33884583D-08  0.25980549D-08  0.12966115D-08
 -0.70966295D-03  0.20032745D-03 -0.42365711D-03  0.29619666D-08 -0.96502859D-04
 -0.26398439D-04  0.51897666D-04  0.99055700D-05  0.29946070D-08 -0.27923141D-08
 -0.34086436D-05 -0.62882819D-05 -0.10151237D-04 -0.13213894D-04 -0.11275440D-04
 -0.38931384D-05  0.24820445D-04  0.11439720D-04 -0.32078170D-04  0.12480297D-03
  0.95691005D-04  0.47756518D-04 -0.92218877D-05 -0.70707586D-05 -0.35288041D-05
  0.40374282D-09  0.30956439D-09  0.15449432D-09  0.54756534D-03  0.18820062D-03
  0.12096912D-03 -0.22053161D-08  0.47087818D-04  0.23679438D-04  0.97612586D-05
 -0.73243971D-04  0.22937258D-08 -0.21636605D-08  0.10852780D-04  0.18408370D-04
  0.20957278D-04  0.70358840D-04 -0.22697673D-04 -0.38499549D-04 -0.43830376D-04
 -0.16464180D-03  0.82562968D+00  0.15195994D+01  0.24589986D+01  0.32324225D+01
  0.27724300D+01  0.94794090D+00 -0.15528087D-01 -0.69286020D-02  0.20460254D-01
 -0.34808300D-02 -0.26817919D-02 -0.11774511D-02  0.84518336D-03  0.65116821D-03
  0.28589792D-03  0.34276217D-07  0.26407977D-07  0.11594524D-07  0.45392975D-02
 -0.63191788D-03  0.13980133D-03  0.12377546D-07 -0.87482431D-02 -0.93318818D-02
 -0.93435224D-02 -0.28006322D-03 -0.18516186D-07  0.55129242D-08  0.61123373D-05
  0.10367681D-04  0.11803238D-04  0.44726340D-04  0.11955112D-03  0.22003788D-03
  0.35606283D-03  0.46805455D-03  0.40144767D-03  0.13726178D-03 -0.21356353D-03
 -0.95291633D-04  0.28139747D-03  0.52127449D-05  0.40161389D-05  0.17633013D-05
 -0.16479397D-03 -0.12696487D-03 -0.55744415D-04 -0.38563052D-08 -0.29710753D-08
 -0.13044621D-08 -0.63087995D-03  0.12818671D-03  0.14156489D-03 -0.22208369D-08
  0.21678696D-03  0.24911888D-03  0.26008285D-03 -0.10554242D-03  0.19504197D-08
 -0.11024977D-08  0.46961988D-06  0.86635698D-06  0.13985688D-05  0.18205210D-05
  0.15534539D-05  0.53637029D-06 -0.51163446D-05 -0.23581186D-05  0.66124106D-05
 -0.31020355D-04 -0.23784441D-04 -0.11870103D-04  0.12878641D-04  0.98745247D-05
  0.49280799D-05 -0.45178481D-08 -0.34639994D-08 -0.17287785D-08 -0.10312262D-03
 -0.30535291D-04  0.63669471D-05  0.90010396D-08 -0.10276845D-04 -0.27813457D-05
 -0.21702132D-05  0.95097957D-05  0.31828876D-08 -0.32938429D-08  0.12098545D-05
  0.20521422D-05  0.23362913D-05  0.13702448D-05  0.12091631D-05  0.20509695D-05
  0.23349563D-05  0.13616771D-05  0.21750874D-05  0.36893599D-05  0.42002058D-05
  0.35051236D-05  0.45670852D-05  0.77466409D-05  0.88192768D-05 -0.31386135D-04
MO    3     MO 0.0        OCC NO =    2.0000000  ORB. ENERGY =  -10.506865
  0.49635098D-04  0.91567065D-04  0.14781763D-03  0.19241464D-03  0.16418776D-03
  0.56690088D-04 -0.80988894D-04 -0.37327707D-04  0.10467079D-03 -0.13964610D-03
 -0.10707178D-03 -0.53436320D-04 -0.48503139D-04 -0.37189131D-04 -0.18559983D-04
  0.63577263D-08  0.48747013D-08  0.24328176D-08 -0.12883253D-02 -0.50604384D-03
 -0.80583476D-04  0.18867583D-08  0.16260149D-04  0.41481228D-04  0.34338177D-04
  0.13581795D-04  0.10989348D-07 -0.77750229D-08  0.14481676D-02  0.26715864D-02
  0.43127688D-02  0.56139436D-02  0.47903882D-02  0.16540059D-02  0.30500693D-03
  0.14057742D-03 -0.39419375D-03 -0.36010584D-03 -0.27610632D-03 -0.13779640D-03
  0.23606072D-03  0.18099639D-03  0.90329883D-04  0.32884632D-08  0.25213850D-08
  0.12583478D-08  0.23816049D-02  0.41728373D-03 -0.10532344D-02  0.26575605D-07
 -0.45532271D-03 -0.23359170D-03 -0.36496660D-03 -0.12329816D-03  0.77124416D-08
 -0.76167000D-08  0.53255933D+00  0.98246797D+00  0.15860079D+01  0.20645111D+01
  0.17616510D+01  0.60825577D+00 -0.19711556D-01 -0.90850380D-02  0.25475395D-01
  0.79536233D-03  0.60983338D-03  0.30434960D-03  0.64778948D-03  0.49668389D-03
  0.24788007D-03 -0.28055936D-07 -0.21511512D-07 -0.10735752D-07 -0.35246589D-02
  0.11846715D-02  0.12500172D-02 -0.49219359D-07 -0.95719263D-02 -0.97121470D-02
 -0.10431049D-01  0.87646500D-03 -0.41823402D-07 -0.46590568D-07  0.40870920D-02
  0.75398868D-02  0.12171715D-01  0.15843956D-01  0.13519677D-01  0.46680195D-02
  0.15047280D-03  0.69352775D-04 -0.19447242D-03  0.97358606D-04  0.74648404D-04
  0.37254785D-04 -0.27641541D-03 -0.21193780D-03 -0.10577182D-03  0.71821890D-08
  0.55068470D-08  0.27483026D-08  0.17600206D-02 -0.10032809D-02  0.53735492D-03
 -0.98209617D-08 -0.37146248D-03 -0.74708553D-03 -0.44805458D-03 -0.65144660D-04
  0.67981231D-08  0.19008772D-07  0.32141622D-05  0.59295016D-05  0.95720541D-05
  0.12459970D-04  0.10632115D-04  0.36710139D-05 -0.20570370D-04 -0.94808646D-05
  0.26585334D-04 -0.10251367D-03 -0.78600981D-04 -0.39227398D-04 -0.18371675D-03
 -0.14086236D-03 -0.70300188D-04  0.76613221D-08  0.58742159D-08  0.29316454D-08
 -0.10578511D-02  0.23725394D-03 -0.40931076D-03  0.30670059D-08  0.35582488D-04
  0.46116068D-04 -0.21510780D-04  0.60117487D-04  0.44018297D-08 -0.12210705D-07
 -0.48474864D-04 -0.89426659D-04 -0.14436236D-03 -0.18791689D-03 -0.16034983D-03
 -0.55364941D-04  0.12683457D-03  0.58457938D-04 -0.16392216D-03 -0.65281006D-04
 -0.50053335D-04 -0.24980122D-04 -0.61498860D-04 -0.47153425D-04 -0.23532864D-04
 -0.22237384D-08 -0.17050216D-08 -0.85092527D-09  0.91202286D-03  0.39837107D-03
  0.25938124D-03 -0.34919141D-08  0.38296992D-05 -0.19102717D-04 -0.13887383D-03
 -0.62414068D-04  0.24475757D-08 -0.35331376D-08  0.35787599D-04  0.60702541D-04
  0.69107698D-04  0.34352409D-03 -0.19992103D-04 -0.33910391D-04 -0.38605781D-04
 -0.75670533D-04 -0.87462023D-04 -0.16097681D-03 -0.26049087D-03 -0.34242254D-03
 -0.29369382D-03 -0.10041891D-03  0.30262985D-03  0.13503285D-03 -0.39875381D-03
  0.11715109D-04  0.90258598D-05  0.39628386D-05  0.85019334D-04  0.65502813D-04
  0.28759263D-04 -0.15390748D-07 -0.11857742D-07 -0.52061873D-08  0.89844687D-03
 -0.17091699D-03 -0.55253673D-04  0.11668614D-07 -0.25093382D-03 -0.29679894D-03
 -0.33678148D-03  0.14042162D-04 -0.11737721D-07 -0.45478683D-08  0.18342145D-04
  0.31111750D-04  0.35419627D-04  0.13895119D-03  0.10540672D-03  0.19400463D-03
  0.31393612D-03  0.41267781D-03  0.35395136D-03  0.12102198D-03 -0.66647364D-03
 -0.29737924D-03  0.87816487D-03  0.83922911D-04  0.64658079D-04  0.28388379D-04
  0.30031205D-04  0.23137424D-04  0.10158576D-04 -0.54481525D-08 -0.41975078D-08
 -0.18429320D-08 -0.16690298D-02  0.57675028D-03  0.55805066D-03 -0.21222257D-07
  0.15854632D-03  0.95548322D-04  0.95063590D-03 -0.12247997D-02  0.52575864D-07
  0.58749227D-07 -0.23011725D-04 -0.42452139D-04 -0.68530915D-04 -0.89206889D-04
 -0.76120400D-04 -0.26282545D-04  0.63830834D-04  0.29419573D-04 -0.82495554D-04
 -0.19962189D-04 -0.15305741D-04 -0.76386372D-05  0.10643271D-04  0.81605850D-05
  0.40727039D-05 -0.58342277D-08 -0.44733158D-08 -0.22324981D-08  0.24294170D-04
  0.29227990D-04  0.38849867D-04  0.13152573D-07  0.22865709D-04 -0.65221133D-04
 -0.81800672D-04  0.60872642D-04 -0.19618957D-07 -0.60309701D-07 -0.52270700D-05
 -0.88661001D-05 -0.10093742D-04  0.14356459D-05 -0.52344038D-05 -0.88785396D-05
 -0.10107904D-04  0.14007234D-05 -0.99514713D-05 -0.16879579D-04 -0.19216804D-04
 -0.17438740D-04  0.42818447D-04  0.72628190D-04  0.82684627D-04 -0.60604139D-04
MO    4     MO 0.0        OCC NO =    2.0000000  ORB. ENERGY =  -10.487287
 -0.88515359D-04 -0.16329355D-03 -0.26360643D-03 -0.34313724D-03 -0.29279963D-03
 -0.10109668D-03  0.15159644D-03  0.69870658D-04 -0.19592462D-03 -0.14265110D-03
 -0.10937582D-03 -0.54586197D-04  0.42114450D-04  0.32290689D-04  0.16115317D-04
 -0.47336482D-08 -0.36294612D-08 -0.18113555D-08  0.12353408D-02  0.73675988D-03
 -0.12502302D-03 -0.46689721D-08 -0.42869938D-04  0.50804296D-04 -0.14291953D-03
  0.50409345D-04 -0.29603056D-08 -0.93777741D-08  0.66762925D-05  0.12316456D-04
  0.19882579D-04  0.25881210D-04  0.22084483D-04  0.76252414D-05 -0.88837162D-04
 -0.40944967D-04  0.11481396D-03 -0.15673191D-03 -0.12017209D-03 -0.59974293D-04
  0.87465991D-04  0.67063374D-04  0.33469324D-04 -0.33224340D-08 -0.25474317D-08
 -0.12713469D-08 -0.15808914D-02 -0.20133830D-03  0.75295281D-03 -0.20094257D-07
  0.86629080D-04 -0.75516990D-05  0.33554562D-04  0.15401104D-04 -0.30768092D-08
 -0.24636453D-08 -0.43621205D-02 -0.80472606D-02 -0.12990774D-01 -0.16910128D-01
 -0.14429442D-01 -0.49821397D-02  0.46413394D-03  0.21391891D-03 -0.59985095D-03
 -0.79764236D-04 -0.61158157D-04 -0.30522207D-04  0.29558651D-03  0.22663699D-03
  0.11310774D-03 -0.11616624D-07 -0.89068902D-08 -0.44451625D-08  0.24188573D-02
 -0.79637727D-03 -0.11370559D-02  0.44256721D-07 -0.37587166D-03 -0.58109835D-03
 -0.28332099D-03  0.26356936D-03 -0.13591064D-07  0.16687089D-07  0.53258268D+00
  0.98251105D+00  0.15860775D+01  0.20646016D+01  0.17617283D+01  0.60828244D+00
 -0.19956836D-01 -0.91980875D-02  0.25792397D-01  0.51689914D-03  0.39632548D-03
  0.19779419D-03  0.14736445D-03  0.11298972D-03  0.56389787D-04 -0.21952215D-07
 -0.16831566D-07 -0.84001311D-08 -0.33344952D-02  0.20935163D-02 -0.57604307D-03
  0.56193111D-08 -0.91963426D-02 -0.10137495D-01 -0.10402733D-01 -0.47319029D-03
 -0.39662343D-07 -0.73748233D-09  0.11643708D-02  0.21480368D-02  0.34675974D-02
  0.45137815D-02  0.38516179D-02  0.13298711D-02  0.25987099D-03  0.11977430D-03
 -0.33585964D-03 -0.64408278D-04 -0.49384183D-04 -0.24646168D-04 -0.29493644D-03
 -0.22613856D-03 -0.11285899D-03  0.13928797D-08  0.10679718D-08  0.53299276D-09
  0.25218633D-02 -0.34712559D-03  0.11977961D-02 -0.17609093D-07 -0.45979595D-03
 -0.29832427D-03 -0.35647518D-03 -0.34956277D-03  0.95695797D-09  0.23110791D-08
  0.39267442D-04  0.72440762D-04  0.11694185D-03  0.15222354D-03  0.12989263D-03
  0.44848802D-04 -0.11385245D-03 -0.52474489D-04  0.14714394D-03 -0.20130607D-03
 -0.15434873D-03 -0.77030833D-04 -0.11626884D-06 -0.89147575D-07 -0.44490888D-07
 -0.14343755D-08 -0.10997881D-08 -0.54887136D-09 -0.16793358D-02 -0.60139285D-03
 -0.44028785D-03  0.11132271D-07  0.27027626D-04  0.14132140D-04  0.55783925D-04
  0.16810599D-04 -0.54491594D-09  0.49958785D-08 -0.30739725D-04 -0.52140391D-04
 -0.59359993D-04 -0.20087497D-03  0.49822120D-04  0.84507746D-04  0.96209082D-04
  0.36000891D-03  0.11209257D-03  0.20631017D-03  0.33384879D-03  0.43885358D-03
  0.37640217D-03  0.12869829D-03 -0.87977938D-03 -0.39255585D-03  0.11592227D-02
  0.35055240D-04  0.27008172D-04  0.11858042D-04 -0.75124005D-04 -0.57878996D-04
 -0.25411997D-04  0.32323596D-07  0.24903588D-07  0.10934017D-07 -0.26316401D-02
  0.91826686D-03 -0.17733061D-03 -0.29385612D-07  0.24897249D-03  0.10013117D-02
  0.11628551D-02  0.36995695D-03  0.46344094D-07 -0.41430333D-08 -0.22041481D-04
 -0.37386524D-04 -0.42563236D-04 -0.16721114D-03 -0.80276130D-04 -0.14775093D-03
 -0.23908890D-03 -0.31428905D-03 -0.26956389D-03 -0.92168472D-04  0.31172987D-03
  0.13909326D-03 -0.41074426D-03  0.92130615D-04  0.70981672D-04  0.31164777D-04
  0.85215274D-04  0.65653775D-04  0.28825543D-04  0.76542776D-08  0.58972082D-08
  0.25891920D-08  0.91037237D-03 -0.21811312D-03 -0.15032852D-03  0.28690222D-08
 -0.20611284D-03 -0.23623762D-03 -0.31864991D-03  0.11010885D-03 -0.44053102D-08
 -0.30697410D-08  0.25441874D-05  0.46935290D-05  0.75768110D-05  0.98627567D-05
  0.84159081D-05  0.29058108D-05  0.77017545D-05  0.35497316D-05 -0.99538179D-05
  0.88134561D-04  0.67575992D-04  0.33725156D-04 -0.42338694D-04 -0.32462625D-04
 -0.16201125D-04  0.13220222D-07  0.10136428D-07  0.50587879D-08  0.29309640D-03
  0.87933202D-04 -0.87453934D-05 -0.26339934D-07  0.25380759D-04  0.19757193D-04
  0.10258761D-04 -0.90010696D-05 -0.10619220D-07 -0.43592628D-08 -0.21016082D-05
 -0.35647253D-05 -0.40583138D-05 -0.98212760D-06 -0.21012234D-05 -0.35640726D-05
 -0.40575707D-05 -0.95981182D-06 -0.66930414D-05 -0.11352665D-04 -0.12924608D-04
 -0.12859385D-04 -0.17773494D-04 -0.30147210D-04 -0.34321533D-04  0.70078036D-04
MO    5     MO 0.0        OCC NO =    2.0000000  ORB. ENERGY =  -10.458419
  0.53253270D+00  0.98241885D+00  0.15859286D+01  0.20644079D+01  0.17615630D+01
  0.60822536D+00 -0.19717349D-01 -0.90877082D-02  0.25482882D-01  0.43801991D-03
  0.33584589D-03  0.16761064D-03 -0.94283321D-04 -0.72290470D-04 -0.36078011D-04
 -0.94417655D-09 -0.72393469D-09 -0.36129415D-09 -0.36444306D-02 -0.54855963D-03
  0.27454528D-04  0.20478456D-07 -0.10083851D-01 -0.99214595D-02 -0.10365279D-01
  0.10810240D-03 -0.84017584D-07 -0.50262591D-08  0.28390183D-02  0.52374344D-02
  0.84548431D-02  0.11005694D-01  0.93911783D-02  0.32425482D-02  0.15040904D-03
  0.69323389D-04 -0.19439002D-03  0.28509850D-03  0.21859544D-03  0.10909445D-03
  0.39719449D-03  0.30454355D-03  0.15198857D-03 -0.41051722D-08 -0.31475857D-08
 -0.15708659D-08  0.16970820D-02 -0.76225131D-04 -0.60714148D-03  0.11536687D-07
 -0.46135950D-03 -0.45097460D-03 -0.29663807D-03 -0.28949492D-03  0.12043420D-07
  0.12820089D-07 -0.20400107D-04 -0.37634214D-04 -0.60753291D-04 -0.79082733D-04
 -0.67481440D-04 -0.23299719D-04 -0.38354478D-04 -0.17677544D-04  0.49569678D-04
  0.78275242D-05  0.60016491D-05  0.29952435D-05 -0.54212518D-05 -0.41566721D-05
 -0.20744707D-05 -0.21173962D-08 -0.16234851D-08 -0.81023286D-09 -0.68647310D-03
  0.28602899D-03  0.18116580D-03 -0.50928234D-08  0.85152643D-04  0.34545378D-04
  0.39845663D-04 -0.22473213D-04 -0.15790718D-08  0.34586521D-08  0.25243018D-04
  0.46568440D-04  0.75175901D-04  0.97856687D-04  0.83501288D-04  0.28830988D-04
  0.88269247D-04  0.40683215D-04 -0.11407998D-03  0.36112468D-04  0.27688750D-04
  0.13818627D-04  0.29010224D-05  0.22243200D-05  0.11100916D-05 -0.13913603D-09
 -0.10668068D-09 -0.53241137D-10  0.47818382D-03 -0.34430600D-03  0.35713918D-04
 -0.13653815D-08 -0.47755496D-04 -0.34849715D-04 -0.97391290D-04  0.72323381D-05
  0.17755276D-08 -0.41024025D-08  0.38608156D-04  0.71224509D-04  0.11497844D-03
  0.14966777D-03  0.12771178D-03  0.44095808D-04 -0.31447595D-04 -0.14494168D-04
  0.40643159D-04  0.29154288D-04  0.22353659D-04  0.11156042D-04 -0.22513298D-04
 -0.17261769D-04 -0.86148326D-05  0.43000003D-09  0.32969675D-09  0.16454178D-09
 -0.68825134D-03  0.87571449D-04 -0.30363700D-03  0.61456304D-08  0.89634818D-04
  0.50772079D-04  0.28084299D-04 -0.48538707D-04 -0.14946238D-08 -0.73877606D-09
  0.22894140D-02  0.42235218D-02  0.68180738D-02  0.88751062D-02  0.75731442D-02
  0.26148247D-02  0.12152850D-03  0.56012376D-04 -0.15706455D-03  0.68792574D-04
  0.52745783D-04  0.26323842D-04 -0.44957881D-03 -0.34470851D-03 -0.17203371D-03
  0.12174779D-07  0.93348485D-08  0.46587436D-08  0.14290535D-02  0.20594831D-03
  0.50901660D-03 -0.14375196D-07 -0.34027662D-03 -0.60222573D-03 -0.26577472D-03
  0.25861300D-03 -0.57924370D-08  0.89644981D-08 -0.66403839D-06 -0.11263348D-05
 -0.12822924D-05  0.10304537D-03 -0.13062393D-04 -0.22156291D-04 -0.25224154D-04
 -0.64699894D-04 -0.25907564D-04 -0.47683748D-04 -0.77161306D-04 -0.10143070D-03
 -0.86996519D-04 -0.29745587D-04  0.86515889D-04  0.38603221D-04 -0.11399583D-03
 -0.51890048D-05 -0.39978484D-05 -0.17552708D-05  0.45550298D-05  0.35094049D-05
  0.15408178D-05 -0.60094920D-08 -0.46299896D-08 -0.20328148D-08  0.29021289D-03
 -0.45158203D-04  0.16985459D-04  0.37750629D-08 -0.93219445D-04 -0.94248296D-04
 -0.82810437D-04 -0.10066545D-04 -0.31267673D-08  0.18013219D-08  0.36586372D-05