 Entering Link 1 = D:\Gaussian\G16W\l1.exe PID=     40848.
  
 Copyright (c) 1988,1990,1992,1993,1995,1998,2003,2009,2016,
            Gaussian, Inc.  All Rights Reserved.
  
 This is part of the Gaussian(R) 16 program.  It is based on
 the Gaussian(R) 09 system (copyright 2009, Gaussian, Inc.),
 the Gaussian(R) 03 system (copyright 2003, Gaussian, Inc.),
 the Gaussian(R) 98 system (copyright 1998, Gaussian, Inc.),
 the Gaussian(R) 94 system (copyright 1995, Gaussian, Inc.),
 the Gaussian 92(TM) system (copyright 1992, Gaussian, Inc.),
 the Gaussian 90(TM) system (copyright 1990, Gaussian, Inc.),
 the Gaussian 88(TM) system (copyright 1988, Gaussian, Inc.),
 the Gaussian 86(TM) system (copyright 1986, Carnegie Mellon
 University), and the Gaussian 82(TM) system (copyright 1983,
 Carnegie Mellon University). Gaussian is a federally registered
 trademark of Gaussian, Inc.
  
 This software contains proprietary and confidential information,
 including trade secrets, belonging to Gaussian, Inc.
  
 This software is provided under written license and may be
 used, copied, transmitted, or stored only in accord with that
 written license.
  
 The following legend is applicable only to US Government
 contracts under FAR:
  
                    RESTRICTED RIGHTS LEGEND
  
 Use, reproduction and disclosure by the US Government is
 subject to restrictions as set forth in subparagraphs (a)
 and (c) of the Commercial Computer Software - Restricted
 Rights clause in FAR 52.227-19.
  
 Gaussian, Inc.
 340 Quinnipiac St., Bldg. 40, Wallingford CT 06492
  
  
 ---------------------------------------------------------------
 Warning -- This program may not be used in any manner that
 competes with the business of Gaussian, Inc. or will provide
 assistance to any competitor of Gaussian, Inc.  The licensee
 of this program is prohibited from giving any competitor of
 Gaussian, Inc. access to this program.  By using this program,
 the user acknowledges that Gaussian, Inc. is engaged in the
 business of creating and licensing software in the field of
 computational chemistry and represents and warrants to the
 licensee that it is not a competitor of Gaussian, Inc. and that
 it will not use this program in any manner prohibited above.
 ---------------------------------------------------------------
  

 Cite this work as:
 Gaussian 16, Revision A.03,
 M. J. Frisch, G. W. Trucks, H. B. Schlegel, G. E. Scuseria, 
 M. A. Robb, J. R. Cheeseman, G. Scalmani, V. Barone, 
 G. A. Petersson, H. Nakatsuji, X. Li, M. Caricato, A. V. Marenich, 
 J. Bloino, B. G. Janesko, R. Gomperts, B. Mennucci, H. P. Hratchian, 
 J. V. Ortiz, A. F. Izmaylov, J. L. Sonnenberg, D. Williams-Young, 
 F. Ding, F. Lipparini, F. Egidi, J. Goings, B. Peng, A. Petrone, 
 T. Henderson, D. Ranasinghe, V. G. Zakrzewski, J. Gao, N. Rega, 
 G. Zheng, W. Liang, M. Hada, M. Ehara, K. Toyota, R. Fukuda, 
 J. Hasegawa, M. Ishida, T. Nakajima, Y. Honda, O. Kitao, H. Nakai, 
 T. Vreven, K. Throssell, J. A. Montgomery, Jr., J. E. Peralta, 
 F. Ogliaro, M. J. Bearpark, J. J. Heyd, E. N. Brothers, K. N. Kudin, 
 V. N. Staroverov, T. A. Keith, R. Kobayashi, J. Normand, 
 K. Raghavachari, A. P. Rendell, J. C. Burant, S. S. Iyengar, 
 J. Tomasi, M. Cossi, J. M. Millam, M. Klene, C. Adamo, R. Cammi, 
 J. W. Ochterski, R. L. Martin, K. Morokuma, O. Farkas, 
 J. B. Foresman, and D. J. Fox, Gaussian, Inc., Wallingford CT, 2016.
 
 ******************************************
 Gaussian 16:  EM64W-G16RevA.03 17-Dec-2016
                03-Dec-2025 
 ******************************************
 %nprocs=   4
 Will use up to    4 processors via shared memory.
 ------------------------------------
 #P B3LYP/6-31G* SCF=conver=7 out=wfn
 ------------------------------------
 1/38=1,172=1/1;
 2/12=2,17=6,18=5,40=1/2;
 3/5=1,6=6,7=1,11=2,25=1,30=1,74=-5/1,2,3;
 4//1;
 5/5=2,6=7,38=5/2;
 6/7=2,8=2,9=2,10=2,28=1/1;
 99/5=1,6=100,9=1/99;
 Leave Link    1 at Wed Dec 03 16:42:19 2025, MaxMem=           0 cpu:               0.0 elap:               0.1
 (Enter D:\Gaussian\G16W\l101.exe)
 ----------------------------------------------------
 Generated by Multiwfn (http://sobereva.com/multiwfn)
 ----------------------------------------------------
 Symbolic Z-matrix:
 Charge =  0 Multiplicity = 2
 C                    -1.51955   0.05587   0. 
 C                    -0.55173   1.06529  -0.00003 
 C                     0.80376   0.76569  -0.00004 
 C                     1.27322  -0.62592   0. 
 C                     0.22827  -1.63103   0.00003 
 C                    -1.09901  -1.30151   0.00003 
 H                    -0.8669    2.1062   -0.00006 
 H                     0.56238  -2.66197   0.00004 
 O                     2.48447  -0.90684  -0.00001 
 H                    -1.85298  -2.08206   0.00004 
 O                     1.76843   1.7023   -0.00007 
 C                    -2.98626   0.38817   0.00008 
 H                    -3.48316  -0.03534  -0.8791 
 H                    -3.48281  -0.03429   0.87997 
 H                    -3.15811   1.46558  -0.00052 
 H                     1.36624   2.57892  -0.00007 
 
 ITRead=  0  0  0  0  0  0  0  0  0  0  0  0  0  0  0  0
 MicOpt= -1 -1 -1 -1 -1 -1 -1 -1 -1 -1 -1 -1 -1 -1 -1 -1
 NAtoms=     16 NQM=       16 NQMF=       0 NMMI=      0 NMMIF=      0
                NMic=       0 NMicF=      0.
                    Isotopes and Nuclear Properties:
 (Nuclear quadrupole moments (NQMom) in fm**2, nuclear magnetic moments (NMagM)
  in nuclear magnetons)

  Atom         1           2           3           4           5           6           7           8           9          10
 IAtWgt=          12          12          12          12          12          12           1           1          16           1
 AtmWgt=  12.0000000  12.0000000  12.0000000  12.0000000  12.0000000  12.0000000   1.0078250   1.0078250  15.9949146   1.0078250
 NucSpn=           0           0           0           0           0           0           1           1           0           1
 AtZEff=   0.0000000   0.0000000   0.0000000   0.0000000   0.0000000   0.0000000   0.0000000   0.0000000   0.0000000   0.0000000
 NQMom=    0.0000000   0.0000000   0.0000000   0.0000000   0.0000000   0.0000000   0.0000000   0.0000000   0.0000000   0.0000000
 NMagM=    0.0000000   0.0000000   0.0000000   0.0000000   0.0000000   0.0000000   2.7928460   2.7928460   0.0000000   2.7928460
 AtZNuc=   6.0000000   6.0000000   6.0000000   6.0000000   6.0000000   6.0000000   1.0000000   1.0000000   8.0000000   1.0000000

  Atom        11          12          13          14          15          16
 IAtWgt=          16          12           1           1           1           1
 AtmWgt=  15.9949146  12.0000000   1.0078250   1.0078250   1.0078250   1.0078250
 NucSpn=           0           0           1           1           1           1
 AtZEff=   0.0000000   0.0000000   0.0000000   0.0000000   0.0000000   0.0000000
 NQMom=    0.0000000   0.0000000   0.0000000   0.0000000   0.0000000   0.0000000
 NMagM=    0.0000000   0.0000000   2.7928460   2.7928460   2.7928460   2.7928460
 AtZNuc=   8.0000000   6.0000000   1.0000000   1.0000000   1.0000000   1.0000000
 Leave Link  101 at Wed Dec 03 16:42:19 2025, MaxMem=   104857600 cpu:               0.0 elap:               0.1
 (Enter D:\Gaussian\G16W\l202.exe)
                          Input orientation:                          
 ---------------------------------------------------------------------
 Center     Atomic      Atomic             Coordinates (Angstroms)
 Number     Number       Type             X           Y           Z
 ---------------------------------------------------------------------
      1          6           0       -1.519548    0.055869    0.000003
      2          6           0       -0.551731    1.065288   -0.000034
      3          6           0        0.803755    0.765685   -0.000037
      4          6           0        1.273216   -0.625921    0.000004
      5          6           0        0.228265   -1.631034    0.000026
      6          6           0       -1.099009   -1.301508    0.000026
      7          1           0       -0.866903    2.106204   -0.000063
      8          1           0        0.562377   -2.661966    0.000037
      9          8           0        2.484465   -0.906843   -0.000011
     10          1           0       -1.852978   -2.082064    0.000042
     11          8           0        1.768432    1.702299   -0.000074
     12          6           0       -2.986255    0.388170    0.000077
     13          1           0       -3.483156   -0.035340   -0.879103
     14          1           0       -3.482810   -0.034288    0.879967
     15          1           0       -3.158107    1.465581   -0.000518
     16          1           0        1.366238    2.578921   -0.000073
 ---------------------------------------------------------------------
                    Distance matrix (angstroms):
                    1          2          3          4          5
     1  C    0.000000
     2  C    1.398426   0.000000
     3  C    2.429316   1.388202   0.000000
     4  C    2.874781   2.488096   1.468660   0.000000
     5  C    2.429093   2.806875   2.464843   1.449888   0.000000
     6  C    1.421030   2.429246   2.809590   2.466550   1.367569
     7  H    2.151701   1.087584   2.141983   3.470535   3.894399
     8  H    3.423600   3.890200   3.436140   2.156565   1.083721
     9  O    4.118123   3.620468   2.371104   1.243399   2.369576
    10  H    2.163778   3.405741   3.894599   3.448687   2.129554
    11  O    3.677165   2.406021   1.344562   2.380304   3.671951
    12  C    1.503879   2.526934   3.808765   4.378524   3.796093
    13  H    2.153347   3.252291   4.448821   4.872852   4.134459
    14  H    2.153338   3.251875   4.448483   4.872797   4.134728
    15  H    2.161519   2.636936   4.023208   4.900102   4.588741
    16  H    3.833217   2.443295   1.898476   3.206192   4.361044
                    6          7          8          9         10
     6  C    0.000000
     7  H    3.415607   0.000000
     8  H    2.147335   4.977779   0.000000
     9  O    3.605142   4.506675   2.602860   0.000000
    10  H    1.085236   4.302782   2.483994   4.493835   0.000000
    11  O    4.152719   2.666108   4.527845   2.705610   5.237940
    12  C    2.533122   2.728240   4.679329   5.621907   2.717788
    13  H    2.839050   3.493380   4.902896   6.094655   2.760336
    14  H    2.839481   3.492725   4.903316   6.094595   2.761160
    15  H    3.449154   2.379078   5.556856   6.121031   3.780099
    16  H    4.597301   2.282626   5.302178   3.660735   5.664639
                   11         12         13         14         15
    11  O    0.000000
    12  C    4.932949   0.000000
    13  H    5.601005   1.095093   0.000000
    14  H    5.600513   1.095100   1.759070   0.000000
    15  H    4.932223   1.091031   1.769275   1.769263   0.000000
    16  H    0.964482   4.872739   5.578860   5.578225   4.659316
                   16
    16  H    0.000000
 Stoichiometry    C7H7O2(2)
 Framework group  C1[X(C7H7O2)]
 Deg. of freedom    42
 Full point group                 C1      NOp   1
 Largest Abelian subgroup         C1      NOp   1
 Largest concise Abelian subgroup C1      NOp   1
                         Standard orientation:                         
 ---------------------------------------------------------------------
 Center     Atomic      Atomic             Coordinates (Angstroms)
 Number     Number       Type             X           Y           Z
 ---------------------------------------------------------------------
      1          6           0       -1.519548    0.055869    0.000003
      2          6           0       -0.551731    1.065288   -0.000034
      3          6           0        0.803755    0.765685   -0.000037
      4          6           0        1.273216   -0.625921    0.000004
      5          6           0        0.228265   -1.631034    0.000026
      6          6           0       -1.099009   -1.301508    0.000026
      7          1           0       -0.866903    2.106204   -0.000063
      8          1           0        0.562377   -2.661966    0.000037
      9          8           0        2.484465   -0.906843   -0.000011
     10          1           0       -1.852978   -2.082064    0.000042
     11          8           0        1.768432    1.702299   -0.000074
     12          6           0       -2.986255    0.388170    0.000077
     13          1           0       -3.483156   -0.035340   -0.879103
     14          1           0       -3.482810   -0.034288    0.879967
     15          1           0       -3.158107    1.465581   -0.000518
     16          1           0        1.366238    2.578921   -0.000073
 ---------------------------------------------------------------------
 Rotational constants (GHZ):           3.0564221           1.3622738           0.9477990
 Leave Link  202 at Wed Dec 03 16:42:19 2025, MaxMem=   104857600 cpu:               0.0 elap:               0.0
 (Enter D:\Gaussian\G16W\l301.exe)
 Standard basis: 6-31G(d) (6D, 7F)
 Ernie: Thresh=  0.10000D-02 Tol=  0.10000D-05 Strict=F.
 There are   149 symmetry adapted cartesian basis functions of A   symmetry.
 There are   149 symmetry adapted basis functions of A   symmetry.
   149 basis functions,   280 primitive gaussians,   149 cartesian basis functions
    33 alpha electrons       32 beta electrons
       nuclear repulsion energy       415.6655617141 Hartrees.
 IExCor=  402 DFT=T Ex+Corr=B3LYP ExCW=0 ScaHFX=  0.200000
 ScaDFX=  0.800000  0.720000  1.000000  0.810000 ScalE2=  1.000000  1.000000
 IRadAn=      5 IRanWt=     -1 IRanGd=            0 ICorTp=0 IEmpDi=  4
 NAtoms=   16 NActive=   16 NUniq=   16 SFac= 1.00D+00 NAtFMM=   60 NAOKFM=F Big=F
 Integral buffers will be    131072 words long.
 Raffenetti 2 integral format.
 Two-electron integral symmetry is turned on.
 Leave Link  301 at Wed Dec 03 16:42:19 2025, MaxMem=   104857600 cpu:               0.0 elap:               0.1
 (Enter D:\Gaussian\G16W\l302.exe)
 NPDir=0 NMtPBC=     1 NCelOv=     1 NCel=       1 NClECP=     1 NCelD=      1
         NCelK=      1 NCelE2=     1 NClLst=     1 CellRange=     0.0.
 One-electron integrals computed using PRISM.
 One-electron integral symmetry used in STVInt
 NBasis=   149 RedAO= T EigKep=  4.48D-04  NBF=   149
 NBsUse=   149 1.00D-06 EigRej= -1.00D+00 NBFU=   149
 Precomputing XC quadrature grid using
 IXCGrd= 4 IRadAn=           5 IRanWt=          -1 IRanGd=           0 AccXCQ= 0.00D+00.
 Generated NRdTot=       0 NPtTot=           0 NUsed=           0 NTot=          32
 NSgBfM=   149   149   149   149   149 MxSgAt=    16 MxSgA2=    16.
 Leave Link  302 at Wed Dec 03 16:42:19 2025, MaxMem=   104857600 cpu:               0.0 elap:               0.2
 (Enter D:\Gaussian\G16W\l303.exe)
 DipDrv:  MaxL=1.
 Leave Link  303 at Wed Dec 03 16:42:19 2025, MaxMem=   104857600 cpu:               0.0 elap:               0.1
 (Enter D:\Gaussian\G16W\l401.exe)
 ExpMin= 1.61D-01 ExpMax= 5.48D+03 ExpMxC= 8.25D+02 IAcc=3 IRadAn=         5 AccDes= 0.00D+00
 Harris functional with IExCor=  402 and IRadAn=       5 diagonalized for initial guess.
 HarFok:  IExCor=  402 AccDes= 0.00D+00 IRadAn=         5 IDoV= 1 UseB2=F ITyADJ=14
 ICtDFT=  3500011 ScaDFX=  1.000000  1.000000  1.000000  1.000000
 FoFCou: FMM=F IPFlag=           0 FMFlag=      100000 FMFlg1=           0
         NFxFlg=           0 DoJE=T BraDBF=F KetDBF=T FulRan=T
         wScrn=  0.000000 ICntrl=       500 IOpCl=  0 I1Cent=   200000004 NGrid=           0
         NMat0=    1 NMatS0=      1 NMatT0=    0 NMatD0=    1 NMtDS0=    0 NMtDT0=    0
 Petite list used in FoFCou.
 Harris En= -421.394490446905    
 JPrj=0 DoOrth=F DoCkMO=F.
 Initial guess <Sx>= 0.0000 <Sy>= 0.0000 <Sz>= 0.5000 <S**2>= 0.7500 S= 0.5000
 Leave Link  401 at Wed Dec 03 16:42:20 2025, MaxMem=   104857600 cpu:               1.0 elap:               0.9
 (Enter D:\Gaussian\G16W\l502.exe)
 Integral symmetry usage will be decided dynamically.
 UHF open shell SCF:
 Using DIIS extrapolation, IDIIS=  1040.
 NGot=   104857600 LenX=   104810543 LenY=   104787901
 Requested convergence on RMS density matrix=1.00D-07 within 128 cycles.
 Requested convergence on MAX density matrix=1.00D-05.
 Requested convergence on             energy=1.00D-05.
 No special actions if energy rises.
 Fock matrices will be formed incrementally for  20 cycles.
 Integral accuracy reduced to 1.0D-05 until final iterations.

 Cycle   1  Pass 0  IDiag  1:
 FoFJK:  IHMeth= 1 ICntrl=       0 DoSepK=F KAlg= 0 I1Cent=           0 FoldK=F
 IRaf= 950000000 NMat=       1 IRICut=       1 DoRegI=T DoRafI=F ISym2E= 0 IDoP0=0 IntGTp=1.
 FoFCou: FMM=F IPFlag=           0 FMFlag=      100000 FMFlg1=           0
         NFxFlg=           0 DoJE=F BraDBF=F KetDBF=F FulRan=T
         wScrn=  0.000000 ICntrl=         0 IOpCl=  1 I1Cent=           0 NGrid=           0
         NMat0=    1 NMatS0=      1 NMatT0=    0 NMatD0=    1 NMtDS0=    0 NMtDT0=    0
 Symmetry not used in FoFCou.
 E= -421.126832277020    
 DIIS: error= 3.79D-02 at cycle   1 NSaved=   1.
 NSaved= 1 IEnMin= 1 EnMin= -421.126832277020     IErMin= 1 ErrMin= 3.79D-02
 ErrMax= 3.79D-02  0.00D+00 EMaxC= 1.00D-01 BMatC= 9.76D-01 BMatP= 9.76D-01
 IDIUse=3 WtCom= 6.21D-01 WtEn= 3.79D-01
 Coeff-Com:  0.100D+01
 Coeff-En:   0.100D+01
 Coeff:      0.100D+01
 Gap=     0.173 Goal=   None    Shift=    0.000
 Gap=     0.119 Goal=   None    Shift=    0.000
 GapD=    0.119 DampG=1.000 DampE=0.500 DampFc=0.5000 IDamp=-1.
 Damping current iteration by 5.00D-01
 RMSDP=8.99D-03 MaxDP=2.56D-01              OVMax= 3.65D-01

 Cycle   2  Pass 0  IDiag  1:
 RMSU=  4.47D-03    CP:  9.85D-01
 E= -421.208848901581     Delta-E=       -0.082016624561 Rises=F Damp=T
 DIIS: error= 1.15D-02 at cycle   2 NSaved=   2.
 NSaved= 2 IEnMin= 2 EnMin= -421.208848901581     IErMin= 2 ErrMin= 1.15D-02
 ErrMax= 1.15D-02  0.00D+00 EMaxC= 1.00D-01 BMatC= 1.37D-01 BMatP= 9.76D-01
 IDIUse=3 WtCom= 8.85D-01 WtEn= 1.15D-01
 Coeff-Com:  0.178D+00 0.822D+00
 Coeff-En:   0.259D+00 0.741D+00
 Coeff:      0.188D+00 0.812D+00
 Gap=     0.314 Goal=   None    Shift=    0.000
 Gap=     0.144 Goal=   None    Shift=    0.000
 RMSDP=2.99D-03 MaxDP=8.74D-02 DE=-8.20D-02 OVMax= 2.27D-01

 Cycle   3  Pass 0  IDiag  1:
 RMSU=  2.51D-03    CP:  9.73D-01  6.46D-01
 E= -421.325715972455     Delta-E=       -0.116867070874 Rises=F Damp=F
 DIIS: error= 2.17D-02 at cycle   3 NSaved=   3.
 NSaved= 3 IEnMin= 3 EnMin= -421.325715972455     IErMin= 2 ErrMin= 1.15D-02
 ErrMax= 2.17D-02  0.00D+00 EMaxC= 1.00D-01 BMatC= 1.70D-01 BMatP= 1.37D-01
 IDIUse=2 WtCom= 0.00D+00 WtEn= 1.00D+00
 Coeff-En:   0.000D+00 0.000D+00 0.100D+01
 Coeff:      0.000D+00 0.000D+00 0.100D+01
 Gap=     0.174 Goal=   None    Shift=    0.000
 Gap=     0.156 Goal=   None    Shift=    0.000
 RMSDP=5.04D-03 MaxDP=1.64D-01 DE=-1.17D-01 OVMax= 2.94D-01

 Cycle   4  Pass 0  IDiag  1:
 RMSU=  2.28D-03    CP:  9.84D-01  1.27D+00 -3.93D-01
 E= -421.156612040216     Delta-E=        0.169103932239 Rises=F Damp=F
 DIIS: error= 4.05D-02 at cycle   4 NSaved=   4.
 NSaved= 4 IEnMin= 3 EnMin= -421.325715972455     IErMin= 2 ErrMin= 1.15D-02
 ErrMax= 4.05D-02  0.00D+00 EMaxC= 1.00D-01 BMatC= 9.69D-01 BMatP= 1.37D-01
 IDIUse=2 WtCom= 0.00D+00 WtEn= 1.00D+00
 Coeff-En:   0.000D+00 0.000D+00 0.791D+00 0.209D+00
 Coeff:      0.000D+00 0.000D+00 0.791D+00 0.209D+00
 Gap=     0.207 Goal=   None    Shift=    0.000
 Gap=     0.100 Goal=   None    Shift=    0.000
 RMSDP=2.95D-03 MaxDP=9.01D-02 DE= 1.69D-01 OVMax= 1.40D-01

 Cycle   5  Pass 0  IDiag  1:
 RMSU=  4.79D-04    CP:  9.79D-01  8.42D-01  3.52D-01  5.06D-01
 E= -421.350241833746     Delta-E=       -0.193629793530 Rises=F Damp=F
 DIIS: error= 1.11D-02 at cycle   5 NSaved=   5.
 NSaved= 5 IEnMin= 5 EnMin= -421.350241833746     IErMin= 5 ErrMin= 1.11D-02
 ErrMax= 1.11D-02  0.00D+00 EMaxC= 1.00D-01 BMatC= 6.75D-02 BMatP= 1.37D-01
 IDIUse=3 WtCom= 8.89D-01 WtEn= 1.11D-01
 Coeff-Com: -0.204D-02 0.630D-02 0.323D+00-0.625D-01 0.735D+00
 Coeff-En:   0.000D+00 0.000D+00 0.313D+00 0.000D+00 0.687D+00
 Coeff:     -0.182D-02 0.560D-02 0.322D+00-0.555D-01 0.730D+00
 Gap=     0.192 Goal=   None    Shift=    0.000
 Gap=     0.117 Goal=   None    Shift=    0.000
 RMSDP=9.14D-04 MaxDP=2.76D-02 DE=-1.94D-01 OVMax= 3.57D-02

 Cycle   6  Pass 0  IDiag  1:
 RMSU=  2.07D-04    CP:  9.77D-01  7.49D-01  6.22D-01  3.43D-01  7.32D-01
 E= -421.364588859544     Delta-E=       -0.014347025798 Rises=F Damp=F
 DIIS: error= 1.29D-03 at cycle   6 NSaved=   6.
 NSaved= 6 IEnMin= 6 EnMin= -421.364588859544     IErMin= 6 ErrMin= 1.29D-03
 ErrMax= 1.29D-03  0.00D+00 EMaxC= 1.00D-01 BMatC= 8.55D-04 BMatP= 6.75D-02
 IDIUse=3 WtCom= 9.87D-01 WtEn= 1.29D-02
 Coeff-Com: -0.714D-02 0.146D-01 0.119D+00-0.757D-01 0.444D+00 0.505D+00
 Coeff-En:   0.000D+00 0.000D+00 0.000D+00 0.000D+00 0.000D+00 0.100D+01
 Coeff:     -0.705D-02 0.144D-01 0.117D+00-0.747D-01 0.439D+00 0.512D+00
 Gap=     0.191 Goal=   None    Shift=    0.000
 Gap=     0.118 Goal=   None    Shift=    0.000
 RMSDP=1.32D-04 MaxDP=3.55D-03 DE=-1.43D-02 OVMax= 9.30D-03

 Cycle   7  Pass 0  IDiag  1:
 RMSU=  9.02D-05    CP:  9.77D-01  7.53D-01  6.18D-01  3.33D-01  9.11D-01
                    CP:  8.37D-01
 E= -421.364864683763     Delta-E=       -0.000275824219 Rises=F Damp=F
 DIIS: error= 6.98D-04 at cycle   7 NSaved=   7.
 NSaved= 7 IEnMin= 7 EnMin= -421.364864683763     IErMin= 7 ErrMin= 6.98D-04
 ErrMax= 6.98D-04  0.00D+00 EMaxC= 1.00D-01 BMatC= 1.86D-04 BMatP= 8.55D-04
 IDIUse=3 WtCom= 9.93D-01 WtEn= 6.98D-03
 Coeff-Com: -0.621D-03 0.347D-03-0.187D-01-0.189D-01 0.880D-02 0.187D+00
 Coeff-Com:  0.842D+00
 Coeff-En:   0.000D+00 0.000D+00 0.000D+00 0.000D+00 0.000D+00 0.000D+00
 Coeff-En:   0.100D+01
 Coeff:     -0.616D-03 0.345D-03-0.185D-01-0.188D-01 0.874D-02 0.186D+00
 Coeff:      0.843D+00
 Gap=     0.193 Goal=   None    Shift=    0.000
 Gap=     0.120 Goal=   None    Shift=    0.000
 RMSDP=8.43D-05 MaxDP=3.53D-03 DE=-2.76D-04 OVMax= 7.74D-03

 Cycle   8  Pass 0  IDiag  1:
 RMSU=  5.14D-05    CP:  9.76D-01  7.46D-01  6.29D-01  3.35D-01  9.66D-01
                    CP:  1.04D+00  1.17D+00
 E= -421.364947818625     Delta-E=       -0.000083134861 Rises=F Damp=F
 DIIS: error= 3.46D-04 at cycle   8 NSaved=   8.
 NSaved= 8 IEnMin= 8 EnMin= -421.364947818625     IErMin= 8 ErrMin= 3.46D-04
 ErrMax= 3.46D-04  0.00D+00 EMaxC= 1.00D-01 BMatC= 6.14D-05 BMatP= 1.86D-04
 IDIUse=3 WtCom= 9.97D-01 WtEn= 3.46D-03
 Coeff-Com:  0.395D-02-0.116D-01-0.689D-01 0.248D-01-0.214D+00-0.113D+00
 Coeff-Com:  0.591D+00 0.787D+00
 Coeff-En:   0.000D+00 0.000D+00 0.000D+00 0.000D+00 0.000D+00 0.000D+00
 Coeff-En:   0.000D+00 0.100D+01
 Coeff:      0.393D-02-0.115D-01-0.687D-01 0.247D-01-0.213D+00-0.112D+00
 Coeff:      0.589D+00 0.788D+00
 Gap=     0.194 Goal=   None    Shift=    0.000
 Gap=     0.121 Goal=   None    Shift=    0.000
 RMSDP=7.04D-05 MaxDP=2.51D-03 DE=-8.31D-05 OVMax= 5.47D-03

 Cycle   9  Pass 0  IDiag  1:
 RMSU=  2.38D-05    CP:  9.76D-01  7.41D-01  6.37D-01  3.35D-01  1.01D+00
                    CP:  1.22D+00  1.64D+00  1.06D+00
 E= -421.364984722120     Delta-E=       -0.000036903495 Rises=F Damp=F
 DIIS: error= 1.15D-04 at cycle   9 NSaved=   9.
 NSaved= 9 IEnMin= 9 EnMin= -421.364984722120     IErMin= 9 ErrMin= 1.15D-04
 ErrMax= 1.15D-04  0.00D+00 EMaxC= 1.00D-01 BMatC= 5.67D-06 BMatP= 6.14D-05
 IDIUse=3 WtCom= 9.99D-01 WtEn= 1.15D-03
 Coeff-Com:  0.785D-03-0.204D-02-0.194D-01 0.889D-02-0.613D-01-0.506D-01
 Coeff-Com:  0.547D-01 0.242D+00 0.827D+00
 Coeff-En:   0.000D+00 0.000D+00 0.000D+00 0.000D+00 0.000D+00 0.000D+00
 Coeff-En:   0.000D+00 0.000D+00 0.100D+01
 Coeff:      0.785D-03-0.203D-02-0.194D-01 0.888D-02-0.612D-01-0.505D-01
 Coeff:      0.546D-01 0.241D+00 0.828D+00
 Gap=     0.194 Goal=   None    Shift=    0.000
 Gap=     0.121 Goal=   None    Shift=    0.000
 RMSDP=2.01D-05 MaxDP=9.02D-04 DE=-3.69D-05 OVMax= 2.75D-03

 Cycle  10  Pass 0  IDiag  1:
 RMSU=  1.21D-05    CP:  9.76D-01  7.42D-01  6.37D-01  3.36D-01  1.02D+00
                    CP:  1.27D+00  1.71D+00  1.20D+00  8.80D-01
 E= -421.364987837800     Delta-E=       -0.000003115680 Rises=F Damp=F
 DIIS: error= 8.61D-05 at cycle  10 NSaved=  10.
 NSaved=10 IEnMin=10 EnMin= -421.364987837800     IErMin=10 ErrMin= 8.61D-05
 ErrMax= 8.61D-05  0.00D+00 EMaxC= 1.00D-01 BMatC= 2.43D-06 BMatP= 5.67D-06
 IDIUse=1 WtCom= 1.00D+00 WtEn= 0.00D+00
 Coeff-Com: -0.247D-03 0.108D-02-0.191D-02 0.135D-02-0.481D-02-0.147D-01
 Coeff-Com: -0.501D-01 0.130D-01 0.491D+00 0.566D+00
 Coeff:     -0.247D-03 0.108D-02-0.191D-02 0.135D-02-0.481D-02-0.147D-01
 Coeff:     -0.501D-01 0.130D-01 0.491D+00 0.566D+00
 Gap=     0.194 Goal=   None    Shift=    0.000
 Gap=     0.121 Goal=   None    Shift=    0.000
 RMSDP=7.78D-06 MaxDP=3.66D-04 DE=-3.12D-06 OVMax= 7.83D-04

 Initial convergence to 1.0D-05 achieved.  Increase integral accuracy.
 Cycle  11  Pass 1  IDiag  1:
 E= -421.364969485719     Delta-E=        0.000018352080 Rises=F Damp=F
 DIIS: error= 2.35D-05 at cycle   1 NSaved=   1.
 NSaved= 1 IEnMin= 1 EnMin= -421.364969485719     IErMin= 1 ErrMin= 2.35D-05
 ErrMax= 2.35D-05  0.00D+00 EMaxC= 1.00D-01 BMatC= 2.05D-07 BMatP= 2.05D-07
 IDIUse=1 WtCom= 1.00D+00 WtEn= 0.00D+00
 Coeff-Com:  0.100D+01
 Coeff:      0.100D+01
 Gap=     0.194 Goal=   None    Shift=    0.000
 Gap=     0.121 Goal=   None    Shift=    0.000
 RMSDP=7.78D-06 MaxDP=3.66D-04 DE= 1.84D-05 OVMax= 4.33D-04

 Cycle  12  Pass 1  IDiag  1:
 RMSU=  5.79D-06    CP:  1.00D+00
 E= -421.364969615450     Delta-E=       -0.000000129730 Rises=F Damp=F
 DIIS: error= 1.83D-05 at cycle   2 NSaved=   2.
 NSaved= 2 IEnMin= 2 EnMin= -421.364969615450     IErMin= 2 ErrMin= 1.83D-05
 ErrMax= 1.83D-05  0.00D+00 EMaxC= 1.00D-01 BMatC= 2.09D-07 BMatP= 2.05D-07
 IDIUse=1 WtCom= 1.00D+00 WtEn= 0.00D+00
 Coeff-Com:  0.504D+00 0.496D+00
 Coeff:      0.504D+00 0.496D+00
 Gap=     0.194 Goal=   None    Shift=    0.000
 Gap=     0.121 Goal=   None    Shift=    0.000
 RMSDP=1.99D-06 MaxDP=6.80D-05 DE=-1.30D-07 OVMax= 1.23D-04

 Cycle  13  Pass 1  IDiag  1:
 RMSU=  1.98D-06    CP:  1.00D+00  9.70D-01
 E= -421.364969677884     Delta-E=       -0.000000062434 Rises=F Damp=F
 DIIS: error= 1.01D-05 at cycle   3 NSaved=   3.
 NSaved= 3 IEnMin= 3 EnMin= -421.364969677884     IErMin= 3 ErrMin= 1.01D-05
 ErrMax= 1.01D-05  0.00D+00 EMaxC= 1.00D-01 BMatC= 3.68D-08 BMatP= 2.05D-07
 IDIUse=1 WtCom= 1.00D+00 WtEn= 0.00D+00
 Coeff-Com: -0.219D+00 0.187D+00 0.103D+01
 Coeff:     -0.219D+00 0.187D+00 0.103D+01
 Gap=     0.194 Goal=   None    Shift=    0.000
 Gap=     0.121 Goal=   None    Shift=    0.000
 RMSDP=1.89D-06 MaxDP=9.31D-05 DE=-6.24D-08 OVMax= 2.38D-04

 Cycle  14  Pass 1  IDiag  1:
 RMSU=  1.53D-06    CP:  1.00D+00  1.15D+00  1.17D+00
 E= -421.364969715505     Delta-E=       -0.000000037621 Rises=F Damp=F
 DIIS: error= 4.90D-06 at cycle   4 NSaved=   4.
 NSaved= 4 IEnMin= 4 EnMin= -421.364969715505     IErMin= 4 ErrMin= 4.90D-06
 ErrMax= 4.90D-06  0.00D+00 EMaxC= 1.00D-01 BMatC= 1.41D-08 BMatP= 3.68D-08
 IDIUse=1 WtCom= 1.00D+00 WtEn= 0.00D+00
 Coeff-Com: -0.213D+00-0.118D-02 0.555D+00 0.659D+00
 Coeff:     -0.213D+00-0.118D-02 0.555D+00 0.659D+00
 Gap=     0.194 Goal=   None    Shift=    0.000
 Gap=     0.121 Goal=   None    Shift=    0.000
 RMSDP=9.68D-07 MaxDP=4.35D-05 DE=-3.76D-08 OVMax= 9.81D-05

 Cycle  15  Pass 1  IDiag  1:
 RMSU=  6.64D-07    CP:  1.00D+00  1.23D+00  1.41D+00  1.17D+00
 E= -421.364969724045     Delta-E=       -0.000000008540 Rises=F Damp=F
 DIIS: error= 3.37D-06 at cycle   5 NSaved=   5.
 NSaved= 5 IEnMin= 5 EnMin= -421.364969724045     IErMin= 5 ErrMin= 3.37D-06
 ErrMax= 3.37D-06  0.00D+00 EMaxC= 1.00D-01 BMatC= 5.74D-09 BMatP= 1.41D-08
 IDIUse=1 WtCom= 1.00D+00 WtEn= 0.00D+00
 Coeff-Com: -0.382D-01-0.982D-01-0.121D+00 0.479D+00 0.779D+00
 Coeff:     -0.382D-01-0.982D-01-0.121D+00 0.479D+00 0.779D+00
 Gap=     0.194 Goal=   None    Shift=    0.000
 Gap=     0.121 Goal=   None    Shift=    0.000
 RMSDP=7.30D-07 MaxDP=3.35D-05 DE=-8.54D-09 OVMax= 6.94D-05

 Cycle  16  Pass 1  IDiag  1:
 RMSU=  2.66D-07    CP:  1.00D+00  1.27D+00  1.55D+00  1.54D+00  7.89D-01
 E= -421.364969727432     Delta-E=       -0.000000003387 Rises=F Damp=F
 DIIS: error= 1.57D-06 at cycle   6 NSaved=   6.
 NSaved= 6 IEnMin= 6 EnMin= -421.364969727432     IErMin= 6 ErrMin= 1.57D-06
 ErrMax= 1.57D-06  0.00D+00 EMaxC= 1.00D-01 BMatC= 1.27D-09 BMatP= 5.74D-09
 IDIUse=1 WtCom= 1.00D+00 WtEn= 0.00D+00
 Coeff-Com:  0.673D-03-0.616D-01-0.133D+00 0.209D+00 0.489D+00 0.496D+00
 Coeff:      0.673D-03-0.616D-01-0.133D+00 0.209D+00 0.489D+00 0.496D+00
 Gap=     0.194 Goal=   None    Shift=    0.000
 Gap=     0.121 Goal=   None    Shift=    0.000
 RMSDP=1.89D-07 MaxDP=7.80D-06 DE=-3.39D-09 OVMax= 2.35D-05

 Cycle  17  Pass 1  IDiag  1:
 RMSU=  1.05D-07    CP:  1.00D+00  1.28D+00  1.57D+00  1.58D+00  9.04D-01
                    CP:  6.51D-01
 E= -421.364969727866     Delta-E=       -0.000000000434 Rises=F Damp=F
 DIIS: error= 4.92D-07 at cycle   7 NSaved=   7.
 NSaved= 7 IEnMin= 7 EnMin= -421.364969727866     IErMin= 7 ErrMin= 4.92D-07
 ErrMax= 4.92D-07  0.00D+00 EMaxC= 1.00D-01 BMatC= 1.53D-10 BMatP= 1.27D-09
 IDIUse=1 WtCom= 1.00D+00 WtEn= 0.00D+00
 Coeff-Com:  0.887D-02-0.109D-01-0.358D-01-0.963D-02 0.640D-01 0.252D+00
 Coeff-Com:  0.731D+00
 Coeff:      0.887D-02-0.109D-01-0.358D-01-0.963D-02 0.640D-01 0.252D+00
 Coeff:      0.731D+00
 Gap=     0.194 Goal=   None    Shift=    0.000
 Gap=     0.121 Goal=   None    Shift=    0.000
 RMSDP=8.10D-08 MaxDP=2.90D-06 DE=-4.34D-10 OVMax= 6.78D-06

 SCF Done:  E(UB3LYP) =  -421.364969728     A.U. after   17 cycles
            NFock= 17  Conv=0.81D-07     -V/T= 2.0090
 <Sx>= 0.0000 <Sy>= 0.0000 <Sz>= 0.5000 <S**2>= 0.7777 S= 0.5138
 <L.S>= 0.000000000000E+00
 KE= 4.176018672414D+02 PE=-1.813424393577D+03 EE= 5.587919948939D+02
 Annihilation of the first spin contaminant:
 S**2 before annihilation     0.7777,   after     0.7505
 Leave Link  502 at Wed Dec 03 16:42:46 2025, MaxMem=   104857600 cpu:              26.0 elap:              25.9
 (Enter D:\Gaussian\G16W\l601.exe)
 Copying SCF densities to generalized density rwf, IOpCl= 1 IROHF=0.

 **********************************************************************

            Population analysis using the SCF density.

 **********************************************************************

 Orbital symmetries:
 Alpha Orbitals:
       Occupied  (A) (A) (A) (A) (A) (A) (A) (A) (A) (A) (A) (A)
                 (A) (A) (A) (A) (A) (A) (A) (A) (A) (A) (A) (A)
                 (A) (A) (A) (A) (A) (A) (A) (A) (A)
       Virtual   (A) (A) (A) (A) (A) (A) (A) (A) (A) (A) (A) (A)
                 (A) (A) (A) (A) (A) (A) (A) (A) (A) (A) (A) (A)
                 (A) (A) (A) (A) (A) (A) (A) (A) (A) (A) (A) (A)
                 (A) (A) (A) (A) (A) (A) (A) (A) (A) (A) (A) (A)
                 (A) (A) (A) (A) (A) (A) (A) (A) (A) (A) (A) (A)
                 (A) (A) (A) (A) (A) (A) (A) (A) (A) (A) (A) (A)
                 (A) (A) (A) (A) (A) (A) (A) (A) (A) (A) (A) (A)
                 (A) (A) (A) (A) (A) (A) (A) (A) (A) (A) (A) (A)
                 (A) (A) (A) (A) (A) (A) (A) (A) (A) (A) (A) (A)
                 (A) (A) (A) (A) (A) (A) (A) (A)
 Beta  Orbitals:
       Occupied  (A) (A) (A) (A) (A) (A) (A) (A) (A) (A) (A) (A)
                 (A) (A) (A) (A) (A) (A) (A) (A) (A) (A) (A) (A)
                 (A) (A) (A) (A) (A) (A) (A) (A)
       Virtual   (A) (A) (A) (A) (A) (A) (A) (A) (A) (A) (A) (A)
                 (A) (A) (A) (A) (A) (A) (A) (A) (A) (A) (A) (A)
                 (A) (A) (A) (A) (A) (A) (A) (A) (A) (A) (A) (A)
                 (A) (A) (A) (A) (A) (A) (A) (A) (A) (A) (A) (A)
                 (A) (A) (A) (A) (A) (A) (A) (A) (A) (A) (A) (A)
                 (A) (A) (A) (A) (A) (A) (A) (A) (A) (A) (A) (A)
                 (A) (A) (A) (A) (A) (A) (A) (A) (A) (A) (A) (A)
                 (A) (A) (A) (A) (A) (A) (A) (A) (A) (A) (A) (A)
                 (A) (A) (A) (A) (A) (A) (A) (A) (A) (A) (A) (A)
                 (A) (A) (A) (A) (A) (A) (A) (A) (A)
 The electronic state is 2-A.
 Alpha  occ. eigenvalues --  -19.20269 -19.12615 -10.26880 -10.25056 -10.22565
 Alpha  occ. eigenvalues --  -10.20229 -10.20026 -10.19932 -10.19735  -1.09018
 Alpha  occ. eigenvalues --   -1.01725  -0.86251  -0.77036  -0.75713  -0.68510
 Alpha  occ. eigenvalues --   -0.63966  -0.59025  -0.55405  -0.49560  -0.48338
 Alpha  occ. eigenvalues --   -0.44855  -0.44602  -0.43064  -0.42132  -0.41460
 Alpha  occ. eigenvalues --   -0.40363  -0.37755  -0.37116  -0.36045  -0.32979
 Alpha  occ. eigenvalues --   -0.25623  -0.24632  -0.20030
 Alpha virt. eigenvalues --   -0.00650   0.00427   0.05562   0.08749   0.11610
 Alpha virt. eigenvalues --    0.12401   0.13928   0.16758   0.18322   0.18495
 Alpha virt. eigenvalues --    0.21688   0.23711   0.26481   0.31647   0.32625
 Alpha virt. eigenvalues --    0.35805   0.37460   0.46582   0.48949   0.49598
 Alpha virt. eigenvalues --    0.51315   0.53689   0.54520   0.55857   0.58423
 Alpha virt. eigenvalues --    0.59266   0.60183   0.63905   0.64046   0.65736
 Alpha virt. eigenvalues --    0.67137   0.69360   0.70399   0.72839   0.74070
 Alpha virt. eigenvalues --    0.77158   0.78179   0.82732   0.84156   0.86347
 Alpha virt. eigenvalues --    0.87946   0.89945   0.91278   0.91517   0.92900
 Alpha virt. eigenvalues --    0.93856   0.95832   1.00922   1.03748   1.05374
 Alpha virt. eigenvalues --    1.07153   1.09966   1.11641   1.19248   1.22014
 Alpha virt. eigenvalues --    1.22352   1.26952   1.31567   1.34117   1.36771
 Alpha virt. eigenvalues --    1.39669   1.42085   1.43835   1.44292   1.47594
 Alpha virt. eigenvalues --    1.63335   1.70031   1.70247   1.72390   1.78636
 Alpha virt. eigenvalues --    1.80028   1.81435   1.85963   1.86631   1.88623
 Alpha virt. eigenvalues --    1.90261   1.90858   1.93339   1.93867   1.96920
 Alpha virt. eigenvalues --    2.04402   2.07113   2.07381   2.12918   2.14057
 Alpha virt. eigenvalues --    2.23008   2.27519   2.29661   2.31089   2.32467
 Alpha virt. eigenvalues --    2.34606   2.36591   2.42252   2.45234   2.57270
 Alpha virt. eigenvalues --    2.59130   2.62043   2.65024   2.69317   2.75605
 Alpha virt. eigenvalues --    2.81221   2.83270   2.88484   2.92350   3.04087
 Alpha virt. eigenvalues --    3.22066   3.36977   3.81768   4.05660   4.07716
 Alpha virt. eigenvalues --    4.16142   4.19842   4.29734   4.36051   4.54430
 Alpha virt. eigenvalues --    4.93643
  Beta  occ. eigenvalues --  -19.20035 -19.11625 -10.26475 -10.25153 -10.22081
  Beta  occ. eigenvalues --  -10.20418 -10.20052 -10.20044 -10.19448  -1.08474
  Beta  occ. eigenvalues --   -0.99931  -0.85616  -0.76353  -0.75364  -0.68039
  Beta  occ. eigenvalues --   -0.63598  -0.58620  -0.55052  -0.49274  -0.48087
  Beta  occ. eigenvalues --   -0.44407  -0.43674  -0.41949  -0.41640  -0.40891
  Beta  occ. eigenvalues --   -0.39964  -0.36918  -0.35729  -0.35147  -0.30533
  Beta  occ. eigenvalues --   -0.24685  -0.23628
  Beta virt. eigenvalues --   -0.11504   0.01047   0.02860   0.05640   0.08770
  Beta virt. eigenvalues --    0.11788   0.12432   0.14987   0.16779   0.18457
  Beta virt. eigenvalues --    0.19472   0.22267   0.24215   0.26875   0.31884
  Beta virt. eigenvalues --    0.33057   0.35955   0.37747   0.46824   0.49438
  Beta virt. eigenvalues --    0.50039   0.51627   0.54284   0.54777   0.56034
  Beta virt. eigenvalues --    0.58906   0.59519   0.60257   0.64083   0.64272
  Beta virt. eigenvalues --    0.66348   0.67407   0.69494   0.71591   0.73085
  Beta virt. eigenvalues --    0.74418   0.77889   0.78506   0.82725   0.84137
  Beta virt. eigenvalues --    0.86614   0.88117   0.90100   0.91526   0.91809
  Beta virt. eigenvalues --    0.94106   0.94277   0.96130   1.01033   1.05617
  Beta virt. eigenvalues --    1.06653   1.07630   1.10228   1.12001   1.19407
  Beta virt. eigenvalues --    1.22538   1.22853   1.27214   1.31852   1.34914
  Beta virt. eigenvalues --    1.37639   1.40059   1.42900   1.44199   1.45267
  Beta virt. eigenvalues --    1.47954   1.63942   1.70506   1.70563   1.72793
  Beta virt. eigenvalues --    1.79257   1.81790   1.81990   1.86370   1.87388
  Beta virt. eigenvalues --    1.88646   1.90928   1.91301   1.93970   1.94195
  Beta virt. eigenvalues --    1.97491   2.05588   2.07694   2.08300   2.13663
  Beta virt. eigenvalues --    2.14494   2.23106   2.28446   2.30408   2.31511
  Beta virt. eigenvalues --    2.32527   2.34730   2.37447   2.43422   2.45510
  Beta virt. eigenvalues --    2.57978   2.59507   2.62907   2.66239   2.69644
  Beta virt. eigenvalues --    2.75870   2.81700   2.83566   2.88744   2.92774
  Beta virt. eigenvalues --    3.04729   3.22237   3.37129   3.82463   4.06027
  Beta virt. eigenvalues --    4.08120   4.16321   4.20094   4.30317   4.36465
  Beta virt. eigenvalues --    4.54987   4.94179
          Condensed to atoms (all electrons):
               1          2          3          4          5          6
     1  C    4.657701   0.506141   0.004404  -0.023049  -0.017538   0.501759
     2  C    0.506141   5.229235   0.404442  -0.042181  -0.029914  -0.049593
     3  C    0.004404   0.404442   4.966314   0.294936  -0.104116  -0.029707
     4  C   -0.023049  -0.042181   0.294936   4.527605   0.433815  -0.013927
     5  C   -0.017538  -0.029914  -0.104116   0.433815   5.175780   0.474323
     6  C    0.501759  -0.049593  -0.029707  -0.013927   0.474323   5.023647
     7  H   -0.028116   0.336176  -0.045225   0.002871  -0.000152   0.006240
     8  H    0.004125   0.000055   0.008063  -0.029910   0.341655  -0.040883
     9  O   -0.000189   0.006059  -0.081628   0.499305  -0.071409   0.005530
    10  H   -0.049743   0.006459  -0.000290   0.003353  -0.035652   0.356811
    11  O    0.003866  -0.062010   0.302891  -0.049015   0.003013   0.000312
    12  C    0.348012  -0.041894   0.006351   0.000285   0.006203  -0.066970
    13  H   -0.027233   0.000273  -0.000163   0.000015   0.000009  -0.002192
    14  H   -0.027229   0.000266  -0.000163   0.000015   0.000008  -0.002191
    15  H   -0.029469  -0.003544   0.000223  -0.000004  -0.000156   0.003741
    16  H    0.000566  -0.005873  -0.031097   0.006395  -0.000242   0.000015
               7          8          9         10         11         12
     1  C   -0.028116   0.004125  -0.000189  -0.049743   0.003866   0.348012
     2  C    0.336176   0.000055   0.006059   0.006459  -0.062010  -0.041894
     3  C   -0.045225   0.008063  -0.081628  -0.000290   0.302891   0.006351
     4  C    0.002871  -0.029910   0.499305   0.003353  -0.049015   0.000285
     5  C   -0.000152   0.341655  -0.071409  -0.035652   0.003013   0.006203
     6  C    0.006240  -0.040883   0.005530   0.356811   0.000312  -0.066970
     7  H    0.607613   0.000017  -0.000063  -0.000185  -0.004724  -0.011035
     8  H    0.000017   0.572108   0.001663  -0.006410  -0.000050  -0.000170
     9  O   -0.000063   0.001663   8.122678  -0.000070  -0.000908   0.000000
    10  H   -0.000185  -0.006410  -0.000070   0.595957   0.000002  -0.007585
    11  O   -0.004724  -0.000050  -0.000908   0.000002   8.149949  -0.000065
    12  C   -0.011035  -0.000170   0.000000  -0.007585  -0.000065   5.208796
    13  H    0.000120  -0.000001   0.000000   0.001999   0.000001   0.363833
    14  H    0.000121  -0.000001   0.000000   0.001994   0.000001   0.363825
    15  H    0.006841   0.000002   0.000000   0.000019  -0.000001   0.365832
    16  H    0.007984   0.000006  -0.000241  -0.000001   0.242188  -0.000020
              13         14         15         16
     1  C   -0.027233  -0.027229  -0.029469   0.000566
     2  C    0.000273   0.000266  -0.003544  -0.005873
     3  C   -0.000163  -0.000163   0.000223  -0.031097
     4  C    0.000015   0.000015  -0.000004   0.006395
     5  C    0.000009   0.000008  -0.000156  -0.000242
     6  C   -0.002192  -0.002191   0.003741   0.000015
     7  H    0.000120   0.000121   0.006841   0.007984
     8  H   -0.000001  -0.000001   0.000002   0.000006
     9  O    0.000000   0.000000   0.000000  -0.000241
    10  H    0.001999   0.001994   0.000019  -0.000001
    11  O    0.000001   0.000001  -0.000001   0.242188
    12  C    0.363833   0.363825   0.365832  -0.000020
    13  H    0.547784  -0.031499  -0.026806   0.000000
    14  H   -0.031499   0.547787  -0.026808   0.000000
    15  H   -0.026806  -0.026808   0.549003   0.000004
    16  H    0.000000   0.000000   0.000004   0.365805
          Atomic-Atomic Spin Densities.
               1          2          3          4          5          6
     1  C    0.380483  -0.005904  -0.012805  -0.003188  -0.011872   0.027842
     2  C   -0.005904  -0.173368   0.015530   0.000637   0.001154  -0.000344
     3  C   -0.012805   0.015530   0.310651   0.031982   0.004502  -0.002038
     4  C   -0.003188   0.000637   0.031982  -0.065099   0.029439  -0.001011
     5  C   -0.011872   0.001154   0.004502   0.029439   0.244615  -0.026073
     6  C    0.027842  -0.000344  -0.002038  -0.001011  -0.026073  -0.104670
     7  H   -0.000578   0.001467  -0.000532   0.000080  -0.000025  -0.000030
     8  H    0.000021  -0.000041  -0.000066  -0.000128   0.000986   0.000621
     9  O    0.000104  -0.000087  -0.009398  -0.053805  -0.008882   0.000210
    10  H   -0.000944  -0.000025  -0.000001   0.000017  -0.000396   0.001562
    11  O    0.000309   0.000671  -0.053215  -0.002077  -0.000145   0.000005
    12  C   -0.006424   0.000212  -0.000086  -0.000019   0.000037   0.000305
    13  H   -0.007481   0.000126   0.000035   0.000005   0.000085  -0.000581
    14  H   -0.007491   0.000126   0.000036   0.000005   0.000085  -0.000582
    15  H   -0.000786   0.000372   0.000010   0.000001  -0.000003  -0.000046
    16  H   -0.000001   0.000293   0.000033  -0.000088  -0.000010   0.000003
               7          8          9         10         11         12
     1  C   -0.000578   0.000021   0.000104  -0.000944   0.000309  -0.006424
     2  C    0.001467  -0.000041  -0.000087  -0.000025   0.000671   0.000212
     3  C   -0.000532  -0.000066  -0.009398  -0.000001  -0.053215  -0.000086
     4  C    0.000080  -0.000128  -0.053805   0.000017  -0.002077  -0.000019
     5  C   -0.000025   0.000986  -0.008882  -0.000396  -0.000145   0.000037
     6  C   -0.000030   0.000621   0.000210   0.001562   0.000005   0.000305
     7  H    0.004968  -0.000001   0.000001   0.000001  -0.000024   0.000255
     8  H   -0.000001  -0.012767  -0.000217   0.000149   0.000000   0.000001
     9  O    0.000001  -0.000217   0.457521   0.000001   0.001732   0.000000
    10  H    0.000001   0.000149   0.000001   0.002743   0.000000   0.000252
    11  O   -0.000024   0.000000   0.001732   0.000000   0.125179   0.000000
    12  C    0.000255   0.000001   0.000000   0.000252   0.000000  -0.030851
    13  H   -0.000001   0.000000   0.000000  -0.000023   0.000000   0.004192
    14  H   -0.000001   0.000000   0.000000  -0.000023   0.000000   0.004192
    15  H   -0.000048   0.000000   0.000000   0.000000   0.000000   0.001265
    16  H   -0.000015   0.000000   0.000001   0.000000  -0.000739   0.000000
              13         14         15         16
     1  C   -0.007481  -0.007491  -0.000786  -0.000001
     2  C    0.000126   0.000126   0.000372   0.000293
     3  C    0.000035   0.000036   0.000010   0.000033
     4  C    0.000005   0.000005   0.000001  -0.000088
     5  C    0.000085   0.000085  -0.000003  -0.000010
     6  C   -0.000581  -0.000582  -0.000046   0.000003
     7  H   -0.000001  -0.000001  -0.000048  -0.000015
     8  H    0.000000   0.000000   0.000000   0.000000
     9  O    0.000000   0.000000   0.000000   0.000001
    10  H   -0.000023  -0.000023   0.000000   0.000000
    11  O    0.000000   0.000000   0.000000  -0.000739
    12  C    0.004192   0.004192   0.001265   0.000000
    13  H    0.024865  -0.005779  -0.000223   0.000000
    14  H   -0.005779   0.024907  -0.000232   0.000000
    15  H   -0.000223  -0.000232   0.000143   0.000000
    16  H    0.000000   0.000000   0.000000  -0.002157
 Mulliken charges and spin densities:
               1          2
     1  C    0.175992   0.351285
     2  C   -0.254095  -0.159181
     3  C    0.304763   0.284638
     4  C    0.389493  -0.063248
     5  C   -0.175627   0.233497
     6  C   -0.166913  -0.104826
     7  H    0.121517   0.005518
     8  H    0.149733  -0.011441
     9  O   -0.480725   0.387180
    10  H    0.133341   0.003313
    11  O   -0.585449   0.071696
    12  C   -0.535396  -0.026667
    13  H    0.173859   0.015220
    14  H    0.173874   0.015244
    15  H    0.161123   0.000453
    16  H    0.414510  -0.002681
 Sum of Mulliken charges =   0.00000   1.00000
 Mulliken charges and spin densities with hydrogens summed into heavy atoms:
               1          2
     1  C    0.175992   0.351285
     2  C   -0.132579  -0.153663
     3  C    0.304763   0.284638
     4  C    0.389493  -0.063248
     5  C   -0.025894   0.222056
     6  C   -0.033572  -0.101513
     9  O   -0.480725   0.387180
    11  O   -0.170938   0.069015
    12  C   -0.026540   0.004251
 Electronic spatial extent (au):  <R**2>=           1189.3777
 Charge=              0.0000 electrons
 Dipole moment (field-independent basis, Debye):
    X=             -4.7387    Y=              2.3096    Z=              0.0001  Tot=              5.2716
 Quadrupole moment (field-independent basis, Debye-Ang):
   XX=            -58.9668   YY=            -41.9646   ZZ=            -52.8436
   XY=              3.7771   XZ=             -0.0003   YZ=             -0.0002
 Traceless Quadrupole moment (field-independent basis, Debye-Ang):
   XX=             -7.7085   YY=              9.2938   ZZ=             -1.5853
   XY=              3.7771   XZ=             -0.0003   YZ=             -0.0002
 Octapole moment (field-independent basis, Debye-Ang**2):
  XXX=            -31.0535  YYY=             24.7741  ZZZ=              0.0010  XYY=              6.1807
  XXY=              7.4892  XXZ=              0.0012  XZZ=              6.1335  YZZ=              1.8781
  YYZ=             -0.0014  XYZ=             -0.0003
 Hexadecapole moment (field-independent basis, Debye-Ang**3):
 XXXX=          -1044.2274 YYYY=           -368.0073 ZZZZ=            -56.7424 XXXY=             26.7775
 XXXZ=              0.0084 YYYX=             32.5520 YYYZ=              0.0006 ZZZX=              0.0047
 ZZZY=              0.0050 XXYY=           -240.8985 XXZZ=           -169.3080 YYZZ=            -92.2947
 XXYZ=              0.0032 YYXZ=              0.0055 ZZXY=              2.1639
 N-N= 4.156655617141D+02 E-N=-1.813424391488D+03  KE= 4.176018672414D+02
                          Isotropic Fermi Contact Couplings
        Atom                 a.u.       MegaHertz       Gauss      10(-4) cm-1
     1  C(13)              0.03874      43.55095      15.54006      14.52703
     2  C(13)             -0.02421     -27.21355      -9.71047      -9.07746
     3  C(13)              0.02832      31.83260      11.35866      10.61821
     4  C(13)             -0.02162     -24.29960      -8.67070      -8.10547
     5  C(13)              0.02120      23.83392       8.50453       7.95014
     6  C(13)             -0.01727     -19.40992      -6.92594      -6.47445
     7  H(1)               0.00165       7.39379       2.63829       2.46630
     8  H(1)              -0.00365     -16.32709      -5.82591      -5.44613
     9  O(17)              0.04840     -29.33813     -10.46857      -9.78615
    10  H(1)               0.00099       4.44660       1.58666       1.48323
    11  O(17)              0.01664     -10.08971      -3.60026      -3.36557
    12  C(13)             -0.00983     -11.05290      -3.94395      -3.68685
    13  H(1)               0.00841      37.60515      13.41845      12.54373
    14  H(1)               0.00843      37.65905      13.43769      12.56171
    15  H(1)               0.00017       0.74449       0.26565       0.24834
    16  H(1)              -0.00132      -5.90170      -2.10587      -1.96860
 --------------------------------------------------------
       Center         ----  Spin Dipole Couplings  ----
                      3XX-RR        3YY-RR        3ZZ-RR
 --------------------------------------------------------
     1   Atom       -0.178685     -0.188286      0.366971
     2   Atom        0.068754      0.055761     -0.124515
     3   Atom       -0.159995     -0.155620      0.315615
     4   Atom        0.041127     -0.000255     -0.040872
     5   Atom       -0.115273     -0.109192      0.224465
     6   Atom        0.036027      0.033651     -0.069678
     7   Atom        0.007000     -0.001639     -0.005361
     8   Atom       -0.012357      0.016986     -0.004629
     9   Atom       -0.729652     -0.728306      1.457958
    10   Atom       -0.000078      0.004926     -0.004849
    11   Atom       -0.193329     -0.175838      0.369167
    12   Atom        0.001537     -0.006945      0.005408
    13   Atom        0.005461     -0.003504     -0.001957
    14   Atom        0.005458     -0.003507     -0.001951
    15   Atom        0.001867      0.000767     -0.002634
    16   Atom       -0.010121      0.018337     -0.008216
 --------------------------------------------------------
                        XY            XZ            YZ
 --------------------------------------------------------
     1   Atom       -0.003362      0.000019      0.000010
     2   Atom        0.002336     -0.000003     -0.000006
     3   Atom        0.000296      0.000003      0.000016
     4   Atom       -0.010836     -0.000003      0.000000
     5   Atom        0.001304      0.000000      0.000004
     6   Atom       -0.004809      0.000000      0.000001
     7   Atom        0.001672      0.000000      0.000000
     8   Atom       -0.003889      0.000000     -0.000001
     9   Atom       -0.001008      0.000036      0.000056
    10   Atom       -0.001066      0.000000      0.000000
    11   Atom       -0.003765      0.000004      0.000008
    12   Atom       -0.003021      0.000000      0.000002
    13   Atom        0.000266      0.003287      0.000886
    14   Atom        0.000261     -0.003291     -0.000885
    15   Atom       -0.004404      0.000001      0.000000
    16   Atom       -0.009558      0.000000      0.000000
 --------------------------------------------------------


 ---------------------------------------------------------------------------------
              Anisotropic Spin Dipole Couplings in Principal Axis System
 ---------------------------------------------------------------------------------

       Atom             a.u.   MegaHertz   Gauss  10(-4) cm-1        Axes

              Baa    -0.1893   -25.408    -9.066    -8.475  0.3008  0.9537  0.0000
     1 C(13)  Bbb    -0.1776   -23.836    -8.505    -7.951  0.9537 -0.3008  0.0000
              Bcc     0.3670    49.244    17.571    16.426  0.0000  0.0000  1.0000
 
              Baa    -0.1245   -16.709    -5.962    -5.573  0.0000  0.0000  1.0000
     2 C(13)  Bbb     0.0554     7.428     2.651     2.478 -0.1717  0.9851  0.0000
              Bcc     0.0692     9.281     3.312     3.096  0.9851  0.1717  0.0000
 
              Baa    -0.1600   -21.472    -7.662    -7.162  0.9977 -0.0672  0.0000
     3 C(13)  Bbb    -0.1556   -20.880    -7.451    -6.965  0.0672  0.9977  0.0000
              Bcc     0.3156    42.353    15.112    14.127  0.0000  0.0000  1.0000
 
              Baa    -0.0409    -5.485    -1.957    -1.829  0.0000  0.0000  1.0000
     4 C(13)  Bbb    -0.0029    -0.392    -0.140    -0.131  0.2389  0.9710  0.0000
              Bcc     0.0438     5.877     2.097     1.960  0.9710 -0.2389  0.0000
 
              Baa    -0.1155   -15.504    -5.532    -5.172  0.9795 -0.2012  0.0000
     5 C(13)  Bbb    -0.1089   -14.617    -5.216    -4.876  0.2012  0.9795  0.0000
              Bcc     0.2245    30.121    10.748    10.047  0.0000  0.0000  1.0000
 
              Baa    -0.0697    -9.350    -3.336    -3.119  0.0000  0.0000  1.0000
     6 C(13)  Bbb     0.0299     4.010     1.431     1.338  0.6165  0.7874  0.0000
              Bcc     0.0398     5.340     1.905     1.781  0.7874 -0.6165  0.0000
 
              Baa    -0.0054    -2.860    -1.021    -0.954  0.0000  0.0000  1.0000
     7 H(1)   Bbb    -0.0020    -1.041    -0.371    -0.347 -0.1836  0.9830  0.0000
              Bcc     0.0073     3.901     1.392     1.301  0.9830  0.1836  0.0000
 
              Baa    -0.0129    -6.863    -2.449    -2.289  0.9916  0.1292  0.0000
     8 H(1)   Bbb    -0.0046    -2.470    -0.881    -0.824  0.0000  0.0000  1.0000
              Bcc     0.0175     9.333     3.330     3.113 -0.1292  0.9916  0.0000
 
              Baa    -0.7302    52.836    18.853    17.624  0.8818  0.4717  0.0000
     9 O(17)  Bbb    -0.7278    52.661    18.791    17.566 -0.4717  0.8818  0.0000
              Bcc     1.4580  -105.497   -37.644   -35.190  0.0000  0.0000  1.0000
 
              Baa    -0.0048    -2.587    -0.923    -0.863  0.0001  0.0000  1.0000
    10 H(1)   Bbb    -0.0003    -0.158    -0.056    -0.053  0.9798  0.2000 -0.0001
              Bcc     0.0051     2.745     0.979     0.916 -0.2000  0.9798  0.0000
 
              Baa    -0.1941    14.045     5.012     4.685  0.9794  0.2019  0.0000
    11 O(17)  Bbb    -0.1751    12.667     4.520     4.225 -0.2019  0.9794  0.0000
              Bcc     0.3692   -26.713    -9.532    -8.910  0.0000  0.0000  1.0000
 
              Baa    -0.0079    -1.062    -0.379    -0.354  0.3046  0.9525 -0.0001
    12 C(13)  Bbb     0.0025     0.336     0.120     0.112  0.9525 -0.3046  0.0001
              Bcc     0.0054     0.726     0.259     0.242 -0.0001  0.0002  1.0000
 
              Baa    -0.0041    -2.199    -0.784    -0.733  0.1835  0.7802 -0.5980
    13 H(1)   Bbb    -0.0026    -1.397    -0.499    -0.466 -0.3123  0.6231  0.7171
              Bcc     0.0067     3.596     1.283     1.199  0.9321  0.0552  0.3580
 
              Baa    -0.0041    -2.199    -0.785    -0.734  0.1838  0.7810  0.5969
    14 H(1)   Bbb    -0.0026    -1.396    -0.498    -0.466  0.3126 -0.6222  0.7178
              Bcc     0.0067     3.596     1.283     1.199  0.9319  0.0547 -0.3585
 
              Baa    -0.0031    -1.665    -0.594    -0.555  0.6619  0.7496 -0.0008
    15 H(1)   Bbb    -0.0026    -1.406    -0.502    -0.469  0.0004  0.0007  1.0000
              Bcc     0.0058     3.071     1.096     1.024  0.7496 -0.6619  0.0001
 
              Baa    -0.0130    -6.954    -2.481    -2.320  0.9566  0.2915  0.0000
    16 H(1)   Bbb    -0.0082    -4.383    -1.564    -1.462  0.0000  0.0000  1.0000
              Bcc     0.0212    11.338     4.046     3.782 -0.2915  0.9566  0.0000
 

 ---------------------------------------------------------------------------------

 No NMR shielding tensors so no spin-rotation constants.
 Leave Link  601 at Wed Dec 03 16:42:46 2025, MaxMem=   104857600 cpu:               0.0 elap:               0.3
 (Enter D:\Gaussian\G16W\l9999.exe)
 1|1|UNPC-PC-20250526LCFF|SP|UB3LYP|6-31G(d)|C7H7O2(2)|ADMINISTRATOR|03
 -Dec-2025|0||#P B3LYP/6-31G* SCF=conver=7 out=wfn||Generated by Multiw
 fn (http://sobereva.com/multiwfn)||0,2|C,0,-1.519548,0.055869,0.000003
 |C,0,-0.551731,1.065288,-0.000034|C,0,0.803755,0.765685,-0.000037|C,0,
 1.273216,-0.625921,0.000004|C,0,0.228265,-1.631034,0.000026|C,0,-1.099
 009,-1.301508,0.000026|H,0,-0.866903,2.106204,-0.000063|H,0,0.562377,-
 2.661966,0.000037|O,0,2.484465,-0.906843,-0.000011|H,0,-1.852978,-2.08
 2064,0.000042|O,0,1.768432,1.702299,-0.000074|C,0,-2.986255,0.38817,0.
 000077|H,0,-3.483156,-0.03534,-0.879103|H,0,-3.48281,-0.034288,0.87996
 7|H,0,-3.158107,1.465581,-0.000518|H,0,1.366238,2.578921,-0.000073||Ve
 rsion=EM64W-G16RevA.03|State=2-A|HF=-421.3649697|S2=0.777723|S2-1=0.|S
 2A=0.750529|RMSD=8.099e-008|Dipole=-1.8643485,0.9086593,0.0000548|Quad
 rupole=-5.7310741,6.9096894,-1.1786153,2.8081438,-0.0001909,-0.0001325
 |PG=C01 [X(C7H7O2)]||@

 Writing a WFN file to "N.wfn"


 The chemist is a guest at the physicist's table and
 frequently dines well.
                   -- Richard Bersohn
 Job cpu time:       0 days  0 hours  0 minutes 27.0 seconds.
 Elapsed time:       0 days  0 hours  0 minutes 27.7 seconds.
 File lengths (MBytes):  RWF=     27 Int=      0 D2E=      0 Chk=      3 Scr=      1
 Normal termination of Gaussian 16 at Wed Dec 03 16:42:46 2025.
