 Generated by Multiwfn (http://sobereva.com/multiwfn)
GAUSSIAN             65 MOL ORBITALS    280 PRIMITIVES       16 NUCLEI
  C    1    (CENTRE  1)  -2.87152940  0.10557749  0.00000570  CHARGE =  6.0
  C    2    (CENTRE  2)  -1.04262028  2.01310289 -0.00006422  CHARGE =  6.0
  C    3    (CENTRE  3)   1.51887701  1.44693519 -0.00006989  CHARGE =  6.0
  C    4    (CENTRE  4)   2.40602965 -1.18281905  0.00000759  CHARGE =  6.0
  C    5    (CENTRE  5)   0.43135838 -3.08220728  0.00004916  CHARGE =  6.0
  C    6    (CENTRE  6)  -2.07682595 -2.45949331  0.00004916  CHARGE =  6.0
  H    7    (CENTRE  7)  -1.63820898  3.98014906 -0.00011902  CHARGE =  1.0
  H    8    (CENTRE  8)   1.06273850 -5.03038644  0.00006995  CHARGE =  1.0
  O    9    (CENTRE  9)   4.69495851 -1.71368476 -0.00002076  CHARGE =  8.0
  H   10    (CENTRE 10)  -3.50162091 -3.93453033  0.00007940  CHARGE =  1.0
  O   11    (CENTRE 11)   3.34185240  3.21687908 -0.00013981  CHARGE =  8.0
  C   12    (CENTRE 12)  -5.64320392  0.73353546  0.00014554  CHARGE =  6.0
  H   13    (CENTRE 13)  -6.58221075 -0.06678242 -1.66126388  CHARGE =  1.0
  H   14    (CENTRE 14)  -6.58155690 -0.06479443  1.66289666  CHARGE =  1.0
  H   15    (CENTRE 15)  -5.96795707  2.76954718 -0.00097885  CHARGE =  1.0
  H   16    (CENTRE 16)   2.58181594  4.87345460 -0.00013792  CHARGE =  1.0
CENTRE ASSIGNMENTS    1  1  1  1  1  1  1  1  1  1  1  1  1  1  1  1  1  1  1  1
CENTRE ASSIGNMENTS    1  1  1  1  1  1  1  1  2  2  2  2  2  2  2  2  2  2  2  2
CENTRE ASSIGNMENTS    2  2  2  2  2  2  2  2  2  2  2  2  2  2  2  2  3  3  3  3
CENTRE ASSIGNMENTS    3  3  3  3  3  3  3  3  3  3  3  3  3  3  3  3  3  3  3  3
CENTRE ASSIGNMENTS    3  3  3  3  4  4  4  4  4  4  4  4  4  4  4  4  4  4  4  4
CENTRE ASSIGNMENTS    4  4  4  4  4  4  4  4  4  4  4  4  5  5  5  5  5  5  5  5
CENTRE ASSIGNMENTS    5  5  5  5  5  5  5  5  5  5  5  5  5  5  5  5  5  5  5  5
CENTRE ASSIGNMENTS    6  6  6  6  6  6  6  6  6  6  6  6  6  6  6  6  6  6  6  6
CENTRE ASSIGNMENTS    6  6  6  6  6  6  6  6  7  7  7  7  8  8  8  8  9  9  9  9
CENTRE ASSIGNMENTS    9  9  9  9  9  9  9  9  9  9  9  9  9  9  9  9  9  9  9  9
CENTRE ASSIGNMENTS    9  9  9  9 10 10 10 10 11 11 11 11 11 11 11 11 11 11 11 11
CENTRE ASSIGNMENTS   11 11 11 11 11 11 11 11 11 11 11 11 11 11 11 11 12 12 12 12
CENTRE ASSIGNMENTS   12 12 12 12 12 12 12 12 12 12 12 12 12 12 12 12 12 12 12 12
CENTRE ASSIGNMENTS   12 12 12 12 13 13 13 13 14 14 14 14 15 15 15 15 16 16 16 16
TYPE ASSIGNMENTS      1  1  1  1  1  1  1  1  1  2  2  2  3  3  3  4  4  4  1  2
TYPE ASSIGNMENTS      3  4  5  6  7  8  9 10  1  1  1  1  1  1  1  1  1  2  2  2
TYPE ASSIGNMENTS      3  3  3  4  4  4  1  2  3  4  5  6  7  8  9 10  1  1  1  1
TYPE ASSIGNMENTS      1  1  1  1  1  2  2  2  3  3  3  4  4  4  1  2  3  4  5  6
TYPE ASSIGNMENTS      7  8  9 10  1  1  1  1  1  1  1  1  1  2  2  2  3  3  3  4
TYPE ASSIGNMENTS      4  4  1  2  3  4  5  6  7  8  9 10  1  1  1  1  1  1  1  1
TYPE ASSIGNMENTS      1  2  2  2  3  3  3  4  4  4  1  2  3  4  5  6  7  8  9 10
TYPE ASSIGNMENTS      1  1  1  1  1  1  1  1  1  2  2  2  3  3  3  4  4  4  1  2
TYPE ASSIGNMENTS      3  4  5  6  7  8  9 10  1  1  1  1  1  1  1  1  1  1  1  1
TYPE ASSIGNMENTS      1  1  1  1  1  2  2  2  3  3  3  4  4  4  1  2  3  4  5  6
TYPE ASSIGNMENTS      7  8  9 10  1  1  1  1  1  1  1  1  1  1  1  1  1  2  2  2
TYPE ASSIGNMENTS      3  3  3  4  4  4  1  2  3  4  5  6  7  8  9 10  1  1  1  1
TYPE ASSIGNMENTS      1  1  1  1  1  2  2  2  3  3  3  4  4  4  1  2  3  4  5  6
TYPE ASSIGNMENTS      7  8  9 10  1  1  1  1  1  1  1  1  1  1  1  1  1  1  1  1
EXPONENTS  0.3047525D+04 0.4573695D+03 0.1039487D+03 0.2921016D+02 0.9286663D+01
EXPONENTS  0.3163927D+01 0.7868272D+01 0.1881289D+01 0.5442493D+00 0.7868272D+01
EXPONENTS  0.1881289D+01 0.5442493D+00 0.7868272D+01 0.1881289D+01 0.5442493D+00
EXPONENTS  0.7868272D+01 0.1881289D+01 0.5442493D+00 0.1687145D+00 0.1687145D+00
EXPONENTS  0.1687145D+00 0.1687145D+00 0.8000000D+00 0.8000000D+00 0.8000000D+00
EXPONENTS  0.8000000D+00 0.8000000D+00 0.8000000D+00 0.3047525D+04 0.4573695D+03
EXPONENTS  0.1039487D+03 0.2921016D+02 0.9286663D+01 0.3163927D+01 0.7868272D+01
EXPONENTS  0.1881289D+01 0.5442493D+00 0.7868272D+01 0.1881289D+01 0.5442493D+00
EXPONENTS  0.7868272D+01 0.1881289D+01 0.5442493D+00 0.7868272D+01 0.1881289D+01
EXPONENTS  0.5442493D+00 0.1687145D+00 0.1687145D+00 0.1687145D+00 0.1687145D+00
EXPONENTS  0.8000000D+00 0.8000000D+00 0.8000000D+00 0.8000000D+00 0.8000000D+00
EXPONENTS  0.8000000D+00 0.3047525D+04 0.4573695D+03 0.1039487D+03 0.2921016D+02
EXPONENTS  0.9286663D+01 0.3163927D+01 0.7868272D+01 0.1881289D+01 0.5442493D+00
EXPONENTS  0.7868272D+01 0.1881289D+01 0.5442493D+00 0.7868272D+01 0.1881289D+01
EXPONENTS  0.5442493D+00 0.7868272D+01 0.1881289D+01 0.5442493D+00 0.1687145D+00
EXPONENTS  0.1687145D+00 0.1687145D+00 0.1687145D+00 0.8000000D+00 0.8000000D+00
EXPONENTS  0.8000000D+00 0.8000000D+00 0.8000000D+00 0.8000000D+00 0.3047525D+04
EXPONENTS  0.4573695D+03 0.1039487D+03 0.2921016D+02 0.9286663D+01 0.3163927D+01
EXPONENTS  0.7868272D+01 0.1881289D+01 0.5442493D+00 0.7868272D+01 0.1881289D+01
EXPONENTS  0.5442493D+00 0.7868272D+01 0.1881289D+01 0.5442493D+00 0.7868272D+01
EXPONENTS  0.1881289D+01 0.5442493D+00 0.1687145D+00 0.1687145D+00 0.1687145D+00
EXPONENTS  0.1687145D+00 0.8000000D+00 0.8000000D+00 0.8000000D+00 0.8000000D+00
EXPONENTS  0.8000000D+00 0.8000000D+00 0.3047525D+04 0.4573695D+03 0.1039487D+03
EXPONENTS  0.2921016D+02 0.9286663D+01 0.3163927D+01 0.7868272D+01 0.1881289D+01
EXPONENTS  0.5442493D+00 0.7868272D+01 0.1881289D+01 0.5442493D+00 0.7868272D+01
EXPONENTS  0.1881289D+01 0.5442493D+00 0.7868272D+01 0.1881289D+01 0.5442493D+00
EXPONENTS  0.1687145D+00 0.1687145D+00 0.1687145D+00 0.1687145D+00 0.8000000D+00
EXPONENTS  0.8000000D+00 0.8000000D+00 0.8000000D+00 0.8000000D+00 0.8000000D+00
EXPONENTS  0.3047525D+04 0.4573695D+03 0.1039487D+03 0.2921016D+02 0.9286663D+01
EXPONENTS  0.3163927D+01 0.7868272D+01 0.1881289D+01 0.5442493D+00 0.7868272D+01
EXPONENTS  0.1881289D+01 0.5442493D+00 0.7868272D+01 0.1881289D+01 0.5442493D+00
EXPONENTS  0.7868272D+01 0.1881289D+01 0.5442493D+00 0.1687145D+00 0.1687145D+00
EXPONENTS  0.1687145D+00 0.1687145D+00 0.8000000D+00 0.8000000D+00 0.8000000D+00
EXPONENTS  0.8000000D+00 0.8000000D+00 0.8000000D+00 0.1873114D+02 0.2825394D+01
EXPONENTS  0.6401217D+00 0.1612778D+00 0.1873114D+02 0.2825394D+01 0.6401217D+00
EXPONENTS  0.1612778D+00 0.5484672D+04 0.8252349D+03 0.1880470D+03 0.5296450D+02
EXPONENTS  0.1689757D+02 0.5799635D+01 0.1553962D+02 0.3599934D+01 0.1013762D+01
EXPONENTS  0.1553962D+02 0.3599934D+01 0.1013762D+01 0.1553962D+02 0.3599934D+01
EXPONENTS  0.1013762D+01 0.1553962D+02 0.3599934D+01 0.1013762D+01 0.2700058D+00
EXPONENTS  0.2700058D+00 0.2700058D+00 0.2700058D+00 0.8000000D+00 0.8000000D+00
EXPONENTS  0.8000000D+00 0.8000000D+00 0.8000000D+00 0.8000000D+00 0.1873114D+02
EXPONENTS  0.2825394D+01 0.6401217D+00 0.1612778D+00 0.5484672D+04 0.8252349D+03
EXPONENTS  0.1880470D+03 0.5296450D+02 0.1689757D+02 0.5799635D+01 0.1553962D+02
EXPONENTS  0.3599934D+01 0.1013762D+01 0.1553962D+02 0.3599934D+01 0.1013762D+01
EXPONENTS  0.1553962D+02 0.3599934D+01 0.1013762D+01 0.1553962D+02 0.3599934D+01
EXPONENTS  0.1013762D+01 0.2700058D+00 0.2700058D+00 0.2700058D+00 0.2700058D+00
EXPONENTS  0.8000000D+00 0.8000000D+00 0.8000000D+00 0.8000000D+00 0.8000000D+00
EXPONENTS  0.8000000D+00 0.3047525D+04 0.4573695D+03 0.1039487D+03 0.2921016D+02
EXPONENTS  0.9286663D+01 0.3163927D+01 0.7868272D+01 0.1881289D+01 0.5442493D+00
EXPONENTS  0.7868272D+01 0.1881289D+01 0.5442493D+00 0.7868272D+01 0.1881289D+01
EXPONENTS  0.5442493D+00 0.7868272D+01 0.1881289D+01 0.5442493D+00 0.1687145D+00
EXPONENTS  0.1687145D+00 0.1687145D+00 0.1687145D+00 0.8000000D+00 0.8000000D+00
EXPONENTS  0.8000000D+00 0.8000000D+00 0.8000000D+00 0.8000000D+00 0.1873114D+02
EXPONENTS  0.2825394D+01 0.6401217D+00 0.1612778D+00 0.1873114D+02 0.2825394D+01
EXPONENTS  0.6401217D+00 0.1612778D+00 0.1873114D+02 0.2825394D+01 0.6401217D+00
EXPONENTS  0.1612778D+00 0.1873114D+02 0.2825394D+01 0.6401217D+00 0.1612778D+00
MO    1     MO 0.0        OCC NO =    1.0000000  ORB. ENERGY =  -19.202692
 -0.38345298D-05 -0.70739587D-05 -0.11419563D-04 -0.14864878D-04 -0.12684227D-04
 -0.43795588D-05  0.25174201D-04  0.11602766D-04 -0.32535367D-04  0.83147296D-04
  0.63752073D-04  0.31816752D-04  0.41401539D-04  0.31744074D-04  0.15842518D-04
 -0.20723745D-08 -0.15889654D-08 -0.79300507D-09  0.33642420D-03  0.10063821D-03
  0.12134704D-03 -0.29024533D-08  0.29435227D-04  0.32225263D-04 -0.29018934D-05
  0.84898708D-04 -0.61664411D-08 -0.45290266D-09  0.14513213D-04  0.26774044D-04
  0.43221609D-04  0.56261692D-04  0.48008204D-04  0.16576079D-04 -0.93201626D-04
 -0.42956544D-04  0.12045463D-03 -0.96022155D-04 -0.73623698D-04 -0.36743385D-04
 -0.38470162D-04 -0.29496480D-04 -0.14720811D-04 -0.28340494D-08 -0.21729693D-08
 -0.10844640D-08 -0.60091036D-03  0.75386676D-05  0.31135690D-03 -0.81657923D-08
 -0.10199721D-03 -0.57611795D-04  0.62451770D-04 -0.63767092D-04  0.36224407D-08
  0.86379167D-08 -0.21611813D-04 -0.39869575D-04 -0.64361856D-04 -0.83780013D-04
 -0.71489637D-04 -0.24683654D-04 -0.93008868D-04 -0.42867702D-04  0.12020551D-03
  0.44228603D-03  0.33911687D-03  0.16924309D-03  0.34642054D-03  0.26561330D-03
  0.13255965D-03 -0.15452154D-07 -0.11847732D-07 -0.59128485D-08 -0.16448407D-03
 -0.58028704D-03 -0.39790896D-03  0.17812630D-07 -0.32033809D-04 -0.15205693D-03
 -0.94548320D-04 -0.10195835D-03  0.14879357D-08  0.33250212D-08  0.11318436D-04
  0.20880305D-04  0.33707287D-04  0.43876872D-04  0.37440214D-04  0.12927206D-04
 -0.59632694D-04 -0.27484654D-04  0.77069840D-04  0.73074017D-04  0.56028522D-04
  0.27962159D-04  0.35010935D-05  0.26844164D-05  0.13397119D-05 -0.30071554D-09
 -0.23056960D-09 -0.11507039D-09 -0.79727796D-05  0.23765628D-03 -0.28468897D-04
 -0.25310525D-08  0.90069698D-05 -0.21950724D-04  0.36009353D-04  0.48238152D-04
 -0.21083193D-08  0.32512075D-08  0.88736167D-05  0.16370090D-04  0.26426401D-04
  0.34399322D-04  0.29353004D-04  0.10134887D-04 -0.27403968D-04 -0.12630464D-04
  0.35417139D-04  0.18509782D-04  0.14192126D-04  0.70828658D-05  0.79423274D-04
  0.60896729D-04  0.30391736D-04 -0.17543403D-08 -0.13451169D-08 -0.67130760D-09
  0.12498357D-03 -0.41314772D-04 -0.98079638D-06  0.16417708D-08  0.32922208D-04
 -0.16200730D-05  0.55509515D-04 -0.20094807D-04  0.53806789D-09  0.63008598D-08
  0.41694581D-05  0.76918360D-05  0.12417008D-04  0.16163255D-04  0.13792135D-04
  0.47620928D-05 -0.14254028D-04 -0.65696684D-05  0.18422036D-04  0.37787935D-04
  0.28973392D-04  0.14459753D-04  0.14306094D-04  0.10969006D-04  0.54743025D-05
  0.22601020D-08  0.17329029D-08  0.86483998D-09 -0.57642767D-04 -0.75889103D-04
 -0.36210792D-06 -0.89714661D-09 -0.33360960D-05  0.31285175D-05  0.25306857D-04
  0.32790781D-04 -0.96679725D-09  0.77897588D-09 -0.19269896D-04 -0.32685391D-04
 -0.37211162D-04 -0.65146098D-04 -0.64034075D-06 -0.10861391D-05 -0.12365310D-05
 -0.17286496D-04  0.25636276D-04  0.47184432D-04  0.76353318D-04  0.10036857D-03
  0.86085543D-04  0.29434109D-04 -0.15693412D-03 -0.70023700D-04  0.20678092D-03
 -0.35116468D-04 -0.27055345D-04 -0.11878754D-04  0.17366334D-03  0.13379824D-03
  0.58744635D-04 -0.12380288D-08 -0.95383443D-09 -0.41878469D-09 -0.43428182D-03
  0.97521893D-04 -0.41984183D-04 -0.18710474D-08  0.19024994D-03  0.22804381D-03
  0.24106863D-03  0.30778068D-04  0.24001047D-08 -0.37280244D-09 -0.40748739D-05
 -0.69117573D-05 -0.78687914D-05 -0.21054872D-04  0.82560808D+00  0.15195596D+01
  0.24589343D+01  0.32323379D+01  0.27723575D+01  0.94791610D+00 -0.15841606D-01
 -0.70684937D-02  0.20873357D-01 -0.32424631D-02 -0.24981430D-02 -0.10968193D-02
  0.96308930D-03  0.74200838D-03  0.32578165D-03  0.60998249D-07  0.46995862D-07
  0.20633715D-07  0.38997019D-02 -0.20937497D-03 -0.32676175D-03  0.11266049D-07
 -0.92872043D-02 -0.92361335D-02 -0.92285055D-02  0.19752729D-03 -0.32869149D-08
 -0.49905433D-08  0.49023774D-05  0.90439291D-05  0.14599706D-04  0.19004479D-04
  0.16216556D-04  0.55991872D-05 -0.18795929D-04 -0.86630267D-05  0.24292031D-04
 -0.90859134D-05 -0.69665021D-05 -0.34767728D-05 -0.27641397D-05 -0.21193670D-05
 -0.10577127D-05 -0.20601950D-09 -0.15796269D-09 -0.78834452D-10 -0.41213629D-04
 -0.22301357D-04 -0.22155536D-04  0.66134324D-09 -0.18435097D-04  0.19091965D-04
  0.23298947D-04 -0.33626856D-04  0.98259299D-08  0.31709051D-07  0.16890279D-05
  0.28649110D-05  0.32615999D-05 -0.27552500D-05  0.16914943D-05  0.28690944D-05
  0.32663626D-05 -0.27449190D-05  0.55513846D-05  0.94161990D-05  0.10720010D-04
  0.10378110D-04  0.90494753D-04  0.15349623D-03  0.17475003D-03 -0.18631812D-03
MO    2     MO 0.0        OCC NO =    1.0000000  ORB. ENERGY =  -19.126155
  0.12726052D-04  0.23477080D-04  0.37899287D-04  0.49333611D-04  0.42096459D-04
  0.14534896D-04 -0.52718021D-04 -0.24297688D-04  0.68133252D-04  0.52537994D-04
  0.40282802D-04  0.20103941D-04 -0.28167985D-04 -0.21597424D-04 -0.10778628D-04
  0.38086204D-08  0.29202085D-08  0.14573887D-08 -0.42176037D-03 -0.26287205D-03
  0.36157960D-04  0.81256133D-09  0.20086447D-04 -0.46197718D-04  0.54526155D-04
 -0.43152793D-04  0.69025265D-09  0.48866754D-08 -0.42206737D-05 -0.77863188D-05
 -0.12569533D-04 -0.16361797D-04 -0.13961551D-04 -0.48205881D-05  0.29297544D-04
  0.13503211D-04 -0.37864414D-04  0.12236911D-03  0.93824871D-04  0.46825186D-04
 -0.48189833D-04 -0.36948908D-04 -0.18440095D-04  0.15818493D-08  0.12128617D-08
  0.60530299D-09  0.65980204D-03  0.95005462D-04 -0.28515699D-03  0.83660070D-08
  0.45697668D-04  0.21692353D-04  0.85546376D-05  0.30429897D-05  0.13056997D-08
  0.98920346D-09  0.28674399D-04  0.52898667D-04  0.85394850D-04  0.11115872D-03
  0.94851938D-04  0.32750095D-04 -0.11648844D-03 -0.53689415D-04  0.15055072D-03
 -0.21147825D-04 -0.16214811D-04 -0.80923269D-05  0.69928450D-04  0.53616700D-04
  0.26758491D-04  0.64386425D-09  0.49367427D-09  0.24637806D-09 -0.65974536D-03
  0.51345438D-03  0.42502434D-03 -0.21445820D-07  0.25782721D-04  0.47630222D-04
  0.81136775D-04  0.13817925D-03 -0.95982294D-09  0.36260661D-08 -0.47495099D-04
 -0.87619184D-04 -0.14144453D-03 -0.18411875D-03 -0.15710886D-03 -0.54245915D-04
 -0.71167915D-04 -0.32801227D-04  0.91978064D-04  0.18699534D-03  0.14337616D-03
  0.71554755D-04 -0.30570260D-04 -0.23439336D-04 -0.11697871D-04 -0.36802408D-08
 -0.28217753D-08 -0.14082636D-08 -0.10031193D-03 -0.12226197D-02  0.26174375D-03
  0.90918024D-08 -0.97675697D-03 -0.17637605D-03 -0.21348882D-03  0.39853641D-03
  0.28438505D-07 -0.10327826D-07  0.15317617D-04  0.28258012D-04  0.45617194D-04
  0.59380032D-04  0.50669089D-04  0.17494819D-04 -0.94423717D-04 -0.43519805D-04
  0.12203408D-03 -0.88278983D-04 -0.67686725D-04 -0.33780420D-04 -0.27695916D-05
 -0.21235472D-05 -0.10597989D-05  0.36805773D-08  0.28220332D-08  0.14083924D-08
 -0.76613852D-03  0.21722057D-03 -0.45550571D-03  0.31376575D-08 -0.99180098D-04
 -0.35658465D-04  0.56331310D-04  0.93315267D-05  0.30208182D-08 -0.29437997D-08
 -0.41377179D-05 -0.76332815D-05 -0.12322483D-04 -0.16040212D-04 -0.13687142D-04
 -0.47258411D-05  0.28731562D-04  0.13242351D-04 -0.37132934D-04  0.13205408D-03
  0.10125069D-03  0.50531191D-04 -0.92915821D-05 -0.71241958D-05 -0.35554730D-05
  0.38540027D-09  0.29550048D-09  0.14747545D-09  0.59531816D-03  0.20518093D-03
  0.13155968D-03 -0.23591791D-08  0.50663128D-04  0.24824988D-04  0.83757463D-05
 -0.74896428D-04  0.24431133D-08 -0.22838732D-08  0.11507033D-04  0.19518106D-04
  0.22220673D-04  0.76482814D-04 -0.24574026D-04 -0.41682199D-04 -0.47453711D-04
 -0.17677969D-03  0.82552355D+00  0.15194040D+01  0.24586825D+01  0.32320070D+01
  0.27720736D+01  0.94781904D+00 -0.15673356D-01 -0.69934207D-02  0.20651665D-01
 -0.32725548D-02 -0.25213271D-02 -0.11069984D-02  0.76138690D-03  0.58660756D-03
  0.25755231D-03  0.32843824D-07  0.25304396D-07  0.11109993D-07  0.47538287D-02
 -0.67269032D-03  0.15139093D-03  0.13101182D-07 -0.90517194D-02 -0.96209925D-02
 -0.94782804D-02 -0.27429485D-03 -0.13387485D-07  0.13417713D-07  0.65158996D-05
  0.11052199D-04  0.12582538D-04  0.49143362D-04  0.99399311D-04  0.18294779D-03
  0.29604406D-03  0.38915821D-03  0.33377873D-03  0.11412462D-03 -0.22831108D-03
 -0.10187196D-03  0.30082926D-03  0.17385714D-05  0.13394755D-05  0.58810190D-06
 -0.17354381D-03 -0.13370615D-03 -0.58704202D-04 -0.41899880D-08 -0.32281598D-08
 -0.14173360D-08 -0.67833421D-03  0.13714765D-03  0.15239309D-03 -0.24137343D-08
  0.23461735D-03  0.26533539D-03  0.27672792D-03 -0.11221687D-03  0.20287788D-08
 -0.12173484D-08  0.34251034D-06  0.63186470D-06  0.10200255D-05  0.13277702D-05
  0.11329887D-05  0.39119377D-06 -0.49472197D-05 -0.22801690D-05  0.63938319D-05
 -0.33719517D-04 -0.25853987D-04 -0.12902952D-04  0.14013187D-04  0.10744423D-04
  0.53622202D-05 -0.52679905D-08 -0.40391610D-08 -0.20158244D-08 -0.11036014D-03
 -0.32528191D-04  0.64999435D-05  0.10054824D-07 -0.10925210D-04 -0.34495360D-05
 -0.31367638D-05  0.98215762D-05  0.32574097D-08 -0.35319512D-08  0.12445902D-05
  0.21110606D-05  0.24033679D-05  0.13704077D-05  0.12438255D-05  0.21097635D-05
  0.24018911D-05  0.13607261D-05  0.22657312D-05  0.38431090D-05  0.43752437D-05
  0.41055580D-05  0.51437473D-05  0.87247689D-05  0.99328410D-05 -0.33539428D-04
MO    3     MO 0.0        OCC NO =    1.0000000  ORB. ENERGY =  -10.268802
  0.25600449D-04  0.47227829D-04  0.76240360D-04  0.99242295D-04  0.84683631D-04
  0.29239223D-04 -0.81489970D-04 -0.37558653D-04  0.10531838D-03 -0.13556022D-03
 -0.10393897D-03 -0.51872833D-04 -0.50061381D-04 -0.38383892D-04 -0.19156252D-04
  0.65320283D-08  0.50083450D-08  0.24995152D-08 -0.12754096D-02 -0.50543952D-03
 -0.63365919D-04  0.10095742D-08  0.13981594D-04  0.42149957D-04  0.33078576D-04
  0.17705195D-04  0.11545045D-07 -0.79110527D-08  0.21749625D-02  0.40123812D-02
  0.64772273D-02  0.84314254D-02  0.71945506D-02  0.24841054D-02  0.27742163D-03
  0.12786338D-03 -0.35854226D-03 -0.35218152D-03 -0.27003045D-03 -0.13476412D-03
  0.22576174D-03  0.17309978D-03  0.86388922D-04  0.31718388D-08  0.24319648D-08
  0.12137209D-08  0.23921999D-02  0.44361020D-03 -0.10363006D-02  0.26074192D-07
 -0.46185466D-03 -0.24442931D-03 -0.38654213D-03 -0.13557895D-03  0.76672281D-08
 -0.80962073D-08  0.53250023D+00  0.98235895D+00  0.15858319D+01  0.20642820D+01
  0.17614556D+01  0.60818827D+00 -0.19973560D-01 -0.92057954D-02  0.25814011D-01
  0.77946724D-03  0.59764604D-03  0.29826726D-03  0.96039196D-03  0.73636764D-03
  0.36749906D-03 -0.39071196D-07 -0.29957315D-07 -0.14950800D-07 -0.35640201D-02
  0.11938522D-02  0.12105356D-02 -0.48197569D-07 -0.98678998D-02 -0.10049225D-01
 -0.10477715D-01  0.91239228D-03 -0.40216053D-07 -0.27248579D-07  0.45899423D-02
  0.84675472D-02  0.13669247D-01  0.17793298D-01  0.15183053D-01  0.52423434D-02
  0.14742346D-03  0.67947337D-04 -0.19053143D-03  0.91760266D-04  0.70355952D-04
  0.35112551D-04 -0.23938194D-03 -0.18354289D-03 -0.91600766D-04  0.58280721D-08
  0.44685960D-08  0.22301426D-08  0.17515654D-02 -0.10105913D-02  0.54464714D-03
 -0.98818280D-08 -0.36127614D-03 -0.67373915D-03 -0.45612087D-03 -0.12278493D-03
  0.82854671D-08  0.14583429D-07  0.18349250D-04  0.33850782D-04  0.54645659D-04
  0.71132411D-04  0.60697415D-04  0.20957359D-04 -0.26689692D-04 -0.12301254D-04
  0.34494001D-04 -0.10593753D-03 -0.81226177D-04 -0.40537555D-04 -0.17923844D-03
 -0.13742867D-03 -0.68586536D-04  0.74522923D-08  0.57139451D-08  0.28516591D-08
 -0.10680650D-02  0.24670784D-03 -0.42180179D-03  0.32440924D-08  0.30608451D-04
  0.40444618D-04 -0.15478196D-04  0.60772681D-04  0.43862125D-08 -0.11607346D-07
 -0.59997414D-04 -0.11068351D-03 -0.17867751D-03 -0.23258503D-03 -0.19846522D-03
 -0.68525273D-04  0.12887163D-03  0.59396816D-04 -0.16655487D-03 -0.58850072D-04
 -0.45122502D-04 -0.22519291D-04 -0.59855611D-04 -0.45893486D-04 -0.22904066D-04
 -0.20716783D-08 -0.15884315D-08 -0.79273865D-09  0.93703606D-03  0.40082972D-03
  0.26492974D-03 -0.35367423D-08  0.82330207D-05 -0.17194089D-04 -0.13877414D-03
 -0.63670396D-04  0.24847405D-08 -0.32934772D-08  0.32767716D-04  0.55580249D-04
  0.63276148D-04  0.33980770D-03 -0.21482149D-04 -0.36437790D-04 -0.41483136D-04
 -0.81920467D-04 -0.87008350D-04 -0.16014181D-03 -0.25913968D-03 -0.34064636D-03
 -0.29217041D-03 -0.99898024D-04  0.30102244D-03  0.13431563D-03 -0.39663584D-03
  0.15092618D-04  0.11628049D-04  0.51053396D-05  0.94218114D-04  0.72589978D-04
  0.31870910D-04 -0.15517600D-07 -0.11955474D-07 -0.52490971D-08  0.90289668D-03
 -0.16843376D-03 -0.59706229D-04  0.11817822D-07 -0.26160046D-03 -0.29698274D-03
 -0.33223254D-03  0.14812838D-04 -0.11137197D-07 -0.41879160D-08  0.17920868D-04
  0.30397184D-04  0.34606119D-04  0.13957326D-03  0.10343203D-03  0.19037014D-03
  0.30805483D-03  0.40494669D-03  0.34732043D-03  0.11875475D-03 -0.66162812D-03
 -0.29521718D-03  0.87178029D-03  0.85525983D-04  0.65893159D-04  0.28930646D-04
  0.21111197D-04  0.16265039D-04  0.71412284D-05 -0.51952187D-08 -0.40026359D-08
 -0.17573728D-08 -0.16374363D-02  0.56853602D-03  0.56360588D-03 -0.21252187D-07
  0.14144668D-03  0.82812661D-04  0.93372974D-03 -0.12661928D-02  0.53740680D-07
  0.59129270D-07 -0.26816787D-04 -0.49471736D-04 -0.79862721D-04 -0.10395753D-03
 -0.88707152D-04 -0.30628448D-04  0.64549895D-04  0.29750988D-04 -0.83424875D-04
 -0.23637297D-04 -0.18123580D-04 -0.90449368D-05  0.10482999D-04  0.80376984D-05
  0.40113748D-05 -0.79907882D-08 -0.61268296D-08 -0.30577174D-08  0.20754121D-04
  0.28623670D-04  0.36068446D-04  0.15076564D-07  0.21879927D-04 -0.64806991D-04
 -0.83148336D-04  0.56845327D-04 -0.19657031D-07 -0.59040626D-07 -0.51139052D-05
 -0.86741511D-05 -0.98752144D-05  0.10783454D-05 -0.51212513D-05 -0.86866115D-05
 -0.98894002D-05  0.10419813D-05 -0.10024941D-04 -0.17004197D-04 -0.19358677D-04
 -0.14606542D-04  0.39844015D-04  0.67582991D-04  0.76940847D-04 -0.58179188D-04
MO    4     MO 0.0        OCC NO =    1.0000000  ORB. ENERGY =  -10.250558
 -0.11808665D-03 -0.21784682D-03 -0.35167231D-03 -0.45777286D-03 -0.39061841D-03
 -0.13487115D-03  0.15342997D-03  0.70715735D-04 -0.19829430D-03 -0.13933955D-03
 -0.10683673D-03 -0.53319016D-04  0.43800952D-04  0.33583792D-04  0.16760666D-04
 -0.46916195D-08 -0.35972363D-08 -0.17952730D-08  0.12476525D-02  0.74070792D-03
 -0.12419871D-03 -0.49013068D-08 -0.40299796D-04  0.51332499D-04 -0.14283742D-03
  0.51688209D-04 -0.30091970D-08 -0.94063502D-08 -0.21757579D-05 -0.40138484D-05
 -0.64795959D-05 -0.84345085D-05 -0.71971814D-05 -0.24850138D-05 -0.91468740D-04
 -0.42157859D-04  0.11821504D-03 -0.15688821D-03 -0.12029193D-03 -0.60034105D-04
  0.83351477D-04  0.63908626D-04  0.31894883D-04 -0.33551246D-08 -0.25724967D-08
 -0.12838562D-08 -0.15963256D-02 -0.20283120D-03  0.76360672D-03 -0.20222577D-07
  0.86707173D-04 -0.80235532D-05  0.37184282D-04  0.14638297D-04 -0.28468288D-08
 -0.22577794D-08 -0.48656079D-02 -0.89760966D-02 -0.14490203D-01 -0.18861939D-01
 -0.16094927D-01 -0.55571914D-02  0.49122297D-03  0.22640422D-03 -0.63486106D-03
 -0.77794775D-04 -0.59648099D-04 -0.29768582D-04  0.28748064D-03  0.22042192D-03
  0.11000599D-03 -0.10974603D-07 -0.84146298D-08 -0.41994900D-08  0.24229466D-02
 -0.80663284D-03 -0.11455477D-02  0.44281310D-07 -0.36505570D-03 -0.55078838D-03
 -0.26885087D-03  0.24819333D-03 -0.12942101D-07  0.15602157D-07  0.53259318D+00
  0.98253042D+00  0.15861088D+01  0.20646423D+01  0.17617630D+01  0.60829444D+00
 -0.19887422D-01 -0.91660948D-02  0.25702687D-01  0.62038948D-03  0.47567531D-03
  0.23739532D-03 -0.13734688D-05 -0.10530888D-05 -0.52556512D-06 -0.29045107D-07
 -0.22269945D-07 -0.11114264D-07 -0.33348424D-02  0.21020505D-02 -0.56173775D-03
  0.59152951D-08 -0.90866484D-02 -0.10061287D-01 -0.10328884D-01 -0.46125329D-03
 -0.43727382D-07  0.46027658D-09  0.17410814D-02  0.32119553D-02  0.51850917D-02
  0.67494488D-02  0.57593169D-02  0.19885537D-02  0.23716163D-03  0.10930758D-03
 -0.30650986D-03 -0.77071886D-04 -0.59093834D-04 -0.29491965D-04 -0.30327210D-03
 -0.23252981D-03 -0.11604867D-03  0.15770380D-08  0.12091727D-08  0.60346194D-09
  0.25316401D-02 -0.33783140D-03  0.12001755D-02 -0.17838852D-07 -0.48877752D-03
 -0.31954386D-03 -0.36585323D-03 -0.36618460D-03  0.15034777D-08  0.28528145D-08
  0.44035988D-04  0.81237798D-04  0.13114300D-03  0.17070921D-03  0.14566648D-03
  0.50295135D-04 -0.11390479D-03 -0.52498612D-04  0.14721159D-03 -0.19827349D-03
 -0.15202354D-03 -0.75870400D-04  0.20078182D-06  0.15394676D-06  0.76830224D-07
 -0.13708524D-08 -0.10510827D-08 -0.52456393D-09 -0.16768059D-02 -0.60034730D-03
 -0.44450792D-03  0.11259993D-07  0.30031258D-04  0.15253022D-04  0.55297706D-04
  0.12623893D-04 -0.41860164D-09  0.49375138D-08 -0.31406989D-04 -0.53272198D-04
 -0.60648514D-04 -0.20501655D-03  0.48599289D-04  0.82433593D-04  0.93847732D-04
  0.35981457D-03  0.11747738D-03  0.21622109D-03  0.34988654D-03  0.45993565D-03
  0.39448414D-03  0.13488083D-03 -0.89246179D-03 -0.39821471D-03  0.11759334D-02
  0.74190127D-04  0.57159493D-04  0.25096096D-04 -0.77724474D-04 -0.59882517D-04
 -0.26291651D-04  0.34021192D-07  0.26211494D-07  0.11508258D-07 -0.26634144D-02
  0.93959381D-03 -0.18665159D-03 -0.29660998D-07  0.21363596D-03  0.10242036D-02
  0.11765193D-02  0.39562050D-03  0.45405109D-07 -0.47576259D-08 -0.22389239D-04
 -0.37976388D-04 -0.43234775D-04 -0.16837645D-03 -0.80767126D-04 -0.14865463D-03
 -0.24055125D-03 -0.31621135D-03 -0.27121263D-03 -0.92732206D-04  0.31457651D-03
  0.14036343D-03 -0.41449508D-03  0.92072747D-04  0.70937088D-04  0.31145202D-04
  0.81141048D-04  0.62514803D-04  0.27447366D-04  0.77827356D-08  0.59961782D-08
  0.26326452D-08  0.92211860D-03 -0.22167482D-03 -0.15145818D-03  0.30156665D-08
 -0.20727055D-03 -0.23889554D-03 -0.32093328D-03  0.11308999D-03 -0.47670891D-08
 -0.29796689D-08  0.49116307D-05  0.90609995D-05  0.14627263D-04  0.19040350D-04
  0.16247165D-04  0.56097557D-05  0.73709858D-05  0.33972806D-05 -0.95263295D-05
  0.87706272D-04  0.67247606D-04  0.33561269D-04 -0.41500214D-04 -0.31819732D-04
 -0.15880276D-04  0.12707452D-07  0.97432684D-08  0.48625738D-08  0.29299116D-03
  0.87812881D-04 -0.97137646D-05 -0.25970498D-07  0.24662651D-04  0.19919417D-04
  0.10606098D-04 -0.95667403D-05 -0.10305067D-07 -0.32752429D-08 -0.21238014D-05
 -0.36023691D-05 -0.41011699D-05 -0.10783066D-05 -0.21232514D-05 -0.36014362D-05
 -0.41001079D-05 -0.10561637D-05 -0.65722735D-05 -0.11147820D-04 -0.12691399D-04
 -0.12178333D-04 -0.18249604D-04 -0.30954783D-04 -0.35240926D-04  0.70779685D-04
MO    5     MO 0.0        OCC NO =    1.0000000  ORB. ENERGY =  -10.225652
  0.53241558D+00  0.98220278D+00  0.15855798D+01  0.20639538D+01  0.17611755D+01
  0.60809159D+00 -0.20056492D-01 -0.92440189D-02  0.25921194D-01  0.11703054D-03
  0.89731597D-04  0.44782356D-04  0.46402758D-04  0.35578692D-04  0.17756261D-04
  0.36249564D-07  0.27793866D-07  0.13871087D-07 -0.36804266D-02 -0.48292386D-03
 -0.49587971D-05  0.17000672D-07 -0.10474525D-01 -0.10356832D-01 -0.10435821D-01
  0.98452771D-04 -0.62954750D-07  0.90180009D-08  0.59954799D-02  0.11060490D-01
  0.17855060D-01  0.23241983D-01  0.19832426D-01  0.68476601D-02  0.35608595D-04
  0.16411969D-04 -0.46020874D-04  0.26304420D-03  0.20168560D-03  0.10065525D-03
  0.36095779D-03  0.27675954D-03  0.13812241D-03 -0.36352003D-08 -0.27872411D-08
 -0.13910286D-08  0.16582749D-02 -0.11061921D-03 -0.59674162D-03  0.12369911D-07
 -0.48708352D-03 -0.47215270D-03 -0.36313745D-03 -0.22918091D-03  0.10722170D-07
  0.10873870D-07 -0.13648634D-04 -0.25179064D-04 -0.40646817D-04 -0.52910078D-04
 -0.45148266D-04 -0.15588611D-04 -0.41923382D-04 -0.19322448D-04  0.54182162D-04
  0.68567431D-05  0.52573157D-05  0.26237690D-05 -0.11517214D-04 -0.88306693D-05
 -0.44071229D-05 -0.24886154D-08 -0.19081124D-08 -0.95228184D-09 -0.65543790D-03
  0.27419053D-03  0.19960631D-03 -0.57362119D-08  0.81506316D-04  0.31527344D-04
  0.41031161D-04 -0.16538448D-04 -0.13732293D-08  0.33164822D-08  0.55407148D-04
  0.10221537D-03  0.16500730D-03  0.21479048D-03  0.18328110D-03  0.63282560D-04
  0.88188832D-04  0.40646152D-04 -0.11397605D-03  0.30970411D-04  0.23746147D-04
  0.11850992D-04  0.34054014D-05  0.26110458D-05  0.13030949D-05 -0.84565128D-09
 -0.64839177D-09 -0.32359293D-09  0.49607889D-03 -0.34281717D-03  0.39179442D-04
 -0.12962669D-08 -0.39049651D-04 -0.29646134D-04 -0.96837421D-04  0.64745452D-05
  0.18213205D-08 -0.45181235D-08  0.44353189D-04  0.81822973D-04  0.13208765D-03
  0.17193887D-03  0.14671575D-03  0.50657423D-04 -0.36820981D-04 -0.16970757D-04
  0.47587773D-04  0.28535860D-04  0.21879488D-04  0.10919398D-04 -0.15856913D-04
 -0.12158075D-04 -0.60677316D-05  0.24720545D-10  0.18954146D-10  0.94594473D-11
 -0.67251027D-03  0.81550610D-04 -0.31015786D-03  0.59574849D-08  0.80559747D-04
  0.46441441D-04  0.31599545D-04 -0.51122328D-04 -0.70661812D-09 -0.28210762D-09
  0.45490892D-02  0.83921813D-02  0.13547583D-01  0.17634927D-01  0.15047915D-01
  0.51956836D-02  0.45518291D-04  0.20979339D-04 -0.58828255D-04  0.60275251D-04
  0.46215239D-04  0.23064643D-04 -0.40106264D-03 -0.30750939D-03 -0.15346874D-03
  0.10141394D-07  0.77757777D-08  0.38806580D-08  0.13882446D-02  0.18777203D-03
  0.50628810D-03 -0.13160794D-07 -0.36886836D-03 -0.56563149D-03 -0.30923944D-03
  0.20987868D-03 -0.46313496D-08  0.51247897D-08 -0.35335860D-05 -0.59936306D-05
 -0.68235366D-05  0.98334479D-04 -0.14290880D-04 -0.24240038D-04 -0.27596426D-04
 -0.68709480D-04 -0.25397377D-04 -0.46744732D-04 -0.75641800D-04 -0.99433263D-04
 -0.85283332D-04 -0.29159820D-04  0.84196442D-04  0.37568289D-04 -0.11093966D-03
 -0.27563692D-05 -0.21236339D-05 -0.93238967D-06  0.41414500D-05  0.31907640D-05
  0.14009172D-05 -0.54024444D-08 -0.41622922D-08 -0.18274705D-08  0.28240676D-03
 -0.42156109D-04  0.15673724D-04  0.36274258D-08 -0.94317919D-04 -0.90810855D-04
 -0.80397650D-04 -0.72072243D-05 -0.28711082D-08  0.16033777D-08  0.20149922D-05