 Entering Link 1 = D:\Gaussian\G16W\l1.exe PID=     41532.
  
 Copyright (c) 1988,1990,1992,1993,1995,1998,2003,2009,2016,
            Gaussian, Inc.  All Rights Reserved.
  
 This is part of the Gaussian(R) 16 program.  It is based on
 the Gaussian(R) 09 system (copyright 2009, Gaussian, Inc.),
 the Gaussian(R) 03 system (copyright 2003, Gaussian, Inc.),
 the Gaussian(R) 98 system (copyright 1998, Gaussian, Inc.),
 the Gaussian(R) 94 system (copyright 1995, Gaussian, Inc.),
 the Gaussian 92(TM) system (copyright 1992, Gaussian, Inc.),
 the Gaussian 90(TM) system (copyright 1990, Gaussian, Inc.),
 the Gaussian 88(TM) system (copyright 1988, Gaussian, Inc.),
 the Gaussian 86(TM) system (copyright 1986, Carnegie Mellon
 University), and the Gaussian 82(TM) system (copyright 1983,
 Carnegie Mellon University). Gaussian is a federally registered
 trademark of Gaussian, Inc.
  
 This software contains proprietary and confidential information,
 including trade secrets, belonging to Gaussian, Inc.
  
 This software is provided under written license and may be
 used, copied, transmitted, or stored only in accord with that
 written license.
  
 The following legend is applicable only to US Government
 contracts under FAR:
  
                    RESTRICTED RIGHTS LEGEND
  
 Use, reproduction and disclosure by the US Government is
 subject to restrictions as set forth in subparagraphs (a)
 and (c) of the Commercial Computer Software - Restricted
 Rights clause in FAR 52.227-19.
  
 Gaussian, Inc.
 340 Quinnipiac St., Bldg. 40, Wallingford CT 06492
  
  
 ---------------------------------------------------------------
 Warning -- This program may not be used in any manner that
 competes with the business of Gaussian, Inc. or will provide
 assistance to any competitor of Gaussian, Inc.  The licensee
 of this program is prohibited from giving any competitor of
 Gaussian, Inc. access to this program.  By using this program,
 the user acknowledges that Gaussian, Inc. is engaged in the
 business of creating and licensing software in the field of
 computational chemistry and represents and warrants to the
 licensee that it is not a competitor of Gaussian, Inc. and that
 it will not use this program in any manner prohibited above.
 ---------------------------------------------------------------
  

 Cite this work as:
 Gaussian 16, Revision A.03,
 M. J. Frisch, G. W. Trucks, H. B. Schlegel, G. E. Scuseria, 
 M. A. Robb, J. R. Cheeseman, G. Scalmani, V. Barone, 
 G. A. Petersson, H. Nakatsuji, X. Li, M. Caricato, A. V. Marenich, 
 J. Bloino, B. G. Janesko, R. Gomperts, B. Mennucci, H. P. Hratchian, 
 J. V. Ortiz, A. F. Izmaylov, J. L. Sonnenberg, D. Williams-Young, 
 F. Ding, F. Lipparini, F. Egidi, J. Goings, B. Peng, A. Petrone, 
 T. Henderson, D. Ranasinghe, V. G. Zakrzewski, J. Gao, N. Rega, 
 G. Zheng, W. Liang, M. Hada, M. Ehara, K. Toyota, R. Fukuda, 
 J. Hasegawa, M. Ishida, T. Nakajima, Y. Honda, O. Kitao, H. Nakai, 
 T. Vreven, K. Throssell, J. A. Montgomery, Jr., J. E. Peralta, 
 F. Ogliaro, M. J. Bearpark, J. J. Heyd, E. N. Brothers, K. N. Kudin, 
 V. N. Staroverov, T. A. Keith, R. Kobayashi, J. Normand, 
 K. Raghavachari, A. P. Rendell, J. C. Burant, S. S. Iyengar, 
 J. Tomasi, M. Cossi, J. M. Millam, M. Klene, C. Adamo, R. Cammi, 
 J. W. Ochterski, R. L. Martin, K. Morokuma, O. Farkas, 
 J. B. Foresman, and D. J. Fox, Gaussian, Inc., Wallingford CT, 2016.
 
 ******************************************
 Gaussian 16:  EM64W-G16RevA.03 17-Dec-2016
                01-Dec-2025 
 ******************************************
 %nprocshared=14
 Will use up to   14 processors via shared memory.
 %mem=80GB
 %chk=SR-2.chk
 ---------------------------------------------------------
 # ub3lyp/6-311g(d,p) geom=connectivity temperature=823.15
 ---------------------------------------------------------
 1/38=1,57=2,112=823150,172=1/1;
 2/12=2,17=6,18=5,40=1/2;
 3/5=4,6=6,7=101,11=2,25=1,30=1,74=-5,116=2/1,2,3;
 4//1;
 5/5=2,38=5/2;
 6/7=2,8=2,9=2,10=2,28=1/1;
 99/5=1,9=1/99;
 -------------------
 Title Card Required
 -------------------
 Symbolic Z-matrix:
 Charge =  0 Multiplicity = 2
 C                    -1.51955   0.05587   0. 
 C                    -0.55173   1.06529  -0.00003 
 C                     0.80376   0.76569  -0.00004 
 C                     1.27322  -0.62592   0. 
 C                     0.22827  -1.63103   0.00003 
 C                    -1.09901  -1.30151   0.00003 
 H                    -0.8669    2.1062   -0.00006 
 H                     0.56238  -2.66197   0.00004 
 O                     2.48447  -0.90684  -0.00001 
 H                    -1.85298  -2.08206   0.00004 
 O                     1.76843   1.7023   -0.00007 
 C                    -2.98626   0.38817   0.00008 
 H                    -3.48316  -0.03534  -0.8791 
 H                    -3.48281  -0.03429   0.87997 
 H                    -3.15811   1.46558  -0.00052 
 H                     1.36624   2.57892  -0.00007 
 
                          Input orientation:                          
 ---------------------------------------------------------------------
 Center     Atomic      Atomic             Coordinates (Angstroms)
 Number     Number       Type             X           Y           Z
 ---------------------------------------------------------------------
      1          6           0       -1.519548    0.055869    0.000003
      2          6           0       -0.551731    1.065288   -0.000034
      3          6           0        0.803755    0.765685   -0.000037
      4          6           0        1.273216   -0.625921    0.000004
      5          6           0        0.228265   -1.631034    0.000026
      6          6           0       -1.099009   -1.301508    0.000026
      7          1           0       -0.866903    2.106204   -0.000063
      8          1           0        0.562377   -2.661966    0.000037
      9          8           0        2.484465   -0.906843   -0.000011
     10          1           0       -1.852978   -2.082064    0.000042
     11          8           0        1.768432    1.702299   -0.000074
     12          6           0       -2.986255    0.388170    0.000077
     13          1           0       -3.483156   -0.035340   -0.879103
     14          1           0       -3.482810   -0.034288    0.879967
     15          1           0       -3.158107    1.465581   -0.000518
     16          1           0        1.366238    2.578921   -0.000073
 ---------------------------------------------------------------------
                    Distance matrix (angstroms):
                    1          2          3          4          5
     1  C    0.000000
     2  C    1.398426   0.000000
     3  C    2.429316   1.388202   0.000000
     4  C    2.874781   2.488096   1.468660   0.000000
     5  C    2.429093   2.806875   2.464843   1.449888   0.000000
     6  C    1.421030   2.429246   2.809590   2.466550   1.367569
     7  H    2.151701   1.087584   2.141983   3.470535   3.894399
     8  H    3.423600   3.890200   3.436140   2.156565   1.083721
     9  O    4.118123   3.620468   2.371104   1.243399   2.369576
    10  H    2.163778   3.405741   3.894599   3.448687   2.129554
    11  O    3.677165   2.406021   1.344562   2.380304   3.671951
    12  C    1.503879   2.526934   3.808765   4.378524   3.796093
    13  H    2.153347   3.252291   4.448821   4.872852   4.134459
    14  H    2.153338   3.251875   4.448483   4.872797   4.134728
    15  H    2.161519   2.636936   4.023208   4.900102   4.588741
    16  H    3.833217   2.443295   1.898476   3.206192   4.361044
                    6          7          8          9         10
     6  C    0.000000
     7  H    3.415607   0.000000
     8  H    2.147335   4.977779   0.000000
     9  O    3.605142   4.506675   2.602860   0.000000
    10  H    1.085236   4.302782   2.483994   4.493835   0.000000
    11  O    4.152719   2.666108   4.527845   2.705610   5.237940
    12  C    2.533122   2.728240   4.679329   5.621907   2.717788
    13  H    2.839050   3.493380   4.902896   6.094655   2.760336
    14  H    2.839481   3.492725   4.903316   6.094595   2.761160
    15  H    3.449154   2.379078   5.556856   6.121031   3.780099
    16  H    4.597301   2.282626   5.302178   3.660735   5.664639
                   11         12         13         14         15
    11  O    0.000000
    12  C    4.932949   0.000000
    13  H    5.601005   1.095093   0.000000
    14  H    5.600513   1.095100   1.759070   0.000000
    15  H    4.932223   1.091031   1.769275   1.769263   0.000000
    16  H    0.964482   4.872739   5.578860   5.578225   4.659316
                   16
    16  H    0.000000
 Stoichiometry    C7H7O2(2)
 Framework group  C1[X(C7H7O2)]
 Deg. of freedom    42
 Full point group                 C1      NOp   1
 Largest Abelian subgroup         C1      NOp   1
 Largest concise Abelian subgroup C1      NOp   1
                         Standard orientation:                         
 ---------------------------------------------------------------------
 Center     Atomic      Atomic             Coordinates (Angstroms)
 Number     Number       Type             X           Y           Z
 ---------------------------------------------------------------------
      1          6           0       -1.519548    0.055869    0.000003
      2          6           0       -0.551731    1.065288   -0.000034
      3          6           0        0.803755    0.765685   -0.000037
      4          6           0        1.273216   -0.625921    0.000004
      5          6           0        0.228265   -1.631034    0.000026
      6          6           0       -1.099009   -1.301508    0.000026
      7          1           0       -0.866903    2.106204   -0.000063
      8          1           0        0.562377   -2.661966    0.000037
      9          8           0        2.484465   -0.906843   -0.000011
     10          1           0       -1.852978   -2.082064    0.000042
     11          8           0        1.768432    1.702299   -0.000074
     12          6           0       -2.986255    0.388170    0.000077
     13          1           0       -3.483156   -0.035340   -0.879103
     14          1           0       -3.482810   -0.034288    0.879967
     15          1           0       -3.158107    1.465581   -0.000518
     16          1           0        1.366238    2.578921   -0.000073
 ---------------------------------------------------------------------
 Rotational constants (GHZ):           3.0564221           1.3622738           0.9477990
 Standard basis: 6-311G(d,p) (5D, 7F)
 There are   213 symmetry adapted cartesian basis functions of A   symmetry.
 There are   204 symmetry adapted basis functions of A   symmetry.
   204 basis functions,   344 primitive gaussians,   213 cartesian basis functions
    33 alpha electrons       32 beta electrons
       nuclear repulsion energy       415.6655617141 Hartrees.
 NAtoms=   16 NActive=   16 NUniq=   16 SFac= 1.00D+00 NAtFMM=   60 NAOKFM=F Big=F
 Integral buffers will be    131072 words long.
 Raffenetti 2 integral format.
 Two-electron integral symmetry is turned on.
 One-electron integrals computed using PRISM.
 NBasis=   204 RedAO= T EigKep=  2.28D-04  NBF=   204
 NBsUse=   204 1.00D-06 EigRej= -1.00D+00 NBFU=   204
 ExpMin= 1.03D-01 ExpMax= 8.59D+03 ExpMxC= 1.30D+03 IAcc=3 IRadAn=         5 AccDes= 0.00D+00
 Harris functional with IExCor=  402 and IRadAn=       5 diagonalized for initial guess.
 HarFok:  IExCor=  402 AccDes= 0.00D+00 IRadAn=         5 IDoV= 1 UseB2=F ITyADJ=14
 ICtDFT=  3500011 ScaDFX=  1.000000  1.000000  1.000000  1.000000
 FoFCou: FMM=F IPFlag=           0 FMFlag=      100000 FMFlg1=           0
         NFxFlg=           0 DoJE=T BraDBF=F KetDBF=T FulRan=T
         wScrn=  0.000000 ICntrl=       500 IOpCl=  0 I1Cent=   200000004 NGrid=           0
         NMat0=    1 NMatS0=      1 NMatT0=    0 NMatD0=    1 NMtDS0=    0 NMtDT0=    0
 Petite list used in FoFCou.
 Initial guess <Sx>= 0.0000 <Sy>= 0.0000 <Sz>= 0.5000 <S**2>= 0.7500 S= 0.5000
 Requested convergence on RMS density matrix=1.00D-08 within 128 cycles.
 Requested convergence on MAX density matrix=1.00D-06.
 Requested convergence on             energy=1.00D-06.
 No special actions if energy rises.
 Integral accuracy reduced to 1.0D-05 until final iterations.
 Initial convergence to 1.0D-05 achieved.  Increase integral accuracy.
 SCF Done:  E(UB3LYP) =  -421.481366151     A.U. after   20 cycles
            NFock= 20  Conv=0.52D-08     -V/T= 2.0036
 <Sx>= 0.0000 <Sy>= 0.0000 <Sz>= 0.5000 <S**2>= 0.7769 S= 0.5133
 <L.S>= 0.000000000000E+00
 Annihilation of the first spin contaminant:
 S**2 before annihilation     0.7769,   after     0.7505

 **********************************************************************

            Population analysis using the SCF density.

 **********************************************************************

 Orbital symmetries:
 Alpha Orbitals:
       Occupied  (A) (A) (A) (A) (A) (A) (A) (A) (A) (A) (A) (A)
                 (A) (A) (A) (A) (A) (A) (A) (A) (A) (A) (A) (A)
                 (A) (A) (A) (A) (A) (A) (A) (A) (A)
       Virtual   (A) (A) (A) (A) (A) (A) (A) (A) (A) (A) (A) (A)
                 (A) (A) (A) (A) (A) (A) (A) (A) (A) (A) (A) (A)
                 (A) (A) (A) (A) (A) (A) (A) (A) (A) (A) (A) (A)
                 (A) (A) (A) (A) (A) (A) (A) (A) (A) (A) (A) (A)
                 (A) (A) (A) (A) (A) (A) (A) (A) (A) (A) (A) (A)
                 (A) (A) (A) (A) (A) (A) (A) (A) (A) (A) (A) (A)
                 (A) (A) (A) (A) (A) (A) (A) (A) (A) (A) (A) (A)
                 (A) (A) (A) (A) (A) (A) (A) (A) (A) (A) (A) (A)
                 (A) (A) (A) (A) (A) (A) (A) (A) (A) (A) (A) (A)
                 (A) (A) (A) (A) (A) (A) (A) (A) (A) (A) (A) (A)
                 (A) (A) (A) (A) (A) (A) (A) (A) (A) (A) (A) (A)
                 (A) (A) (A) (A) (A) (A) (A) (A) (A) (A) (A) (A)
                 (A) (A) (A) (A) (A) (A) (A) (A) (A) (A) (A) (A)
                 (A) (A) (A) (A) (A) (A) (A) (A) (A) (A) (A) (A)
                 (A) (A) (A)
 Beta  Orbitals:
       Occupied  (A) (A) (A) (A) (A) (A) (A) (A) (A) (A) (A) (A)
                 (A) (A) (A) (A) (A) (A) (A) (A) (A) (A) (A) (A)
                 (A) (A) (A) (A) (A) (A) (A) (A)
       Virtual   (A) (A) (A) (A) (A) (A) (A) (A) (A) (A) (A) (A)
                 (A) (A) (A) (A) (A) (A) (A) (A) (A) (A) (A) (A)
                 (A) (A) (A) (A) (A) (A) (A) (A) (A) (A) (A) (A)
                 (A) (A) (A) (A) (A) (A) (A) (A) (A) (A) (A) (A)
                 (A) (A) (A) (A) (A) (A) (A) (A) (A) (A) (A) (A)
                 (A) (A) (A) (A) (A) (A) (A) (A) (A) (A) (A) (A)
                 (A) (A) (A) (A) (A) (A) (A) (A) (A) (A) (A) (A)
                 (A) (A) (A) (A) (A) (A) (A) (A) (A) (A) (A) (A)
                 (A) (A) (A) (A) (A) (A) (A) (A) (A) (A) (A) (A)
                 (A) (A) (A) (A) (A) (A) (A) (A) (A) (A) (A) (A)
                 (A) (A) (A) (A) (A) (A) (A) (A) (A) (A) (A) (A)
                 (A) (A) (A) (A) (A) (A) (A) (A) (A) (A) (A) (A)
                 (A) (A) (A) (A) (A) (A) (A) (A) (A) (A) (A) (A)
                 (A) (A) (A) (A) (A) (A) (A) (A) (A) (A) (A) (A)
                 (A) (A) (A) (A)
 The electronic state is 2-A.
 Alpha  occ. eigenvalues --  -19.17548 -19.09881 -10.25866 -10.23942 -10.21455
 Alpha  occ. eigenvalues --  -10.18979 -10.18749 -10.18691 -10.18566  -1.09619
 Alpha  occ. eigenvalues --   -1.02483  -0.87006  -0.77690  -0.76404  -0.69124
 Alpha  occ. eigenvalues --   -0.64614  -0.59759  -0.56119  -0.50453  -0.49017
 Alpha  occ. eigenvalues --   -0.45609  -0.45251  -0.43706  -0.42759  -0.42316
 Alpha  occ. eigenvalues --   -0.41054  -0.38636  -0.37825  -0.36854  -0.33816
 Alpha  occ. eigenvalues --   -0.26498  -0.25566  -0.20893
 Alpha virt. eigenvalues --   -0.01907  -0.00751   0.01773   0.03773   0.06591
 Alpha virt. eigenvalues --    0.07164   0.10161   0.11710   0.12855   0.15379
 Alpha virt. eigenvalues --    0.18287   0.20262   0.24025   0.26336   0.27220
 Alpha virt. eigenvalues --    0.28086   0.28530   0.33370   0.33947   0.35239
 Alpha virt. eigenvalues --    0.37636   0.37836   0.39253   0.40338   0.42477
 Alpha virt. eigenvalues --    0.43321   0.44540   0.47168   0.47787   0.49677
 Alpha virt. eigenvalues --    0.50884   0.50996   0.53277   0.53498   0.56617
 Alpha virt. eigenvalues --    0.56919   0.57870   0.59241   0.61742   0.62199
 Alpha virt. eigenvalues --    0.62616   0.64945   0.66815   0.73406   0.74383
 Alpha virt. eigenvalues --    0.75746   0.77274   0.79953   0.80769   0.83217
 Alpha virt. eigenvalues --    0.85024   0.88602   0.90475   0.91049   0.92468
 Alpha virt. eigenvalues --    0.93775   0.97373   0.97811   1.02036   1.05851
 Alpha virt. eigenvalues --    1.06733   1.08780   1.09722   1.15842   1.20117
 Alpha virt. eigenvalues --    1.22306   1.31210   1.32700   1.35727   1.37839
 Alpha virt. eigenvalues --    1.39756   1.43398   1.44163   1.45073   1.47784
 Alpha virt. eigenvalues --    1.51218   1.52192   1.53877   1.55740   1.55978
 Alpha virt. eigenvalues --    1.57947   1.58093   1.62430   1.63404   1.64850
 Alpha virt. eigenvalues --    1.69292   1.71099   1.74499   1.75007   1.79484
 Alpha virt. eigenvalues --    1.82363   1.84422   1.87346   1.88128   1.89927
 Alpha virt. eigenvalues --    1.91096   1.93417   1.96667   1.97402   2.02810
 Alpha virt. eigenvalues --    2.07952   2.10624   2.11494   2.14003   2.22912
 Alpha virt. eigenvalues --    2.22965   2.29697   2.32499   2.33107   2.34460
 Alpha virt. eigenvalues --    2.41327   2.42349   2.47540   2.49249   2.51361
 Alpha virt. eigenvalues --    2.51766   2.53581   2.58155   2.60471   2.61246
 Alpha virt. eigenvalues --    2.64354   2.64915   2.65264   2.69968   2.80601
 Alpha virt. eigenvalues --    2.81207   2.83081   2.83545   2.89842   2.91665
 Alpha virt. eigenvalues --    2.92794   2.96654   3.01387   3.06053   3.06863
 Alpha virt. eigenvalues --    3.12557   3.15156   3.17130   3.26861   3.31526
 Alpha virt. eigenvalues --    3.37109   3.39422   3.47195   3.50631   3.57242
 Alpha virt. eigenvalues --    3.58176   3.64686   3.76238   3.80012   3.82064
 Alpha virt. eigenvalues --    3.95991   4.01398   4.06344   4.08959   4.29737
 Alpha virt. eigenvalues --    4.76800   4.77116   4.89150   5.03097   5.31545
 Alpha virt. eigenvalues --    5.60242   5.73081  23.47850  23.80386  23.87276
 Alpha virt. eigenvalues --   23.89193  23.94260  24.08531  24.16248  49.87401
 Alpha virt. eigenvalues --   49.98279
  Beta  occ. eigenvalues --  -19.17301 -19.08857 -10.25459 -10.24045 -10.20962
  Beta  occ. eigenvalues --  -10.19167 -10.18796 -10.18773 -10.18281  -1.09076
  Beta  occ. eigenvalues --   -1.00713  -0.86365  -0.77003  -0.76040  -0.68654
  Beta  occ. eigenvalues --   -0.64242  -0.59346  -0.55767  -0.50160  -0.48761
  Beta  occ. eigenvalues --   -0.45053  -0.44302  -0.42561  -0.42389  -0.41680
  Beta  occ. eigenvalues --   -0.40737  -0.37622  -0.36541  -0.36035  -0.31389
  Beta  occ. eigenvalues --   -0.25570  -0.24571
  Beta virt. eigenvalues --   -0.12444  -0.00240   0.01625   0.01813   0.03800
  Beta virt. eigenvalues --    0.06616   0.07264   0.10654   0.11790   0.12883
  Beta virt. eigenvalues --    0.16793   0.18719   0.20732   0.24319   0.26571
  Beta virt. eigenvalues --    0.27292   0.28310   0.28753   0.33473   0.34251
  Beta virt. eigenvalues --    0.35384   0.38125   0.38202   0.39407   0.40619
  Beta virt. eigenvalues --    0.43070   0.43581   0.44671   0.47410   0.48093
  Beta virt. eigenvalues --    0.49887   0.51130   0.51622   0.53478   0.54489
  Beta virt. eigenvalues --    0.56931   0.57082   0.58068   0.59272   0.61914
  Beta virt. eigenvalues --    0.62632   0.62701   0.65193   0.67149   0.73623
  Beta virt. eigenvalues --    0.74744   0.76068   0.77480   0.81047   0.81143
  Beta virt. eigenvalues --    0.83498   0.85125   0.88855   0.90624   0.92538
  Beta virt. eigenvalues --    0.92696   0.95083   0.98064   0.98193   1.02401
  Beta virt. eigenvalues --    1.06270   1.06875   1.09165   1.10021   1.16777
  Beta virt. eigenvalues --    1.20795   1.22596   1.31329   1.33176   1.36042
  Beta virt. eigenvalues --    1.38102   1.39897   1.43583   1.44553   1.45258
  Beta virt. eigenvalues --    1.48014   1.51415   1.52564   1.54373   1.56063
  Beta virt. eigenvalues --    1.56086   1.58421   1.58537   1.62725   1.63789
  Beta virt. eigenvalues --    1.65525   1.69660   1.71290   1.74740   1.75351
  Beta virt. eigenvalues --    1.79666   1.83016   1.85020   1.87698   1.88406
  Beta virt. eigenvalues --    1.90510   1.91243   1.93651   1.96861   1.97566
  Beta virt. eigenvalues --    2.03184   2.08273   2.11104   2.11828   2.14287
  Beta virt. eigenvalues --    2.23058   2.23521   2.29919   2.32638   2.33605
  Beta virt. eigenvalues --    2.34550   2.41445   2.42624   2.47689   2.50187
  Beta virt. eigenvalues --    2.51706   2.51895   2.53758   2.58382   2.60605
  Beta virt. eigenvalues --    2.61327   2.64467   2.65040   2.66535   2.70146
  Beta virt. eigenvalues --    2.80997   2.81374   2.83311   2.85068   2.89996
  Beta virt. eigenvalues --    2.94439   2.95102   2.97140   3.02372   3.06289
  Beta virt. eigenvalues --    3.07596   3.13046   3.16187   3.17358   3.27105
  Beta virt. eigenvalues --    3.34023   3.37387   3.40069   3.47381   3.50951
  Beta virt. eigenvalues --    3.57400   3.58418   3.65396   3.76423   3.80089
  Beta virt. eigenvalues --    3.82408   3.96199   4.01757   4.06610   4.09349
  Beta virt. eigenvalues --    4.30214   4.77677   4.78253   4.93185   5.03917
  Beta virt. eigenvalues --    5.31877   5.60790   5.73530  23.48066  23.80605
  Beta virt. eigenvalues --   23.87463  23.89200  23.94463  24.08543  24.16334
  Beta virt. eigenvalues --   49.87703  49.99253
          Condensed to atoms (all electrons):
               1          2          3          4          5          6
     1  C    5.109018   0.429723   0.006374  -0.034593  -0.040015   0.461627
     2  C    0.429723   5.154199   0.330728  -0.020764  -0.019093  -0.071274
     3  C    0.006374   0.330728   5.321551   0.149601  -0.115397  -0.028186
     4  C   -0.034593  -0.020764   0.149601   4.790791   0.395948  -0.024351
     5  C   -0.040015  -0.019093  -0.115397   0.395948   5.172474   0.428443
     6  C    0.461627  -0.071274  -0.028186  -0.024351   0.428443   4.960279
     7  H   -0.014097   0.389238  -0.040850   0.003939  -0.001009   0.007781
     8  H    0.009712  -0.003101   0.017438  -0.044295   0.396159  -0.040858
     9  O   -0.001269   0.007537  -0.113437   0.656890  -0.088735   0.008445
    10  H   -0.055374   0.010148  -0.003111   0.007797  -0.028907   0.415173
    11  O    0.005578  -0.070615   0.388843  -0.062435   0.002378   0.000311
    12  C    0.347141  -0.045833   0.005994  -0.000824   0.006420  -0.058983
    13  H   -0.036680   0.000884  -0.000270   0.000028   0.000274  -0.004305
    14  H   -0.036675   0.000872  -0.000270   0.000028   0.000273  -0.004299
    15  H   -0.034968  -0.007566   0.000745  -0.000050  -0.000307   0.006552
    16  H    0.001307  -0.008934  -0.045337   0.007991  -0.000680   0.000025
               7          8          9         10         11         12
     1  C   -0.014097   0.009712  -0.001269  -0.055374   0.005578   0.347141
     2  C    0.389238  -0.003101   0.007537   0.010148  -0.070615  -0.045833
     3  C   -0.040850   0.017438  -0.113437  -0.003111   0.388843   0.005994
     4  C    0.003939  -0.044295   0.656890   0.007797  -0.062435  -0.000824
     5  C   -0.001009   0.396159  -0.088735  -0.028907   0.002378   0.006420
     6  C    0.007781  -0.040858   0.008445   0.415173   0.000311  -0.058983
     7  H    0.572080   0.000080  -0.000134  -0.000410  -0.002919  -0.010781
     8  H    0.000080   0.553918   0.009172  -0.010818  -0.000112  -0.000242
     9  O   -0.000134   0.009172   7.824240  -0.000203   0.002914  -0.000003
    10  H   -0.000410  -0.010818  -0.000203   0.575525   0.000009  -0.005024
    11  O   -0.002919  -0.000112   0.002914   0.000009   7.713092  -0.000113
    12  C   -0.010781  -0.000242  -0.000003  -0.005024  -0.000113   4.807847
    13  H    0.000150  -0.000002   0.000000   0.001095   0.000003   0.401297
    14  H    0.000150  -0.000002   0.000000   0.001092   0.000003   0.401276
    15  H    0.004107   0.000020   0.000000  -0.000070  -0.000019   0.408548
    16  H    0.006688   0.000059  -0.000927  -0.000014   0.319840  -0.000030
              13         14         15         16
     1  C   -0.036680  -0.036675  -0.034968   0.001307
     2  C    0.000884   0.000872  -0.007566  -0.008934
     3  C   -0.000270  -0.000270   0.000745  -0.045337
     4  C    0.000028   0.000028  -0.000050   0.007991
     5  C    0.000274   0.000273  -0.000307  -0.000680
     6  C   -0.004305  -0.004299   0.006552   0.000025
     7  H    0.000150   0.000150   0.004107   0.006688
     8  H   -0.000002  -0.000002   0.000020   0.000059
     9  O    0.000000   0.000000   0.000000  -0.000927
    10  H    0.001095   0.001092  -0.000070  -0.000014
    11  O    0.000003   0.000003  -0.000019   0.319840
    12  C    0.401297   0.401276   0.408548  -0.000030
    13  H    0.560702  -0.029503  -0.025871   0.000000
    14  H   -0.029503   0.560707  -0.025869   0.000000
    15  H   -0.025871  -0.025869   0.564986   0.000012
    16  H    0.000000   0.000000   0.000012   0.470500
          Atomic-Atomic Spin Densities.
               1          2          3          4          5          6
     1  C    0.387192  -0.007768  -0.018327  -0.003071  -0.015708   0.030681
     2  C   -0.007768  -0.162123   0.014910   0.000982   0.000930   0.000777
     3  C   -0.018327   0.014910   0.306038   0.036617   0.006724  -0.002333
     4  C   -0.003071   0.000982   0.036617  -0.072158   0.030135  -0.000225
     5  C   -0.015708   0.000930   0.006724   0.030135   0.242625  -0.028453
     6  C    0.030681   0.000777  -0.002333  -0.000225  -0.028453  -0.095755
     7  H   -0.000005  -0.000082  -0.000154   0.000142  -0.000023  -0.000009
     8  H   -0.000256   0.000015  -0.000525   0.000081   0.002880   0.000493
     9  O    0.000219  -0.000231  -0.011748  -0.044640  -0.010270   0.000199
    10  H   -0.000050  -0.000027   0.000050  -0.000028  -0.000564   0.000647
    11  O    0.000438   0.001002  -0.055385  -0.001777  -0.000280   0.000015
    12  C   -0.013499   0.000914  -0.000109  -0.000025   0.000128   0.000659
    13  H   -0.008262   0.000157   0.000098   0.000016   0.000195  -0.000813
    14  H   -0.008271   0.000158   0.000098   0.000016   0.000195  -0.000814
    15  H   -0.000677   0.000289   0.000021   0.000004  -0.000006  -0.000060
    16  H    0.000013   0.000362  -0.000538  -0.000073  -0.000025   0.000011
               7          8          9         10         11         12
     1  C   -0.000005  -0.000256   0.000219  -0.000050   0.000438  -0.013499
     2  C   -0.000082   0.000015  -0.000231  -0.000027   0.001002   0.000914
     3  C   -0.000154  -0.000525  -0.011748   0.000050  -0.055385  -0.000109
     4  C    0.000142   0.000081  -0.044640  -0.000028  -0.001777  -0.000025
     5  C   -0.000023   0.002880  -0.010270  -0.000564  -0.000280   0.000128
     6  C   -0.000009   0.000493   0.000199   0.000647   0.000015   0.000659
     7  H    0.006319  -0.000004   0.000003   0.000003  -0.000063   0.000141
     8  H   -0.000004  -0.015833  -0.000338   0.000344   0.000002   0.000002
     9  O    0.000003  -0.000338   0.445565   0.000006   0.002056   0.000000
    10  H    0.000003   0.000344   0.000006   0.002950   0.000000   0.000146
    11  O   -0.000063   0.000002   0.002056   0.000000   0.125542   0.000001
    12  C    0.000141   0.000002   0.000000   0.000146   0.000001  -0.025994
    13  H   -0.000006   0.000001   0.000000  -0.000052  -0.000001   0.004956
    14  H   -0.000006   0.000001   0.000000  -0.000052  -0.000001   0.004955
    15  H   -0.000055  -0.000001   0.000000   0.000003   0.000000   0.001124
    16  H   -0.000053  -0.000002   0.000018   0.000000   0.000530  -0.000002
              13         14         15         16
     1  C   -0.008262  -0.008271  -0.000677   0.000013
     2  C    0.000157   0.000158   0.000289   0.000362
     3  C    0.000098   0.000098   0.000021  -0.000538
     4  C    0.000016   0.000016   0.000004  -0.000073
     5  C    0.000195   0.000195  -0.000006  -0.000025
     6  C   -0.000813  -0.000814  -0.000060   0.000011
     7  H   -0.000006  -0.000006  -0.000055  -0.000053
     8  H    0.000001   0.000001  -0.000001  -0.000002
     9  O    0.000000   0.000000   0.000000   0.000018
    10  H   -0.000052  -0.000052   0.000003   0.000000
    11  O   -0.000001  -0.000001   0.000000   0.000530
    12  C    0.004956   0.004955   0.001124  -0.000002
    13  H    0.026043  -0.006508  -0.000174   0.000000
    14  H   -0.006508   0.026090  -0.000185   0.000000
    15  H   -0.000174  -0.000185   0.000163   0.000000
    16  H    0.000000   0.000000   0.000000  -0.002553
 Mulliken charges and spin densities:
               1          2
     1  C   -0.116807   0.342649
     2  C   -0.076150  -0.149736
     3  C    0.125584   0.275435
     4  C    0.174297  -0.054003
     5  C   -0.108227   0.228480
     6  C   -0.056380  -0.094981
     7  H    0.085987   0.006147
     8  H    0.112871  -0.013141
     9  O   -0.304488   0.380838
    10  H    0.093094   0.003377
    11  O   -0.296758   0.072080
    12  C   -0.256689  -0.026603
    13  H    0.132196   0.015649
    14  H    0.132216   0.015674
    15  H    0.109751   0.000446
    16  H    0.249501  -0.002312
 Sum of Mulliken charges =   0.00000   1.00000
 Mulliken charges and spin densities with hydrogens summed into heavy atoms:
               1          2
     1  C   -0.116807   0.342649
     2  C    0.009837  -0.143589
     3  C    0.125584   0.275435
     4  C    0.174297  -0.054003
     5  C    0.004645   0.215339
     6  C    0.036715  -0.091604
     9  O   -0.304488   0.380838
    11  O   -0.047258   0.069768
    12  C    0.117475   0.005166
 Electronic spatial extent (au):  <R**2>=           1191.2715
 Charge=              0.0000 electrons
 Dipole moment (field-independent basis, Debye):
    X=             -4.7997    Y=              2.3454    Z=              0.0001  Tot=              5.3421
 Quadrupole moment (field-independent basis, Debye-Ang):
   XX=            -59.6736   YY=            -42.6705   ZZ=            -53.9781
   XY=              3.8224   XZ=             -0.0003   YZ=             -0.0002
 Traceless Quadrupole moment (field-independent basis, Debye-Ang):
   XX=             -7.5662   YY=              9.4369   ZZ=             -1.8707
   XY=              3.8224   XZ=             -0.0003   YZ=             -0.0002
 Octapole moment (field-independent basis, Debye-Ang**2):
  XXX=            -31.8196  YYY=             25.0342  ZZZ=              0.0011  XYY=              5.9631
  XXY=              7.9307  XXZ=              0.0011  XZZ=              6.5338  YZZ=              2.1309
  YYZ=             -0.0015  XYZ=             -0.0003
 Hexadecapole moment (field-independent basis, Debye-Ang**3):
 XXXX=          -1060.7033 YYYY=           -374.9583 ZZZZ=            -62.1041 XXXY=             27.8813
 XXXZ=              0.0091 YYYX=             32.6651 YYYZ=              0.0004 ZZZX=              0.0043
 ZZZY=              0.0051 XXYY=           -245.2797 XXZZ=           -173.1147 YYZZ=            -95.5603
 XXYZ=              0.0035 YYXZ=              0.0060 ZZXY=              2.6210
 N-N= 4.156655617141D+02 E-N=-1.815867870126D+03  KE= 4.199514160081D+02
                          Isotropic Fermi Contact Couplings
        Atom                 a.u.       MegaHertz       Gauss      10(-4) cm-1
     1  C(13)              0.02328      26.17635       9.34037       8.73149
     2  C(13)             -0.02161     -24.29650      -8.66960      -8.10444
     3  C(13)              0.01526      17.15248       6.12043       5.72145
     4  C(13)             -0.02681     -30.14510     -10.75652     -10.05532
     5  C(13)              0.00964      10.84066       3.86822       3.61605
     6  C(13)             -0.01641     -18.44237      -6.58070      -6.15171
     7  H(1)               0.00144       6.45181       2.30217       2.15209
     8  H(1)              -0.00319     -14.27113      -5.09229      -4.76034
     9  O(17)              0.02855     -17.30723      -6.17565      -5.77307
    10  H(1)               0.00081       3.63868       1.29837       1.21373
    11  O(17)              0.01081      -6.55501      -2.33899      -2.18652
    12  C(13)             -0.01074     -12.06945      -4.30668      -4.02594
    13  H(1)               0.00836      37.38552      13.34008      12.47047
    14  H(1)               0.00838      37.43867      13.35905      12.48820
    15  H(1)               0.00015       0.69115       0.24662       0.23054
    16  H(1)              -0.00132      -5.88882      -2.10128      -1.96430
 --------------------------------------------------------
       Center         ----  Spin Dipole Couplings  ----
                      3XX-RR        3YY-RR        3ZZ-RR
 --------------------------------------------------------
     1   Atom       -0.191466     -0.201326      0.392792
     2   Atom        0.071955      0.058858     -0.130813
     3   Atom       -0.169480     -0.164086      0.333565
     4   Atom        0.043131      0.001967     -0.045098
     5   Atom       -0.121875     -0.114929      0.236804
     6   Atom        0.036033      0.033673     -0.069706
     7   Atom        0.007231     -0.001566     -0.005665
     8   Atom       -0.012812      0.017062     -0.004250
     9   Atom       -0.790356     -0.786848      1.577205
    10   Atom       -0.000218      0.005180     -0.004962
    11   Atom       -0.212769     -0.194890      0.407660
    12   Atom        0.001701     -0.007882      0.006180
    13   Atom        0.005289     -0.003149     -0.002140
    14   Atom        0.005286     -0.003151     -0.002135
    15   Atom        0.001747      0.000828     -0.002575
    16   Atom       -0.010314      0.018187     -0.007873
 --------------------------------------------------------
                        XY            XZ            YZ
 --------------------------------------------------------
     1   Atom       -0.003427      0.000021      0.000011
     2   Atom        0.002419     -0.000003     -0.000006
     3   Atom        0.000659      0.000003      0.000017
     4   Atom       -0.010929     -0.000003      0.000000
     5   Atom        0.001420      0.000000      0.000004
     6   Atom       -0.004925      0.000000      0.000001
     7   Atom        0.001784      0.000000      0.000000
     8   Atom       -0.004236      0.000000     -0.000001
     9   Atom       -0.000818      0.000040      0.000061
    10   Atom       -0.000879      0.000000      0.000000
    11   Atom       -0.004116      0.000004      0.000009
    12   Atom       -0.003346      0.000000      0.000002
    13   Atom        0.000079      0.003048      0.000909
    14   Atom        0.000074     -0.003051     -0.000909
    15   Atom       -0.004293      0.000001      0.000000
    16   Atom       -0.009381      0.000000      0.000000
 --------------------------------------------------------


 ---------------------------------------------------------------------------------
              Anisotropic Spin Dipole Couplings in Principal Axis System
 ---------------------------------------------------------------------------------

       Atom             a.u.   MegaHertz   Gauss  10(-4) cm-1        Axes

              Baa    -0.2024   -27.160    -9.691    -9.060  0.2991  0.9542  0.0000
     1 C(13)  Bbb    -0.1904   -25.549    -9.116    -8.522  0.9542 -0.2991  0.0000
              Bcc     0.3928    52.709    18.808    17.582  0.0000  0.0000  1.0000
 
              Baa    -0.1308   -17.554    -6.264    -5.855  0.0000  0.0000  1.0000
     2 C(13)  Bbb     0.0584     7.840     2.798     2.615 -0.1760  0.9844  0.0000
              Bcc     0.0724     9.714     3.466     3.240  0.9844  0.1760  0.0000
 
              Baa    -0.1696   -22.753    -8.119    -7.590  0.9928 -0.1195  0.0000
     3 C(13)  Bbb    -0.1640   -22.008    -7.853    -7.341  0.1195  0.9928  0.0000
              Bcc     0.3336    44.761    15.972    14.931  0.0000  0.0000  1.0000
 
              Baa    -0.0451    -6.052    -2.159    -2.019  0.0000  0.0000  1.0000
     4 C(13)  Bbb    -0.0008    -0.101    -0.036    -0.034  0.2417  0.9704  0.0000
              Bcc     0.0459     6.153     2.196     2.052  0.9704 -0.2417  0.0000
 
              Baa    -0.1222   -16.392    -5.849    -5.468  0.9812 -0.1929  0.0000
     5 C(13)  Bbb    -0.1146   -15.385    -5.490    -5.132  0.1929  0.9812  0.0000
              Bcc     0.2368    31.777    11.339    10.600  0.0000  0.0000  1.0000
 
              Baa    -0.0697    -9.354    -3.338    -3.120  0.0000  0.0000  1.0000
     6 C(13)  Bbb     0.0298     3.997     1.426     1.333  0.6192  0.7852  0.0000
              Bcc     0.0399     5.357     1.911     1.787  0.7852 -0.6192  0.0000
 
              Baa    -0.0057    -3.022    -1.078    -1.008  0.0000  0.0000  1.0000
     7 H(1)   Bbb    -0.0019    -1.022    -0.364    -0.341 -0.1915  0.9815  0.0000
              Bcc     0.0076     4.044     1.443     1.349  0.9815  0.1915  0.0000
 
              Baa    -0.0134    -7.150    -2.551    -2.385  0.9905  0.1377  0.0000
     8 H(1)   Bbb    -0.0042    -2.267    -0.809    -0.756  0.0000  0.0000  1.0000
              Bcc     0.0177     9.418     3.360     3.141 -0.1377  0.9905  0.0000
 
              Baa    -0.7905    57.203    20.411    19.081  0.9763  0.2164  0.0000
     9 O(17)  Bbb    -0.7867    56.923    20.311    18.987 -0.2164  0.9763  0.0000
              Bcc     1.5772  -114.125   -40.723   -38.068  0.0000  0.0000  1.0000
 
              Baa    -0.0050    -2.647    -0.945    -0.883  0.0001  0.0000  1.0000
    10 H(1)   Bbb    -0.0004    -0.191    -0.068    -0.064  0.9876  0.1568 -0.0001
              Bcc     0.0053     2.838     1.013     0.947 -0.1568  0.9876  0.0000
 
              Baa    -0.2137    15.461     5.517     5.157  0.9768  0.2141  0.0000
    11 O(17)  Bbb    -0.1940    14.037     5.009     4.682 -0.2141  0.9768  0.0000
              Bcc     0.4077   -29.498   -10.526    -9.839  0.0000  0.0000  1.0000
 
              Baa    -0.0089    -1.199    -0.428    -0.400  0.3001  0.9539 -0.0001
    12 C(13)  Bbb     0.0028     0.370     0.132     0.123  0.9539 -0.3001  0.0002
              Bcc     0.0062     0.829     0.296     0.277 -0.0001  0.0002  1.0000
 
              Baa    -0.0040    -2.148    -0.767    -0.717  0.2191  0.6922 -0.6876
    13 H(1)   Bbb    -0.0024    -1.263    -0.451    -0.421 -0.2629  0.7206  0.6416
              Bcc     0.0064     3.412     1.217     1.138  0.9396  0.0402  0.3398
 
              Baa    -0.0040    -2.149    -0.767    -0.717  0.2193  0.6934  0.6864
    14 H(1)   Bbb    -0.0024    -1.263    -0.451    -0.421 -0.2632  0.7195 -0.6427
              Bcc     0.0064     3.412     1.217     1.138  0.9395  0.0397 -0.3403
 
              Baa    -0.0030    -1.617    -0.577    -0.539  0.6684  0.7438 -0.0013
    15 H(1)   Bbb    -0.0026    -1.374    -0.490    -0.458  0.0008  0.0011  1.0000
              Bcc     0.0056     2.991     1.067     0.998  0.7438 -0.6684  0.0001
 
              Baa    -0.0131    -7.003    -2.499    -2.336  0.9579  0.2870  0.0000
    16 H(1)   Bbb    -0.0079    -4.201    -1.499    -1.401  0.0000  0.0000  1.0000
              Bcc     0.0210    11.203     3.998     3.737 -0.2870  0.9579  0.0000
 

 ---------------------------------------------------------------------------------

 1|1|UNPC-PC-20250526LCFF|SP|UB3LYP|6-311G(d,p)|C7H7O2(2)|ADMINISTRATOR
 |01-Dec-2025|0||# ub3lyp/6-311g(d,p) geom=connectivity temperature=823
 .15||Title Card Required||0,2|C,0,-1.519548,0.055869,0.000003|C,0,-0.5
 51731,1.065288,-0.000034|C,0,0.803755,0.765685,-0.000037|C,0,1.273216,
 -0.625921,0.000004|C,0,0.228265,-1.631034,0.000026|C,0,-1.099009,-1.30
 1508,0.000026|H,0,-0.866903,2.106204,-0.000063|H,0,0.562377,-2.661966,
 0.000037|O,0,2.484465,-0.906843,-0.000011|H,0,-1.852978,-2.082064,0.00
 0042|O,0,1.768432,1.702299,-0.000074|C,0,-2.986255,0.38817,0.000077|H,
 0,-3.483156,-0.03534,-0.879103|H,0,-3.48281,-0.034288,0.879967|H,0,-3.
 158107,1.465581,-0.000518|H,0,1.366238,2.578921,-0.000073||Version=EM6
 4W-G16RevA.03|State=2-A|HF=-421.4813662|S2=0.776854|S2-1=0.|S2A=0.7504
 95|RMSD=5.161e-009|Dipole=-1.8883378,0.9227468,0.0000523|Quadrupole=-5
 .6252666,7.0161145,-1.3908479,2.8418541,-0.0001861,-0.0001371|PG=C01 [
 X(C7H7O2)]||@


 The most important thing in communication is to hear what isn't being said.
 -- Peter F. Drucker
 Job cpu time:       0 days  0 hours  0 minutes 31.0 seconds.
 Elapsed time:       0 days  0 hours  0 minutes 30.4 seconds.
 File lengths (MBytes):  RWF=     45 Int=      0 D2E=      0 Chk=      4 Scr=      1
 Normal termination of Gaussian 16 at Mon Dec 01 21:55:22 2025.
