Title Card Required                                                     
SP        UB3LYP                                                      6-311G(d,p)         
Number of atoms                            I               16
Info1-9                                    I   N=           9
          43          42           0           0           0         110
           1          18        -502
Full Title                                 C   N=           2
Title Card Required     
Route                                      C   N=           5
# ub3lyp/6-311g(d,p) geom=connectivity temperature=823.15   
Charge                                     I                0
Multiplicity                               I                2
Number of electrons                        I               65
Number of alpha electrons                  I               33
Number of beta electrons                   I               32
Number of basis functions                  I              204
Number of independent functions            I              204
Number of point charges in /Mol/           I                0
Number of translation vectors              I                0
Atomic numbers                             I   N=          16
           6           6           6           6           6           6
           1           1           8           1           8           6
           1           1           1           1
Nuclear charges                            R   N=          16
  6.00000000E+00  6.00000000E+00  6.00000000E+00  6.00000000E+00  6.00000000E+00
  6.00000000E+00  1.00000000E+00  1.00000000E+00  8.00000000E+00  1.00000000E+00
  8.00000000E+00  6.00000000E+00  1.00000000E+00  1.00000000E+00  1.00000000E+00
  1.00000000E+00
Current cartesian coordinates              R   N=          48
 -2.87152955E+00  1.05577109E-01  5.66917837E-06 -1.04262048E+00  2.01310256E+00
 -6.42506882E-05  1.51887682E+00  1.44693495E+00 -6.99198666E-05  2.40602954E+00
 -1.18281927E+00  7.55890450E-06  4.31358334E-01 -3.08220756E+00  4.91328792E-05
 -2.07682602E+00 -2.45949367E+00  4.91328792E-05 -1.63820925E+00  3.98014872E+00
 -1.19052746E-04  1.06273851E+00 -5.03038669E+00  6.99198666E-05  4.69495842E+00
 -1.71368491E+00 -2.07869874E-05 -3.50162093E+00 -3.93453073E+00  7.93684972E-05
  3.34185215E+00  3.21687889E+00 -1.39839733E-04 -5.64320409E+00  7.33534990E-01
  1.45508912E-04 -6.58221089E+00 -6.67829212E-02 -1.66126391E+00 -6.58155704E+00
 -6.47949294E-02  1.66289663E+00 -5.96795730E+00  2.76954670E+00 -9.78878133E-04
  2.58181564E+00  4.87345439E+00 -1.37950007E-04
Number of symbols in /Mol/                 I                0
Force Field                                I                0
Atom Types                                 C   N=          16
                                                            
                                                            
                                                            
            
Int Atom Types                             I   N=          16
           0           0           0           0           0           0
           0           0           0           0           0           0
           0           0           0           0
MM charges                                 R   N=          16
  0.00000000E+00  0.00000000E+00  0.00000000E+00  0.00000000E+00  0.00000000E+00
  0.00000000E+00  0.00000000E+00  0.00000000E+00  0.00000000E+00  0.00000000E+00
  0.00000000E+00  0.00000000E+00  0.00000000E+00  0.00000000E+00  0.00000000E+00
  0.00000000E+00
Integer atomic weights                     I   N=          16
          12          12          12          12          12          12
           1           1          16           1          16          12
           1           1           1           1
Real atomic weights                        R   N=          16
  1.20000000E+01  1.20000000E+01  1.20000000E+01  1.20000000E+01  1.20000000E+01
  1.20000000E+01  1.00782504E+00  1.00782504E+00  1.59949146E+01  1.00782504E+00
  1.59949146E+01  1.20000000E+01  1.00782504E+00  1.00782504E+00  1.00782504E+00
  1.00782504E+00
Atom fragment info                         I   N=          16
           0           0           0           0           0           0
           0           0           0           0           0           0
           0           0           0           0
Atom residue num                           I   N=          16
           0           0           0           0           0           0
           0           0           0           0           0           0
           0           0           0           0
Nuclear spins                              I   N=          16
           0           0           0           0           0           0
           1           1           0           1           0           0
           1           1           1           1
Nuclear ZEff                               R   N=          16
 -3.60000000E+00 -3.60000000E+00 -3.60000000E+00 -3.60000000E+00 -3.60000000E+00
 -3.60000000E+00 -1.00000000E+00 -1.00000000E+00 -5.60000000E+00 -1.00000000E+00
 -5.60000000E+00 -3.60000000E+00 -1.00000000E+00 -1.00000000E+00 -1.00000000E+00
 -1.00000000E+00
Nuclear ZNuc                               R   N=          16
  6.00000000E+00  6.00000000E+00  6.00000000E+00  6.00000000E+00  6.00000000E+00
  6.00000000E+00  1.00000000E+00  1.00000000E+00  8.00000000E+00  1.00000000E+00
  8.00000000E+00  6.00000000E+00  1.00000000E+00  1.00000000E+00  1.00000000E+00
  1.00000000E+00
Nuclear QMom                               R   N=          16
  0.00000000E+00  0.00000000E+00  0.00000000E+00  0.00000000E+00  0.00000000E+00
  0.00000000E+00  0.00000000E+00  0.00000000E+00  0.00000000E+00  0.00000000E+00
  0.00000000E+00  0.00000000E+00  0.00000000E+00  0.00000000E+00  0.00000000E+00
  0.00000000E+00
Nuclear GFac                               R   N=          16
  0.00000000E+00  0.00000000E+00  0.00000000E+00  0.00000000E+00  0.00000000E+00
  0.00000000E+00  2.79284600E+00  2.79284600E+00  0.00000000E+00  2.79284600E+00
  0.00000000E+00  0.00000000E+00  2.79284600E+00  2.79284600E+00  2.79284600E+00
  2.79284600E+00
MicOpt                                     I   N=          16
          -1          -1          -1          -1          -1          -1
          -1          -1          -1          -1          -1          -1
          -1          -1          -1          -1
Number of residues                         I                0
Number of secondary structures             I                0
SymInf integers                            I   N=          26
           1           1           1           1           1           0
           0           0           0           0           0           0
           0           0           0           0           0           0
           0           0           0           0           0           0
           0           0
RotTr to input orientation                 R   N=          12
  1.00000000E+00  3.13196797E-08  0.00000000E+00 -3.13196797E-08  1.00000000E+00
  0.00000000E+00  0.00000000E+00  0.00000000E+00  1.00000000E+00 -1.45363548E-07
 -2.90727096E-07 -2.90727096E-08
Number of contracted shells                I               73
Number of primitive shells                 I              150
Pure/Cartesian d shells                    I                0
Pure/Cartesian f shells                    I                0
Highest angular momentum                   I                2
Largest degree of contraction              I                6
Shell types                                I   N=          73
           0          -1          -1          -1          -2           0
          -1          -1          -1          -2           0          -1
          -1          -1          -2           0          -1          -1
          -1          -2           0          -1          -1          -1
          -2           0          -1          -1          -1          -2
           0           0           0           1           0           0
           0           1           0          -1          -1          -1
          -2           0           0           0           1           0
          -1          -1          -1          -2           0          -1
          -1          -1          -2           0           0           0
           1           0           0           0           1           0
           0           0           1           0           0           0
           1
Number of primitives per shell             I   N=          73
           6           3           1           1           1           6
           3           1           1           1           6           3
           1           1           1           6           3           1
           1           1           6           3           1           1
           1           6           3           1           1           1
           3           1           1           1           3           1
           1           1           6           3           1           1
           1           3           1           1           1           6
           3           1           1           1           6           3
           1           1           1           3           1           1
           1           3           1           1           1           3
           1           1           1           3           1           1
           1
Shell to atom map                          I   N=          73
           1           1           1           1           1           2
           2           2           2           2           3           3
           3           3           3           4           4           4
           4           4           5           5           5           5
           5           6           6           6           6           6
           7           7           7           7           8           8
           8           8           9           9           9           9
           9          10          10          10          10          11
          11          11          11          11          12          12
          12          12          12          13          13          13
          13          14          14          14          14          15
          15          15          15          16          16          16
          16
Primitive exponents                        R   N=         150
  4.56324000E+03  6.82024000E+02  1.54973000E+02  4.44553000E+01  1.30290000E+01
  1.82773000E+00  2.09642000E+01  4.80331000E+00  1.45933000E+00  4.83456000E-01
  1.45585000E-01  6.26000000E-01  4.56324000E+03  6.82024000E+02  1.54973000E+02
  4.44553000E+01  1.30290000E+01  1.82773000E+00  2.09642000E+01  4.80331000E+00
  1.45933000E+00  4.83456000E-01  1.45585000E-01  6.26000000E-01  4.56324000E+03
  6.82024000E+02  1.54973000E+02  4.44553000E+01  1.30290000E+01  1.82773000E+00
  2.09642000E+01  4.80331000E+00  1.45933000E+00  4.83456000E-01  1.45585000E-01
  6.26000000E-01  4.56324000E+03  6.82024000E+02  1.54973000E+02  4.44553000E+01
  1.30290000E+01  1.82773000E+00  2.09642000E+01  4.80331000E+00  1.45933000E+00
  4.83456000E-01  1.45585000E-01  6.26000000E-01  4.56324000E+03  6.82024000E+02
  1.54973000E+02  4.44553000E+01  1.30290000E+01  1.82773000E+00  2.09642000E+01
  4.80331000E+00  1.45933000E+00  4.83456000E-01  1.45585000E-01  6.26000000E-01
  4.56324000E+03  6.82024000E+02  1.54973000E+02  4.44553000E+01  1.30290000E+01
  1.82773000E+00  2.09642000E+01  4.80331000E+00  1.45933000E+00  4.83456000E-01
  1.45585000E-01  6.26000000E-01  3.38650000E+01  5.09479000E+00  1.15879000E+00
  3.25840000E-01  1.02741000E-01  7.50000000E-01  3.38650000E+01  5.09479000E+00
  1.15879000E+00  3.25840000E-01  1.02741000E-01  7.50000000E-01  8.58850000E+03
  1.29723000E+03  2.99296000E+02  8.73771000E+01  2.56789000E+01  3.74004000E+00
  4.21175000E+01  9.62837000E+00  2.85332000E+00  9.05661000E-01  2.55611000E-01
  1.29200000E+00  3.38650000E+01  5.09479000E+00  1.15879000E+00  3.25840000E-01
  1.02741000E-01  7.50000000E-01  8.58850000E+03  1.29723000E+03  2.99296000E+02
  8.73771000E+01  2.56789000E+01  3.74004000E+00  4.21175000E+01  9.62837000E+00
  2.85332000E+00  9.05661000E-01  2.55611000E-01  1.29200000E+00  4.56324000E+03
  6.82024000E+02  1.54973000E+02  4.44553000E+01  1.30290000E+01  1.82773000E+00
  2.09642000E+01  4.80331000E+00  1.45933000E+00  4.83456000E-01  1.45585000E-01
  6.26000000E-01  3.38650000E+01  5.09479000E+00  1.15879000E+00  3.25840000E-01
  1.02741000E-01  7.50000000E-01  3.38650000E+01  5.09479000E+00  1.15879000E+00
  3.25840000E-01  1.02741000E-01  7.50000000E-01  3.38650000E+01  5.09479000E+00
  1.15879000E+00  3.25840000E-01  1.02741000E-01  7.50000000E-01  3.38650000E+01
  5.09479000E+00  1.15879000E+00  3.25840000E-01  1.02741000E-01  7.50000000E-01
Contraction coefficients                   R   N=         150
  1.96665025E-03  1.52306019E-02  7.61269097E-02  2.60801033E-01  6.16462078E-01
  2.21006028E-01  1.14660081E-01  9.19999648E-01 -3.03068213E-03  1.00000000E+00
  1.00000000E+00  1.00000000E+00  1.96665025E-03  1.52306019E-02  7.61269097E-02
  2.60801033E-01  6.16462078E-01  2.21006028E-01  1.14660081E-01  9.19999648E-01
 -3.03068213E-03  1.00000000E+00  1.00000000E+00  1.00000000E+00  1.96665025E-03
  1.52306019E-02  7.61269097E-02  2.60801033E-01  6.16462078E-01  2.21006028E-01
  1.14660081E-01  9.19999648E-01 -3.03068213E-03  1.00000000E+00  1.00000000E+00
  1.00000000E+00  1.96665025E-03  1.52306019E-02  7.61269097E-02  2.60801033E-01
  6.16462078E-01  2.21006028E-01  1.14660081E-01  9.19999648E-01 -3.03068213E-03
  1.00000000E+00  1.00000000E+00  1.00000000E+00  1.96665025E-03  1.52306019E-02
  7.61269097E-02  2.60801033E-01  6.16462078E-01  2.21006028E-01  1.14660081E-01
  9.19999648E-01 -3.03068213E-03  1.00000000E+00  1.00000000E+00  1.00000000E+00
  1.96665025E-03  1.52306019E-02  7.61269097E-02  2.60801033E-01  6.16462078E-01
  2.21006028E-01  1.14660081E-01  9.19999648E-01 -3.03068213E-03  1.00000000E+00
  1.00000000E+00  1.00000000E+00  2.54938145E-02  1.90373109E-01  8.52161486E-01
  1.00000000E+00  1.00000000E+00  1.00000000E+00  2.54938145E-02  1.90373109E-01
  8.52161486E-01  1.00000000E+00  1.00000000E+00  1.00000000E+00  1.89515008E-03
  1.43859006E-02  7.07320031E-02  2.40001011E-01  5.94797026E-01  2.80802012E-01
  1.13889012E-01  9.20811101E-01 -3.27447036E-03  1.00000000E+00  1.00000000E+00
  1.00000000E+00  2.54938145E-02  1.90373109E-01  8.52161486E-01  1.00000000E+00
  1.00000000E+00  1.00000000E+00  1.89515008E-03  1.43859006E-02  7.07320031E-02
  2.40001011E-01  5.94797026E-01  2.80802012E-01  1.13889012E-01  9.20811101E-01
 -3.27447036E-03  1.00000000E+00  1.00000000E+00  1.00000000E+00  1.96665025E-03
  1.52306019E-02  7.61269097E-02  2.60801033E-01  6.16462078E-01  2.21006028E-01
  1.14660081E-01  9.19999648E-01 -3.03068213E-03  1.00000000E+00  1.00000000E+00
  1.00000000E+00  2.54938145E-02  1.90373109E-01  8.52161486E-01  1.00000000E+00
  1.00000000E+00  1.00000000E+00  2.54938145E-02  1.90373109E-01  8.52161486E-01
  1.00000000E+00  1.00000000E+00  1.00000000E+00  2.54938145E-02  1.90373109E-01
  8.52161486E-01  1.00000000E+00  1.00000000E+00  1.00000000E+00  2.54938145E-02
  1.90373109E-01  8.52161486E-01  1.00000000E+00  1.00000000E+00  1.00000000E+00
P(S=P) Contraction coefficients            R   N=         150
  0.00000000E+00  0.00000000E+00  0.00000000E+00  0.00000000E+00  0.00000000E+00
  0.00000000E+00  4.02486927E-02  2.37593957E-01  8.15853851E-01  1.00000000E+00
  1.00000000E+00  0.00000000E+00  0.00000000E+00  0.00000000E+00  0.00000000E+00
  0.00000000E+00  0.00000000E+00  0.00000000E+00  4.02486927E-02  2.37593957E-01
  8.15853851E-01  1.00000000E+00  1.00000000E+00  0.00000000E+00  0.00000000E+00
  0.00000000E+00  0.00000000E+00  0.00000000E+00  0.00000000E+00  0.00000000E+00
  4.02486927E-02  2.37593957E-01  8.15853851E-01  1.00000000E+00  1.00000000E+00
  0.00000000E+00  0.00000000E+00  0.00000000E+00  0.00000000E+00  0.00000000E+00
  0.00000000E+00  0.00000000E+00  4.02486927E-02  2.37593957E-01  8.15853851E-01
  1.00000000E+00  1.00000000E+00  0.00000000E+00  0.00000000E+00  0.00000000E+00
  0.00000000E+00  0.00000000E+00  0.00000000E+00  0.00000000E+00  4.02486927E-02
  2.37593957E-01  8.15853851E-01  1.00000000E+00  1.00000000E+00  0.00000000E+00
  0.00000000E+00  0.00000000E+00  0.00000000E+00  0.00000000E+00  0.00000000E+00
  0.00000000E+00  4.02486927E-02  2.37593957E-01  8.15853851E-01  1.00000000E+00
  1.00000000E+00  0.00000000E+00  0.00000000E+00  0.00000000E+00  0.00000000E+00
  0.00000000E+00  0.00000000E+00  0.00000000E+00  0.00000000E+00  0.00000000E+00
  0.00000000E+00  0.00000000E+00  0.00000000E+00  0.00000000E+00  0.00000000E+00
  0.00000000E+00  0.00000000E+00  0.00000000E+00  0.00000000E+00  0.00000000E+00
  3.65113974E-02  2.37152983E-01  8.19701941E-01  1.00000000E+00  1.00000000E+00
  0.00000000E+00  0.00000000E+00  0.00000000E+00  0.00000000E+00  0.00000000E+00
  0.00000000E+00  0.00000000E+00  0.00000000E+00  0.00000000E+00  0.00000000E+00
  0.00000000E+00  0.00000000E+00  0.00000000E+00  3.65113974E-02  2.37152983E-01
  8.19701941E-01  1.00000000E+00  1.00000000E+00  0.00000000E+00  0.00000000E+00
  0.00000000E+00  0.00000000E+00  0.00000000E+00  0.00000000E+00  0.00000000E+00
  4.02486927E-02  2.37593957E-01  8.15853851E-01  1.00000000E+00  1.00000000E+00
  0.00000000E+00  0.00000000E+00  0.00000000E+00  0.00000000E+00  0.00000000E+00
  0.00000000E+00  0.00000000E+00  0.00000000E+00  0.00000000E+00  0.00000000E+00
  0.00000000E+00  0.00000000E+00  0.00000000E+00  0.00000000E+00  0.00000000E+00
  0.00000000E+00  0.00000000E+00  0.00000000E+00  0.00000000E+00  0.00000000E+00
  0.00000000E+00  0.00000000E+00  0.00000000E+00  0.00000000E+00  0.00000000E+00
Coordinates of each shell                  R   N=         219
 -2.87152940E+00  1.05577490E-01  5.69825108E-06 -2.87152940E+00  1.05577490E-01
  5.69825108E-06 -2.87152940E+00  1.05577490E-01  5.69825108E-06 -2.87152940E+00
  1.05577490E-01  5.69825108E-06 -2.87152940E+00  1.05577490E-01  5.69825108E-06
 -1.04262028E+00  2.01310289E+00 -6.42216155E-05 -1.04262028E+00  2.01310289E+00
 -6.42216155E-05 -1.04262028E+00  2.01310289E+00 -6.42216155E-05 -1.04262028E+00
  2.01310289E+00 -6.42216155E-05 -1.04262028E+00  2.01310289E+00 -6.42216155E-05
  1.51887701E+00  1.44693519E+00 -6.98907939E-05  1.51887701E+00  1.44693519E+00
 -6.98907939E-05  1.51887701E+00  1.44693519E+00 -6.98907939E-05  1.51887701E+00
  1.44693519E+00 -6.98907939E-05  1.51887701E+00  1.44693519E+00 -6.98907939E-05
  2.40602965E+00 -1.18281905E+00  7.58797721E-06  2.40602965E+00 -1.18281905E+00
  7.58797721E-06  2.40602965E+00 -1.18281905E+00  7.58797721E-06  2.40602965E+00
 -1.18281905E+00  7.58797721E-06  2.40602965E+00 -1.18281905E+00  7.58797721E-06
  4.31358383E-01 -3.08220728E+00  4.91619519E-05  4.31358383E-01 -3.08220728E+00
  4.91619519E-05  4.31358383E-01 -3.08220728E+00  4.91619519E-05  4.31358383E-01
 -3.08220728E+00  4.91619519E-05  4.31358383E-01 -3.08220728E+00  4.91619519E-05
 -2.07682595E+00 -2.45949331E+00  4.91619519E-05 -2.07682595E+00 -2.45949331E+00
  4.91619519E-05 -2.07682595E+00 -2.45949331E+00  4.91619519E-05 -2.07682595E+00
 -2.45949331E+00  4.91619519E-05 -2.07682595E+00 -2.45949331E+00  4.91619519E-05
 -1.63820898E+00  3.98014906E+00 -1.19023673E-04 -1.63820898E+00  3.98014906E+00
 -1.19023673E-04 -1.63820898E+00  3.98014906E+00 -1.19023673E-04 -1.63820898E+00
  3.98014906E+00 -1.19023673E-04  1.06273850E+00 -5.03038644E+00  6.99489393E-05
  1.06273850E+00 -5.03038644E+00  6.99489393E-05  1.06273850E+00 -5.03038644E+00
  6.99489393E-05  1.06273850E+00 -5.03038644E+00  6.99489393E-05  4.69495851E+00
 -1.71368476E+00 -2.07579147E-05  4.69495851E+00 -1.71368476E+00 -2.07579147E-05
  4.69495851E+00 -1.71368476E+00 -2.07579147E-05  4.69495851E+00 -1.71368476E+00
 -2.07579147E-05  4.69495851E+00 -1.71368476E+00 -2.07579147E-05 -3.50162091E+00
 -3.93453033E+00  7.93975699E-05 -3.50162091E+00 -3.93453033E+00  7.93975699E-05
 -3.50162091E+00 -3.93453033E+00  7.93975699E-05 -3.50162091E+00 -3.93453033E+00
  7.93975699E-05  3.34185240E+00  3.21687908E+00 -1.39810661E-04  3.34185240E+00
  3.21687908E+00 -1.39810661E-04  3.34185240E+00  3.21687908E+00 -1.39810661E-04
  3.34185240E+00  3.21687908E+00 -1.39810661E-04  3.34185240E+00  3.21687908E+00
 -1.39810661E-04 -5.64320392E+00  7.33535457E-01  1.45537984E-04 -5.64320392E+00
  7.33535457E-01  1.45537984E-04 -5.64320392E+00  7.33535457E-01  1.45537984E-04
 -5.64320392E+00  7.33535457E-01  1.45537984E-04 -5.64320392E+00  7.33535457E-01
  1.45537984E-04 -6.58221075E+00 -6.67824244E-02 -1.66126388E+00 -6.58221075E+00
 -6.67824244E-02 -1.66126388E+00 -6.58221075E+00 -6.67824244E-02 -1.66126388E+00
 -6.58221075E+00 -6.67824244E-02 -1.66126388E+00 -6.58155690E+00 -6.47944325E-02
  1.66289666E+00 -6.58155690E+00 -6.47944325E-02  1.66289666E+00 -6.58155690E+00
 -6.47944325E-02  1.66289666E+00 -6.58155690E+00 -6.47944325E-02  1.66289666E+00
 -5.96795707E+00  2.76954718E+00 -9.78849060E-04 -5.96795707E+00  2.76954718E+00
 -9.78849060E-04 -5.96795707E+00  2.76954718E+00 -9.78849060E-04 -5.96795707E+00
  2.76954718E+00 -9.78849060E-04  2.58181594E+00  4.87345460E+00 -1.37920934E-04
  2.58181594E+00  4.87345460E+00 -1.37920934E-04  2.58181594E+00  4.87345460E+00
 -1.37920934E-04  2.58181594E+00  4.87345460E+00 -1.37920934E-04
Num ILSW                                   I              100
ILSW                                       I   N=         100
           1           0           0           0           2           0
           0           0           0           0         402          -1
           5           0           0           0           0           0
           0           0           1           0           0           0
           1           0           0           0           0           0
           0           0      100000           0          -1           0
           0           0           0           0           0           0
           0           0           0           1           0           0
           0 -2000000000           1           0           0           0
           0           0           4          52           0           0
           0           0           5           0           0           0
           0           0           0           0           0           1
           0           0           0           0           0           0
           0           0           0           0           0           0
           0           0           0           0           0           0
           0           0           0           0           0           0
           0           0           0           0
Num RLSW                                   I               52
RLSW                                       R   N=          52
  8.00000000E-01  7.20000000E-01  1.00000000E+00  8.10000000E-01  2.00000000E-01
  0.00000000E+00  0.00000000E+00  1.00000000E+00  0.00000000E+00  0.00000000E+00
  0.00000000E+00  0.00000000E+00  1.00000000E+00  0.00000000E+00  0.00000000E+00
  0.00000000E+00  0.00000000E+00  1.00000000E+00  0.00000000E+00  0.00000000E+00
  0.00000000E+00  0.00000000E+00  1.00000000E+00  0.00000000E+00  0.00000000E+00
  0.00000000E+00  0.00000000E+00  1.00000000E+00  0.00000000E+00  0.00000000E+00
  0.00000000E+00  0.00000000E+00  1.00000000E+00  0.00000000E+00  0.00000000E+00
  0.00000000E+00  0.00000000E+00  0.00000000E+00  1.00000000E+00  1.00000000E+00
  0.00000000E+00  1.00000000E+00  0.00000000E+00  0.00000000E+00  0.00000000E+00
  0.00000000E+00  0.00000000E+00  0.00000000E+00  0.00000000E+00  0.00000000E+00
  0.00000000E+00  0.00000000E+00
MxBond                                     I                4
NBond                                      I   N=          16
           3           3           3           3           3           3
           1           1           1           1           2           4
           1           1           1           1
IBond                                      I   N=          64
           2           6          12           0           1           3
           7           0           2           4          11           0
           3           5           9           0           4           6
           8           0           1           5          10           0
           2           0           0           0           5           0
           0           0           4           0           0           0
           6           0           0           0           3          16
           0           0           1          13          14          15
          12           0           0           0          12           0
           0           0          12           0           0           0
          11           0           0           0
RBond                                      R   N=          64
  1.50000000E+00  1.50000000E+00  1.00000000E+00  0.00000000E+00  1.50000000E+00
  1.50000000E+00  1.00000000E+00  0.00000000E+00  1.50000000E+00  1.00000000E+00
  1.00000000E+00  0.00000000E+00  1.00000000E+00  1.00000000E+00  2.00000000E+00
  0.00000000E+00  1.00000000E+00  2.00000000E+00  1.00000000E+00  0.00000000E+00
  1.50000000E+00  2.00000000E+00  1.00000000E+00  0.00000000E+00  1.00000000E+00
  0.00000000E+00  0.00000000E+00  0.00000000E+00  1.00000000E+00  0.00000000E+00
  0.00000000E+00  0.00000000E+00  2.00000000E+00  0.00000000E+00  0.00000000E+00
  0.00000000E+00  1.00000000E+00  0.00000000E+00  0.00000000E+00  0.00000000E+00
  1.00000000E+00  1.00000000E+00  0.00000000E+00  0.00000000E+00  1.00000000E+00
  1.00000000E+00  1.00000000E+00  1.00000000E+00  1.00000000E+00  0.00000000E+00
  0.00000000E+00  0.00000000E+00  1.00000000E+00  0.00000000E+00  0.00000000E+00
  0.00000000E+00  1.00000000E+00  0.00000000E+00  0.00000000E+00  0.00000000E+00
  1.00000000E+00  0.00000000E+00  0.00000000E+00  0.00000000E+00
Virial Ratio                               R      2.003643159861684E+00
SCF Energy                                 R     -4.214813661507983E+02
Total Energy                               R     -4.214813661507983E+02
S**2                                       R      7.768540312148105E-01
S**2 after annihilation                    R      7.504953672530498E-01
RMS Density                                R      5.161242732832448E-09
Job Status                                 I                1
Nuclear derivative order                   I                0
External E-field                           R   N=          35
  0.00000000E+00  0.00000000E+00  0.00000000E+00  0.00000000E+00  0.00000000E+00
  0.00000000E+00  0.00000000E+00  0.00000000E+00  0.00000000E+00  0.00000000E+00
  0.00000000E+00  0.00000000E+00  0.00000000E+00  0.00000000E+00  0.00000000E+00
  0.00000000E+00  0.00000000E+00  0.00000000E+00  0.00000000E+00  0.00000000E+00
  0.00000000E+00  0.00000000E+00  0.00000000E+00  0.00000000E+00  0.00000000E+00
  0.00000000E+00  0.00000000E+00  0.00000000E+00  0.00000000E+00  0.00000000E+00
  0.00000000E+00  0.00000000E+00  0.00000000E+00  0.00000000E+00  0.00000000E+00
IOpCl                                      I                1
IROHF                                      I                0
Alpha Orbital Energies                     R   N=         204
 -1.91754833E+01 -1.90988072E+01 -1.02586591E+01 -1.02394230E+01 -1.02145527E+01
 -1.01897932E+01 -1.01874859E+01 -1.01869141E+01 -1.01856606E+01 -1.09619217E+00
 -1.02483368E+00 -8.70063187E-01 -7.76895101E-01 -7.64044415E-01 -6.91244920E-01
 -6.46140878E-01 -5.97591791E-01 -5.61191761E-01 -5.04533320E-01 -4.90170464E-01
 -4.56087889E-01 -4.52505333E-01 -4.37059387E-01 -4.27588428E-01 -4.23162739E-01
 -4.10540329E-01 -3.86359529E-01 -3.78245935E-01 -3.68544898E-01 -3.38158967E-01
 -2.64984315E-01 -2.55663667E-01 -2.08932317E-01 -1.90682084E-02 -7.51358873E-03
  1.77348563E-02  3.77278929E-02  6.59065526E-02  7.16442483E-02  1.01612097E-01
  1.17104024E-01  1.28547815E-01  1.53785968E-01  1.82873523E-01  2.02621419E-01
  2.40246487E-01  2.63358500E-01  2.72195492E-01  2.80859129E-01  2.85301654E-01
  3.33695597E-01  3.39474659E-01  3.52389913E-01  3.76358053E-01  3.78356583E-01
  3.92526399E-01  4.03377856E-01  4.24767088E-01  4.33206307E-01  4.45403297E-01
  4.71684038E-01  4.77871752E-01  4.96767160E-01  5.08838524E-01  5.09955750E-01
  5.32773005E-01  5.34979315E-01  5.66170438E-01  5.69185540E-01  5.78703027E-01
  5.92412156E-01  6.17415990E-01  6.21987989E-01  6.26158664E-01  6.49453246E-01
  6.68153110E-01  7.34059453E-01  7.43827096E-01  7.57458243E-01  7.72743369E-01
  7.99528535E-01  8.07689884E-01  8.32168105E-01  8.50244295E-01  8.86021652E-01
  9.04753825E-01  9.10489950E-01  9.24682618E-01  9.37754836E-01  9.73729985E-01
  9.78111081E-01  1.02035876E+00  1.05851381E+00  1.06733400E+00  1.08779944E+00
  1.09722068E+00  1.15841761E+00  1.20116506E+00  1.22306252E+00  1.31210179E+00
  1.32700224E+00  1.35727117E+00  1.37839080E+00  1.39755579E+00  1.43397774E+00
  1.44163272E+00  1.45073396E+00  1.47783502E+00  1.51217694E+00  1.52191833E+00
  1.53876664E+00  1.55739613E+00  1.55977641E+00  1.57947418E+00  1.58092795E+00
  1.62429908E+00  1.63404346E+00  1.64850115E+00  1.69292371E+00  1.71099000E+00
  1.74499433E+00  1.75007210E+00  1.79483574E+00  1.82362900E+00  1.84421684E+00
  1.87345575E+00  1.88127829E+00  1.89927428E+00  1.91096371E+00  1.93417444E+00
  1.96666621E+00  1.97402339E+00  2.02810018E+00  2.07951781E+00  2.10624359E+00
  2.11493593E+00  2.14003410E+00  2.22911927E+00  2.22964694E+00  2.29696630E+00
  2.32499341E+00  2.33107348E+00  2.34460079E+00  2.41326826E+00  2.42348607E+00
  2.47539796E+00  2.49248604E+00  2.51361230E+00  2.51765751E+00  2.53580920E+00
  2.58154978E+00  2.60471274E+00  2.61246236E+00  2.64353707E+00  2.64914855E+00