 Entering Link 1 = D:\Gaussian\G16W\l1.exe PID=     43052.
  
 Copyright (c) 1988,1990,1992,1993,1995,1998,2003,2009,2016,
            Gaussian, Inc.  All Rights Reserved.
  
 This is part of the Gaussian(R) 16 program.  It is based on
 the Gaussian(R) 09 system (copyright 2009, Gaussian, Inc.),
 the Gaussian(R) 03 system (copyright 2003, Gaussian, Inc.),
 the Gaussian(R) 98 system (copyright 1998, Gaussian, Inc.),
 the Gaussian(R) 94 system (copyright 1995, Gaussian, Inc.),
 the Gaussian 92(TM) system (copyright 1992, Gaussian, Inc.),
 the Gaussian 90(TM) system (copyright 1990, Gaussian, Inc.),
 the Gaussian 88(TM) system (copyright 1988, Gaussian, Inc.),
 the Gaussian 86(TM) system (copyright 1986, Carnegie Mellon
 University), and the Gaussian 82(TM) system (copyright 1983,
 Carnegie Mellon University). Gaussian is a federally registered
 trademark of Gaussian, Inc.
  
 This software contains proprietary and confidential information,
 including trade secrets, belonging to Gaussian, Inc.
  
 This software is provided under written license and may be
 used, copied, transmitted, or stored only in accord with that
 written license.
  
 The following legend is applicable only to US Government
 contracts under FAR:
  
                    RESTRICTED RIGHTS LEGEND
  
 Use, reproduction and disclosure by the US Government is
 subject to restrictions as set forth in subparagraphs (a)
 and (c) of the Commercial Computer Software - Restricted
 Rights clause in FAR 52.227-19.
  
 Gaussian, Inc.
 340 Quinnipiac St., Bldg. 40, Wallingford CT 06492
  
  
 ---------------------------------------------------------------
 Warning -- This program may not be used in any manner that
 competes with the business of Gaussian, Inc. or will provide
 assistance to any competitor of Gaussian, Inc.  The licensee
 of this program is prohibited from giving any competitor of
 Gaussian, Inc. access to this program.  By using this program,
 the user acknowledges that Gaussian, Inc. is engaged in the
 business of creating and licensing software in the field of
 computational chemistry and represents and warrants to the
 licensee that it is not a competitor of Gaussian, Inc. and that
 it will not use this program in any manner prohibited above.
 ---------------------------------------------------------------
  

 Cite this work as:
 Gaussian 16, Revision A.03,
 M. J. Frisch, G. W. Trucks, H. B. Schlegel, G. E. Scuseria, 
 M. A. Robb, J. R. Cheeseman, G. Scalmani, V. Barone, 
 G. A. Petersson, H. Nakatsuji, X. Li, M. Caricato, A. V. Marenich, 
 J. Bloino, B. G. Janesko, R. Gomperts, B. Mennucci, H. P. Hratchian, 
 J. V. Ortiz, A. F. Izmaylov, J. L. Sonnenberg, D. Williams-Young, 
 F. Ding, F. Lipparini, F. Egidi, J. Goings, B. Peng, A. Petrone, 
 T. Henderson, D. Ranasinghe, V. G. Zakrzewski, J. Gao, N. Rega, 
 G. Zheng, W. Liang, M. Hada, M. Ehara, K. Toyota, R. Fukuda, 
 J. Hasegawa, M. Ishida, T. Nakajima, Y. Honda, O. Kitao, H. Nakai, 
 T. Vreven, K. Throssell, J. A. Montgomery, Jr., J. E. Peralta, 
 F. Ogliaro, M. J. Bearpark, J. J. Heyd, E. N. Brothers, K. N. Kudin, 
 V. N. Staroverov, T. A. Keith, R. Kobayashi, J. Normand, 
 K. Raghavachari, A. P. Rendell, J. C. Burant, S. S. Iyengar, 
 J. Tomasi, M. Cossi, J. M. Millam, M. Klene, C. Adamo, R. Cammi, 
 J. W. Ochterski, R. L. Martin, K. Morokuma, O. Farkas, 
 J. B. Foresman, and D. J. Fox, Gaussian, Inc., Wallingford CT, 2016.
 
 ******************************************
 Gaussian 16:  EM64W-G16RevA.03 17-Dec-2016
                01-Dec-2025 
 ******************************************
 %nprocshared=14
 Will use up to   14 processors via shared memory.
 %mem=80GB
 %chk=15.chk
 ---------------------------------------------------------
 # ub3lyp/6-311g(d,p) geom=connectivity temperature=823.15
 ---------------------------------------------------------
 1/38=1,57=2,112=823150,172=1/1;
 2/12=2,17=6,18=5,40=1/2;
 3/5=4,6=6,7=101,11=2,25=1,30=1,74=-5,116=2/1,2,3;
 4//1;
 5/5=2,38=5/2;
 6/7=2,8=2,9=2,10=2,28=1/1;
 99/5=1,9=1/99;
 -------------------
 Title Card Required
 -------------------
 Symbolic Z-matrix:
 Charge =  0 Multiplicity = 2
 C                     1.68303   1.12889   0.13658 
 C                     0.42165   1.72122   0.08982 
 C                    -0.72675   0.95153  -0.07698 
 C                    -0.58631  -0.44328  -0.18257 
 C                     0.67478  -1.02134  -0.13781 
 C                     1.83316  -0.25194   0.01823 
 H                     2.55744   1.75803   0.26248 
 H                     0.7318   -2.09999  -0.23545 
 O                    -1.667    -1.27131  -0.40607 
 O                    -1.97953   1.48658  -0.1577 
 H                     0.3263    2.80047   0.17255 
 C                    -2.695    -1.25774   0.49789 
 H                    -2.48972  -0.9179    1.50483 
 H                    -3.4705   -1.97038   0.26238 
 H                    -1.91257   2.44472  -0.09159 
 C                     3.19232  -0.90854   0.05925 
 H                     3.26124  -1.63421   0.87559 
 H                     3.40381  -1.44581  -0.87057 
 H                     3.98316  -0.16979   0.20354 
 
                          Input orientation:                          
 ---------------------------------------------------------------------
 Center     Atomic      Atomic             Coordinates (Angstroms)
 Number     Number       Type             X           Y           Z
 ---------------------------------------------------------------------
      1          6           0        1.683029    1.128891    0.136576
      2          6           0        0.421646    1.721215    0.089820
      3          6           0       -0.726750    0.951526   -0.076981
      4          6           0       -0.586305   -0.443279   -0.182572
      5          6           0        0.674778   -1.021343   -0.137811
      6          6           0        1.833155   -0.251940    0.018228
      7          1           0        2.557442    1.758029    0.262480
      8          1           0        0.731801   -2.099994   -0.235447
      9          8           0       -1.667002   -1.271308   -0.406073
     10          8           0       -1.979528    1.486577   -0.157702
     11          1           0        0.326301    2.800473    0.172547
     12          6           0       -2.694996   -1.257743    0.497892
     13          1           0       -2.489724   -0.917900    1.504825
     14          1           0       -3.470495   -1.970375    0.262376
     15          1           0       -1.912566    2.444723   -0.091591
     16          6           0        3.192322   -0.908544    0.059254
     17          1           0        3.261239   -1.634208    0.875589
     18          1           0        3.403810   -1.445810   -0.870567
     19          1           0        3.983160   -0.169790    0.203544
 ---------------------------------------------------------------------
                    Distance matrix (angstroms):
                    1          2          3          4          5
     1  C    0.000000
     2  C    1.394317   0.000000
     3  C    2.425716   1.392500   0.000000
     4  C    2.779110   2.403164   1.405829   0.000000
     5  C    2.390683   2.763606   2.420784   1.387981   0.000000
     6  C    1.394001   2.427102   2.830284   2.435307   1.399345
     7  H    1.084557   2.143080   3.398764   3.863544   3.380764
     8  H    3.386581   3.847549   3.385891   2.117759   1.084561
     9  O    4.156697   3.682873   2.435850   1.379671   2.370312
    10  O    3.691729   2.425275   1.364642   2.380343   3.651767
    11  H    2.153182   1.086615   2.142379   3.388346   3.850199
    12  C    4.999367   4.330609   3.014190   2.360712   3.437351
    13  H    4.844928   4.176511   3.017439   2.587581   3.566935
    14  H    6.014988   5.367157   4.022537   3.293714   4.271311
    15  H    3.835593   2.450494   1.906833   3.179277   4.325517
    16  C    2.536747   3.820106   4.340224   3.814836   2.527763
    17  H    3.266742   4.465376   4.847419   4.164326   2.844708
    18  H    3.256457   4.454850   4.841335   4.171262   2.857397
    19  H    2.642283   4.034007   4.849670   4.593897   3.433228
                    6          7          8          9         10
     6  C    0.000000
     7  H    2.150401   0.000000
     8  H    2.166249   4.297120   0.000000
     9  O    3.670183   5.241161   2.543637   0.000000
    10  O    4.194037   4.564464   4.496759   2.786627   0.000000
    11  H    3.407587   2.464299   4.934113   4.570280   2.674366
    12  C    4.663247   6.061221   3.604180   1.368981   2.910840
    13  H    4.619606   5.846187   3.847612   2.110284   2.967458
    14  H    5.580442   7.087808   4.233665   2.046486   3.788135
    15  H    4.616760   4.536286   5.260021   3.737390   0.962756
    16  C    1.510016   2.748633   2.749648   4.895013   5.703657
    17  H    2.164522   3.518310   2.801681   5.105087   6.186488
    18  H    2.163848   3.502102   2.823290   5.095031   6.171499
    19  H    2.159540   2.398464   3.806539   5.788722   6.199008
                   11         12         13         14         15
    11  H    0.000000
    12  C    5.069833   0.000000
    13  H    4.850903   1.082379   0.000000
    14  H    6.097927   1.079218   1.900867   0.000000
    15  H    2.282291   3.829875   3.766814   4.695266   0.000000
    16  C    4.688680   5.913954   5.863055   6.749954   6.109586
    17  H    5.364189   5.980060   5.829461   6.767960   6.658932
    18  H    5.346968   6.253278   6.376121   6.986759   6.633770
    19  H    4.711267   6.772596   6.644639   7.668281   6.456188
                   16         17         18         19
    16  C    0.000000
    17  H    1.094413   0.000000
    18  H    1.094509   1.762067   0.000000
    19  H    1.091788   1.765597   1.765669   0.000000
 Stoichiometry    C8H9O2(2)
 Framework group  C1[X(C8H9O2)]
 Deg. of freedom    51
 Full point group                 C1      NOp   1
 Largest Abelian subgroup         C1      NOp   1
 Largest concise Abelian subgroup C1      NOp   1
                         Standard orientation:                         
 ---------------------------------------------------------------------
 Center     Atomic      Atomic             Coordinates (Angstroms)
 Number     Number       Type             X           Y           Z
 ---------------------------------------------------------------------
      1          6           0        1.683029    1.128891    0.136576
      2          6           0        0.421646    1.721215    0.089820
      3          6           0       -0.726750    0.951526   -0.076981
      4          6           0       -0.586305   -0.443279   -0.182572
      5          6           0        0.674778   -1.021343   -0.137811
      6          6           0        1.833155   -0.251940    0.018228
      7          1           0        2.557442    1.758029    0.262480
      8          1           0        0.731801   -2.099994   -0.235447
      9          8           0       -1.667002   -1.271308   -0.406073
     10          8           0       -1.979528    1.486577   -0.157702
     11          1           0        0.326300    2.800473    0.172547
     12          6           0       -2.694996   -1.257743    0.497892
     13          1           0       -2.489724   -0.917900    1.504825
     14          1           0       -3.470495   -1.970376    0.262376
     15          1           0       -1.912566    2.444723   -0.091591
     16          6           0        3.192322   -0.908543    0.059254
     17          1           0        3.261239   -1.634207    0.875589
     18          1           0        3.403810   -1.445809   -0.870567
     19          1           0        3.983160   -0.169789    0.203544
 ---------------------------------------------------------------------
 Rotational constants (GHZ):           2.4112696           1.0366477           0.7488470
 Standard basis: 6-311G(d,p) (5D, 7F)
 There are   244 symmetry adapted cartesian basis functions of A   symmetry.
 There are   234 symmetry adapted basis functions of A   symmetry.
   234 basis functions,   392 primitive gaussians,   244 cartesian basis functions
    37 alpha electrons       36 beta electrons
       nuclear repulsion energy       505.7964338963 Hartrees.
 NAtoms=   19 NActive=   19 NUniq=   19 SFac= 1.00D+00 NAtFMM=   60 NAOKFM=F Big=F
 Integral buffers will be    131072 words long.
 Raffenetti 2 integral format.
 Two-electron integral symmetry is turned on.
 One-electron integrals computed using PRISM.
 NBasis=   234 RedAO= T EigKep=  1.79D-04  NBF=   234
 NBsUse=   234 1.00D-06 EigRej= -1.00D+00 NBFU=   234
 ExpMin= 1.03D-01 ExpMax= 8.59D+03 ExpMxC= 1.30D+03 IAcc=3 IRadAn=         5 AccDes= 0.00D+00
 Harris functional with IExCor=  402 and IRadAn=       5 diagonalized for initial guess.
 HarFok:  IExCor=  402 AccDes= 0.00D+00 IRadAn=         5 IDoV= 1 UseB2=F ITyADJ=14
 ICtDFT=  3500011 ScaDFX=  1.000000  1.000000  1.000000  1.000000
 FoFCou: FMM=F IPFlag=           0 FMFlag=      100000 FMFlg1=           0
         NFxFlg=           0 DoJE=T BraDBF=F KetDBF=T FulRan=T
         wScrn=  0.000000 ICntrl=       500 IOpCl=  0 I1Cent=   200000004 NGrid=           0
         NMat0=    1 NMatS0=      1 NMatT0=    0 NMatD0=    1 NMtDS0=    0 NMtDT0=    0
 Petite list used in FoFCou.
 Initial guess <Sx>= 0.0000 <Sy>= 0.0000 <Sz>= 0.5000 <S**2>= 0.7500 S= 0.5000
 Requested convergence on RMS density matrix=1.00D-08 within 128 cycles.
 Requested convergence on MAX density matrix=1.00D-06.
 Requested convergence on             energy=1.00D-06.
 No special actions if energy rises.
 Integral accuracy reduced to 1.0D-05 until final iterations.
 Initial convergence to 1.0D-05 achieved.  Increase integral accuracy.
 SCF Done:  E(UB3LYP) =  -460.759429459     A.U. after   16 cycles
            NFock= 16  Conv=0.67D-08     -V/T= 2.0038
 <Sx>= 0.0000 <Sy>= 0.0000 <Sz>= 0.5000 <S**2>= 0.7534 S= 0.5017
 <L.S>= 0.000000000000E+00
 Annihilation of the first spin contaminant:
 S**2 before annihilation     0.7534,   after     0.7500

 **********************************************************************

            Population analysis using the SCF density.

 **********************************************************************

 Orbital symmetries:
 Alpha Orbitals:
       Occupied  (A) (A) (A) (A) (A) (A) (A) (A) (A) (A) (A) (A)
                 (A) (A) (A) (A) (A) (A) (A) (A) (A) (A) (A) (A)
                 (A) (A) (A) (A) (A) (A) (A) (A) (A) (A) (A) (A)
                 (A)
       Virtual   (A) (A) (A) (A) (A) (A) (A) (A) (A) (A) (A) (A)
                 (A) (A) (A) (A) (A) (A) (A) (A) (A) (A) (A) (A)
                 (A) (A) (A) (A) (A) (A) (A) (A) (A) (A) (A) (A)
                 (A) (A) (A) (A) (A) (A) (A) (A) (A) (A) (A) (A)
                 (A) (A) (A) (A) (A) (A) (A) (A) (A) (A) (A) (A)
                 (A) (A) (A) (A) (A) (A) (A) (A) (A) (A) (A) (A)
                 (A) (A) (A) (A) (A) (A) (A) (A) (A) (A) (A) (A)
                 (A) (A) (A) (A) (A) (A) (A) (A) (A) (A) (A) (A)
                 (A) (A) (A) (A) (A) (A) (A) (A) (A) (A) (A) (A)
                 (A) (A) (A) (A) (A) (A) (A) (A) (A) (A) (A) (A)
                 (A) (A) (A) (A) (A) (A) (A) (A) (A) (A) (A) (A)
                 (A) (A) (A) (A) (A) (A) (A) (A) (A) (A) (A) (A)
                 (A) (A) (A) (A) (A) (A) (A) (A) (A) (A) (A) (A)
                 (A) (A) (A) (A) (A) (A) (A) (A) (A) (A) (A) (A)
                 (A) (A) (A) (A) (A) (A) (A) (A) (A) (A) (A) (A)
                 (A) (A) (A) (A) (A) (A) (A) (A) (A) (A) (A) (A)
                 (A) (A) (A) (A) (A)
 Beta  Orbitals:
       Occupied  (A) (A) (A) (A) (A) (A) (A) (A) (A) (A) (A) (A)
                 (A) (A) (A) (A) (A) (A) (A) (A) (A) (A) (A) (A)
                 (A) (A) (A) (A) (A) (A) (A) (A) (A) (A) (A) (A)
       Virtual   (A) (A) (A) (A) (A) (A) (A) (A) (A) (A) (A) (A)
                 (A) (A) (A) (A) (A) (A) (A) (A) (A) (A) (A) (A)
                 (A) (A) (A) (A) (A) (A) (A) (A) (A) (A) (A) (A)
                 (A) (A) (A) (A) (A) (A) (A) (A) (A) (A) (A) (A)
                 (A) (A) (A) (A) (A) (A) (A) (A) (A) (A) (A) (A)
                 (A) (A) (A) (A) (A) (A) (A) (A) (A) (A) (A) (A)
                 (A) (A) (A) (A) (A) (A) (A) (A) (A) (A) (A) (A)
                 (A) (A) (A) (A) (A) (A) (A) (A) (A) (A) (A) (A)
                 (A) (A) (A) (A) (A) (A) (A) (A) (A) (A) (A) (A)
                 (A) (A) (A) (A) (A) (A) (A) (A) (A) (A) (A) (A)
                 (A) (A) (A) (A) (A) (A) (A) (A) (A) (A) (A) (A)
                 (A) (A) (A) (A) (A) (A) (A) (A) (A) (A) (A) (A)
                 (A) (A) (A) (A) (A) (A) (A) (A) (A) (A) (A) (A)
                 (A) (A) (A) (A) (A) (A) (A) (A) (A) (A) (A) (A)
                 (A) (A) (A) (A) (A) (A) (A) (A) (A) (A) (A) (A)
                 (A) (A) (A) (A) (A) (A) (A) (A) (A) (A) (A) (A)
                 (A) (A) (A) (A) (A) (A)
 The electronic state is 2-A.
 Alpha  occ. eigenvalues --  -19.16165 -19.15293 -10.23950 -10.23177 -10.20793
 Alpha  occ. eigenvalues --  -10.18129 -10.17868 -10.17453 -10.17306 -10.16895
 Alpha  occ. eigenvalues --   -1.08512  -1.06379  -0.86150  -0.77422  -0.76042
 Alpha  occ. eigenvalues --   -0.69146  -0.67811  -0.63204  -0.58308  -0.55386
 Alpha  occ. eigenvalues --   -0.51488  -0.50055  -0.47205  -0.46174  -0.44187
 Alpha  occ. eigenvalues --   -0.42499  -0.41120  -0.40988  -0.39996  -0.37655
 Alpha  occ. eigenvalues --   -0.37363  -0.35612  -0.34876  -0.32843  -0.25409
 Alpha  occ. eigenvalues --   -0.22432  -0.17204
 Alpha virt. eigenvalues --   -0.01200   0.00360   0.02819   0.04801   0.06737
 Alpha virt. eigenvalues --    0.08077   0.09176   0.10958   0.11355   0.11984
 Alpha virt. eigenvalues --    0.13540   0.14459   0.17031   0.20465   0.22428
 Alpha virt. eigenvalues --    0.25540   0.26021   0.29404   0.30595   0.30922
 Alpha virt. eigenvalues --    0.33282   0.34076   0.35296   0.35893   0.38332
 Alpha virt. eigenvalues --    0.39081   0.39485   0.40672   0.41814   0.44202
 Alpha virt. eigenvalues --    0.44600   0.44932   0.46896   0.48311   0.48669
 Alpha virt. eigenvalues --    0.49515   0.50912   0.52298   0.54202   0.55504
 Alpha virt. eigenvalues --    0.56309   0.58438   0.59491   0.60242   0.61670
 Alpha virt. eigenvalues --    0.62624   0.62934   0.63663   0.66095   0.66658
 Alpha virt. eigenvalues --    0.68280   0.70550   0.75077   0.76775   0.79268
 Alpha virt. eigenvalues --    0.80438   0.82246   0.85670   0.86663   0.88270
 Alpha virt. eigenvalues --    0.90232   0.92287   0.93966   0.96361   0.97366
 Alpha virt. eigenvalues --    1.00605   1.01361   1.04089   1.05691   1.08253
 Alpha virt. eigenvalues --    1.11552   1.12768   1.17867   1.19418   1.23992
 Alpha virt. eigenvalues --    1.25585   1.32920   1.33846   1.35123   1.37172
 Alpha virt. eigenvalues --    1.39519   1.42262   1.45334   1.45710   1.46754
 Alpha virt. eigenvalues --    1.48081   1.48504   1.49936   1.52067   1.53759
 Alpha virt. eigenvalues --    1.54934   1.55447   1.57532   1.59562   1.60358
 Alpha virt. eigenvalues --    1.61261   1.63168   1.66837   1.68884   1.70781
 Alpha virt. eigenvalues --    1.73237   1.75061   1.76964   1.77720   1.80747
 Alpha virt. eigenvalues --    1.85191   1.85699   1.87005   1.89454   1.91930
 Alpha virt. eigenvalues --    1.92406   1.93563   1.95171   1.97615   1.98684
 Alpha virt. eigenvalues --    2.01815   2.02829   2.06681   2.10655   2.11397
 Alpha virt. eigenvalues --    2.13016   2.17454   2.24087   2.28214   2.31537
 Alpha virt. eigenvalues --    2.34345   2.35126   2.36535   2.40777   2.44189
 Alpha virt. eigenvalues --    2.44725   2.48668   2.50111   2.51709   2.53278
 Alpha virt. eigenvalues --    2.54816   2.56039   2.56753   2.57691   2.58739
 Alpha virt. eigenvalues --    2.62882   2.64144   2.65484   2.66265   2.71350
 Alpha virt. eigenvalues --    2.72200   2.73498   2.80001   2.85217   2.85818
 Alpha virt. eigenvalues --    2.87193   2.90786   2.95795   3.01348   3.01938
 Alpha virt. eigenvalues --    3.05814   3.09102   3.12169   3.13035   3.16817
 Alpha virt. eigenvalues --    3.19550   3.26666   3.29683   3.37091   3.39711
 Alpha virt. eigenvalues --    3.44780   3.51041   3.57721   3.63123   3.65457
 Alpha virt. eigenvalues --    3.72767   3.78373   3.81760   3.85432   3.95384
 Alpha virt. eigenvalues --    3.98500   4.06232   4.10809   4.12431   4.31810
 Alpha virt. eigenvalues --    4.82136   4.83750   4.94175   5.21489   5.36474
 Alpha virt. eigenvalues --    5.66892   5.78526  23.44514  23.80240  23.87219
 Alpha virt. eigenvalues --   23.89802  23.92790  24.04011  24.09207  24.16896
 Alpha virt. eigenvalues --   49.87881  49.92553
  Beta  occ. eigenvalues --  -19.15671 -19.15276 -10.23930 -10.23194 -10.19428
  Beta  occ. eigenvalues --  -10.18133 -10.17870 -10.17441 -10.17288 -10.16895
  Beta  occ. eigenvalues --   -1.07863  -1.05952  -0.86088  -0.77336  -0.75754
  Beta  occ. eigenvalues --   -0.69111  -0.66110  -0.63119  -0.57598  -0.55242
  Beta  occ. eigenvalues --   -0.50872  -0.49740  -0.46518  -0.45910  -0.44159
  Beta  occ. eigenvalues --   -0.42421  -0.41013  -0.40767  -0.38993  -0.37198
  Beta  occ. eigenvalues --   -0.36789  -0.34963  -0.33857  -0.32558  -0.25116
  Beta  occ. eigenvalues --   -0.22240
  Beta virt. eigenvalues --   -0.03186  -0.00648   0.00526   0.02928   0.04812
  Beta virt. eigenvalues --    0.06796   0.08595   0.09268   0.11077   0.11382
  Beta virt. eigenvalues --    0.12277   0.13920   0.14769   0.17088   0.20632
  Beta virt. eigenvalues --    0.22707   0.25602   0.26220   0.29499   0.30609
  Beta virt. eigenvalues --    0.30998   0.34088   0.34801   0.35396   0.36326
  Beta virt. eigenvalues --    0.38720   0.39268   0.39580   0.41093   0.43413
  Beta virt. eigenvalues --    0.44358   0.44879   0.46265   0.47084   0.48609
  Beta virt. eigenvalues --    0.49696   0.49809   0.51172   0.52372   0.54450
  Beta virt. eigenvalues --    0.55840   0.56558   0.59033   0.59599   0.60286
  Beta virt. eigenvalues --    0.61710   0.62913   0.63144   0.63820   0.66902
  Beta virt. eigenvalues --    0.67008   0.69114   0.70620   0.75285   0.76905
  Beta virt. eigenvalues --    0.79455   0.80539   0.82340   0.85735   0.86772
  Beta virt. eigenvalues --    0.89015   0.90497   0.92515   0.94215   0.96574
  Beta virt. eigenvalues --    0.97519   1.00723   1.01633   1.04262   1.05901
  Beta virt. eigenvalues --    1.08694   1.11849   1.13139   1.18330   1.19892
  Beta virt. eigenvalues --    1.24323   1.26843   1.32991   1.34019   1.35235
  Beta virt. eigenvalues --    1.37857   1.39662   1.42434   1.45486   1.46822
  Beta virt. eigenvalues --    1.47058   1.48281   1.49056   1.50228   1.52258
  Beta virt. eigenvalues --    1.54390   1.54969   1.55561   1.57805   1.59705
  Beta virt. eigenvalues --    1.60674   1.62058   1.63463   1.67260   1.69207
  Beta virt. eigenvalues --    1.70836   1.73761   1.75282   1.76981   1.77979
  Beta virt. eigenvalues --    1.80820   1.85259   1.85912   1.88412   1.89944
  Beta virt. eigenvalues --    1.92133   1.92794   1.93942   1.95316   1.98323
  Beta virt. eigenvalues --    1.99327   2.02112   2.03889   2.06795   2.10677
  Beta virt. eigenvalues --    2.11681   2.13152   2.17568   2.24171   2.28256
  Beta virt. eigenvalues --    2.31573   2.34395   2.35193   2.36570   2.41024
  Beta virt. eigenvalues --    2.44267   2.44744   2.48786   2.50540   2.52262
  Beta virt. eigenvalues --    2.53408   2.54941   2.56181   2.57114   2.57881
  Beta virt. eigenvalues --    2.60035   2.63234   2.64283   2.65868   2.69304
  Beta virt. eigenvalues --    2.71452   2.72602   2.73962   2.80198   2.85304
  Beta virt. eigenvalues --    2.85841   2.87201   2.90827   2.96131   3.01821
  Beta virt. eigenvalues --    3.02927   3.05872   3.09226   3.12666   3.14062
  Beta virt. eigenvalues --    3.16885   3.19957   3.27507   3.30010   3.37140
  Beta virt. eigenvalues --    3.39921   3.45073   3.51101   3.57740   3.63228
  Beta virt. eigenvalues --    3.65543   3.74598   3.78373   3.81765   3.85458
  Beta virt. eigenvalues --    3.96111   3.98551   4.06326   4.10838   4.12736
  Beta virt. eigenvalues --    4.31812   4.82267   4.83819   4.95922   5.22087
  Beta virt. eigenvalues --    5.36550   5.67061   5.79008  23.44520  23.81756
  Beta virt. eigenvalues --   23.87229  23.89805  23.92795  24.04016  24.09216
  Beta virt. eigenvalues --   24.16903  49.88186  49.92754
          Condensed to atoms (all electrons):
               1          2          3          4          5          6
     1  C    4.840874   0.449801  -0.019121  -0.036800  -0.054982   0.544769
     2  C    0.449801   5.124887   0.380595  -0.039585  -0.046031  -0.049125
     3  C   -0.019121   0.380595   4.977251   0.351642  -0.037543  -0.045206
     4  C   -0.036800  -0.039585   0.351642   4.992909   0.520790  -0.043133
     5  C   -0.054982  -0.046031  -0.037543   0.520790   4.870668   0.479343
     6  C    0.544769  -0.049125  -0.045206  -0.043133   0.479343   5.062780
     7  H    0.409033  -0.034827   0.008405  -0.000856   0.008597  -0.044404
     8  H    0.009009  -0.002151   0.013796  -0.052025   0.415553  -0.048758
     9  O   -0.000146   0.005470  -0.069186   0.311517  -0.050131   0.004807
    10  O    0.005964  -0.072229   0.385109  -0.079761   0.002844  -0.000243
    11  H   -0.018809   0.396232  -0.049315   0.004763   0.000446   0.007398
    12  C    0.000000  -0.000016  -0.005031  -0.087434   0.000934  -0.000279
    13  H   -0.000009  -0.000823   0.002158   0.000728   0.005461  -0.000507
    14  H   -0.000011   0.000078   0.000293   0.002560  -0.000629   0.000046
    15  H    0.000870  -0.010779  -0.045022   0.009775  -0.000389  -0.000007
    16  C   -0.059854   0.008642  -0.000765   0.006279  -0.055964   0.357504
    17  H    0.001221  -0.000321   0.000027   0.000046  -0.004269  -0.038625
    18  H    0.000809  -0.000279   0.000003   0.000494  -0.005593  -0.036899
    19  H   -0.007361   0.000417   0.000066  -0.000375   0.006772  -0.034754
               7          8          9         10         11         12
     1  C    0.409033   0.009009  -0.000146   0.005964  -0.018809   0.000000
     2  C   -0.034827  -0.002151   0.005470  -0.072229   0.396232  -0.000016
     3  C    0.008405   0.013796  -0.069186   0.385109  -0.049315  -0.005031
     4  C   -0.000856  -0.052025   0.311517  -0.079761   0.004763  -0.087434
     5  C    0.008597   0.415553  -0.050131   0.002844   0.000446   0.000934
     6  C   -0.044404  -0.048758   0.004807  -0.000243   0.007398  -0.000279
     7  H    0.586133  -0.000323   0.000009  -0.000118  -0.009151   0.000002
     8  H   -0.000323   0.572288   0.005769  -0.000117   0.000075  -0.000974
     9  O    0.000009   0.005769   7.866091   0.000879  -0.000150   0.285462
    10  O   -0.000118  -0.000117   0.000879   7.783846  -0.003943   0.002236
    11  H   -0.009151   0.000075  -0.000150  -0.003943   0.579770  -0.000022
    12  C    0.000002  -0.000974   0.285462   0.002236  -0.000022   5.128499
    13  H    0.000002   0.000781  -0.036804   0.000925   0.000017   0.378318
    14  H    0.000000  -0.000270  -0.024906   0.000360  -0.000002   0.405562
    15  H   -0.000040   0.000059  -0.000877   0.323349   0.006355   0.001433
    16  C   -0.009483  -0.007092  -0.000106   0.000000  -0.000353   0.000006
    17  H    0.000081   0.001098  -0.000016   0.000000   0.000018  -0.000004
    18  H    0.000084   0.000813   0.000000   0.000000   0.000020   0.000002
    19  H    0.003935   0.000118   0.000002   0.000000  -0.000025   0.000000
              13         14         15         16         17         18
     1  C   -0.000009  -0.000011   0.000870  -0.059854   0.001221   0.000809
     2  C   -0.000823   0.000078  -0.010779   0.008642  -0.000321  -0.000279
     3  C    0.002158   0.000293  -0.045022  -0.000765   0.000027   0.000003
     4  C    0.000728   0.002560   0.009775   0.006279   0.000046   0.000494
     5  C    0.005461  -0.000629  -0.000389  -0.055964  -0.004269  -0.005593
     6  C   -0.000507   0.000046  -0.000007   0.357504  -0.038625  -0.036899
     7  H    0.000002   0.000000  -0.000040  -0.009483   0.000081   0.000084
     8  H    0.000781  -0.000270   0.000059  -0.007092   0.001098   0.000813
     9  O   -0.036804  -0.024906  -0.000877  -0.000106  -0.000016   0.000000
    10  O    0.000925   0.000360   0.323349   0.000000   0.000000   0.000000
    11  H    0.000017  -0.000002   0.006355  -0.000353   0.000018   0.000020
    12  C    0.378318   0.405562   0.001433   0.000006  -0.000004   0.000002
    13  H    0.592796  -0.042728  -0.000021   0.000001   0.000003  -0.000001
    14  H   -0.042728   0.549352  -0.000040  -0.000001   0.000000   0.000000
    15  H   -0.000021  -0.000040   0.469226  -0.000004   0.000000   0.000000
    16  C    0.000001  -0.000001  -0.000004   4.804748   0.402991   0.402032
    17  H    0.000003   0.000000   0.000000   0.402991   0.576332  -0.032442
    18  H   -0.000001   0.000000   0.000000   0.402032  -0.032442   0.575246
    19  H    0.000000   0.000000   0.000000   0.406774  -0.027349  -0.027107
              19
     1  C   -0.007361
     2  C    0.000417
     3  C    0.000066
     4  C   -0.000375
     5  C    0.006772
     6  C   -0.034754
     7  H    0.003935
     8  H    0.000118
     9  O    0.000002
    10  O    0.000000
    11  H   -0.000025
    12  C    0.000000
    13  H    0.000000
    14  H    0.000000
    15  H    0.000000
    16  C    0.406774
    17  H   -0.027349
    18  H   -0.027107
    19  H    0.574700
          Atomic-Atomic Spin Densities.
               1          2          3          4          5          6
     1  C    0.012247  -0.002776   0.001501  -0.000650  -0.003602   0.002192
     2  C   -0.002776  -0.001037  -0.005274   0.005456   0.003849  -0.002238
     3  C    0.001501  -0.005274   0.048419  -0.028294  -0.010865   0.005057
     4  C   -0.000650   0.005456  -0.028294   0.008348   0.005001  -0.002980
     5  C   -0.003602   0.003849  -0.010865   0.005001   0.032478  -0.009798
     6  C    0.002192  -0.002238   0.005057  -0.002980  -0.009798   0.001873
     7  H    0.000097   0.000009  -0.000049   0.000008  -0.000033   0.000078
     8  H    0.000003  -0.000052   0.000531   0.000384  -0.001851   0.001112
     9  O   -0.000003   0.000115  -0.009555   0.020524  -0.003812   0.000623
    10  O   -0.000023   0.000616  -0.002881   0.002108   0.000034  -0.000001
    11  H    0.000117  -0.000216   0.000126  -0.000127  -0.000061   0.000023
    12  C    0.000025  -0.000720   0.009559  -0.019122   0.002306  -0.000197
    13  H   -0.000063   0.000320  -0.001603  -0.000436   0.000612  -0.000076
    14  H   -0.000001   0.000002  -0.000240  -0.000163   0.000121  -0.000007
    15  H    0.000094  -0.000875   0.000994  -0.001341  -0.000103   0.000031
    16  C    0.000354  -0.000068   0.000028  -0.000116   0.000353   0.000041
    17  H   -0.000068   0.000017  -0.000019  -0.000007   0.000295  -0.000106
    18  H    0.000007  -0.000008   0.000012  -0.000008  -0.000067   0.000138
    19  H    0.000025  -0.000011   0.000007  -0.000001  -0.000051  -0.000029
               7          8          9         10         11         12
     1  C    0.000097   0.000003  -0.000003  -0.000023   0.000117   0.000025
     2  C    0.000009  -0.000052   0.000115   0.000616  -0.000216  -0.000720
     3  C   -0.000049   0.000531  -0.009555  -0.002881   0.000126   0.009559
     4  C    0.000008   0.000384   0.020524   0.002108  -0.000127  -0.019122
     5  C   -0.000033  -0.001851  -0.003812   0.000034  -0.000061   0.002306
     6  C    0.000078   0.001112   0.000623  -0.000001   0.000023  -0.000197
     7  H   -0.000724  -0.000002   0.000000   0.000000   0.000004   0.000000
     8  H   -0.000002  -0.001114   0.000712  -0.000008   0.000001  -0.000894
     9  O    0.000000   0.000712   0.249721   0.002000  -0.000009  -0.144599
    10  O    0.000000  -0.000008   0.002000   0.006468  -0.000006  -0.007111
    11  H    0.000004   0.000001  -0.000009  -0.000006   0.000248   0.000023
    12  C    0.000000  -0.000894  -0.144599  -0.007111   0.000023   1.111291
    13  H    0.000000  -0.000172   0.000505   0.000446  -0.000008  -0.007888
    14  H    0.000000  -0.000009  -0.000453   0.000045   0.000000   0.000002
    15  H    0.000001   0.000007  -0.000478  -0.001309   0.000195   0.001992
    16  C    0.000045   0.000078   0.000000   0.000000  -0.000001   0.000003
    17  H   -0.000001  -0.000037  -0.000003   0.000000  -0.000001   0.000003
    18  H    0.000002   0.000023   0.000002   0.000000   0.000000   0.000000
    19  H   -0.000010   0.000004   0.000000   0.000000   0.000001   0.000000
              13         14         15         16         17         18
     1  C   -0.000063  -0.000001   0.000094   0.000354  -0.000068   0.000007
     2  C    0.000320   0.000002  -0.000875  -0.000068   0.000017  -0.000008
     3  C   -0.001603  -0.000240   0.000994   0.000028  -0.000019   0.000012
     4  C   -0.000436  -0.000163  -0.001341  -0.000116  -0.000007  -0.000008
     5  C    0.000612   0.000121  -0.000103   0.000353   0.000295  -0.000067
     6  C   -0.000076  -0.000007   0.000031   0.000041  -0.000106   0.000138
     7  H    0.000000   0.000000   0.000001   0.000045  -0.000001   0.000002
     8  H   -0.000172  -0.000009   0.000007   0.000078  -0.000037   0.000023
     9  O    0.000505  -0.000453  -0.000478   0.000000  -0.000003   0.000002
    10  O    0.000446   0.000045  -0.001309   0.000000   0.000000   0.000000
    11  H   -0.000008   0.000000   0.000195  -0.000001  -0.000001   0.000000
    12  C   -0.007888   0.000002   0.001992   0.000003   0.000003   0.000000
    13  H   -0.032032   0.004791  -0.000251   0.000001   0.000001   0.000000
    14  H    0.004791  -0.043380  -0.000014   0.000000   0.000000   0.000000
    15  H   -0.000251  -0.000014   0.004144   0.000000   0.000000   0.000000
    16  C    0.000001   0.000000   0.000000  -0.000316  -0.000106  -0.000077
    17  H    0.000001   0.000000   0.000000  -0.000106  -0.000012   0.000007
    18  H    0.000000   0.000000   0.000000  -0.000077   0.000007  -0.000159
    19  H    0.000000   0.000000   0.000000   0.000074  -0.000036   0.000031
              19
     1  C    0.000025
     2  C   -0.000011
     3  C    0.000007
     4  C   -0.000001
     5  C   -0.000051
     6  C   -0.000029
     7  H   -0.000010
     8  H    0.000004
     9  O    0.000000
    10  O    0.000000
    11  H    0.000001
    12  C    0.000000
    13  H    0.000000
    14  H    0.000000
    15  H    0.000000
    16  C    0.000074
    17  H   -0.000036
    18  H    0.000031
    19  H   -0.000005
 Mulliken charges and spin densities:
               1          2
     1  C   -0.065256   0.009474
     2  C   -0.109954  -0.002888
     3  C    0.151845   0.007453
     4  C    0.138466  -0.011417
     5  C   -0.055877   0.014807
     6  C   -0.114707  -0.004265
     7  H    0.082923  -0.000574
     8  H    0.092352  -0.001286
     9  O   -0.297684   0.115288
    10  O   -0.349100   0.000378
    11  H    0.086673   0.000310
    12  C   -0.108694   0.944672
    13  H    0.099704  -0.035854
    14  H    0.110335  -0.039306
    15  H    0.246112   0.003086
    16  C   -0.255354   0.000293
    17  H    0.121210  -0.000071
    18  H    0.122820  -0.000101
    19  H    0.104187  -0.000001
 Sum of Mulliken charges =   0.00000   1.00000
 Mulliken charges and spin densities with hydrogens summed into heavy atoms:
               1          2
     1  C    0.017666   0.008900
     2  C   -0.023281  -0.002578
     3  C    0.151845   0.007453
     4  C    0.138466  -0.011417
     5  C    0.036475   0.013521
     6  C   -0.114707  -0.004265
     9  O   -0.297684   0.115288
    10  O   -0.102989   0.003464
    12  C    0.101345   0.869512
    16  C    0.092863   0.000122
 Electronic spatial extent (au):  <R**2>=           1531.9417
 Charge=              0.0000 electrons
 Dipole moment (field-independent basis, Debye):
    X=              1.1546    Y=              1.5800    Z=              0.9340  Tot=              2.1683
 Quadrupole moment (field-independent basis, Debye-Ang):
   XX=            -57.1846   YY=            -50.0173   ZZ=            -61.6988
   XY=             -2.1673   XZ=             -1.8933   YZ=             -0.3278
 Traceless Quadrupole moment (field-independent basis, Debye-Ang):
   XX=             -0.8843   YY=              6.2829   ZZ=             -5.3986
   XY=             -2.1673   XZ=             -1.8933   YZ=             -0.3278
 Octapole moment (field-independent basis, Debye-Ang**2):
  XXX=             -3.5720  YYY=             26.7058  ZZZ=             -1.4816  XYY=            -14.4012
  XXY=             -1.9460  XXZ=              4.5494  XZZ=             -7.4096  YZZ=             -1.3473
  YYZ=              0.0555  XYZ=              2.5901
 Hexadecapole moment (field-independent basis, Debye-Ang**3):
 XXXX=          -1333.2020 YYYY=           -505.4507 ZZZZ=            -97.6404 XXXY=             25.7354
 XXXZ=             -2.0214 YYYX=            -43.5751 YYYZ=              4.0994 ZZZX=             -0.1803
 ZZZY=              0.1307 XXYY=           -281.1241 XXZZ=           -245.9676 YYZZ=           -120.6242
 XXYZ=             -0.2842 YYXZ=              2.6018 ZZXY=             -6.9841
 N-N= 5.057964338963D+02 E-N=-2.087145119001D+03  KE= 4.590337509417D+02
                          Isotropic Fermi Contact Couplings
        Atom                 a.u.       MegaHertz       Gauss      10(-4) cm-1
     1  C(13)              0.00054       0.61071       0.21792       0.20371
     2  C(13)              0.00124       1.38879       0.49556       0.46325
     3  C(13)              0.00605       6.79655       2.42518       2.26708
     4  C(13)             -0.00307      -3.44882      -1.23063      -1.15040
     5  C(13)              0.00430       4.83510       1.72528       1.61282
     6  C(13)              0.00001       0.01671       0.00596       0.00557
     7  H(1)              -0.00014      -0.60636      -0.21636      -0.20226
     8  H(1)              -0.00019      -0.84406      -0.30118      -0.28155
     9  O(17)              0.02459     -14.90423      -5.31820      -4.97152
    10  O(17)              0.02053     -12.44221      -4.43969      -4.15028
    11  H(1)               0.00003       0.12890       0.04599       0.04300
    12  C(13)              0.11514     129.44257      46.18833      43.17739
    13  H(1)              -0.00973     -43.47564     -15.51319     -14.50191
    14  H(1)              -0.01097     -49.02394     -17.49296     -16.35263
    15  H(1)               0.00077       3.43348       1.22515       1.14529
    16  C(13)              0.00013       0.14191       0.05064       0.04734
    17  H(1)              -0.00006      -0.26213      -0.09353      -0.08744
    18  H(1)              -0.00007      -0.30045      -0.10721      -0.10022
    19  H(1)               0.00001       0.02692       0.00960       0.00898
 --------------------------------------------------------
       Center         ----  Spin Dipole Couplings  ----
                      3XX-RR        3YY-RR        3ZZ-RR
 --------------------------------------------------------
     1   Atom       -0.003237     -0.005356      0.008594
     2   Atom        0.003769      0.001692     -0.005461
     3   Atom       -0.003945      0.003457      0.000487
     4   Atom        0.016355     -0.002939     -0.013416
     5   Atom        0.005473     -0.009829      0.004356
     6   Atom        0.004920      0.000727     -0.005647
     7   Atom        0.001005     -0.000329     -0.000676
     8   Atom        0.005802     -0.002351     -0.003451
     9   Atom       -0.092939      0.370916     -0.277977
    10   Atom        0.000527      0.008780     -0.009307
    11   Atom        0.000306      0.001060     -0.001366
    12   Atom       -0.210155      0.579140     -0.368985
    13   Atom       -0.051296     -0.004831      0.056126
    14   Atom        0.020203      0.031683     -0.051885
    15   Atom       -0.002347      0.005403     -0.003055
    16   Atom        0.001603     -0.000719     -0.000884
    17   Atom        0.001439     -0.000714     -0.000725
    18   Atom        0.001267     -0.000645     -0.000622
    19   Atom        0.001017     -0.000469     -0.000548
 --------------------------------------------------------
                        XY            XZ            YZ
 --------------------------------------------------------
     1   Atom        0.001834     -0.001786     -0.001146
     2   Atom        0.003198     -0.001567     -0.000710
     3   Atom        0.007839     -0.000970      0.006507
     4   Atom        0.011183     -0.000518      0.005002
     5   Atom        0.001673     -0.010076     -0.001035
     6   Atom        0.001633     -0.000240      0.000339
     7   Atom        0.001521      0.000043      0.000089
     8   Atom       -0.002885     -0.001255      0.000885
     9   Atom       -0.491537      0.229226     -0.355625
    10   Atom        0.012959     -0.001037     -0.003372
    11   Atom        0.001776     -0.000031     -0.000071
    12   Atom       -0.619123      0.255915     -0.451764
    13   Atom       -0.014754      0.033309      0.026472
    14   Atom        0.040469      0.035542      0.002645
    15   Atom        0.001803     -0.000383     -0.000744
    16   Atom        0.000033      0.000033     -0.000038
    17   Atom       -0.000171      0.000250     -0.000031
    18   Atom       -0.000107     -0.000386      0.000024
    19   Atom        0.000171     -0.000001     -0.000013
 --------------------------------------------------------


 ---------------------------------------------------------------------------------
              Anisotropic Spin Dipole Couplings in Principal Axis System
 ---------------------------------------------------------------------------------

       Atom             a.u.   MegaHertz   Gauss  10(-4) cm-1        Axes

              Baa    -0.0064    -0.861    -0.307    -0.287 -0.4968  0.8678  0.0071
     1 C(13)  Bbb    -0.0026    -0.346    -0.124    -0.116  0.8533  0.4869  0.1863
              Bcc     0.0090     1.207     0.431     0.403 -0.1583 -0.0987  0.9825
 
              Baa    -0.0057    -0.768    -0.274    -0.256  0.1534  0.0283  0.9878
     2 C(13)  Bbb    -0.0006    -0.082    -0.029    -0.027 -0.5732  0.8168  0.0656
              Bcc     0.0063     0.850     0.303     0.284  0.8049  0.5763 -0.1416
 
              Baa    -0.0108    -1.445    -0.516    -0.482  0.7167 -0.5752  0.3943
     3 C(13)  Bbb    -0.0002    -0.032    -0.011    -0.011 -0.5787 -0.1750  0.7966
              Bcc     0.0110     1.477     0.527     0.493  0.3892  0.7991  0.4583
 
              Baa    -0.0163    -2.181    -0.778    -0.728  0.1756 -0.4720  0.8639
     4 C(13)  Bbb    -0.0053    -0.711    -0.254    -0.237 -0.3875  0.7736  0.5014
              Bcc     0.0216     2.892     1.032     0.965  0.9050  0.4228  0.0471
 
              Baa    -0.0100    -1.343    -0.479    -0.448 -0.1118  0.9937 -0.0068
     5 C(13)  Bbb    -0.0051    -0.690    -0.246    -0.230  0.6793  0.0814  0.7293
              Bcc     0.0152     2.034     0.726     0.678  0.7253  0.0769 -0.6841
 
              Baa    -0.0057    -0.762    -0.272    -0.254  0.0320 -0.0610  0.9976
     6 C(13)  Bbb     0.0002     0.026     0.009     0.009 -0.3227  0.9440  0.0681
              Bcc     0.0055     0.736     0.263     0.245  0.9459  0.3241 -0.0106
 
              Baa    -0.0013    -0.708    -0.253    -0.236 -0.5435  0.8357 -0.0790
     7 H(1)   Bbb    -0.0007    -0.360    -0.128    -0.120 -0.0697  0.0488  0.9964
              Bcc     0.0020     1.068     0.381     0.356  0.8365  0.5470  0.0317
 
              Baa    -0.0040    -2.114    -0.754    -0.705 -0.0595 -0.5606  0.8260
     8 H(1)   Bbb    -0.0030    -1.582    -0.564    -0.528  0.3313  0.7694  0.5461
              Bcc     0.0069     3.696     1.319     1.233  0.9416 -0.3062 -0.1400
 
              Baa    -0.4380    31.696    11.310    10.573 -0.2637  0.2494  0.9318
     9 O(17)  Bbb    -0.4042    29.251    10.438     9.757  0.8239  0.5606  0.0832
              Bcc     0.8423   -60.947   -21.747   -20.330 -0.5016  0.7896 -0.3533
 
              Baa    -0.0105     0.762     0.272     0.254 -0.4176  0.4209  0.8053
    10 O(17)  Bbb    -0.0081     0.588     0.210     0.196  0.6977 -0.4191  0.5809
              Bcc     0.0187    -1.350    -0.482    -0.450  0.5820  0.8045 -0.1186
 
              Baa    -0.0014    -0.730    -0.261    -0.244 -0.0541  0.0686  0.9962
    11 H(1)   Bbb    -0.0011    -0.603    -0.215    -0.201  0.7753 -0.6258  0.0852
              Bcc     0.0025     1.334     0.476     0.445  0.6293  0.7770 -0.0193
 
              Baa    -0.5578   -74.854   -26.710   -24.969 -0.6831 -0.0837  0.7256
    12 C(13)  Bbb    -0.5441   -73.016   -26.054   -24.356  0.5715  0.5573  0.6023
              Bcc     1.1019   147.870    52.764    49.324 -0.4547  0.8261 -0.3328
 
              Baa    -0.0684   -36.509   -13.027   -12.178  0.8900  0.3352 -0.3092
    13 H(1)   Bbb    -0.0035    -1.842    -0.657    -0.614 -0.3999  0.8995 -0.1761
              Bcc     0.0719    38.351    13.684    12.792  0.2191  0.2804  0.9345
 
              Baa    -0.0684   -36.497   -13.023   -12.174 -0.4259  0.1486  0.8925
    14 H(1)   Bbb    -0.0039    -2.073    -0.740    -0.691 -0.5906  0.7016 -0.3986
              Bcc     0.0723    38.570    13.763    12.866  0.6854  0.6969  0.2110
 
              Baa    -0.0032    -1.720    -0.614    -0.574  0.4150 -0.0083  0.9098
    15 H(1)   Bbb    -0.0027    -1.415    -0.505    -0.472  0.8835 -0.2351 -0.4052
              Bcc     0.0059     3.135     1.118     1.046  0.2173  0.9719 -0.0903
 
              Baa    -0.0009    -0.120    -0.043    -0.040 -0.0158  0.2194  0.9755
    16 C(13)  Bbb    -0.0007    -0.095    -0.034    -0.032 -0.0106  0.9755 -0.2196
              Bcc     0.0016     0.215     0.077     0.072  0.9998  0.0138  0.0130
 
              Baa    -0.0008    -0.404    -0.144    -0.135 -0.0780  0.3588  0.9301
    17 H(1)   Bbb    -0.0007    -0.386    -0.138    -0.129  0.1140  0.9301 -0.3492
              Bcc     0.0015     0.790     0.282     0.264  0.9904 -0.0788  0.1135
 
              Baa    -0.0007    -0.372    -0.133    -0.124  0.1895 -0.0546  0.9804
    18 H(1)   Bbb    -0.0007    -0.347    -0.124    -0.116  0.0641  0.9970  0.0431
              Bcc     0.0013     0.720     0.257     0.240  0.9798 -0.0547 -0.1924
 
              Baa    -0.0006    -0.294    -0.105    -0.098 -0.0214  0.2034  0.9789
    19 H(1)   Bbb    -0.0005    -0.259    -0.093    -0.086 -0.1110  0.9725 -0.2045
              Bcc     0.0010     0.553     0.197     0.185  0.9936  0.1131 -0.0018
 

 ---------------------------------------------------------------------------------

 1|1|UNPC-PC-20250526LCFF|SP|UB3LYP|6-311G(d,p)|C8H9O2(2)|ADMINISTRATOR
 |01-Dec-2025|0||# ub3lyp/6-311g(d,p) geom=connectivity temperature=823
 .15||Title Card Required||0,2|C,0,1.683029,1.128891,0.136576|C,0,0.421
 646,1.721215,0.08982|C,0,-0.72675,0.951526,-0.076981|C,0,-0.586305,-0.
 443279,-0.182572|C,0,0.674778,-1.021343,-0.137811|C,0,1.833155,-0.2519
 4,0.018228|H,0,2.557442,1.758029,0.26248|H,0,0.731801,-2.099994,-0.235
 447|O,0,-1.667002,-1.271308,-0.406073|O,0,-1.979528,1.486577,-0.157702
 |H,0,0.326301,2.800473,0.172547|C,0,-2.694996,-1.257743,0.497892|H,0,-
 2.489724,-0.9179,1.504825|H,0,-3.470495,-1.970375,0.262376|H,0,-1.9125
 66,2.444723,-0.091591|C,0,3.192322,-0.908544,0.059254|H,0,3.261239,-1.
 634208,0.875589|H,0,3.40381,-1.44581,-0.870567|H,0,3.98316,-0.16979,0.
 203544||Version=EM64W-G16RevA.03|State=2-A|HF=-460.7594295|S2=0.753444
 |S2-1=0.|S2A=0.750008|RMSD=6.719e-009|Dipole=0.4542618,0.6216008,0.367
 4563|Quadrupole=-0.6574891,4.6712124,-4.0137233,-1.6113698,-1.4076565,
 -0.2437379|PG=C01 [X(C8H9O2)]||@


 I HAVE NOT FAILED, I HAVE ONLY DISCOVERED 10,000
 WAYS THAT DIDN'T WORK.  -- THOMAS A. EDISON
 Job cpu time:       0 days  0 hours  0 minutes 38.0 seconds.
 Elapsed time:       0 days  0 hours  0 minutes 37.6 seconds.
 File lengths (MBytes):  RWF=     57 Int=      0 D2E=      0 Chk=      5 Scr=      1
 Normal termination of Gaussian 16 at Mon Dec 01 21:39:04 2025.
