 Generated by Multiwfn (http://sobereva.com/multiwfn)
GAUSSIAN             37 MOL ORBITALS    316 PRIMITIVES       19 NUCLEI
  C    1    (CENTRE  1)   3.18046344  2.13329542  0.25809144  CHARGE =  6.0
  C    2    (CENTRE  2)   0.79679484  3.25262514  0.16973541  CHARGE =  6.0
  C    3    (CENTRE  3)  -1.37335883  1.79812335 -0.14547280  CHARGE =  6.0
  C    4    (CENTRE  4)  -1.10795578 -0.83767605 -0.34501087  CHARGE =  6.0
  C    5    (CENTRE  5)   1.27514590 -1.93005827 -0.26042484  CHARGE =  6.0
  C    6    (CENTRE  6)   3.46416093 -0.47609694  0.03444613  CHARGE =  6.0
  H    7    (CENTRE  7)   4.83286432  3.32219423  0.49601552  CHARGE =  1.0
  H    8    (CENTRE  8)   1.38290411 -3.96841323 -0.44493014  CHARGE =  1.0
  O    9    (CENTRE  9)  -3.15017686 -2.40242444 -0.76736655  CHARGE =  8.0
  O   10    (CENTRE 10)  -3.74076632  2.80922279 -0.29801338  CHARGE =  8.0
  H   11    (CENTRE 11)   0.61661854  5.29212715  0.32606678  CHARGE =  1.0
  C   12    (CENTRE 12)  -5.09280398 -2.37679065  0.94087973  CHARGE =  6.0
  H   13    (CENTRE 13)  -4.70489623 -1.73458038  2.84370732  CHARGE =  1.0
  H   14    (CENTRE 14)  -6.55828446 -3.72347021  0.49581899  CHARGE =  1.0
  H   15    (CENTRE 15)  -3.61422680  4.61985634 -0.17308170  CHARGE =  1.0
  C   16    (CENTRE 16)   6.03261453 -1.71689822  0.11197404  CHARGE =  6.0
  H   17    (CENTRE 17)   6.16284903 -3.08820442  1.65462361  CHARGE =  1.0
  H   18    (CENTRE 18)   6.43226911 -2.73218375 -1.64513300  CHARGE =  1.0
  H   19    (CENTRE 19)   7.52708151 -0.32085522  0.38464262  CHARGE =  1.0
CENTRE ASSIGNMENTS    1  1  1  1  1  1  1  1  1  1  1  1  1  1  1  1  1  1  1  1
CENTRE ASSIGNMENTS    1  1  1  1  1  1  1  1  2  2  2  2  2  2  2  2  2  2  2  2
CENTRE ASSIGNMENTS    2  2  2  2  2  2  2  2  2  2  2  2  2  2  2  2  3  3  3  3
CENTRE ASSIGNMENTS    3  3  3  3  3  3  3  3  3  3  3  3  3  3  3  3  3  3  3  3
CENTRE ASSIGNMENTS    3  3  3  3  4  4  4  4  4  4  4  4  4  4  4  4  4  4  4  4
CENTRE ASSIGNMENTS    4  4  4  4  4  4  4  4  4  4  4  4  5  5  5  5  5  5  5  5
CENTRE ASSIGNMENTS    5  5  5  5  5  5  5  5  5  5  5  5  5  5  5  5  5  5  5  5
CENTRE ASSIGNMENTS    6  6  6  6  6  6  6  6  6  6  6  6  6  6  6  6  6  6  6  6
CENTRE ASSIGNMENTS    6  6  6  6  6  6  6  6  7  7  7  7  8  8  8  8  9  9  9  9
CENTRE ASSIGNMENTS    9  9  9  9  9  9  9  9  9  9  9  9  9  9  9  9  9  9  9  9
CENTRE ASSIGNMENTS    9  9  9  9 10 10 10 10 10 10 10 10 10 10 10 10 10 10 10 10
CENTRE ASSIGNMENTS   10 10 10 10 10 10 10 10 10 10 10 10 11 11 11 11 12 12 12 12
CENTRE ASSIGNMENTS   12 12 12 12 12 12 12 12 12 12 12 12 12 12 12 12 12 12 12 12
CENTRE ASSIGNMENTS   12 12 12 12 13 13 13 13 14 14 14 14 15 15 15 15 16 16 16 16
CENTRE ASSIGNMENTS   16 16 16 16 16 16 16 16 16 16 16 16 16 16 16 16 16 16 16 16
CENTRE ASSIGNMENTS   16 16 16 16 17 17 17 17 18 18 18 18 19 19 19 19
TYPE ASSIGNMENTS      1  1  1  1  1  1  1  1  1  2  2  2  3  3  3  4  4  4  1  2
TYPE ASSIGNMENTS      3  4  5  6  7  8  9 10  1  1  1  1  1  1  1  1  1  2  2  2
TYPE ASSIGNMENTS      3  3  3  4  4  4  1  2  3  4  5  6  7  8  9 10  1  1  1  1
TYPE ASSIGNMENTS      1  1  1  1  1  2  2  2  3  3  3  4  4  4  1  2  3  4  5  6
TYPE ASSIGNMENTS      7  8  9 10  1  1  1  1  1  1  1  1  1  2  2  2  3  3  3  4
TYPE ASSIGNMENTS      4  4  1  2  3  4  5  6  7  8  9 10  1  1  1  1  1  1  1  1
TYPE ASSIGNMENTS      1  2  2  2  3  3  3  4  4  4  1  2  3  4  5  6  7  8  9 10
TYPE ASSIGNMENTS      1  1  1  1  1  1  1  1  1  2  2  2  3  3  3  4  4  4  1  2
TYPE ASSIGNMENTS      3  4  5  6  7  8  9 10  1  1  1  1  1  1  1  1  1  1  1  1
TYPE ASSIGNMENTS      1  1  1  1  1  2  2  2  3  3  3  4  4  4  1  2  3  4  5  6
TYPE ASSIGNMENTS      7  8  9 10  1  1  1  1  1  1  1  1  1  2  2  2  3  3  3  4
TYPE ASSIGNMENTS      4  4  1  2  3  4  5  6  7  8  9 10  1  1  1  1  1  1  1  1
TYPE ASSIGNMENTS      1  1  1  1  1  2  2  2  3  3  3  4  4  4  1  2  3  4  5  6
TYPE ASSIGNMENTS      7  8  9 10  1  1  1  1  1  1  1  1  1  1  1  1  1  1  1  1
TYPE ASSIGNMENTS      1  1  1  1  1  2  2  2  3  3  3  4  4  4  1  2  3  4  5  6
TYPE ASSIGNMENTS      7  8  9 10  1  1  1  1  1  1  1  1  1  1  1  1
EXPONENTS  0.3047525D+04 0.4573695D+03 0.1039487D+03 0.2921016D+02 0.9286663D+01
EXPONENTS  0.3163927D+01 0.7868272D+01 0.1881289D+01 0.5442493D+00 0.7868272D+01
EXPONENTS  0.1881289D+01 0.5442493D+00 0.7868272D+01 0.1881289D+01 0.5442493D+00
EXPONENTS  0.7868272D+01 0.1881289D+01 0.5442493D+00 0.1687145D+00 0.1687145D+00
EXPONENTS  0.1687145D+00 0.1687145D+00 0.8000000D+00 0.8000000D+00 0.8000000D+00
EXPONENTS  0.8000000D+00 0.8000000D+00 0.8000000D+00 0.3047525D+04 0.4573695D+03
EXPONENTS  0.1039487D+03 0.2921016D+02 0.9286663D+01 0.3163927D+01 0.7868272D+01
EXPONENTS  0.1881289D+01 0.5442493D+00 0.7868272D+01 0.1881289D+01 0.5442493D+00
EXPONENTS  0.7868272D+01 0.1881289D+01 0.5442493D+00 0.7868272D+01 0.1881289D+01
EXPONENTS  0.5442493D+00 0.1687145D+00 0.1687145D+00 0.1687145D+00 0.1687145D+00
EXPONENTS  0.8000000D+00 0.8000000D+00 0.8000000D+00 0.8000000D+00 0.8000000D+00
EXPONENTS  0.8000000D+00 0.3047525D+04 0.4573695D+03 0.1039487D+03 0.2921016D+02
EXPONENTS  0.9286663D+01 0.3163927D+01 0.7868272D+01 0.1881289D+01 0.5442493D+00
EXPONENTS  0.7868272D+01 0.1881289D+01 0.5442493D+00 0.7868272D+01 0.1881289D+01
EXPONENTS  0.5442493D+00 0.7868272D+01 0.1881289D+01 0.5442493D+00 0.1687145D+00
EXPONENTS  0.1687145D+00 0.1687145D+00 0.1687145D+00 0.8000000D+00 0.8000000D+00
EXPONENTS  0.8000000D+00 0.8000000D+00 0.8000000D+00 0.8000000D+00 0.3047525D+04
EXPONENTS  0.4573695D+03 0.1039487D+03 0.2921016D+02 0.9286663D+01 0.3163927D+01
EXPONENTS  0.7868272D+01 0.1881289D+01 0.5442493D+00 0.7868272D+01 0.1881289D+01
EXPONENTS  0.5442493D+00 0.7868272D+01 0.1881289D+01 0.5442493D+00 0.7868272D+01
EXPONENTS  0.1881289D+01 0.5442493D+00 0.1687145D+00 0.1687145D+00 0.1687145D+00
EXPONENTS  0.1687145D+00 0.8000000D+00 0.8000000D+00 0.8000000D+00 0.8000000D+00
EXPONENTS  0.8000000D+00 0.8000000D+00 0.3047525D+04 0.4573695D+03 0.1039487D+03
EXPONENTS  0.2921016D+02 0.9286663D+01 0.3163927D+01 0.7868272D+01 0.1881289D+01
EXPONENTS  0.5442493D+00 0.7868272D+01 0.1881289D+01 0.5442493D+00 0.7868272D+01
EXPONENTS  0.1881289D+01 0.5442493D+00 0.7868272D+01 0.1881289D+01 0.5442493D+00
EXPONENTS  0.1687145D+00 0.1687145D+00 0.1687145D+00 0.1687145D+00 0.8000000D+00
EXPONENTS  0.8000000D+00 0.8000000D+00 0.8000000D+00 0.8000000D+00 0.8000000D+00
EXPONENTS  0.3047525D+04 0.4573695D+03 0.1039487D+03 0.2921016D+02 0.9286663D+01
EXPONENTS  0.3163927D+01 0.7868272D+01 0.1881289D+01 0.5442493D+00 0.7868272D+01
EXPONENTS  0.1881289D+01 0.5442493D+00 0.7868272D+01 0.1881289D+01 0.5442493D+00
EXPONENTS  0.7868272D+01 0.1881289D+01 0.5442493D+00 0.1687145D+00 0.1687145D+00
EXPONENTS  0.1687145D+00 0.1687145D+00 0.8000000D+00 0.8000000D+00 0.8000000D+00
EXPONENTS  0.8000000D+00 0.8000000D+00 0.8000000D+00 0.1873114D+02 0.2825394D+01
EXPONENTS  0.6401217D+00 0.1612778D+00 0.1873114D+02 0.2825394D+01 0.6401217D+00
EXPONENTS  0.1612778D+00 0.5484672D+04 0.8252349D+03 0.1880470D+03 0.5296450D+02
EXPONENTS  0.1689757D+02 0.5799635D+01 0.1553962D+02 0.3599934D+01 0.1013762D+01
EXPONENTS  0.1553962D+02 0.3599934D+01 0.1013762D+01 0.1553962D+02 0.3599934D+01
EXPONENTS  0.1013762D+01 0.1553962D+02 0.3599934D+01 0.1013762D+01 0.2700058D+00
EXPONENTS  0.2700058D+00 0.2700058D+00 0.2700058D+00 0.8000000D+00 0.8000000D+00
EXPONENTS  0.8000000D+00 0.8000000D+00 0.8000000D+00 0.8000000D+00 0.5484672D+04
EXPONENTS  0.8252349D+03 0.1880470D+03 0.5296450D+02 0.1689757D+02 0.5799635D+01
EXPONENTS  0.1553962D+02 0.3599934D+01 0.1013762D+01 0.1553962D+02 0.3599934D+01
EXPONENTS  0.1013762D+01 0.1553962D+02 0.3599934D+01 0.1013762D+01 0.1553962D+02
EXPONENTS  0.3599934D+01 0.1013762D+01 0.2700058D+00 0.2700058D+00 0.2700058D+00
EXPONENTS  0.2700058D+00 0.8000000D+00 0.8000000D+00 0.8000000D+00 0.8000000D+00
EXPONENTS  0.8000000D+00 0.8000000D+00 0.1873114D+02 0.2825394D+01 0.6401217D+00
EXPONENTS  0.1612778D+00 0.3047525D+04 0.4573695D+03 0.1039487D+03 0.2921016D+02
EXPONENTS  0.9286663D+01 0.3163927D+01 0.7868272D+01 0.1881289D+01 0.5442493D+00
EXPONENTS  0.7868272D+01 0.1881289D+01 0.5442493D+00 0.7868272D+01 0.1881289D+01
EXPONENTS  0.5442493D+00 0.7868272D+01 0.1881289D+01 0.5442493D+00 0.1687145D+00
EXPONENTS  0.1687145D+00 0.1687145D+00 0.1687145D+00 0.8000000D+00 0.8000000D+00
EXPONENTS  0.8000000D+00 0.8000000D+00 0.8000000D+00 0.8000000D+00 0.1873114D+02
EXPONENTS  0.2825394D+01 0.6401217D+00 0.1612778D+00 0.1873114D+02 0.2825394D+01
EXPONENTS  0.6401217D+00 0.1612778D+00 0.1873114D+02 0.2825394D+01 0.6401217D+00
EXPONENTS  0.1612778D+00 0.3047525D+04 0.4573695D+03 0.1039487D+03 0.2921016D+02
EXPONENTS  0.9286663D+01 0.3163927D+01 0.7868272D+01 0.1881289D+01 0.5442493D+00
EXPONENTS  0.7868272D+01 0.1881289D+01 0.5442493D+00 0.7868272D+01 0.1881289D+01
EXPONENTS  0.5442493D+00 0.7868272D+01 0.1881289D+01 0.5442493D+00 0.1687145D+00
EXPONENTS  0.1687145D+00 0.1687145D+00 0.1687145D+00 0.8000000D+00 0.8000000D+00
EXPONENTS  0.8000000D+00 0.8000000D+00 0.8000000D+00 0.8000000D+00 0.1873114D+02
EXPONENTS  0.2825394D+01 0.6401217D+00 0.1612778D+00 0.1873114D+02 0.2825394D+01
EXPONENTS  0.6401217D+00 0.1612778D+00 0.1873114D+02 0.2825394D+01 0.6401217D+00
EXPONENTS  0.1612778D+00
MO    1     MO 0.0        OCC NO =    2.0000000  ORB. ENERGY =  -19.012607
 -0.60947530D-05 -0.11243629D-04 -0.18150704D-04 -0.23626823D-04 -0.20160811D-04
 -0.69610435D-05  0.33396185D-04  0.15392271D-04 -0.43161535D-04 -0.85944263D-04
 -0.65896610D-04 -0.32887027D-04  0.34264966D-04  0.26272202D-04  0.13111670D-04
 -0.31118172D-05 -0.23859440D-05 -0.11907533D-05  0.42285437D-03 -0.17268796D-03
 -0.42805615D-04 -0.17108768D-04  0.39400304D-04  0.19858641D-04 -0.12411202D-04
 -0.72603783D-04 -0.24950725D-05  0.44203540D-05  0.13671220D-04  0.25220731D-04
  0.40714079D-04  0.52997634D-04  0.45222977D-04  0.15614407D-04 -0.87927998D-04
 -0.40525934D-04  0.11363895D-03  0.11031148D-03  0.84579846D-04  0.42211271D-04
  0.18705757D-04  0.14342388D-04  0.71578570D-05  0.19539825D-04  0.14981898D-04
  0.74770173D-05 -0.67355270D-03 -0.81188054D-04  0.33040872D-03  0.18758429D-04
 -0.91337289D-04 -0.50606506D-04  0.52051623D-04  0.26829166D-04 -0.19085368D-04
 -0.12219116D-04 -0.27582866D-04 -0.50885002D-04 -0.82144170D-04 -0.10692730D-03
 -0.91241261D-04 -0.31503415D-04 -0.62184925D-04 -0.28660975D-04  0.80368366D-04
 -0.52339805D-03 -0.40130843D-03 -0.20028103D-03  0.14987825D-03  0.11491713D-03
  0.57351704D-04 -0.56350811D-04 -0.43206227D-04 -0.21562936D-04  0.21125378D-05
  0.76770158D-03 -0.16139171D-03  0.58012753D-04 -0.41875600D-04 -0.91770107D-04
 -0.10259169D-03  0.32346034D-04  0.13759082D-04  0.10681254D-04  0.49884159D-05
  0.92026533D-05  0.14855936D-04  0.19338014D-04  0.16501163D-04  0.56974549D-05
 -0.42695890D-04 -0.19678497D-04  0.55180559D-04  0.20291443D-05  0.15558192D-05
  0.77646280D-06  0.61682284D-06  0.47294063D-06  0.23603052D-06 -0.49253061D-04
 -0.37764123D-04 -0.18846944D-04 -0.16477980D-03 -0.37996078D-03 -0.18680903D-03
 -0.34050011D-04 -0.86770064D-05 -0.30206146D-04  0.84628817D-05  0.89834891D-04
  0.19201240D-05  0.25589786D-04  0.26570084D-05  0.49016617D-05  0.79128018D-05
  0.10300117D-04  0.87891084D-05  0.30346679D-05  0.11747442D-06  0.54143852D-07
 -0.15182501D-06 -0.65417815D-04 -0.50158232D-04 -0.25032473D-04  0.56554601D-04
  0.43362481D-04  0.21640917D-04  0.12561791D-04  0.96315849D-05  0.48068359D-05
  0.33703710D-03  0.21750569D-04  0.15149459D-03  0.72203549D-05  0.33382774D-04
  0.24567699D-04  0.25914048D-04  0.82826908D-05  0.10024671D-04 -0.64590461D-05
  0.74422210D-05  0.13729445D-04  0.22163581D-04  0.28850396D-04  0.24618096D-04
  0.85000368D-05 -0.32702269D-04 -0.15072446D-04  0.42264712D-04 -0.31904211D-04
 -0.24462125D-04 -0.12208315D-04  0.44860104D-05  0.34395882D-05  0.17165956D-05
 -0.42508631D-05 -0.32592922D-05 -0.16266152D-05 -0.26160762D-03  0.15684209D-03
 -0.43927380D-04  0.10732392D-04  0.40936026D-05 -0.27788267D-04  0.30422861D-04
 -0.35627364D-04 -0.10616771D-04 -0.17769217D-04  0.43315159D-05  0.73470708D-05
  0.83643805D-05  0.31978817D-04  0.68436307D-05  0.11608093D-04  0.13215404D-04
  0.34018222D-04  0.95080960D-05  0.17499972D-04  0.28318259D-04  0.37225144D-04
  0.31927789D-04  0.10916653D-04 -0.12724306D-03 -0.56775606D-04  0.16765913D-03
  0.42208322D-04  0.32519237D-04  0.14277697D-04  0.12214475D-03  0.94105943D-04
  0.41317578D-04 -0.26598323D-04 -0.20492574D-04 -0.89973437D-05 -0.37369525D-03
 -0.15834092D-03 -0.88029713D-04  0.17293090D-04  0.14641204D-03  0.16219117D-03
  0.18178951D-03 -0.10971609D-03 -0.33956609D-04  0.79401525D-05  0.82562101D+00
  0.15195834D+01  0.24589728D+01  0.32323885D+01  0.27724009D+01  0.94793094D+00
 -0.15786227D-01 -0.70437835D-02  0.20800387D-01  0.26654367D-02  0.20535753D-02
  0.90163018D-03  0.22179194D-02  0.17087873D-02  0.75024967D-03  0.26655437D-03
  0.20536577D-03  0.90166634D-04  0.39109703D-02  0.30111500D-03 -0.25922748D-03
  0.26159265D-04 -0.92160968D-02 -0.92926685D-02 -0.92369198D-02 -0.15950048D-03
 -0.10497967D-04 -0.48280782D-04 -0.20443509D-04 -0.34676060D-04 -0.39477468D-04
 -0.76848824D-04  0.26266042D-04  0.48455719D-04  0.78222555D-04  0.10182253D-03
  0.86885345D-04  0.29999422D-04 -0.51887852D-04 -0.23915064D-04  0.67060335D-04
  0.26344877D-04  0.20199581D-04  0.10081007D-04  0.17777635D-03  0.13630763D-03
  0.68027060D-04 -0.80333440D-05 -0.61594586D-05 -0.30740015D-05 -0.16219288D-03
 -0.66991744D-04 -0.66187910D-04  0.69069701D-05  0.11448834D-03  0.16247613D-03
  0.74311403D-04 -0.60883190D-05  0.95595003D-04 -0.10788782D-04  0.18996744D-04
  0.32222074D-04  0.36683692D-04  0.40198542D-04 -0.78230876D-05 -0.13269437D-04
 -0.15106785D-04 -0.27778052D-04  0.93902905D-04  0.15927710D-03  0.18133135D-03
 -0.17781624D-03  0.98348341D-06  0.18143349D-05  0.29288990D-05  0.38125563D-05
  0.32532612D-05  0.11232729D-05 -0.50511036D-05 -0.23280491D-05  0.65280926D-05
  0.15548288D-04  0.11921441D-04  0.59496347D-05 -0.17341760D-04 -0.13296562D-04
 -0.66359162D-05  0.43263872D-06  0.33171993D-06  0.16555150D-06 -0.71942516D-04
  0.18115369D-04 -0.74449924D-05 -0.89324755D-06 -0.21426786D-05  0.18312666D-05
 -0.17654864D-05  0.62188711D-05  0.18852718D-05  0.42826767D-06  0.19570767D-05
  0.33195725D-05  0.37792159D-05  0.30469051D-05  0.22050466D-05  0.37401764D-05
  0.42580586D-05  0.39535311D-06 -0.36579335D-06 -0.62045475D-06 -0.70636581D-06
  0.51258428D-05
MO    2     MO 0.0        OCC NO =    2.0000000  ORB. ENERGY =  -18.965500
  0.77985482D-05  0.14386799D-04  0.23224754D-04  0.30231729D-04  0.25796789D-04
  0.89070113D-05 -0.32754686D-04 -0.15096605D-04  0.42332456D-04 -0.80475515D-06
 -0.61703520D-06 -0.30794381D-06 -0.19348528D-04 -0.14835224D-04 -0.74038167D-05
  0.46346453D-05  0.35535520D-05  0.17734715D-05 -0.26189413D-03  0.84794203D-04
  0.60004400D-04  0.94498324D-05 -0.55332018D-05 -0.12736842D-04  0.35682339D-04
  0.43066246D-04  0.42865728D-06 -0.44898141D-05  0.84381395D-07  0.15566720D-06
  0.25129512D-06  0.32711158D-06  0.27912491D-06  0.96375123D-07  0.61909101D-05
  0.28533848D-05 -0.80011888D-05 -0.67423962D-04 -0.51696417D-04 -0.25800135D-04
 -0.49894018D-04 -0.38255568D-04 -0.19092210D-04 -0.38666217D-05 -0.29646803D-05
 -0.14795833D-05  0.31872557D-03  0.29805709D-04 -0.16012665D-03 -0.87981189D-05
  0.15301642D-04  0.16389889D-04  0.15834183D-04  0.91260313D-05 -0.94267176D-05
  0.53740029D-06  0.21112782D-04  0.38948961D-04  0.62875699D-04  0.81845478D-04
  0.69838895D-04  0.24113692D-04 -0.94746416D-04 -0.43668536D-04  0.12245113D-03
 -0.22794703D-04 -0.17477532D-04 -0.87225135D-05  0.37114106D-04  0.28456742D-04
  0.14201909D-04 -0.14137503D-05 -0.10839740D-05 -0.54097902D-06 -0.44097962D-03
 -0.38285868D-03  0.19939349D-03 -0.32752567D-04  0.42499340D-04 -0.43370553D-04
  0.75755360D-04 -0.56276865D-05 -0.18084560D-04  0.46911667D-05 -0.27768769D-04
 -0.51227956D-04 -0.82697806D-04 -0.10764797D-03 -0.91856209D-04 -0.31715741D-04
 -0.16794632D-04 -0.77406306D-05  0.21705536D-04 -0.46168413D-03 -0.35399011D-03
 -0.17666587D-03 -0.37790970D-03 -0.28975719D-03 -0.14460914D-03 -0.16534816D-03
 -0.12677848D-03 -0.63271346D-04  0.18235274D-03  0.56152613D-03  0.43059278D-03
  0.12874482D-03  0.40490566D-04  0.59681484D-04 -0.81193128D-04  0.12423810D-03
  0.65899713D-04  0.87559328D-04  0.88143965D-05  0.16260840D-04  0.26250038D-04
  0.34169750D-04  0.29157110D-04  0.10067249D-04 -0.78488294D-04 -0.36175183D-04
  0.10143899D-03 -0.29141416D-05 -0.22343789D-05 -0.11151117D-05 -0.59315445D-05
 -0.45479321D-05 -0.22697369D-05 -0.10168153D-05 -0.77962949D-06 -0.38908976D-06
 -0.35507170D-03  0.65629012D-04 -0.26583938D-03 -0.32636328D-04 -0.10398907D-03
 -0.75957173D-04  0.39643555D-04  0.66569857D-04 -0.16248752D-05 -0.47852049D-04
  0.10110267D-05  0.18651468D-05  0.30109252D-05  0.39193300D-05  0.33443714D-05
  0.11547311D-05  0.71830901D-05  0.33106797D-05 -0.92834914D-05 -0.67958611D-04
 -0.52106352D-04 -0.26004722D-04 -0.32657812D-04 -0.25039938D-04 -0.12496684D-04
 -0.14968424D-05 -0.11476838D-05 -0.57277467D-06  0.23938835D-03 -0.61309056D-04
  0.59472157D-04  0.31507529D-05  0.24028396D-04  0.34833900D-04  0.19422170D-04
  0.12705154D-04 -0.40801130D-05 -0.24951672D-05 -0.18107079D-05 -0.30713033D-05
 -0.34965702D-05 -0.26234568D-04 -0.62054685D-06 -0.10525649D-05 -0.11983080D-05
 -0.12207174D-03  0.82560279D+00  0.15195499D+01  0.24589185D+01  0.32323172D+01
  0.27723397D+01  0.94791002D+00 -0.15748304D-01 -0.70268624D-02  0.20750419D-01
  0.52272642D-04  0.40273252D-04  0.17682127D-04  0.18239925D-02  0.14052879D-02
  0.61699708D-03  0.19976355D-02  0.15390705D-02  0.67573485D-03  0.39830593D-02
  0.19156644D-03  0.14061815D-03  0.63590990D-04 -0.93993201D-02 -0.93406612D-02
 -0.94097647D-02  0.11917890D-04  0.16110367D-03 -0.23619056D-04  0.81269035D-04
  0.14957841D-03  0.24204610D-03  0.31817637D-03  0.27289803D-03  0.93308470D-04
 -0.15602859D-03 -0.69619652D-04  0.20558776D-03  0.92213044D-04  0.71045179D-04
  0.31192660D-04 -0.90304015D-04 -0.69574375D-04 -0.30546898D-04 -0.24962090D-04
 -0.19231945D-04 -0.84438596D-05 -0.44721118D-03 -0.13384242D-03  0.42722818D-04
 -0.15687083D-05  0.14151506D-03  0.20902343D-03  0.19475138D-03  0.30283260D-04
 -0.23059458D-05 -0.22272075D-05  0.84074279D-05  0.14260589D-04  0.16235177D-04
  0.41391883D-04 -0.18897398D-05 -0.34862008D-05 -0.56278091D-05 -0.73257353D-05
 -0.62510632D-05 -0.21583419D-05 -0.92834517D-04 -0.42787344D-04  0.11998018D-03
  0.34723751D-03  0.26623970D-03  0.13287227D-03 -0.85488840D-04 -0.65547420D-04
 -0.32712757D-04 -0.45574278D-03 -0.34943465D-03 -0.17439238D-03 -0.27802757D-03
 -0.54859788D-04  0.52398738D-04  0.13576450D-03  0.13260376D-03 -0.48234925D-04
  0.17516943D-03 -0.74043849D-04 -0.34682980D-03  0.44566627D-04 -0.11222612D-05
 -0.19035674D-05 -0.21671442D-05 -0.30561541D-04  0.29068942D-04  0.49306427D-04
  0.56133625D-04  0.45698026D-04  0.66850251D-05  0.11339068D-04  0.12909128D-04
 -0.22249352D-04  0.61315723D-05  0.11311554D-04  0.18260355D-04  0.23769556D-04
  0.20282606D-04  0.70030963D-05 -0.19761901D-04 -0.91082423D-05  0.25540462D-04
 -0.16063174D-04 -0.12316223D-04 -0.61466583D-05 -0.87624584D-05 -0.67184973D-05
 -0.33530010D-05 -0.49476202D-05 -0.37935214D-05 -0.18932330D-05 -0.24411901D-04
  0.10294975D-04 -0.88948705D-06  0.14761986D-05  0.10279540D-04  0.14052169D-04
  0.25192128D-04  0.21799023D-04 -0.47188845D-06 -0.35067786D-05  0.19945412D-05
  0.33831194D-05  0.38515618D-05  0.48163056D-05  0.31558367D-05  0.53528964D-05
  0.60940834D-05  0.40777756D-05  0.15755763D-05  0.26724756D-05  0.30425191D-05
 -0.21574164D-05
MO    3     MO 0.0        OCC NO =    2.0000000  ORB. ENERGY =  -10.074989
  0.40594983D-04  0.74889817D-04  0.12089539D-03  0.15736987D-03  0.13428400D-03
  0.46365037D-04 -0.10439745D-03 -0.48116690D-04  0.13492422D-03  0.14316379D-03
  0.10976891D-03  0.54782381D-04 -0.45033971D-04 -0.34529192D-04 -0.17232487D-04
  0.11110225D-04  0.85186159D-05  0.42513863D-05 -0.15642546D-02  0.64335913D-03
  0.35631119D-03  0.81105235D-04  0.70358894D-04  0.13019522D-04  0.64012941D-04
  0.57952805D-05  0.74033980D-05 -0.11876150D-04  0.23285280D-02  0.42956794D-02
  0.69345585D-02  0.90267347D-02  0.77025291D-02  0.26594982D-02  0.26672226D-03
  0.12293205D-03 -0.34471429D-03  0.19064746D-03  0.14617638D-03  0.72952259D-04
  0.29165469D-03  0.22362232D-03  0.11160321D-03  0.36797297D-04  0.28213834D-04
  0.14080680D-04  0.26697091D-02 -0.42250862D-04 -0.12871781D-02 -0.11290042D-03
 -0.52195119D-03 -0.22366966D-03 -0.36420932D-03 -0.70045534D-04 -0.46928144D-04
  0.19387749D-04  0.53255912D+00  0.98246758D+00  0.15860073D+01  0.20645103D+01
  0.17616504D+01  0.60825553D+00 -0.19797983D-01 -0.91248725D-02  0.25587095D-01
 -0.10550483D-02 -0.80894411D-03 -0.40371981D-03  0.52421718D-03  0.40193649D-03
  0.20059448D-03 -0.48045715D-04 -0.36838407D-04 -0.18384947D-04 -0.41513145D-02
 -0.18595753D-02  0.86898176D-03 -0.10036725D-03 -0.93074169D-02 -0.99270090D-02
 -0.10355008D-01 -0.52520452D-03  0.16905015D-03  0.15917324D-04  0.44602014D-02
  0.82282006D-02  0.13282867D-01  0.17290346D-01  0.14753884D-01  0.50941615D-02
  0.18551413D-03  0.85503294D-04 -0.23976016D-03 -0.48988263D-04 -0.37561093D-04
 -0.18745618D-04 -0.34785820D-03 -0.26671560D-03 -0.13310978D-03  0.30851484D-04
  0.23654961D-04  0.11805483D-04  0.24355431D-02  0.10368821D-02  0.11396003D-02
  0.17846385D-03 -0.50595275D-03 -0.55150636D-03 -0.41085973D-03  0.15466675D-03
 -0.41042581D-04 -0.46373075D-04  0.42972903D-04  0.79276616D-04  0.12797704D-03
  0.16658808D-03  0.14214991D-03  0.49080948D-04 -0.81855421D-04 -0.37727089D-04
  0.10579070D-03  0.14209700D-03  0.10895097D-03  0.54374169D-04 -0.84634502D-04
 -0.64892368D-04 -0.32385840D-04 -0.33031155D-05 -0.25326194D-05 -0.12639546D-05
 -0.15681378D-02 -0.83355720D-04 -0.80652622D-03 -0.75851030D-04  0.87732945D-04
  0.10688341D-04  0.42789562D-04 -0.84124546D-04 -0.83841099D-05 -0.13517012D-04
 -0.78447515D-04 -0.14472035D-03 -0.23362351D-03 -0.30410840D-03 -0.25949625D-03
 -0.89597818D-04  0.16326619D-03  0.75249237D-04 -0.21100672D-03  0.88685902D-04
  0.67998725D-04  0.33936129D-04 -0.42696263D-04 -0.32736787D-04 -0.16337951D-04
  0.82209918D-05  0.63033351D-05  0.31458060D-05  0.13829473D-02 -0.73104380D-03
  0.23841212D-03 -0.34069513D-04  0.39058718D-05  0.46093105D-04 -0.13886405D-03
  0.81769739D-04  0.29424806D-04  0.43490736D-04 -0.27877573D-04 -0.47285640D-04
 -0.53833030D-04 -0.17326842D-03 -0.38666121D-04 -0.65585060D-04 -0.74666273D-04
 -0.19651143D-03 -0.85827350D-04 -0.15796814D-03 -0.25562227D-03 -0.33602263D-03
 -0.28820466D-03 -0.98542066D-04  0.31560414D-03  0.14082195D-03 -0.41584911D-03
 -0.17161920D-03 -0.13222334D-03 -0.58053169D-04 -0.21443317D-04 -0.16520920D-04
 -0.72535738D-05  0.62470926D-04  0.48130481D-04  0.21131873D-04  0.95818733D-03
  0.32793203D-03  0.12102661D-03 -0.12379371D-04 -0.25900676D-03 -0.25529155D-03
 -0.34881782D-03  0.12389946D-03  0.13449284D-03  0.16518462D-04  0.13924708D-03
  0.25628896D-03  0.41472391D-03  0.54516619D-03  0.46758587D-03  0.15987555D-03
 -0.75447190D-03 -0.33664389D-03  0.99411392D-03 -0.50240325D-04 -0.38707462D-04
 -0.16994661D-04 -0.48268578D-04 -0.37188337D-04 -0.16327683D-04  0.32027811D-04
  0.24675702D-04  0.10833962D-04 -0.18732301D-02 -0.79001628D-03  0.34087051D-03
 -0.64109946D-04 -0.23705210D-03  0.63384443D-03  0.10369389D-02  0.97802974D-03
 -0.17882766D-03  0.52193880D-04  0.40297757D-04  0.68352624D-04  0.77817046D-04
  0.38754684D-03 -0.14612131D-04 -0.26956528D-04 -0.43516195D-04 -0.56645156D-04
 -0.48335415D-04 -0.16689057D-04  0.34757927D-04  0.16019897D-04 -0.44921463D-04
 -0.52088769D-04 -0.39938364D-04 -0.19932043D-04 -0.49529891D-04 -0.37976379D-04
 -0.18952875D-04 -0.34912223D-04 -0.26768479D-04 -0.13359347D-04  0.98853585D-04
  0.90402154D-04  0.31468362D-04 -0.17921119D-04  0.24696384D-04 -0.91205250D-04
  0.25033382D-04  0.42556028D-05 -0.93599704D-04  0.13045910D-04 -0.20517137D-04
 -0.34800948D-04 -0.39619649D-04  0.98069648D-05  0.50770467D-05  0.86116321D-05
  0.98040388D-05  0.41857436D-04  0.43230540D-04  0.73327178D-04  0.83480400D-04
 -0.74933304D-04  0.10053664D-05  0.18547048D-05  0.29940686D-05  0.38973877D-05
  0.33256479D-05  0.11482663D-05  0.12874245D-04  0.59337277D-05 -0.16638792D-04
 -0.65197812D-04 -0.49989547D-04 -0.24948287D-04  0.44375527D-04  0.34024340D-04
  0.16980530D-04 -0.26974218D-05 -0.20682120D-05 -0.10321827D-05  0.29337508D-03
 -0.72315649D-04  0.48056712D-04  0.64123270D-06  0.18243698D-05  0.20003176D-04
  0.15237714D-05 -0.75411532D-05 -0.13058902D-05  0.27504959D-05 -0.46478408D-05
 -0.78836177D-05 -0.89752202D-05 -0.24139653D-05 -0.45830036D-05 -0.77736416D-05
 -0.88500162D-05 -0.15501943D-06 -0.39597183D-05 -0.67164316D-05 -0.76464200D-05
 -0.14019698D-04
MO    4     MO 0.0        OCC NO =    2.0000000  ORB. ENERGY =  -10.050805
 -0.11542408D-04 -0.21293490D-04 -0.34374295D-04 -0.44745118D-04 -0.38181090D-04
 -0.13183013D-04  0.19576549D-04  0.90228137D-05 -0.25300911D-04 -0.12160708D-03
 -0.93240593D-04 -0.46533591D-04  0.36934109D-04  0.28318732D-04  0.14133032D-04
 -0.42626226D-05 -0.32683087D-05 -0.16311151D-05 -0.18015870D-03  0.58696080D-04
  0.42820865D-04  0.80821460D-05 -0.37987136D-04  0.38481526D-04 -0.62433072D-04
  0.14301294D-03  0.16440728D-04  0.30772858D-04 -0.19492682D-04 -0.35960192D-04
 -0.58050901D-04 -0.75565024D-04 -0.64479772D-04 -0.22263316D-04  0.63464970D-04
  0.29250946D-04 -0.82022707D-04 -0.11787193D-04 -0.90376719D-05 -0.45104317D-05
  0.15629175D-04  0.11983460D-04  0.59805865D-05 -0.11103172D-05 -0.85132083D-06
 -0.42486876D-06  0.32416714D-03 -0.11462868D-04 -0.15169437D-03 -0.14326105D-04
  0.25983473D-04  0.62662039D-05 -0.67898282D-04 -0.41028558D-04  0.11523193D-04
  0.11185874D-04 -0.15508107D-05 -0.28609429D-05 -0.46184490D-05 -0.60118483D-05
 -0.51299211D-05 -0.17712385D-05 -0.32652991D-05 -0.15049734D-05  0.42201024D-05
  0.38676470D-05  0.29654664D-05  0.14799756D-05  0.11820379D-04  0.90631169D-05
  0.45231305D-05  0.34543854D-05  0.26486036D-05  0.13218388D-05 -0.12327516D-03
 -0.17172180D-03 -0.65117361D-04 -0.20534237D-04 -0.29537233D-04  0.24208170D-04
 -0.15679019D-04  0.32392732D-04 -0.15451980D-05  0.92357705D-05 -0.11376742D-03
 -0.20987867D-03 -0.33880925D-03 -0.44102898D-03 -0.37633082D-03 -0.12993799D-03
  0.75482228D-04  0.34789690D-04 -0.97553922D-04 -0.34622607D-04 -0.26546419D-04
 -0.13248524D-04  0.36163293D-04  0.27727719D-04  0.13838075D-04  0.75200671D-05
  0.57659105D-05  0.28775934D-05  0.35234840D-03  0.30822157D-03 -0.91309820D-04
  0.15793045D-04  0.28024369D-04 -0.45327667D-04 -0.78986636D-04 -0.64687487D-04
  0.51120739D-05 -0.10120193D-05  0.41795397D-05  0.77104347D-05  0.12447032D-04
  0.16202338D-04  0.13825484D-04  0.47736074D-05  0.11648497D-04  0.53687818D-05
 -0.15054624D-04 -0.10546172D-03 -0.80861361D-04 -0.40355486D-04  0.65419592D-04
  0.50159594D-04  0.25033153D-04 -0.76991966D-06 -0.59032556D-06 -0.29461383D-06
 -0.25433594D-03  0.27338190D-03 -0.58093122D-04  0.15046360D-04 -0.10632320D-04
  0.94991832D-04 -0.35879158D-04  0.17592909D-03  0.17179956D-04  0.38099326D-04
  0.26777479D-02  0.49399221D-02  0.79745659D-02  0.10380515D-01  0.88577125D-02
  0.30583553D-02 -0.89118693D-05 -0.41074724D-05  0.11517781D-04 -0.30251113D-03
 -0.23194635D-03 -0.11575749D-03  0.89605289D-04  0.68703652D-04  0.34287938D-04
 -0.15267221D-04 -0.11705937D-04 -0.58420828D-05  0.83923627D-03  0.45421927D-03
 -0.62608441D-04  0.28633724D-04 -0.43930413D-03 -0.23967780D-03 -0.20924225D-03
  0.14233779D-03 -0.22114368D-04  0.54914302D-05 -0.74219937D-05 -0.12589106D-04
 -0.14332252D-04 -0.42776591D-04 -0.16041334D-04 -0.27209139D-04 -0.30976643D-04
  0.86028213D-05 -0.21773398D-04 -0.40074676D-04 -0.64848390D-04 -0.85245024D-04
 -0.73114162D-04 -0.24998974D-04  0.69815087D-04  0.31151356D-04 -0.91990371D-04
 -0.27516515D-04 -0.21199991D-04 -0.93079380D-05 -0.35434515D-04 -0.27300384D-04
 -0.11986339D-04 -0.41628127D-05 -0.32072228D-05 -0.14081436D-05  0.17133489D-03
  0.14085602D-04  0.61175469D-04  0.41448829D-05 -0.98209905D-04 -0.44172879D-04
 -0.10277411D-03  0.25084101D-04  0.43088500D-05  0.13521358D-04 -0.13049542D-05
 -0.24018124D-05 -0.38865858D-05 -0.51090259D-05 -0.43819818D-05 -0.14982740D-05
  0.23457495D-05  0.10466688D-05 -0.30908271D-05 -0.36192300D-04 -0.27884216D-04
 -0.12242673D-04  0.22550890D-04  0.17374245D-04  0.76282293D-05  0.24545875D-05
  0.18911274D-05  0.83030678D-06 -0.54963721D-04  0.62425215D-05  0.10207838D-04
 -0.13667680D-06  0.16799986D-04 -0.31624906D-05 -0.34246266D-04  0.18303611D-05
  0.98979807D-05  0.80242331D-05  0.19556666D-05  0.33171806D-05  0.37764929D-05
  0.53102876D-04 -0.37346452D-05 -0.68896912D-05 -0.11122098D-04 -0.14477667D-04
 -0.12353819D-04 -0.42654769D-05  0.11940962D-04  0.55035784D-05 -0.15432608D-04
 -0.67098191D-05 -0.51446637D-05 -0.25675478D-05 -0.68548699D-05 -0.52558794D-05
 -0.26230522D-05  0.56989846D-05  0.43696199D-05  0.21807466D-05  0.13689203D-04
  0.11156956D-04  0.83479948D-05  0.23938013D-05  0.43671451D-05 -0.13729504D-05
 -0.67609576D-05  0.11319710D-04 -0.16931340D-04  0.93022357D-05  0.75123437D-06
  0.12742357D-05  0.14506723D-05 -0.64063203D-05  0.63496877D-06  0.10770272D-05
  0.12261574D-05  0.78282512D-05  0.77132271D-07  0.13083093D-06  0.14894639D-06
  0.20958047D-05  0.53254698D+00  0.98244519D+00  0.15859712D+01  0.20644632D+01
  0.17616102D+01  0.60824167D+00 -0.20038077D-01 -0.92355313D-02  0.25897394D-01
  0.13747893D-03  0.10541012D-03  0.52607039D-04 -0.13031900D-03 -0.99920346D-04
 -0.49867256D-04 -0.59424408D-05 -0.45562867D-05 -0.22739064D-05 -0.33794149D-02
  0.17382759D-03 -0.80250891D-04  0.65877633D-05 -0.10246036D-01 -0.10179395D-01
 -0.10118614D-01  0.16895477D-03 -0.24307779D-05  0.15531475D-05 -0.19190449D-05
 -0.32550633D-05 -0.37057745D-05  0.50360629D-03 -0.22129215D-05 -0.37535338D-05