 Entering Link 1 = D:\Gaussian\G16W\l1.exe PID=     11956.
  
 Copyright (c) 1988,1990,1992,1993,1995,1998,2003,2009,2016,
            Gaussian, Inc.  All Rights Reserved.
  
 This is part of the Gaussian(R) 16 program.  It is based on
 the Gaussian(R) 09 system (copyright 2009, Gaussian, Inc.),
 the Gaussian(R) 03 system (copyright 2003, Gaussian, Inc.),
 the Gaussian(R) 98 system (copyright 1998, Gaussian, Inc.),
 the Gaussian(R) 94 system (copyright 1995, Gaussian, Inc.),
 the Gaussian 92(TM) system (copyright 1992, Gaussian, Inc.),
 the Gaussian 90(TM) system (copyright 1990, Gaussian, Inc.),
 the Gaussian 88(TM) system (copyright 1988, Gaussian, Inc.),
 the Gaussian 86(TM) system (copyright 1986, Carnegie Mellon
 University), and the Gaussian 82(TM) system (copyright 1983,
 Carnegie Mellon University). Gaussian is a federally registered
 trademark of Gaussian, Inc.
  
 This software contains proprietary and confidential information,
 including trade secrets, belonging to Gaussian, Inc.
  
 This software is provided under written license and may be
 used, copied, transmitted, or stored only in accord with that
 written license.
  
 The following legend is applicable only to US Government
 contracts under FAR:
  
                    RESTRICTED RIGHTS LEGEND
  
 Use, reproduction and disclosure by the US Government is
 subject to restrictions as set forth in subparagraphs (a)
 and (c) of the Commercial Computer Software - Restricted
 Rights clause in FAR 52.227-19.
  
 Gaussian, Inc.
 340 Quinnipiac St., Bldg. 40, Wallingford CT 06492
  
  
 ---------------------------------------------------------------
 Warning -- This program may not be used in any manner that
 competes with the business of Gaussian, Inc. or will provide
 assistance to any competitor of Gaussian, Inc.  The licensee
 of this program is prohibited from giving any competitor of
 Gaussian, Inc. access to this program.  By using this program,
 the user acknowledges that Gaussian, Inc. is engaged in the
 business of creating and licensing software in the field of
 computational chemistry and represents and warrants to the
 licensee that it is not a competitor of Gaussian, Inc. and that
 it will not use this program in any manner prohibited above.
 ---------------------------------------------------------------
  

 Cite this work as:
 Gaussian 16, Revision A.03,
 M. J. Frisch, G. W. Trucks, H. B. Schlegel, G. E. Scuseria, 
 M. A. Robb, J. R. Cheeseman, G. Scalmani, V. Barone, 
 G. A. Petersson, H. Nakatsuji, X. Li, M. Caricato, A. V. Marenich, 
 J. Bloino, B. G. Janesko, R. Gomperts, B. Mennucci, H. P. Hratchian, 
 J. V. Ortiz, A. F. Izmaylov, J. L. Sonnenberg, D. Williams-Young, 
 F. Ding, F. Lipparini, F. Egidi, J. Goings, B. Peng, A. Petrone, 
 T. Henderson, D. Ranasinghe, V. G. Zakrzewski, J. Gao, N. Rega, 
 G. Zheng, W. Liang, M. Hada, M. Ehara, K. Toyota, R. Fukuda, 
 J. Hasegawa, M. Ishida, T. Nakajima, Y. Honda, O. Kitao, H. Nakai, 
 T. Vreven, K. Throssell, J. A. Montgomery, Jr., J. E. Peralta, 
 F. Ogliaro, M. J. Bearpark, J. J. Heyd, E. N. Brothers, K. N. Kudin, 
 V. N. Staroverov, T. A. Keith, R. Kobayashi, J. Normand, 
 K. Raghavachari, A. P. Rendell, J. C. Burant, S. S. Iyengar, 
 J. Tomasi, M. Cossi, J. M. Millam, M. Klene, C. Adamo, R. Cammi, 
 J. W. Ochterski, R. L. Martin, K. Morokuma, O. Farkas, 
 J. B. Foresman, and D. J. Fox, Gaussian, Inc., Wallingford CT, 2016.
 
 ******************************************
 Gaussian 16:  EM64W-G16RevA.03 17-Dec-2016
                03-Dec-2025 
 ******************************************
 %nprocs=   4
 Will use up to    4 processors via shared memory.
 ------------------------------------
 #P B3LYP/6-31G* SCF=conver=7 out=wfn
 ------------------------------------
 1/38=1,172=1/1;
 2/12=2,17=6,18=5,40=1/2;
 3/5=1,6=6,7=1,11=2,25=1,30=1,74=-5/1,2,3;
 4//1;
 5/5=2,6=7,38=5/2;
 6/7=2,8=2,9=2,10=2,28=1/1;
 99/5=1,6=100,9=1/99;
 Leave Link    1 at Wed Dec 03 12:48:25 2025, MaxMem=           0 cpu:               0.0 elap:               0.1
 (Enter D:\Gaussian\G16W\l101.exe)
 ----------------------------------------------------
 Generated by Multiwfn (http://sobereva.com/multiwfn)
 ----------------------------------------------------
 Symbolic Z-matrix:
 Charge = -1 Multiplicity = 1
 C                     1.68303   1.12889   0.13658 
 C                     0.42165   1.72122   0.08982 
 C                    -0.72675   0.95153  -0.07698 
 C                    -0.58631  -0.44328  -0.18257 
 C                     0.67478  -1.02134  -0.13781 
 C                     1.83316  -0.25194   0.01823 
 H                     2.55744   1.75803   0.26248 
 H                     0.7318   -2.09999  -0.23545 
 O                    -1.667    -1.27131  -0.40607 
 O                    -1.97953   1.48658  -0.1577 
 H                     0.3263    2.80047   0.17255 
 C                    -2.695    -1.25774   0.49789 
 H                    -2.48972  -0.9179    1.50483 
 H                    -3.4705   -1.97038   0.26238 
 H                    -1.91257   2.44472  -0.09159 
 C                     3.19232  -0.90854   0.05925 
 H                     3.26124  -1.63421   0.87559 
 H                     3.40381  -1.44581  -0.87057 
 H                     3.98316  -0.16979   0.20354 
 
 ITRead=  0  0  0  0  0  0  0  0  0  0  0  0  0  0  0  0  0  0  0
 MicOpt= -1 -1 -1 -1 -1 -1 -1 -1 -1 -1 -1 -1 -1 -1 -1 -1 -1 -1 -1
 NAtoms=     19 NQM=       19 NQMF=       0 NMMI=      0 NMMIF=      0
                NMic=       0 NMicF=      0.
                    Isotopes and Nuclear Properties:
 (Nuclear quadrupole moments (NQMom) in fm**2, nuclear magnetic moments (NMagM)
  in nuclear magnetons)

  Atom         1           2           3           4           5           6           7           8           9          10
 IAtWgt=          12          12          12          12          12          12           1           1          16          16
 AtmWgt=  12.0000000  12.0000000  12.0000000  12.0000000  12.0000000  12.0000000   1.0078250   1.0078250  15.9949146  15.9949146
 NucSpn=           0           0           0           0           0           0           1           1           0           0
 AtZEff=   0.0000000   0.0000000   0.0000000   0.0000000   0.0000000   0.0000000   0.0000000   0.0000000   0.0000000   0.0000000
 NQMom=    0.0000000   0.0000000   0.0000000   0.0000000   0.0000000   0.0000000   0.0000000   0.0000000   0.0000000   0.0000000
 NMagM=    0.0000000   0.0000000   0.0000000   0.0000000   0.0000000   0.0000000   2.7928460   2.7928460   0.0000000   0.0000000
 AtZNuc=   6.0000000   6.0000000   6.0000000   6.0000000   6.0000000   6.0000000   1.0000000   1.0000000   8.0000000   8.0000000

  Atom        11          12          13          14          15          16          17          18          19
 IAtWgt=           1          12           1           1           1          12           1           1           1
 AtmWgt=   1.0078250  12.0000000   1.0078250   1.0078250   1.0078250  12.0000000   1.0078250   1.0078250   1.0078250
 NucSpn=           1           0           1           1           1           0           1           1           1
 AtZEff=   0.0000000   0.0000000   0.0000000   0.0000000   0.0000000   0.0000000   0.0000000   0.0000000   0.0000000
 NQMom=    0.0000000   0.0000000   0.0000000   0.0000000   0.0000000   0.0000000   0.0000000   0.0000000   0.0000000
 NMagM=    2.7928460   0.0000000   2.7928460   2.7928460   2.7928460   0.0000000   2.7928460   2.7928460   2.7928460
 AtZNuc=   1.0000000   6.0000000   1.0000000   1.0000000   1.0000000   6.0000000   1.0000000   1.0000000   1.0000000
 Leave Link  101 at Wed Dec 03 12:48:25 2025, MaxMem=   104857600 cpu:               0.0 elap:               0.1
 (Enter D:\Gaussian\G16W\l202.exe)
                          Input orientation:                          
 ---------------------------------------------------------------------
 Center     Atomic      Atomic             Coordinates (Angstroms)
 Number     Number       Type             X           Y           Z
 ---------------------------------------------------------------------
      1          6           0        1.683029    1.128891    0.136576
      2          6           0        0.421646    1.721215    0.089820
      3          6           0       -0.726750    0.951526   -0.076981
      4          6           0       -0.586305   -0.443279   -0.182572
      5          6           0        0.674778   -1.021343   -0.137811
      6          6           0        1.833155   -0.251940    0.018228
      7          1           0        2.557442    1.758029    0.262480
      8          1           0        0.731801   -2.099994   -0.235447
      9          8           0       -1.667002   -1.271308   -0.406073
     10          8           0       -1.979528    1.486577   -0.157702
     11          1           0        0.326301    2.800473    0.172547
     12          6           0       -2.694996   -1.257743    0.497892
     13          1           0       -2.489724   -0.917900    1.504825
     14          1           0       -3.470495   -1.970375    0.262376
     15          1           0       -1.912566    2.444723   -0.091591
     16          6           0        3.192322   -0.908544    0.059254
     17          1           0        3.261239   -1.634208    0.875589
     18          1           0        3.403810   -1.445810   -0.870567
     19          1           0        3.983160   -0.169790    0.203544
 ---------------------------------------------------------------------
                    Distance matrix (angstroms):
                    1          2          3          4          5
     1  C    0.000000
     2  C    1.394317   0.000000
     3  C    2.425716   1.392500   0.000000
     4  C    2.779110   2.403164   1.405829   0.000000
     5  C    2.390683   2.763606   2.420784   1.387981   0.000000
     6  C    1.394001   2.427102   2.830284   2.435307   1.399345
     7  H    1.084557   2.143080   3.398764   3.863544   3.380764
     8  H    3.386581   3.847549   3.385891   2.117759   1.084561
     9  O    4.156697   3.682873   2.435850   1.379671   2.370312
    10  O    3.691729   2.425275   1.364642   2.380343   3.651767
    11  H    2.153182   1.086615   2.142379   3.388346   3.850199
    12  C    4.999367   4.330609   3.014190   2.360712   3.437351
    13  H    4.844928   4.176511   3.017439   2.587581   3.566935
    14  H    6.014988   5.367157   4.022537   3.293714   4.271311
    15  H    3.835593   2.450494   1.906833   3.179277   4.325517
    16  C    2.536747   3.820106   4.340224   3.814836   2.527763
    17  H    3.266742   4.465376   4.847419   4.164326   2.844708
    18  H    3.256457   4.454850   4.841335   4.171262   2.857397
    19  H    2.642283   4.034007   4.849670   4.593897   3.433228
                    6          7          8          9         10
     6  C    0.000000
     7  H    2.150401   0.000000
     8  H    2.166249   4.297120   0.000000
     9  O    3.670183   5.241161   2.543637   0.000000
    10  O    4.194037   4.564464   4.496759   2.786627   0.000000
    11  H    3.407587   2.464299   4.934113   4.570280   2.674366
    12  C    4.663247   6.061221   3.604180   1.368981   2.910840
    13  H    4.619606   5.846187   3.847612   2.110284   2.967458
    14  H    5.580442   7.087808   4.233665   2.046486   3.788135
    15  H    4.616760   4.536286   5.260021   3.737390   0.962756
    16  C    1.510016   2.748633   2.749648   4.895013   5.703657
    17  H    2.164522   3.518310   2.801681   5.105087   6.186488
    18  H    2.163848   3.502102   2.823290   5.095031   6.171499
    19  H    2.159540   2.398464   3.806539   5.788722   6.199008
                   11         12         13         14         15
    11  H    0.000000
    12  C    5.069833   0.000000
    13  H    4.850903   1.082379   0.000000
    14  H    6.097927   1.079218   1.900867   0.000000
    15  H    2.282291   3.829875   3.766814   4.695266   0.000000
    16  C    4.688680   5.913954   5.863055   6.749954   6.109586
    17  H    5.364189   5.980060   5.829461   6.767960   6.658932
    18  H    5.346968   6.253278   6.376121   6.986759   6.633770
    19  H    4.711267   6.772596   6.644639   7.668281   6.456188
                   16         17         18         19
    16  C    0.000000
    17  H    1.094413   0.000000
    18  H    1.094509   1.762067   0.000000
    19  H    1.091788   1.765597   1.765669   0.000000
 Stoichiometry    C8H9O2(1-)
 Framework group  C1[X(C8H9O2)]
 Deg. of freedom    51
 Full point group                 C1      NOp   1
 Largest Abelian subgroup         C1      NOp   1
 Largest concise Abelian subgroup C1      NOp   1
                         Standard orientation:                         
 ---------------------------------------------------------------------
 Center     Atomic      Atomic             Coordinates (Angstroms)
 Number     Number       Type             X           Y           Z
 ---------------------------------------------------------------------
      1          6           0        1.683029    1.128891    0.136576
      2          6           0        0.421646    1.721215    0.089820
      3          6           0       -0.726750    0.951526   -0.076981
      4          6           0       -0.586305   -0.443279   -0.182572
      5          6           0        0.674778   -1.021343   -0.137811
      6          6           0        1.833155   -0.251940    0.018228
      7          1           0        2.557442    1.758029    0.262480
      8          1           0        0.731801   -2.099994   -0.235447
      9          8           0       -1.667002   -1.271308   -0.406073
     10          8           0       -1.979528    1.486577   -0.157702
     11          1           0        0.326300    2.800473    0.172547
     12          6           0       -2.694996   -1.257743    0.497892
     13          1           0       -2.489724   -0.917900    1.504825
     14          1           0       -3.470495   -1.970376    0.262376
     15          1           0       -1.912566    2.444723   -0.091591
     16          6           0        3.192322   -0.908543    0.059254
     17          1           0        3.261239   -1.634207    0.875589
     18          1           0        3.403810   -1.445809   -0.870567
     19          1           0        3.983160   -0.169789    0.203544
 ---------------------------------------------------------------------
 Rotational constants (GHZ):           2.4112696           1.0366477           0.7488470
 Leave Link  202 at Wed Dec 03 12:48:25 2025, MaxMem=   104857600 cpu:               0.0 elap:               0.0
 (Enter D:\Gaussian\G16W\l301.exe)
 Standard basis: 6-31G(d) (6D, 7F)
 Ernie: Thresh=  0.10000D-02 Tol=  0.10000D-05 Strict=F.
 There are   168 symmetry adapted cartesian basis functions of A   symmetry.
 There are   168 symmetry adapted basis functions of A   symmetry.
   168 basis functions,   316 primitive gaussians,   168 cartesian basis functions
    37 alpha electrons       37 beta electrons
       nuclear repulsion energy       505.7964338963 Hartrees.
 IExCor=  402 DFT=T Ex+Corr=B3LYP ExCW=0 ScaHFX=  0.200000
 ScaDFX=  0.800000  0.720000  1.000000  0.810000 ScalE2=  1.000000  1.000000
 IRadAn=      5 IRanWt=     -1 IRanGd=            0 ICorTp=0 IEmpDi=  4
 NAtoms=   19 NActive=   19 NUniq=   19 SFac= 1.00D+00 NAtFMM=   60 NAOKFM=F Big=F
 Integral buffers will be    131072 words long.
 Raffenetti 2 integral format.
 Two-electron integral symmetry is turned on.
 Leave Link  301 at Wed Dec 03 12:48:25 2025, MaxMem=   104857600 cpu:               0.0 elap:               0.1
 (Enter D:\Gaussian\G16W\l302.exe)
 NPDir=0 NMtPBC=     1 NCelOv=     1 NCel=       1 NClECP=     1 NCelD=      1
         NCelK=      1 NCelE2=     1 NClLst=     1 CellRange=     0.0.
 One-electron integrals computed using PRISM.
 One-electron integral symmetry used in STVInt
 NBasis=   168 RedAO= T EigKep=  3.69D-04  NBF=   168
 NBsUse=   168 1.00D-06 EigRej= -1.00D+00 NBFU=   168
 Precomputing XC quadrature grid using
 IXCGrd= 4 IRadAn=           5 IRanWt=          -1 IRanGd=           0 AccXCQ= 0.00D+00.
 Generated NRdTot=       0 NPtTot=           0 NUsed=           0 NTot=          32
 NSgBfM=   168   168   168   168   168 MxSgAt=    19 MxSgA2=    19.
 Leave Link  302 at Wed Dec 03 12:48:26 2025, MaxMem=   104857600 cpu:               1.0 elap:               0.4
 (Enter D:\Gaussian\G16W\l303.exe)
 DipDrv:  MaxL=1.
 Leave Link  303 at Wed Dec 03 12:48:26 2025, MaxMem=   104857600 cpu:               0.0 elap:               0.1
 (Enter D:\Gaussian\G16W\l401.exe)
 ExpMin= 1.61D-01 ExpMax= 5.48D+03 ExpMxC= 8.25D+02 IAcc=3 IRadAn=         5 AccDes= 0.00D+00
 Harris functional with IExCor=  402 and IRadAn=       5 diagonalized for initial guess.
 HarFok:  IExCor=  402 AccDes= 0.00D+00 IRadAn=         5 IDoV= 1 UseB2=F ITyADJ=14
 ICtDFT=  3500011 ScaDFX=  1.000000  1.000000  1.000000  1.000000
 FoFCou: FMM=F IPFlag=           0 FMFlag=      100000 FMFlg1=           0
         NFxFlg=           0 DoJE=T BraDBF=F KetDBF=T FulRan=T
         wScrn=  0.000000 ICntrl=       500 IOpCl=  0 I1Cent=   200000004 NGrid=           0
         NMat0=    1 NMatS0=      1 NMatT0=    0 NMatD0=    1 NMtDS0=    0 NMtDT0=    0
 Petite list used in FoFCou.
 Harris En= -460.837333488905    
 JPrj=0 DoOrth=F DoCkMO=F.
 Leave Link  401 at Wed Dec 03 12:48:27 2025, MaxMem=   104857600 cpu:               1.0 elap:               1.1
 (Enter D:\Gaussian\G16W\l502.exe)
 Keep R1 ints in memory in canonical form, NReq=104755543.
 FoFCou: FMM=F IPFlag=           0 FMFlag=           0 FMFlg1=           0
         NFxFlg=           0 DoJE=F BraDBF=F KetDBF=F FulRan=T
         wScrn=  0.000000 ICntrl=       600 IOpCl=  0 I1Cent=           0 NGrid=           0
         NMat0=    1 NMatS0=  14196 NMatT0=    0 NMatD0=    1 NMtDS0=    0 NMtDT0=    0
 Symmetry not used in FoFCou.
 Two-electron integral symmetry not used.
 Closed shell SCF:
 Using DIIS extrapolation, IDIIS=  1040.
 NGot=   104857600 LenX=     4027843 LenY=     3999178
 Requested convergence on RMS density matrix=1.00D-07 within 128 cycles.
 Requested convergence on MAX density matrix=1.00D-05.
 Requested convergence on             energy=1.00D-05.
 No special actions if energy rises.
 Integral accuracy reduced to 1.0D-05 until final iterations.

 Cycle   1  Pass 0  IDiag  1:
 CalDSu:  requested number of processors reduced to:   3 ShMem   1 Linda.
 E= -460.179146648061    
 DIIS: error= 3.22D-02 at cycle   1 NSaved=   1.
 NSaved= 1 IEnMin= 1 EnMin= -460.179146648061     IErMin= 1 ErrMin= 3.22D-02
 ErrMax= 3.22D-02  0.00D+00 EMaxC= 1.00D-01 BMatC= 3.55D-01 BMatP= 3.55D-01
 IDIUse=3 WtCom= 6.78D-01 WtEn= 3.22D-01
 Coeff-Com:  0.100D+01
 Coeff-En:   0.100D+01
 Coeff:      0.100D+01
 Gap=    -0.099 Goal=   None    Shift=    0.000
 GapD=   -0.099 DampG=0.250 DampE=0.500 DampFc=0.2500 IDamp=-1.
 Damping current iteration by 2.50D-01
 RMSDP=3.19D-02 MaxDP=2.11D+00              OVMax= 9.78D-01

 Cycle   2  Pass 0  IDiag  1:
 CalDSu:  requested number of processors reduced to:   3 ShMem   1 Linda.
 E= -460.297880775516     Delta-E=       -0.118734127455 Rises=F Damp=T
 DIIS: error= 1.72D-02 at cycle   2 NSaved=   2.
 NSaved= 2 IEnMin= 2 EnMin= -460.297880775516     IErMin= 2 ErrMin= 1.72D-02
 ErrMax= 1.72D-02  0.00D+00 EMaxC= 1.00D-01 BMatC= 7.99D-02 BMatP= 3.55D-01
 IDIUse=3 WtCom= 8.28D-01 WtEn= 1.72D-01
 Coeff-Com: -0.498D+00 0.150D+01
 Coeff-En:   0.681D-01 0.932D+00
 Coeff:     -0.401D+00 0.140D+01
 Gap=    -0.097 Goal=   None    Shift=    0.000
 RMSDP=8.69D-03 MaxDP=5.00D-01 DE=-1.19D-01 OVMax= 9.71D-01

 Cycle   3  Pass 0  IDiag  1:
 CalDSu:  requested number of processors reduced to:   3 ShMem   1 Linda.
 E= -460.382035007687     Delta-E=       -0.084154232171 Rises=F Damp=F
 DIIS: error= 1.73D-02 at cycle   3 NSaved=   3.
 NSaved= 3 IEnMin= 3 EnMin= -460.382035007687     IErMin= 2 ErrMin= 1.72D-02
 ErrMax= 1.73D-02  0.00D+00 EMaxC= 1.00D-01 BMatC= 1.53D-01 BMatP= 7.99D-02
 IDIUse=2 WtCom= 0.00D+00 WtEn= 1.00D+00
 Coeff-En:   0.000D+00 0.330D+00 0.670D+00
 Coeff:      0.000D+00 0.330D+00 0.670D+00
 Gap=    -0.068 Goal=   None    Shift=    0.000
 RMSDP=1.05D-02 MaxDP=2.82D-01 DE=-8.42D-02 OVMax= 9.74D-01

 Cycle   4  Pass 0  IDiag  1:
 CalDSu:  requested number of processors reduced to:   3 ShMem   1 Linda.
 E= -459.565858297332     Delta-E=        0.816176710355 Rises=F Damp=F
 DIIS: error= 3.71D-02 at cycle   4 NSaved=   4.
 NSaved= 4 IEnMin= 3 EnMin= -460.382035007687     IErMin= 2 ErrMin= 1.72D-02
 ErrMax= 3.71D-02  0.00D+00 EMaxC= 1.00D-01 BMatC= 6.04D-01 BMatP= 7.99D-02
 IDIUse=2 WtCom= 0.00D+00 WtEn= 1.00D+00
 Coeff-En:   0.000D+00 0.000D+00 0.759D+00 0.241D+00
 Coeff:      0.000D+00 0.000D+00 0.759D+00 0.241D+00
 Gap=    -0.007 Goal=   None    Shift=    0.000
 RMSDP=9.79D-03 MaxDP=2.49D-01 DE= 8.16D-01 OVMax= 9.42D-01

 Cycle   5  Pass 0  IDiag  1:
 CalDSu:  requested number of processors reduced to:   3 ShMem   1 Linda.
 E= -460.507804431787     Delta-E=       -0.941946134456 Rises=F Damp=F
 DIIS: error= 1.74D-02 at cycle   5 NSaved=   5.
 NSaved= 5 IEnMin= 5 EnMin= -460.507804431787     IErMin= 2 ErrMin= 1.72D-02
 ErrMax= 1.74D-02  0.00D+00 EMaxC= 1.00D-01 BMatC= 6.79D-02 BMatP= 7.99D-02
 IDIUse=3 WtCom= 8.26D-01 WtEn= 1.74D-01
 EnCoef did     3 forward-backward iterations
 Coeff-Com: -0.248D+00 0.581D+00 0.365D+00 0.595D-01 0.242D+00
 Coeff-En:   0.000D+00 0.000D+00 0.260D+00 0.399D-01 0.700D+00
 Coeff:     -0.205D+00 0.480D+00 0.347D+00 0.561D-01 0.321D+00
 Gap=     0.114 Goal=   None    Shift=    0.000
 RMSDP=4.12D-03 MaxDP=1.22D-01 DE=-9.42D-01 OVMax= 2.22D-01

 Cycle   6  Pass 0  IDiag  1:
 CalDSu:  requested number of processors reduced to:   3 ShMem   1 Linda.
 E= -460.560344317776     Delta-E=       -0.052539885989 Rises=F Damp=F
 DIIS: error= 7.87D-03 at cycle   6 NSaved=   6.
 NSaved= 6 IEnMin= 6 EnMin= -460.560344317776     IErMin= 6 ErrMin= 7.87D-03
 ErrMax= 7.87D-03  0.00D+00 EMaxC= 1.00D-01 BMatC= 1.20D-02 BMatP= 6.79D-02
 IDIUse=3 WtCom= 9.21D-01 WtEn= 7.87D-02
 Coeff-Com: -0.150D+00 0.256D+00 0.829D-01-0.541D-02 0.257D+00 0.560D+00
 Coeff-En:   0.000D+00 0.000D+00 0.000D+00 0.000D+00 0.167D+00 0.833D+00
 Coeff:     -0.139D+00 0.235D+00 0.764D-01-0.499D-02 0.250D+00 0.582D+00
 Gap=     0.047 Goal=   None    Shift=    0.000
 RMSDP=1.03D-03 MaxDP=1.91D-02 DE=-5.25D-02 OVMax= 5.46D-02

 Cycle   7  Pass 0  IDiag  1:
 CalDSu:  requested number of processors reduced to:   3 ShMem   1 Linda.
 E= -460.573339801752     Delta-E=       -0.012995483975 Rises=F Damp=F
 DIIS: error= 2.72D-03 at cycle   7 NSaved=   7.
 NSaved= 7 IEnMin= 7 EnMin= -460.573339801752     IErMin= 7 ErrMin= 2.72D-03
 ErrMax= 2.72D-03  0.00D+00 EMaxC= 1.00D-01 BMatC= 1.03D-03 BMatP= 1.20D-02
 IDIUse=3 WtCom= 9.73D-01 WtEn= 2.72D-02
 Coeff-Com: -0.864D-01 0.136D+00 0.340D-01-0.155D-01 0.151D+00 0.264D+00
 Coeff-Com:  0.517D+00
 Coeff-En:   0.000D+00 0.000D+00 0.000D+00 0.000D+00 0.000D+00 0.000D+00
 Coeff-En:   0.100D+01
 Coeff:     -0.840D-01 0.132D+00 0.330D-01-0.151D-01 0.147D+00 0.257D+00
 Coeff:      0.530D+00
 Gap=     0.051 Goal=   None    Shift=    0.000
 RMSDP=2.19D-04 MaxDP=5.21D-03 DE=-1.30D-02 OVMax= 9.08D-03

 Cycle   8  Pass 0  IDiag  1:
 CalDSu:  requested number of processors reduced to:   3 ShMem   1 Linda.
 E= -460.573954735518     Delta-E=       -0.000614933766 Rises=F Damp=F
 DIIS: error= 1.20D-03 at cycle   8 NSaved=   8.
 NSaved= 8 IEnMin= 8 EnMin= -460.573954735518     IErMin= 8 ErrMin= 1.20D-03
 ErrMax= 1.20D-03  0.00D+00 EMaxC= 1.00D-01 BMatC= 4.58D-04 BMatP= 1.03D-03
 IDIUse=3 WtCom= 9.88D-01 WtEn= 1.20D-02
 Coeff-Com: -0.298D-01 0.520D-01 0.321D-01-0.110D-01 0.473D-01-0.707D-01
 Coeff-Com:  0.207D+00 0.773D+00
 Coeff-En:   0.000D+00 0.000D+00 0.000D+00 0.000D+00 0.000D+00 0.000D+00
 Coeff-En:   0.000D+00 0.100D+01
 Coeff:     -0.295D-01 0.513D-01 0.317D-01-0.108D-01 0.467D-01-0.698D-01
 Coeff:      0.205D+00 0.776D+00
 Gap=     0.056 Goal=   None    Shift=    0.000
 RMSDP=2.47D-04 MaxDP=3.82D-03 DE=-6.15D-04 OVMax= 1.73D-02

 Cycle   9  Pass 0  IDiag  1:
 CalDSu:  requested number of processors reduced to:   3 ShMem   1 Linda.
 E= -460.574484404066     Delta-E=       -0.000529668548 Rises=F Damp=F
 DIIS: error= 3.96D-04 at cycle   9 NSaved=   9.
 NSaved= 9 IEnMin= 9 EnMin= -460.574484404066     IErMin= 9 ErrMin= 3.96D-04
 ErrMax= 3.96D-04  0.00D+00 EMaxC= 1.00D-01 BMatC= 4.19D-05 BMatP= 4.58D-04
 IDIUse=3 WtCom= 9.96D-01 WtEn= 3.96D-03
 Coeff-Com: -0.327D-02 0.555D-02 0.433D-02-0.237D-02-0.839D-03-0.681D-01
 Coeff-Com: -0.728D-01 0.343D+00 0.794D+00
 Coeff-En:   0.000D+00 0.000D+00 0.000D+00 0.000D+00 0.000D+00 0.000D+00
 Coeff-En:   0.000D+00 0.000D+00 0.100D+01
 Coeff:     -0.326D-02 0.553D-02 0.431D-02-0.236D-02-0.836D-03-0.679D-01
 Coeff:     -0.725D-01 0.342D+00 0.795D+00
 Gap=     0.055 Goal=   None    Shift=    0.000
 RMSDP=1.21D-04 MaxDP=2.21D-03 DE=-5.30D-04 OVMax= 1.12D-02

 Cycle  10  Pass 0  IDiag  1:
 CalDSu:  requested number of processors reduced to:   3 ShMem   1 Linda.
 E= -460.574521323349     Delta-E=       -0.000036919284 Rises=F Damp=F
 DIIS: error= 2.12D-04 at cycle  10 NSaved=  10.
 NSaved=10 IEnMin=10 EnMin= -460.574521323349     IErMin=10 ErrMin= 2.12D-04
 ErrMax= 2.12D-04  0.00D+00 EMaxC= 1.00D-01 BMatC= 1.95D-05 BMatP= 4.19D-05
 IDIUse=3 WtCom= 9.98D-01 WtEn= 2.12D-03
 Coeff-Com:  0.849D-03-0.153D-02 0.254D-02-0.322D-04-0.158D-02-0.347D-01
 Coeff-Com: -0.764D-01 0.122D+00 0.533D+00 0.456D+00
 Coeff-En:   0.000D+00 0.000D+00 0.000D+00 0.000D+00 0.000D+00 0.000D+00
 Coeff-En:   0.000D+00 0.000D+00 0.275D+00 0.725D+00
 Coeff:      0.847D-03-0.153D-02 0.254D-02-0.321D-04-0.157D-02-0.346D-01
 Coeff:     -0.762D-01 0.122D+00 0.532D+00 0.457D+00
 Gap=     0.056 Goal=   None    Shift=    0.000
 RMSDP=4.24D-05 MaxDP=9.38D-04 DE=-3.69D-05 OVMax= 3.65D-03

 Cycle  11  Pass 0  IDiag  1:
 CalDSu:  requested number of processors reduced to:   3 ShMem   1 Linda.
 E= -460.574545935642     Delta-E=       -0.000024612292 Rises=F Damp=F
 DIIS: error= 3.32D-05 at cycle  11 NSaved=  11.
 NSaved=11 IEnMin=11 EnMin= -460.574545935642     IErMin=11 ErrMin= 3.32D-05
 ErrMax= 3.32D-05  0.00D+00 EMaxC= 1.00D-01 BMatC= 3.57D-07 BMatP= 1.95D-05
 IDIUse=1 WtCom= 1.00D+00 WtEn= 0.00D+00
 Coeff-Com:  0.227D-03-0.398D-03 0.485D-03-0.257D-04 0.142D-03-0.527D-02
 Coeff-Com: -0.238D-01 0.109D-01 0.163D+00 0.171D+00 0.684D+00
 Coeff:      0.227D-03-0.398D-03 0.485D-03-0.257D-04 0.142D-03-0.527D-02
 Coeff:     -0.238D-01 0.109D-01 0.163D+00 0.171D+00 0.684D+00
 Gap=     0.056 Goal=   None    Shift=    0.000
 RMSDP=8.79D-06 MaxDP=2.43D-04 DE=-2.46D-05 OVMax= 5.93D-04

 Initial convergence to 1.0D-05 achieved.  Increase integral accuracy.
 Cycle  12  Pass 1  IDiag  1:
 CalDSu:  requested number of processors reduced to:   3 ShMem   1 Linda.
 E= -460.574550625859     Delta-E=       -0.000004690217 Rises=F Damp=F
 DIIS: error= 2.76D-05 at cycle   1 NSaved=   1.
 NSaved= 1 IEnMin= 1 EnMin= -460.574550625859     IErMin= 1 ErrMin= 2.76D-05
 ErrMax= 2.76D-05  0.00D+00 EMaxC= 1.00D-01 BMatC= 2.57D-07 BMatP= 2.57D-07
 IDIUse=1 WtCom= 1.00D+00 WtEn= 0.00D+00
 Coeff-Com:  0.100D+01
 Coeff:      0.100D+01
 Gap=     0.056 Goal=   None    Shift=    0.000
 RMSDP=8.79D-06 MaxDP=2.43D-04 DE=-4.69D-06 OVMax= 3.13D-03

 Cycle  13  Pass 1  IDiag  1:
 CalDSu:  requested number of processors reduced to:   3 ShMem   1 Linda.
 E= -460.574544772691     Delta-E=        0.000005853168 Rises=F Damp=F
 DIIS: error= 1.19D-04 at cycle   2 NSaved=   2.
 NSaved= 2 IEnMin= 1 EnMin= -460.574550625859     IErMin= 1 ErrMin= 2.76D-05
 ErrMax= 1.19D-04  0.00D+00 EMaxC= 1.00D-01 BMatC= 4.46D-06 BMatP= 2.57D-07
 IDIUse=3 WtCom= 4.79D-01 WtEn= 5.21D-01
 Coeff-Com:  0.812D+00 0.188D+00
 Coeff-En:   0.882D+00 0.118D+00
 Coeff:      0.848D+00 0.152D+00
 Gap=     0.056 Goal=   None    Shift=    0.000
 RMSDP=2.03D-05 MaxDP=4.12D-04 DE= 5.85D-06 OVMax= 2.13D-03

 Cycle  14  Pass 1  IDiag  1:
 CalDSu:  requested number of processors reduced to:   3 ShMem   1 Linda.
 E= -460.574550786054     Delta-E=       -0.000006013363 Rises=F Damp=F
 DIIS: error= 2.07D-05 at cycle   3 NSaved=   3.
 NSaved= 3 IEnMin= 3 EnMin= -460.574550786054     IErMin= 3 ErrMin= 2.07D-05
 ErrMax= 2.07D-05  0.00D+00 EMaxC= 1.00D-01 BMatC= 1.57D-07 BMatP= 2.57D-07
 IDIUse=1 WtCom= 1.00D+00 WtEn= 0.00D+00
 Coeff-Com:  0.457D+00 0.106D-01 0.532D+00
 Coeff:      0.457D+00 0.106D-01 0.532D+00
 Gap=     0.056 Goal=   None    Shift=    0.000
 RMSDP=4.37D-06 MaxDP=8.80D-05 DE=-6.01D-06 OVMax= 4.49D-04

 Cycle  15  Pass 1  IDiag  1:
 CalDSu:  requested number of processors reduced to:   3 ShMem   1 Linda.
 E= -460.574551000305     Delta-E=       -0.000000214250 Rises=F Damp=F
 DIIS: error= 1.27D-06 at cycle   4 NSaved=   4.
 NSaved= 4 IEnMin= 4 EnMin= -460.574551000305     IErMin= 4 ErrMin= 1.27D-06
 ErrMax= 1.27D-06  0.00D+00 EMaxC= 1.00D-01 BMatC= 8.22D-10 BMatP= 1.57D-07
 IDIUse=1 WtCom= 1.00D+00 WtEn= 0.00D+00
 Coeff-Com:  0.561D-01-0.195D-01 0.185D+00 0.779D+00
 Coeff:      0.561D-01-0.195D-01 0.185D+00 0.779D+00
 Gap=     0.056 Goal=   None    Shift=    0.000
 RMSDP=8.31D-07 MaxDP=2.15D-05 DE=-2.14D-07 OVMax= 6.39D-05

 Cycle  16  Pass 1  IDiag  1:
 CalDSu:  requested number of processors reduced to:   3 ShMem   1 Linda.
 E= -460.574551001102     Delta-E=       -0.000000000797 Rises=F Damp=F
 DIIS: error= 1.43D-06 at cycle   5 NSaved=   5.
 NSaved= 5 IEnMin= 5 EnMin= -460.574551001102     IErMin= 4 ErrMin= 1.27D-06
 ErrMax= 1.43D-06  0.00D+00 EMaxC= 1.00D-01 BMatC= 6.43D-10 BMatP= 8.22D-10
 IDIUse=1 WtCom= 1.00D+00 WtEn= 0.00D+00
 Coeff-Com: -0.192D-01-0.958D-02 0.498D-01 0.501D+00 0.478D+00
 Coeff:     -0.192D-01-0.958D-02 0.498D-01 0.501D+00 0.478D+00
 Gap=     0.056 Goal=   None    Shift=    0.000
 RMSDP=2.56D-07 MaxDP=6.62D-06 DE=-7.97D-10 OVMax= 1.43D-05

 Cycle  17  Pass 1  IDiag  1:
 CalDSu:  requested number of processors reduced to:   3 ShMem   1 Linda.
 E= -460.574551001664     Delta-E=       -0.000000000562 Rises=F Damp=F
 DIIS: error= 6.71D-07 at cycle   6 NSaved=   6.
 NSaved= 6 IEnMin= 6 EnMin= -460.574551001664     IErMin= 6 ErrMin= 6.71D-07
 ErrMax= 6.71D-07  0.00D+00 EMaxC= 1.00D-01 BMatC= 1.56D-10 BMatP= 6.43D-10
 IDIUse=1 WtCom= 1.00D+00 WtEn= 0.00D+00
 Coeff-Com: -0.181D-01 0.255D-02-0.825D-02 0.144D+00 0.200D+00 0.679D+00
 Coeff:     -0.181D-01 0.255D-02-0.825D-02 0.144D+00 0.200D+00 0.679D+00
 Gap=     0.056 Goal=   None    Shift=    0.000
 RMSDP=2.01D-07 MaxDP=4.42D-06 DE=-5.62D-10 OVMax= 1.57D-05

 Cycle  18  Pass 1  IDiag  1:
 CalDSu:  requested number of processors reduced to:   3 ShMem   1 Linda.
 E= -460.574551001869     Delta-E=       -0.000000000205 Rises=F Damp=F
 DIIS: error= 1.97D-07 at cycle   7 NSaved=   7.
 NSaved= 7 IEnMin= 7 EnMin= -460.574551001869     IErMin= 7 ErrMin= 1.97D-07
 ErrMax= 1.97D-07  0.00D+00 EMaxC= 1.00D-01 BMatC= 1.43D-11 BMatP= 1.56D-10
 IDIUse=1 WtCom= 1.00D+00 WtEn= 0.00D+00
 Coeff-Com: -0.812D-02 0.386D-02-0.146D-01 0.510D-02 0.223D-01 0.397D+00
 Coeff-Com:  0.594D+00
 Coeff:     -0.812D-02 0.386D-02-0.146D-01 0.510D-02 0.223D-01 0.397D+00
 Coeff:      0.594D+00
 Gap=     0.056 Goal=   None    Shift=    0.000
 RMSDP=8.04D-08 MaxDP=1.83D-06 DE=-2.05D-10 OVMax= 6.35D-06

 SCF Done:  E(RB3LYP) =  -460.574551002     A.U. after   18 cycles
            NFock= 18  Conv=0.80D-07     -V/T= 2.0084
 KE= 4.567559999219D+02 PE=-2.097907950053D+03 EE= 6.747809652327D+02
 Leave Link  502 at Wed Dec 03 12:48:49 2025, MaxMem=   104857600 cpu:              22.0 elap:              22.2
 (Enter D:\Gaussian\G16W\l601.exe)
 Copying SCF densities to generalized density rwf, IOpCl= 0 IROHF=0.

 **********************************************************************

            Population analysis using the SCF density.

 **********************************************************************

 Orbital symmetries:
       Occupied  (A) (A) (A) (A) (A) (A) (A) (A) (A) (A) (A) (A)
                 (A) (A) (A) (A) (A) (A) (A) (A) (A) (A) (A) (A)
                 (A) (A) (A) (A) (A) (A) (A) (A) (A) (A) (A) (A)
                 (A)
       Virtual   (A) (A) (A) (A) (A) (A) (A) (A) (A) (A) (A) (A)
                 (A) (A) (A) (A) (A) (A) (A) (A) (A) (A) (A) (A)
                 (A) (A) (A) (A) (A) (A) (A) (A) (A) (A) (A) (A)
                 (A) (A) (A) (A) (A) (A) (A) (A) (A) (A) (A) (A)
                 (A) (A) (A) (A) (A) (A) (A) (A) (A) (A) (A) (A)
                 (A) (A) (A) (A) (A) (A) (A) (A) (A) (A) (A) (A)
                 (A) (A) (A) (A) (A) (A) (A) (A) (A) (A) (A) (A)
                 (A) (A) (A) (A) (A) (A) (A) (A) (A) (A) (A) (A)
                 (A) (A) (A) (A) (A) (A) (A) (A) (A) (A) (A) (A)
                 (A) (A) (A) (A) (A) (A) (A) (A) (A) (A) (A) (A)
                 (A) (A) (A) (A) (A) (A) (A) (A) (A) (A) (A)
 The electronic state is 1-A.
 Alpha  occ. eigenvalues --  -19.01261 -18.96550 -10.07499 -10.05080 -10.04612
 Alpha  occ. eigenvalues --  -10.02711 -10.01485 -10.01142  -9.99722  -9.94493
 Alpha  occ. eigenvalues --   -0.89678  -0.84376  -0.67930  -0.60812  -0.56739
 Alpha  occ. eigenvalues --   -0.52856  -0.45427  -0.45119  -0.38848  -0.37212
 Alpha  occ. eigenvalues --   -0.31945  -0.30428  -0.28409  -0.27697  -0.26820
 Alpha  occ. eigenvalues --   -0.25151  -0.24851  -0.22552  -0.21190  -0.19715
 Alpha  occ. eigenvalues --   -0.18384  -0.16028  -0.13514  -0.12850  -0.06618
 Alpha  occ. eigenvalues --   -0.04062   0.11867
 Alpha virt. eigenvalues --    0.17448   0.18767   0.21311   0.23238   0.25396
 Alpha virt. eigenvalues --    0.28298   0.29381   0.31096   0.32590   0.33943
 Alpha virt. eigenvalues --    0.36142   0.36694   0.38706   0.39879   0.42381
 Alpha virt. eigenvalues --    0.47175   0.49325   0.51267   0.53692   0.55946
 Alpha virt. eigenvalues --    0.63187   0.67079   0.67442   0.70001   0.70876
 Alpha virt. eigenvalues --    0.72418   0.74293   0.75964   0.76293   0.77482
 Alpha virt. eigenvalues --    0.78538   0.78867   0.81554   0.82054   0.83429
 Alpha virt. eigenvalues --    0.85203   0.85486   0.88486   0.90001   0.90534
 Alpha virt. eigenvalues --    0.91898   0.96149   0.98290   1.00851   1.01386
 Alpha virt. eigenvalues --    1.02733   1.03387   1.04965   1.06527   1.08273
 Alpha virt. eigenvalues --    1.10025   1.11128   1.14535   1.15982   1.18558
 Alpha virt. eigenvalues --    1.20021   1.21096   1.23871   1.27308   1.31208
 Alpha virt. eigenvalues --    1.34668   1.35755   1.40603   1.42558   1.46371
 Alpha virt. eigenvalues --    1.48170   1.52961   1.54709   1.56613   1.57170
 Alpha virt. eigenvalues --    1.61092   1.64371   1.66981   1.71563   1.79601
 Alpha virt. eigenvalues --    1.83235   1.89399   1.91857   1.94524   1.96468
 Alpha virt. eigenvalues --    1.98863   2.01966   2.03501   2.04833   2.05205
 Alpha virt. eigenvalues --    2.08561   2.10883   2.12475   2.14916   2.18958
 Alpha virt. eigenvalues --    2.21252   2.25710   2.28441   2.31968   2.32877
 Alpha virt. eigenvalues --    2.40969   2.41818   2.43446   2.47082   2.47644
 Alpha virt. eigenvalues --    2.49272   2.50105   2.52353   2.56072   2.63521
 Alpha virt. eigenvalues --    2.64255   2.66114   2.72176   2.76136   2.77930
 Alpha virt. eigenvalues --    2.84616   2.86265   2.94876   3.00032   3.02292
 Alpha virt. eigenvalues --    3.02804   3.09266   3.14193   3.24739   3.40828
 Alpha virt. eigenvalues --    3.61118   4.05210   4.26046   4.28625   4.35092
 Alpha virt. eigenvalues --    4.39258   4.43592   4.48086   4.56621   4.71316
 Alpha virt. eigenvalues --    5.10327
          Condensed to atoms (all electrons):
               1          2          3          4          5          6
     1  C    5.073313   0.414745  -0.006785  -0.034751  -0.042081   0.573464
     2  C    0.414745   5.271152   0.473457  -0.055005  -0.046689  -0.017190
     3  C   -0.006785   0.473457   4.777173   0.392195  -0.071333  -0.034646
     4  C   -0.034751  -0.055005   0.392195   4.724036   0.480080  -0.002352
     5  C   -0.042081  -0.046689  -0.071333   0.480080   5.274941   0.470783
     6  C    0.573464  -0.017190  -0.034646  -0.002352   0.470783   4.671279
     7  H    0.334671  -0.052429   0.004505   0.000403   0.007397  -0.045273
     8  H    0.006954   0.000070   0.009797  -0.034704   0.331990  -0.065526
     9  O    0.000267   0.004398  -0.058371   0.284304  -0.054443   0.004486
    10  O    0.004334  -0.066682   0.279739  -0.049506   0.003284   0.000196
    11  H   -0.039528   0.310626  -0.043781   0.003707   0.000993   0.004186
    12  C   -0.000030  -0.000230  -0.000712  -0.046366   0.004654  -0.000326
    13  H   -0.000027  -0.000289   0.002778  -0.001889   0.002923  -0.000132
    14  H    0.000000   0.000015   0.000376   0.002239  -0.000296   0.000006
    15  H    0.000351  -0.015318  -0.026242   0.005823  -0.000127   0.000004
    16  C   -0.055130   0.009085   0.000195   0.006117  -0.075873   0.330547
    17  H   -0.000427  -0.000168   0.000010  -0.000152   0.002528  -0.029894
    18  H   -0.000507  -0.000094   0.000041  -0.000084  -0.002066  -0.025483
    19  H   -0.002970  -0.000068   0.000024  -0.000125   0.003312  -0.026743
               7          8          9         10         11         12
     1  C    0.334671   0.006954   0.000267   0.004334  -0.039528  -0.000030
     2  C   -0.052429   0.000070   0.004398  -0.066682   0.310626  -0.000230
     3  C    0.004505   0.009797  -0.058371   0.279739  -0.043781  -0.000712
     4  C    0.000403  -0.034704   0.284304  -0.049506   0.003707  -0.046366
     5  C    0.007397   0.331990  -0.054443   0.003284   0.000993   0.004654
     6  C   -0.045273  -0.065526   0.004486   0.000196   0.004186  -0.000326
     7  H    0.722603  -0.000230   0.000002  -0.000061  -0.007934   0.000000
     8  H   -0.000230   0.692052   0.000402  -0.000068   0.000025  -0.000395
     9  O    0.000002   0.000402   8.168687  -0.001569  -0.000091   0.211028
    10  O   -0.000061  -0.000068  -0.001569   8.262684  -0.008100  -0.003247
    11  H   -0.007934   0.000025  -0.000091  -0.008100   0.725179   0.000049
    12  C    0.000000  -0.000395   0.211028  -0.003247   0.000049   5.456078
    13  H    0.000000   0.000278  -0.040575  -0.000342   0.000001   0.364243
    14  H    0.000000  -0.000089  -0.038867   0.000031   0.000000   0.378928
    15  H   -0.000022   0.000011  -0.001007   0.193251   0.014407   0.004791
    16  C   -0.014737  -0.011554  -0.000069   0.000001  -0.000267  -0.000001
    17  H    0.000123   0.002195  -0.000007   0.000000   0.000001   0.000004
    18  H    0.000151   0.002507   0.000004   0.000000   0.000006  -0.000001
    19  H    0.009093   0.000071   0.000000   0.000000  -0.000009   0.000000
              13         14         15         16         17         18
     1  C   -0.000027   0.000000   0.000351  -0.055130  -0.000427  -0.000507
     2  C   -0.000289   0.000015  -0.015318   0.009085  -0.000168  -0.000094
     3  C    0.002778   0.000376  -0.026242   0.000195   0.000010   0.000041
     4  C   -0.001889   0.002239   0.005823   0.006117  -0.000152  -0.000084
     5  C    0.002923  -0.000296  -0.000127  -0.075873   0.002528  -0.002066
     6  C   -0.000132   0.000006   0.000004   0.330547  -0.029894  -0.025483
     7  H    0.000000   0.000000  -0.000022  -0.014737   0.000123   0.000151
     8  H    0.000278  -0.000089   0.000011  -0.011554   0.002195   0.002507
     9  O   -0.040575  -0.038867  -0.001007  -0.000069  -0.000007   0.000004
    10  O   -0.000342   0.000031   0.193251   0.000001   0.000000   0.000000
    11  H    0.000001   0.000000   0.014407  -0.000267   0.000001   0.000006
    12  C    0.364243   0.378928   0.004791  -0.000001   0.000004  -0.000001
    13  H    0.708884  -0.064301  -0.000099   0.000000   0.000001   0.000000
    14  H   -0.064301   0.709193  -0.000015   0.000000   0.000000   0.000000
    15  H   -0.000099  -0.000015   0.472665  -0.000001   0.000000   0.000000
    16  C    0.000000   0.000000  -0.000001   5.281637   0.350284   0.349703
    17  H    0.000001   0.000000   0.000000   0.350284   0.627941  -0.045429
    18  H    0.000000   0.000000   0.000000   0.349703  -0.045429   0.629200
    19  H    0.000000   0.000000   0.000000   0.352179  -0.033403  -0.032231
              19
     1  C   -0.002970
     2  C   -0.000068
     3  C    0.000024
     4  C   -0.000125
     5  C    0.003312
     6  C   -0.026743
     7  H    0.009093
     8  H    0.000071
     9  O    0.000000
    10  O    0.000000
    11  H   -0.000009
    12  C    0.000000
    13  H    0.000000
    14  H    0.000000
    15  H    0.000000
    16  C    0.352179
    17  H   -0.033403
    18  H   -0.032231
    19  H    0.614768
 Mulliken charges:
               1
     1  C   -0.225862
     2  C   -0.229387
     3  C    0.301578
     4  C    0.326030
     5  C   -0.289977
     6  C    0.192613
     7  H    0.041739
     8  H    0.066215
     9  O   -0.478578
    10  O   -0.613945
    11  H    0.040528
    12  C   -0.368469
    13  H    0.028546
    14  H    0.012781
    15  H    0.351528
    16  C   -0.522116
    17  H    0.126392
    18  H    0.124284
    19  H    0.116101
 Sum of Mulliken charges =  -1.00000
 Mulliken charges with hydrogens summed into heavy atoms:
               1
     1  C   -0.184124
     2  C   -0.188859
     3  C    0.301578
     4  C    0.326030
     5  C   -0.223763
     6  C    0.192613
     9  O   -0.478578
    10  O   -0.262417
    12  C   -0.327142
    16  C   -0.155339
 Electronic spatial extent (au):  <R**2>=           1568.1769
 Charge=             -1.0000 electrons
 Dipole moment (field-independent basis, Debye):
    X=              5.4573    Y=              3.3468    Z=             -0.2790  Tot=              6.4079
 Quadrupole moment (field-independent basis, Debye-Ang):
   XX=            -88.5017   YY=            -64.1322   ZZ=            -65.0045
   XY=             -9.5677   XZ=              1.3025   YZ=              1.0359
 Traceless Quadrupole moment (field-independent basis, Debye-Ang):
   XX=            -15.9556   YY=              8.4140   ZZ=              7.5416
   XY=             -9.5677   XZ=              1.3025   YZ=              1.0359
 Octapole moment (field-independent basis, Debye-Ang**2):
  XXX=             39.4426  YYY=             27.3060  ZZZ=             -4.4556  XYY=             -3.2605
  XXY=             22.3702  XXZ=             -6.4001  XZZ=             -3.2902  YZZ=              1.2803
  YYZ=             -3.2961  XYZ=             -2.7675
 Hexadecapole moment (field-independent basis, Debye-Ang**3):
 XXXX=          -1678.3095 YYYY=           -590.7270 ZZZZ=           -102.4870 XXXY=            -45.7744
 XXXZ=             26.1134 YYYX=            -69.9118 YYYZ=              9.3612 ZZZX=              7.7564
 ZZZY=              3.2729 XXYY=           -356.3812 XXZZ=           -266.6235 YYZZ=           -128.7054
 XXYZ=             11.5173 YYXZ=              9.7882 ZZXY=            -12.4618
 N-N= 5.057964338963D+02 E-N=-2.097907926263D+03  KE= 4.567559999219D+02
 No NMR shielding tensors so no spin-rotation constants.
 Leave Link  601 at Wed Dec 03 12:48:49 2025, MaxMem=   104857600 cpu:               0.0 elap:               0.2
 (Enter D:\Gaussian\G16W\l9999.exe)
 1|1|UNPC-PC-20250526LCFF|SP|RB3LYP|6-31G(d)|C8H9O2(1-)|ADMINISTRATOR|0
 3-Dec-2025|0||#P B3LYP/6-31G* SCF=conver=7 out=wfn||Generated by Multi
 wfn (http://sobereva.com/multiwfn)||-1,1|C,0,1.683029,1.128891,0.13657
 6|C,0,0.421646,1.721215,0.08982|C,0,-0.72675,0.951526,-0.076981|C,0,-0
 .586305,-0.443279,-0.182572|C,0,0.674778,-1.021343,-0.137811|C,0,1.833
 155,-0.25194,0.018228|H,0,2.557442,1.758029,0.26248|H,0,0.731801,-2.09
 9994,-0.235447|O,0,-1.667002,-1.271308,-0.406073|O,0,-1.979528,1.48657
 7,-0.157702|H,0,0.326301,2.800473,0.172547|C,0,-2.694996,-1.257743,0.4
 97892|H,0,-2.489724,-0.9179,1.504825|H,0,-3.470495,-1.970375,0.262376|
 H,0,-1.912566,2.444723,-0.091591|C,0,3.192322,-0.908544,0.059254|H,0,3
 .261239,-1.634208,0.875589|H,0,3.40381,-1.44581,-0.870567|H,0,3.98316,
 -0.16979,0.203544||Version=EM64W-G16RevA.03|State=1-A|HF=-460.574551|R
 MSD=8.043e-008|Dipole=2.1470726,1.3167371,-0.1097581|Quadrupole=-11.86
 25716,6.2555722,5.6069994,-7.113331,0.9684029,0.7701689|PG=C01 [X(C8H9
 O2)]||@

 Writing a WFN file to "N+1.wfn"


 ALL MY ATTEMPTS TO ADAPT THE THEORETICAL FOUNDATIONS OF PHYSICS
 TO THESE NEW NOTIONS FAILED COMPLETELY. IT WAS AS IF THE GROUND HAD
 BEEN PULLED OUT FROM UNDER ONE WITH NO FIRM FOUNDATION TO BE SEEN ANYWHERE,
 UPON WHICH ONE COULD HAVE BUILT.  -- A.EINSTEIN
 Job cpu time:       0 days  0 hours  0 minutes 24.0 seconds.
 Elapsed time:       0 days  0 hours  0 minutes 24.3 seconds.
 File lengths (MBytes):  RWF=     15 Int=      0 D2E=      0 Chk=      3 Scr=      1
 Normal termination of Gaussian 16 at Wed Dec 03 12:48:49 2025.
