 Entering Link 1 = D:\Gaussian\G16W\l1.exe PID=     41212.
  
 Copyright (c) 1988,1990,1992,1993,1995,1998,2003,2009,2016,
            Gaussian, Inc.  All Rights Reserved.
  
 This is part of the Gaussian(R) 16 program.  It is based on
 the Gaussian(R) 09 system (copyright 2009, Gaussian, Inc.),
 the Gaussian(R) 03 system (copyright 2003, Gaussian, Inc.),
 the Gaussian(R) 98 system (copyright 1998, Gaussian, Inc.),
 the Gaussian(R) 94 system (copyright 1995, Gaussian, Inc.),
 the Gaussian 92(TM) system (copyright 1992, Gaussian, Inc.),
 the Gaussian 90(TM) system (copyright 1990, Gaussian, Inc.),
 the Gaussian 88(TM) system (copyright 1988, Gaussian, Inc.),
 the Gaussian 86(TM) system (copyright 1986, Carnegie Mellon
 University), and the Gaussian 82(TM) system (copyright 1983,
 Carnegie Mellon University). Gaussian is a federally registered
 trademark of Gaussian, Inc.
  
 This software contains proprietary and confidential information,
 including trade secrets, belonging to Gaussian, Inc.
  
 This software is provided under written license and may be
 used, copied, transmitted, or stored only in accord with that
 written license.
  
 The following legend is applicable only to US Government
 contracts under FAR:
  
                    RESTRICTED RIGHTS LEGEND
  
 Use, reproduction and disclosure by the US Government is
 subject to restrictions as set forth in subparagraphs (a)
 and (c) of the Commercial Computer Software - Restricted
 Rights clause in FAR 52.227-19.
  
 Gaussian, Inc.
 340 Quinnipiac St., Bldg. 40, Wallingford CT 06492
  
  
 ---------------------------------------------------------------
 Warning -- This program may not be used in any manner that
 competes with the business of Gaussian, Inc. or will provide
 assistance to any competitor of Gaussian, Inc.  The licensee
 of this program is prohibited from giving any competitor of
 Gaussian, Inc. access to this program.  By using this program,
 the user acknowledges that Gaussian, Inc. is engaged in the
 business of creating and licensing software in the field of
 computational chemistry and represents and warrants to the
 licensee that it is not a competitor of Gaussian, Inc. and that
 it will not use this program in any manner prohibited above.
 ---------------------------------------------------------------
  

 Cite this work as:
 Gaussian 16, Revision A.03,
 M. J. Frisch, G. W. Trucks, H. B. Schlegel, G. E. Scuseria, 
 M. A. Robb, J. R. Cheeseman, G. Scalmani, V. Barone, 
 G. A. Petersson, H. Nakatsuji, X. Li, M. Caricato, A. V. Marenich, 
 J. Bloino, B. G. Janesko, R. Gomperts, B. Mennucci, H. P. Hratchian, 
 J. V. Ortiz, A. F. Izmaylov, J. L. Sonnenberg, D. Williams-Young, 
 F. Ding, F. Lipparini, F. Egidi, J. Goings, B. Peng, A. Petrone, 
 T. Henderson, D. Ranasinghe, V. G. Zakrzewski, J. Gao, N. Rega, 
 G. Zheng, W. Liang, M. Hada, M. Ehara, K. Toyota, R. Fukuda, 
 J. Hasegawa, M. Ishida, T. Nakajima, Y. Honda, O. Kitao, H. Nakai, 
 T. Vreven, K. Throssell, J. A. Montgomery, Jr., J. E. Peralta, 
 F. Ogliaro, M. J. Bearpark, J. J. Heyd, E. N. Brothers, K. N. Kudin, 
 V. N. Staroverov, T. A. Keith, R. Kobayashi, J. Normand, 
 K. Raghavachari, A. P. Rendell, J. C. Burant, S. S. Iyengar, 
 J. Tomasi, M. Cossi, J. M. Millam, M. Klene, C. Adamo, R. Cammi, 
 J. W. Ochterski, R. L. Martin, K. Morokuma, O. Farkas, 
 J. B. Foresman, and D. J. Fox, Gaussian, Inc., Wallingford CT, 2016.
 
 ******************************************
 Gaussian 16:  EM64W-G16RevA.03 17-Dec-2016
                03-Dec-2025 
 ******************************************
 %nprocs=   4
 Will use up to    4 processors via shared memory.
 ------------------------------------
 #P B3LYP/6-31G* SCF=conver=7 out=wfn
 ------------------------------------
 1/38=1,172=1/1;
 2/12=2,17=6,18=5,40=1/2;
 3/5=1,6=6,7=1,11=2,25=1,30=1,74=-5/1,2,3;
 4//1;
 5/5=2,6=7,38=5/2;
 6/7=2,8=2,9=2,10=2,28=1/1;
 99/5=1,6=100,9=1/99;
 Leave Link    1 at Wed Dec 03 12:48:59 2025, MaxMem=           0 cpu:               0.0 elap:               0.1
 (Enter D:\Gaussian\G16W\l101.exe)
 ----------------------------------------------------
 Generated by Multiwfn (http://sobereva.com/multiwfn)
 ----------------------------------------------------
 Symbolic Z-matrix:
 Charge =  1 Multiplicity = 1
 C                     1.68303   1.12889   0.13658 
 C                     0.42165   1.72122   0.08982 
 C                    -0.72675   0.95153  -0.07698 
 C                    -0.58631  -0.44328  -0.18257 
 C                     0.67478  -1.02134  -0.13781 
 C                     1.83316  -0.25194   0.01823 
 H                     2.55744   1.75803   0.26248 
 H                     0.7318   -2.09999  -0.23545 
 O                    -1.667    -1.27131  -0.40607 
 O                    -1.97953   1.48658  -0.1577 
 H                     0.3263    2.80047   0.17255 
 C                    -2.695    -1.25774   0.49789 
 H                    -2.48972  -0.9179    1.50483 
 H                    -3.4705   -1.97038   0.26238 
 H                    -1.91257   2.44472  -0.09159 
 C                     3.19232  -0.90854   0.05925 
 H                     3.26124  -1.63421   0.87559 
 H                     3.40381  -1.44581  -0.87057 
 H                     3.98316  -0.16979   0.20354 
 
 ITRead=  0  0  0  0  0  0  0  0  0  0  0  0  0  0  0  0  0  0  0
 MicOpt= -1 -1 -1 -1 -1 -1 -1 -1 -1 -1 -1 -1 -1 -1 -1 -1 -1 -1 -1
 NAtoms=     19 NQM=       19 NQMF=       0 NMMI=      0 NMMIF=      0
                NMic=       0 NMicF=      0.
                    Isotopes and Nuclear Properties:
 (Nuclear quadrupole moments (NQMom) in fm**2, nuclear magnetic moments (NMagM)
  in nuclear magnetons)

  Atom         1           2           3           4           5           6           7           8           9          10
 IAtWgt=          12          12          12          12          12          12           1           1          16          16
 AtmWgt=  12.0000000  12.0000000  12.0000000  12.0000000  12.0000000  12.0000000   1.0078250   1.0078250  15.9949146  15.9949146
 NucSpn=           0           0           0           0           0           0           1           1           0           0
 AtZEff=   0.0000000   0.0000000   0.0000000   0.0000000   0.0000000   0.0000000   0.0000000   0.0000000   0.0000000   0.0000000
 NQMom=    0.0000000   0.0000000   0.0000000   0.0000000   0.0000000   0.0000000   0.0000000   0.0000000   0.0000000   0.0000000
 NMagM=    0.0000000   0.0000000   0.0000000   0.0000000   0.0000000   0.0000000   2.7928460   2.7928460   0.0000000   0.0000000
 AtZNuc=   6.0000000   6.0000000   6.0000000   6.0000000   6.0000000   6.0000000   1.0000000   1.0000000   8.0000000   8.0000000

  Atom        11          12          13          14          15          16          17          18          19
 IAtWgt=           1          12           1           1           1          12           1           1           1
 AtmWgt=   1.0078250  12.0000000   1.0078250   1.0078250   1.0078250  12.0000000   1.0078250   1.0078250   1.0078250
 NucSpn=           1           0           1           1           1           0           1           1           1
 AtZEff=   0.0000000   0.0000000   0.0000000   0.0000000   0.0000000   0.0000000   0.0000000   0.0000000   0.0000000
 NQMom=    0.0000000   0.0000000   0.0000000   0.0000000   0.0000000   0.0000000   0.0000000   0.0000000   0.0000000
 NMagM=    2.7928460   0.0000000   2.7928460   2.7928460   2.7928460   0.0000000   2.7928460   2.7928460   2.7928460
 AtZNuc=   1.0000000   6.0000000   1.0000000   1.0000000   1.0000000   6.0000000   1.0000000   1.0000000   1.0000000
 Leave Link  101 at Wed Dec 03 12:48:59 2025, MaxMem=   104857600 cpu:               0.0 elap:               0.1
 (Enter D:\Gaussian\G16W\l202.exe)
                          Input orientation:                          
 ---------------------------------------------------------------------
 Center     Atomic      Atomic             Coordinates (Angstroms)
 Number     Number       Type             X           Y           Z
 ---------------------------------------------------------------------
      1          6           0        1.683029    1.128891    0.136576
      2          6           0        0.421646    1.721215    0.089820
      3          6           0       -0.726750    0.951526   -0.076981
      4          6           0       -0.586305   -0.443279   -0.182572
      5          6           0        0.674778   -1.021343   -0.137811
      6          6           0        1.833155   -0.251940    0.018228
      7          1           0        2.557442    1.758029    0.262480
      8          1           0        0.731801   -2.099994   -0.235447
      9          8           0       -1.667002   -1.271308   -0.406073
     10          8           0       -1.979528    1.486577   -0.157702
     11          1           0        0.326301    2.800473    0.172547
     12          6           0       -2.694996   -1.257743    0.497892
     13          1           0       -2.489724   -0.917900    1.504825
     14          1           0       -3.470495   -1.970375    0.262376
     15          1           0       -1.912566    2.444723   -0.091591
     16          6           0        3.192322   -0.908544    0.059254
     17          1           0        3.261239   -1.634208    0.875589
     18          1           0        3.403810   -1.445810   -0.870567
     19          1           0        3.983160   -0.169790    0.203544
 ---------------------------------------------------------------------
                    Distance matrix (angstroms):
                    1          2          3          4          5
     1  C    0.000000
     2  C    1.394317   0.000000
     3  C    2.425716   1.392500   0.000000
     4  C    2.779110   2.403164   1.405829   0.000000
     5  C    2.390683   2.763606   2.420784   1.387981   0.000000
     6  C    1.394001   2.427102   2.830284   2.435307   1.399345
     7  H    1.084557   2.143080   3.398764   3.863544   3.380764
     8  H    3.386581   3.847549   3.385891   2.117759   1.084561
     9  O    4.156697   3.682873   2.435850   1.379671   2.370312
    10  O    3.691729   2.425275   1.364642   2.380343   3.651767
    11  H    2.153182   1.086615   2.142379   3.388346   3.850199
    12  C    4.999367   4.330609   3.014190   2.360712   3.437351
    13  H    4.844928   4.176511   3.017439   2.587581   3.566935
    14  H    6.014988   5.367157   4.022537   3.293714   4.271311
    15  H    3.835593   2.450494   1.906833   3.179277   4.325517
    16  C    2.536747   3.820106   4.340224   3.814836   2.527763
    17  H    3.266742   4.465376   4.847419   4.164326   2.844708
    18  H    3.256457   4.454850   4.841335   4.171262   2.857397
    19  H    2.642283   4.034007   4.849670   4.593897   3.433228
                    6          7          8          9         10
     6  C    0.000000
     7  H    2.150401   0.000000
     8  H    2.166249   4.297120   0.000000
     9  O    3.670183   5.241161   2.543637   0.000000
    10  O    4.194037   4.564464   4.496759   2.786627   0.000000
    11  H    3.407587   2.464299   4.934113   4.570280   2.674366
    12  C    4.663247   6.061221   3.604180   1.368981   2.910840
    13  H    4.619606   5.846187   3.847612   2.110284   2.967458
    14  H    5.580442   7.087808   4.233665   2.046486   3.788135
    15  H    4.616760   4.536286   5.260021   3.737390   0.962756
    16  C    1.510016   2.748633   2.749648   4.895013   5.703657
    17  H    2.164522   3.518310   2.801681   5.105087   6.186488
    18  H    2.163848   3.502102   2.823290   5.095031   6.171499
    19  H    2.159540   2.398464   3.806539   5.788722   6.199008
                   11         12         13         14         15
    11  H    0.000000
    12  C    5.069833   0.000000
    13  H    4.850903   1.082379   0.000000
    14  H    6.097927   1.079218   1.900867   0.000000
    15  H    2.282291   3.829875   3.766814   4.695266   0.000000
    16  C    4.688680   5.913954   5.863055   6.749954   6.109586
    17  H    5.364189   5.980060   5.829461   6.767960   6.658932
    18  H    5.346968   6.253278   6.376121   6.986759   6.633770
    19  H    4.711267   6.772596   6.644639   7.668281   6.456188
                   16         17         18         19
    16  C    0.000000
    17  H    1.094413   0.000000
    18  H    1.094509   1.762067   0.000000
    19  H    1.091788   1.765597   1.765669   0.000000
 Stoichiometry    C8H9O2(1+)
 Framework group  C1[X(C8H9O2)]
 Deg. of freedom    51
 Full point group                 C1      NOp   1
 Largest Abelian subgroup         C1      NOp   1
 Largest concise Abelian subgroup C1      NOp   1
                         Standard orientation:                         
 ---------------------------------------------------------------------
 Center     Atomic      Atomic             Coordinates (Angstroms)
 Number     Number       Type             X           Y           Z
 ---------------------------------------------------------------------
      1          6           0        1.683029    1.128891    0.136576
      2          6           0        0.421646    1.721215    0.089820
      3          6           0       -0.726750    0.951526   -0.076981
      4          6           0       -0.586305   -0.443279   -0.182572
      5          6           0        0.674778   -1.021343   -0.137811
      6          6           0        1.833155   -0.251940    0.018228
      7          1           0        2.557442    1.758029    0.262480
      8          1           0        0.731801   -2.099994   -0.235447
      9          8           0       -1.667002   -1.271308   -0.406073
     10          8           0       -1.979528    1.486577   -0.157702
     11          1           0        0.326300    2.800473    0.172547
     12          6           0       -2.694996   -1.257743    0.497892
     13          1           0       -2.489724   -0.917900    1.504825
     14          1           0       -3.470495   -1.970376    0.262376
     15          1           0       -1.912566    2.444723   -0.091591
     16          6           0        3.192322   -0.908543    0.059254
     17          1           0        3.261239   -1.634207    0.875589
     18          1           0        3.403810   -1.445809   -0.870567
     19          1           0        3.983160   -0.169789    0.203544
 ---------------------------------------------------------------------
 Rotational constants (GHZ):           2.4112696           1.0366477           0.7488470
 Leave Link  202 at Wed Dec 03 12:48:59 2025, MaxMem=   104857600 cpu:               0.0 elap:               0.0
 (Enter D:\Gaussian\G16W\l301.exe)
 Standard basis: 6-31G(d) (6D, 7F)
 Ernie: Thresh=  0.10000D-02 Tol=  0.10000D-05 Strict=F.
 There are   168 symmetry adapted cartesian basis functions of A   symmetry.
 There are   168 symmetry adapted basis functions of A   symmetry.
   168 basis functions,   316 primitive gaussians,   168 cartesian basis functions
    36 alpha electrons       36 beta electrons
       nuclear repulsion energy       505.7964338963 Hartrees.
 IExCor=  402 DFT=T Ex+Corr=B3LYP ExCW=0 ScaHFX=  0.200000
 ScaDFX=  0.800000  0.720000  1.000000  0.810000 ScalE2=  1.000000  1.000000
 IRadAn=      5 IRanWt=     -1 IRanGd=            0 ICorTp=0 IEmpDi=  4
 NAtoms=   19 NActive=   19 NUniq=   19 SFac= 1.00D+00 NAtFMM=   60 NAOKFM=F Big=F
 Integral buffers will be    131072 words long.
 Raffenetti 2 integral format.
 Two-electron integral symmetry is turned on.
 Leave Link  301 at Wed Dec 03 12:48:59 2025, MaxMem=   104857600 cpu:               0.0 elap:               0.1
 (Enter D:\Gaussian\G16W\l302.exe)
 NPDir=0 NMtPBC=     1 NCelOv=     1 NCel=       1 NClECP=     1 NCelD=      1
         NCelK=      1 NCelE2=     1 NClLst=     1 CellRange=     0.0.
 One-electron integrals computed using PRISM.
 One-electron integral symmetry used in STVInt
 NBasis=   168 RedAO= T EigKep=  3.69D-04  NBF=   168
 NBsUse=   168 1.00D-06 EigRej= -1.00D+00 NBFU=   168
 Precomputing XC quadrature grid using
 IXCGrd= 4 IRadAn=           5 IRanWt=          -1 IRanGd=           0 AccXCQ= 0.00D+00.
 Generated NRdTot=       0 NPtTot=           0 NUsed=           0 NTot=          32
 NSgBfM=   168   168   168   168   168 MxSgAt=    19 MxSgA2=    19.
 Leave Link  302 at Wed Dec 03 12:48:59 2025, MaxMem=   104857600 cpu:               0.0 elap:               0.4
 (Enter D:\Gaussian\G16W\l303.exe)
 DipDrv:  MaxL=1.
 Leave Link  303 at Wed Dec 03 12:48:59 2025, MaxMem=   104857600 cpu:               0.0 elap:               0.1
 (Enter D:\Gaussian\G16W\l401.exe)
 ExpMin= 1.61D-01 ExpMax= 5.48D+03 ExpMxC= 8.25D+02 IAcc=3 IRadAn=         5 AccDes= 0.00D+00
 Harris functional with IExCor=  402 and IRadAn=       5 diagonalized for initial guess.
 HarFok:  IExCor=  402 AccDes= 0.00D+00 IRadAn=         5 IDoV= 1 UseB2=F ITyADJ=14
 ICtDFT=  3500011 ScaDFX=  1.000000  1.000000  1.000000  1.000000
 FoFCou: FMM=F IPFlag=           0 FMFlag=      100000 FMFlg1=           0
         NFxFlg=           0 DoJE=T BraDBF=F KetDBF=T FulRan=T
         wScrn=  0.000000 ICntrl=       500 IOpCl=  0 I1Cent=   200000004 NGrid=           0
         NMat0=    1 NMatS0=      1 NMatT0=    0 NMatD0=    1 NMtDS0=    0 NMtDT0=    0
 Petite list used in FoFCou.
 Harris En= -460.442456090705    
 JPrj=0 DoOrth=F DoCkMO=F.
 Leave Link  401 at Wed Dec 03 12:49:01 2025, MaxMem=   104857600 cpu:               2.0 elap:               1.1
 (Enter D:\Gaussian\G16W\l502.exe)
 Keep R1 ints in memory in canonical form, NReq=104755543.
 FoFCou: FMM=F IPFlag=           0 FMFlag=           0 FMFlg1=           0
         NFxFlg=           0 DoJE=F BraDBF=F KetDBF=F FulRan=T
         wScrn=  0.000000 ICntrl=       600 IOpCl=  0 I1Cent=           0 NGrid=           0
         NMat0=    1 NMatS0=  14196 NMatT0=    0 NMatD0=    1 NMtDS0=    0 NMtDT0=    0
 Symmetry not used in FoFCou.
 Two-electron integral symmetry not used.
 Closed shell SCF:
 Using DIIS extrapolation, IDIIS=  1040.
 NGot=   104857600 LenX=     4027843 LenY=     3999178
 Requested convergence on RMS density matrix=1.00D-07 within 128 cycles.
 Requested convergence on MAX density matrix=1.00D-05.
 Requested convergence on             energy=1.00D-05.
 No special actions if energy rises.
 Integral accuracy reduced to 1.0D-05 until final iterations.

 Cycle   1  Pass 0  IDiag  1:
 CalDSu:  requested number of processors reduced to:   3 ShMem   1 Linda.
 E= -460.131440650308    
 DIIS: error= 2.52D-02 at cycle   1 NSaved=   1.
 NSaved= 1 IEnMin= 1 EnMin= -460.131440650308     IErMin= 1 ErrMin= 2.52D-02
 ErrMax= 2.52D-02  0.00D+00 EMaxC= 1.00D-01 BMatC= 2.29D-01 BMatP= 2.29D-01
 IDIUse=3 WtCom= 7.48D-01 WtEn= 2.52D-01
 Coeff-Com:  0.100D+01
 Coeff-En:   0.100D+01
 Coeff:      0.100D+01
 Gap=    -0.122 Goal=   None    Shift=    0.000
 GapD=   -0.122 DampG=0.250 DampE=0.500 DampFc=0.2500 IDamp=-1.
 Damping current iteration by 2.50D-01
 RMSDP=9.21D-03 MaxDP=2.80D-01              OVMax= 7.10D-01

 Cycle   2  Pass 0  IDiag  1:
 CalDSu:  requested number of processors reduced to:   3 ShMem   1 Linda.
 E= -460.198169931822     Delta-E=       -0.066729281514 Rises=F Damp=T
 DIIS: error= 1.10D-02 at cycle   2 NSaved=   2.
 NSaved= 2 IEnMin= 2 EnMin= -460.198169931822     IErMin= 2 ErrMin= 1.10D-02
 ErrMax= 1.10D-02  0.00D+00 EMaxC= 1.00D-01 BMatC= 4.95D-02 BMatP= 2.29D-01
 IDIUse=3 WtCom= 8.90D-01 WtEn= 1.10D-01
 Coeff-Com: -0.204D+00 0.120D+01
 Coeff-En:   0.268D+00 0.732D+00
 Coeff:     -0.152D+00 0.115D+01
 Gap=     0.009 Goal=   None    Shift=    0.000
 RMSDP=3.34D-03 MaxDP=9.68D-02 DE=-6.67D-02 OVMax= 8.24D-01

 Cycle   3  Pass 0  IDiag  1:
 CalDSu:  requested number of processors reduced to:   3 ShMem   1 Linda.
 E= -460.250929057811     Delta-E=       -0.052759125989 Rises=F Damp=F
 DIIS: error= 1.46D-02 at cycle   3 NSaved=   3.
 NSaved= 3 IEnMin= 3 EnMin= -460.250929057811     IErMin= 2 ErrMin= 1.10D-02
 ErrMax= 1.46D-02  0.00D+00 EMaxC= 1.00D-01 BMatC= 1.05D-01 BMatP= 4.95D-02
 IDIUse=2 WtCom= 0.00D+00 WtEn= 1.00D+00
 Coeff-En:   0.000D+00 0.354D+00 0.646D+00
 Coeff:      0.000D+00 0.354D+00 0.646D+00
 Gap=    -0.024 Goal=   None    Shift=    0.000
 RMSDP=7.14D-03 MaxDP=3.01D-01 DE=-5.28D-02 OVMax= 8.64D-01

 Cycle   4  Pass 0  IDiag  1:
 CalDSu:  requested number of processors reduced to:   3 ShMem   1 Linda.
 E= -459.312395858443     Delta-E=        0.938533199368 Rises=F Damp=F
 DIIS: error= 4.15D-02 at cycle   4 NSaved=   4.
 NSaved= 4 IEnMin= 3 EnMin= -460.250929057811     IErMin= 2 ErrMin= 1.10D-02
 ErrMax= 4.15D-02  0.00D+00 EMaxC= 1.00D-01 BMatC= 6.01D-01 BMatP= 4.95D-02
 IDIUse=2 WtCom= 0.00D+00 WtEn= 1.00D+00
 Coeff-En:   0.000D+00 0.000D+00 0.803D+00 0.197D+00
 Coeff:      0.000D+00 0.000D+00 0.803D+00 0.197D+00
 Gap=     0.027 Goal=   None    Shift=    0.000
 RMSDP=6.23D-03 MaxDP=2.56D-01 DE= 9.39D-01 OVMax= 9.59D-01

 Cycle   5  Pass 0  IDiag  1:
 CalDSu:  requested number of processors reduced to:   3 ShMem   1 Linda.
 E= -460.351924404177     Delta-E=       -1.039528545734 Rises=F Damp=F
 DIIS: error= 8.58D-03 at cycle   5 NSaved=   5.
 NSaved= 5 IEnMin= 5 EnMin= -460.351924404177     IErMin= 5 ErrMin= 8.58D-03
 ErrMax= 8.58D-03  0.00D+00 EMaxC= 1.00D-01 BMatC= 2.72D-02 BMatP= 4.95D-02
 IDIUse=3 WtCom= 9.14D-01 WtEn= 8.58D-02
 Coeff-Com: -0.226D+00 0.476D+00 0.360D+00 0.122D-01 0.378D+00
 Coeff-En:   0.000D+00 0.000D+00 0.826D-01 0.000D+00 0.917D+00
 Coeff:     -0.206D+00 0.436D+00 0.336D+00 0.112D-01 0.424D+00
 Gap=     0.056 Goal=   None    Shift=    0.000
 RMSDP=1.32D-03 MaxDP=3.68D-02 DE=-1.04D+00 OVMax= 8.53D-02

 Cycle   6  Pass 0  IDiag  1:
 CalDSu:  requested number of processors reduced to:   3 ShMem   1 Linda.
 E= -460.366219736113     Delta-E=       -0.014295331936 Rises=F Damp=F
 DIIS: error= 6.21D-03 at cycle   6 NSaved=   6.
 NSaved= 6 IEnMin= 6 EnMin= -460.366219736113     IErMin= 6 ErrMin= 6.21D-03
 ErrMax= 6.21D-03  0.00D+00 EMaxC= 1.00D-01 BMatC= 9.25D-03 BMatP= 2.72D-02
 IDIUse=3 WtCom= 9.38D-01 WtEn= 6.21D-02
 Coeff-Com: -0.207D+00 0.317D+00 0.947D-01-0.208D-01 0.309D+00 0.508D+00
 Coeff-En:   0.000D+00 0.000D+00 0.000D+00 0.000D+00 0.292D+00 0.708D+00
 Coeff:     -0.194D+00 0.297D+00 0.888D-01-0.195D-01 0.308D+00 0.520D+00
 Gap=     0.047 Goal=   None    Shift=    0.000
 RMSDP=6.47D-04 MaxDP=1.45D-02 DE=-1.43D-02 OVMax= 5.41D-02

 Cycle   7  Pass 0  IDiag  1:
 CalDSu:  requested number of processors reduced to:   3 ShMem   1 Linda.
 E= -460.377618564076     Delta-E=       -0.011398827963 Rises=F Damp=F
 DIIS: error= 1.01D-03 at cycle   7 NSaved=   7.
 NSaved= 7 IEnMin= 7 EnMin= -460.377618564076     IErMin= 7 ErrMin= 1.01D-03
 ErrMax= 1.01D-03  0.00D+00 EMaxC= 1.00D-01 BMatC= 3.62D-04 BMatP= 9.25D-03
 IDIUse=3 WtCom= 9.90D-01 WtEn= 1.01D-02
 Coeff-Com: -0.869D-01 0.121D+00 0.427D-02-0.853D-02 0.120D+00 0.229D+00
 Coeff-Com:  0.622D+00
 Coeff-En:   0.000D+00 0.000D+00 0.000D+00 0.000D+00 0.000D+00 0.000D+00
 Coeff-En:   0.100D+01
 Coeff:     -0.860D-01 0.119D+00 0.422D-02-0.845D-02 0.119D+00 0.227D+00
 Coeff:      0.626D+00
 Gap=     0.047 Goal=   None    Shift=    0.000
 RMSDP=2.54D-04 MaxDP=7.76D-03 DE=-1.14D-02 OVMax= 2.87D-02

 Cycle   8  Pass 0  IDiag  1:
 CalDSu:  requested number of processors reduced to:   3 ShMem   1 Linda.
 E= -460.378127042631     Delta-E=       -0.000508478556 Rises=F Damp=F
 DIIS: error= 8.33D-04 at cycle   8 NSaved=   8.
 NSaved= 8 IEnMin= 8 EnMin= -460.378127042631     IErMin= 8 ErrMin= 8.33D-04
 ErrMax= 8.33D-04  0.00D+00 EMaxC= 1.00D-01 BMatC= 2.03D-04 BMatP= 3.62D-04
 IDIUse=3 WtCom= 9.92D-01 WtEn= 8.33D-03
 Coeff-Com: -0.117D-02-0.372D-03-0.109D-01 0.241D-03-0.567D-03-0.368D-01
 Coeff-Com:  0.505D+00 0.544D+00
 Coeff-En:   0.000D+00 0.000D+00 0.000D+00 0.000D+00 0.000D+00 0.000D+00
 Coeff-En:   0.168D+00 0.832D+00
 Coeff:     -0.116D-02-0.369D-03-0.108D-01 0.239D-03-0.562D-03-0.365D-01
 Coeff:      0.502D+00 0.547D+00
 Gap=     0.050 Goal=   None    Shift=    0.000
 RMSDP=1.06D-04 MaxDP=3.26D-03 DE=-5.08D-04 OVMax= 1.19D-02

 Cycle   9  Pass 0  IDiag  1:
 CalDSu:  requested number of processors reduced to:   3 ShMem   1 Linda.
 E= -460.378246025030     Delta-E=       -0.000118982398 Rises=F Damp=F
 DIIS: error= 4.23D-04 at cycle   9 NSaved=   9.
 NSaved= 9 IEnMin= 9 EnMin= -460.378246025030     IErMin= 9 ErrMin= 4.23D-04
 ErrMax= 4.23D-04  0.00D+00 EMaxC= 1.00D-01 BMatC= 6.08D-05 BMatP= 2.03D-04
 IDIUse=3 WtCom= 9.96D-01 WtEn= 4.23D-03
 EnCoef did     1 forward-backward iterations
 Coeff-Com: -0.853D-03 0.207D-02 0.960D-02-0.155D-02 0.135D-01-0.307D-01
 Coeff-Com:  0.207D+00 0.247D+00 0.554D+00
 Coeff-En:   0.000D+00 0.000D+00 0.000D+00 0.000D+00 0.000D+00 0.000D+00
 Coeff-En:   0.242D-01 0.610D-01 0.915D+00
 Coeff:     -0.849D-03 0.206D-02 0.956D-02-0.155D-02 0.134D-01-0.306D-01
 Coeff:      0.206D+00 0.246D+00 0.555D+00
 Gap=     0.052 Goal=   None    Shift=    0.000
 RMSDP=3.71D-05 MaxDP=9.10D-04 DE=-1.19D-04 OVMax= 2.04D-03

 Cycle  10  Pass 0  IDiag  1:
 CalDSu:  requested number of processors reduced to:   3 ShMem   1 Linda.
 E= -460.378299205352     Delta-E=       -0.000053180322 Rises=F Damp=F
 DIIS: error= 2.30D-04 at cycle  10 NSaved=  10.
 NSaved=10 IEnMin=10 EnMin= -460.378299205352     IErMin=10 ErrMin= 2.30D-04
 ErrMax= 2.30D-04  0.00D+00 EMaxC= 1.00D-01 BMatC= 1.63D-05 BMatP= 6.08D-05
 IDIUse=3 WtCom= 9.98D-01 WtEn= 2.30D-03
 Coeff-Com: -0.240D-02 0.365D-02 0.105D-01-0.134D-02 0.170D-01-0.308D-02
 Coeff-Com:  0.849D-01 0.207D-01 0.217D+00 0.654D+00
 Coeff-En:   0.000D+00 0.000D+00 0.000D+00 0.000D+00 0.000D+00 0.000D+00
 Coeff-En:   0.000D+00 0.000D+00 0.000D+00 0.100D+01
 Coeff:     -0.239D-02 0.365D-02 0.105D-01-0.134D-02 0.169D-01-0.308D-02
 Coeff:      0.847D-01 0.206D-01 0.216D+00 0.654D+00
 Gap=     0.053 Goal=   None    Shift=    0.000
 RMSDP=1.93D-05 MaxDP=5.82D-04 DE=-5.32D-05 OVMax= 1.56D-03

 Cycle  11  Pass 0  IDiag  1:
 CalDSu:  requested number of processors reduced to:   3 ShMem   1 Linda.
 E= -460.378316672055     Delta-E=       -0.000017466703 Rises=F Damp=F
 DIIS: error= 1.08D-04 at cycle  11 NSaved=  11.
 NSaved=11 IEnMin=11 EnMin= -460.378316672055     IErMin=11 ErrMin= 1.08D-04
 ErrMax= 1.08D-04  0.00D+00 EMaxC= 1.00D-01 BMatC= 3.31D-06 BMatP= 1.63D-05
 IDIUse=3 WtCom= 9.99D-01 WtEn= 1.08D-03
 Coeff-Com: -0.574D-03 0.392D-03 0.950D-03-0.251D-03 0.362D-02 0.783D-02
 Coeff-Com:  0.207D-01-0.777D-01-0.128D+00 0.101D+00 0.107D+01
 Coeff-En:   0.000D+00 0.000D+00 0.000D+00 0.000D+00 0.000D+00 0.000D+00
 Coeff-En:   0.000D+00 0.000D+00 0.000D+00 0.000D+00 0.100D+01
 Coeff:     -0.573D-03 0.391D-03 0.949D-03-0.250D-03 0.362D-02 0.782D-02
 Coeff:      0.206D-01-0.776D-01-0.128D+00 0.101D+00 0.107D+01
 Gap=     0.053 Goal=   None    Shift=    0.000
 RMSDP=1.22D-05 MaxDP=2.75D-04 DE=-1.75D-05 OVMax= 5.75D-04

 Cycle  12  Pass 0  IDiag  1:
 CalDSu:  requested number of processors reduced to:   3 ShMem   1 Linda.
 E= -460.378320683995     Delta-E=       -0.000004011940 Rises=F Damp=F
 DIIS: error= 2.96D-05 at cycle  12 NSaved=  12.
 NSaved=12 IEnMin=12 EnMin= -460.378320683995     IErMin=12 ErrMin= 2.96D-05
 ErrMax= 2.96D-05  0.00D+00 EMaxC= 1.00D-01 BMatC= 3.13D-07 BMatP= 3.31D-06
 IDIUse=1 WtCom= 1.00D+00 WtEn= 0.00D+00
 Coeff-Com:  0.134D-03-0.355D-03-0.656D-03 0.213D-04-0.249D-03 0.450D-02
 Coeff-Com:  0.737D-03-0.527D-01-0.111D+00-0.534D-01 0.631D+00 0.582D+00
 Coeff:      0.134D-03-0.355D-03-0.656D-03 0.213D-04-0.249D-03 0.450D-02
 Coeff:      0.737D-03-0.527D-01-0.111D+00-0.534D-01 0.631D+00 0.582D+00
 Gap=     0.053 Goal=   None    Shift=    0.000
 RMSDP=4.99D-06 MaxDP=1.07D-04 DE=-4.01D-06 OVMax= 4.16D-04

 Initial convergence to 1.0D-05 achieved.  Increase integral accuracy.
 Cycle  13  Pass 1  IDiag  1:
 CalDSu:  requested number of processors reduced to:   3 ShMem   1 Linda.
 E= -460.378321564912     Delta-E=       -0.000000880917 Rises=F Damp=F
 DIIS: error= 6.87D-06 at cycle   1 NSaved=   1.
 NSaved= 1 IEnMin= 1 EnMin= -460.378321564912     IErMin= 1 ErrMin= 6.87D-06
 ErrMax= 6.87D-06  0.00D+00 EMaxC= 1.00D-01 BMatC= 1.52D-08 BMatP= 1.52D-08
 IDIUse=1 WtCom= 1.00D+00 WtEn= 0.00D+00
 Coeff-Com:  0.100D+01
 Coeff:      0.100D+01
 Gap=     0.053 Goal=   None    Shift=    0.000
 RMSDP=4.99D-06 MaxDP=1.07D-04 DE=-8.81D-07 OVMax= 2.60D-04

 Cycle  14  Pass 1  IDiag  1:
 CalDSu:  requested number of processors reduced to:   3 ShMem   1 Linda.
 E= -460.378321517080     Delta-E=        0.000000047831 Rises=F Damp=F
 DIIS: error= 1.07D-05 at cycle   2 NSaved=   2.
 NSaved= 2 IEnMin= 1 EnMin= -460.378321564912     IErMin= 1 ErrMin= 6.87D-06
 ErrMax= 1.07D-05  0.00D+00 EMaxC= 1.00D-01 BMatC= 5.06D-08 BMatP= 1.52D-08
 IDIUse=1 WtCom= 1.00D+00 WtEn= 0.00D+00
 Coeff-Com:  0.665D+00 0.335D+00
 Coeff:      0.665D+00 0.335D+00
 Gap=     0.053 Goal=   None    Shift=    0.000
 RMSDP=2.39D-06 MaxDP=7.01D-05 DE= 4.78D-08 OVMax= 3.05D-04

 Cycle  15  Pass 1  IDiag  1:
 CalDSu:  requested number of processors reduced to:   3 ShMem   1 Linda.
 E= -460.378321579346     Delta-E=       -0.000000062265 Rises=F Damp=F
 DIIS: error= 3.65D-06 at cycle   3 NSaved=   3.
 NSaved= 3 IEnMin= 3 EnMin= -460.378321579346     IErMin= 3 ErrMin= 3.65D-06
 ErrMax= 3.65D-06  0.00D+00 EMaxC= 1.00D-01 BMatC= 4.07D-09 BMatP= 1.52D-08
 IDIUse=1 WtCom= 1.00D+00 WtEn= 0.00D+00
 Coeff-Com:  0.164D+00 0.224D+00 0.613D+00
 Coeff:      0.164D+00 0.224D+00 0.613D+00
 Gap=     0.053 Goal=   None    Shift=    0.000
 RMSDP=6.08D-07 MaxDP=2.13D-05 DE=-6.23D-08 OVMax= 5.86D-05

 Cycle  16  Pass 1  IDiag  1:
 CalDSu:  requested number of processors reduced to:   3 ShMem   1 Linda.
 E= -460.378321583436     Delta-E=       -0.000000004091 Rises=F Damp=F
 DIIS: error= 1.65D-06 at cycle   4 NSaved=   4.
 NSaved= 4 IEnMin= 4 EnMin= -460.378321583436     IErMin= 4 ErrMin= 1.65D-06
 ErrMax= 1.65D-06  0.00D+00 EMaxC= 1.00D-01 BMatC= 1.09D-09 BMatP= 4.07D-09
 IDIUse=1 WtCom= 1.00D+00 WtEn= 0.00D+00
 Coeff-Com: -0.705D-02 0.108D+00 0.432D+00 0.467D+00
 Coeff:     -0.705D-02 0.108D+00 0.432D+00 0.467D+00
 Gap=     0.053 Goal=   None    Shift=    0.000
 RMSDP=2.45D-07 MaxDP=7.31D-06 DE=-4.09D-09 OVMax= 2.17D-05

 Cycle  17  Pass 1  IDiag  1:
 CalDSu:  requested number of processors reduced to:   3 ShMem   1 Linda.
 E= -460.378321584585     Delta-E=       -0.000000001149 Rises=F Damp=F
 DIIS: error= 4.46D-07 at cycle   5 NSaved=   5.
 NSaved= 5 IEnMin= 5 EnMin= -460.378321584585     IErMin= 5 ErrMin= 4.46D-07
 ErrMax= 4.46D-07  0.00D+00 EMaxC= 1.00D-01 BMatC= 8.30D-11 BMatP= 1.09D-09
 IDIUse=1 WtCom= 1.00D+00 WtEn= 0.00D+00
 Coeff-Com: -0.126D-01 0.587D-01 0.226D+00 0.295D+00 0.432D+00
 Coeff:     -0.126D-01 0.587D-01 0.226D+00 0.295D+00 0.432D+00
 Gap=     0.053 Goal=   None    Shift=    0.000
 RMSDP=6.00D-08 MaxDP=1.93D-06 DE=-1.15D-09 OVMax= 5.85D-06

 SCF Done:  E(RB3LYP) =  -460.378321585     A.U. after   17 cycles
            NFock= 17  Conv=0.60D-07     -V/T= 2.0096
 KE= 4.559807924877D+02 PE=-2.070307772876D+03 EE= 6.481522249077D+02
 Leave Link  502 at Wed Dec 03 12:49:20 2025, MaxMem=   104857600 cpu:              19.0 elap:              19.7
 (Enter D:\Gaussian\G16W\l601.exe)
 Copying SCF densities to generalized density rwf, IOpCl= 0 IROHF=0.

 **********************************************************************

            Population analysis using the SCF density.

 **********************************************************************

 Orbital symmetries:
       Occupied  (A) (A) (A) (A) (A) (A) (A) (A) (A) (A) (A) (A)
                 (A) (A) (A) (A) (A) (A) (A) (A) (A) (A) (A) (A)
                 (A) (A) (A) (A) (A) (A) (A) (A) (A) (A) (A) (A)
       Virtual   (A) (A) (A) (A) (A) (A) (A) (A) (A) (A) (A) (A)
                 (A) (A) (A) (A) (A) (A) (A) (A) (A) (A) (A) (A)
                 (A) (A) (A) (A) (A) (A) (A) (A) (A) (A) (A) (A)
                 (A) (A) (A) (A) (A) (A) (A) (A) (A) (A) (A) (A)
                 (A) (A) (A) (A) (A) (A) (A) (A) (A) (A) (A) (A)
                 (A) (A) (A) (A) (A) (A) (A) (A) (A) (A) (A) (A)
                 (A) (A) (A) (A) (A) (A) (A) (A) (A) (A) (A) (A)
                 (A) (A) (A) (A) (A) (A) (A) (A) (A) (A) (A) (A)
                 (A) (A) (A) (A) (A) (A) (A) (A) (A) (A) (A) (A)
                 (A) (A) (A) (A) (A) (A) (A) (A) (A) (A) (A) (A)
                 (A) (A) (A) (A) (A) (A) (A) (A) (A) (A) (A) (A)
 The electronic state is 1-A.
 Alpha  occ. eigenvalues --  -19.47794 -19.35288 -10.53482 -10.43455 -10.43345
 Alpha  occ. eigenvalues --  -10.35905 -10.35679 -10.35420 -10.35340 -10.30992
 Alpha  occ. eigenvalues --   -1.33403  -1.23424  -1.03069  -0.96314  -0.92423
 Alpha  occ. eigenvalues --   -0.88786  -0.83936  -0.79868  -0.78431  -0.72592
 Alpha  occ. eigenvalues --   -0.72294  -0.70069  -0.67443  -0.62814  -0.61553
 Alpha  occ. eigenvalues --   -0.59784  -0.59182  -0.57678  -0.56399  -0.54698
 Alpha  occ. eigenvalues --   -0.52181  -0.51049  -0.50252  -0.48495  -0.41982
 Alpha  occ. eigenvalues --   -0.38320
 Alpha virt. eigenvalues --   -0.32989  -0.16921  -0.15179  -0.10035  -0.06961
 Alpha virt. eigenvalues --   -0.06816  -0.04096  -0.02328  -0.00464   0.00263
 Alpha virt. eigenvalues --    0.01258   0.02988   0.05066   0.07215   0.07525
 Alpha virt. eigenvalues --    0.09698   0.10935   0.15967   0.18653   0.19380
 Alpha virt. eigenvalues --    0.22001   0.29732   0.30782   0.32460   0.33465
 Alpha virt. eigenvalues --    0.34958   0.36968   0.38200   0.40207   0.42035
 Alpha virt. eigenvalues --    0.42191   0.42987   0.43949   0.45832   0.46493
 Alpha virt. eigenvalues --    0.47618   0.49280   0.52013   0.56273   0.56795
 Alpha virt. eigenvalues --    0.58303   0.61224   0.61741   0.63121   0.66694
 Alpha virt. eigenvalues --    0.68501   0.69025   0.70560   0.71443   0.73824
 Alpha virt. eigenvalues --    0.76031   0.76387   0.78816   0.79906   0.82118
 Alpha virt. eigenvalues --    0.83481   0.84826   0.85728   0.88826   0.91919
 Alpha virt. eigenvalues --    0.96094   0.98500   1.01426   1.04138   1.07190
 Alpha virt. eigenvalues --    1.08018   1.12580   1.17046   1.20257   1.21082
 Alpha virt. eigenvalues --    1.24002   1.24538   1.29453   1.31347   1.32913
 Alpha virt. eigenvalues --    1.34500   1.44499   1.51739   1.55592   1.57289
 Alpha virt. eigenvalues --    1.57934   1.62289   1.64438   1.68315   1.70852
 Alpha virt. eigenvalues --    1.71345   1.74150   1.74354   1.77121   1.79412
 Alpha virt. eigenvalues --    1.79632   1.83912   1.88505   1.90673   1.92768
 Alpha virt. eigenvalues --    1.95437   1.99130   2.03065   2.05995   2.10834
 Alpha virt. eigenvalues --    2.12950   2.15162   2.15656   2.19583   2.21535
 Alpha virt. eigenvalues --    2.23356   2.25171   2.29181   2.33985   2.37819
 Alpha virt. eigenvalues --    2.43428   2.49006   2.50359   2.55989   2.62600
 Alpha virt. eigenvalues --    2.65593   2.67848   2.73718   2.75298   2.86580
 Alpha virt. eigenvalues --    3.03185   3.25972   3.65830   3.90064   3.91693
 Alpha virt. eigenvalues --    3.93993   4.01281   4.04963   4.14421   4.21564
 Alpha virt. eigenvalues --    4.37311   4.73616
          Condensed to atoms (all electrons):
               1          2          3          4          5          6
     1  C    4.927510   0.470068  -0.009416  -0.038506  -0.032987   0.540540
     2  C    0.470068   5.087218   0.491728  -0.051843  -0.053130  -0.021466
     3  C   -0.009416   0.491728   4.597186   0.442355  -0.050379  -0.032282
     4  C   -0.038506  -0.051843   0.442355   4.847264   0.514488  -0.007450
     5  C   -0.032987  -0.053130  -0.050379   0.514488   5.041494   0.525756
     6  C    0.540540  -0.021466  -0.032282  -0.007450   0.525756   4.608374
     7  H    0.358205  -0.036006   0.003152   0.000486   0.005968  -0.032976
     8  H    0.005890  -0.000018   0.005833  -0.046639   0.356248  -0.032847
     9  O   -0.000019   0.004135  -0.039064   0.152606  -0.046481   0.002553
    10  O    0.004126  -0.060916   0.299324  -0.062607   0.003337   0.000036
    11  H   -0.022281   0.352087  -0.041152   0.003843   0.000903   0.002949
    12  C   -0.000005   0.000333  -0.005048  -0.041263  -0.000134  -0.000041
    13  H   -0.000002  -0.000283   0.001941   0.002440   0.001128  -0.000010
    14  H    0.000000   0.000007   0.000189   0.001601  -0.000185   0.000002
    15  H    0.000417  -0.004235  -0.024926   0.006672  -0.000077  -0.000026
    16  C   -0.050196   0.007401   0.000466   0.005280  -0.058361   0.358417
    17  H    0.001078  -0.000207   0.000022  -0.000029  -0.004219  -0.025484
    18  H    0.000709  -0.000191   0.000007   0.000004  -0.003230  -0.026052
    19  H   -0.002754   0.000282   0.000003  -0.000146   0.003626  -0.030691
               7          8          9         10         11         12
     1  C    0.358205   0.005890  -0.000019   0.004126  -0.022281  -0.000005
     2  C   -0.036006  -0.000018   0.004135  -0.060916   0.352087   0.000333
     3  C    0.003152   0.005833  -0.039064   0.299324  -0.041152  -0.005048
     4  C    0.000486  -0.046639   0.152606  -0.062607   0.003843  -0.041263
     5  C    0.005968   0.356248  -0.046481   0.003337   0.000903  -0.000134
     6  C   -0.032976  -0.032847   0.002553   0.000036   0.002949  -0.000041
     7  H    0.516224  -0.000134   0.000002  -0.000040  -0.004460   0.000000
     8  H   -0.000134   0.533172  -0.003332  -0.000049   0.000012   0.000334
     9  O    0.000002  -0.003332   7.959431  -0.005302  -0.000044   0.355612
    10  O   -0.000040  -0.000049  -0.005302   8.204005  -0.005047   0.008247
    11  H   -0.004460   0.000012  -0.000044  -0.005047   0.523354  -0.000011
    12  C    0.000000   0.000334   0.355612   0.008247  -0.000011   4.888242
    13  H    0.000000   0.000109  -0.026262  -0.000673   0.000005   0.347421
    14  H    0.000000  -0.000018  -0.026349   0.000115   0.000000   0.364393
    15  H   -0.000012   0.000005  -0.000057   0.252163   0.006012  -0.000350
    16  C   -0.007459  -0.006925  -0.000048   0.000000  -0.000162   0.000000
    17  H    0.000097   0.001679   0.000002   0.000000   0.000002  -0.000001
    18  H    0.000104   0.001436  -0.000001   0.000000   0.000002   0.000000
    19  H    0.005394   0.000041   0.000000   0.000000  -0.000004   0.000000
              13         14         15         16         17         18
     1  C   -0.000002   0.000000   0.000417  -0.050196   0.001078   0.000709
     2  C   -0.000283   0.000007  -0.004235   0.007401  -0.000207  -0.000191
     3  C    0.001941   0.000189  -0.024926   0.000466   0.000022   0.000007
     4  C    0.002440   0.001601   0.006672   0.005280  -0.000029   0.000004
     5  C    0.001128  -0.000185  -0.000077  -0.058361  -0.004219  -0.003230
     6  C   -0.000010   0.000002  -0.000026   0.358417  -0.025484  -0.026052
     7  H    0.000000   0.000000  -0.000012  -0.007459   0.000097   0.000104
     8  H    0.000109  -0.000018   0.000005  -0.006925   0.001679   0.001436
     9  O   -0.026262  -0.026349  -0.000057  -0.000048   0.000002  -0.000001
    10  O   -0.000673   0.000115   0.252163   0.000000   0.000000   0.000000
    11  H    0.000005   0.000000   0.006012  -0.000162   0.000002   0.000002
    12  C    0.347421   0.364393  -0.000350   0.000000  -0.000001   0.000000
    13  H    0.423972  -0.027163   0.000077   0.000000   0.000000   0.000000
    14  H   -0.027163   0.401125  -0.000003   0.000000   0.000000   0.000000
    15  H    0.000077  -0.000003   0.314730   0.000000   0.000000   0.000000
    16  C    0.000000   0.000000   0.000000   5.182524   0.367085   0.368157
    17  H    0.000000   0.000000   0.000000   0.367085   0.515306  -0.026675
    18  H    0.000000   0.000000   0.000000   0.368157  -0.026675   0.509161
    19  H    0.000000   0.000000   0.000000   0.372419  -0.023859  -0.023938
              19
     1  C   -0.002754
     2  C    0.000282
     3  C    0.000003
     4  C   -0.000146
     5  C    0.003626
     6  C   -0.030691
     7  H    0.005394
     8  H    0.000041
     9  O    0.000000
    10  O    0.000000
    11  H   -0.000004
    12  C    0.000000
    13  H    0.000000
    14  H    0.000000
    15  H    0.000000
    16  C    0.372419
    17  H   -0.023859
    18  H   -0.023938
    19  H    0.509850
 Mulliken charges:
               1
     1  C   -0.152376
     2  C   -0.184966
     3  C    0.360063
     4  C    0.271443
     5  C   -0.203765
     6  C    0.170697
     7  H    0.191454
     8  H    0.185205
     9  O   -0.327381
    10  O   -0.636719
    11  H    0.183992
    12  C    0.082271
    13  H    0.277300
    14  H    0.286284
    15  H    0.449611
    16  C   -0.538597
    17  H    0.195203
    18  H    0.200507
    19  H    0.189775
 Sum of Mulliken charges =   1.00000
 Mulliken charges with hydrogens summed into heavy atoms:
               1
     1  C    0.039078
     2  C   -0.000975
     3  C    0.360063
     4  C    0.271443
     5  C   -0.018560
     6  C    0.170697
     9  O   -0.327381
    10  O   -0.187108
    12  C    0.645856
    16  C    0.046888
 Electronic spatial extent (au):  <R**2>=           1491.9306
 Charge=              1.0000 electrons
 Dipole moment (field-independent basis, Debye):
    X=             -4.3183    Y=             -1.0310    Z=              2.1028  Tot=              4.9125
 Quadrupole moment (field-independent basis, Debye-Ang):
   XX=            -23.7143   YY=            -35.5133   ZZ=            -55.8570
   XY=              6.8064   XZ=             -5.1306   YZ=             -1.7896
 Traceless Quadrupole moment (field-independent basis, Debye-Ang):
   XX=             14.6472   YY=              2.8482   ZZ=            -17.4955
   XY=              6.8064   XZ=             -5.1306   YZ=             -1.7896
 Octapole moment (field-independent basis, Debye-Ang**2):
  XXX=            -50.0451  YYY=             20.8135  ZZZ=              2.3902  XYY=            -28.4379
  XXY=            -30.1877  XXZ=             15.5469  XZZ=            -11.8833  YZZ=             -4.5462
  YYZ=              3.2704  XYZ=              7.7783
 Hexadecapole moment (field-independent basis, Debye-Ang**3):
 XXXX=           -955.3257 YYYY=           -417.1992 ZZZZ=            -79.3264 XXXY=            101.0269
 XXXZ=            -33.2846 YYYX=            -11.8727 YYYZ=             -1.8894 ZZZX=             -9.2523
 ZZZY=             -3.9712 XXYY=           -195.9674 XXZZ=           -212.3225 YYZZ=           -105.9719
 XXYZ=            -14.0441 YYXZ=             -5.6837 ZZXY=              1.6618
 N-N= 5.057964338963D+02 E-N=-2.070307711200D+03  KE= 4.559807924877D+02
 No NMR shielding tensors so no spin-rotation constants.
 Leave Link  601 at Wed Dec 03 12:49:20 2025, MaxMem=   104857600 cpu:               0.0 elap:               0.2
 (Enter D:\Gaussian\G16W\l9999.exe)
 1|1|UNPC-PC-20250526LCFF|SP|RB3LYP|6-31G(d)|C8H9O2(1+)|ADMINISTRATOR|0
 3-Dec-2025|0||#P B3LYP/6-31G* SCF=conver=7 out=wfn||Generated by Multi
 wfn (http://sobereva.com/multiwfn)||1,1|C,0,1.683029,1.128891,0.136576
 |C,0,0.421646,1.721215,0.08982|C,0,-0.72675,0.951526,-0.076981|C,0,-0.
 586305,-0.443279,-0.182572|C,0,0.674778,-1.021343,-0.137811|C,0,1.8331
 55,-0.25194,0.018228|H,0,2.557442,1.758029,0.26248|H,0,0.731801,-2.099
 994,-0.235447|O,0,-1.667002,-1.271308,-0.406073|O,0,-1.979528,1.486577
 ,-0.157702|H,0,0.326301,2.800473,0.172547|C,0,-2.694996,-1.257743,0.49
 7892|H,0,-2.489724,-0.9179,1.504825|H,0,-3.470495,-1.970375,0.262376|H
 ,0,-1.912566,2.444723,-0.091591|C,0,3.192322,-0.908544,0.059254|H,0,3.
 261239,-1.634208,0.875589|H,0,3.40381,-1.44581,-0.870567|H,0,3.98316,-
 0.16979,0.203544||Version=EM64W-G16RevA.03|State=1-A|HF=-460.3783216|R
 MSD=5.995e-008|Dipole=-1.6989377,-0.4056296,0.8273152|Quadrupole=10.88
 98658,2.1175834,-13.0074492,5.0604217,-3.8144537,-1.3305276|PG=C01 [X(
 C8H9O2)]||@

 Writing a WFN file to "N-1.wfn"


 ERWIN WITH HIS PSI CAN DO
 CALCULATIONS QUITE A FEW.
 BUT ONE THING HAS NOT BEEN SEEN
 JUST WHAT DOES PSI REALLY MEAN.
 -- WALTER HUCKEL, TRANS. BY FELIX BLOCH
 Job cpu time:       0 days  0 hours  0 minutes 22.0 seconds.
 Elapsed time:       0 days  0 hours  0 minutes 21.7 seconds.
 File lengths (MBytes):  RWF=     15 Int=      0 D2E=      0 Chk=      3 Scr=      1
 Normal termination of Gaussian 16 at Wed Dec 03 12:49:21 2025.
