 Generated by Multiwfn (http://sobereva.com/multiwfn)
GAUSSIAN             36 MOL ORBITALS    316 PRIMITIVES       19 NUCLEI
  C    1    (CENTRE  1)   3.18046344  2.13329542  0.25809144  CHARGE =  6.0
  C    2    (CENTRE  2)   0.79679484  3.25262514  0.16973541  CHARGE =  6.0
  C    3    (CENTRE  3)  -1.37335883  1.79812335 -0.14547280  CHARGE =  6.0
  C    4    (CENTRE  4)  -1.10795578 -0.83767605 -0.34501087  CHARGE =  6.0
  C    5    (CENTRE  5)   1.27514590 -1.93005827 -0.26042484  CHARGE =  6.0
  C    6    (CENTRE  6)   3.46416093 -0.47609694  0.03444613  CHARGE =  6.0
  H    7    (CENTRE  7)   4.83286432  3.32219423  0.49601552  CHARGE =  1.0
  H    8    (CENTRE  8)   1.38290411 -3.96841323 -0.44493014  CHARGE =  1.0
  O    9    (CENTRE  9)  -3.15017686 -2.40242444 -0.76736655  CHARGE =  8.0
  O   10    (CENTRE 10)  -3.74076632  2.80922279 -0.29801338  CHARGE =  8.0
  H   11    (CENTRE 11)   0.61661854  5.29212715  0.32606678  CHARGE =  1.0
  C   12    (CENTRE 12)  -5.09280398 -2.37679065  0.94087973  CHARGE =  6.0
  H   13    (CENTRE 13)  -4.70489623 -1.73458038  2.84370732  CHARGE =  1.0
  H   14    (CENTRE 14)  -6.55828446 -3.72347021  0.49581899  CHARGE =  1.0
  H   15    (CENTRE 15)  -3.61422680  4.61985634 -0.17308170  CHARGE =  1.0
  C   16    (CENTRE 16)   6.03261453 -1.71689822  0.11197404  CHARGE =  6.0
  H   17    (CENTRE 17)   6.16284903 -3.08820442  1.65462361  CHARGE =  1.0
  H   18    (CENTRE 18)   6.43226911 -2.73218375 -1.64513300  CHARGE =  1.0
  H   19    (CENTRE 19)   7.52708151 -0.32085522  0.38464262  CHARGE =  1.0
CENTRE ASSIGNMENTS    1  1  1  1  1  1  1  1  1  1  1  1  1  1  1  1  1  1  1  1
CENTRE ASSIGNMENTS    1  1  1  1  1  1  1  1  2  2  2  2  2  2  2  2  2  2  2  2
CENTRE ASSIGNMENTS    2  2  2  2  2  2  2  2  2  2  2  2  2  2  2  2  3  3  3  3
CENTRE ASSIGNMENTS    3  3  3  3  3  3  3  3  3  3  3  3  3  3  3  3  3  3  3  3
CENTRE ASSIGNMENTS    3  3  3  3  4  4  4  4  4  4  4  4  4  4  4  4  4  4  4  4
CENTRE ASSIGNMENTS    4  4  4  4  4  4  4  4  4  4  4  4  5  5  5  5  5  5  5  5
CENTRE ASSIGNMENTS    5  5  5  5  5  5  5  5  5  5  5  5  5  5  5  5  5  5  5  5
CENTRE ASSIGNMENTS    6  6  6  6  6  6  6  6  6  6  6  6  6  6  6  6  6  6  6  6
CENTRE ASSIGNMENTS    6  6  6  6  6  6  6  6  7  7  7  7  8  8  8  8  9  9  9  9
CENTRE ASSIGNMENTS    9  9  9  9  9  9  9  9  9  9  9  9  9  9  9  9  9  9  9  9
CENTRE ASSIGNMENTS    9  9  9  9 10 10 10 10 10 10 10 10 10 10 10 10 10 10 10 10
CENTRE ASSIGNMENTS   10 10 10 10 10 10 10 10 10 10 10 10 11 11 11 11 12 12 12 12
CENTRE ASSIGNMENTS   12 12 12 12 12 12 12 12 12 12 12 12 12 12 12 12 12 12 12 12
CENTRE ASSIGNMENTS   12 12 12 12 13 13 13 13 14 14 14 14 15 15 15 15 16 16 16 16
CENTRE ASSIGNMENTS   16 16 16 16 16 16 16 16 16 16 16 16 16 16 16 16 16 16 16 16
CENTRE ASSIGNMENTS   16 16 16 16 17 17 17 17 18 18 18 18 19 19 19 19
TYPE ASSIGNMENTS      1  1  1  1  1  1  1  1  1  2  2  2  3  3  3  4  4  4  1  2
TYPE ASSIGNMENTS      3  4  5  6  7  8  9 10  1  1  1  1  1  1  1  1  1  2  2  2
TYPE ASSIGNMENTS      3  3  3  4  4  4  1  2  3  4  5  6  7  8  9 10  1  1  1  1
TYPE ASSIGNMENTS      1  1  1  1  1  2  2  2  3  3  3  4  4  4  1  2  3  4  5  6
TYPE ASSIGNMENTS      7  8  9 10  1  1  1  1  1  1  1  1  1  2  2  2  3  3  3  4
TYPE ASSIGNMENTS      4  4  1  2  3  4  5  6  7  8  9 10  1  1  1  1  1  1  1  1
TYPE ASSIGNMENTS      1  2  2  2  3  3  3  4  4  4  1  2  3  4  5  6  7  8  9 10
TYPE ASSIGNMENTS      1  1  1  1  1  1  1  1  1  2  2  2  3  3  3  4  4  4  1  2
TYPE ASSIGNMENTS      3  4  5  6  7  8  9 10  1  1  1  1  1  1  1  1  1  1  1  1
TYPE ASSIGNMENTS      1  1  1  1  1  2  2  2  3  3  3  4  4  4  1  2  3  4  5  6
TYPE ASSIGNMENTS      7  8  9 10  1  1  1  1  1  1  1  1  1  2  2  2  3  3  3  4
TYPE ASSIGNMENTS      4  4  1  2  3  4  5  6  7  8  9 10  1  1  1  1  1  1  1  1
TYPE ASSIGNMENTS      1  1  1  1  1  2  2  2  3  3  3  4  4  4  1  2  3  4  5  6
TYPE ASSIGNMENTS      7  8  9 10  1  1  1  1  1  1  1  1  1  1  1  1  1  1  1  1
TYPE ASSIGNMENTS      1  1  1  1  1  2  2  2  3  3  3  4  4  4  1  2  3  4  5  6
TYPE ASSIGNMENTS      7  8  9 10  1  1  1  1  1  1  1  1  1  1  1  1
EXPONENTS  0.3047525D+04 0.4573695D+03 0.1039487D+03 0.2921016D+02 0.9286663D+01
EXPONENTS  0.3163927D+01 0.7868272D+01 0.1881289D+01 0.5442493D+00 0.7868272D+01
EXPONENTS  0.1881289D+01 0.5442493D+00 0.7868272D+01 0.1881289D+01 0.5442493D+00
EXPONENTS  0.7868272D+01 0.1881289D+01 0.5442493D+00 0.1687145D+00 0.1687145D+00
EXPONENTS  0.1687145D+00 0.1687145D+00 0.8000000D+00 0.8000000D+00 0.8000000D+00
EXPONENTS  0.8000000D+00 0.8000000D+00 0.8000000D+00 0.3047525D+04 0.4573695D+03
EXPONENTS  0.1039487D+03 0.2921016D+02 0.9286663D+01 0.3163927D+01 0.7868272D+01
EXPONENTS  0.1881289D+01 0.5442493D+00 0.7868272D+01 0.1881289D+01 0.5442493D+00
EXPONENTS  0.7868272D+01 0.1881289D+01 0.5442493D+00 0.7868272D+01 0.1881289D+01
EXPONENTS  0.5442493D+00 0.1687145D+00 0.1687145D+00 0.1687145D+00 0.1687145D+00
EXPONENTS  0.8000000D+00 0.8000000D+00 0.8000000D+00 0.8000000D+00 0.8000000D+00
EXPONENTS  0.8000000D+00 0.3047525D+04 0.4573695D+03 0.1039487D+03 0.2921016D+02
EXPONENTS  0.9286663D+01 0.3163927D+01 0.7868272D+01 0.1881289D+01 0.5442493D+00
EXPONENTS  0.7868272D+01 0.1881289D+01 0.5442493D+00 0.7868272D+01 0.1881289D+01
EXPONENTS  0.5442493D+00 0.7868272D+01 0.1881289D+01 0.5442493D+00 0.1687145D+00
EXPONENTS  0.1687145D+00 0.1687145D+00 0.1687145D+00 0.8000000D+00 0.8000000D+00
EXPONENTS  0.8000000D+00 0.8000000D+00 0.8000000D+00 0.8000000D+00 0.3047525D+04
EXPONENTS  0.4573695D+03 0.1039487D+03 0.2921016D+02 0.9286663D+01 0.3163927D+01
EXPONENTS  0.7868272D+01 0.1881289D+01 0.5442493D+00 0.7868272D+01 0.1881289D+01
EXPONENTS  0.5442493D+00 0.7868272D+01 0.1881289D+01 0.5442493D+00 0.7868272D+01
EXPONENTS  0.1881289D+01 0.5442493D+00 0.1687145D+00 0.1687145D+00 0.1687145D+00
EXPONENTS  0.1687145D+00 0.8000000D+00 0.8000000D+00 0.8000000D+00 0.8000000D+00
EXPONENTS  0.8000000D+00 0.8000000D+00 0.3047525D+04 0.4573695D+03 0.1039487D+03
EXPONENTS  0.2921016D+02 0.9286663D+01 0.3163927D+01 0.7868272D+01 0.1881289D+01
EXPONENTS  0.5442493D+00 0.7868272D+01 0.1881289D+01 0.5442493D+00 0.7868272D+01
EXPONENTS  0.1881289D+01 0.5442493D+00 0.7868272D+01 0.1881289D+01 0.5442493D+00
EXPONENTS  0.1687145D+00 0.1687145D+00 0.1687145D+00 0.1687145D+00 0.8000000D+00
EXPONENTS  0.8000000D+00 0.8000000D+00 0.8000000D+00 0.8000000D+00 0.8000000D+00
EXPONENTS  0.3047525D+04 0.4573695D+03 0.1039487D+03 0.2921016D+02 0.9286663D+01
EXPONENTS  0.3163927D+01 0.7868272D+01 0.1881289D+01 0.5442493D+00 0.7868272D+01
EXPONENTS  0.1881289D+01 0.5442493D+00 0.7868272D+01 0.1881289D+01 0.5442493D+00
EXPONENTS  0.7868272D+01 0.1881289D+01 0.5442493D+00 0.1687145D+00 0.1687145D+00
EXPONENTS  0.1687145D+00 0.1687145D+00 0.8000000D+00 0.8000000D+00 0.8000000D+00
EXPONENTS  0.8000000D+00 0.8000000D+00 0.8000000D+00 0.1873114D+02 0.2825394D+01
EXPONENTS  0.6401217D+00 0.1612778D+00 0.1873114D+02 0.2825394D+01 0.6401217D+00
EXPONENTS  0.1612778D+00 0.5484672D+04 0.8252349D+03 0.1880470D+03 0.5296450D+02
EXPONENTS  0.1689757D+02 0.5799635D+01 0.1553962D+02 0.3599934D+01 0.1013762D+01
EXPONENTS  0.1553962D+02 0.3599934D+01 0.1013762D+01 0.1553962D+02 0.3599934D+01
EXPONENTS  0.1013762D+01 0.1553962D+02 0.3599934D+01 0.1013762D+01 0.2700058D+00
EXPONENTS  0.2700058D+00 0.2700058D+00 0.2700058D+00 0.8000000D+00 0.8000000D+00
EXPONENTS  0.8000000D+00 0.8000000D+00 0.8000000D+00 0.8000000D+00 0.5484672D+04
EXPONENTS  0.8252349D+03 0.1880470D+03 0.5296450D+02 0.1689757D+02 0.5799635D+01
EXPONENTS  0.1553962D+02 0.3599934D+01 0.1013762D+01 0.1553962D+02 0.3599934D+01
EXPONENTS  0.1013762D+01 0.1553962D+02 0.3599934D+01 0.1013762D+01 0.1553962D+02
EXPONENTS  0.3599934D+01 0.1013762D+01 0.2700058D+00 0.2700058D+00 0.2700058D+00
EXPONENTS  0.2700058D+00 0.8000000D+00 0.8000000D+00 0.8000000D+00 0.8000000D+00
EXPONENTS  0.8000000D+00 0.8000000D+00 0.1873114D+02 0.2825394D+01 0.6401217D+00
EXPONENTS  0.1612778D+00 0.3047525D+04 0.4573695D+03 0.1039487D+03 0.2921016D+02
EXPONENTS  0.9286663D+01 0.3163927D+01 0.7868272D+01 0.1881289D+01 0.5442493D+00
EXPONENTS  0.7868272D+01 0.1881289D+01 0.5442493D+00 0.7868272D+01 0.1881289D+01
EXPONENTS  0.5442493D+00 0.7868272D+01 0.1881289D+01 0.5442493D+00 0.1687145D+00
EXPONENTS  0.1687145D+00 0.1687145D+00 0.1687145D+00 0.8000000D+00 0.8000000D+00
EXPONENTS  0.8000000D+00 0.8000000D+00 0.8000000D+00 0.8000000D+00 0.1873114D+02
EXPONENTS  0.2825394D+01 0.6401217D+00 0.1612778D+00 0.1873114D+02 0.2825394D+01
EXPONENTS  0.6401217D+00 0.1612778D+00 0.1873114D+02 0.2825394D+01 0.6401217D+00
EXPONENTS  0.1612778D+00 0.3047525D+04 0.4573695D+03 0.1039487D+03 0.2921016D+02
EXPONENTS  0.9286663D+01 0.3163927D+01 0.7868272D+01 0.1881289D+01 0.5442493D+00
EXPONENTS  0.7868272D+01 0.1881289D+01 0.5442493D+00 0.7868272D+01 0.1881289D+01
EXPONENTS  0.5442493D+00 0.7868272D+01 0.1881289D+01 0.5442493D+00 0.1687145D+00
EXPONENTS  0.1687145D+00 0.1687145D+00 0.1687145D+00 0.8000000D+00 0.8000000D+00
EXPONENTS  0.8000000D+00 0.8000000D+00 0.8000000D+00 0.8000000D+00 0.1873114D+02
EXPONENTS  0.2825394D+01 0.6401217D+00 0.1612778D+00 0.1873114D+02 0.2825394D+01
EXPONENTS  0.6401217D+00 0.1612778D+00 0.1873114D+02 0.2825394D+01 0.6401217D+00
EXPONENTS  0.1612778D+00
MO    1     MO 0.0        OCC NO =    2.0000000  ORB. ENERGY =  -19.477936
  0.79675296D-05  0.14698536D-04  0.23727995D-04  0.30886799D-04  0.26355762D-04
  0.91000112D-05 -0.33348522D-04 -0.15370303D-04  0.43099935D-04 -0.84593513D-06
 -0.64860940D-06 -0.32370155D-06 -0.20323433D-04 -0.15582719D-04 -0.77768689D-05
  0.52248249D-05  0.40060643D-05  0.19993069D-05 -0.26646938D-03  0.86828921D-04
  0.60832088D-04  0.93122912D-05 -0.55456956D-05 -0.12438506D-04  0.36412659D-04
  0.43607119D-04  0.79475143D-06 -0.45453240D-05  0.31085962D-07  0.57347530D-07
  0.92576695D-07  0.12050735D-06  0.10282914D-06  0.35504431D-07  0.65893276D-05
  0.30370151D-05 -0.85161073D-05 -0.68844016D-04 -0.52785225D-04 -0.26343527D-04
 -0.51211568D-04 -0.39265782D-04 -0.19596377D-04 -0.44463459D-05 -0.34091760D-05
 -0.17014178D-05  0.32736264D-03  0.30100262D-04 -0.16406806D-03 -0.83892058D-05
  0.14732103D-04  0.17008119D-04  0.15885180D-04  0.95147353D-05 -0.10570532D-04
 -0.73657988D-07  0.21631611D-04  0.39906099D-04  0.64420817D-04  0.83856763D-04
  0.71555128D-04  0.24706266D-04 -0.96472812D-04 -0.44464231D-04  0.12468234D-03
 -0.22441431D-04 -0.17206666D-04 -0.85873323D-05  0.37770977D-04  0.28960389D-04
  0.14453264D-04 -0.36446788D-06 -0.27945085D-06 -0.13946556D-06 -0.45525657D-03
 -0.39178582D-03  0.20440929D-03 -0.35533048D-04  0.43509774D-04 -0.42145246D-04
  0.78503401D-04 -0.21246582D-05 -0.18239771D-04  0.77507378D-05 -0.27500005D-04
 -0.50732139D-04 -0.81897403D-04 -0.10660608D-03 -0.90967165D-04 -0.31408776D-04
 -0.13627534D-04 -0.62809180D-05  0.17612350D-04 -0.46060141D-03 -0.35315995D-03
 -0.17625157D-03 -0.37818569D-03 -0.28996880D-03 -0.14471475D-03 -0.16582989D-03
 -0.12714784D-03 -0.63455683D-04  0.17997924D-03  0.57054887D-03  0.44518306D-03
  0.13534411D-03  0.44127950D-04  0.62415029D-04 -0.80093733D-04  0.12925719D-03
  0.60036473D-04  0.83193492D-04  0.88758734D-05  0.16374253D-04  0.26433122D-04
  0.34408071D-04  0.29360469D-04  0.10137464D-04 -0.78538082D-04 -0.36198130D-04
  0.10150334D-03 -0.44814845D-05 -0.34361180D-05 -0.17148637D-05 -0.61558758D-05
 -0.47199351D-05 -0.23555784D-05 -0.65696782D-06 -0.50372125D-06 -0.25139221D-06
 -0.35674235D-03  0.62322022D-04 -0.27101147D-03 -0.34442392D-04 -0.10068839D-03
 -0.77539597D-04  0.40936069D-04  0.69709490D-04  0.67960968D-06 -0.51397931D-04
  0.10511336D-05  0.19391362D-05  0.31303671D-05  0.40748078D-05  0.34770409D-05
  0.12005387D-05  0.71970277D-05  0.33171035D-05 -0.93015044D-05 -0.69488513D-04
 -0.53279384D-04 -0.26590147D-04 -0.32117571D-04 -0.24625716D-04 -0.12289958D-04
 -0.10992636D-05 -0.84284563D-06 -0.42063904D-06  0.24559811D-03 -0.62136713D-04
  0.58937453D-04  0.31794242D-05  0.24122756D-04  0.34736052D-04  0.19827630D-04
  0.11584339D-04 -0.45728426D-05 -0.31194271D-05 -0.18833421D-05 -0.31945046D-05
 -0.36368306D-05 -0.26779838D-04 -0.99027352D-06 -0.16796913D-05 -0.19122692D-05
 -0.12428673D-03  0.82562239D+00  0.15195859D+01  0.24589769D+01  0.32323939D+01
  0.27724055D+01  0.94793252D+00 -0.15705426D-01 -0.70077305D-02  0.20693922D-01
 -0.26742976D-03 -0.20604021D-03 -0.90462751D-04  0.17850559D-02  0.13752894D-02
  0.60382610D-03  0.24277743D-02  0.18704692D-02  0.82123674D-03  0.39736090D-02
  0.21945749D-03  0.14823626D-03  0.42397834D-04 -0.93583539D-02 -0.93142228D-02
 -0.93751494D-02  0.33609053D-04  0.14751247D-03 -0.17552996D-04  0.35918982D-04
  0.66110101D-04  0.10697862D-03  0.14062639D-03  0.12061444D-03  0.41240126D-04
 -0.15822886D-03 -0.70601410D-04  0.20848691D-03  0.94587085D-04  0.72874250D-04
  0.31995721D-04 -0.90235593D-04 -0.69521660D-04 -0.30523753D-04 -0.24823337D-04
 -0.19125043D-04 -0.83969238D-05 -0.45706958D-03 -0.13624123D-03  0.43636149D-04
 -0.73362226D-06  0.14549905D-03  0.21298644D-03  0.19877980D-03  0.29869305D-04
 -0.78228810D-06 -0.22607470D-05  0.85428682D-05  0.14490321D-04  0.16496719D-04
  0.42306357D-04 -0.20117411D-05 -0.37112694D-05 -0.59911396D-05 -0.77986836D-05
 -0.66546308D-05 -0.22976841D-05 -0.10074270D-03 -0.46432217D-04  0.13020078D-03
  0.34544762D-03  0.26486733D-03  0.13218736D-03 -0.81450149D-04 -0.62450808D-04
 -0.31167330D-04 -0.45831548D-03 -0.35140724D-03 -0.17537684D-03 -0.25951726D-03
 -0.50413727D-04  0.51015241D-04  0.13208734D-03  0.10936553D-03 -0.49872142D-04
  0.15835623D-03 -0.75298842D-04 -0.31183553D-03  0.41691150D-04 -0.22373749D-05
 -0.37950112D-05 -0.43204861D-05 -0.31326991D-04  0.27691002D-04  0.46969180D-04
  0.53472751D-04  0.44022652D-04  0.69127207D-05  0.11725283D-04  0.13348820D-04
 -0.22654525D-04  0.61939287D-05  0.11426589D-04  0.18446057D-04  0.24011286D-04
  0.20488874D-04  0.70743158D-05 -0.20060242D-04 -0.92457470D-05  0.25926040D-04
 -0.15440182D-04 -0.11838552D-04 -0.59082674D-05 -0.86901429D-05 -0.66630504D-05
 -0.33253291D-05 -0.51819648D-05 -0.39732019D-05 -0.19829062D-05 -0.25558958D-04
  0.10559395D-04 -0.12109633D-05  0.15602722D-05  0.10060396D-04  0.14165525D-04
  0.25371282D-04  0.22390776D-04 -0.56395406D-06 -0.38105139D-05  0.19654877D-05
  0.33338391D-05  0.37954579D-05  0.48896291D-05  0.32320112D-05  0.54821027D-05
  0.62411802D-05  0.40694763D-05  0.16653268D-05  0.28247095D-05  0.32158319D-05
 -0.20193351D-05
MO    2     MO 0.0        OCC NO =    2.0000000  ORB. ENERGY =  -19.352880
 -0.58882957D-05 -0.10862756D-04 -0.17535856D-04 -0.22826474D-04 -0.19477872D-04
 -0.67252410D-05  0.32487609D-04  0.14973509D-04 -0.41987283D-04 -0.85120359D-04
 -0.65264892D-04 -0.32571755D-04  0.32559999D-04  0.24964942D-04  0.12459256D-04
 -0.33242378D-05 -0.25488147D-05 -0.12720372D-05  0.41797641D-03 -0.17130515D-03
 -0.37556346D-04 -0.16475598D-04  0.38899525D-04  0.19837468D-04 -0.11823879D-04
 -0.72375907D-04 -0.26297699D-05  0.42484314D-05  0.13175490D-04  0.24306207D-04
  0.39237754D-04  0.51075897D-04  0.43583155D-04  0.15048216D-04 -0.85474413D-04
 -0.39395079D-04  0.11046791D-03  0.10798937D-03  0.82799403D-04  0.41322705D-04
  0.18889632D-04  0.14483372D-04  0.72282176D-05  0.19289007D-04  0.14789587D-04
  0.73810405D-05 -0.65394453D-03 -0.89461977D-04  0.32257057D-03  0.17321437D-04
 -0.89184378D-04 -0.49647113D-04  0.50281337D-04  0.29695244D-04 -0.18059951D-04
 -0.11286074D-04 -0.27198518D-04 -0.50175955D-04 -0.80999550D-04 -0.10543735D-03
 -0.89969879D-04 -0.31064437D-04 -0.64496714D-04 -0.29726476D-04  0.83356143D-04
 -0.52410027D-03 -0.40184684D-03 -0.20054974D-03  0.15332113D-03  0.11755692D-03
  0.58669141D-04 -0.55918476D-04 -0.42874740D-04 -0.21397500D-04 -0.40612587D-05
  0.75332505D-03 -0.17454697D-03  0.55871275D-04 -0.43365896D-04 -0.90860105D-04
 -0.10173603D-03  0.29155634D-04  0.13472703D-04  0.10884600D-04  0.52432273D-05
  0.96727306D-05  0.15614786D-04  0.20325812D-04  0.17344052D-04  0.59884845D-05
 -0.44189677D-04 -0.20366982D-04  0.57111143D-04  0.38831699D-05  0.29773684D-05
  0.14859155D-05 -0.20426972D-05 -0.15662106D-05 -0.78164888D-06 -0.48573462D-04
 -0.37243049D-04 -0.18586892D-04 -0.17651982D-03 -0.37605893D-03 -0.19041778D-03
 -0.34506976D-04 -0.10122367D-04 -0.31514832D-04  0.88909535D-05  0.92743356D-04
  0.22446214D-05  0.24997206D-04  0.23778510D-05  0.43866709D-05  0.70814469D-05
  0.92179398D-05  0.78656847D-05  0.27158319D-05  0.11540111D-05  0.53188265D-06
 -0.14914545D-05 -0.65825215D-04 -0.50470600D-04 -0.25188366D-04  0.55855497D-04
  0.42826452D-04  0.21373401D-04  0.12222165D-04  0.93711811D-05  0.46768762D-05
  0.33852024D-03  0.22805378D-04  0.15273737D-03  0.76604209D-05  0.33978125D-04
  0.24047286D-04  0.24497196D-04  0.72021502D-05  0.99955706D-05 -0.61406530D-05
  0.73711179D-05  0.13598273D-04  0.21951829D-04  0.28574759D-04  0.24382894D-04
  0.84188273D-05 -0.32416399D-04 -0.14940689D-04  0.41895251D-04 -0.31867948D-04
 -0.24434322D-04 -0.12194439D-04  0.52481183D-05  0.40239243D-05  0.20082202D-05
 -0.40981025D-05 -0.31421651D-05 -0.15681606D-05 -0.25800292D-03  0.15728423D-03
 -0.40519493D-04  0.10968843D-04  0.34144575D-05 -0.27037680D-04  0.30129328D-04
 -0.36258642D-04 -0.10634206D-04 -0.17530039D-04  0.39937113D-05  0.67740902D-05
  0.77120622D-05  0.30578541D-04  0.69156406D-05  0.11730235D-04  0.13354458D-04
  0.34395760D-04  0.55900340D-04  0.10288647D-03  0.16648973D-03  0.21885540D-03
  0.18771101D-03  0.64181582D-04 -0.12829599D-03 -0.57245421D-04  0.16904649D-03
  0.42808951D-04  0.32981989D-04  0.14480870D-04  0.12012044D-03  0.92546325D-04
  0.40632821D-04 -0.25775093D-04 -0.19858319D-04 -0.87188718D-05 -0.37307775D-03
 -0.15663834D-03 -0.87294615D-04  0.16719232D-04  0.14561374D-03  0.16078107D-03
  0.18094377D-03 -0.10768730D-03 -0.33698729D-04  0.77155467D-05  0.82561781D+00
  0.15195775D+01  0.24589633D+01  0.32323760D+01  0.27723901D+01  0.94792727D+00
 -0.15792494D-01 -0.70465799D-02  0.20808645D-01  0.25802530D-02  0.19879458D-02
  0.87281530D-03  0.18487944D-02  0.14243965D-02  0.62538676D-03  0.26485109D-03
  0.20405349D-03  0.89590473D-04  0.39129463D-02  0.30321572D-03 -0.23372889D-03
  0.27115991D-04 -0.92234340D-02 -0.92948456D-02 -0.92466541D-02 -0.14582267D-03
 -0.10180974D-04 -0.47705952D-04 -0.20690459D-04 -0.35094935D-04 -0.39954343D-04
 -0.73538913D-04  0.25720673D-04  0.47449619D-04  0.76598397D-04  0.99708353D-04
  0.85081319D-04  0.29376535D-04 -0.51012870D-04 -0.23511785D-04  0.65929500D-04
  0.26072214D-04  0.19990520D-04  0.99766705D-05  0.17352738D-03  0.13304979D-03
  0.66401168D-04 -0.76895292D-05 -0.58958433D-05 -0.29424390D-05 -0.15857217D-03
 -0.65664812D-04 -0.64734655D-04  0.66822617D-05  0.11170494D-03  0.15849677D-03
  0.72426698D-04 -0.62770734D-05  0.93691053D-04 -0.11120192D-04  0.18722641D-04
  0.31757144D-04  0.36154386D-04  0.39040985D-04 -0.76540536D-05 -0.12982724D-04
 -0.14780372D-04 -0.27271330D-04  0.93005945D-04  0.15775569D-03  0.17959927D-03
 -0.18531490D-03  0.95682092D-06  0.17651478D-05  0.28494958D-05  0.37091969D-05
  0.31650644D-05  0.10928207D-05 -0.49858675D-05 -0.22979818D-05  0.64437807D-05
  0.15843912D-04  0.12148107D-04  0.60627568D-05 -0.17358416D-04 -0.13309332D-04
 -0.66422897D-05  0.43653225D-06  0.33470524D-06  0.16704137D-06 -0.71739478D-04
  0.17635837D-04 -0.80706777D-05 -0.94062171D-06 -0.18186013D-05  0.11787681D-05
 -0.17629294D-05  0.67368448D-05  0.19161113D-05  0.35173033D-06  0.19265461D-05
  0.32677868D-05  0.37202598D-05  0.28660362D-05  0.21699170D-05  0.36805900D-05
  0.41902216D-05  0.29403204D-06 -0.31621766D-06 -0.53636500D-06 -0.61063260D-06
  0.55755750D-05
MO    3     MO 0.0        OCC NO =    2.0000000  ORB. ENERGY =  -10.534822
 -0.26418850D-05 -0.48737619D-05 -0.78677629D-05 -0.10241490D-04 -0.87390816D-05
 -0.30173949D-05  0.76311978D-05  0.35172121D-05 -0.98626299D-05  0.21764107D-04
  0.16687337D-04  0.83281508D-05 -0.13785743D-04 -0.10570034D-04 -0.52751876D-05
  0.13674072D-04  0.10484411D-04  0.52324560D-05  0.73605152D-04 -0.49898911D-04
 -0.68440183D-05 -0.12268536D-04 -0.55111970D-05 -0.16565346D-06 -0.96692995D-05
 -0.97844410D-05  0.77049339D-05  0.58862866D-06 -0.59193336D-05 -0.10920015D-04
 -0.17628290D-04 -0.22946795D-04 -0.19580542D-04 -0.67606906D-05  0.17447736D-04
  0.80416455D-05 -0.22549613D-04 -0.19335944D-05 -0.14825575D-05 -0.73990011D-06
  0.29566221D-04  0.22669503D-04  0.11313671D-04  0.99732627D-05  0.76468653D-05
  0.38163217D-05 -0.13796580D-03 -0.63261292D-05  0.14054530D-04  0.14499501D-04
  0.13958826D-04  0.58263695D-05 -0.34768955D-04  0.65408774D-04 -0.13125744D-04
  0.22707038D-06 -0.13147024D-04 -0.24253692D-04 -0.39152979D-04 -0.50965545D-04
 -0.43488992D-04 -0.15015704D-04 -0.36525081D-06 -0.16834376D-06  0.47205348D-06
  0.86865561D-04  0.66603002D-04  0.33239566D-04  0.40391918D-05  0.30969960D-05
  0.15456181D-05  0.34507995D-04  0.26458542D-04  0.13204667D-04 -0.66711655D-04
  0.19516209D-03  0.42894956D-04 -0.31048040D-04 -0.91153703D-04 -0.32203684D-04
 -0.20308713D-04 -0.18076613D-03 -0.30448789D-04  0.25849276D-04 -0.15445357D-04
 -0.28493667D-04 -0.45997613D-04 -0.59875225D-04 -0.51091638D-04 -0.17640715D-04
  0.66652148D-04  0.30719914D-04 -0.86141845D-04  0.59551231D-04  0.45660106D-04
  0.22787593D-04 -0.11315059D-05 -0.86756696D-06 -0.43297672D-06 -0.70728863D-04
 -0.54230406D-04 -0.27064773D-04 -0.28885579D-04 -0.47577844D-03 -0.39778140D-04
  0.68961078D-04  0.19983482D-03  0.65688044D-04  0.53363805D-05  0.22700136D-03
 -0.15395421D-03 -0.18600028D-04 -0.12073743D-04 -0.22273699D-04 -0.35956656D-04
 -0.46804882D-04 -0.39938691D-04 -0.13789870D-04  0.43170551D-04  0.19897268D-04
 -0.55794015D-04 -0.60463798D-04 -0.46359806D-04 -0.23136792D-04 -0.30652606D-04
 -0.23502474D-04 -0.11729382D-04 -0.16940757D-04 -0.12989098D-04 -0.64824701D-05
  0.50672681D-03 -0.18312921D-04  0.24088781D-03 -0.95292238D-05 -0.26979033D-05
  0.12102723D-04 -0.40596674D-04 -0.15102190D-04  0.52556084D-04 -0.35032369D-04
  0.43714836D-05  0.80645337D-05  0.13018658D-04  0.16946424D-04  0.14460415D-04
  0.49928337D-05 -0.21212818D-04 -0.97769684D-05  0.27415640D-04  0.32434388D-04
  0.24868632D-04  0.12411190D-04  0.23111996D-04  0.17720813D-04  0.88439275D-05
  0.16582136D-04  0.12714130D-04  0.63452421D-05 -0.23291674D-03  0.11985193D-03
  0.17311207D-04  0.15723549D-04 -0.28024558D-04  0.60043330D-05  0.45282570D-05
 -0.22571997D-04 -0.13690435D-04 -0.12261801D-04  0.25489963D-05  0.43235802D-05
  0.49222433D-05  0.13734290D-04  0.11502875D-04  0.19511053D-04  0.22212644D-04
  0.77614434D-04 -0.15694220D-04 -0.28885742D-04 -0.46742583D-04 -0.61444434D-04
 -0.52700534D-04 -0.18019208D-04 -0.23359489D-03 -0.10422958D-03  0.30779136D-03
  0.90804323D-04  0.69959835D-04  0.30716136D-04  0.23037511D-03  0.17749161D-03
  0.77928375D-04 -0.10392031D-03 -0.80064994D-04 -0.35152845D-04 -0.39510246D-03
  0.13362548D-03 -0.20718796D-03 -0.22592015D-03 -0.29889033D-03  0.26272844D-03
 -0.10399219D-03 -0.20520139D-03  0.95900767D-03 -0.28446019D-03 -0.59530079D-04
 -0.10956712D-03 -0.17730029D-03 -0.23306619D-03 -0.19989952D-03 -0.68349041D-04
  0.15048360D-03  0.67145490D-04 -0.19828153D-03  0.12302430D-03  0.94783590D-04
  0.41615101D-04  0.40613525D-03  0.31290532D-03  0.13738229D-03 -0.12301438D-03
 -0.94775947D-04 -0.41611745D-04  0.36329153D-03  0.27243948D-04 -0.16870270D-03
  0.45007887D-04 -0.23668605D-03 -0.26725724D-03 -0.26616110D-03 -0.37521923D-04
  0.22657272D-04 -0.86068206D-04  0.27255497D-05  0.46230481D-05  0.52631768D-05
  0.65286692D-05  0.53251874D+00  0.98239310D+00  0.15858871D+01  0.20643538D+01
  0.17615168D+01  0.60820942D+00 -0.19206741D-01 -0.88523696D-02  0.24822968D-01
  0.12260267D-02  0.94003949D-03  0.46914559D-03  0.38808523D-03  0.29755914D-03
  0.14850287D-03 -0.10348858D-02 -0.79348477D-03 -0.39600451D-03 -0.17201131D-02
 -0.69734695D-04 -0.47062891D-04 -0.10327575D-03 -0.10023871D-01 -0.10472382D-01
 -0.10053094D-01  0.36828883D-03 -0.61073273D-03  0.20367907D-03 -0.55879261D-04
 -0.94781804D-04 -0.10790573D-03  0.41224466D-03 -0.96636496D-04 -0.16391379D-03
 -0.18661005D-03  0.28452437D-03  0.29236369D-04  0.49590415D-04  0.56456935D-04
  0.16466622D-04 -0.31090191D-05 -0.57355332D-05 -0.92589290D-05 -0.12052374D-04
 -0.10284313D-04 -0.35509261D-05  0.87012385D-05  0.40103929D-05 -0.11245560D-04
  0.95584646D-05  0.73288244D-05  0.36575970D-05  0.70550004D-06  0.54093268D-06
  0.26996332D-06 -0.58270911D-05 -0.44678439D-05 -0.22297672D-05 -0.11181431D-04
 -0.68807804D-05 -0.18254434D-04 -0.71474295D-06  0.86093901D-05 -0.22031108D-04
 -0.59502428D-05  0.31527710D-05  0.16114585D-05 -0.10298892D-04 -0.31033821D-05
 -0.52639235D-05 -0.59927908D-05 -0.36628976D-05 -0.30742510D-06 -0.52145116D-06
 -0.59365371D-06 -0.56917305D-05  0.14133179D-05  0.23972546D-05  0.27291896D-05
  0.74933377D-05
MO    4     MO 0.0        OCC NO =    2.0000000  ORB. ENERGY =  -10.434550
  0.27086550D-04  0.49969396D-04  0.80666098D-04  0.10500329D-03  0.89599499D-04
  0.30936554D-04 -0.76499034D-04 -0.35258335D-04  0.98868051D-04  0.15057757D-03
  0.11545333D-03  0.57619303D-04 -0.38273298D-04 -0.29345537D-04 -0.14645480D-04
  0.10297663D-04  0.78955947D-05  0.39404551D-05 -0.13123546D-02  0.52744970D-03
  0.29768552D-03  0.68128829D-04  0.65606254D-04  0.73729862D-05  0.38549996D-04
  0.21324357D-05  0.99426729D-05 -0.97392551D-05  0.16645173D-02  0.30707094D-02
  0.49570771D-02  0.64526415D-02  0.55060507D-02  0.19011070D-02  0.27575065D-03
  0.12709322D-03 -0.35638266D-03  0.17970789D-03  0.13778861D-03  0.68766174D-04
  0.28985459D-03  0.22224212D-03  0.11091439D-03  0.32454286D-04  0.24883888D-04
  0.12418804D-04  0.23028485D-02 -0.52598289D-04 -0.11263072D-02 -0.10053408D-03
 -0.43355100D-03 -0.18023266D-03 -0.33264198D-03 -0.11865905D-04 -0.30925745D-04
  0.22361357D-04  0.51783193D+00  0.95529879D+00  0.15421485D+01  0.20074191D+01
  0.17129343D+01  0.59143506D+00 -0.19168483D-01 -0.88347365D-02  0.24773523D-01
 -0.99564242D-03 -0.76339546D-03 -0.38098784D-03  0.13024180D-03  0.99861154D-04
  0.49837714D-04 -0.11150307D-03 -0.85493484D-04 -0.42667240D-04 -0.34929476D-02
 -0.15824400D-02  0.69188372D-03 -0.83149052D-04 -0.91879850D-02 -0.97188425D-02
 -0.10150854D-01 -0.52251045D-03  0.14503860D-03  0.42857498D-05  0.12417485D+00
  0.22907835D+00  0.36980348D+00  0.48137425D+00  0.41075752D+00  0.14182470D+00
 -0.43201372D-02 -0.19911473D-02  0.55833849D-02 -0.42444568D-03 -0.32543803D-03
 -0.16241638D-03 -0.59582973D-03 -0.45684444D-03 -0.22799740D-03 -0.52152172D-05
 -0.39986977D-05 -0.19956304D-05  0.15219027D-02  0.74425373D-03  0.83931052D-03
  0.11198930D-03 -0.26575196D-02 -0.28516555D-02 -0.27442657D-02  0.33797468D-03
  0.27888743D-04 -0.99791714D-05  0.46250287D-03  0.85322749D-03  0.13773737D-02
  0.17929313D-02  0.15299116D-02  0.52824169D-03 -0.16331870D-04 -0.75273439D-05
  0.21107458D-04  0.20032857D-03  0.15359924D-03  0.76656787D-04 -0.13527953D-03
 -0.10372376D-03 -0.51765427D-04 -0.87886942D-05 -0.67386133D-05 -0.33630403D-05
 -0.10328257D-02 -0.10404544D-03 -0.54312473D-03 -0.46392149D-04 -0.54047613D-05
 -0.32998924D-04 -0.39225793D-04 -0.10796848D-03 -0.20473601D-04 -0.11977642D-06
 -0.54381922D-04 -0.10032403D-03 -0.16195409D-03 -0.21081610D-03 -0.17988976D-03
 -0.62111611D-04  0.13770542D-03  0.63468302D-04 -0.17797174D-03  0.10815122D-03
  0.82923496D-04  0.41384636D-04 -0.35497193D-04 -0.27216996D-04 -0.13583189D-04
  0.10715880D-04  0.82162569D-05  0.41004880D-05  0.10467247D-02 -0.58117614D-03
  0.21856173D-03 -0.27462073D-04  0.85408039D-05  0.50743611D-04 -0.12340760D-03
  0.84327234D-04  0.30843031D-04  0.44126652D-04 -0.22386215D-04 -0.37971257D-04
 -0.43228934D-04 -0.13765302D-03 -0.28443826D-04 -0.48246113D-04 -0.54926494D-04
 -0.12056503D-03 -0.56746123D-04 -0.10444316D-03 -0.16900874D-03 -0.22216673D-03
 -0.19055111D-03 -0.65152661D-04  0.15068396D-03  0.67234891D-04 -0.19854553D-03
 -0.12134309D-03 -0.93488310D-04 -0.41046404D-04 -0.21836742D-04 -0.16824032D-04
 -0.73866563D-05  0.10065788D-03  0.77551469D-04  0.34049272D-04  0.56742512D-03
  0.15499853D-03  0.10571535D-04 -0.67746311D-04 -0.26308010D-03 -0.16386584D-03
 -0.16568922D-03 -0.17851326D-03  0.50490364D-04 -0.92222837D-04  0.12000976D-03
  0.22088203D-03  0.35742882D-03  0.46985019D-03  0.40298778D-03  0.13778837D-03
 -0.66385586D-03 -0.29621119D-03  0.87471562D-03 -0.56600404D-04 -0.43607560D-04
 -0.19146067D-04 -0.46598229D-04 -0.35901423D-04 -0.15762659D-04  0.52974737D-04
  0.40814179D-04  0.17919623D-04 -0.16447193D-02 -0.70331658D-03  0.30862532D-03
 -0.64337666D-04 -0.21527861D-03  0.56567413D-03  0.93435095D-03  0.88517073D-03
 -0.15763384D-03  0.57427999D-04  0.36808237D-04  0.62433737D-04  0.71078602D-04
  0.34796184D-03 -0.86531729D-07 -0.15963414D-06 -0.25769900D-06 -0.33544753D-06
 -0.28623799D-06 -0.98831098D-07  0.50091536D-04  0.23087143D-04 -0.64738759D-04
 -0.62040642D-04 -0.47568829D-04 -0.23740180D-04 -0.72291802D-04 -0.55428769D-04
 -0.27662840D-04 -0.58276119D-04 -0.44682432D-04 -0.22299665D-04  0.99876003D-04
  0.12678361D-03  0.66113832D-04  0.10150078D-04  0.61787810D-04 -0.10203237D-03
  0.24277531D-04  0.38406986D-04 -0.10381391D-03 -0.88239189D-06 -0.34550577D-04
 -0.58604318D-04 -0.66718945D-04 -0.83439693D-05  0.12358780D-04  0.20962830D-04
  0.23865441D-04  0.74506749D-04  0.39472066D-04  0.66952094D-04  0.76222593D-04
 -0.59230414D-04 -0.45944442D-05 -0.84758525D-05 -0.13682654D-04 -0.17810750D-04
 -0.15197945D-04 -0.52474853D-05  0.22811377D-04  0.10513743D-04 -0.29481632D-04
 -0.54842329D-04 -0.42049619D-04 -0.20985707D-04  0.42335771D-04  0.32460384D-04
  0.16200007D-04 -0.18979218D-05 -0.14552061D-05 -0.72624981D-06  0.27375430D-03
 -0.75070312D-04  0.33944545D-04 -0.78402922D-07  0.67060522D-05 -0.53466658D-06
 -0.62895389D-05 -0.79056865D-05 -0.73687699D-06  0.10096717D-05 -0.61615239D-05
 -0.10451111D-04 -0.11898220D-04 -0.66763201D-05 -0.63301880D-05 -0.10737197D-04