 Entering Link 1 = D:\Gaussian\G16W\l1.exe PID=     35836.
  
 Copyright (c) 1988,1990,1992,1993,1995,1998,2003,2009,2016,
            Gaussian, Inc.  All Rights Reserved.
  
 This is part of the Gaussian(R) 16 program.  It is based on
 the Gaussian(R) 09 system (copyright 2009, Gaussian, Inc.),
 the Gaussian(R) 03 system (copyright 2003, Gaussian, Inc.),
 the Gaussian(R) 98 system (copyright 1998, Gaussian, Inc.),
 the Gaussian(R) 94 system (copyright 1995, Gaussian, Inc.),
 the Gaussian 92(TM) system (copyright 1992, Gaussian, Inc.),
 the Gaussian 90(TM) system (copyright 1990, Gaussian, Inc.),
 the Gaussian 88(TM) system (copyright 1988, Gaussian, Inc.),
 the Gaussian 86(TM) system (copyright 1986, Carnegie Mellon
 University), and the Gaussian 82(TM) system (copyright 1983,
 Carnegie Mellon University). Gaussian is a federally registered
 trademark of Gaussian, Inc.
  
 This software contains proprietary and confidential information,
 including trade secrets, belonging to Gaussian, Inc.
  
 This software is provided under written license and may be
 used, copied, transmitted, or stored only in accord with that
 written license.
  
 The following legend is applicable only to US Government
 contracts under FAR:
  
                    RESTRICTED RIGHTS LEGEND
  
 Use, reproduction and disclosure by the US Government is
 subject to restrictions as set forth in subparagraphs (a)
 and (c) of the Commercial Computer Software - Restricted
 Rights clause in FAR 52.227-19.
  
 Gaussian, Inc.
 340 Quinnipiac St., Bldg. 40, Wallingford CT 06492
  
  
 ---------------------------------------------------------------
 Warning -- This program may not be used in any manner that
 competes with the business of Gaussian, Inc. or will provide
 assistance to any competitor of Gaussian, Inc.  The licensee
 of this program is prohibited from giving any competitor of
 Gaussian, Inc. access to this program.  By using this program,
 the user acknowledges that Gaussian, Inc. is engaged in the
 business of creating and licensing software in the field of
 computational chemistry and represents and warrants to the
 licensee that it is not a competitor of Gaussian, Inc. and that
 it will not use this program in any manner prohibited above.
 ---------------------------------------------------------------
  

 Cite this work as:
 Gaussian 16, Revision A.03,
 M. J. Frisch, G. W. Trucks, H. B. Schlegel, G. E. Scuseria, 
 M. A. Robb, J. R. Cheeseman, G. Scalmani, V. Barone, 
 G. A. Petersson, H. Nakatsuji, X. Li, M. Caricato, A. V. Marenich, 
 J. Bloino, B. G. Janesko, R. Gomperts, B. Mennucci, H. P. Hratchian, 
 J. V. Ortiz, A. F. Izmaylov, J. L. Sonnenberg, D. Williams-Young, 
 F. Ding, F. Lipparini, F. Egidi, J. Goings, B. Peng, A. Petrone, 
 T. Henderson, D. Ranasinghe, V. G. Zakrzewski, J. Gao, N. Rega, 
 G. Zheng, W. Liang, M. Hada, M. Ehara, K. Toyota, R. Fukuda, 
 J. Hasegawa, M. Ishida, T. Nakajima, Y. Honda, O. Kitao, H. Nakai, 
 T. Vreven, K. Throssell, J. A. Montgomery, Jr., J. E. Peralta, 
 F. Ogliaro, M. J. Bearpark, J. J. Heyd, E. N. Brothers, K. N. Kudin, 
 V. N. Staroverov, T. A. Keith, R. Kobayashi, J. Normand, 
 K. Raghavachari, A. P. Rendell, J. C. Burant, S. S. Iyengar, 
 J. Tomasi, M. Cossi, J. M. Millam, M. Klene, C. Adamo, R. Cammi, 
 J. W. Ochterski, R. L. Martin, K. Morokuma, O. Farkas, 
 J. B. Foresman, and D. J. Fox, Gaussian, Inc., Wallingford CT, 2016.
 
 ******************************************
 Gaussian 16:  EM64W-G16RevA.03 17-Dec-2016
                03-Dec-2025 
 ******************************************
 %nprocs=   4
 Will use up to    4 processors via shared memory.
 ------------------------------------
 #P B3LYP/6-31G* SCF=conver=7 out=wfn
 ------------------------------------
 1/38=1,172=1/1;
 2/12=2,17=6,18=5,40=1/2;
 3/5=1,6=6,7=1,11=2,25=1,30=1,74=-5/1,2,3;
 4//1;
 5/5=2,6=7,38=5/2;
 6/7=2,8=2,9=2,10=2,28=1/1;
 99/5=1,6=100,9=1/99;
 Leave Link    1 at Wed Dec 03 12:47:40 2025, MaxMem=           0 cpu:               0.0 elap:               0.1
 (Enter D:\Gaussian\G16W\l101.exe)
 ----------------------------------------------------
 Generated by Multiwfn (http://sobereva.com/multiwfn)
 ----------------------------------------------------
 Symbolic Z-matrix:
 Charge =  0 Multiplicity = 2
 C                     1.68303   1.12889   0.13658 
 C                     0.42165   1.72122   0.08982 
 C                    -0.72675   0.95153  -0.07698 
 C                    -0.58631  -0.44328  -0.18257 
 C                     0.67478  -1.02134  -0.13781 
 C                     1.83316  -0.25194   0.01823 
 H                     2.55744   1.75803   0.26248 
 H                     0.7318   -2.09999  -0.23545 
 O                    -1.667    -1.27131  -0.40607 
 O                    -1.97953   1.48658  -0.1577 
 H                     0.3263    2.80047   0.17255 
 C                    -2.695    -1.25774   0.49789 
 H                    -2.48972  -0.9179    1.50483 
 H                    -3.4705   -1.97038   0.26238 
 H                    -1.91257   2.44472  -0.09159 
 C                     3.19232  -0.90854   0.05925 
 H                     3.26124  -1.63421   0.87559 
 H                     3.40381  -1.44581  -0.87057 
 H                     3.98316  -0.16979   0.20354 
 
 ITRead=  0  0  0  0  0  0  0  0  0  0  0  0  0  0  0  0  0  0  0
 MicOpt= -1 -1 -1 -1 -1 -1 -1 -1 -1 -1 -1 -1 -1 -1 -1 -1 -1 -1 -1
 NAtoms=     19 NQM=       19 NQMF=       0 NMMI=      0 NMMIF=      0
                NMic=       0 NMicF=      0.
                    Isotopes and Nuclear Properties:
 (Nuclear quadrupole moments (NQMom) in fm**2, nuclear magnetic moments (NMagM)
  in nuclear magnetons)

  Atom         1           2           3           4           5           6           7           8           9          10
 IAtWgt=          12          12          12          12          12          12           1           1          16          16
 AtmWgt=  12.0000000  12.0000000  12.0000000  12.0000000  12.0000000  12.0000000   1.0078250   1.0078250  15.9949146  15.9949146
 NucSpn=           0           0           0           0           0           0           1           1           0           0
 AtZEff=   0.0000000   0.0000000   0.0000000   0.0000000   0.0000000   0.0000000   0.0000000   0.0000000   0.0000000   0.0000000
 NQMom=    0.0000000   0.0000000   0.0000000   0.0000000   0.0000000   0.0000000   0.0000000   0.0000000   0.0000000   0.0000000
 NMagM=    0.0000000   0.0000000   0.0000000   0.0000000   0.0000000   0.0000000   2.7928460   2.7928460   0.0000000   0.0000000
 AtZNuc=   6.0000000   6.0000000   6.0000000   6.0000000   6.0000000   6.0000000   1.0000000   1.0000000   8.0000000   8.0000000

  Atom        11          12          13          14          15          16          17          18          19
 IAtWgt=           1          12           1           1           1          12           1           1           1
 AtmWgt=   1.0078250  12.0000000   1.0078250   1.0078250   1.0078250  12.0000000   1.0078250   1.0078250   1.0078250
 NucSpn=           1           0           1           1           1           0           1           1           1
 AtZEff=   0.0000000   0.0000000   0.0000000   0.0000000   0.0000000   0.0000000   0.0000000   0.0000000   0.0000000
 NQMom=    0.0000000   0.0000000   0.0000000   0.0000000   0.0000000   0.0000000   0.0000000   0.0000000   0.0000000
 NMagM=    2.7928460   0.0000000   2.7928460   2.7928460   2.7928460   0.0000000   2.7928460   2.7928460   2.7928460
 AtZNuc=   1.0000000   6.0000000   1.0000000   1.0000000   1.0000000   6.0000000   1.0000000   1.0000000   1.0000000
 Leave Link  101 at Wed Dec 03 12:47:40 2025, MaxMem=   104857600 cpu:               0.0 elap:               0.1
 (Enter D:\Gaussian\G16W\l202.exe)
                          Input orientation:                          
 ---------------------------------------------------------------------
 Center     Atomic      Atomic             Coordinates (Angstroms)
 Number     Number       Type             X           Y           Z
 ---------------------------------------------------------------------
      1          6           0        1.683029    1.128891    0.136576
      2          6           0        0.421646    1.721215    0.089820
      3          6           0       -0.726750    0.951526   -0.076981
      4          6           0       -0.586305   -0.443279   -0.182572
      5          6           0        0.674778   -1.021343   -0.137811
      6          6           0        1.833155   -0.251940    0.018228
      7          1           0        2.557442    1.758029    0.262480
      8          1           0        0.731801   -2.099994   -0.235447
      9          8           0       -1.667002   -1.271308   -0.406073
     10          8           0       -1.979528    1.486577   -0.157702
     11          1           0        0.326301    2.800473    0.172547
     12          6           0       -2.694996   -1.257743    0.497892
     13          1           0       -2.489724   -0.917900    1.504825
     14          1           0       -3.470495   -1.970375    0.262376
     15          1           0       -1.912566    2.444723   -0.091591
     16          6           0        3.192322   -0.908544    0.059254
     17          1           0        3.261239   -1.634208    0.875589
     18          1           0        3.403810   -1.445810   -0.870567
     19          1           0        3.983160   -0.169790    0.203544
 ---------------------------------------------------------------------
                    Distance matrix (angstroms):
                    1          2          3          4          5
     1  C    0.000000
     2  C    1.394317   0.000000
     3  C    2.425716   1.392500   0.000000
     4  C    2.779110   2.403164   1.405829   0.000000
     5  C    2.390683   2.763606   2.420784   1.387981   0.000000
     6  C    1.394001   2.427102   2.830284   2.435307   1.399345
     7  H    1.084557   2.143080   3.398764   3.863544   3.380764
     8  H    3.386581   3.847549   3.385891   2.117759   1.084561
     9  O    4.156697   3.682873   2.435850   1.379671   2.370312
    10  O    3.691729   2.425275   1.364642   2.380343   3.651767
    11  H    2.153182   1.086615   2.142379   3.388346   3.850199
    12  C    4.999367   4.330609   3.014190   2.360712   3.437351
    13  H    4.844928   4.176511   3.017439   2.587581   3.566935
    14  H    6.014988   5.367157   4.022537   3.293714   4.271311
    15  H    3.835593   2.450494   1.906833   3.179277   4.325517
    16  C    2.536747   3.820106   4.340224   3.814836   2.527763
    17  H    3.266742   4.465376   4.847419   4.164326   2.844708
    18  H    3.256457   4.454850   4.841335   4.171262   2.857397
    19  H    2.642283   4.034007   4.849670   4.593897   3.433228
                    6          7          8          9         10
     6  C    0.000000
     7  H    2.150401   0.000000
     8  H    2.166249   4.297120   0.000000
     9  O    3.670183   5.241161   2.543637   0.000000
    10  O    4.194037   4.564464   4.496759   2.786627   0.000000
    11  H    3.407587   2.464299   4.934113   4.570280   2.674366
    12  C    4.663247   6.061221   3.604180   1.368981   2.910840
    13  H    4.619606   5.846187   3.847612   2.110284   2.967458
    14  H    5.580442   7.087808   4.233665   2.046486   3.788135
    15  H    4.616760   4.536286   5.260021   3.737390   0.962756
    16  C    1.510016   2.748633   2.749648   4.895013   5.703657
    17  H    2.164522   3.518310   2.801681   5.105087   6.186488
    18  H    2.163848   3.502102   2.823290   5.095031   6.171499
    19  H    2.159540   2.398464   3.806539   5.788722   6.199008
                   11         12         13         14         15
    11  H    0.000000
    12  C    5.069833   0.000000
    13  H    4.850903   1.082379   0.000000
    14  H    6.097927   1.079218   1.900867   0.000000
    15  H    2.282291   3.829875   3.766814   4.695266   0.000000
    16  C    4.688680   5.913954   5.863055   6.749954   6.109586
    17  H    5.364189   5.980060   5.829461   6.767960   6.658932
    18  H    5.346968   6.253278   6.376121   6.986759   6.633770
    19  H    4.711267   6.772596   6.644639   7.668281   6.456188
                   16         17         18         19
    16  C    0.000000
    17  H    1.094413   0.000000
    18  H    1.094509   1.762067   0.000000
    19  H    1.091788   1.765597   1.765669   0.000000
 Stoichiometry    C8H9O2(2)
 Framework group  C1[X(C8H9O2)]
 Deg. of freedom    51
 Full point group                 C1      NOp   1
 Largest Abelian subgroup         C1      NOp   1
 Largest concise Abelian subgroup C1      NOp   1
                         Standard orientation:                         
 ---------------------------------------------------------------------
 Center     Atomic      Atomic             Coordinates (Angstroms)
 Number     Number       Type             X           Y           Z
 ---------------------------------------------------------------------
      1          6           0        1.683029    1.128891    0.136576
      2          6           0        0.421646    1.721215    0.089820
      3          6           0       -0.726750    0.951526   -0.076981
      4          6           0       -0.586305   -0.443279   -0.182572
      5          6           0        0.674778   -1.021343   -0.137811
      6          6           0        1.833155   -0.251940    0.018228
      7          1           0        2.557442    1.758029    0.262480
      8          1           0        0.731801   -2.099994   -0.235447
      9          8           0       -1.667002   -1.271308   -0.406073
     10          8           0       -1.979528    1.486577   -0.157702
     11          1           0        0.326300    2.800473    0.172547
     12          6           0       -2.694996   -1.257743    0.497892
     13          1           0       -2.489724   -0.917900    1.504825
     14          1           0       -3.470495   -1.970376    0.262376
     15          1           0       -1.912566    2.444723   -0.091591
     16          6           0        3.192322   -0.908543    0.059254
     17          1           0        3.261239   -1.634207    0.875589
     18          1           0        3.403810   -1.445809   -0.870567
     19          1           0        3.983160   -0.169789    0.203544
 ---------------------------------------------------------------------
 Rotational constants (GHZ):           2.4112696           1.0366477           0.7488470
 Leave Link  202 at Wed Dec 03 12:47:40 2025, MaxMem=   104857600 cpu:               0.0 elap:               0.0
 (Enter D:\Gaussian\G16W\l301.exe)
 Standard basis: 6-31G(d) (6D, 7F)
 Ernie: Thresh=  0.10000D-02 Tol=  0.10000D-05 Strict=F.
 There are   168 symmetry adapted cartesian basis functions of A   symmetry.
 There are   168 symmetry adapted basis functions of A   symmetry.
   168 basis functions,   316 primitive gaussians,   168 cartesian basis functions
    37 alpha electrons       36 beta electrons
       nuclear repulsion energy       505.7964338963 Hartrees.
 IExCor=  402 DFT=T Ex+Corr=B3LYP ExCW=0 ScaHFX=  0.200000
 ScaDFX=  0.800000  0.720000  1.000000  0.810000 ScalE2=  1.000000  1.000000
 IRadAn=      5 IRanWt=     -1 IRanGd=            0 ICorTp=0 IEmpDi=  4
 NAtoms=   19 NActive=   19 NUniq=   19 SFac= 1.00D+00 NAtFMM=   60 NAOKFM=F Big=F
 Integral buffers will be    131072 words long.
 Raffenetti 2 integral format.
 Two-electron integral symmetry is turned on.
 Leave Link  301 at Wed Dec 03 12:47:40 2025, MaxMem=   104857600 cpu:               0.0 elap:               0.1
 (Enter D:\Gaussian\G16W\l302.exe)
 NPDir=0 NMtPBC=     1 NCelOv=     1 NCel=       1 NClECP=     1 NCelD=      1
         NCelK=      1 NCelE2=     1 NClLst=     1 CellRange=     0.0.
 One-electron integrals computed using PRISM.
 One-electron integral symmetry used in STVInt
 NBasis=   168 RedAO= T EigKep=  3.69D-04  NBF=   168
 NBsUse=   168 1.00D-06 EigRej= -1.00D+00 NBFU=   168
 Precomputing XC quadrature grid using
 IXCGrd= 4 IRadAn=           5 IRanWt=          -1 IRanGd=           0 AccXCQ= 0.00D+00.
 Generated NRdTot=       0 NPtTot=           0 NUsed=           0 NTot=          32
 NSgBfM=   168   168   168   168   168 MxSgAt=    19 MxSgA2=    19.
 Leave Link  302 at Wed Dec 03 12:47:40 2025, MaxMem=   104857600 cpu:               0.0 elap:               0.4
 (Enter D:\Gaussian\G16W\l303.exe)
 DipDrv:  MaxL=1.
 Leave Link  303 at Wed Dec 03 12:47:41 2025, MaxMem=   104857600 cpu:               1.0 elap:               0.1
 (Enter D:\Gaussian\G16W\l401.exe)
 ExpMin= 1.61D-01 ExpMax= 5.48D+03 ExpMxC= 8.25D+02 IAcc=3 IRadAn=         5 AccDes= 0.00D+00
 Harris functional with IExCor=  402 and IRadAn=       5 diagonalized for initial guess.
 HarFok:  IExCor=  402 AccDes= 0.00D+00 IRadAn=         5 IDoV= 1 UseB2=F ITyADJ=14
 ICtDFT=  3500011 ScaDFX=  1.000000  1.000000  1.000000  1.000000
 FoFCou: FMM=F IPFlag=           0 FMFlag=      100000 FMFlg1=           0
         NFxFlg=           0 DoJE=T BraDBF=F KetDBF=T FulRan=T
         wScrn=  0.000000 ICntrl=       500 IOpCl=  0 I1Cent=   200000004 NGrid=           0
         NMat0=    1 NMatS0=      1 NMatT0=    0 NMatD0=    1 NMtDS0=    0 NMtDT0=    0
 Petite list used in FoFCou.
 Harris En= -460.639894789805    
 JPrj=0 DoOrth=F DoCkMO=F.
 Initial guess <Sx>= 0.0000 <Sy>= 0.0000 <Sz>= 0.5000 <S**2>= 0.7500 S= 0.5000
 Leave Link  401 at Wed Dec 03 12:47:42 2025, MaxMem=   104857600 cpu:               1.0 elap:               1.3
 (Enter D:\Gaussian\G16W\l502.exe)
 Integral symmetry usage will be decided dynamically.
 UHF open shell SCF:
 Using DIIS extrapolation, IDIIS=  1040.
 NGot=   104857600 LenX=   104798149 LenY=   104769484
 Requested convergence on RMS density matrix=1.00D-07 within 128 cycles.
 Requested convergence on MAX density matrix=1.00D-05.
 Requested convergence on             energy=1.00D-05.
 No special actions if energy rises.
 Fock matrices will be formed incrementally for  20 cycles.
 Integral accuracy reduced to 1.0D-05 until final iterations.

 Cycle   1  Pass 0  IDiag  1:
 FoFJK:  IHMeth= 1 ICntrl=       0 DoSepK=F KAlg= 0 I1Cent=           0 FoldK=F
 IRaf= 930000000 NMat=       1 IRICut=       1 DoRegI=T DoRafI=F ISym2E= 0 IDoP0=0 IntGTp=1.
 FoFCou: FMM=F IPFlag=           0 FMFlag=      100000 FMFlg1=           0
         NFxFlg=           0 DoJE=F BraDBF=F KetDBF=F FulRan=T
         wScrn=  0.000000 ICntrl=         0 IOpCl=  1 I1Cent=           0 NGrid=           0
         NMat0=    1 NMatS0=      1 NMatT0=    0 NMatD0=    1 NMtDS0=    0 NMtDT0=    0
 Symmetry not used in FoFCou.
 E= -460.393085607018    
 DIIS: error= 2.73D-02 at cycle   1 NSaved=   1.
 NSaved= 1 IEnMin= 1 EnMin= -460.393085607018     IErMin= 1 ErrMin= 2.73D-02
 ErrMax= 2.73D-02  0.00D+00 EMaxC= 1.00D-01 BMatC= 9.28D-01 BMatP= 9.28D-01
 IDIUse=3 WtCom= 7.27D-01 WtEn= 2.73D-01
 Coeff-Com:  0.100D+01
 Coeff-En:   0.100D+01
 Coeff:      0.100D+01
 Gap=     0.198 Goal=   None    Shift=    0.000
 Gap=     0.169 Goal=   None    Shift=    0.000
 GapD=    0.169 DampG=1.000 DampE=0.500 DampFc=0.5000 IDamp=-1.
 Damping current iteration by 5.00D-01
 RMSDP=6.44D-03 MaxDP=1.34D-01              OVMax= 2.02D-01

 Cycle   2  Pass 0  IDiag  1:
 RMSU=  3.18D-03    CP:  9.81D-01
 E= -460.499364924260     Delta-E=       -0.106279317243 Rises=F Damp=T
 DIIS: error= 6.04D-03 at cycle   2 NSaved=   2.
 NSaved= 2 IEnMin= 2 EnMin= -460.499364924260     IErMin= 2 ErrMin= 6.04D-03
 ErrMax= 6.04D-03  0.00D+00 EMaxC= 1.00D-01 BMatC= 6.22D-02 BMatP= 9.28D-01
 IDIUse=3 WtCom= 9.40D-01 WtEn= 6.04D-02
 Coeff-Com:  0.492D-01 0.951D+00
 Coeff-En:   0.879D-01 0.912D+00
 Coeff:      0.515D-01 0.948D+00
 Gap=     0.214 Goal=   None    Shift=    0.000
 Gap=     0.220 Goal=   None    Shift=    0.000
 RMSDP=2.05D-03 MaxDP=4.47D-02 DE=-1.06D-01 OVMax= 1.70D-01

 Cycle   3  Pass 0  IDiag  1:
 RMSU=  1.95D-03    CP:  9.73D-01  8.21D-01
 E= -460.612984554351     Delta-E=       -0.113619630090 Rises=F Damp=F
 DIIS: error= 8.13D-03 at cycle   3 NSaved=   3.
 NSaved= 3 IEnMin= 3 EnMin= -460.612984554351     IErMin= 2 ErrMin= 6.04D-03
 ErrMax= 8.13D-03  0.00D+00 EMaxC= 1.00D-01 BMatC= 6.68D-02 BMatP= 6.22D-02
 IDIUse=3 WtCom= 9.19D-01 WtEn= 8.13D-02
 Coeff-Com: -0.209D-01 0.519D+00 0.502D+00
 Coeff-En:   0.000D+00 0.000D+00 0.100D+01
 Coeff:     -0.192D-01 0.476D+00 0.543D+00
 Gap=     0.162 Goal=   None    Shift=    0.000
 Gap=     0.198 Goal=   None    Shift=    0.000
 RMSDP=1.28D-03 MaxDP=3.40D-02 DE=-1.14D-01 OVMax= 8.41D-02

 Cycle   4  Pass 0  IDiag  1:
 RMSU=  8.30D-04    CP:  9.74D-01  9.22D-01  5.29D-01
 E= -460.626751760773     Delta-E=       -0.013767206422 Rises=F Damp=F
 DIIS: error= 4.04D-03 at cycle   4 NSaved=   4.
 NSaved= 4 IEnMin= 4 EnMin= -460.626751760773     IErMin= 4 ErrMin= 4.04D-03
 ErrMax= 4.04D-03  0.00D+00 EMaxC= 1.00D-01 BMatC= 1.79D-02 BMatP= 6.22D-02
 IDIUse=3 WtCom= 9.60D-01 WtEn= 4.04D-02
 Coeff-Com: -0.146D-01 0.853D-01 0.350D+00 0.579D+00
 Coeff-En:   0.000D+00 0.000D+00 0.250D+00 0.750D+00
 Coeff:     -0.140D-01 0.818D-01 0.346D+00 0.586D+00
 Gap=     0.163 Goal=   None    Shift=    0.000
 Gap=     0.195 Goal=   None    Shift=    0.000
 RMSDP=4.78D-04 MaxDP=1.08D-02 DE=-1.38D-02 OVMax= 3.14D-02

 Cycle   5  Pass 0  IDiag  1:
 RMSU=  1.64D-04    CP:  9.73D-01  8.98D-01  6.89D-01  6.25D-01
 E= -460.631550334276     Delta-E=       -0.004798573502 Rises=F Damp=F
 DIIS: error= 7.14D-04 at cycle   5 NSaved=   5.
 NSaved= 5 IEnMin= 5 EnMin= -460.631550334276     IErMin= 5 ErrMin= 7.14D-04
 ErrMax= 7.14D-04  0.00D+00 EMaxC= 1.00D-01 BMatC= 5.85D-04 BMatP= 1.79D-02
 IDIUse=3 WtCom= 9.93D-01 WtEn= 7.14D-03
 Coeff-Com: -0.469D-02 0.144D-01 0.146D+00 0.289D+00 0.555D+00
 Coeff-En:   0.000D+00 0.000D+00 0.000D+00 0.000D+00 0.100D+01
 Coeff:     -0.466D-02 0.143D-01 0.145D+00 0.287D+00 0.558D+00
 Gap=     0.163 Goal=   None    Shift=    0.000
 Gap=     0.196 Goal=   None    Shift=    0.000
 RMSDP=8.93D-05 MaxDP=3.26D-03 DE=-4.80D-03 OVMax= 4.57D-03

 Cycle   6  Pass 0  IDiag  1:
 RMSU=  7.45D-05    CP:  9.73D-01  9.04D-01  6.83D-01  6.54D-01  7.75D-01
 E= -460.631661192618     Delta-E=       -0.000110858343 Rises=F Damp=F
 DIIS: error= 2.97D-04 at cycle   6 NSaved=   6.
 NSaved= 6 IEnMin= 6 EnMin= -460.631661192618     IErMin= 6 ErrMin= 2.97D-04
 ErrMax= 2.97D-04  0.00D+00 EMaxC= 1.00D-01 BMatC= 9.11D-05 BMatP= 5.85D-04
 IDIUse=3 WtCom= 9.97D-01 WtEn= 2.97D-03
 Coeff-Com: -0.239D-03-0.537D-02 0.213D-01 0.549D-01 0.304D+00 0.625D+00
 Coeff-En:   0.000D+00 0.000D+00 0.000D+00 0.000D+00 0.773D-01 0.923D+00
 Coeff:     -0.238D-03-0.535D-02 0.213D-01 0.547D-01 0.304D+00 0.626D+00
 Gap=     0.163 Goal=   None    Shift=    0.000
 Gap=     0.196 Goal=   None    Shift=    0.000
 RMSDP=3.31D-05 MaxDP=9.71D-04 DE=-1.11D-04 OVMax= 1.37D-03

 Cycle   7  Pass 0  IDiag  1:
 RMSU=  2.11D-05    CP:  9.73D-01  9.02D-01  6.89D-01  6.60D-01  8.45D-01
                    CP:  7.55D-01
 E= -460.631681235231     Delta-E=       -0.000020042613 Rises=F Damp=F
 DIIS: error= 7.11D-05 at cycle   7 NSaved=   7.
 NSaved= 7 IEnMin= 7 EnMin= -460.631681235231     IErMin= 7 ErrMin= 7.11D-05
 ErrMax= 7.11D-05  0.00D+00 EMaxC= 1.00D-01 BMatC= 5.23D-06 BMatP= 9.11D-05
 IDIUse=1 WtCom= 1.00D+00 WtEn= 0.00D+00
 Coeff-Com:  0.378D-03-0.333D-02-0.579D-02-0.906D-02 0.588D-01 0.215D+00
 Coeff-Com:  0.744D+00
 Coeff:      0.378D-03-0.333D-02-0.579D-02-0.906D-02 0.588D-01 0.215D+00
 Coeff:      0.744D+00
 Gap=     0.163 Goal=   None    Shift=    0.000
 Gap=     0.196 Goal=   None    Shift=    0.000
 RMSDP=1.15D-05 MaxDP=6.39D-04 DE=-2.00D-05 OVMax= 8.78D-04

 Cycle   8  Pass 0  IDiag  1:
 RMSU=  9.69D-06    CP:  9.73D-01  9.01D-01  6.89D-01  6.62D-01  8.68D-01
                    CP:  8.13D-01  9.52D-01
 E= -460.631682732669     Delta-E=       -0.000001497437 Rises=F Damp=F
 DIIS: error= 3.51D-05 at cycle   8 NSaved=   8.
 NSaved= 8 IEnMin= 8 EnMin= -460.631682732669     IErMin= 8 ErrMin= 3.51D-05
 ErrMax= 3.51D-05  0.00D+00 EMaxC= 1.00D-01 BMatC= 1.62D-06 BMatP= 5.23D-06
 IDIUse=1 WtCom= 1.00D+00 WtEn= 0.00D+00
 Coeff-Com:  0.233D-03-0.315D-03-0.829D-02-0.192D-01-0.457D-01-0.542D-01
 Coeff-Com:  0.373D+00 0.755D+00
 Coeff:      0.233D-03-0.315D-03-0.829D-02-0.192D-01-0.457D-01-0.542D-01
 Coeff:      0.373D+00 0.755D+00
 Gap=     0.163 Goal=   None    Shift=    0.000
 Gap=     0.196 Goal=   None    Shift=    0.000
 RMSDP=6.34D-06 MaxDP=1.90D-04 DE=-1.50D-06 OVMax= 3.42D-04

 Initial convergence to 1.0D-05 achieved.  Increase integral accuracy.
 Cycle   9  Pass 1  IDiag  1:
 E= -460.631682896329     Delta-E=       -0.000000163661 Rises=F Damp=F
 DIIS: error= 2.38D-05 at cycle   1 NSaved=   1.
 NSaved= 1 IEnMin= 1 EnMin= -460.631682896329     IErMin= 1 ErrMin= 2.38D-05
 ErrMax= 2.38D-05  0.00D+00 EMaxC= 1.00D-01 BMatC= 3.19D-07 BMatP= 3.19D-07
 IDIUse=1 WtCom= 1.00D+00 WtEn= 0.00D+00
 Coeff-Com:  0.100D+01
 Coeff:      0.100D+01
 Gap=     0.163 Goal=   None    Shift=    0.000
 Gap=     0.196 Goal=   None    Shift=    0.000
 RMSDP=6.34D-06 MaxDP=1.90D-04 DE=-1.64D-07 OVMax= 2.76D-04

 Cycle  10  Pass 1  IDiag  1:
 RMSU=  8.54D-06    CP:  1.00D+00
 E= -460.631682796940     Delta-E=        0.000000099389 Rises=F Damp=F
 DIIS: error= 2.67D-05 at cycle   2 NSaved=   2.
 NSaved= 2 IEnMin= 1 EnMin= -460.631682896329     IErMin= 1 ErrMin= 2.38D-05
 ErrMax= 2.67D-05  0.00D+00 EMaxC= 1.00D-01 BMatC= 6.69D-07 BMatP= 3.19D-07
 IDIUse=1 WtCom= 1.00D+00 WtEn= 0.00D+00
 Coeff-Com:  0.603D+00 0.397D+00
 Coeff:      0.603D+00 0.397D+00
 Gap=     0.163 Goal=   None    Shift=    0.000
 Gap=     0.196 Goal=   None    Shift=    0.000
 RMSDP=3.05D-06 MaxDP=1.03D-04 DE= 9.94D-08 OVMax= 2.08D-04

 Cycle  11  Pass 1  IDiag  1:
 RMSU=  2.70D-06    CP:  1.00D+00  8.34D-01
 E= -460.631682979064     Delta-E=       -0.000000182125 Rises=F Damp=F
 DIIS: error= 4.64D-06 at cycle   3 NSaved=   3.
 NSaved= 3 IEnMin= 3 EnMin= -460.631682979064     IErMin= 3 ErrMin= 4.64D-06
 ErrMax= 4.64D-06  0.00D+00 EMaxC= 1.00D-01 BMatC= 1.99D-08 BMatP= 3.19D-07
 IDIUse=1 WtCom= 1.00D+00 WtEn= 0.00D+00
 Coeff-Com:  0.497D-01 0.146D+00 0.805D+00
 Coeff:      0.497D-01 0.146D+00 0.805D+00
 Gap=     0.163 Goal=   None    Shift=    0.000
 Gap=     0.196 Goal=   None    Shift=    0.000
 RMSDP=6.50D-07 MaxDP=1.75D-05 DE=-1.82D-07 OVMax= 4.04D-05

 Cycle  12  Pass 1  IDiag  1:
 RMSU=  4.52D-07    CP:  1.00D+00  8.67D-01  8.62D-01
 E= -460.631682983832     Delta-E=       -0.000000004768 Rises=F Damp=F
 DIIS: error= 1.87D-06 at cycle   4 NSaved=   4.
 NSaved= 4 IEnMin= 4 EnMin= -460.631682983832     IErMin= 4 ErrMin= 1.87D-06
 ErrMax= 1.87D-06  0.00D+00 EMaxC= 1.00D-01 BMatC= 6.30D-09 BMatP= 1.99D-08
 IDIUse=1 WtCom= 1.00D+00 WtEn= 0.00D+00
 Coeff-Com: -0.265D-01 0.485D-01 0.471D+00 0.506D+00
 Coeff:     -0.265D-01 0.485D-01 0.471D+00 0.506D+00
 Gap=     0.163 Goal=   None    Shift=    0.000
 Gap=     0.196 Goal=   None    Shift=    0.000
 RMSDP=2.66D-07 MaxDP=6.69D-06 DE=-4.77D-09 OVMax= 1.16D-05

 Cycle  13  Pass 1  IDiag  1:
 RMSU=  1.76D-07    CP:  1.00D+00  8.67D-01  8.90D-01  5.93D-01
 E= -460.631682985393     Delta-E=       -0.000000001561 Rises=F Damp=F
 DIIS: error= 4.58D-07 at cycle   5 NSaved=   5.
 NSaved= 5 IEnMin= 5 EnMin= -460.631682985393     IErMin= 5 ErrMin= 4.58D-07
 ErrMax= 4.58D-07  0.00D+00 EMaxC= 1.00D-01 BMatC= 2.35D-10 BMatP= 6.30D-09
 IDIUse=1 WtCom= 1.00D+00 WtEn= 0.00D+00
 Coeff-Com: -0.124D-01-0.118D-01-0.192D-01 0.963D-01 0.947D+00
 Coeff:     -0.124D-01-0.118D-01-0.192D-01 0.963D-01 0.947D+00
 Gap=     0.163 Goal=   None    Shift=    0.000
 Gap=     0.196 Goal=   None    Shift=    0.000
 RMSDP=8.42D-08 MaxDP=3.52D-06 DE=-1.56D-09 OVMax= 5.02D-06

 SCF Done:  E(UB3LYP) =  -460.631682985     A.U. after   13 cycles
            NFock= 13  Conv=0.84D-07     -V/T= 2.0091
 <Sx>= 0.0000 <Sy>= 0.0000 <Sz>= 0.5000 <S**2>= 0.7533 S= 0.5017
 <L.S>= 0.000000000000E+00
 KE= 4.564740381601D+02 PE=-2.084516278152D+03 EE= 6.616141231100D+02
 Annihilation of the first spin contaminant:
 S**2 before annihilation     0.7533,   after     0.7500
 Leave Link  502 at Wed Dec 03 12:48:08 2025, MaxMem=   104857600 cpu:              26.0 elap:              25.9
 (Enter D:\Gaussian\G16W\l601.exe)
 Copying SCF densities to generalized density rwf, IOpCl= 1 IROHF=0.

 **********************************************************************

            Population analysis using the SCF density.

 **********************************************************************

 Orbital symmetries:
 Alpha Orbitals:
       Occupied  (A) (A) (A) (A) (A) (A) (A) (A) (A) (A) (A) (A)
                 (A) (A) (A) (A) (A) (A) (A) (A) (A) (A) (A) (A)
                 (A) (A) (A) (A) (A) (A) (A) (A) (A) (A) (A) (A)
                 (A)
       Virtual   (A) (A) (A) (A) (A) (A) (A) (A) (A) (A) (A) (A)
                 (A) (A) (A) (A) (A) (A) (A) (A) (A) (A) (A) (A)
                 (A) (A) (A) (A) (A) (A) (A) (A) (A) (A) (A) (A)
                 (A) (A) (A) (A) (A) (A) (A) (A) (A) (A) (A) (A)
                 (A) (A) (A) (A) (A) (A) (A) (A) (A) (A) (A) (A)
                 (A) (A) (A) (A) (A) (A) (A) (A) (A) (A) (A) (A)
                 (A) (A) (A) (A) (A) (A) (A) (A) (A) (A) (A) (A)
                 (A) (A) (A) (A) (A) (A) (A) (A) (A) (A) (A) (A)
                 (A) (A) (A) (A) (A) (A) (A) (A) (A) (A) (A) (A)
                 (A) (A) (A) (A) (A) (A) (A) (A) (A) (A) (A) (A)
                 (A) (A) (A) (A) (A) (A) (A) (A) (A) (A) (A)
 Beta  Orbitals:
       Occupied  (A) (A) (A) (A) (A) (A) (A) (A) (A) (A) (A) (A)
                 (A) (A) (A) (A) (A) (A) (A) (A) (A) (A) (A) (A)
                 (A) (A) (A) (A) (A) (A) (A) (A) (A) (A) (A) (A)
       Virtual   (A) (A) (A) (A) (A) (A) (A) (A) (A) (A) (A) (A)
                 (A) (A) (A) (A) (A) (A) (A) (A) (A) (A) (A) (A)
                 (A) (A) (A) (A) (A) (A) (A) (A) (A) (A) (A) (A)
                 (A) (A) (A) (A) (A) (A) (A) (A) (A) (A) (A) (A)
                 (A) (A) (A) (A) (A) (A) (A) (A) (A) (A) (A) (A)
                 (A) (A) (A) (A) (A) (A) (A) (A) (A) (A) (A) (A)
                 (A) (A) (A) (A) (A) (A) (A) (A) (A) (A) (A) (A)
                 (A) (A) (A) (A) (A) (A) (A) (A) (A) (A) (A) (A)
                 (A) (A) (A) (A) (A) (A) (A) (A) (A) (A) (A) (A)
                 (A) (A) (A) (A) (A) (A) (A) (A) (A) (A) (A) (A)
                 (A) (A) (A) (A) (A) (A) (A) (A) (A) (A) (A) (A)
 The electronic state is 2-A.
 Alpha  occ. eigenvalues --  -19.18558 -19.17989 -10.25002 -10.24155 -10.21964
 Alpha  occ. eigenvalues --  -10.19231 -10.19087 -10.18701 -10.18472 -10.18179
 Alpha  occ. eigenvalues --   -1.07700  -1.05673  -0.85352  -0.76731  -0.75303
 Alpha  occ. eigenvalues --   -0.68528  -0.67122  -0.62500  -0.57616  -0.54668
 Alpha  occ. eigenvalues --   -0.50719  -0.49144  -0.46451  -0.45435  -0.43570
 Alpha  occ. eigenvalues --   -0.41891  -0.40476  -0.40198  -0.39132  -0.36895
 Alpha  occ. eigenvalues --   -0.36640  -0.34757  -0.34093  -0.31969  -0.24500
 Alpha  occ. eigenvalues --   -0.21540  -0.16238
 Alpha virt. eigenvalues --    0.00096   0.01565   0.06666   0.09217   0.12152
 Alpha virt. eigenvalues --    0.13627   0.14257   0.15500   0.16132   0.17402
 Alpha virt. eigenvalues --    0.19161   0.19320   0.20566   0.24220   0.24982
 Alpha virt. eigenvalues --    0.29086   0.32523   0.34581   0.36366   0.38694
 Alpha virt. eigenvalues --    0.47647   0.50381   0.51490   0.52532   0.53883
 Alpha virt. eigenvalues --    0.54698   0.55535   0.56054   0.58465   0.59118
 Alpha virt. eigenvalues --    0.60430   0.61581   0.63498   0.64414   0.64997
 Alpha virt. eigenvalues --    0.67557   0.68277   0.70638   0.72646   0.75165
 Alpha virt. eigenvalues --    0.75742   0.79356   0.82466   0.83261   0.86110
 Alpha virt. eigenvalues --    0.87293   0.88256   0.88353   0.90211   0.91161
 Alpha virt. eigenvalues --    0.91899   0.94654   0.96190   0.98799   1.00579
 Alpha virt. eigenvalues --    1.02009   1.04533   1.04885   1.09944   1.14662
 Alpha virt. eigenvalues --    1.16432   1.17754   1.23151   1.25011   1.27039
 Alpha virt. eigenvalues --    1.30249   1.35193   1.37760   1.39332   1.40196
 Alpha virt. eigenvalues --    1.43335   1.46709   1.49522   1.51150   1.57173
 Alpha virt. eigenvalues --    1.64412   1.70949   1.74174   1.76181   1.77850
 Alpha virt. eigenvalues --    1.79872   1.82981   1.86958   1.87607   1.89538
 Alpha virt. eigenvalues --    1.90418   1.92143   1.94309   1.97224   2.00175
 Alpha virt. eigenvalues --    2.01408   2.07013   2.10804   2.12093   2.17098
 Alpha virt. eigenvalues --    2.17551   2.20864   2.24597   2.29182   2.30641
 Alpha virt. eigenvalues --    2.32424   2.33518   2.34525   2.40346   2.42399
 Alpha virt. eigenvalues --    2.44151   2.46886   2.53428   2.57294   2.60223
 Alpha virt. eigenvalues --    2.66691   2.68169   2.76242   2.81619   2.84031
 Alpha virt. eigenvalues --    2.85189   2.91326   2.95019   3.05679   3.22099
 Alpha virt. eigenvalues --    3.43389   3.86569   4.08939   4.11054   4.17074
 Alpha virt. eigenvalues --    4.18548   4.22265   4.30906   4.38727   4.54177
 Alpha virt. eigenvalues --    4.92095
  Beta  occ. eigenvalues --  -19.18094 -19.17974 -10.24982 -10.24171 -10.20630
  Beta  occ. eigenvalues --  -10.19235 -10.19089 -10.18689 -10.18453 -10.18179
  Beta  occ. eigenvalues --   -1.07104  -1.05193  -0.85290  -0.76649  -0.75008
  Beta  occ. eigenvalues --   -0.68492  -0.65367  -0.62419  -0.56908  -0.54534
  Beta  occ. eigenvalues --   -0.50119  -0.48833  -0.45786  -0.45168  -0.43538
  Beta  occ. eigenvalues --   -0.41833  -0.40354  -0.39970  -0.38235  -0.36442
  Beta  occ. eigenvalues --   -0.36043  -0.34158  -0.32949  -0.31670  -0.24201
  Beta  occ. eigenvalues --   -0.21342
  Beta virt. eigenvalues --   -0.01706   0.00674   0.01773   0.06769   0.09291
  Beta virt. eigenvalues --    0.12215   0.14364   0.14616   0.15805   0.16221
  Beta virt. eigenvalues --    0.17852   0.19367   0.20058   0.20614   0.24385
  Beta virt. eigenvalues --    0.25145   0.29479   0.32587   0.34657   0.36506
  Beta virt. eigenvalues --    0.38810   0.47722   0.51146   0.51727   0.52741
  Beta virt. eigenvalues --    0.54795   0.55485   0.56340   0.57305   0.58650
  Beta virt. eigenvalues --    0.59490   0.60894   0.61735   0.63994   0.64527
  Beta virt. eigenvalues --    0.66201   0.68087   0.69130   0.70655   0.72823
  Beta virt. eigenvalues --    0.75245   0.75758   0.79458   0.82509   0.83831
  Beta virt. eigenvalues --    0.86354   0.87368   0.88354   0.88390   0.90666
  Beta virt. eigenvalues --    0.91702   0.92038   0.95452   0.96247   0.99075
  Beta virt. eigenvalues --    1.00858   1.02298   1.04598   1.05718   1.10176
  Beta virt. eigenvalues --    1.14910   1.16836   1.18027   1.23315   1.25137
  Beta virt. eigenvalues --    1.27659   1.30678   1.35596   1.37881   1.39571
  Beta virt. eigenvalues --    1.40226   1.43807   1.46845   1.49585   1.52175
  Beta virt. eigenvalues --    1.59106   1.64963   1.71657   1.74466   1.76507
  Beta virt. eigenvalues --    1.78811   1.80589   1.83647   1.87224   1.87699
  Beta virt. eigenvalues --    1.89901   1.90867   1.92647   1.94598   1.97379
  Beta virt. eigenvalues --    2.01247   2.02296   2.07848   2.11578   2.12892
  Beta virt. eigenvalues --    2.17474   2.18933   2.22277   2.25195   2.29463
  Beta virt. eigenvalues --    2.30875   2.32659   2.33653   2.34980   2.40396
  Beta virt. eigenvalues --    2.44121   2.45272   2.47127   2.53788   2.57707
  Beta virt. eigenvalues --    2.60302   2.66833   2.68258   2.76474   2.81897
  Beta virt. eigenvalues --    2.84166   2.85280   2.91445   2.95286   3.05803
  Beta virt. eigenvalues --    3.22237   3.43414   3.87006   4.08988   4.11131
  Beta virt. eigenvalues --    4.18377   4.20298   4.22415   4.31044   4.38775
  Beta virt. eigenvalues --    4.54253   4.92161
          Condensed to atoms (all electrons):
               1          2          3          4          5          6
     1  C    4.953202   0.469187  -0.010184  -0.040093  -0.030983   0.567426
     2  C    0.469187   5.140452   0.475120  -0.045264  -0.052403  -0.022535
     3  C   -0.010184   0.475120   4.703524   0.431166  -0.065523  -0.032255
     4  C   -0.040093  -0.045264   0.431166   4.686221   0.541244  -0.007749
     5  C   -0.030983  -0.052403  -0.065523   0.541244   5.100565   0.498666
     6  C    0.567426  -0.022535  -0.032255  -0.007749   0.498666   4.637078
     7  H    0.351514  -0.043212   0.003648   0.000442   0.006498  -0.038499
     8  H    0.006319  -0.000040   0.007673  -0.038628   0.345875  -0.048937
     9  O    0.000121   0.004630  -0.052120   0.221410  -0.053023   0.003582
    10  O    0.004251  -0.066583   0.293795  -0.057314   0.003317   0.000125
    11  H   -0.029470   0.339514  -0.042859   0.003841   0.000992   0.003377
    12  C    0.000002  -0.000062  -0.006650  -0.034513   0.000010  -0.000131
    13  H   -0.000018  -0.000273   0.003020   0.002544   0.002023  -0.000089
    14  H    0.000000   0.000013   0.000246   0.002267  -0.000230   0.000003
    15  H    0.000504  -0.007198  -0.029069   0.007143  -0.000106  -0.000036
    16  C   -0.054262   0.008335   0.000315   0.005402  -0.064009   0.351722
    17  H    0.000623  -0.000192   0.000020  -0.000050  -0.002570  -0.027408
    18  H    0.000395  -0.000181   0.000022   0.000024  -0.002744  -0.027150
    19  H   -0.002762   0.000138   0.000013  -0.000134   0.003511  -0.029627
               7          8          9         10         11         12
     1  C    0.351514   0.006319   0.000121   0.004251  -0.029470   0.000002
     2  C   -0.043212  -0.000040   0.004630  -0.066583   0.339514  -0.000062
     3  C    0.003648   0.007673  -0.052120   0.293795  -0.042859  -0.006650
     4  C    0.000442  -0.038628   0.221410  -0.057314   0.003841  -0.034513
     5  C    0.006498   0.345875  -0.053023   0.003317   0.000992   0.000010
     6  C   -0.038499  -0.048937   0.003582   0.000125   0.003377  -0.000131
     7  H    0.606423  -0.000175   0.000002  -0.000050  -0.005872   0.000000
     8  H   -0.000175   0.599140  -0.000527  -0.000057   0.000017  -0.000038
     9  O    0.000002  -0.000527   8.146196  -0.002150  -0.000059   0.261665
    10  O   -0.000050  -0.000057  -0.002150   8.217174  -0.005458   0.002993
    11  H   -0.005872   0.000017  -0.000059  -0.005458   0.609186   0.000001
    12  C    0.000000  -0.000038   0.261665   0.002993   0.000001   5.169397
    13  H    0.000000   0.000169  -0.035739  -0.000642   0.000004   0.352099
    14  H    0.000000  -0.000057  -0.033534   0.000090   0.000000   0.379028
    15  H   -0.000016   0.000007  -0.000237   0.242343   0.007893   0.000453
    16  C   -0.010323  -0.008729  -0.000061   0.000000  -0.000207   0.000002
    17  H    0.000111   0.001924  -0.000001   0.000000   0.000003   0.000000
    18  H    0.000121   0.001836   0.000000   0.000000   0.000003   0.000000
    19  H    0.006880   0.000045   0.000000   0.000000  -0.000007   0.000000
              13         14         15         16         17         18
     1  C   -0.000018   0.000000   0.000504  -0.054262   0.000623   0.000395
     2  C   -0.000273   0.000013  -0.007198   0.008335  -0.000192  -0.000181
     3  C    0.003020   0.000246  -0.029069   0.000315   0.000020   0.000022
     4  C    0.002544   0.002267   0.007143   0.005402  -0.000050   0.000024
     5  C    0.002023  -0.000230  -0.000106  -0.064009  -0.002570  -0.002744
     6  C   -0.000089   0.000003  -0.000036   0.351722  -0.027408  -0.027150
     7  H    0.000000   0.000000  -0.000016  -0.010323   0.000111   0.000121
     8  H    0.000169  -0.000057   0.000007  -0.008729   0.001924   0.001836
     9  O   -0.035739  -0.033534  -0.000237  -0.000061  -0.000001   0.000000
    10  O   -0.000642   0.000090   0.242343   0.000000   0.000000   0.000000
    11  H    0.000004   0.000000   0.007893  -0.000207   0.000003   0.000003
    12  C    0.352099   0.379028   0.000453   0.000002   0.000000   0.000000
    13  H    0.579691  -0.042595   0.000031   0.000000   0.000000   0.000000
    14  H   -0.042595   0.549461  -0.000008   0.000000   0.000000   0.000000
    15  H    0.000031  -0.000008   0.369617  -0.000001   0.000000   0.000000
    16  C    0.000000   0.000000  -0.000001   5.208189   0.363886   0.363892
    17  H    0.000000   0.000000   0.000000   0.363886   0.563945  -0.033878
    18  H    0.000000   0.000000   0.000000   0.363892  -0.033878   0.562498
    19  H    0.000000   0.000000   0.000000   0.365493  -0.028010  -0.027902
              19
     1  C   -0.002762
     2  C    0.000138
     3  C    0.000013
     4  C   -0.000134
     5  C    0.003511
     6  C   -0.029627
     7  H    0.006880
     8  H    0.000045
     9  O    0.000000
    10  O    0.000000
    11  H   -0.000007
    12  C    0.000000
    13  H    0.000000
    14  H    0.000000
    15  H    0.000000
    16  C    0.365493
    17  H   -0.028010
    18  H   -0.027902
    19  H    0.558939
          Atomic-Atomic Spin Densities.
               1          2          3          4          5          6
     1  C    0.011093  -0.000702  -0.000706   0.000202  -0.001092   0.000815
     2  C   -0.000702  -0.001102  -0.001120   0.000661   0.000737  -0.000670
     3  C   -0.000706  -0.001120   0.017863  -0.005174  -0.001631   0.001542
     4  C    0.000202   0.000661  -0.005174  -0.005581   0.001669  -0.001325
     5  C   -0.001092   0.000737  -0.001631   0.001669   0.022124  -0.007475
     6  C    0.000815  -0.000670   0.001542  -0.001325  -0.007475   0.001960
     7  H    0.000028   0.000016  -0.000011   0.000001  -0.000002   0.000010
     8  H   -0.000003   0.000001   0.000047  -0.000124  -0.000782   0.000720
     9  O    0.000012   0.000080  -0.003811   0.002865  -0.000885   0.000337
    10  O   -0.000006   0.000729  -0.002139   0.000829   0.000006  -0.000006
    11  H   -0.000061  -0.000851   0.000396  -0.000072  -0.000035   0.000006
    12  C   -0.000005  -0.000360   0.002877  -0.005955   0.001033  -0.000093
    13  H   -0.000008   0.000097  -0.000110  -0.000493   0.000129  -0.000020
    14  H    0.000000   0.000001  -0.000047  -0.000114   0.000019  -0.000001
    15  H   -0.000008  -0.000949   0.000799  -0.000232  -0.000011   0.000005
    16  C    0.000009  -0.000017  -0.000002   0.000013   0.000400  -0.000301
    17  H   -0.000025   0.000000  -0.000001   0.000001   0.000150  -0.000083
    18  H   -0.000004   0.000000   0.000001  -0.000003  -0.000065   0.000183
    19  H    0.000015   0.000002   0.000001  -0.000001  -0.000028  -0.000003
               7          8          9         10         11         12
     1  C    0.000028  -0.000003   0.000012  -0.000006  -0.000061  -0.000005
     2  C    0.000016   0.000001   0.000080   0.000729  -0.000851  -0.000360
     3  C   -0.000011   0.000047  -0.003811  -0.002139   0.000396   0.002877
     4  C    0.000001  -0.000124   0.002865   0.000829  -0.000072  -0.005955
     5  C   -0.000002  -0.000782  -0.000885   0.000006  -0.000035   0.001033
     6  C    0.000010   0.000720   0.000337  -0.000006   0.000006  -0.000093
     7  H   -0.000545   0.000000   0.000000   0.000000   0.000007   0.000000
     8  H    0.000000  -0.000721   0.000679  -0.000001   0.000000  -0.000389
     9  O    0.000000   0.000679   0.256371   0.001322  -0.000005  -0.139529
    10  O    0.000000  -0.000001   0.001322   0.005976  -0.000053  -0.004554
    11  H    0.000007   0.000000  -0.000005  -0.000053   0.000866   0.000010
    12  C    0.000000  -0.000389  -0.139529  -0.004554   0.000010   1.121443
    13  H    0.000000  -0.000034  -0.000326   0.000216  -0.000002  -0.013367
    14  H    0.000000  -0.000003  -0.000380   0.000025   0.000000  -0.008164
    15  H    0.000000   0.000000  -0.000178  -0.001930   0.000282   0.000724
    16  C    0.000014  -0.000028  -0.000002   0.000000  -0.000001   0.000001
    17  H   -0.000001  -0.000015   0.000000   0.000000   0.000000   0.000000
    18  H    0.000000   0.000010   0.000000   0.000000   0.000000   0.000000
    19  H   -0.000005   0.000001   0.000000   0.000000   0.000000   0.000000
              13         14         15         16         17         18
     1  C   -0.000008   0.000000  -0.000008   0.000009  -0.000025  -0.000004
     2  C    0.000097   0.000001  -0.000949  -0.000017   0.000000   0.000000
     3  C   -0.000110  -0.000047   0.000799  -0.000002  -0.000001   0.000001
     4  C   -0.000493  -0.000114  -0.000232   0.000013   0.000001  -0.000003
     5  C    0.000129   0.000019  -0.000011   0.000400   0.000150  -0.000065
     6  C   -0.000020  -0.000001   0.000005  -0.000301  -0.000083   0.000183
     7  H    0.000000   0.000000   0.000000   0.000014  -0.000001   0.000000
     8  H   -0.000034  -0.000003   0.000000  -0.000028  -0.000015   0.000010
     9  O   -0.000326  -0.000380  -0.000178  -0.000002   0.000000   0.000000
    10  O    0.000216   0.000025  -0.001930   0.000000   0.000000   0.000000
    11  H   -0.000002   0.000000   0.000282  -0.000001   0.000000   0.000000
    12  C   -0.013367  -0.008164   0.000724   0.000001   0.000000   0.000000
    13  H   -0.029169   0.003328  -0.000064   0.000000   0.000000   0.000000
    14  H    0.003328  -0.039217  -0.000003   0.000000   0.000000   0.000000
    15  H   -0.000064  -0.000003   0.003916   0.000000   0.000000   0.000000
    16  C    0.000000   0.000000   0.000000   0.000362  -0.000013  -0.000123
    17  H    0.000000   0.000000   0.000000  -0.000013  -0.000095   0.000016
    18  H    0.000000   0.000000   0.000000  -0.000123   0.000016  -0.000159
    19  H    0.000000   0.000000   0.000000   0.000002  -0.000028   0.000031
              19
     1  C    0.000015
     2  C    0.000002
     3  C    0.000001
     4  C   -0.000001
     5  C   -0.000028
     6  C   -0.000003
     7  H   -0.000005
     8  H    0.000001
     9  O    0.000000
    10  O    0.000000
    11  H    0.000000
    12  C    0.000000
    13  H    0.000000
    14  H    0.000000
    15  H    0.000000
    16  C    0.000002
    17  H   -0.000028
    18  H    0.000031
    19  H    0.000021
 Mulliken charges and spin densities:
               1          2
     1  C   -0.185774   0.009556
     2  C   -0.199445  -0.003447
     3  C    0.320098   0.008774
     4  C    0.322041  -0.012831
     5  C   -0.231108   0.014261
     6  C    0.172434  -0.004401
     7  H    0.122508  -0.000487
     8  H    0.134182  -0.000641
     9  O   -0.460155   0.116551
    10  O   -0.631836   0.000414
    11  H    0.119101   0.000489
    12  C   -0.124254   0.953672
    13  H    0.139776  -0.039822
    14  H    0.145315  -0.044555
    15  H    0.408679   0.002352
    16  C   -0.529645   0.000314
    17  H    0.161597  -0.000094
    18  H    0.163062  -0.000112
    19  H    0.153423   0.000008
 Sum of Mulliken charges =   0.00000   1.00000
 Mulliken charges and spin densities with hydrogens summed into heavy atoms:
               1          2
     1  C   -0.063267   0.009069
     2  C   -0.080344  -0.002958
     3  C    0.320098   0.008774
     4  C    0.322041  -0.012831
     5  C   -0.096925   0.013620
     6  C    0.172434  -0.004401
     9  O   -0.460155   0.116551
    10  O   -0.223157   0.002766
    12  C    0.160837   0.869295
    16  C   -0.051563   0.000117
 Electronic spatial extent (au):  <R**2>=           1529.7233
 Charge=              0.0000 electrons
 Dipole moment (field-independent basis, Debye):
    X=              1.1383    Y=              1.5668    Z=              0.9476  Tot=              2.1561
 Quadrupole moment (field-independent basis, Debye-Ang):
   XX=            -56.4191   YY=            -49.1437   ZZ=            -60.3542
   XY=             -2.1399   XZ=             -1.9239   YZ=             -0.4035
 Traceless Quadrupole moment (field-independent basis, Debye-Ang):
   XX=             -1.1134   YY=              6.1620   ZZ=             -5.0486
   XY=             -2.1399   XZ=             -1.9239   YZ=             -0.4035
 Octapole moment (field-independent basis, Debye-Ang**2):
  XXX=             -3.7736  YYY=             25.9968  ZZZ=             -1.2624  XYY=            -14.7469
  XXY=             -1.8060  XXZ=              4.4473  XZZ=             -6.8741  YZZ=             -1.3553
  YYZ=              0.1786  XYZ=              2.5562
 Hexadecapole moment (field-independent basis, Debye-Ang**3):
 XXXX=          -1310.9663 YYYY=           -495.7499 ZZZZ=            -91.0249 XXXY=             24.1319
 XXXZ=             -2.4574 YYYX=            -43.3480 YYYZ=              3.0191 ZZZX=             -0.2568
 ZZZY=             -0.0817 XXYY=           -275.8945 XXZZ=           -239.8706 YYZZ=           -116.5119
 XXYZ=             -0.7269 YYXZ=              1.9331 ZZXY=             -6.0833
 N-N= 5.057964338963D+02 E-N=-2.084516291893D+03  KE= 4.564740381601D+02
                          Isotropic Fermi Contact Couplings
        Atom                 a.u.       MegaHertz       Gauss      10(-4) cm-1
     1  C(13)              0.00098       1.09746       0.39160       0.36607
     2  C(13)              0.00094       1.05407       0.37612       0.35160
     3  C(13)              0.00625       7.02606       2.50707       2.34364
     4  C(13)             -0.00211      -2.36709      -0.84464      -0.78958
     5  C(13)              0.00516       5.79870       2.06912       1.93424
     6  C(13)              0.00004       0.05004       0.01786       0.01669
     7  H(1)              -0.00015      -0.67661      -0.24143      -0.22569
     8  H(1)              -0.00021      -0.91873      -0.32783      -0.30646
     9  O(17)              0.04003     -24.26705      -8.65909      -8.09462
    10  O(17)              0.01600      -9.69909      -3.46088      -3.23527
    11  H(1)               0.00005       0.20898       0.07457       0.06971
    12  C(13)              0.15143     170.23342      60.74352      56.78376
    13  H(1)              -0.01098     -49.09028     -17.51663     -16.37475
    14  H(1)              -0.01226     -54.81483     -19.55930     -18.28426
    15  H(1)               0.00080       3.57867       1.27696       1.19372
    16  C(13)              0.00012       0.13078       0.04666       0.04362
    17  H(1)              -0.00006      -0.28485      -0.10164      -0.09502
    18  H(1)              -0.00007      -0.31852      -0.11366      -0.10625
    19  H(1)               0.00000       0.01897       0.00677       0.00633
 --------------------------------------------------------
       Center         ----  Spin Dipole Couplings  ----
                      3XX-RR        3YY-RR        3ZZ-RR
 --------------------------------------------------------
     1   Atom       -0.002891     -0.004990      0.007880
     2   Atom        0.003713      0.001772     -0.005484
     3   Atom       -0.003746      0.003241      0.000505
     4   Atom        0.016763     -0.002972     -0.013791
     5   Atom        0.005853     -0.009467      0.003614
     6   Atom        0.004871      0.000668     -0.005539
     7   Atom        0.001026     -0.000311     -0.000714
     8   Atom        0.005946     -0.002358     -0.003588
     9   Atom       -0.079025      0.333666     -0.254641
    10   Atom       -0.000345      0.009208     -0.008863
    11   Atom        0.000314      0.001052     -0.001366
    12   Atom       -0.192424      0.537819     -0.345395
    13   Atom       -0.049225     -0.007476      0.056700
    14   Atom        0.020350      0.030093     -0.050443
    15   Atom       -0.002383      0.005446     -0.003063
    16   Atom        0.001619     -0.000731     -0.000888
    17   Atom        0.001446     -0.000719     -0.000727
    18   Atom        0.001280     -0.000652     -0.000629
    19   Atom        0.001021     -0.000470     -0.000551
 --------------------------------------------------------
                        XY            XZ            YZ
 --------------------------------------------------------
     1   Atom        0.001834     -0.001567     -0.001056
     2   Atom        0.003208     -0.001338     -0.000547
     3   Atom        0.007807     -0.001123      0.006208
     4   Atom        0.011420     -0.000321      0.004663
     5   Atom        0.001830     -0.009360     -0.001160
     6   Atom        0.001589     -0.000080      0.000439
     7   Atom        0.001505      0.000058      0.000082
     8   Atom       -0.002938     -0.001252      0.000894
     9   Atom       -0.446540      0.209289     -0.319034
    10   Atom        0.012264     -0.001285     -0.003469
    11   Atom        0.001783     -0.000031     -0.000059
    12   Atom       -0.580284      0.239199     -0.418477
    13   Atom       -0.012861      0.031981      0.027461
    14   Atom        0.041837      0.033573      0.004451
    15   Atom        0.001766     -0.000367     -0.000715
    16   Atom        0.000036      0.000027     -0.000036
    17   Atom       -0.000170      0.000257     -0.000030
    18   Atom       -0.000106     -0.000383      0.000022
    19   Atom        0.000174      0.000001     -0.000011
 --------------------------------------------------------


 ---------------------------------------------------------------------------------
              Anisotropic Spin Dipole Couplings in Principal Axis System
 ---------------------------------------------------------------------------------

       Atom             a.u.   MegaHertz   Gauss  10(-4) cm-1        Axes

              Baa    -0.0061    -0.812    -0.290    -0.271 -0.4979  0.8672  0.0097
     1 C(13)  Bbb    -0.0022    -0.293    -0.104    -0.098  0.8533  0.4879  0.1841
              Bcc     0.0082     1.105     0.394     0.369 -0.1549 -0.1000  0.9829
 
              Baa    -0.0057    -0.762    -0.272    -0.254  0.1363  0.0140  0.9906
     2 C(13)  Bbb    -0.0006    -0.079    -0.028    -0.026 -0.5830  0.8096  0.0688
              Bcc     0.0063     0.840     0.300     0.280  0.8010  0.5868 -0.1186
 
              Baa    -0.0107    -1.431    -0.511    -0.477  0.7157 -0.5774  0.3930
     3 C(13)  Bbb     0.0000     0.007     0.002     0.002 -0.5725 -0.1626  0.8036
              Bcc     0.0106     1.424     0.508     0.475  0.4001  0.8001  0.4470
 
              Baa    -0.0162    -2.179    -0.778    -0.727  0.1642 -0.4498  0.8779
     4 C(13)  Bbb    -0.0058    -0.782    -0.279    -0.261 -0.3913  0.7873  0.4766
              Bcc     0.0221     2.961     1.057     0.988  0.9055  0.4217  0.0467
 
              Baa    -0.0097    -1.299    -0.464    -0.433 -0.1125  0.9936  0.0075
     5 C(13)  Bbb    -0.0047    -0.627    -0.224    -0.209  0.6564  0.0687  0.7513
              Bcc     0.0144     1.926     0.687     0.642  0.7460  0.0894 -0.6599
 
              Baa    -0.0056    -0.748    -0.267    -0.249  0.0191 -0.0750  0.9970
     6 C(13)  Bbb     0.0002     0.023     0.008     0.008 -0.3180  0.9449  0.0771
              Bcc     0.0054     0.725     0.259     0.242  0.9479  0.3186  0.0058
 
              Baa    -0.0013    -0.689    -0.246    -0.230 -0.5424  0.8377 -0.0643
     7 H(1)   Bbb    -0.0007    -0.381    -0.136    -0.127 -0.0637  0.0353  0.9973
              Bcc     0.0020     1.071     0.382     0.357  0.8377  0.5450  0.0342
 
              Baa    -0.0041    -2.172    -0.775    -0.724 -0.0479 -0.5255  0.8494
     8 H(1)   Bbb    -0.0030    -1.607    -0.573    -0.536  0.3316  0.7938  0.5098
              Bcc     0.0071     3.778     1.348     1.260  0.9422 -0.3061 -0.1362
 
              Baa    -0.3983    28.820    10.284     9.613 -0.2908  0.2277  0.9293
     9 O(17)  Bbb    -0.3641    26.345     9.400     8.788  0.8123  0.5720  0.1140
              Bcc     0.7624   -55.164   -19.684   -18.401 -0.5056  0.7880 -0.3513
 
              Baa    -0.0100     0.722     0.258     0.241 -0.4203  0.4146  0.8071
    10 O(17)  Bbb    -0.0081     0.586     0.209     0.195  0.7173 -0.3930  0.5754
              Bcc     0.0181    -1.308    -0.467    -0.436  0.5558  0.8208 -0.1322
 
              Baa    -0.0014    -0.730    -0.260    -0.243 -0.0328  0.0483  0.9983
    11 H(1)   Bbb    -0.0011    -0.607    -0.217    -0.202  0.7749 -0.6296  0.0559
              Bcc     0.0025     1.337     0.477     0.446  0.6312  0.7754 -0.0168
 
              Baa    -0.5205   -69.843   -24.922   -23.297 -0.6985 -0.1030  0.7081
    12 C(13)  Bbb    -0.5070   -68.037   -24.277   -22.695  0.5503  0.5553  0.6236
              Bcc     1.0275   137.880    49.199    45.992 -0.4575  0.8252 -0.3312
 
              Baa    -0.0654   -34.883   -12.447   -11.636  0.8866  0.3437 -0.3096
    13 H(1)   Bbb    -0.0071    -3.790    -1.352    -1.264 -0.4095  0.8944 -0.1797
              Bcc     0.0725    38.673    13.800    12.900  0.2151  0.2861  0.9337
 
              Baa    -0.0655   -34.930   -12.464   -11.651 -0.4199  0.1421  0.8964
    14 H(1)   Bbb    -0.0075    -3.977    -1.419    -1.327 -0.5920  0.7058 -0.3892
              Bcc     0.0729    38.907    13.883    12.978  0.6879  0.6941  0.2123
 
              Baa    -0.0032    -1.720    -0.614    -0.574  0.4179 -0.0101  0.9084
    15 H(1)   Bbb    -0.0027    -1.424    -0.508    -0.475  0.8835 -0.2283 -0.4090
              Bcc     0.0059     3.144     1.122     1.049  0.2115  0.9735 -0.0864
 
              Baa    -0.0009    -0.120    -0.043    -0.040 -0.0136  0.2168  0.9761
    16 C(13)  Bbb    -0.0007    -0.097    -0.035    -0.032 -0.0126  0.9761 -0.2170
              Bcc     0.0016     0.217     0.078     0.072  0.9998  0.0152  0.0105
 
              Baa    -0.0008    -0.406    -0.145    -0.135 -0.0829  0.3385  0.9373
    17 H(1)   Bbb    -0.0007    -0.389    -0.139    -0.130  0.1121  0.9377 -0.3288
              Bcc     0.0015     0.795     0.284     0.265  0.9902 -0.0778  0.1157
 
              Baa    -0.0007    -0.375    -0.134    -0.125  0.1878 -0.0354  0.9816
    18 H(1)   Bbb    -0.0007    -0.351    -0.125    -0.117  0.0594  0.9979  0.0246
              Bcc     0.0014     0.726     0.259     0.242  0.9804 -0.0537 -0.1895
 
              Baa    -0.0006    -0.295    -0.105    -0.098 -0.0200  0.1746  0.9844
    19 H(1)   Bbb    -0.0005    -0.260    -0.093    -0.087 -0.1129  0.9779 -0.1757
              Bcc     0.0010     0.555     0.198     0.185  0.9934  0.1147 -0.0001
 

 ---------------------------------------------------------------------------------

 No NMR shielding tensors so no spin-rotation constants.
 Leave Link  601 at Wed Dec 03 12:48:08 2025, MaxMem=   104857600 cpu:               0.0 elap:               0.2
 (Enter D:\Gaussian\G16W\l9999.exe)
 1|1|UNPC-PC-20250526LCFF|SP|UB3LYP|6-31G(d)|C8H9O2(2)|ADMINISTRATOR|03
 -Dec-2025|0||#P B3LYP/6-31G* SCF=conver=7 out=wfn||Generated by Multiw
 fn (http://sobereva.com/multiwfn)||0,2|C,0,1.683029,1.128891,0.136576|
 C,0,0.421646,1.721215,0.08982|C,0,-0.72675,0.951526,-0.076981|C,0,-0.5
 86305,-0.443279,-0.182572|C,0,0.674778,-1.021343,-0.137811|C,0,1.83315
 5,-0.25194,0.018228|H,0,2.557442,1.758029,0.26248|H,0,0.731801,-2.0999
 94,-0.235447|O,0,-1.667002,-1.271308,-0.406073|O,0,-1.979528,1.486577,
 -0.157702|H,0,0.326301,2.800473,0.172547|C,0,-2.694996,-1.257743,0.497
 892|H,0,-2.489724,-0.9179,1.504825|H,0,-3.470495,-1.970375,0.262376|H,
 0,-1.912566,2.444723,-0.091591|C,0,3.192322,-0.908544,0.059254|H,0,3.2
 61239,-1.634208,0.875589|H,0,3.40381,-1.44581,-0.870567|H,0,3.98316,-0
 .16979,0.203544||Version=EM64W-G16RevA.03|State=2-A|HF=-460.631683|S2=
 0.75332|S2-1=0.|S2A=0.750008|RMSD=8.416e-008|Dipole=0.4478405,0.616443
 9,0.3728264|Quadrupole=-0.8278218,4.5813098,-3.7534881,-1.590978,-1.43
 0396,-0.299955|PG=C01 [X(C8H9O2)]||@

 Writing a WFN file to "N.wfn"


 THE 2ND LAW OF THERMODYNAMICS HAS THE SAME
 DEGREE OF TRUTH AS THE STATEMENT THAT IF YOU THROW
 A TUMBLERFULL OF WATER INTO THE SEA, YOU CANNOT GET
 THE SAME TUMBLERFULL OF WATER OUT AGAIN.
          - J.C. MAXWELL, LETTER TO LORD RAYLEIGH, DECEMBER 6,1870
 Job cpu time:       0 days  0 hours  0 minutes 28.0 seconds.
 Elapsed time:       0 days  0 hours  0 minutes 28.2 seconds.
 File lengths (MBytes):  RWF=     32 Int=      0 D2E=      0 Chk=      3 Scr=      1
 Normal termination of Gaussian 16 at Wed Dec 03 12:48:08 2025.
