 Generated by Multiwfn (http://sobereva.com/multiwfn)
GAUSSIAN             73 MOL ORBITALS    316 PRIMITIVES       19 NUCLEI
  C    1    (CENTRE  1)   3.18046344  2.13329542  0.25809144  CHARGE =  6.0
  C    2    (CENTRE  2)   0.79679484  3.25262514  0.16973541  CHARGE =  6.0
  C    3    (CENTRE  3)  -1.37335883  1.79812335 -0.14547280  CHARGE =  6.0
  C    4    (CENTRE  4)  -1.10795578 -0.83767605 -0.34501087  CHARGE =  6.0
  C    5    (CENTRE  5)   1.27514590 -1.93005827 -0.26042484  CHARGE =  6.0
  C    6    (CENTRE  6)   3.46416093 -0.47609694  0.03444613  CHARGE =  6.0
  H    7    (CENTRE  7)   4.83286432  3.32219423  0.49601552  CHARGE =  1.0
  H    8    (CENTRE  8)   1.38290411 -3.96841323 -0.44493014  CHARGE =  1.0
  O    9    (CENTRE  9)  -3.15017686 -2.40242444 -0.76736655  CHARGE =  8.0
  O   10    (CENTRE 10)  -3.74076632  2.80922279 -0.29801338  CHARGE =  8.0
  H   11    (CENTRE 11)   0.61661854  5.29212715  0.32606678  CHARGE =  1.0
  C   12    (CENTRE 12)  -5.09280398 -2.37679065  0.94087973  CHARGE =  6.0
  H   13    (CENTRE 13)  -4.70489623 -1.73458038  2.84370732  CHARGE =  1.0
  H   14    (CENTRE 14)  -6.55828446 -3.72347021  0.49581899  CHARGE =  1.0
  H   15    (CENTRE 15)  -3.61422680  4.61985634 -0.17308170  CHARGE =  1.0
  C   16    (CENTRE 16)   6.03261453 -1.71689822  0.11197404  CHARGE =  6.0
  H   17    (CENTRE 17)   6.16284903 -3.08820442  1.65462361  CHARGE =  1.0
  H   18    (CENTRE 18)   6.43226911 -2.73218375 -1.64513300  CHARGE =  1.0
  H   19    (CENTRE 19)   7.52708151 -0.32085522  0.38464262  CHARGE =  1.0
CENTRE ASSIGNMENTS    1  1  1  1  1  1  1  1  1  1  1  1  1  1  1  1  1  1  1  1
CENTRE ASSIGNMENTS    1  1  1  1  1  1  1  1  2  2  2  2  2  2  2  2  2  2  2  2
CENTRE ASSIGNMENTS    2  2  2  2  2  2  2  2  2  2  2  2  2  2  2  2  3  3  3  3
CENTRE ASSIGNMENTS    3  3  3  3  3  3  3  3  3  3  3  3  3  3  3  3  3  3  3  3
CENTRE ASSIGNMENTS    3  3  3  3  4  4  4  4  4  4  4  4  4  4  4  4  4  4  4  4
CENTRE ASSIGNMENTS    4  4  4  4  4  4  4  4  4  4  4  4  5  5  5  5  5  5  5  5
CENTRE ASSIGNMENTS    5  5  5  5  5  5  5  5  5  5  5  5  5  5  5  5  5  5  5  5
CENTRE ASSIGNMENTS    6  6  6  6  6  6  6  6  6  6  6  6  6  6  6  6  6  6  6  6
CENTRE ASSIGNMENTS    6  6  6  6  6  6  6  6  7  7  7  7  8  8  8  8  9  9  9  9
CENTRE ASSIGNMENTS    9  9  9  9  9  9  9  9  9  9  9  9  9  9  9  9  9  9  9  9
CENTRE ASSIGNMENTS    9  9  9  9 10 10 10 10 10 10 10 10 10 10 10 10 10 10 10 10
CENTRE ASSIGNMENTS   10 10 10 10 10 10 10 10 10 10 10 10 11 11 11 11 12 12 12 12
CENTRE ASSIGNMENTS   12 12 12 12 12 12 12 12 12 12 12 12 12 12 12 12 12 12 12 12
CENTRE ASSIGNMENTS   12 12 12 12 13 13 13 13 14 14 14 14 15 15 15 15 16 16 16 16
CENTRE ASSIGNMENTS   16 16 16 16 16 16 16 16 16 16 16 16 16 16 16 16 16 16 16 16
CENTRE ASSIGNMENTS   16 16 16 16 17 17 17 17 18 18 18 18 19 19 19 19
TYPE ASSIGNMENTS      1  1  1  1  1  1  1  1  1  2  2  2  3  3  3  4  4  4  1  2
TYPE ASSIGNMENTS      3  4  5  6  7  8  9 10  1  1  1  1  1  1  1  1  1  2  2  2
TYPE ASSIGNMENTS      3  3  3  4  4  4  1  2  3  4  5  6  7  8  9 10  1  1  1  1
TYPE ASSIGNMENTS      1  1  1  1  1  2  2  2  3  3  3  4  4  4  1  2  3  4  5  6
TYPE ASSIGNMENTS      7  8  9 10  1  1  1  1  1  1  1  1  1  2  2  2  3  3  3  4
TYPE ASSIGNMENTS      4  4  1  2  3  4  5  6  7  8  9 10  1  1  1  1  1  1  1  1
TYPE ASSIGNMENTS      1  2  2  2  3  3  3  4  4  4  1  2  3  4  5  6  7  8  9 10
TYPE ASSIGNMENTS      1  1  1  1  1  1  1  1  1  2  2  2  3  3  3  4  4  4  1  2
TYPE ASSIGNMENTS      3  4  5  6  7  8  9 10  1  1  1  1  1  1  1  1  1  1  1  1
TYPE ASSIGNMENTS      1  1  1  1  1  2  2  2  3  3  3  4  4  4  1  2  3  4  5  6
TYPE ASSIGNMENTS      7  8  9 10  1  1  1  1  1  1  1  1  1  2  2  2  3  3  3  4
TYPE ASSIGNMENTS      4  4  1  2  3  4  5  6  7  8  9 10  1  1  1  1  1  1  1  1
TYPE ASSIGNMENTS      1  1  1  1  1  2  2  2  3  3  3  4  4  4  1  2  3  4  5  6
TYPE ASSIGNMENTS      7  8  9 10  1  1  1  1  1  1  1  1  1  1  1  1  1  1  1  1
TYPE ASSIGNMENTS      1  1  1  1  1  2  2  2  3  3  3  4  4  4  1  2  3  4  5  6
TYPE ASSIGNMENTS      7  8  9 10  1  1  1  1  1  1  1  1  1  1  1  1
EXPONENTS  0.3047525D+04 0.4573695D+03 0.1039487D+03 0.2921016D+02 0.9286663D+01
EXPONENTS  0.3163927D+01 0.7868272D+01 0.1881289D+01 0.5442493D+00 0.7868272D+01
EXPONENTS  0.1881289D+01 0.5442493D+00 0.7868272D+01 0.1881289D+01 0.5442493D+00
EXPONENTS  0.7868272D+01 0.1881289D+01 0.5442493D+00 0.1687145D+00 0.1687145D+00
EXPONENTS  0.1687145D+00 0.1687145D+00 0.8000000D+00 0.8000000D+00 0.8000000D+00
EXPONENTS  0.8000000D+00 0.8000000D+00 0.8000000D+00 0.3047525D+04 0.4573695D+03
EXPONENTS  0.1039487D+03 0.2921016D+02 0.9286663D+01 0.3163927D+01 0.7868272D+01
EXPONENTS  0.1881289D+01 0.5442493D+00 0.7868272D+01 0.1881289D+01 0.5442493D+00
EXPONENTS  0.7868272D+01 0.1881289D+01 0.5442493D+00 0.7868272D+01 0.1881289D+01
EXPONENTS  0.5442493D+00 0.1687145D+00 0.1687145D+00 0.1687145D+00 0.1687145D+00
EXPONENTS  0.8000000D+00 0.8000000D+00 0.8000000D+00 0.8000000D+00 0.8000000D+00
EXPONENTS  0.8000000D+00 0.3047525D+04 0.4573695D+03 0.1039487D+03 0.2921016D+02
EXPONENTS  0.9286663D+01 0.3163927D+01 0.7868272D+01 0.1881289D+01 0.5442493D+00
EXPONENTS  0.7868272D+01 0.1881289D+01 0.5442493D+00 0.7868272D+01 0.1881289D+01
EXPONENTS  0.5442493D+00 0.7868272D+01 0.1881289D+01 0.5442493D+00 0.1687145D+00
EXPONENTS  0.1687145D+00 0.1687145D+00 0.1687145D+00 0.8000000D+00 0.8000000D+00
EXPONENTS  0.8000000D+00 0.8000000D+00 0.8000000D+00 0.8000000D+00 0.3047525D+04
EXPONENTS  0.4573695D+03 0.1039487D+03 0.2921016D+02 0.9286663D+01 0.3163927D+01
EXPONENTS  0.7868272D+01 0.1881289D+01 0.5442493D+00 0.7868272D+01 0.1881289D+01
EXPONENTS  0.5442493D+00 0.7868272D+01 0.1881289D+01 0.5442493D+00 0.7868272D+01
EXPONENTS  0.1881289D+01 0.5442493D+00 0.1687145D+00 0.1687145D+00 0.1687145D+00
EXPONENTS  0.1687145D+00 0.8000000D+00 0.8000000D+00 0.8000000D+00 0.8000000D+00
EXPONENTS  0.8000000D+00 0.8000000D+00 0.3047525D+04 0.4573695D+03 0.1039487D+03
EXPONENTS  0.2921016D+02 0.9286663D+01 0.3163927D+01 0.7868272D+01 0.1881289D+01
EXPONENTS  0.5442493D+00 0.7868272D+01 0.1881289D+01 0.5442493D+00 0.7868272D+01
EXPONENTS  0.1881289D+01 0.5442493D+00 0.7868272D+01 0.1881289D+01 0.5442493D+00
EXPONENTS  0.1687145D+00 0.1687145D+00 0.1687145D+00 0.1687145D+00 0.8000000D+00
EXPONENTS  0.8000000D+00 0.8000000D+00 0.8000000D+00 0.8000000D+00 0.8000000D+00
EXPONENTS  0.3047525D+04 0.4573695D+03 0.1039487D+03 0.2921016D+02 0.9286663D+01
EXPONENTS  0.3163927D+01 0.7868272D+01 0.1881289D+01 0.5442493D+00 0.7868272D+01
EXPONENTS  0.1881289D+01 0.5442493D+00 0.7868272D+01 0.1881289D+01 0.5442493D+00
EXPONENTS  0.7868272D+01 0.1881289D+01 0.5442493D+00 0.1687145D+00 0.1687145D+00
EXPONENTS  0.1687145D+00 0.1687145D+00 0.8000000D+00 0.8000000D+00 0.8000000D+00
EXPONENTS  0.8000000D+00 0.8000000D+00 0.8000000D+00 0.1873114D+02 0.2825394D+01
EXPONENTS  0.6401217D+00 0.1612778D+00 0.1873114D+02 0.2825394D+01 0.6401217D+00
EXPONENTS  0.1612778D+00 0.5484672D+04 0.8252349D+03 0.1880470D+03 0.5296450D+02
EXPONENTS  0.1689757D+02 0.5799635D+01 0.1553962D+02 0.3599934D+01 0.1013762D+01
EXPONENTS  0.1553962D+02 0.3599934D+01 0.1013762D+01 0.1553962D+02 0.3599934D+01
EXPONENTS  0.1013762D+01 0.1553962D+02 0.3599934D+01 0.1013762D+01 0.2700058D+00
EXPONENTS  0.2700058D+00 0.2700058D+00 0.2700058D+00 0.8000000D+00 0.8000000D+00
EXPONENTS  0.8000000D+00 0.8000000D+00 0.8000000D+00 0.8000000D+00 0.5484672D+04
EXPONENTS  0.8252349D+03 0.1880470D+03 0.5296450D+02 0.1689757D+02 0.5799635D+01
EXPONENTS  0.1553962D+02 0.3599934D+01 0.1013762D+01 0.1553962D+02 0.3599934D+01
EXPONENTS  0.1013762D+01 0.1553962D+02 0.3599934D+01 0.1013762D+01 0.1553962D+02
EXPONENTS  0.3599934D+01 0.1013762D+01 0.2700058D+00 0.2700058D+00 0.2700058D+00
EXPONENTS  0.2700058D+00 0.8000000D+00 0.8000000D+00 0.8000000D+00 0.8000000D+00
EXPONENTS  0.8000000D+00 0.8000000D+00 0.1873114D+02 0.2825394D+01 0.6401217D+00
EXPONENTS  0.1612778D+00 0.3047525D+04 0.4573695D+03 0.1039487D+03 0.2921016D+02
EXPONENTS  0.9286663D+01 0.3163927D+01 0.7868272D+01 0.1881289D+01 0.5442493D+00
EXPONENTS  0.7868272D+01 0.1881289D+01 0.5442493D+00 0.7868272D+01 0.1881289D+01
EXPONENTS  0.5442493D+00 0.7868272D+01 0.1881289D+01 0.5442493D+00 0.1687145D+00
EXPONENTS  0.1687145D+00 0.1687145D+00 0.1687145D+00 0.8000000D+00 0.8000000D+00
EXPONENTS  0.8000000D+00 0.8000000D+00 0.8000000D+00 0.8000000D+00 0.1873114D+02
EXPONENTS  0.2825394D+01 0.6401217D+00 0.1612778D+00 0.1873114D+02 0.2825394D+01
EXPONENTS  0.6401217D+00 0.1612778D+00 0.1873114D+02 0.2825394D+01 0.6401217D+00
EXPONENTS  0.1612778D+00 0.3047525D+04 0.4573695D+03 0.1039487D+03 0.2921016D+02
EXPONENTS  0.9286663D+01 0.3163927D+01 0.7868272D+01 0.1881289D+01 0.5442493D+00
EXPONENTS  0.7868272D+01 0.1881289D+01 0.5442493D+00 0.7868272D+01 0.1881289D+01
EXPONENTS  0.5442493D+00 0.7868272D+01 0.1881289D+01 0.5442493D+00 0.1687145D+00
EXPONENTS  0.1687145D+00 0.1687145D+00 0.1687145D+00 0.8000000D+00 0.8000000D+00
EXPONENTS  0.8000000D+00 0.8000000D+00 0.8000000D+00 0.8000000D+00 0.1873114D+02
EXPONENTS  0.2825394D+01 0.6401217D+00 0.1612778D+00 0.1873114D+02 0.2825394D+01
EXPONENTS  0.6401217D+00 0.1612778D+00 0.1873114D+02 0.2825394D+01 0.6401217D+00
EXPONENTS  0.1612778D+00
MO    1     MO 0.0        OCC NO =    1.0000000  ORB. ENERGY =  -19.185577
  0.81800680D-05  0.15090628D-04  0.24360953D-04  0.31710722D-04  0.27058817D-04
  0.93427592D-05 -0.34250764D-04 -0.15786146D-04  0.44266000D-04 -0.12856157D-05
 -0.98572860D-06 -0.49194766D-06 -0.19615520D-04 -0.15039937D-04 -0.75059826D-05
  0.51588175D-05  0.39554540D-05  0.19740488D-05 -0.27499108D-03  0.90295448D-04
  0.62937030D-04  0.98532195D-05 -0.54765783D-05 -0.12950108D-04  0.37233429D-04
  0.44038430D-04  0.54086091D-06 -0.46108173D-05  0.97495596D-08  0.17986034D-07
  0.29035035D-07  0.37794989D-07  0.32250532D-07  0.11135334D-07  0.67637187D-05
  0.31173918D-05 -0.87414919D-05 -0.69390767D-04 -0.53204439D-04 -0.26552744D-04
 -0.52226058D-04 -0.40043629D-04 -0.19984577D-04 -0.42743792D-05 -0.32773228D-05
 -0.16356138D-05  0.33570320D-03  0.31002195D-04 -0.16759526D-03 -0.89610425D-05
  0.14830190D-04  0.17291414D-04  0.16303240D-04  0.86601234D-05 -0.10319847D-04
  0.26054464D-06  0.22040605D-04  0.40660612D-04  0.65638836D-04  0.85442261D-04
  0.72908036D-04  0.25173393D-04 -0.97592162D-04 -0.44980138D-04  0.12612900D-03
 -0.23282190D-04 -0.17851306D-04 -0.89090529D-05  0.37275015D-04  0.28580117D-04
  0.14263481D-04 -0.81476801D-06 -0.62471243D-06 -0.31177529D-06 -0.45961071D-03
 -0.40002145D-03  0.20643018D-03 -0.35279782D-04  0.45167289D-04 -0.41502880D-04
  0.79700492D-04 -0.46261949D-06 -0.18605409D-04  0.74812978D-05 -0.28356134D-04
 -0.52311530D-04 -0.84447029D-04 -0.10992494D-03 -0.93799150D-04 -0.32386592D-04
 -0.14495022D-04 -0.66807425D-05  0.18733499D-04 -0.47531641D-03 -0.36444247D-03
 -0.18188234D-03 -0.38675769D-03 -0.29654126D-03 -0.14799487D-03 -0.16897604D-03
 -0.12956011D-03 -0.64659574D-04  0.19409471D-03  0.58765491D-03  0.44622963D-03
  0.13603224D-03  0.46076488D-04  0.61749604D-04 -0.81560214D-04  0.13201294D-03
  0.61389076D-04  0.89964167D-04  0.95499247D-05  0.17617746D-04  0.28440505D-04
  0.37021087D-04  0.31590161D-04  0.10907323D-04 -0.81883222D-04 -0.37739902D-04
  0.10582663D-03 -0.18746067D-05 -0.14373295D-05 -0.71732816D-06 -0.56657737D-05
 -0.43441559D-05 -0.21680382D-05  0.10999591D-06  0.84337885D-07  0.42090515D-07
 -0.38039176D-03  0.66565977D-04 -0.28107408D-03 -0.35120061D-04 -0.10404195D-03
 -0.78316751D-04  0.43128051D-04  0.70874116D-04 -0.81770947D-06 -0.51191827D-04
  0.77684938D-06  0.14331354D-05  0.23135249D-05  0.30115220D-05  0.25697372D-05
  0.88726851D-06  0.85531713D-05  0.39421488D-05 -0.11054197D-04 -0.70052640D-04
 -0.53711921D-04 -0.26806013D-04 -0.33815974D-04 -0.25927944D-04 -0.12939861D-04
 -0.13676560D-05 -0.10486319D-05 -0.52334080D-06  0.25648603D-03 -0.68489100D-04
  0.61121604D-04  0.30542634D-05  0.25350775D-04  0.35240220D-04  0.19111942D-04
  0.12809760D-04 -0.43482240D-05 -0.29550411D-05 -0.20266626D-05 -0.34376033D-05
 -0.39135899D-05 -0.27913793D-04 -0.11970517D-05 -0.20304263D-05 -0.23115686D-05
 -0.12746865D-03  0.82556119D+00  0.15194733D+01  0.24587946D+01  0.32321543D+01
  0.27722000D+01  0.94786226D+00 -0.15816975D-01 -0.70575036D-02  0.20840902D-01
  0.19967590D-04  0.15383952D-04  0.67543834D-05  0.17465260D-02  0.13456042D-02
  0.59079270D-03  0.22740595D-02  0.17520403D-02  0.76924005D-03  0.40535329D-02
  0.20525226D-03  0.15330526D-03  0.50753673D-04 -0.95030242D-02 -0.94140605D-02
 -0.95223828D-02 -0.32349201D-04  0.19706461D-03 -0.63913783D-04 -0.21101526D-03
 -0.38838072D-03 -0.62847332D-03 -0.82614577D-03 -0.70858043D-03 -0.24227568D-03
 -0.15585966D-03 -0.69544277D-04  0.20536518D-03  0.94279244D-04  0.72637075D-04
  0.31891588D-04 -0.92989238D-04 -0.71643195D-04 -0.31455221D-04 -0.26906360D-04
 -0.20729900D-04 -0.91015428D-05 -0.46599187D-03 -0.13878546D-03  0.44027921D-04
 -0.13054768D-05  0.15014068D-03  0.22021468D-03  0.20416914D-03  0.30834315D-04
 -0.14635387D-05 -0.18057392D-05  0.86755802D-05  0.14715426D-04  0.16752992D-04
  0.43142569D-04 -0.17783087D-05 -0.32806323D-05 -0.52959577D-05 -0.68937633D-05
 -0.58824607D-05 -0.20310723D-05 -0.97541518D-04 -0.44956796D-04  0.12606355D-03
  0.35824149D-03  0.27467685D-03  0.13708300D-03 -0.88714095D-04 -0.68020341D-04
 -0.33946917D-04 -0.46922386D-03 -0.35977110D-03 -0.17955099D-03 -0.27676348D-03
 -0.52440957D-04  0.53328225D-04  0.13849019D-03  0.13486158D-03 -0.50847834D-04
  0.17504005D-03 -0.73886451D-04 -0.34794264D-03  0.55081178D-04 -0.20044895D-05
 -0.33999937D-05 -0.38707726D-05 -0.32193128D-04  0.29174443D-04  0.49485377D-04
  0.56337352D-04  0.47738469D-04  0.69566546D-05  0.11799803D-04  0.13433658D-04
 -0.22892205D-04  0.63422683D-05  0.11700247D-04  0.18887826D-04  0.24586337D-04
  0.20979566D-04  0.72437400D-05 -0.20435311D-04 -0.94186164D-05  0.26410783D-04
 -0.16778013D-04 -0.12864316D-04 -0.64201953D-05 -0.88564956D-05 -0.67905991D-05
 -0.33889849D-05 -0.52284011D-05 -0.40088063D-05 -0.20006753D-05 -0.23806676D-04
  0.10494570D-04 -0.29977350D-06  0.15394164D-05  0.10208113D-04  0.15109874D-04
  0.25916678D-04  0.22422028D-04 -0.48505676D-06 -0.36426937D-05  0.20474474D-05
  0.34728582D-05  0.39537263D-05  0.51171658D-05  0.33002271D-05  0.55978097D-05
  0.63729085D-05  0.42141444D-05  0.15613155D-05  0.26482865D-05  0.30149806D-05
 -0.24183088D-05
MO    2     MO 0.0        OCC NO =    1.0000000  ORB. ENERGY =  -19.179891
 -0.60104692D-05 -0.11088142D-04 -0.17899699D-04 -0.23300090D-04 -0.19882009D-04
 -0.68647799D-05  0.33020257D-04  0.15219006D-04 -0.42675682D-04 -0.85563874D-04
 -0.65604952D-04 -0.32741469D-04  0.33654815D-04  0.25804378D-04  0.12878193D-04
 -0.31521149D-05 -0.24168418D-05 -0.12061734D-05  0.42034345D-03 -0.17189992D-03
 -0.40800085D-04 -0.16758597D-04  0.39188890D-04  0.19824878D-04 -0.12187815D-04
 -0.72490337D-04 -0.26633237D-05  0.44093662D-05  0.13477840D-04  0.24863983D-04
  0.40138177D-04  0.52247981D-04  0.44583297D-04  0.15393541D-04 -0.86970719D-04
 -0.40084725D-04  0.11240175D-03  0.10943926D-03  0.83911081D-04  0.41877510D-04
  0.18776062D-04  0.14396293D-04  0.71847593D-05  0.19515012D-04  0.14962873D-04
  0.74675223D-05 -0.66541972D-03 -0.84039409D-04  0.32704164D-03  0.17924056D-04
 -0.90697813D-04 -0.50228828D-04  0.51431920D-04  0.27696700D-04 -0.18307105D-04
 -0.11294467D-04 -0.27408997D-04 -0.50564247D-04 -0.81626372D-04 -0.10625328D-03
 -0.90666119D-04 -0.31304832D-04 -0.63238524D-04 -0.29146578D-04  0.81730046D-04
 -0.52380854D-03 -0.40162316D-03 -0.20043811D-03  0.15132090D-03  0.11602326D-03
  0.57903741D-04 -0.56988144D-04 -0.43694894D-04 -0.21806815D-04 -0.48983414D-06
  0.76117382D-03 -0.16585080D-03  0.57975490D-04 -0.41969392D-04 -0.91332003D-04
 -0.10225043D-03  0.31290146D-04  0.13532887D-04  0.10643880D-04  0.50758420D-05
  0.93639374D-05  0.15116298D-04  0.19676929D-04  0.16790359D-04  0.57973075D-05
 -0.43214048D-04 -0.19917315D-04  0.55850231D-04  0.21721095D-05  0.16654358D-05
  0.83116920D-06 -0.56112112D-06 -0.43023208D-06 -0.21471596D-06 -0.48885017D-04
 -0.37481930D-04 -0.18706110D-04 -0.16825979D-03 -0.37734326D-03 -0.18771605D-03
 -0.34500508D-04 -0.90022889D-05 -0.30590233D-04  0.85720230D-05  0.91011540D-04
  0.20874930D-05  0.24786262D-04  0.25754549D-05  0.47512115D-05  0.76699285D-05
  0.99839680D-05  0.85193380D-05  0.29415227D-05  0.36888479D-06  0.17001866D-06
 -0.47675008D-06 -0.65412857D-04 -0.50154430D-04 -0.25030576D-04  0.56220370D-04
  0.43106214D-04  0.21513022D-04  0.12475306D-04  0.95652731D-05  0.47737417D-05
  0.33629678D-03  0.22258304D-04  0.15136360D-03  0.74814336D-05  0.33507147D-04
  0.24276194D-04  0.25450360D-04  0.80340850D-05  0.97880159D-05 -0.62537924D-05
  0.74004153D-05  0.13652321D-04  0.22039079D-04  0.28688333D-04  0.24479806D-04
  0.84522889D-05 -0.32526534D-04 -0.14991450D-04  0.42037590D-04 -0.31886671D-04
 -0.24448677D-04 -0.12201603D-04  0.46760222D-05  0.35852772D-05  0.17893046D-05
 -0.40537143D-05 -0.31081310D-05 -0.15511752D-05 -0.25963496D-03  0.15662185D-03
 -0.42566241D-04  0.10693667D-04  0.38653161D-05 -0.27494398D-04  0.30270901D-04
 -0.35792407D-04 -0.10572836D-04 -0.17652809D-04  0.42015441D-05  0.71266140D-05
  0.81133981D-05  0.31407327D-04  0.68565825D-05  0.11630062D-04  0.13240414D-04
  0.33986094D-04  0.30344035D-03  0.55849223D-03  0.90374585D-03  0.11879992D-02
  0.10189400D-02  0.34839290D-03 -0.13275841D-03 -0.59236542D-04  0.17492630D-03
  0.42129052D-04  0.32458164D-04  0.14250882D-04  0.12296004D-03  0.94734080D-04
  0.41593364D-04 -0.26119707D-04 -0.20123826D-04 -0.88354434D-05 -0.37145223D-03
 -0.15762335D-03 -0.87639487D-04  0.17200202D-04  0.14276421D-03  0.15843199D-03
  0.17817619D-03 -0.10891939D-03 -0.33663253D-04  0.76662477D-05  0.82561962D+00
  0.15195808D+01  0.24589686D+01  0.32323831D+01  0.27723962D+01  0.94792935D+00
 -0.15791176D-01 -0.70459920D-02  0.20806909D-01  0.26277307D-02  0.20245248D-02
  0.88887545D-03  0.20765512D-02  0.15998707D-02  0.70242942D-03  0.34506339D-03
  0.26585274D-03  0.11672367D-03  0.39091345D-02  0.30151419D-03 -0.24955242D-03
  0.23275224D-04 -0.92178318D-02 -0.92918069D-02 -0.92393529D-02 -0.15260792D-03
 -0.11078605D-04 -0.47318626D-04 -0.20503590D-04 -0.34777969D-04 -0.39593489D-04
 -0.75475140D-04  0.26017791D-04  0.47997744D-04  0.77483241D-04  0.10086016D-03
  0.86064155D-04  0.29715885D-04 -0.51546073D-04 -0.23757538D-04  0.66618616D-04
  0.26075397D-04  0.19992960D-04  0.99778884D-05  0.17547271D-03  0.13454135D-03
  0.67145561D-04 -0.80147249D-05 -0.61451827D-05 -0.30668769D-05 -0.16088272D-03
 -0.66233063D-04 -0.65392396D-04  0.70408672D-05  0.11327383D-03  0.16060216D-03
  0.73553159D-04 -0.60577515D-05  0.94745682D-04 -0.10705479D-04  0.18794872D-04
  0.31879660D-04  0.36293866D-04  0.39652191D-04 -0.76936540D-05 -0.13049893D-04
 -0.14856842D-04 -0.27296984D-04  0.93627402D-04  0.15880979D-03  0.18079934D-03
 -0.18049824D-03  0.97704595D-06  0.18024590D-05  0.29097277D-05  0.37876009D-05
  0.32319667D-05  0.11159204D-05 -0.50321583D-05 -0.23193172D-05  0.65036074D-05
  0.15596372D-04  0.11958309D-04  0.59680344D-05 -0.17335040D-04 -0.13291409D-04
 -0.66333447D-05  0.40475021D-06  0.31033679D-06  0.15487981D-06 -0.71729024D-04
  0.17917817D-04 -0.76336332D-05 -0.86359185D-06 -0.20134524D-05  0.16272163D-05
 -0.17546786D-05  0.64018677D-05  0.18330543D-05  0.40586086D-06  0.19442711D-05
  0.32978518D-05  0.37544878D-05  0.29625360D-05  0.21954140D-05  0.37238377D-05
  0.42394576D-05  0.38621467D-06 -0.35103827D-06 -0.59542734D-06 -0.67787298D-06
  0.52658657D-05
MO    3     MO 0.0        OCC NO =    1.0000000  ORB. ENERGY =  -10.250022
  0.40248366D-04  0.74250376D-04  0.11986313D-03  0.15602618D-03  0.13313742D-03
  0.45969152D-04 -0.10223449D-03 -0.47119783D-04  0.13212879D-03  0.14601740D-03
  0.11195688D-03  0.55874330D-04 -0.44814688D-04 -0.34361060D-04 -0.17148577D-04
  0.11170084D-04  0.85645120D-05  0.42742917D-05 -0.15472914D-02  0.63498073D-03
  0.34908854D-03  0.79637445D-04  0.68957700D-04  0.11726090D-04  0.61878569D-04
  0.74508203D-05  0.80727829D-05 -0.12208208D-04  0.23737057D-02  0.43790235D-02
  0.70691016D-02  0.92018699D-02  0.78519723D-02  0.27110973D-02  0.26486860D-03
  0.12207769D-03 -0.34231860D-03  0.18352224D-03  0.14071321D-03  0.70225754D-04
  0.29007386D-03  0.22241023D-03  0.11099829D-03  0.33234865D-04  0.25482386D-04
  0.12717497D-04  0.26334819D-02 -0.35812738D-04 -0.12761616D-02 -0.11052683D-03
 -0.50974728D-03 -0.22048200D-03 -0.36344584D-03 -0.59883393D-04 -0.41233205D-04
  0.21042460D-04  0.53233454D+00  0.98205329D+00  0.15853385D+01  0.20636397D+01
  0.17609075D+01  0.60799904D+00 -0.19813975D-01 -0.91322431D-02  0.25607763D-01
 -0.10116162D-02 -0.77564315D-03 -0.38710029D-03  0.36611261D-03  0.28071193D-03
  0.14009493D-03 -0.14391867D-04 -0.11034771D-04 -0.55071242D-05 -0.40968276D-02
 -0.18329113D-02  0.86727350D-03 -0.10082431D-03 -0.93637654D-02 -0.99463325D-02
 -0.10381389D-01 -0.50732198D-03  0.16205598D-03  0.20931903D-04  0.15643032D-01
  0.28858340D-01  0.46586308D-01  0.60641531D-01  0.51745528D-01  0.17866487D-01
 -0.23613788D-03 -0.10883573D-03  0.30518676D-03 -0.73389712D-04 -0.56270576D-04
 -0.28082961D-04 -0.37783517D-03 -0.28970005D-03 -0.14458063D-03  0.22670279D-04
  0.17382132D-04  0.86749020D-05  0.23604810D-02  0.10061735D-02  0.11125630D-02
  0.17312942D-03 -0.70840987D-03 -0.79150027D-03 -0.62820091D-03  0.17375301D-03
 -0.34549067D-04 -0.50869371D-04  0.89645915D-04  0.16537921D-03  0.26697332D-03
  0.34751994D-03  0.29653939D-03  0.10238793D-03 -0.74613196D-04 -0.34389154D-04
  0.96430777D-04  0.14743598D-03  0.11304456D-03  0.56417156D-04 -0.91962583D-04
 -0.70511075D-04 -0.35189968D-04 -0.37473054D-05 -0.28731961D-05 -0.14339262D-05
 -0.15150146D-02 -0.84677615D-04 -0.77874824D-03 -0.73062091D-04  0.80206411D-04
  0.65859668D-05  0.33202828D-04 -0.84637071D-04 -0.85730899D-05 -0.11585334D-04
 -0.71750812D-04 -0.13236624D-03 -0.21368015D-03 -0.27814806D-03 -0.23734425D-03
 -0.81949265D-04  0.16058648D-03  0.74014160D-04 -0.20754343D-03  0.92762830D-04
  0.71124654D-04  0.35496187D-04 -0.41159029D-04 -0.31558133D-04 -0.15749720D-04
  0.81867288D-05  0.62770644D-05  0.31326950D-05  0.13482703D-02 -0.71687635D-03
  0.23684493D-03 -0.33088858D-04  0.31953690D-05  0.46574177D-04 -0.13785265D-03
  0.81286075D-04  0.29331363D-04  0.43567455D-04 -0.27211734D-04 -0.46156252D-04
 -0.52547261D-04 -0.16987351D-03 -0.37392867D-04 -0.63425380D-04 -0.72207554D-04
 -0.18801182D-03 -0.82972632D-04 -0.15271394D-03 -0.24711997D-03 -0.32484612D-03
 -0.27861863D-03 -0.95264442D-04  0.30061391D-03  0.13413334D-03 -0.39609755D-03
 -0.16680880D-03 -0.12851718D-03 -0.56425966D-04 -0.24454963D-04 -0.18841230D-04
 -0.82723149D-05  0.67248231D-04  0.51811137D-04  0.22747880D-04  0.91872677D-03
  0.31245325D-03  0.11106622D-03 -0.17964008D-04 -0.25611389D-03 -0.24553053D-03
 -0.33383909D-03  0.99059811D-04  0.12787215D-03  0.79663980D-05  0.13740044D-03
  0.25289016D-03  0.40922401D-03  0.53793642D-03  0.46138494D-03  0.15775535D-03
 -0.74340879D-03 -0.33170755D-03  0.97953684D-03 -0.37915046D-04 -0.29211499D-04
 -0.12825422D-04 -0.51308343D-04 -0.39530312D-04 -0.17355936D-04  0.33166135D-04
  0.25552719D-04  0.11219020D-04 -0.18504973D-02 -0.77790121D-03  0.33274992D-03
 -0.63396112D-04 -0.21630392D-03  0.62566578D-03  0.10231993D-02  0.94992979D-03
 -0.17687938D-03  0.52246010D-04  0.40923916D-04  0.69414708D-04  0.79026191D-04
  0.38571242D-03 -0.34596552D-04 -0.63823882D-04 -0.10303154D-03 -0.13411645D-03
 -0.11444181D-03 -0.39514005D-04  0.36882050D-04  0.16998903D-04 -0.47666699D-04
 -0.52978082D-04 -0.40620233D-04 -0.20272343D-04 -0.53160947D-04 -0.40760442D-04
 -0.20342318D-04 -0.37143199D-04 -0.28479049D-04 -0.14213041D-04  0.98607290D-04
  0.94007571D-04  0.34939507D-04 -0.15720000D-04  0.28693057D-04 -0.91605141D-04
  0.25622750D-04  0.72102671D-05 -0.95525256D-04  0.11697192D-04 -0.22025299D-04
 -0.37359075D-04 -0.42531987D-04  0.88328200D-05  0.57794668D-05  0.98030696D-05
  0.11160448D-04  0.45182454D-04  0.43294103D-04  0.73434993D-04  0.83603145D-04
 -0.73823183D-04 -0.69621521D-06 -0.12843811D-05 -0.20733893D-05 -0.26989369D-05
 -0.23030077D-05 -0.79517322D-06  0.13971996D-04  0.64396800D-05 -0.18057535D-04
 -0.64644755D-04 -0.49565498D-04 -0.24736657D-04  0.44548457D-04  0.34156931D-04
  0.17046703D-04 -0.25365061D-05 -0.19448320D-05 -0.97060747D-06  0.29231687D-03
 -0.72768820D-04  0.46604932D-04  0.39997610D-06  0.25336229D-05  0.17769258D-04
  0.10207153D-05 -0.77476360D-05 -0.10624280D-05  0.24912952D-05 -0.48315728D-05
 -0.81952620D-05 -0.93300161D-05 -0.28440994D-05 -0.48159807D-05 -0.81688149D-05
 -0.92999070D-05 -0.57010848D-06 -0.38601616D-05 -0.65475646D-05 -0.74541709D-05
 -0.13607913D-04
MO    4     MO 0.0        OCC NO =    1.0000000  ORB. ENERGY =  -10.241551
 -0.68491660D-04 -0.12635374D-03 -0.20397411D-03 -0.26551369D-03 -0.22656331D-03
 -0.78226867D-04  0.12716027D-03  0.58608054D-04 -0.16434310D-03  0.30237708D-04
  0.23184357D-04  0.11570619D-04  0.46879405D-04  0.35944154D-04  0.17938652D-04
 -0.25730887D-05 -0.19728812D-05 -0.98460600D-06  0.10476934D-02 -0.49284155D-03
 -0.19795598D-03 -0.52778382D-04  0.11042561D-05 -0.87646110D-05 -0.12339605D-03
 -0.60352281D-04  0.15024765D-04  0.83377706D-05 -0.64589303D-04 -0.11915465D-03
 -0.19235255D-03 -0.25038587D-03 -0.21365472D-03 -0.73769839D-04 -0.54108652D-04
 -0.24938628D-04  0.69930517D-04  0.12019617D-03  0.92158800D-04  0.45993700D-04
  0.78366948D-04  0.60086805D-04  0.29987527D-04  0.15336674D-05  0.11759189D-05
  0.58686595D-06 -0.12862679D-02 -0.17269990D-03  0.63441775D-03  0.43442738D-04
  0.92566529D-04  0.63676019D-04  0.32203991D-04  0.81737855D-04  0.26844820D-04
  0.14181723D-05 -0.15948673D-01 -0.29422188D-01 -0.47496534D-01 -0.61826375D-01
 -0.52756558D-01 -0.18215572D-01  0.94613851D-03  0.43607437D-03 -0.12227981D-02
 -0.40966481D-04 -0.31410499D-04 -0.15676040D-04  0.32406294D-03  0.24847090D-03
  0.12400440D-03  0.51843900D-04  0.39750614D-04  0.19838343D-04  0.25340951D-02
  0.99344493D-03 -0.93971950D-03  0.20773635D-04 -0.13187296D-03 -0.23912650D-03
 -0.28991841D-04 -0.50890910D-04 -0.23047077D-04 -0.61358305D-04  0.53234312D+00
  0.98206911D+00  0.15853640D+01  0.20636729D+01  0.17609359D+01  0.60800883D+00
 -0.19840662D-01 -0.91445430D-02  0.25642253D-01 -0.11089236D-02 -0.85025227D-03
 -0.42433547D-03 -0.55110755D-03 -0.42255431D-03 -0.21088422D-03 -0.12089515D-03
 -0.92694733D-04 -0.46261168D-04 -0.39833200D-02 -0.11481688D-02 -0.12382577D-02
 -0.25845283D-03 -0.95219259D-02 -0.97046213D-02 -0.10289915D-01  0.59294188D-03
  0.25216040D-03  0.20877940D-03  0.25719204D-02  0.47446910D-02  0.76594024D-02
  0.99702661D-02  0.85076461D-02  0.29374858D-02  0.22337111D-03  0.10295154D-03
 -0.28868686D-03  0.32719490D-03  0.25087229D-03  0.12520286D-03 -0.23387218D-03
 -0.17931836D-03 -0.89492428D-04 -0.17860971D-04 -0.13694660D-04 -0.68345952D-05
  0.21713812D-02 -0.89802131D-04  0.10320643D-02  0.11316183D-03 -0.52437203D-03
 -0.24105475D-03 -0.34546131D-03 -0.44228207D-04 -0.68023426D-04  0.51584955D-04
  0.38748541D-04  0.71483493D-04  0.11539652D-03  0.15021198D-03  0.12817616D-03
  0.44256147D-04 -0.87994418D-04 -0.40556547D-04  0.11372479D-03  0.77854328D-04
  0.59693760D-04  0.29791370D-04  0.16924167D-05  0.12976378D-05  0.64761219D-06
  0.57384128D-05  0.43998510D-05  0.21958340D-05 -0.13116542D-02  0.57479200D-03
 -0.51112121D-04  0.28967060D-04  0.38833669D-04  0.27642458D-04  0.52929272D-04
  0.31394790D-04  0.11668660D-04  0.71486048D-05  0.20777062D-04  0.35241830D-04
  0.40121577D-04  0.14533437D-03  0.36519497D-04  0.61943979D-04  0.70521031D-04
  0.28942434D-03  0.12049142D-03  0.22176854D-03  0.35886335D-03  0.47173592D-03
  0.40460516D-03  0.13834138D-03 -0.67653099D-03 -0.30186681D-03  0.89141673D-03
  0.23738691D-03  0.18289382D-03  0.80300238D-04  0.54664038D-04  0.42115694D-04
  0.18491058D-04  0.20348588D-03  0.15677490D-03  0.68832627D-04 -0.15593954D-02
 -0.66626788D-03 -0.44310204D-03 -0.23905803D-03  0.49871813D-05  0.40519218D-03
  0.78225466D-03 -0.11562920D-02 -0.31895942D-03 -0.43202103D-03 -0.67627589D-04
 -0.12447087D-03 -0.20141736D-03 -0.26476875D-03 -0.22709062D-03 -0.77646140D-04
  0.28683503D-03  0.12798523D-03 -0.37794210D-03 -0.15707000D-03 -0.12101397D-03
 -0.53131649D-04 -0.20361035D-05 -0.15687079D-05 -0.68874728D-06  0.67151813D-04
  0.51736852D-04  0.22715265D-04  0.79101573D-03  0.26504527D-03 -0.28696638D-04
  0.36630575D-05 -0.10536333D-03 -0.20477025D-03 -0.29595361D-03 -0.90946326D-04
  0.37050972D-04  0.43318081D-04 -0.27926485D-04 -0.47368604D-04 -0.53927481D-04
 -0.16291109D-03 -0.45470607D-04 -0.83884391D-04 -0.13541542D-03 -0.17627064D-03
 -0.15041205D-03 -0.51933667D-04  0.67646028D-04  0.31177993D-04 -0.87426346D-04
 -0.33570458D-04 -0.25739698D-04 -0.12845913D-04 -0.84656853D-04 -0.64909506D-04
 -0.32394392D-04 -0.11055234D-03 -0.84764525D-04 -0.42303439D-04  0.21391981D-04
  0.16022611D-03  0.14178286D-03  0.10986494D-03  0.16621114D-03 -0.52624869D-04
  0.92828705D-05  0.14908509D-03 -0.48276317D-04 -0.68516498D-04 -0.60051330D-04
 -0.10185842D-03 -0.11596221D-03 -0.71742643D-04  0.29494234D-04  0.50027804D-04
  0.56954887D-04  0.13593388D-03 -0.20257920D-04 -0.34361267D-04 -0.39119088D-04
  0.71575162D-04 -0.21199451D-04 -0.39108847D-04 -0.63133805D-04 -0.82181455D-04
 -0.70125585D-04 -0.24212679D-04  0.45287433D-04  0.20872936D-04 -0.58529893D-04
  0.35973104D-04  0.27581894D-04  0.13765298D-04 -0.11288485D-04 -0.86552943D-05
 -0.43195985D-05  0.26672421D-05  0.20450720D-05  0.10206343D-05 -0.51135151D-04
 -0.20520545D-04 -0.51389934D-04 -0.37236838D-05  0.20369147D-04 -0.84176815D-04
 -0.37478557D-04 -0.20866533D-05  0.43376053D-05 -0.60822922D-05 -0.64520836D-05
 -0.10943955D-04 -0.12459306D-04 -0.17077868D-04 -0.74947723D-05 -0.12712552D-04