Title Card Required                                                     
SP        UB3LYP                                                      6-311G(d,p)         
Number of atoms                            I               15
Info1-9                                    I   N=           9
          41          40           0           0           0         110
           1          18        -502
Full Title                                 C   N=           2
Title Card Required     
Route                                      C   N=           5
# ub3lyp/6-311g(d,p) geom=connectivity temperature=823.15   
Charge                                     I                0
Multiplicity                               I                2
Number of electrons                        I               57
Number of alpha electrons                  I               29
Number of beta electrons                   I               28
Number of basis functions                  I              186
Number of independent functions            I              186
Number of point charges in /Mol/           I                0
Number of translation vectors              I                0
Atomic numbers                             I   N=          15
           6           6           6           6           6           6
           1           8           1           1           1           6
           1           1           1
Nuclear charges                            R   N=          15
  6.00000000E+00  6.00000000E+00  6.00000000E+00  6.00000000E+00  6.00000000E+00
  6.00000000E+00  1.00000000E+00  8.00000000E+00  1.00000000E+00  1.00000000E+00
  1.00000000E+00  6.00000000E+00  1.00000000E+00  1.00000000E+00  1.00000000E+00
Current cartesian coordinates              R   N=          45
 -2.50050451E+00 -4.08415169E-01  6.08151661E-02 -3.20847150E-01 -1.35483726E+00
  9.76701168E-01  4.14011593E+00  1.11267074E-01 -3.40460618E-01  1.64474014E+00
  7.00614071E-01  1.04882257E+00  2.71139794E-01  2.97019404E+00 -2.73821315E-03
 -2.11343757E+00  2.29227180E+00 -5.37181107E-01  4.61678989E-02 -3.28020361E+00
  1.55032942E+00  4.98600836E+00 -1.88198581E+00 -8.55609408E-01  1.13975808E+00
  4.80159566E+00 -2.48207968E-01 -3.56824134E+00  3.51480555E+00 -1.29804910E+00
  2.27674581E+00  1.08636009E+00  2.99432774E+00 -4.95032467E+00 -1.76662936E+00
 -3.39251193E-01 -6.46845505E+00 -9.06726499E-01  7.74114969E-01 -5.53230929E+00
 -1.67367752E+00 -2.32350709E+00 -4.80701918E+00 -3.75306033E+00  1.95607441E-01
Number of symbols in /Mol/                 I                0
Force Field                                I                0
Atom Types                                 C   N=          15
                                                            
                                                            
                                                            
Int Atom Types                             I   N=          15
           0           0           0           0           0           0
           0           0           0           0           0           0
           0           0           0
MM charges                                 R   N=          15
  0.00000000E+00  0.00000000E+00  0.00000000E+00  0.00000000E+00  0.00000000E+00
  0.00000000E+00  0.00000000E+00  0.00000000E+00  0.00000000E+00  0.00000000E+00
  0.00000000E+00  0.00000000E+00  0.00000000E+00  0.00000000E+00  0.00000000E+00
Integer atomic weights                     I   N=          15
          12          12          12          12          12          12
           1          16           1           1           1          12
           1           1           1
Real atomic weights                        R   N=          15
  1.20000000E+01  1.20000000E+01  1.20000000E+01  1.20000000E+01  1.20000000E+01
  1.20000000E+01  1.00782504E+00  1.59949146E+01  1.00782504E+00  1.00782504E+00
  1.00782504E+00  1.20000000E+01  1.00782504E+00  1.00782504E+00  1.00782504E+00
Atom fragment info                         I   N=          15
           0           0           0           0           0           0
           0           0           0           0           0           0
           0           0           0
Atom residue num                           I   N=          15
           0           0           0           0           0           0
           0           0           0           0           0           0
           0           0           0
Nuclear spins                              I   N=          15
           0           0           0           0           0           0
           1           0           1           1           1           0
           1           1           1
Nuclear ZEff                               R   N=          15
 -3.60000000E+00 -3.60000000E+00 -3.60000000E+00 -3.60000000E+00 -3.60000000E+00
 -3.60000000E+00 -1.00000000E+00 -5.60000000E+00 -1.00000000E+00 -1.00000000E+00
 -1.00000000E+00 -3.60000000E+00 -1.00000000E+00 -1.00000000E+00 -1.00000000E+00
Nuclear ZNuc                               R   N=          15
  6.00000000E+00  6.00000000E+00  6.00000000E+00  6.00000000E+00  6.00000000E+00
  6.00000000E+00  1.00000000E+00  8.00000000E+00  1.00000000E+00  1.00000000E+00
  1.00000000E+00  6.00000000E+00  1.00000000E+00  1.00000000E+00  1.00000000E+00
Nuclear QMom                               R   N=          15
  0.00000000E+00  0.00000000E+00  0.00000000E+00  0.00000000E+00  0.00000000E+00
  0.00000000E+00  0.00000000E+00  0.00000000E+00  0.00000000E+00  0.00000000E+00
  0.00000000E+00  0.00000000E+00  0.00000000E+00  0.00000000E+00  0.00000000E+00
Nuclear GFac                               R   N=          15
  0.00000000E+00  0.00000000E+00  0.00000000E+00  0.00000000E+00  0.00000000E+00
  0.00000000E+00  2.79284600E+00  0.00000000E+00  2.79284600E+00  2.79284600E+00
  2.79284600E+00  0.00000000E+00  2.79284600E+00  2.79284600E+00  2.79284600E+00
MicOpt                                     I   N=          15
          -1          -1          -1          -1          -1          -1
          -1          -1          -1          -1          -1          -1
          -1          -1          -1
Number of residues                         I                0
Number of secondary structures             I                0
SymInf integers                            I   N=          26
           1           1           1           1           1           0
           0           0           0           0           0           0
           0           0           0           0           0           0
           0           0           0           0           0           0
           0           0
RotTr to input orientation                 R   N=          12
  1.00000000E+00  1.50344950E-07  0.00000000E+00 -1.50344950E-07  1.00000000E+00
  0.00000000E+00  0.00000000E+00  0.00000000E+00  1.00000000E+00  9.94592696E-08
 -3.31530900E-08 -2.32071629E-07
Number of contracted shells                I               68
Number of primitive shells                 I              138
Pure/Cartesian d shells                    I                0
Pure/Cartesian f shells                    I                0
Highest angular momentum                   I                2
Largest degree of contraction              I                6
Shell types                                I   N=          68
           0          -1          -1          -1          -2           0
          -1          -1          -1          -2           0          -1
          -1          -1          -2           0          -1          -1
          -1          -2           0          -1          -1          -1
          -2           0          -1          -1          -1          -2
           0           0           0           1           0          -1
          -1          -1          -2           0           0           0
           1           0           0           0           1           0
           0           0           1           0          -1          -1
          -1          -2           0           0           0           1
           0           0           0           1           0           0
           0           1
Number of primitives per shell             I   N=          68
           6           3           1           1           1           6
           3           1           1           1           6           3
           1           1           1           6           3           1
           1           1           6           3           1           1
           1           6           3           1           1           1
           3           1           1           1           6           3
           1           1           1           3           1           1
           1           3           1           1           1           3
           1           1           1           6           3           1
           1           1           3           1           1           1
           3           1           1           1           3           1
           1           1
Shell to atom map                          I   N=          68
           1           1           1           1           1           2
           2           2           2           2           3           3
           3           3           3           4           4           4
           4           4           5           5           5           5
           5           6           6           6           6           6
           7           7           7           7           8           8
           8           8           8           9           9           9
           9          10          10          10          10          11
          11          11          11          12          12          12
          12          12          13          13          13          13
          14          14          14          14          15          15
          15          15
Primitive exponents                        R   N=         138
  4.56324000E+03  6.82024000E+02  1.54973000E+02  4.44553000E+01  1.30290000E+01
  1.82773000E+00  2.09642000E+01  4.80331000E+00  1.45933000E+00  4.83456000E-01
  1.45585000E-01  6.26000000E-01  4.56324000E+03  6.82024000E+02  1.54973000E+02
  4.44553000E+01  1.30290000E+01  1.82773000E+00  2.09642000E+01  4.80331000E+00
  1.45933000E+00  4.83456000E-01  1.45585000E-01  6.26000000E-01  4.56324000E+03
  6.82024000E+02  1.54973000E+02  4.44553000E+01  1.30290000E+01  1.82773000E+00
  2.09642000E+01  4.80331000E+00  1.45933000E+00  4.83456000E-01  1.45585000E-01
  6.26000000E-01  4.56324000E+03  6.82024000E+02  1.54973000E+02  4.44553000E+01
  1.30290000E+01  1.82773000E+00  2.09642000E+01  4.80331000E+00  1.45933000E+00
  4.83456000E-01  1.45585000E-01  6.26000000E-01  4.56324000E+03  6.82024000E+02
  1.54973000E+02  4.44553000E+01  1.30290000E+01  1.82773000E+00  2.09642000E+01
  4.80331000E+00  1.45933000E+00  4.83456000E-01  1.45585000E-01  6.26000000E-01
  4.56324000E+03  6.82024000E+02  1.54973000E+02  4.44553000E+01  1.30290000E+01
  1.82773000E+00  2.09642000E+01  4.80331000E+00  1.45933000E+00  4.83456000E-01
  1.45585000E-01  6.26000000E-01  3.38650000E+01  5.09479000E+00  1.15879000E+00
  3.25840000E-01  1.02741000E-01  7.50000000E-01  8.58850000E+03  1.29723000E+03
  2.99296000E+02  8.73771000E+01  2.56789000E+01  3.74004000E+00  4.21175000E+01
  9.62837000E+00  2.85332000E+00  9.05661000E-01  2.55611000E-01  1.29200000E+00
  3.38650000E+01  5.09479000E+00  1.15879000E+00  3.25840000E-01  1.02741000E-01
  7.50000000E-01  3.38650000E+01  5.09479000E+00  1.15879000E+00  3.25840000E-01
  1.02741000E-01  7.50000000E-01  3.38650000E+01  5.09479000E+00  1.15879000E+00
  3.25840000E-01  1.02741000E-01  7.50000000E-01  4.56324000E+03  6.82024000E+02
  1.54973000E+02  4.44553000E+01  1.30290000E+01  1.82773000E+00  2.09642000E+01
  4.80331000E+00  1.45933000E+00  4.83456000E-01  1.45585000E-01  6.26000000E-01
  3.38650000E+01  5.09479000E+00  1.15879000E+00  3.25840000E-01  1.02741000E-01
  7.50000000E-01  3.38650000E+01  5.09479000E+00  1.15879000E+00  3.25840000E-01
  1.02741000E-01  7.50000000E-01  3.38650000E+01  5.09479000E+00  1.15879000E+00
  3.25840000E-01  1.02741000E-01  7.50000000E-01
Contraction coefficients                   R   N=         138
  1.96665025E-03  1.52306019E-02  7.61269097E-02  2.60801033E-01  6.16462078E-01
  2.21006028E-01  1.14660081E-01  9.19999648E-01 -3.03068213E-03  1.00000000E+00
  1.00000000E+00  1.00000000E+00  1.96665025E-03  1.52306019E-02  7.61269097E-02
  2.60801033E-01  6.16462078E-01  2.21006028E-01  1.14660081E-01  9.19999648E-01
 -3.03068213E-03  1.00000000E+00  1.00000000E+00  1.00000000E+00  1.96665025E-03
  1.52306019E-02  7.61269097E-02  2.60801033E-01  6.16462078E-01  2.21006028E-01
  1.14660081E-01  9.19999648E-01 -3.03068213E-03  1.00000000E+00  1.00000000E+00
  1.00000000E+00  1.96665025E-03  1.52306019E-02  7.61269097E-02  2.60801033E-01
  6.16462078E-01  2.21006028E-01  1.14660081E-01  9.19999648E-01 -3.03068213E-03
  1.00000000E+00  1.00000000E+00  1.00000000E+00  1.96665025E-03  1.52306019E-02
  7.61269097E-02  2.60801033E-01  6.16462078E-01  2.21006028E-01  1.14660081E-01
  9.19999648E-01 -3.03068213E-03  1.00000000E+00  1.00000000E+00  1.00000000E+00
  1.96665025E-03  1.52306019E-02  7.61269097E-02  2.60801033E-01  6.16462078E-01
  2.21006028E-01  1.14660081E-01  9.19999648E-01 -3.03068213E-03  1.00000000E+00
  1.00000000E+00  1.00000000E+00  2.54938145E-02  1.90373109E-01  8.52161486E-01
  1.00000000E+00  1.00000000E+00  1.00000000E+00  1.89515008E-03  1.43859006E-02
  7.07320031E-02  2.40001011E-01  5.94797026E-01  2.80802012E-01  1.13889012E-01
  9.20811101E-01 -3.27447036E-03  1.00000000E+00  1.00000000E+00  1.00000000E+00
  2.54938145E-02  1.90373109E-01  8.52161486E-01  1.00000000E+00  1.00000000E+00
  1.00000000E+00  2.54938145E-02  1.90373109E-01  8.52161486E-01  1.00000000E+00
  1.00000000E+00  1.00000000E+00  2.54938145E-02  1.90373109E-01  8.52161486E-01
  1.00000000E+00  1.00000000E+00  1.00000000E+00  1.96665025E-03  1.52306019E-02
  7.61269097E-02  2.60801033E-01  6.16462078E-01  2.21006028E-01  1.14660081E-01
  9.19999648E-01 -3.03068213E-03  1.00000000E+00  1.00000000E+00  1.00000000E+00
  2.54938145E-02  1.90373109E-01  8.52161486E-01  1.00000000E+00  1.00000000E+00
  1.00000000E+00  2.54938145E-02  1.90373109E-01  8.52161486E-01  1.00000000E+00
  1.00000000E+00  1.00000000E+00  2.54938145E-02  1.90373109E-01  8.52161486E-01
  1.00000000E+00  1.00000000E+00  1.00000000E+00
P(S=P) Contraction coefficients            R   N=         138
  0.00000000E+00  0.00000000E+00  0.00000000E+00  0.00000000E+00  0.00000000E+00
  0.00000000E+00  4.02486927E-02  2.37593957E-01  8.15853851E-01  1.00000000E+00
  1.00000000E+00  0.00000000E+00  0.00000000E+00  0.00000000E+00  0.00000000E+00
  0.00000000E+00  0.00000000E+00  0.00000000E+00  4.02486927E-02  2.37593957E-01
  8.15853851E-01  1.00000000E+00  1.00000000E+00  0.00000000E+00  0.00000000E+00
  0.00000000E+00  0.00000000E+00  0.00000000E+00  0.00000000E+00  0.00000000E+00
  4.02486927E-02  2.37593957E-01  8.15853851E-01  1.00000000E+00  1.00000000E+00
  0.00000000E+00  0.00000000E+00  0.00000000E+00  0.00000000E+00  0.00000000E+00
  0.00000000E+00  0.00000000E+00  4.02486927E-02  2.37593957E-01  8.15853851E-01
  1.00000000E+00  1.00000000E+00  0.00000000E+00  0.00000000E+00  0.00000000E+00
  0.00000000E+00  0.00000000E+00  0.00000000E+00  0.00000000E+00  4.02486927E-02
  2.37593957E-01  8.15853851E-01  1.00000000E+00  1.00000000E+00  0.00000000E+00
  0.00000000E+00  0.00000000E+00  0.00000000E+00  0.00000000E+00  0.00000000E+00
  0.00000000E+00  4.02486927E-02  2.37593957E-01  8.15853851E-01  1.00000000E+00
  1.00000000E+00  0.00000000E+00  0.00000000E+00  0.00000000E+00  0.00000000E+00
  0.00000000E+00  0.00000000E+00  0.00000000E+00  0.00000000E+00  0.00000000E+00
  0.00000000E+00  0.00000000E+00  0.00000000E+00  0.00000000E+00  3.65113974E-02
  2.37152983E-01  8.19701941E-01  1.00000000E+00  1.00000000E+00  0.00000000E+00
  0.00000000E+00  0.00000000E+00  0.00000000E+00  0.00000000E+00  0.00000000E+00
  0.00000000E+00  0.00000000E+00  0.00000000E+00  0.00000000E+00  0.00000000E+00
  0.00000000E+00  0.00000000E+00  0.00000000E+00  0.00000000E+00  0.00000000E+00
  0.00000000E+00  0.00000000E+00  0.00000000E+00  0.00000000E+00  0.00000000E+00
  0.00000000E+00  0.00000000E+00  0.00000000E+00  0.00000000E+00  4.02486927E-02
  2.37593957E-01  8.15853851E-01  1.00000000E+00  1.00000000E+00  0.00000000E+00
  0.00000000E+00  0.00000000E+00  0.00000000E+00  0.00000000E+00  0.00000000E+00
  0.00000000E+00  0.00000000E+00  0.00000000E+00  0.00000000E+00  0.00000000E+00
  0.00000000E+00  0.00000000E+00  0.00000000E+00  0.00000000E+00  0.00000000E+00
  0.00000000E+00  0.00000000E+00  0.00000000E+00
Coordinates of each shell                  R   N=         204
 -2.50050467E+00 -4.08414760E-01  6.08153982E-02 -2.50050467E+00 -4.08414760E-01
  6.08153982E-02 -2.50050467E+00 -4.08414760E-01  6.08153982E-02 -2.50050467E+00
 -4.08414760E-01  6.08153982E-02 -2.50050467E+00 -4.08414760E-01  6.08153982E-02
 -3.20847453E-01 -1.35483717E+00  9.76701400E-01 -3.20847453E-01 -1.35483717E+00
  9.76701400E-01 -3.20847453E-01 -1.35483717E+00  9.76701400E-01 -3.20847453E-01
 -1.35483717E+00  9.76701400E-01 -3.20847453E-01 -1.35483717E+00  9.76701400E-01
  4.14011585E+00  1.11266485E-01 -3.40460385E-01  4.14011585E+00  1.11266485E-01
 -3.40460385E-01  4.14011585E+00  1.11266485E-01 -3.40460385E-01  4.14011585E+00
  1.11266485E-01 -3.40460385E-01  4.14011585E+00  1.11266485E-01 -3.40460385E-01
  1.64474015E+00  7.00613857E-01  1.04882280E+00  1.64474015E+00  7.00613857E-01
  1.04882280E+00  1.64474015E+00  7.00613857E-01  1.04882280E+00  1.64474015E+00
  7.00613857E-01  1.04882280E+00  1.64474015E+00  7.00613857E-01  1.04882280E+00
  2.71140141E-01  2.97019404E+00 -2.73798108E-03  2.71140141E-01  2.97019404E+00
 -2.73798108E-03  2.71140141E-01  2.97019404E+00 -2.73798108E-03  2.71140141E-01
  2.97019404E+00 -2.73798108E-03  2.71140141E-01  2.97019404E+00 -2.73798108E-03
 -2.11343733E+00  2.29227216E+00 -5.37180875E-01 -2.11343733E+00  2.29227216E+00
 -5.37180875E-01 -2.11343733E+00  2.29227216E+00 -5.37180875E-01 -2.11343733E+00
  2.29227216E+00 -5.37180875E-01 -2.11343733E+00  2.29227216E+00 -5.37180875E-01
  4.61673063E-02 -3.28020359E+00  1.55032965E+00  4.61673063E-02 -3.28020359E+00
  1.55032965E+00  4.61673063E-02 -3.28020359E+00  1.55032965E+00  4.61673063E-02
 -3.28020359E+00  1.55032965E+00  4.98600798E+00 -1.88198652E+00 -8.55609176E-01
  4.98600798E+00 -1.88198652E+00 -8.55609176E-01  4.98600798E+00 -1.88198652E+00
 -8.55609176E-01  4.98600798E+00 -1.88198652E+00 -8.55609176E-01  4.98600798E+00
 -1.88198652E+00 -8.55609176E-01  1.13975870E+00  4.80159552E+00 -2.48207735E-01
  1.13975870E+00  4.80159552E+00 -2.48207735E-01  1.13975870E+00  4.80159552E+00
 -2.48207735E-01  1.13975870E+00  4.80159552E+00 -2.48207735E-01 -3.56824091E+00
  3.51480612E+00 -1.29804886E+00 -3.56824091E+00  3.51480612E+00 -1.29804886E+00
 -3.56824091E+00  3.51480612E+00 -1.29804886E+00 -3.56824091E+00  3.51480612E+00
 -1.29804886E+00  2.27674588E+00  1.08635978E+00  2.99432797E+00  2.27674588E+00
  1.08635978E+00  2.99432797E+00  2.27674588E+00  1.08635978E+00  2.99432797E+00
  2.27674588E+00  1.08635978E+00  2.99432797E+00 -4.95032503E+00 -1.76662859E+00
 -3.39250961E-01 -4.95032503E+00 -1.76662859E+00 -3.39250961E-01 -4.95032503E+00
 -1.76662859E+00 -3.39250961E-01 -4.95032503E+00 -1.76662859E+00 -3.39250961E-01
 -4.95032503E+00 -1.76662859E+00 -3.39250961E-01 -6.46845528E+00 -9.06725494E-01
  7.74115201E-01 -6.46845528E+00 -9.06725494E-01  7.74115201E-01 -6.46845528E+00
 -9.06725494E-01  7.74115201E-01 -6.46845528E+00 -9.06725494E-01  7.74115201E-01
 -5.53230964E+00 -1.67367665E+00 -2.32350686E+00 -5.53230964E+00 -1.67367665E+00
 -2.32350686E+00 -5.53230964E+00 -1.67367665E+00 -2.32350686E+00 -5.53230964E+00
 -1.67367665E+00 -2.32350686E+00 -4.80701984E+00 -3.75305958E+00  1.95607673E-01
 -4.80701984E+00 -3.75305958E+00  1.95607673E-01 -4.80701984E+00 -3.75305958E+00
  1.95607673E-01 -4.80701984E+00 -3.75305958E+00  1.95607673E-01
Num ILSW                                   I              100
ILSW                                       I   N=         100
           1           0           0           0           2           0
           0           0           0           0         402          -1
           5           0           0           0           0           0
           0           0           1           0           0           0
           1           0           0           0           0           0
           0           0      100000           0          -1           0
           0           0           0           0           0           0
           0           0           0           1           0           0
           0 -2000000000           1           0           0           0
           0           0           4          52           0           0
           0           0           5           0           0           0
           0           0           0           0           0           1
           0           0           0           0           0           0
           0           0           0           0           0           0
           0           0           0           0           0           0
           0           0           0           0           0           0
           0           0           0           0
Num RLSW                                   I               52
RLSW                                       R   N=          52
  8.00000000E-01  7.20000000E-01  1.00000000E+00  8.10000000E-01  2.00000000E-01
  0.00000000E+00  0.00000000E+00  1.00000000E+00  0.00000000E+00  0.00000000E+00
  0.00000000E+00  0.00000000E+00  1.00000000E+00  0.00000000E+00  0.00000000E+00
  0.00000000E+00  0.00000000E+00  1.00000000E+00  0.00000000E+00  0.00000000E+00
  0.00000000E+00  0.00000000E+00  1.00000000E+00  0.00000000E+00  0.00000000E+00
  0.00000000E+00  0.00000000E+00  1.00000000E+00  0.00000000E+00  0.00000000E+00
  0.00000000E+00  0.00000000E+00  1.00000000E+00  0.00000000E+00  0.00000000E+00
  0.00000000E+00  0.00000000E+00  0.00000000E+00  1.00000000E+00  1.00000000E+00
  0.00000000E+00  1.00000000E+00  0.00000000E+00  0.00000000E+00  0.00000000E+00
  0.00000000E+00  0.00000000E+00  0.00000000E+00  0.00000000E+00  0.00000000E+00
  0.00000000E+00  0.00000000E+00
MxBond                                     I                4
NBond                                      I   N=          15
           3           3           2           4           3           3
           1           1           1           1           1           4
           1           1           1
IBond                                      I   N=          60
           2           6          12           0           1           4
           7           0           4           8           0           0
           2           3           5          11           4           6
           9           0           1           5          10           0
           2           0           0           0           3           0
           0           0           5           0           0           0
           6           0           0           0           4           0
           0           0           1          13          14          15
          12           0           0           0          12           0
           0           0          12           0           0           0
RBond                                      R   N=          60
  2.00000000E+00  1.00000000E+00  1.00000000E+00  0.00000000E+00  2.00000000E+00
  1.00000000E+00  1.00000000E+00  0.00000000E+00  1.00000000E+00  2.00000000E+00
  0.00000000E+00  0.00000000E+00  1.00000000E+00  1.00000000E+00  1.00000000E+00
  1.00000000E+00  1.00000000E+00  2.00000000E+00  1.00000000E+00  0.00000000E+00
  1.00000000E+00  2.00000000E+00  1.00000000E+00  0.00000000E+00  1.00000000E+00
  0.00000000E+00  0.00000000E+00  0.00000000E+00  2.00000000E+00  0.00000000E+00
  0.00000000E+00  0.00000000E+00  1.00000000E+00  0.00000000E+00  0.00000000E+00
  0.00000000E+00  1.00000000E+00  0.00000000E+00  0.00000000E+00  0.00000000E+00
  1.00000000E+00  0.00000000E+00  0.00000000E+00  0.00000000E+00  1.00000000E+00
  1.00000000E+00  1.00000000E+00  1.00000000E+00  1.00000000E+00  0.00000000E+00
  0.00000000E+00  0.00000000E+00  1.00000000E+00  0.00000000E+00  0.00000000E+00
  0.00000000E+00  1.00000000E+00  0.00000000E+00  0.00000000E+00  0.00000000E+00
Virial Ratio                               R      2.003972934190674E+00
SCF Energy                                 R     -3.461772530555524E+02
Total Energy                               R     -3.461772530555524E+02
S**2                                       R      7.531124882900393E-01
S**2 after annihilation                    R      7.500071717392886E-01
RMS Density                                R      4.719517058441180E-09
Job Status                                 I                1
Nuclear derivative order                   I                0
External E-field                           R   N=          35
  0.00000000E+00  0.00000000E+00  0.00000000E+00  0.00000000E+00  0.00000000E+00
  0.00000000E+00  0.00000000E+00  0.00000000E+00  0.00000000E+00  0.00000000E+00
  0.00000000E+00  0.00000000E+00  0.00000000E+00  0.00000000E+00  0.00000000E+00
  0.00000000E+00  0.00000000E+00  0.00000000E+00  0.00000000E+00  0.00000000E+00
  0.00000000E+00  0.00000000E+00  0.00000000E+00  0.00000000E+00  0.00000000E+00
  0.00000000E+00  0.00000000E+00  0.00000000E+00  0.00000000E+00  0.00000000E+00
  0.00000000E+00  0.00000000E+00  0.00000000E+00  0.00000000E+00  0.00000000E+00
IOpCl                                      I                1
IROHF                                      I                0
Alpha Orbital Energies                     R   N=         186
 -1.91657158E+01 -1.02663043E+01 -1.02151160E+01 -1.01895234E+01 -1.01825133E+01
 -1.01808044E+01 -1.01763913E+01 -1.01736408E+01 -1.09908786E+00 -8.80989038E-01
 -7.72409571E-01 -7.31112362E-01 -6.87168129E-01 -5.91114077E-01 -5.41723525E-01
 -5.39195411E-01 -5.07947513E-01 -4.80891663E-01 -4.42729622E-01 -4.37384788E-01
 -4.27478526E-01 -4.17718775E-01 -4.08063140E-01 -3.81957903E-01 -3.71105016E-01
 -3.61853373E-01 -3.14550834E-01 -2.35496880E-01 -1.97324718E-01 -3.84663577E-02
 -2.28717842E-02  4.57745667E-02  5.06225970E-02  6.51176398E-02  7.97219706E-02
  8.83652378E-02  1.05709651E-01  1.24113568E-01  1.27752007E-01  1.71236812E-01
  1.97319078E-01  2.08532339E-01  2.41230111E-01  2.66475120E-01  2.69862616E-01
  3.00861069E-01  3.04483331E-01  3.30229706E-01  3.61931013E-01  3.71524146E-01
  3.93526264E-01  4.09687974E-01  4.15384358E-01  4.24962577E-01  4.47207920E-01
  4.55699537E-01  4.84095486E-01  4.93970933E-01  5.00453009E-01  5.11990217E-01
  5.18142477E-01  5.44123568E-01  5.50062173E-01  5.69515065E-01  5.81454722E-01
  5.94654998E-01  6.02843405E-01  6.24728204E-01  6.25780929E-01  6.32563539E-01
  6.49801939E-01  6.65949978E-01  6.82115124E-01  7.30142288E-01  7.50639033E-01
  7.71239229E-01  7.93245588E-01  8.39068469E-01  8.52592637E-01  8.77441703E-01
  8.83319285E-01  9.27051704E-01  9.72063812E-01  9.92076461E-01  1.00890124E+00
  1.04192859E+00  1.06660478E+00  1.09138193E+00  1.10566348E+00  1.21222434E+00
  1.28488989E+00  1.31852249E+00  1.33638940E+00  1.38648527E+00  1.39473874E+00
  1.44581606E+00  1.45825120E+00  1.47938879E+00  1.48342271E+00  1.50434730E+00
  1.50879174E+00  1.52490318E+00  1.53553182E+00  1.54055978E+00  1.55379538E+00
  1.57243458E+00  1.59391800E+00  1.60387381E+00  1.63463327E+00  1.65804341E+00
  1.70194166E+00  1.74345924E+00  1.76190154E+00  1.77784995E+00  1.80261219E+00
  1.81194142E+00  1.85512911E+00  1.89072907E+00  1.91706633E+00  1.92006918E+00
  1.95654381E+00  2.00041181E+00  2.00402413E+00  2.05651990E+00  2.10150510E+00
  2.11909286E+00  2.13228038E+00  2.18962195E+00  2.25511997E+00  2.29310765E+00
  2.30711597E+00  2.34591064E+00  2.36800554E+00  2.41086899E+00  2.43882732E+00
  2.44477896E+00  2.46615886E+00  2.49392051E+00  2.52829855E+00  2.53436071E+00
  2.57337831E+00  2.58204760E+00  2.63972530E+00  2.64973935E+00  2.66149012E+00
  2.67816597E+00  2.68557251E+00  2.73729738E+00  2.76580308E+00  2.80421633E+00
  2.82035085E+00  2.83328853E+00  2.85393999E+00  2.89826154E+00  2.91937745E+00
  2.99375141E+00  3.02418225E+00  3.06166493E+00  3.14344105E+00  3.16712672E+00
  3.31188348E+00  3.32950993E+00  3.38430167E+00  3.41500358E+00  3.47576838E+00
  3.57997847E+00  3.60290150E+00  3.77489283E+00  3.81121429E+00  3.84004514E+00
  4.01351985E+00  4.03648179E+00  4.19524857E+00  4.31635394E+00  4.56123218E+00
  4.86429247E+00  4.93279875E+00  5.51217378E+00  2.35760689E+01  2.37465114E+01
  2.37556520E+01  2.38205264E+01  2.39212943E+01  2.42025158E+01  2.42499228E+01
  4.98886382E+01
Beta Orbital Energies                      R   N=         186
 -1.91575134E+01 -1.02564976E+01 -1.02115796E+01 -1.01889146E+01 -1.01823604E+01
 -1.01808180E+01 -1.01763575E+01 -1.01734572E+01 -1.08363731E+00 -8.78269202E-01
 -7.68445692E-01 -7.27430711E-01 -6.83698255E-01 -5.84002182E-01 -5.40188995E-01
 -5.27749160E-01 -5.04598308E-01 -4.66198262E-01 -4.38522260E-01 -4.26001884E-01
 -4.18922765E-01 -4.07287786E-01 -3.95812348E-01 -3.77814633E-01 -3.64795716E-01
 -3.53354274E-01 -3.10434416E-01 -2.33739374E-01 -7.12033700E-02 -3.18627994E-02
 -8.01454030E-03  4.61368462E-02  5.21451086E-02  6.78193211E-02  8.02097979E-02
  8.86988342E-02  1.06147123E-01  1.24367471E-01  1.28263479E-01  1.74612222E-01
  1.98812277E-01  2.11853323E-01  2.52309666E-01  2.68106251E-01  2.74818393E-01
  3.02940358E-01  3.06354427E-01  3.33127388E-01  3.72863058E-01  3.74015407E-01