 Generated by Multiwfn (http://sobereva.com/multiwfn)
GAUSSIAN             29 MOL ORBITALS    252 PRIMITIVES       15 NUCLEI
  C    1    (CENTRE  1)  -2.50050467 -0.40841476  0.06081540  CHARGE =  6.0
  C    2    (CENTRE  2)  -0.32084745 -1.35483717  0.97670140  CHARGE =  6.0
  C    3    (CENTRE  3)   4.14011585  0.11126648 -0.34046039  CHARGE =  6.0
  C    4    (CENTRE  4)   1.64474015  0.70061386  1.04882280  CHARGE =  6.0
  C    5    (CENTRE  5)   0.27114014  2.97019404 -0.00273798  CHARGE =  6.0
  C    6    (CENTRE  6)  -2.11343733  2.29227216 -0.53718088  CHARGE =  6.0
  H    7    (CENTRE  7)   0.04616731 -3.28020359  1.55032965  CHARGE =  1.0
  O    8    (CENTRE  8)   4.98600798 -1.88198652 -0.85560918  CHARGE =  8.0
  H    9    (CENTRE  9)   1.13975870  4.80159552 -0.24820774  CHARGE =  1.0
  H   10    (CENTRE 10)  -3.56824091  3.51480612 -1.29804886  CHARGE =  1.0
  H   11    (CENTRE 11)   2.27674588  1.08635978  2.99432797  CHARGE =  1.0
  C   12    (CENTRE 12)  -4.95032503 -1.76662859 -0.33925096  CHARGE =  6.0
  H   13    (CENTRE 13)  -6.46845528 -0.90672549  0.77411520  CHARGE =  1.0
  H   14    (CENTRE 14)  -5.53230964 -1.67367665 -2.32350686  CHARGE =  1.0
  H   15    (CENTRE 15)  -4.80701984 -3.75305958  0.19560767  CHARGE =  1.0
CENTRE ASSIGNMENTS    1  1  1  1  1  1  1  1  1  1  1  1  1  1  1  1  1  1  1  1
CENTRE ASSIGNMENTS    1  1  1  1  1  1  1  1  2  2  2  2  2  2  2  2  2  2  2  2
CENTRE ASSIGNMENTS    2  2  2  2  2  2  2  2  2  2  2  2  2  2  2  2  3  3  3  3
CENTRE ASSIGNMENTS    3  3  3  3  3  3  3  3  3  3  3  3  3  3  3  3  3  3  3  3
CENTRE ASSIGNMENTS    3  3  3  3  4  4  4  4  4  4  4  4  4  4  4  4  4  4  4  4
CENTRE ASSIGNMENTS    4  4  4  4  4  4  4  4  4  4  4  4  5  5  5  5  5  5  5  5
CENTRE ASSIGNMENTS    5  5  5  5  5  5  5  5  5  5  5  5  5  5  5  5  5  5  5  5
CENTRE ASSIGNMENTS    6  6  6  6  6  6  6  6  6  6  6  6  6  6  6  6  6  6  6  6
CENTRE ASSIGNMENTS    6  6  6  6  6  6  6  6  7  7  7  7  8  8  8  8  8  8  8  8
CENTRE ASSIGNMENTS    8  8  8  8  8  8  8  8  8  8  8  8  8  8  8  8  8  8  8  8
CENTRE ASSIGNMENTS    9  9  9  9 10 10 10 10 11 11 11 11 12 12 12 12 12 12 12 12
CENTRE ASSIGNMENTS   12 12 12 12 12 12 12 12 12 12 12 12 12 12 12 12 12 12 12 12
CENTRE ASSIGNMENTS   13 13 13 13 14 14 14 14 15 15 15 15
TYPE ASSIGNMENTS      1  1  1  1  1  1  1  1  1  2  2  2  3  3  3  4  4  4  1  2
TYPE ASSIGNMENTS      3  4  5  6  7  8  9 10  1  1  1  1  1  1  1  1  1  2  2  2
TYPE ASSIGNMENTS      3  3  3  4  4  4  1  2  3  4  5  6  7  8  9 10  1  1  1  1
TYPE ASSIGNMENTS      1  1  1  1  1  2  2  2  3  3  3  4  4  4  1  2  3  4  5  6
TYPE ASSIGNMENTS      7  8  9 10  1  1  1  1  1  1  1  1  1  2  2  2  3  3  3  4
TYPE ASSIGNMENTS      4  4  1  2  3  4  5  6  7  8  9 10  1  1  1  1  1  1  1  1
TYPE ASSIGNMENTS      1  2  2  2  3  3  3  4  4  4  1  2  3  4  5  6  7  8  9 10
TYPE ASSIGNMENTS      1  1  1  1  1  1  1  1  1  2  2  2  3  3  3  4  4  4  1  2
TYPE ASSIGNMENTS      3  4  5  6  7  8  9 10  1  1  1  1  1  1  1  1  1  1  1  1
TYPE ASSIGNMENTS      1  2  2  2  3  3  3  4  4  4  1  2  3  4  5  6  7  8  9 10
TYPE ASSIGNMENTS      1  1  1  1  1  1  1  1  1  1  1  1  1  1  1  1  1  1  1  1
TYPE ASSIGNMENTS      1  2  2  2  3  3  3  4  4  4  1  2  3  4  5  6  7  8  9 10
TYPE ASSIGNMENTS      1  1  1  1  1  1  1  1  1  1  1  1
EXPONENTS  0.3047525D+04 0.4573695D+03 0.1039487D+03 0.2921016D+02 0.9286663D+01
EXPONENTS  0.3163927D+01 0.7868272D+01 0.1881289D+01 0.5442493D+00 0.7868272D+01
EXPONENTS  0.1881289D+01 0.5442493D+00 0.7868272D+01 0.1881289D+01 0.5442493D+00
EXPONENTS  0.7868272D+01 0.1881289D+01 0.5442493D+00 0.1687145D+00 0.1687145D+00
EXPONENTS  0.1687145D+00 0.1687145D+00 0.8000000D+00 0.8000000D+00 0.8000000D+00
EXPONENTS  0.8000000D+00 0.8000000D+00 0.8000000D+00 0.3047525D+04 0.4573695D+03
EXPONENTS  0.1039487D+03 0.2921016D+02 0.9286663D+01 0.3163927D+01 0.7868272D+01
EXPONENTS  0.1881289D+01 0.5442493D+00 0.7868272D+01 0.1881289D+01 0.5442493D+00
EXPONENTS  0.7868272D+01 0.1881289D+01 0.5442493D+00 0.7868272D+01 0.1881289D+01
EXPONENTS  0.5442493D+00 0.1687145D+00 0.1687145D+00 0.1687145D+00 0.1687145D+00
EXPONENTS  0.8000000D+00 0.8000000D+00 0.8000000D+00 0.8000000D+00 0.8000000D+00
EXPONENTS  0.8000000D+00 0.3047525D+04 0.4573695D+03 0.1039487D+03 0.2921016D+02
EXPONENTS  0.9286663D+01 0.3163927D+01 0.7868272D+01 0.1881289D+01 0.5442493D+00
EXPONENTS  0.7868272D+01 0.1881289D+01 0.5442493D+00 0.7868272D+01 0.1881289D+01
EXPONENTS  0.5442493D+00 0.7868272D+01 0.1881289D+01 0.5442493D+00 0.1687145D+00
EXPONENTS  0.1687145D+00 0.1687145D+00 0.1687145D+00 0.8000000D+00 0.8000000D+00
EXPONENTS  0.8000000D+00 0.8000000D+00 0.8000000D+00 0.8000000D+00 0.3047525D+04
EXPONENTS  0.4573695D+03 0.1039487D+03 0.2921016D+02 0.9286663D+01 0.3163927D+01
EXPONENTS  0.7868272D+01 0.1881289D+01 0.5442493D+00 0.7868272D+01 0.1881289D+01
EXPONENTS  0.5442493D+00 0.7868272D+01 0.1881289D+01 0.5442493D+00 0.7868272D+01
EXPONENTS  0.1881289D+01 0.5442493D+00 0.1687145D+00 0.1687145D+00 0.1687145D+00
EXPONENTS  0.1687145D+00 0.8000000D+00 0.8000000D+00 0.8000000D+00 0.8000000D+00
EXPONENTS  0.8000000D+00 0.8000000D+00 0.3047525D+04 0.4573695D+03 0.1039487D+03
EXPONENTS  0.2921016D+02 0.9286663D+01 0.3163927D+01 0.7868272D+01 0.1881289D+01
EXPONENTS  0.5442493D+00 0.7868272D+01 0.1881289D+01 0.5442493D+00 0.7868272D+01
EXPONENTS  0.1881289D+01 0.5442493D+00 0.7868272D+01 0.1881289D+01 0.5442493D+00
EXPONENTS  0.1687145D+00 0.1687145D+00 0.1687145D+00 0.1687145D+00 0.8000000D+00
EXPONENTS  0.8000000D+00 0.8000000D+00 0.8000000D+00 0.8000000D+00 0.8000000D+00
EXPONENTS  0.3047525D+04 0.4573695D+03 0.1039487D+03 0.2921016D+02 0.9286663D+01
EXPONENTS  0.3163927D+01 0.7868272D+01 0.1881289D+01 0.5442493D+00 0.7868272D+01
EXPONENTS  0.1881289D+01 0.5442493D+00 0.7868272D+01 0.1881289D+01 0.5442493D+00
EXPONENTS  0.7868272D+01 0.1881289D+01 0.5442493D+00 0.1687145D+00 0.1687145D+00
EXPONENTS  0.1687145D+00 0.1687145D+00 0.8000000D+00 0.8000000D+00 0.8000000D+00
EXPONENTS  0.8000000D+00 0.8000000D+00 0.8000000D+00 0.1873114D+02 0.2825394D+01
EXPONENTS  0.6401217D+00 0.1612778D+00 0.5484672D+04 0.8252349D+03 0.1880470D+03
EXPONENTS  0.5296450D+02 0.1689757D+02 0.5799635D+01 0.1553962D+02 0.3599934D+01
EXPONENTS  0.1013762D+01 0.1553962D+02 0.3599934D+01 0.1013762D+01 0.1553962D+02
EXPONENTS  0.3599934D+01 0.1013762D+01 0.1553962D+02 0.3599934D+01 0.1013762D+01
EXPONENTS  0.2700058D+00 0.2700058D+00 0.2700058D+00 0.2700058D+00 0.8000000D+00
EXPONENTS  0.8000000D+00 0.8000000D+00 0.8000000D+00 0.8000000D+00 0.8000000D+00
EXPONENTS  0.1873114D+02 0.2825394D+01 0.6401217D+00 0.1612778D+00 0.1873114D+02
EXPONENTS  0.2825394D+01 0.6401217D+00 0.1612778D+00 0.1873114D+02 0.2825394D+01
EXPONENTS  0.6401217D+00 0.1612778D+00 0.3047525D+04 0.4573695D+03 0.1039487D+03
EXPONENTS  0.2921016D+02 0.9286663D+01 0.3163927D+01 0.7868272D+01 0.1881289D+01
EXPONENTS  0.5442493D+00 0.7868272D+01 0.1881289D+01 0.5442493D+00 0.7868272D+01
EXPONENTS  0.1881289D+01 0.5442493D+00 0.7868272D+01 0.1881289D+01 0.5442493D+00
EXPONENTS  0.1687145D+00 0.1687145D+00 0.1687145D+00 0.1687145D+00 0.8000000D+00
EXPONENTS  0.8000000D+00 0.8000000D+00 0.8000000D+00 0.8000000D+00 0.8000000D+00
EXPONENTS  0.1873114D+02 0.2825394D+01 0.6401217D+00 0.1612778D+00 0.1873114D+02
EXPONENTS  0.2825394D+01 0.6401217D+00 0.1612778D+00 0.1873114D+02 0.2825394D+01
EXPONENTS  0.6401217D+00 0.1612778D+00
MO    1     MO 0.0        OCC NO =    2.0000000  ORB. ENERGY =  -18.920596
 -0.17335109D-05 -0.31979892D-05 -0.51625461D-05 -0.67201011D-05 -0.57342744D-05
 -0.19799072D-05  0.51238583D-05  0.23615816D-05 -0.66221214D-05 -0.33083274D-04
 -0.25366156D-04 -0.12659490D-04 -0.64827048D-05 -0.49705268D-05 -0.24806412D-05
  0.32260116D-06  0.24735011D-06  0.12344504D-06  0.50379166D-04  0.41924043D-04
  0.71210913D-04 -0.50987115D-05 -0.17755326D-04  0.59949125D-05 -0.10154271D-04
  0.20096661D-04 -0.15094283D-04  0.11872599D-04  0.54187004D-05  0.99964442D-05
  0.16137361D-04  0.21006049D-04  0.17924499D-04  0.61888989D-05 -0.95440307D-05
 -0.43988350D-05  0.12334793D-04  0.45091704D-04  0.34573458D-04  0.17254579D-04
 -0.22639623D-04 -0.17358627D-04 -0.86631714D-05 -0.67122657D-05 -0.51465396D-05
 -0.25684840D-05 -0.12821959D-03 -0.66211114D-04 -0.68451381D-04 -0.45090041D-05
  0.55341943D-04 -0.25015673D-04  0.40656989D-04 -0.81755896D-04 -0.20063551D-04
  0.39301521D-05  0.13343536D-04  0.24616218D-04  0.39738208D-04  0.51727340D-04
  0.44139033D-04  0.15240147D-04 -0.16812914D-03 -0.77490566D-04  0.21729163D-03
 -0.70933096D-04 -0.54386999D-04 -0.27142924D-04  0.22985651D-03  0.17623939D-03
  0.87955807D-04  0.62339823D-04  0.47798222D-04  0.23854663D-04 -0.72197767D-03
 -0.18492589D-03  0.43384436D-03  0.10903830D-03 -0.16184680D-03 -0.88921793D-03
 -0.34820343D-04  0.71497931D-03  0.22360270D-03 -0.43393998D-03 -0.52992059D-05
 -0.97760001D-05 -0.15781495D-04 -0.20542818D-04 -0.17529224D-04 -0.60524197D-05
  0.27558768D-04  0.12701811D-04 -0.35617204D-04  0.51973199D-04  0.39849752D-04
  0.19887819D-04  0.32754395D-04  0.25113992D-04  0.12533642D-04 -0.12804417D-05
 -0.98176149D-06 -0.48996779D-06  0.43392916D-04 -0.57443396D-04 -0.12939771D-03
 -0.38838928D-05  0.41311781D-04 -0.11530561D-05 -0.14333101D-05  0.89114998D-04
 -0.43914556D-04  0.16106875D-05  0.82475677D-06  0.15215152D-05  0.24561973D-05
  0.31972391D-05  0.27282099D-05  0.94198531D-06 -0.29915591D-05 -0.13788069D-05
  0.38663184D-05  0.46780002D-04  0.35867938D-04  0.17900615D-04  0.91496940D-05
  0.70154050D-05  0.35011788D-05 -0.15481669D-05 -0.11870362D-05 -0.59241424D-06
  0.12252586D-03 -0.80783196D-04 -0.38957189D-04  0.18433165D-04  0.20048427D-04
 -0.27371625D-04  0.27513398D-04  0.53574644D-04  0.78404496D-04 -0.20851969D-04
  0.72397616D-05  0.13355946D-04  0.21560639D-04  0.28065545D-04  0.23948381D-04
  0.82688004D-05 -0.30847667D-04 -0.14217662D-04  0.39867808D-04 -0.17892833D-04
 -0.13719089D-04 -0.68467871D-05  0.36602661D-05  0.28064599D-05  0.14006202D-05
  0.11736899D-04  0.89991100D-05  0.44911866D-05 -0.19955871D-03 -0.62954170D-04
  0.33249775D-04 -0.41123221D-04 -0.13314314D-04 -0.19724559D-05  0.25578465D-04
 -0.19453184D-04 -0.38719549D-04  0.99843820D-05  0.89249305D-05  0.15138371D-04
  0.17234501D-04 -0.23880314D-04  0.82565973D+00  0.15196547D+01  0.24590881D+01
  0.32325401D+01  0.27725309D+01  0.94797539D+00 -0.15891817D-01 -0.70908978D-02
  0.20939516D-01 -0.15835774D-02 -0.12200610D-02 -0.53567250D-03  0.29751533D-02
  0.22921953D-02  0.10063972D-02  0.92468734D-03  0.71242175D-03  0.31279152D-03
  0.38905000D-02 -0.18466787D-03  0.48035432D-03  0.11667117D-03 -0.90797884D-02
 -0.85741347D-02 -0.91567108D-02 -0.50396572D-03 -0.14089716D-03  0.31655225D-03
  0.14025307D-04  0.23789574D-04  0.27083590D-04  0.13211153D-04  0.16892270D-07
  0.28652487D-07  0.32619844D-07 -0.22704847D-04 -0.31268280D-05 -0.53036920D-05
 -0.60380659D-05  0.25806355D-04  0.97204228D-06  0.17932282D-05  0.28948263D-05
  0.37682037D-05  0.32154151D-05  0.11102056D-05 -0.38009150D-06 -0.17518382D-06
  0.49123373D-06  0.21215993D-04  0.16267078D-04  0.81184119D-05  0.12478265D-04
  0.95675418D-05  0.47748739D-05  0.95875737D-06  0.73511434D-06  0.36687358D-06
  0.36530628D-04  0.11421470D-04 -0.59823895D-05  0.58956389D-05  0.12558696D-04
  0.20848981D-05  0.74463467D-05 -0.81295949D-05  0.38769884D-05  0.32294393D-05
 -0.89228445D-06 -0.15134833D-05 -0.17230472D-05  0.21796176D-05  0.41757273D-06
  0.70828239D-06  0.80635446D-06  0.10241438D-05 -0.45607950D-06 -0.77359715D-06
 -0.88071302D-06 -0.10473355D-04
MO    2     MO 0.0        OCC NO =    2.0000000  ORB. ENERGY =  -10.036353
  0.16719785D-02  0.30844739D-02  0.49792973D-02  0.64815656D-02  0.55307317D-02
  0.19096287D-02  0.13492825D-04  0.62188307D-05 -0.17438250D-04  0.32448451D-03
  0.24879414D-03  0.12416571D-03  0.25271518D-03  0.19376597D-03  0.96702800D-04
  0.29935998D-04  0.22953025D-04  0.11455168D-04  0.76198533D-03 -0.56495291D-03
 -0.37339124D-03 -0.75163752D-04 -0.38303576D-03 -0.26108371D-03 -0.18092188D-03
 -0.20898280D-03 -0.71642686D-04 -0.15879454D-04 -0.18973479D-04 -0.35002363D-04
 -0.56504668D-04 -0.73552288D-04 -0.62762301D-04 -0.21670314D-04  0.37087814D-04
  0.17093740D-04 -0.47932630D-04  0.46757313D-04  0.35850542D-04  0.17891933D-04
  0.94522886D-04  0.72474153D-04  0.36169682D-04 -0.77401545D-05 -0.59346596D-05
 -0.29618111D-05  0.15202547D-03 -0.12543038D-04  0.10484719D-03 -0.30025694D-04
 -0.33340514D-04  0.44688199D-04 -0.50070914D-04 -0.14209741D-03  0.61878598D-04
 -0.10024530D-03 -0.29264836D-06 -0.53987907D-06 -0.87153222D-06 -0.11344760D-05
 -0.96805042D-06 -0.33424455D-06 -0.44772376D-05 -0.20635547D-05  0.57864228D-05
 -0.40806236D-05 -0.31287634D-05 -0.15614722D-05  0.61295457D-05  0.46997469D-05
  0.23455031D-05 -0.64571963D-05 -0.49509686D-05 -0.24708803D-05 -0.40571858D-04
  0.11659676D-04  0.12231813D-04  0.13975302D-05 -0.46719484D-05 -0.40270552D-05
  0.88276307D-05 -0.44833984D-05  0.26696690D-06 -0.85415409D-05 -0.17522062D-04
 -0.32324784D-04 -0.52182224D-04 -0.67925750D-04 -0.57961166D-04 -0.20012598D-04
  0.42510538D-04  0.19593068D-04 -0.54941009D-04  0.10160802D-04  0.77906582D-05
  0.38880845D-05 -0.59023668D-05 -0.45255605D-05 -0.22585718D-05  0.10065637D-04
  0.77176923D-05  0.38516694D-05  0.25598962D-04  0.84499823D-05  0.42882042D-05
 -0.10669298D-04  0.13277701D-05 -0.30852235D-04 -0.50619227D-04  0.20609581D-04
  0.18036493D-04  0.15620395D-05 -0.18432248D-04 -0.34003899D-04 -0.54892836D-04
 -0.71454162D-04 -0.60971966D-04 -0.21052155D-04  0.52888327D-04  0.24376182D-04
 -0.68353358D-04 -0.14449197D-04 -0.11078728D-04 -0.55290616D-05  0.14345371D-04
  0.10999120D-04  0.54893319D-05 -0.69747930D-05 -0.53478289D-05 -0.26689414D-05
  0.15737427D-03 -0.90802037D-04 -0.53448342D-04 -0.10733665D-04  0.24310245D-04
 -0.11540513D-04 -0.58854749D-04  0.63871316D-04  0.41967820D-04 -0.17498062D-04
 -0.15202142D-04 -0.28044983D-04 -0.45273299D-04 -0.58932383D-04 -0.50287110D-04
 -0.17362930D-04  0.22353728D-04  0.10302813D-04 -0.28890163D-04  0.10327785D-03
  0.79186908D-04  0.39519817D-04  0.10767621D-04  0.82559289D-05  0.41202872D-05
  0.27863122D-04  0.21363675D-04  0.10661971D-04  0.19347819D-04 -0.54218281D-04
 -0.10281113D-03  0.11331101D-04 -0.59739747D-04  0.86995961D-04 -0.25362397D-04
 -0.11514240D-03  0.22216863D-04 -0.10618479D-03  0.41822384D-05  0.70938679D-05
  0.80761179D-05  0.24225343D-04 -0.56852903D-05 -0.10463969D-04 -0.16932677D-04
 -0.22258478D-04 -0.19090967D-04 -0.65275260D-05  0.17978364D-04  0.80219109D-05
 -0.23688810D-04  0.15448541D-04  0.11902268D-04  0.52257368D-05  0.13048224D-05
  0.10052953D-05  0.44137880D-06 -0.15143871D-05 -0.11667536D-05 -0.51226768D-06
  0.47632501D-04 -0.14179147D-04  0.97822639D-05  0.34782525D-05 -0.19141637D-04
 -0.20793065D-04 -0.22185245D-04 -0.15017450D-04 -0.31059088D-05  0.12013577D-05
  0.20145819D-06  0.34171122D-06  0.38902615D-06  0.35854502D-04 -0.10084856D-04
 -0.17105825D-04 -0.19474377D-04  0.20433792D-04 -0.13360116D-05 -0.22661286D-05
 -0.25799073D-05 -0.39433094D-05  0.53255473D+00  0.98245950D+00  0.15859943D+01
  0.20644933D+01  0.17616359D+01  0.60825053D+00 -0.20039628D-01 -0.92362462D-02
  0.25899399D-01 -0.28698908D-03 -0.22004503D-03 -0.10981789D-03 -0.82148446D-04
 -0.62986218D-04 -0.31434537D-04 -0.35311764D-04 -0.27074821D-04 -0.13512233D-04
 -0.35572404D-02 -0.20768871D-03 -0.12705014D-03 -0.33784753D-04 -0.10267556D-01
 -0.10136669D-01 -0.10131343D-01 -0.13057286D-03 -0.52293315D-04 -0.33241448D-04
 -0.96694410D-08 -0.16401202D-07 -0.18672189D-07  0.51111471D-03  0.14083846D-05
  0.23888869D-05  0.27196633D-05  0.50762255D-03 -0.53551594D-05 -0.90833639D-05
 -0.10341089D-04  0.50359625D-03
MO    3     MO 0.0        OCC NO =    2.0000000  ORB. ENERGY =   -9.996303
  0.14697635D+00  0.27114267D+00  0.43770834D+00  0.56976620D+00  0.48618253D+00
  0.16786714D+00 -0.53315207D-02 -0.24572930D-02  0.68905061D-02 -0.15003432D-03
 -0.11503680D-03 -0.57411425D-04 -0.32414156D-03 -0.24853119D-03 -0.12403448D-03
  0.15435174D-04  0.11834712D-04  0.59063509D-05  0.14660853D-03  0.16927272D-03
  0.45576122D-03 -0.63797524D-04 -0.30232654D-02 -0.33071630D-02 -0.30860139D-02
 -0.32605803D-04  0.47158706D-04  0.10973101D-03  0.34249851D-02  0.63184288D-02
  0.10199903D-01  0.13277243D-01  0.11329496D-01  0.39118026D-02 -0.15288225D-04
 -0.70463287D-05  0.19758641D-04  0.16744308D-03  0.12838473D-03  0.64072979D-04
 -0.46517160D-04 -0.35666408D-04 -0.17800037D-04  0.67869333D-04  0.52037900D-04
  0.25970559D-04  0.16311527D-03 -0.93682002D-04 -0.33416567D-04 -0.26324515D-04
 -0.78060151D-04 -0.10143338D-03 -0.14514010D-03  0.17378406D-05  0.40089329D-04
 -0.34485621D-04 -0.43921517D-04 -0.81026623D-04 -0.13080209D-03 -0.17026546D-03
 -0.14528783D-03 -0.50164395D-04  0.10985130D-04  0.50630364D-05 -0.14197283D-04
 -0.42176342D-05 -0.32338144D-05 -0.16139000D-05  0.26093721D-05  0.20007010D-05
  0.99849003D-06  0.44420821D-05  0.34059068D-05  0.16997862D-05 -0.89711020D-05
 -0.27860351D-04  0.40343985D-04  0.81164367D-05 -0.28000499D-05 -0.11717540D-04
 -0.23759438D-04  0.17133616D-04 -0.12443822D-04  0.14846299D-04  0.53390789D-03
  0.98495581D-03  0.15900241D-02  0.20697389D-02  0.17661120D-02  0.60979602D-03
  0.24159084D-05  0.11134900D-05 -0.31223421D-05  0.33264310D-05  0.25504963D-05
  0.12728764D-05 -0.71081744D-04 -0.54500973D-04 -0.27199805D-04  0.18373776D-04
  0.14087846D-04  0.70308224D-05 -0.17867320D-03  0.40610702D-04 -0.55313963D-04
  0.40165522D-04  0.64450014D-04  0.22410828D-04  0.39561953D-05  0.50207033D-06
  0.52470280D-04  0.11442038D-05  0.23582114D-01  0.43504396D-01  0.70229584D-01
  0.91418052D-01  0.78007189D-01  0.26934008D-01 -0.63692414D-03 -0.29355776D-03
  0.82316659D-03  0.36910956D-03  0.28300980D-03  0.14124172D-03  0.17660252D-03
  0.13540761D-03  0.67577889D-04  0.60633409D-04  0.46489852D-04  0.23201694D-04
  0.11208747D-02 -0.35654019D-03 -0.28219349D-03 -0.27172398D-04 -0.74041156D-03
 -0.70582407D-03 -0.65506418D-03  0.76466839D-05 -0.60802776D-04  0.36173670D-04
  0.51118384D+00  0.94303437D+00  0.15223499D+01  0.19816472D+01  0.16909431D+01
  0.58384203D+00 -0.19021819D-01 -0.87671388D-02  0.24583972D-01  0.42784261D-04
  0.32804257D-04  0.16371624D-04  0.49366940D-04  0.37851439D-04  0.18890521D-04
 -0.33264891D-04 -0.25505409D-04 -0.12728987D-04 -0.28943371D-02 -0.37805068D-03
  0.26634563D-03 -0.18550740D-03 -0.98654048D-02 -0.10220821D-01 -0.10214483D-01
 -0.86387058D-04  0.25322713D-03 -0.41594651D-04 -0.12310457D-04 -0.20880866D-04
 -0.23772128D-04 -0.94676510D-05 -0.13535216D-04 -0.24912022D-04 -0.40312355D-04
 -0.52991719D-04 -0.45450689D-04 -0.15540363D-04  0.43851158D-04  0.19566301D-04
 -0.57779550D-04  0.18186615D-05  0.14011806D-05  0.61519376D-06 -0.20664995D-04
 -0.15921264D-04 -0.69902926D-05 -0.44308876D-05 -0.34137600D-05 -0.14988245D-05
  0.11426827D-03 -0.76456899D-05  0.29295023D-04  0.83259993D-05 -0.52840129D-04
 -0.40228017D-04 -0.55805090D-04 -0.36804512D-05 -0.30580324D-05  0.11416244D-04
 -0.73710365D-05 -0.12502673D-04 -0.14233851D-04  0.92235861D-04 -0.11228832D-03
 -0.19046224D-03 -0.21683452D-03  0.21897408D-03 -0.23323999D-05 -0.39561917D-05
 -0.45039844D-05  0.89510704D-05 -0.48464706D-03 -0.89407919D-03 -0.14433210D-02
 -0.18787751D-02 -0.16031622D-02 -0.55353339D-03  0.58570409D-04  0.26995048D-04
 -0.75696933D-04 -0.13308638D-03 -0.10204219D-03 -0.50926206D-04 -0.92840380D-04
 -0.71184115D-04 -0.35525862D-04 -0.16466868D-04 -0.12625750D-04 -0.63011340D-05
  0.23425888D-03  0.13032504D-03  0.64511843D-05  0.37538419D-04 -0.53522763D-04
 -0.61727935D-04 -0.38026886D-04 -0.14378732D-03  0.34482041D-04 -0.39493891D-04
 -0.12006103D-04 -0.20364624D-04 -0.23184405D-04  0.39853323D-04 -0.12766699D-04
 -0.21654738D-04 -0.24653154D-04  0.41220464D-04 -0.10167254D-04 -0.17245588D-04
 -0.19633492D-04 -0.55631624D-05
MO    4     MO 0.0        OCC NO =    2.0000000  ORB. ENERGY =   -9.995729
  0.51163348D+00  0.94386388D+00  0.15236890D+01  0.19833903D+01  0.16924305D+01
  0.58435559D+00 -0.19054647D-01 -0.87822694D-02  0.24626400D-01 -0.13608173D-03
 -0.10433884D-03 -0.52072394D-04  0.33346502D-04  0.25567982D-04  0.12760215D-04
 -0.13335412D-03 -0.10224748D-03 -0.51028657D-04 -0.33948978D-02 -0.24182428D-03
 -0.15018157D-03 -0.27162697D-04 -0.95377951D-02 -0.97803356D-02 -0.99779048D-02
  0.72287244D-04  0.28675073D-03 -0.12702048D-03  0.12677582D-01  0.23387663D-01
  0.37754940D-01  0.49145714D-01  0.41936127D-01  0.14479537D-01 -0.26994987D-03
 -0.12441965D-03  0.34888569D-03  0.32344734D-03  0.24799891D-03  0.12376884D-03
 -0.23797639D-03 -0.18246520D-03 -0.91062923D-04  0.14690729D-03  0.11263919D-03
  0.56214852D-04  0.10727291D-02 -0.30539596D-03  0.20553629D-03 -0.14603598D-03
 -0.55602099D-03 -0.56459608D-03 -0.42979322D-03  0.79519392D-04 -0.11986314D-03
  0.11192773D-03 -0.32669352D-04 -0.60268575D-04 -0.97292167D-04 -0.12664549D-03
 -0.10806683D-03 -0.37312879D-04  0.51950837D-06  0.23944093D-06 -0.67141737D-06
  0.19272604D-04  0.14777010D-04  0.73747637D-05 -0.72329728D-06 -0.55457848D-06
 -0.27677353D-06 -0.10603992D-04 -0.81304684D-05 -0.40576736D-05  0.28721905D-04
  0.12828509D-05 -0.27362007D-04 -0.89089285D-05 -0.16488459D-05  0.90681561D-05
 -0.96796623D-05 -0.19211935D-04 -0.10919501D-04 -0.12177323D-04 -0.51338896D-04
 -0.94710239D-04 -0.15289169D-03 -0.19901955D-03 -0.16982375D-03 -0.58636059D-04
  0.16495769D-04  0.76028851D-05 -0.21319283D-04 -0.87732255D-05 -0.67267529D-05
 -0.33571211D-05  0.97938752D-04  0.75093223D-04  0.37476781D-04 -0.30513072D-04
 -0.23395488D-04 -0.11675988D-04 -0.26307124D-04  0.30174993D-04  0.21248080D-04
  0.84822103D-05  0.49477291D-04  0.21268385D-04  0.15884935D-04  0.34191282D-04
  0.19593695D-04 -0.64324126D-05 -0.74242206D-02 -0.13696237D-01 -0.22109974D-01
 -0.28780616D-01 -0.24558552D-01 -0.84794778D-02  0.23711752D-03  0.10928725D-03
 -0.30645285D-03 -0.62188645D-04 -0.47682309D-04 -0.23796814D-04 -0.98796388D-04
 -0.75750804D-04 -0.37804960D-04  0.11515303D-04  0.88292038D-05  0.44063915D-05
 -0.44837348D-03  0.14507727D-03  0.14217982D-03  0.14166003D-05  0.30690405D-03
  0.28349316D-03  0.19761854D-03  0.48745761D-04  0.54718891D-04 -0.28674466D-04
 -0.14698189D+00 -0.27115288D+00 -0.43772483D+00 -0.56978767D+00 -0.48620085D+00
 -0.16787347D+00  0.55816228D-02  0.25725649D-02 -0.72137404D-02 -0.28707546D-04
 -0.22011126D-04 -0.10985094D-04  0.32256473D-03  0.24732218D-03  0.12343110D-03
 -0.82749153D-04 -0.63446802D-04 -0.31664401D-04  0.17626563D-02  0.13719406D-03
 -0.38286133D-03  0.14198848D-03  0.25838815D-02  0.23640174D-02  0.27322330D-02
 -0.47608409D-04 -0.10224130D-03  0.19996459D-03 -0.13020377D-04 -0.22085025D-04
 -0.25143020D-04  0.26036067D-04  0.69871863D-05  0.12860153D-04  0.20810155D-04
  0.27355531D-04  0.23462680D-04  0.80222887D-05 -0.21884356D-04 -0.97647570D-05
  0.28835458D-04 -0.11868447D-04 -0.91439989D-05 -0.40147080D-05  0.17559900D-04
  0.13528956D-04  0.59399404D-05 -0.39030934D-04 -0.30071230D-04 -0.13202890D-04
 -0.69065358D-04  0.99757784D-05 -0.24050049D-04  0.59243889D-05  0.29104116D-04
  0.14134121D-04  0.29656475D-04  0.20156427D-04 -0.15398927D-04 -0.85284870D-05
 -0.52881771D-05 -0.89697492D-05 -0.10211742D-04 -0.38573225D-04  0.18844011D-04
  0.31963009D-04  0.36388756D-04 -0.57699374D-04 -0.34734349D-05 -0.58916029D-05
 -0.67073817D-05 -0.37304400D-06 -0.17238682D-02 -0.31802003D-02 -0.51338293D-02
 -0.66827203D-02 -0.57023773D-02 -0.19688939D-02  0.10413980D-03  0.47997938D-04
 -0.13459123D-03 -0.42225734D-03 -0.32376015D-03 -0.16157900D-03 -0.12742042D-03
 -0.97697899D-04 -0.48758099D-04 -0.91645302D-04 -0.70267804D-04 -0.35068559D-04
  0.51916892D-03  0.22850794D-03  0.52403462D-04  0.51709745D-04 -0.47107873D-03
 -0.22731318D-03 -0.36510467D-04 -0.45439517D-03 -0.16222459D-03 -0.29382042D-04
 -0.30600047D-04 -0.51903472D-04 -0.59090268D-04  0.70086243D-04 -0.30624792D-04
 -0.51945443D-04 -0.59138051D-04  0.65149760D-04 -0.20258945D-04 -0.34363006D-04
 -0.39121067D-04 -0.59301608D-04
MO    5     MO 0.0        OCC NO =    2.0000000  ORB. ENERGY =   -9.992789
 -0.22908680D-03 -0.42262041D-03 -0.68224038D-03 -0.88807427D-03 -0.75779538D-03
 -0.26164853D-03  0.75431529D-04  0.34766323D-04 -0.97488398D-04 -0.12775219D-03
 -0.97952273D-04 -0.48885049D-04  0.62976239D-04  0.48286186D-04  0.24098191D-04
 -0.29436602D-04 -0.22570119D-04 -0.11264071D-04 -0.11115146D-03  0.57165128D-05
  0.19558187D-04 -0.12722680D-04  0.43540670D-04  0.42270256D-04 -0.60632846D-04
  0.34714982D-04  0.55139259D-04 -0.67824096D-04  0.54329651D-02  0.10022760D-01
  0.16179842D-01  0.21061347D-01  0.17971685D-01  0.62051911D-02 -0.65056746D-04
 -0.29984595D-04  0.84079933D-04  0.19690746D-05  0.15097615D-05  0.75347682D-06
 -0.10323932D-03 -0.79157363D-04 -0.39505072D-04 -0.13610755D-04 -0.10435863D-04
 -0.52082273D-05  0.12085831D-02  0.29901299D-03  0.42490784D-03 -0.45216498D-04
 -0.31573466D-03 -0.41022981D-03 -0.28010056D-03 -0.21304360D-03 -0.67972597D-05
 -0.13132438D-03  0.16032499D-01  0.29576830D-01  0.47746175D-01  0.62151333D-01
  0.53033845D-01  0.18311312D-01 -0.47466121D-03 -0.21877092D-03  0.61345649D-03
 -0.38180192D-04 -0.29274150D-04 -0.14609852D-04 -0.14849172D-03 -0.11385403D-03
 -0.56821141D-04 -0.13635275D-04 -0.10454664D-04 -0.52176100D-05  0.10308138D-02
 -0.43484506D-03  0.13411958D-04  0.15028317D-03 -0.59769589D-03 -0.34814630D-03
 -0.65588143D-03  0.14357510D-03  0.26723857D-03 -0.22326406D-04  0.53226141D+00
  0.98191836D+00  0.15851207D+01  0.20633562D+01  0.17606656D+01  0.60791550D+00
 -0.20357330D-01 -0.93826750D-02  0.26310000D-01 -0.13266964D-03 -0.10172267D-03
 -0.50766740D-04  0.21939093D-03  0.16821505D-03  0.83951098D-04  0.67232886D-04
  0.51549912D-04  0.25727019D-04 -0.47640543D-02  0.20760772D-03  0.33156555D-04
  0.29919536D-03 -0.98366143D-02 -0.98109646D-02 -0.96353075D-02  0.19576590D-04
  0.92528873D-04  0.65941818D-04  0.12648720D-01  0.23334418D-01  0.37668986D-01
  0.49033827D-01  0.41840654D-01  0.14446572D-01 -0.35784901D-03 -0.16493228D-03
  0.46248733D-03  0.39137440D-04  0.30008106D-04  0.14976148D-04  0.77776966D-04
  0.59634444D-04  0.29761767D-04 -0.63138935D-04 -0.48410931D-04 -0.24160447D-04
  0.11364087D-02  0.18151063D-03 -0.47111705D-03  0.15881029D-03 -0.40790987D-03
 -0.54529379D-03 -0.49504643D-03  0.21046476D-03 -0.78476163D-04  0.26128363D-03
 -0.11319927D-02 -0.20883055D-02 -0.33711725D-02 -0.43882649D-02 -0.37445144D-02
 -0.12928908D-02  0.11510869D-03  0.53053491D-04 -0.14876753D-03 -0.15476039D-03
 -0.11866045D-03 -0.59219880D-04 -0.71148007D-04 -0.54551779D-04 -0.27225161D-04
 -0.69582570D-05 -0.53351502D-05 -0.26626138D-05 -0.10094249D-03 -0.24183182D-04
  0.83319525D-04 -0.32495346D-04  0.70529577D-04  0.40876278D-04 -0.53572628D-04
 -0.36080751D-04  0.77061132D-04 -0.52553767D-04 -0.22869060D-04 -0.38790254D-04
 -0.44161333D-04  0.51983748D-04 -0.54681967D-05 -0.10064401D-04 -0.16286101D-04
 -0.21408535D-04 -0.18361976D-04 -0.62782715D-05 -0.33908709D-05 -0.15130000D-05
  0.44679092D-05 -0.52156395D-04 -0.40183691D-04 -0.17642805D-04 -0.93870719D-04
 -0.72322328D-04 -0.31753398D-04 -0.68799775D-04 -0.53006517D-04 -0.23272716D-04
 -0.13499381D-03  0.15774676D-03  0.26658380D-05 -0.33524199D-04 -0.39894105D-04
  0.10135217D-03 -0.69864423D-04  0.15962273D-03 -0.82672879D-04 -0.23153292D-04
 -0.22464815D-04 -0.38104577D-04 -0.43380714D-04  0.67492752D-04 -0.13628238D-04
 -0.23116071D-04 -0.26316829D-04 -0.25529316D-05  0.29940420D-04  0.50784618D-04
  0.57816493D-04  0.50180796D-03 -0.54764441D-05 -0.10102970D-04 -0.16309326D-04
 -0.21229897D-04 -0.18115509D-04 -0.62548500D-05  0.38512695D-04  0.17750466D-04
 -0.49774159D-04 -0.31463073D-04 -0.24123889D-04 -0.12039511D-04 -0.14723824D-04
 -0.11289294D-04 -0.56341489D-05 -0.26770584D-04 -0.20525986D-04 -0.10243906D-04
  0.89821171D-04  0.49408974D-04  0.19136286D-04  0.24173699D-04 -0.21008122D-05
 -0.31928833D-04 -0.61401594D-04 -0.77276319D-05  0.38898683D-04 -0.89699247D-05
 -0.33403430D-05 -0.56658540D-05 -0.64503745D-05 -0.60158274D-05  0.51683831D-06
  0.87665560D-06  0.99804141D-06  0.64219977D-05 -0.16596418D-04 -0.28150665D-04
 -0.32048537D-04  0.29118192D-04
MO    6     MO 0.0        OCC NO =    2.0000000  ORB. ENERGY =   -9.989587
  0.59388678D-04  0.10956051D-03  0.17686464D-03  0.23022521D-03  0.19645159D-03
  0.67830013D-04 -0.27647804D-04 -0.12742848D-04  0.35732275D-04  0.49368190D-04
  0.37852397D-04  0.18890999D-04  0.63842411D-04  0.48950311D-04  0.24429636D-04
 -0.46474815D-04 -0.35633940D-04 -0.17783834D-04 -0.11960682D-03 -0.17684683D-03
 -0.37926668D-04 -0.61901987D-05 -0.27560036D-04  0.21286061D-04  0.34173790D-04
 -0.27517824D-04  0.43936212D-04 -0.27252589D-04 -0.49073110D-03 -0.90530307D-03
 -0.14614398D-02 -0.19023604D-02 -0.16232876D-02 -0.56048221D-03  0.19019415D-03
  0.87660310D-04 -0.24580866D-03 -0.14812032D-03 -0.11356926D-03 -0.56679022D-04
 -0.33647405D-04 -0.25798696D-04 -0.12875357D-04  0.10822445D-03  0.82979640D-04
  0.41412656D-04  0.56082719D-03  0.84371882D-04  0.23299736D-03 -0.91860727D-04
 -0.77951092D-04 -0.49558203D-04 -0.22346901D-03  0.15290121D-03 -0.64007440D-04
 -0.10511933D-04  0.53227343D+00  0.98194055D+00  0.15851565D+01  0.20634028D+01
  0.17607053D+01  0.60792924D+00 -0.19575290D-01 -0.90222334D-02  0.25299284D-01
 -0.68858940D-03 -0.52796668D-03 -0.26349237D-03 -0.42229157D-02 -0.32378639D-02
 -0.16159210D-02  0.85011503D-04  0.65181429D-04  0.32530101D-04 -0.12274230D-02
  0.50306904D-03 -0.15017586D-03 -0.27628386D-03 -0.10415115D-01 -0.92753128D-02
 -0.10758192D-01 -0.16387448D-02 -0.56504878D-03  0.98371237D-03 -0.16067228D-01
 -0.29640898D-01 -0.47849599D-01 -0.62285961D-01 -0.53148723D-01 -0.18350977D-01
  0.45323034D-03  0.20889345D-03 -0.58575903D-03 -0.28351575D-03 -0.21738189D-03
 -0.10848880D-03  0.92159680D-04  0.70662197D-04  0.35265389D-04  0.23715480D-03
  0.18183526D-03  0.90748540D-04  0.73684598D-04  0.42262964D-03 -0.53782716D-04