 Entering Link 1 = D:\Gaussian\G16W\l1.exe PID=     37820.
  
 Copyright (c) 1988,1990,1992,1993,1995,1998,2003,2009,2016,
            Gaussian, Inc.  All Rights Reserved.
  
 This is part of the Gaussian(R) 16 program.  It is based on
 the Gaussian(R) 09 system (copyright 2009, Gaussian, Inc.),
 the Gaussian(R) 03 system (copyright 2003, Gaussian, Inc.),
 the Gaussian(R) 98 system (copyright 1998, Gaussian, Inc.),
 the Gaussian(R) 94 system (copyright 1995, Gaussian, Inc.),
 the Gaussian 92(TM) system (copyright 1992, Gaussian, Inc.),
 the Gaussian 90(TM) system (copyright 1990, Gaussian, Inc.),
 the Gaussian 88(TM) system (copyright 1988, Gaussian, Inc.),
 the Gaussian 86(TM) system (copyright 1986, Carnegie Mellon
 University), and the Gaussian 82(TM) system (copyright 1983,
 Carnegie Mellon University). Gaussian is a federally registered
 trademark of Gaussian, Inc.
  
 This software contains proprietary and confidential information,
 including trade secrets, belonging to Gaussian, Inc.
  
 This software is provided under written license and may be
 used, copied, transmitted, or stored only in accord with that
 written license.
  
 The following legend is applicable only to US Government
 contracts under FAR:
  
                    RESTRICTED RIGHTS LEGEND
  
 Use, reproduction and disclosure by the US Government is
 subject to restrictions as set forth in subparagraphs (a)
 and (c) of the Commercial Computer Software - Restricted
 Rights clause in FAR 52.227-19.
  
 Gaussian, Inc.
 340 Quinnipiac St., Bldg. 40, Wallingford CT 06492
  
  
 ---------------------------------------------------------------
 Warning -- This program may not be used in any manner that
 competes with the business of Gaussian, Inc. or will provide
 assistance to any competitor of Gaussian, Inc.  The licensee
 of this program is prohibited from giving any competitor of
 Gaussian, Inc. access to this program.  By using this program,
 the user acknowledges that Gaussian, Inc. is engaged in the
 business of creating and licensing software in the field of
 computational chemistry and represents and warrants to the
 licensee that it is not a competitor of Gaussian, Inc. and that
 it will not use this program in any manner prohibited above.
 ---------------------------------------------------------------
  

 Cite this work as:
 Gaussian 16, Revision A.03,
 M. J. Frisch, G. W. Trucks, H. B. Schlegel, G. E. Scuseria, 
 M. A. Robb, J. R. Cheeseman, G. Scalmani, V. Barone, 
 G. A. Petersson, H. Nakatsuji, X. Li, M. Caricato, A. V. Marenich, 
 J. Bloino, B. G. Janesko, R. Gomperts, B. Mennucci, H. P. Hratchian, 
 J. V. Ortiz, A. F. Izmaylov, J. L. Sonnenberg, D. Williams-Young, 
 F. Ding, F. Lipparini, F. Egidi, J. Goings, B. Peng, A. Petrone, 
 T. Henderson, D. Ranasinghe, V. G. Zakrzewski, J. Gao, N. Rega, 
 G. Zheng, W. Liang, M. Hada, M. Ehara, K. Toyota, R. Fukuda, 
 J. Hasegawa, M. Ishida, T. Nakajima, Y. Honda, O. Kitao, H. Nakai, 
 T. Vreven, K. Throssell, J. A. Montgomery, Jr., J. E. Peralta, 
 F. Ogliaro, M. J. Bearpark, J. J. Heyd, E. N. Brothers, K. N. Kudin, 
 V. N. Staroverov, T. A. Keith, R. Kobayashi, J. Normand, 
 K. Raghavachari, A. P. Rendell, J. C. Burant, S. S. Iyengar, 
 J. Tomasi, M. Cossi, J. M. Millam, M. Klene, C. Adamo, R. Cammi, 
 J. W. Ochterski, R. L. Martin, K. Morokuma, O. Farkas, 
 J. B. Foresman, and D. J. Fox, Gaussian, Inc., Wallingford CT, 2016.
 
 ******************************************
 Gaussian 16:  EM64W-G16RevA.03 17-Dec-2016
                03-Dec-2025 
 ******************************************
 %nprocs=   4
 Will use up to    4 processors via shared memory.
 ------------------------------------
 #P B3LYP/6-31G* SCF=conver=7 out=wfn
 ------------------------------------
 1/38=1,172=1/1;
 2/12=2,17=6,18=5,40=1/2;
 3/5=1,6=6,7=1,11=2,25=1,30=1,74=-5/1,2,3;
 4//1;
 5/5=2,6=7,38=5/2;
 6/7=2,8=2,9=2,10=2,28=1/1;
 99/5=1,6=100,9=1/99;
 Leave Link    1 at Wed Dec 03 16:51:01 2025, MaxMem=           0 cpu:               0.0 elap:               0.1
 (Enter D:\Gaussian\G16W\l101.exe)
 ----------------------------------------------------
 Generated by Multiwfn (http://sobereva.com/multiwfn)
 ----------------------------------------------------
 Symbolic Z-matrix:
 Charge = -1 Multiplicity = 1
 C                    -1.32321  -0.21612   0.03218 
 C                    -0.16979  -0.71695   0.51685 
 C                     2.19086   0.05888  -0.18016 
 C                     0.87036   0.37075   0.55501 
 C                     0.14348   1.57176  -0.00145 
 C                    -1.11838   1.21302  -0.28426 
 H                     0.02443  -1.73581   0.8204 
 O                     2.63848  -0.9959   -0.45277 
 H                     0.60313   2.5409   -0.13135 
 H                    -1.88823   1.85996  -0.6869 
 H                     1.2048    0.57488   1.58453 
 C                    -2.6196   -0.93486  -0.17952 
 H                    -3.42296  -0.47982   0.40964 
 H                    -2.92757  -0.88567  -1.22955 
 H                    -2.54377  -1.98603   0.10351 
 
 ITRead=  0  0  0  0  0  0  0  0  0  0  0  0  0  0  0
 MicOpt= -1 -1 -1 -1 -1 -1 -1 -1 -1 -1 -1 -1 -1 -1 -1
 NAtoms=     15 NQM=       15 NQMF=       0 NMMI=      0 NMMIF=      0
                NMic=       0 NMicF=      0.
                    Isotopes and Nuclear Properties:
 (Nuclear quadrupole moments (NQMom) in fm**2, nuclear magnetic moments (NMagM)
  in nuclear magnetons)

  Atom         1           2           3           4           5           6           7           8           9          10
 IAtWgt=          12          12          12          12          12          12           1          16           1           1
 AtmWgt=  12.0000000  12.0000000  12.0000000  12.0000000  12.0000000  12.0000000   1.0078250  15.9949146   1.0078250   1.0078250
 NucSpn=           0           0           0           0           0           0           1           0           1           1
 AtZEff=   0.0000000   0.0000000   0.0000000   0.0000000   0.0000000   0.0000000   0.0000000   0.0000000   0.0000000   0.0000000
 NQMom=    0.0000000   0.0000000   0.0000000   0.0000000   0.0000000   0.0000000   0.0000000   0.0000000   0.0000000   0.0000000
 NMagM=    0.0000000   0.0000000   0.0000000   0.0000000   0.0000000   0.0000000   2.7928460   0.0000000   2.7928460   2.7928460
 AtZNuc=   6.0000000   6.0000000   6.0000000   6.0000000   6.0000000   6.0000000   1.0000000   8.0000000   1.0000000   1.0000000

  Atom        11          12          13          14          15
 IAtWgt=           1          12           1           1           1
 AtmWgt=   1.0078250  12.0000000   1.0078250   1.0078250   1.0078250
 NucSpn=           1           0           1           1           1
 AtZEff=   0.0000000   0.0000000   0.0000000   0.0000000   0.0000000
 NQMom=    0.0000000   0.0000000   0.0000000   0.0000000   0.0000000
 NMagM=    2.7928460   0.0000000   2.7928460   2.7928460   2.7928460
 AtZNuc=   1.0000000   6.0000000   1.0000000   1.0000000   1.0000000
 Leave Link  101 at Wed Dec 03 16:51:01 2025, MaxMem=   104857600 cpu:               0.0 elap:               0.1
 (Enter D:\Gaussian\G16W\l202.exe)
                          Input orientation:                          
 ---------------------------------------------------------------------
 Center     Atomic      Atomic             Coordinates (Angstroms)
 Number     Number       Type             X           Y           Z
 ---------------------------------------------------------------------
      1          6           0       -1.323210   -0.216124    0.032182
      2          6           0       -0.169785   -0.716949    0.516848
      3          6           0        2.190855    0.058880   -0.180164
      4          6           0        0.870359    0.370749    0.555013
      5          6           0        0.143481    1.571759   -0.001449
      6          6           0       -1.118383    1.213018   -0.284264
      7          1           0        0.024431   -1.735809    0.820399
      8          8           0        2.638482   -0.995904   -0.452769
      9          1           0        0.603134    2.540895   -0.131346
     10          1           0       -1.888232    1.859955   -0.686898
     11          1           0        1.204802    0.574877    1.584530
     12          6           0       -2.619599   -0.934860   -0.179524
     13          1           0       -3.422959   -0.479819    0.409644
     14          1           0       -2.927572   -0.885672   -1.229547
     15          1           0       -2.543765   -1.986034    0.103511
 ---------------------------------------------------------------------
                    Distance matrix (angstroms):
                    1          2          3          4          5
     1  C    0.000000
     2  C    1.347633   0.000000
     3  C    3.531200   2.580767   0.000000
     4  C    2.330132   1.505471   1.543197   0.000000
     5  C    2.312756   2.367478   2.551957   1.510108   0.000000
     6  C    1.478019   2.294862   3.506270   2.317088   1.342006
     7  H    2.178730   1.080712   2.985871   2.285522   3.410222
     8  O    4.066723   2.984013   1.177817   2.451453   3.608547
     9  H    3.367298   3.410441   2.946802   2.291731   1.080453
    10  H    2.268574   3.323026   4.487717   3.371928   2.163505
    11  H    3.070230   2.167544   2.086312   1.101556   2.153022
    12  C    1.497339   2.556171   4.912025   3.797890   3.734898
    13  H    2.149641   3.263566   5.670360   4.379175   4.134908
    14  H    2.148076   3.268601   5.309584   4.380357   4.120505
    15  H    2.151145   2.723455   5.165150   4.173071   4.459843
                    6          7          8          9         10
     6  C    0.000000
     7  H    3.349908   0.000000
     8  O    4.361395   3.000280   0.000000
     9  H    2.179510   4.419379   4.093275   0.000000
    10  H    1.083194   4.342781   5.357414   2.641822   0.000000
    11  H    3.049066   2.704892   2.945060   2.677958   4.046933
    12  C    2.622594   2.938071   5.265530   4.740169   2.933141
    13  H    2.942495   3.691982   6.144198   5.062293   3.005384
    14  H    2.927665   3.693147   5.621076   5.041160   2.985492
    15  H    3.523637   2.678091   5.305232   5.518262   3.980716
                   11         12         13         14         15
    11  H    0.000000
    12  C    4.474063   0.000000
    13  H    4.889674   1.095248   0.000000
    14  H    5.208526   1.095361   1.759850   0.000000
    15  H    4.775294   1.091250   1.770701   1.770635   0.000000
 Stoichiometry    C7H7O(1-)
 Framework group  C1[X(C7H7O)]
 Deg. of freedom    39
 Full point group                 C1      NOp   1
 Largest Abelian subgroup         C1      NOp   1
 Largest concise Abelian subgroup C1      NOp   1
                         Standard orientation:                         
 ---------------------------------------------------------------------
 Center     Atomic      Atomic             Coordinates (Angstroms)
 Number     Number       Type             X           Y           Z
 ---------------------------------------------------------------------
      1          6           0       -1.323210   -0.216124    0.032182
      2          6           0       -0.169785   -0.716949    0.516848
      3          6           0        2.190855    0.058880   -0.180164
      4          6           0        0.870359    0.370749    0.555013
      5          6           0        0.143481    1.571759   -0.001449
      6          6           0       -1.118383    1.213018   -0.284264
      7          1           0        0.024431   -1.735809    0.820399
      8          8           0        2.638482   -0.995904   -0.452769
      9          1           0        0.603134    2.540895   -0.131346
     10          1           0       -1.888232    1.859955   -0.686898
     11          1           0        1.204802    0.574877    1.584530
     12          6           0       -2.619599   -0.934860   -0.179524
     13          1           0       -3.422959   -0.479818    0.409644
     14          1           0       -2.927572   -0.885672   -1.229547
     15          1           0       -2.543765   -1.986034    0.103511
 ---------------------------------------------------------------------
 Rotational constants (GHZ):           4.3040818           1.4595922           1.1775210
 Leave Link  202 at Wed Dec 03 16:51:01 2025, MaxMem=   104857600 cpu:               0.0 elap:               0.1
 (Enter D:\Gaussian\G16W\l301.exe)
 Standard basis: 6-31G(d) (6D, 7F)
 Ernie: Thresh=  0.10000D-02 Tol=  0.10000D-05 Strict=F.
 There are   134 symmetry adapted cartesian basis functions of A   symmetry.
 There are   134 symmetry adapted basis functions of A   symmetry.
   134 basis functions,   252 primitive gaussians,   134 cartesian basis functions
    29 alpha electrons       29 beta electrons
       nuclear repulsion energy       326.0428334110 Hartrees.
 IExCor=  402 DFT=T Ex+Corr=B3LYP ExCW=0 ScaHFX=  0.200000
 ScaDFX=  0.800000  0.720000  1.000000  0.810000 ScalE2=  1.000000  1.000000
 IRadAn=      5 IRanWt=     -1 IRanGd=            0 ICorTp=0 IEmpDi=  4
 NAtoms=   15 NActive=   15 NUniq=   15 SFac= 1.00D+00 NAtFMM=   60 NAOKFM=F Big=F
 Integral buffers will be    131072 words long.
 Raffenetti 2 integral format.
 Two-electron integral symmetry is turned on.
 Leave Link  301 at Wed Dec 03 16:51:01 2025, MaxMem=   104857600 cpu:               0.0 elap:               0.1
 (Enter D:\Gaussian\G16W\l302.exe)
 NPDir=0 NMtPBC=     1 NCelOv=     1 NCel=       1 NClECP=     1 NCelD=      1
         NCelK=      1 NCelE2=     1 NClLst=     1 CellRange=     0.0.
 One-electron integrals computed using PRISM.
 One-electron integral symmetry used in STVInt
 NBasis=   134 RedAO= T EigKep=  1.34D-03  NBF=   134
 NBsUse=   134 1.00D-06 EigRej= -1.00D+00 NBFU=   134
 Precomputing XC quadrature grid using
 IXCGrd= 4 IRadAn=           5 IRanWt=          -1 IRanGd=           0 AccXCQ= 0.00D+00.
 Generated NRdTot=       0 NPtTot=           0 NUsed=           0 NTot=          32
 NSgBfM=   134   134   134   134   134 MxSgAt=    15 MxSgA2=    15.
 Leave Link  302 at Wed Dec 03 16:51:01 2025, MaxMem=   104857600 cpu:               0.0 elap:               0.2
 (Enter D:\Gaussian\G16W\l303.exe)
 DipDrv:  MaxL=1.
 Leave Link  303 at Wed Dec 03 16:51:02 2025, MaxMem=   104857600 cpu:               0.0 elap:               0.1
 (Enter D:\Gaussian\G16W\l401.exe)
 ExpMin= 1.61D-01 ExpMax= 5.48D+03 ExpMxC= 8.25D+02 IAcc=3 IRadAn=         5 AccDes= 0.00D+00
 Harris functional with IExCor=  402 and IRadAn=       5 diagonalized for initial guess.
 HarFok:  IExCor=  402 AccDes= 0.00D+00 IRadAn=         5 IDoV= 1 UseB2=F ITyADJ=14
 ICtDFT=  3500011 ScaDFX=  1.000000  1.000000  1.000000  1.000000
 FoFCou: FMM=F IPFlag=           0 FMFlag=      100000 FMFlg1=           0
         NFxFlg=           0 DoJE=T BraDBF=F KetDBF=T FulRan=T
         wScrn=  0.000000 ICntrl=       500 IOpCl=  0 I1Cent=   200000004 NGrid=           0
         NMat0=    1 NMatS0=      1 NMatT0=    0 NMatD0=    1 NMtDS0=    0 NMtDT0=    0
 Petite list used in FoFCou.
 Harris En= -346.298391917910    
 JPrj=0 DoOrth=F DoCkMO=F.
 Leave Link  401 at Wed Dec 03 16:51:02 2025, MaxMem=   104857600 cpu:               0.0 elap:               0.7
 (Enter D:\Gaussian\G16W\l502.exe)
 Keep R1 ints in memory in canonical form, NReq=44746278.
 FoFCou: FMM=F IPFlag=           0 FMFlag=           0 FMFlg1=           0
         NFxFlg=           0 DoJE=F BraDBF=F KetDBF=F FulRan=T
         wScrn=  0.000000 ICntrl=       600 IOpCl=  0 I1Cent=           0 NGrid=           0
         NMat0=    1 NMatS0=   9045 NMatT0=    0 NMatD0=    1 NMtDS0=    0 NMtDT0=    0
 Symmetry not used in FoFCou.
 Two-electron integral symmetry not used.
 Closed shell SCF:
 Using DIIS extrapolation, IDIIS=  1040.
 NGot=   104857600 LenX=    63908728 LenY=    63890331
 Requested convergence on RMS density matrix=1.00D-07 within 128 cycles.
 Requested convergence on MAX density matrix=1.00D-05.
 Requested convergence on             energy=1.00D-05.
 No special actions if energy rises.
 Integral accuracy reduced to 1.0D-05 until final iterations.

 Cycle   1  Pass 0  IDiag  1:
 E= -345.760131579841    
 DIIS: error= 3.74D-02 at cycle   1 NSaved=   1.
 NSaved= 1 IEnMin= 1 EnMin= -345.760131579841     IErMin= 1 ErrMin= 3.74D-02
 ErrMax= 3.74D-02  0.00D+00 EMaxC= 1.00D-01 BMatC= 2.75D-01 BMatP= 2.75D-01
 IDIUse=3 WtCom= 6.26D-01 WtEn= 3.74D-01
 Coeff-Com:  0.100D+01
 Coeff-En:   0.100D+01
 Coeff:      0.100D+01
 Gap=     0.083 Goal=   None    Shift=    0.000
 GapD=    0.083 DampG=0.500 DampE=0.500 DampFc=0.2500 IDamp=-1.
 Damping current iteration by 2.50D-01
 RMSDP=1.27D-02 MaxDP=2.32D-01              OVMax= 1.81D-01

 Cycle   2  Pass 0  IDiag  1:
 E= -345.868303287545     Delta-E=       -0.108171707703 Rises=F Damp=T
 DIIS: error= 1.89D-02 at cycle   2 NSaved=   2.
 NSaved= 2 IEnMin= 2 EnMin= -345.868303287545     IErMin= 2 ErrMin= 1.89D-02
 ErrMax= 1.89D-02  0.00D+00 EMaxC= 1.00D-01 BMatC= 6.79D-02 BMatP= 2.75D-01
 IDIUse=3 WtCom= 8.11D-01 WtEn= 1.89D-01
 Coeff-Com: -0.846D+00 0.185D+01
 Coeff-En:   0.000D+00 0.100D+01
 Coeff:     -0.686D+00 0.169D+01
 Gap=     0.127 Goal=   None    Shift=    0.000
 RMSDP=3.64D-03 MaxDP=5.36D-02 DE=-1.08D-01 OVMax= 1.39D-01

 Cycle   3  Pass 0  IDiag  1:
 E= -346.045756933665     Delta-E=       -0.177453646121 Rises=F Damp=F
 DIIS: error= 9.43D-03 at cycle   3 NSaved=   3.
 NSaved= 3 IEnMin= 3 EnMin= -346.045756933665     IErMin= 3 ErrMin= 9.43D-03
 ErrMax= 9.43D-03  0.00D+00 EMaxC= 1.00D-01 BMatC= 1.25D-02 BMatP= 6.79D-02
 IDIUse=3 WtCom= 9.06D-01 WtEn= 9.43D-02
 Coeff-Com: -0.401D+00 0.894D+00 0.506D+00
 Coeff-En:   0.000D+00 0.000D+00 0.100D+01
 Coeff:     -0.363D+00 0.810D+00 0.553D+00
 Gap=     0.086 Goal=   None    Shift=    0.000
 RMSDP=2.53D-03 MaxDP=4.35D-02 DE=-1.77D-01 OVMax= 1.59D-01

 Cycle   4  Pass 0  IDiag  1:
 E= -346.051714289811     Delta-E=       -0.005957356146 Rises=F Damp=F
 DIIS: error= 5.90D-03 at cycle   4 NSaved=   4.
 NSaved= 4 IEnMin= 4 EnMin= -346.051714289811     IErMin= 4 ErrMin= 5.90D-03
 ErrMax= 5.90D-03  0.00D+00 EMaxC= 1.00D-01 BMatC= 6.77D-03 BMatP= 1.25D-02
 IDIUse=3 WtCom= 9.41D-01 WtEn= 5.90D-02
 Coeff-Com: -0.786D-01 0.204D+00 0.402D+00 0.473D+00
 Coeff-En:   0.000D+00 0.000D+00 0.396D+00 0.604D+00
 Coeff:     -0.740D-01 0.192D+00 0.401D+00 0.481D+00
 Gap=     0.072 Goal=   None    Shift=    0.000
 RMSDP=1.54D-03 MaxDP=2.58D-02 DE=-5.96D-03 OVMax= 1.06D-01

 Cycle   5  Pass 0  IDiag  1:
 E= -346.058566278596     Delta-E=       -0.006851988785 Rises=F Damp=F
 DIIS: error= 1.98D-03 at cycle   5 NSaved=   5.
 NSaved= 5 IEnMin= 5 EnMin= -346.058566278596     IErMin= 5 ErrMin= 1.98D-03
 ErrMax= 1.98D-03  0.00D+00 EMaxC= 1.00D-01 BMatC= 1.27D-03 BMatP= 6.77D-03
 IDIUse=3 WtCom= 9.80D-01 WtEn= 1.98D-02
 Coeff-Com:  0.621D-03 0.212D-01 0.236D+00 0.355D+00 0.388D+00
 Coeff-En:   0.000D+00 0.000D+00 0.000D+00 0.172D+00 0.828D+00
 Coeff:      0.609D-03 0.207D-01 0.231D+00 0.351D+00 0.396D+00
 Gap=     0.078 Goal=   None    Shift=    0.000
 RMSDP=5.93D-04 MaxDP=9.21D-03 DE=-6.85D-03 OVMax= 4.12D-02

 Cycle   6  Pass 0  IDiag  1:
 E= -346.059919106091     Delta-E=       -0.001352827495 Rises=F Damp=F
 DIIS: error= 7.60D-04 at cycle   6 NSaved=   6.
 NSaved= 6 IEnMin= 6 EnMin= -346.059919106091     IErMin= 6 ErrMin= 7.60D-04
 ErrMax= 7.60D-04  0.00D+00 EMaxC= 1.00D-01 BMatC= 1.22D-04 BMatP= 1.27D-03
 IDIUse=3 WtCom= 9.92D-01 WtEn= 7.60D-03
 Coeff-Com:  0.826D-02-0.893D-02 0.905D-01 0.146D+00 0.267D+00 0.497D+00
 Coeff-En:   0.000D+00 0.000D+00 0.000D+00 0.000D+00 0.117D+00 0.883D+00
 Coeff:      0.820D-02-0.887D-02 0.898D-01 0.145D+00 0.266D+00 0.500D+00
 Gap=     0.077 Goal=   None    Shift=    0.000
 RMSDP=1.72D-04 MaxDP=2.66D-03 DE=-1.35D-03 OVMax= 1.13D-02

 Cycle   7  Pass 0  IDiag  1:
 E= -346.060050454293     Delta-E=       -0.000131348202 Rises=F Damp=F
 DIIS: error= 1.66D-04 at cycle   7 NSaved=   7.
 NSaved= 7 IEnMin= 7 EnMin= -346.060050454293     IErMin= 7 ErrMin= 1.66D-04
 ErrMax= 1.66D-04  0.00D+00 EMaxC= 1.00D-01 BMatC= 1.02D-05 BMatP= 1.22D-04
 IDIUse=3 WtCom= 9.98D-01 WtEn= 1.66D-03
 Coeff-Com:  0.531D-02-0.830D-02 0.281D-01 0.447D-01 0.115D+00 0.299D+00
 Coeff-Com:  0.517D+00
 Coeff-En:   0.000D+00 0.000D+00 0.000D+00 0.000D+00 0.000D+00 0.103D-01
 Coeff-En:   0.990D+00
 Coeff:      0.530D-02-0.828D-02 0.281D-01 0.446D-01 0.115D+00 0.298D+00
 Coeff:      0.518D+00
 Gap=     0.077 Goal=   None    Shift=    0.000
 RMSDP=3.60D-05 MaxDP=7.68D-04 DE=-1.31D-04 OVMax= 1.51D-03

 Cycle   8  Pass 0  IDiag  1:
 E= -346.060059801463     Delta-E=       -0.000009347170 Rises=F Damp=F
 DIIS: error= 4.90D-05 at cycle   8 NSaved=   8.
 NSaved= 8 IEnMin= 8 EnMin= -346.060059801463     IErMin= 8 ErrMin= 4.90D-05
 ErrMax= 4.90D-05  0.00D+00 EMaxC= 1.00D-01 BMatC= 7.95D-07 BMatP= 1.02D-05
 IDIUse=1 WtCom= 1.00D+00 WtEn= 0.00D+00
 Coeff-Com:  0.184D-02-0.311D-02 0.622D-02 0.874D-02 0.338D-01 0.106D+00
 Coeff-Com:  0.284D+00 0.563D+00
 Coeff:      0.184D-02-0.311D-02 0.622D-02 0.874D-02 0.338D-01 0.106D+00
 Coeff:      0.284D+00 0.563D+00
 Gap=     0.077 Goal=   None    Shift=    0.000
 RMSDP=1.01D-05 MaxDP=1.99D-04 DE=-9.35D-06 OVMax= 3.94D-04

 Cycle   9  Pass 0  IDiag  1:
 E= -346.060060578528     Delta-E=       -0.000000777065 Rises=F Damp=F
 DIIS: error= 1.38D-05 at cycle   9 NSaved=   9.
 NSaved= 9 IEnMin= 9 EnMin= -346.060060578528     IErMin= 9 ErrMin= 1.38D-05
 ErrMax= 1.38D-05  0.00D+00 EMaxC= 1.00D-01 BMatC= 6.54D-08 BMatP= 7.95D-07
 IDIUse=1 WtCom= 1.00D+00 WtEn= 0.00D+00
 Coeff-Com:  0.198D-03-0.362D-03-0.148D-03-0.110D-02 0.238D-02 0.139D-01
 Coeff-Com:  0.773D-01 0.277D+00 0.631D+00
 Coeff:      0.198D-03-0.362D-03-0.148D-03-0.110D-02 0.238D-02 0.139D-01
 Coeff:      0.773D-01 0.277D+00 0.631D+00
 Gap=     0.077 Goal=   None    Shift=    0.000
 RMSDP=2.97D-06 MaxDP=7.74D-05 DE=-7.77D-07 OVMax= 1.04D-04

 Initial convergence to 1.0D-05 achieved.  Increase integral accuracy.
 Cycle  10  Pass 1  IDiag  1:
 E= -346.060048170032     Delta-E=        0.000012408495 Rises=F Damp=F
 DIIS: error= 4.13D-06 at cycle   1 NSaved=   1.
 NSaved= 1 IEnMin= 1 EnMin= -346.060048170032     IErMin= 1 ErrMin= 4.13D-06
 ErrMax= 4.13D-06  0.00D+00 EMaxC= 1.00D-01 BMatC= 6.42D-09 BMatP= 6.42D-09
 IDIUse=1 WtCom= 1.00D+00 WtEn= 0.00D+00
 Coeff-Com:  0.100D+01
 Coeff:      0.100D+01
 Gap=     0.077 Goal=   None    Shift=    0.000
 RMSDP=2.97D-06 MaxDP=7.74D-05 DE= 1.24D-05 OVMax= 1.02D-04

 Cycle  11  Pass 1  IDiag  1:
 E= -346.060048165686     Delta-E=        0.000000004346 Rises=F Damp=F
 DIIS: error= 4.52D-06 at cycle   2 NSaved=   2.
 NSaved= 2 IEnMin= 1 EnMin= -346.060048170032     IErMin= 1 ErrMin= 4.13D-06
 ErrMax= 4.52D-06  0.00D+00 EMaxC= 1.00D-01 BMatC= 9.84D-09 BMatP= 6.42D-09
 IDIUse=1 WtCom= 1.00D+00 WtEn= 0.00D+00
 Coeff-Com:  0.562D+00 0.438D+00
 Coeff:      0.562D+00 0.438D+00
 Gap=     0.077 Goal=   None    Shift=    0.000
 RMSDP=2.18D-06 MaxDP=3.29D-05 DE= 4.35D-09 OVMax= 1.53D-04

 Cycle  12  Pass 1  IDiag  1:
 E= -346.060048173299     Delta-E=       -0.000000007614 Rises=F Damp=F
 DIIS: error= 3.49D-06 at cycle   3 NSaved=   3.
 NSaved= 3 IEnMin= 3 EnMin= -346.060048173299     IErMin= 3 ErrMin= 3.49D-06
 ErrMax= 3.49D-06  0.00D+00 EMaxC= 1.00D-01 BMatC= 3.22D-09 BMatP= 6.42D-09
 IDIUse=1 WtCom= 1.00D+00 WtEn= 0.00D+00
 Coeff-Com:  0.248D+00 0.346D+00 0.406D+00
 Coeff:      0.248D+00 0.346D+00 0.406D+00
 Gap=     0.077 Goal=   None    Shift=    0.000
 RMSDP=1.07D-06 MaxDP=1.80D-05 DE=-7.61D-09 OVMax= 7.61D-05

 Cycle  13  Pass 1  IDiag  1:
 E= -346.060048177332     Delta-E=       -0.000000004033 Rises=F Damp=F
 DIIS: error= 1.04D-06 at cycle   4 NSaved=   4.
 NSaved= 4 IEnMin= 4 EnMin= -346.060048177332     IErMin= 4 ErrMin= 1.04D-06
 ErrMax= 1.04D-06  0.00D+00 EMaxC= 1.00D-01 BMatC= 3.54D-10 BMatP= 3.22D-09
 IDIUse=1 WtCom= 1.00D+00 WtEn= 0.00D+00
 Coeff-Com:  0.224D-01 0.142D+00 0.278D+00 0.557D+00
 Coeff:      0.224D-01 0.142D+00 0.278D+00 0.557D+00
 Gap=     0.077 Goal=   None    Shift=    0.000
 RMSDP=2.45D-07 MaxDP=5.26D-06 DE=-4.03D-09 OVMax= 1.50D-05

 Cycle  14  Pass 1  IDiag  1:
 E= -346.060048177685     Delta-E=       -0.000000000353 Rises=F Damp=F
 DIIS: error= 3.50D-07 at cycle   5 NSaved=   5.
 NSaved= 5 IEnMin= 5 EnMin= -346.060048177685     IErMin= 5 ErrMin= 3.50D-07
 ErrMax= 3.50D-07  0.00D+00 EMaxC= 1.00D-01 BMatC= 3.85D-11 BMatP= 3.54D-10
 IDIUse=1 WtCom= 1.00D+00 WtEn= 0.00D+00
 Coeff-Com: -0.101D-01 0.562D-01 0.128D+00 0.338D+00 0.488D+00
 Coeff:     -0.101D-01 0.562D-01 0.128D+00 0.338D+00 0.488D+00
 Gap=     0.077 Goal=   None    Shift=    0.000
 RMSDP=6.48D-08 MaxDP=9.86D-07 DE=-3.53D-10 OVMax= 2.13D-06

 SCF Done:  E(RB3LYP) =  -346.060048178     A.U. after   14 cycles
            NFock= 14  Conv=0.65D-07     -V/T= 2.0076
 KE= 3.434344696430D+02 PE=-1.468606240379D+03 EE= 4.530688891477D+02
 Leave Link  502 at Wed Dec 03 16:51:11 2025, MaxMem=   104857600 cpu:               9.0 elap:               8.9
 (Enter D:\Gaussian\G16W\l601.exe)
 Copying SCF densities to generalized density rwf, IOpCl= 0 IROHF=0.

 **********************************************************************

            Population analysis using the SCF density.

 **********************************************************************

 Orbital symmetries:
       Occupied  (A) (A) (A) (A) (A) (A) (A) (A) (A) (A) (A) (A)
                 (A) (A) (A) (A) (A) (A) (A) (A) (A) (A) (A) (A)
                 (A) (A) (A) (A) (A)
       Virtual   (A) (A) (A) (A) (A) (A) (A) (A) (A) (A) (A) (A)
                 (A) (A) (A) (A) (A) (A) (A) (A) (A) (A) (A) (A)
                 (A) (A) (A) (A) (A) (A) (A) (A) (A) (A) (A) (A)
                 (A) (A) (A) (A) (A) (A) (A) (A) (A) (A) (A) (A)
                 (A) (A) (A) (A) (A) (A) (A) (A) (A) (A) (A) (A)
                 (A) (A) (A) (A) (A) (A) (A) (A) (A) (A) (A) (A)
                 (A) (A) (A) (A) (A) (A) (A) (A) (A) (A) (A) (A)
                 (A) (A) (A) (A) (A) (A) (A) (A) (A) (A) (A) (A)
                 (A) (A) (A) (A) (A) (A) (A) (A) (A)
 The electronic state is 1-A.
 Alpha  occ. eigenvalues --  -18.92060 -10.03635  -9.99630  -9.99573  -9.99279
 Alpha  occ. eigenvalues --   -9.98959  -9.98749  -9.98006  -0.82746  -0.66625
 Alpha  occ. eigenvalues --   -0.58272  -0.51778  -0.48720  -0.37798  -0.34187
 Alpha  occ. eigenvalues --   -0.32020  -0.28807  -0.26844  -0.26452  -0.22703
 Alpha  occ. eigenvalues --   -0.21406  -0.18912  -0.17980  -0.17237  -0.14654
 Alpha  occ. eigenvalues --   -0.13023  -0.10619  -0.02881   0.10002
 Alpha virt. eigenvalues --    0.17741   0.23748   0.24778   0.25100   0.28548
 Alpha virt. eigenvalues --    0.29413   0.32378   0.32754   0.33265   0.33725
 Alpha virt. eigenvalues --    0.39227   0.40645   0.43717   0.49998   0.52431
 Alpha virt. eigenvalues --    0.53846   0.60228   0.62984   0.67410   0.69308
 Alpha virt. eigenvalues --    0.71707   0.74230   0.74769   0.77355   0.79335
 Alpha virt. eigenvalues --    0.80792   0.81811   0.84227   0.85981   0.86536
 Alpha virt. eigenvalues --    0.88391   0.91368   0.93457   0.94511   0.97713
 Alpha virt. eigenvalues --    1.00414   1.01260   1.01602   1.02277   1.04442
 Alpha virt. eigenvalues --    1.06509   1.07234   1.07674   1.08716   1.10234
 Alpha virt. eigenvalues --    1.13432   1.15742   1.23227   1.26143   1.31153
 Alpha virt. eigenvalues --    1.32603   1.37643   1.46062   1.55235   1.58717
 Alpha virt. eigenvalues --    1.60186   1.60834   1.65274   1.69839   1.71436
 Alpha virt. eigenvalues --    1.76702   1.81966   1.87695   1.91127   1.95385
 Alpha virt. eigenvalues --    1.97444   1.98080   2.04252   2.07136   2.08142
 Alpha virt. eigenvalues --    2.13662   2.15546   2.21368   2.23356   2.24992
 Alpha virt. eigenvalues --    2.31323   2.34286   2.35344   2.37231   2.42598
 Alpha virt. eigenvalues --    2.50331   2.51135   2.54591   2.60649   2.64164
 Alpha virt. eigenvalues --    2.67016   2.73191   2.77095   2.81926   2.87705
 Alpha virt. eigenvalues --    2.92335   2.95676   3.01947   3.14222   3.18802
 Alpha virt. eigenvalues --    3.24765   3.25084   4.11651   4.27454   4.32375
 Alpha virt. eigenvalues --    4.34583   4.42911   4.52674   4.73213   4.79321
          Condensed to atoms (all electrons):
               1          2          3          4          5          6
     1  C    4.722114   0.592891  -0.000976  -0.035116  -0.014543   0.446082
     2  C    0.592891   5.233191   0.008979   0.244738  -0.095820  -0.016551
     3  C   -0.000976   0.008979   5.700674  -0.079456  -0.045820   0.005903
     4  C   -0.035116   0.244738  -0.079456   5.590641   0.414380  -0.080582
     5  C   -0.014543  -0.095820  -0.045820   0.414380   5.042377   0.590274
     6  C    0.446082  -0.016551   0.005903  -0.080582   0.590274   5.009900
     7  H   -0.055611   0.353751  -0.000883  -0.063994   0.005589   0.008921
     8  O    0.000614   0.000283   0.449538  -0.072124   0.001108   0.000175
     9  H    0.005463   0.009245   0.013924  -0.063409   0.336446  -0.052180
    10  H   -0.061687   0.007576   0.000035   0.009284  -0.069441   0.341521
    11  H    0.000161  -0.041771  -0.041174   0.352868  -0.035442   0.001680
    12  C    0.341564  -0.093597  -0.000079   0.010990   0.007018  -0.088437
    13  H   -0.031923   0.000669  -0.000003  -0.000280  -0.000058  -0.001348
    14  H   -0.035528   0.002160   0.000012   0.000103   0.000175   0.000129
    15  H   -0.022138  -0.002135  -0.000002  -0.000343  -0.000008   0.004031
               7          8          9         10         11         12
     1  C   -0.055611   0.000614   0.005463  -0.061687   0.000161   0.341564
     2  C    0.353751   0.000283   0.009245   0.007576  -0.041771  -0.093597
     3  C   -0.000883   0.449538   0.013924   0.000035  -0.041174  -0.000079
     4  C   -0.063994  -0.072124  -0.063409   0.009284   0.352868   0.010990
     5  C    0.005589   0.001108   0.336446  -0.069441  -0.035442   0.007018
     6  C    0.008921   0.000175  -0.052180   0.341521   0.001680  -0.088437
     7  H    0.696716   0.004329  -0.000085  -0.000184   0.000210  -0.010032
     8  O    0.004329   8.076137  -0.000150   0.000001  -0.001104   0.000001
     9  H   -0.000085  -0.000150   0.705657  -0.005143  -0.000434  -0.000190
    10  H   -0.000184   0.000001  -0.005143   0.744971  -0.000268  -0.004686
    11  H    0.000210  -0.001104  -0.000434  -0.000268   0.664996  -0.000299
    12  C   -0.010032   0.000001  -0.000190  -0.004686  -0.000299   5.311574
    13  H    0.000152   0.000000   0.000002   0.001839   0.000030   0.351347
    14  H   -0.000111  -0.000001  -0.000015   0.001355  -0.000003   0.338210
    15  H    0.006038   0.000000   0.000004  -0.000093  -0.000005   0.352098
              13         14         15
     1  C   -0.031923  -0.035528  -0.022138
     2  C    0.000669   0.002160  -0.002135
     3  C   -0.000003   0.000012  -0.000002
     4  C   -0.000280   0.000103  -0.000343
     5  C   -0.000058   0.000175  -0.000008
     6  C   -0.001348   0.000129   0.004031
     7  H    0.000152  -0.000111   0.006038
     8  O    0.000000  -0.000001   0.000000
     9  H    0.000002  -0.000015   0.000004
    10  H    0.001839   0.001355  -0.000093
    11  H    0.000030  -0.000003  -0.000005
    12  C    0.351347   0.338210   0.352098
    13  H    0.658409  -0.051685  -0.034562
    14  H   -0.051685   0.669379  -0.032425
    15  H   -0.034562  -0.032425   0.613344
 Mulliken charges:
               1
     1  C    0.148634
     2  C   -0.203611
     3  C   -0.010673
     4  C   -0.227699
     5  C   -0.136234
     6  C   -0.169518
     7  H    0.055195
     8  O   -0.458806
     9  H    0.050864
    10  H    0.034920
    11  H    0.100555
    12  C   -0.515481
    13  H    0.107412
    14  H    0.108248
    15  H    0.116195
 Sum of Mulliken charges =  -1.00000
 Mulliken charges with hydrogens summed into heavy atoms:
               1
     1  C    0.148634
     2  C   -0.148417
     3  C   -0.010673
     4  C   -0.127144
     5  C   -0.085370
     6  C   -0.134598
     8  O   -0.458806
    12  C   -0.183626
 Electronic spatial extent (au):  <R**2>=           1030.7643
 Charge=             -1.0000 electrons
 Dipole moment (field-independent basis, Debye):
    X=             -5.2621    Y=              0.1795    Z=              1.1940  Tot=              5.3989
 Quadrupole moment (field-independent basis, Debye-Ang):
   XX=            -74.1785   YY=            -54.4295   ZZ=            -51.0128
   XY=              2.4082   XZ=              4.4963   YZ=             -0.9989
 Traceless Quadrupole moment (field-independent basis, Debye-Ang):
   XX=            -14.3049   YY=              5.4441   ZZ=              8.8608
   XY=              2.4082   XZ=              4.4963   YZ=             -0.9989
 Octapole moment (field-independent basis, Debye-Ang**2):
  XXX=            -39.5282  YYY=             -6.6340  ZZZ=             -1.6447  XYY=             -2.9612
  XXY=              8.7976  XXZ=             11.0983  XZZ=              3.9399  YZZ=             -2.5476
  YYZ=              0.9160  XYZ=             -0.9186
 Hexadecapole moment (field-independent basis, Debye-Ang**3):
 XXXX=          -1149.4189 YYYY=           -353.7612 ZZZZ=           -107.6382 XXXY=             -7.4003
 XXXZ=             22.8870 YYYX=             -4.0430 YYYZ=             -3.6859 ZZZX=             -1.1109
 ZZZY=              4.3242 XXYY=           -245.8427 XXZZ=           -179.5802 YYZZ=            -79.7748
 XXYZ=             -6.8304 YYXZ=              3.0250 ZZXY=             -3.6154
 N-N= 3.260428334110D+02 E-N=-1.468606234501D+03  KE= 3.434344696430D+02
 No NMR shielding tensors so no spin-rotation constants.
 Leave Link  601 at Wed Dec 03 16:51:11 2025, MaxMem=   104857600 cpu:               0.0 elap:               0.1
 (Enter D:\Gaussian\G16W\l9999.exe)
 1|1|UNPC-PC-20250526LCFF|SP|RB3LYP|6-31G(d)|C7H7O1(1-)|ADMINISTRATOR|0
 3-Dec-2025|0||#P B3LYP/6-31G* SCF=conver=7 out=wfn||Generated by Multi
 wfn (http://sobereva.com/multiwfn)||-1,1|C,0,-1.32321,-0.216124,0.0321
 82|C,0,-0.169785,-0.716949,0.516848|C,0,2.190855,0.05888,-0.180164|C,0
 ,0.870359,0.370749,0.555013|C,0,0.143481,1.571759,-0.001449|C,0,-1.118
 383,1.213018,-0.284264|H,0,0.024431,-1.735809,0.820399|O,0,2.638482,-0
 .995904,-0.452769|H,0,0.603134,2.540895,-0.131346|H,0,-1.888232,1.8599
 55,-0.686898|H,0,1.204802,0.574877,1.58453|C,0,-2.619599,-0.93486,-0.1
 79524|H,0,-3.422959,-0.479819,0.409644|H,0,-2.927572,-0.885672,-1.2295
 47|H,0,-2.543765,-1.986034,0.103511||Version=EM64W-G16RevA.03|State=1-
 A|HF=-346.0600482|RMSD=6.481e-008|Dipole=-2.070285,0.0706264,0.4697555
 |Quadrupole=-10.6353177,4.0475354,6.5877823,1.7904392,3.3428615,-0.742
 6466|PG=C01 [X(C7H7O1)]||@

 Writing a WFN file to "N+1.wfn"


 LET US PLACE AT THE END OF EVERY CHAPTER.....THE
 TWO LETTERS USED BY THE ROMAN JUDGES WHEN THEY DID
 NOT UNDERSTAND A PLEADING.
 N. L. -NON LIQUET- IT IS NOT CLEAR.
                                              -- VOLTAIRE
 Job cpu time:       0 days  0 hours  0 minutes 11.0 seconds.
 Elapsed time:       0 days  0 hours  0 minutes 10.5 seconds.
 File lengths (MBytes):  RWF=     10 Int=      0 D2E=      0 Chk=      2 Scr=      1
 Normal termination of Gaussian 16 at Wed Dec 03 16:51:12 2025.
