 Entering Link 1 = D:\Gaussian\G16W\l1.exe PID=     35400.
  
 Copyright (c) 1988,1990,1992,1993,1995,1998,2003,2009,2016,
            Gaussian, Inc.  All Rights Reserved.
  
 This is part of the Gaussian(R) 16 program.  It is based on
 the Gaussian(R) 09 system (copyright 2009, Gaussian, Inc.),
 the Gaussian(R) 03 system (copyright 2003, Gaussian, Inc.),
 the Gaussian(R) 98 system (copyright 1998, Gaussian, Inc.),
 the Gaussian(R) 94 system (copyright 1995, Gaussian, Inc.),
 the Gaussian 92(TM) system (copyright 1992, Gaussian, Inc.),
 the Gaussian 90(TM) system (copyright 1990, Gaussian, Inc.),
 the Gaussian 88(TM) system (copyright 1988, Gaussian, Inc.),
 the Gaussian 86(TM) system (copyright 1986, Carnegie Mellon
 University), and the Gaussian 82(TM) system (copyright 1983,
 Carnegie Mellon University). Gaussian is a federally registered
 trademark of Gaussian, Inc.
  
 This software contains proprietary and confidential information,
 including trade secrets, belonging to Gaussian, Inc.
  
 This software is provided under written license and may be
 used, copied, transmitted, or stored only in accord with that
 written license.
  
 The following legend is applicable only to US Government
 contracts under FAR:
  
                    RESTRICTED RIGHTS LEGEND
  
 Use, reproduction and disclosure by the US Government is
 subject to restrictions as set forth in subparagraphs (a)
 and (c) of the Commercial Computer Software - Restricted
 Rights clause in FAR 52.227-19.
  
 Gaussian, Inc.
 340 Quinnipiac St., Bldg. 40, Wallingford CT 06492
  
  
 ---------------------------------------------------------------
 Warning -- This program may not be used in any manner that
 competes with the business of Gaussian, Inc. or will provide
 assistance to any competitor of Gaussian, Inc.  The licensee
 of this program is prohibited from giving any competitor of
 Gaussian, Inc. access to this program.  By using this program,
 the user acknowledges that Gaussian, Inc. is engaged in the
 business of creating and licensing software in the field of
 computational chemistry and represents and warrants to the
 licensee that it is not a competitor of Gaussian, Inc. and that
 it will not use this program in any manner prohibited above.
 ---------------------------------------------------------------
  

 Cite this work as:
 Gaussian 16, Revision A.03,
 M. J. Frisch, G. W. Trucks, H. B. Schlegel, G. E. Scuseria, 
 M. A. Robb, J. R. Cheeseman, G. Scalmani, V. Barone, 
 G. A. Petersson, H. Nakatsuji, X. Li, M. Caricato, A. V. Marenich, 
 J. Bloino, B. G. Janesko, R. Gomperts, B. Mennucci, H. P. Hratchian, 
 J. V. Ortiz, A. F. Izmaylov, J. L. Sonnenberg, D. Williams-Young, 
 F. Ding, F. Lipparini, F. Egidi, J. Goings, B. Peng, A. Petrone, 
 T. Henderson, D. Ranasinghe, V. G. Zakrzewski, J. Gao, N. Rega, 
 G. Zheng, W. Liang, M. Hada, M. Ehara, K. Toyota, R. Fukuda, 
 J. Hasegawa, M. Ishida, T. Nakajima, Y. Honda, O. Kitao, H. Nakai, 
 T. Vreven, K. Throssell, J. A. Montgomery, Jr., J. E. Peralta, 
 F. Ogliaro, M. J. Bearpark, J. J. Heyd, E. N. Brothers, K. N. Kudin, 
 V. N. Staroverov, T. A. Keith, R. Kobayashi, J. Normand, 
 K. Raghavachari, A. P. Rendell, J. C. Burant, S. S. Iyengar, 
 J. Tomasi, M. Cossi, J. M. Millam, M. Klene, C. Adamo, R. Cammi, 
 J. W. Ochterski, R. L. Martin, K. Morokuma, O. Farkas, 
 J. B. Foresman, and D. J. Fox, Gaussian, Inc., Wallingford CT, 2016.
 
 ******************************************
 Gaussian 16:  EM64W-G16RevA.03 17-Dec-2016
                03-Dec-2025 
 ******************************************
 %nprocs=   4
 Will use up to    4 processors via shared memory.
 ------------------------------------
 #P B3LYP/6-31G* SCF=conver=7 out=wfn
 ------------------------------------
 1/38=1,172=1/1;
 2/12=2,17=6,18=5,40=1/2;
 3/5=1,6=6,7=1,11=2,25=1,30=1,74=-5/1,2,3;
 4//1;
 5/5=2,6=7,38=5/2;
 6/7=2,8=2,9=2,10=2,28=1/1;
 99/5=1,6=100,9=1/99;
 Leave Link    1 at Wed Dec 03 16:51:22 2025, MaxMem=           0 cpu:               0.0 elap:               0.1
 (Enter D:\Gaussian\G16W\l101.exe)
 ----------------------------------------------------
 Generated by Multiwfn (http://sobereva.com/multiwfn)
 ----------------------------------------------------
 Symbolic Z-matrix:
 Charge =  1 Multiplicity = 1
 C                    -1.32321  -0.21612   0.03218 
 C                    -0.16979  -0.71695   0.51685 
 C                     2.19086   0.05888  -0.18016 
 C                     0.87036   0.37075   0.55501 
 C                     0.14348   1.57176  -0.00145 
 C                    -1.11838   1.21302  -0.28426 
 H                     0.02443  -1.73581   0.8204 
 O                     2.63848  -0.9959   -0.45277 
 H                     0.60313   2.5409   -0.13135 
 H                    -1.88823   1.85996  -0.6869 
 H                     1.2048    0.57488   1.58453 
 C                    -2.6196   -0.93486  -0.17952 
 H                    -3.42296  -0.47982   0.40964 
 H                    -2.92757  -0.88567  -1.22955 
 H                    -2.54377  -1.98603   0.10351 
 
 ITRead=  0  0  0  0  0  0  0  0  0  0  0  0  0  0  0
 MicOpt= -1 -1 -1 -1 -1 -1 -1 -1 -1 -1 -1 -1 -1 -1 -1
 NAtoms=     15 NQM=       15 NQMF=       0 NMMI=      0 NMMIF=      0
                NMic=       0 NMicF=      0.
                    Isotopes and Nuclear Properties:
 (Nuclear quadrupole moments (NQMom) in fm**2, nuclear magnetic moments (NMagM)
  in nuclear magnetons)

  Atom         1           2           3           4           5           6           7           8           9          10
 IAtWgt=          12          12          12          12          12          12           1          16           1           1
 AtmWgt=  12.0000000  12.0000000  12.0000000  12.0000000  12.0000000  12.0000000   1.0078250  15.9949146   1.0078250   1.0078250
 NucSpn=           0           0           0           0           0           0           1           0           1           1
 AtZEff=   0.0000000   0.0000000   0.0000000   0.0000000   0.0000000   0.0000000   0.0000000   0.0000000   0.0000000   0.0000000
 NQMom=    0.0000000   0.0000000   0.0000000   0.0000000   0.0000000   0.0000000   0.0000000   0.0000000   0.0000000   0.0000000
 NMagM=    0.0000000   0.0000000   0.0000000   0.0000000   0.0000000   0.0000000   2.7928460   0.0000000   2.7928460   2.7928460
 AtZNuc=   6.0000000   6.0000000   6.0000000   6.0000000   6.0000000   6.0000000   1.0000000   8.0000000   1.0000000   1.0000000

  Atom        11          12          13          14          15
 IAtWgt=           1          12           1           1           1
 AtmWgt=   1.0078250  12.0000000   1.0078250   1.0078250   1.0078250
 NucSpn=           1           0           1           1           1
 AtZEff=   0.0000000   0.0000000   0.0000000   0.0000000   0.0000000
 NQMom=    0.0000000   0.0000000   0.0000000   0.0000000   0.0000000
 NMagM=    2.7928460   0.0000000   2.7928460   2.7928460   2.7928460
 AtZNuc=   1.0000000   6.0000000   1.0000000   1.0000000   1.0000000
 Leave Link  101 at Wed Dec 03 16:51:22 2025, MaxMem=   104857600 cpu:               0.0 elap:               0.1
 (Enter D:\Gaussian\G16W\l202.exe)
                          Input orientation:                          
 ---------------------------------------------------------------------
 Center     Atomic      Atomic             Coordinates (Angstroms)
 Number     Number       Type             X           Y           Z
 ---------------------------------------------------------------------
      1          6           0       -1.323210   -0.216124    0.032182
      2          6           0       -0.169785   -0.716949    0.516848
      3          6           0        2.190855    0.058880   -0.180164
      4          6           0        0.870359    0.370749    0.555013
      5          6           0        0.143481    1.571759   -0.001449
      6          6           0       -1.118383    1.213018   -0.284264
      7          1           0        0.024431   -1.735809    0.820399
      8          8           0        2.638482   -0.995904   -0.452769
      9          1           0        0.603134    2.540895   -0.131346
     10          1           0       -1.888232    1.859955   -0.686898
     11          1           0        1.204802    0.574877    1.584530
     12          6           0       -2.619599   -0.934860   -0.179524
     13          1           0       -3.422959   -0.479819    0.409644
     14          1           0       -2.927572   -0.885672   -1.229547
     15          1           0       -2.543765   -1.986034    0.103511
 ---------------------------------------------------------------------
                    Distance matrix (angstroms):
                    1          2          3          4          5
     1  C    0.000000
     2  C    1.347633   0.000000
     3  C    3.531200   2.580767   0.000000
     4  C    2.330132   1.505471   1.543197   0.000000
     5  C    2.312756   2.367478   2.551957   1.510108   0.000000
     6  C    1.478019   2.294862   3.506270   2.317088   1.342006
     7  H    2.178730   1.080712   2.985871   2.285522   3.410222
     8  O    4.066723   2.984013   1.177817   2.451453   3.608547
     9  H    3.367298   3.410441   2.946802   2.291731   1.080453
    10  H    2.268574   3.323026   4.487717   3.371928   2.163505
    11  H    3.070230   2.167544   2.086312   1.101556   2.153022
    12  C    1.497339   2.556171   4.912025   3.797890   3.734898
    13  H    2.149641   3.263566   5.670360   4.379175   4.134908
    14  H    2.148076   3.268601   5.309584   4.380357   4.120505
    15  H    2.151145   2.723455   5.165150   4.173071   4.459843
                    6          7          8          9         10
     6  C    0.000000
     7  H    3.349908   0.000000
     8  O    4.361395   3.000280   0.000000
     9  H    2.179510   4.419379   4.093275   0.000000
    10  H    1.083194   4.342781   5.357414   2.641822   0.000000
    11  H    3.049066   2.704892   2.945060   2.677958   4.046933
    12  C    2.622594   2.938071   5.265530   4.740169   2.933141
    13  H    2.942495   3.691982   6.144198   5.062293   3.005384
    14  H    2.927665   3.693147   5.621076   5.041160   2.985492
    15  H    3.523637   2.678091   5.305232   5.518262   3.980716
                   11         12         13         14         15
    11  H    0.000000
    12  C    4.474063   0.000000
    13  H    4.889674   1.095248   0.000000
    14  H    5.208526   1.095361   1.759850   0.000000
    15  H    4.775294   1.091250   1.770701   1.770635   0.000000
 Stoichiometry    C7H7O(1+)
 Framework group  C1[X(C7H7O)]
 Deg. of freedom    39
 Full point group                 C1      NOp   1
 Largest Abelian subgroup         C1      NOp   1
 Largest concise Abelian subgroup C1      NOp   1
                         Standard orientation:                         
 ---------------------------------------------------------------------
 Center     Atomic      Atomic             Coordinates (Angstroms)
 Number     Number       Type             X           Y           Z
 ---------------------------------------------------------------------
      1          6           0       -1.323210   -0.216124    0.032182
      2          6           0       -0.169785   -0.716949    0.516848
      3          6           0        2.190855    0.058880   -0.180164
      4          6           0        0.870359    0.370749    0.555013
      5          6           0        0.143481    1.571759   -0.001449
      6          6           0       -1.118383    1.213018   -0.284264
      7          1           0        0.024431   -1.735809    0.820399
      8          8           0        2.638482   -0.995904   -0.452769
      9          1           0        0.603134    2.540895   -0.131346
     10          1           0       -1.888232    1.859955   -0.686898
     11          1           0        1.204802    0.574877    1.584530
     12          6           0       -2.619599   -0.934860   -0.179524
     13          1           0       -3.422959   -0.479818    0.409644
     14          1           0       -2.927572   -0.885672   -1.229547
     15          1           0       -2.543765   -1.986034    0.103511
 ---------------------------------------------------------------------
 Rotational constants (GHZ):           4.3040818           1.4595922           1.1775210
 Leave Link  202 at Wed Dec 03 16:51:22 2025, MaxMem=   104857600 cpu:               0.0 elap:               0.0
 (Enter D:\Gaussian\G16W\l301.exe)
 Standard basis: 6-31G(d) (6D, 7F)
 Ernie: Thresh=  0.10000D-02 Tol=  0.10000D-05 Strict=F.
 There are   134 symmetry adapted cartesian basis functions of A   symmetry.
 There are   134 symmetry adapted basis functions of A   symmetry.
   134 basis functions,   252 primitive gaussians,   134 cartesian basis functions
    28 alpha electrons       28 beta electrons
       nuclear repulsion energy       326.0428334110 Hartrees.
 IExCor=  402 DFT=T Ex+Corr=B3LYP ExCW=0 ScaHFX=  0.200000
 ScaDFX=  0.800000  0.720000  1.000000  0.810000 ScalE2=  1.000000  1.000000
 IRadAn=      5 IRanWt=     -1 IRanGd=            0 ICorTp=0 IEmpDi=  4
 NAtoms=   15 NActive=   15 NUniq=   15 SFac= 1.00D+00 NAtFMM=   60 NAOKFM=F Big=F
 Integral buffers will be    131072 words long.
 Raffenetti 2 integral format.
 Two-electron integral symmetry is turned on.
 Leave Link  301 at Wed Dec 03 16:51:22 2025, MaxMem=   104857600 cpu:               0.0 elap:               0.1
 (Enter D:\Gaussian\G16W\l302.exe)
 NPDir=0 NMtPBC=     1 NCelOv=     1 NCel=       1 NClECP=     1 NCelD=      1
         NCelK=      1 NCelE2=     1 NClLst=     1 CellRange=     0.0.
 One-electron integrals computed using PRISM.
 One-electron integral symmetry used in STVInt
 NBasis=   134 RedAO= T EigKep=  1.34D-03  NBF=   134
 NBsUse=   134 1.00D-06 EigRej= -1.00D+00 NBFU=   134
 Precomputing XC quadrature grid using
 IXCGrd= 4 IRadAn=           5 IRanWt=          -1 IRanGd=           0 AccXCQ= 0.00D+00.
 Generated NRdTot=       0 NPtTot=           0 NUsed=           0 NTot=          32
 NSgBfM=   134   134   134   134   134 MxSgAt=    15 MxSgA2=    15.
 Leave Link  302 at Wed Dec 03 16:51:22 2025, MaxMem=   104857600 cpu:               0.0 elap:               0.2
 (Enter D:\Gaussian\G16W\l303.exe)
 DipDrv:  MaxL=1.
 Leave Link  303 at Wed Dec 03 16:51:23 2025, MaxMem=   104857600 cpu:               1.0 elap:               0.1
 (Enter D:\Gaussian\G16W\l401.exe)
 ExpMin= 1.61D-01 ExpMax= 5.48D+03 ExpMxC= 8.25D+02 IAcc=3 IRadAn=         5 AccDes= 0.00D+00
 Harris functional with IExCor=  402 and IRadAn=       5 diagonalized for initial guess.
 HarFok:  IExCor=  402 AccDes= 0.00D+00 IRadAn=         5 IDoV= 1 UseB2=F ITyADJ=14
 ICtDFT=  3500011 ScaDFX=  1.000000  1.000000  1.000000  1.000000
 FoFCou: FMM=F IPFlag=           0 FMFlag=      100000 FMFlg1=           0
         NFxFlg=           0 DoJE=T BraDBF=F KetDBF=T FulRan=T
         wScrn=  0.000000 ICntrl=       500 IOpCl=  0 I1Cent=   200000004 NGrid=           0
         NMat0=    1 NMatS0=      1 NMatT0=    0 NMatD0=    1 NMtDS0=    0 NMtDT0=    0
 Petite list used in FoFCou.
 Harris En= -345.888091289360    
 JPrj=0 DoOrth=F DoCkMO=F.
 Leave Link  401 at Wed Dec 03 16:51:23 2025, MaxMem=   104857600 cpu:               0.0 elap:               0.7
 (Enter D:\Gaussian\G16W\l502.exe)
 Keep R1 ints in memory in canonical form, NReq=44746278.
 FoFCou: FMM=F IPFlag=           0 FMFlag=           0 FMFlg1=           0
         NFxFlg=           0 DoJE=F BraDBF=F KetDBF=F FulRan=T
         wScrn=  0.000000 ICntrl=       600 IOpCl=  0 I1Cent=           0 NGrid=           0
         NMat0=    1 NMatS0=   9045 NMatT0=    0 NMatD0=    1 NMtDS0=    0 NMtDT0=    0
 Symmetry not used in FoFCou.
 Two-electron integral symmetry not used.
 Closed shell SCF:
 Using DIIS extrapolation, IDIIS=  1040.
 NGot=   104857600 LenX=    63908728 LenY=    63890331
 Requested convergence on RMS density matrix=1.00D-07 within 128 cycles.
 Requested convergence on MAX density matrix=1.00D-05.
 Requested convergence on             energy=1.00D-05.
 No special actions if energy rises.
 Integral accuracy reduced to 1.0D-05 until final iterations.

 Cycle   1  Pass 0  IDiag  1:
 E= -345.555082591322    
 DIIS: error= 3.36D-02 at cycle   1 NSaved=   1.
 NSaved= 1 IEnMin= 1 EnMin= -345.555082591322     IErMin= 1 ErrMin= 3.36D-02
 ErrMax= 3.36D-02  0.00D+00 EMaxC= 1.00D-01 BMatC= 2.19D-01 BMatP= 2.19D-01
 IDIUse=3 WtCom= 6.64D-01 WtEn= 3.36D-01
 Coeff-Com:  0.100D+01
 Coeff-En:   0.100D+01
 Coeff:      0.100D+01
 Gap=    -0.157 Goal=   None    Shift=    0.000
 GapD=   -0.157 DampG=0.250 DampE=0.500 DampFc=0.2500 IDamp=-1.
 Damping current iteration by 2.50D-01
 RMSDP=1.47D-02 MaxDP=4.49D-01              OVMax= 7.30D-01

 Cycle   2  Pass 0  IDiag  1:
 E= -345.486397222075     Delta-E=        0.068685369247 Rises=F Damp=T
 DIIS: error= 1.47D-02 at cycle   2 NSaved=   2.
 NSaved= 2 IEnMin= 1 EnMin= -345.555082591322     IErMin= 2 ErrMin= 1.47D-02
 ErrMax= 1.47D-02  0.00D+00 EMaxC= 1.00D-01 BMatC= 5.34D-02 BMatP= 2.19D-01
 IDIUse=3 WtCom= 8.53D-01 WtEn= 1.47D-01
 Coeff-Com:  0.645D-01 0.935D+00
 Coeff-En:   0.615D+00 0.385D+00
 Coeff:      0.145D+00 0.855D+00
 Gap=     0.026 Goal=   None    Shift=    0.000
 RMSDP=5.23D-03 MaxDP=1.51D-01 DE= 6.87D-02 OVMax= 9.74D-01

 Cycle   3  Pass 0  IDiag  1:
 E= -345.525970621270     Delta-E=       -0.039573399195 Rises=F Damp=F
 DIIS: error= 4.95D-02 at cycle   3 NSaved=   3.
 NSaved= 3 IEnMin= 1 EnMin= -345.555082591322     IErMin= 2 ErrMin= 1.47D-02
 ErrMax= 4.95D-02  0.00D+00 EMaxC= 1.00D-01 BMatC= 2.83D-01 BMatP= 5.34D-02
 IDIUse=2 WtCom= 0.00D+00 WtEn= 1.00D+00
 EnCoef did     2 forward-backward iterations
 Coeff-En:   0.318D+00 0.290D+00 0.391D+00
 Coeff:      0.318D+00 0.290D+00 0.391D+00
 Gap=     0.044 Goal=   None    Shift=    0.000
 RMSDP=9.96D-03 MaxDP=2.22D-01 DE=-3.96D-02 OVMax= 7.97D-01

 Cycle   4  Pass 0  IDiag  1:
 E= -344.989802461121     Delta-E=        0.536168160149 Rises=F Damp=F
 DIIS: error= 4.97D-02 at cycle   4 NSaved=   4.
 NSaved= 4 IEnMin= 1 EnMin= -345.555082591322     IErMin= 2 ErrMin= 1.47D-02
 ErrMax= 4.97D-02  0.00D+00 EMaxC= 1.00D-01 BMatC= 4.87D-01 BMatP= 5.34D-02
 IDIUse=2 WtCom= 0.00D+00 WtEn= 1.00D+00
 EnCoef did     2 forward-backward iterations
 Coeff-En:   0.363D+00 0.000D+00 0.382D+00 0.254D+00
 Coeff:      0.363D+00 0.000D+00 0.382D+00 0.254D+00
 Gap=    -0.002 Goal=   None    Shift=    0.000
 RMSDP=8.40D-03 MaxDP=1.95D-01 DE= 5.36D-01 OVMax= 9.05D-01

 Cycle   5  Pass 0  IDiag  1:
 E= -345.780885523915     Delta-E=       -0.791083062794 Rises=F Damp=F
 DIIS: error= 1.24D-02 at cycle   5 NSaved=   5.
 NSaved= 5 IEnMin= 5 EnMin= -345.780885523915     IErMin= 5 ErrMin= 1.24D-02
 ErrMax= 1.24D-02  0.00D+00 EMaxC= 1.00D-01 BMatC= 2.40D-02 BMatP= 5.34D-02
 IDIUse=3 WtCom= 8.76D-01 WtEn= 1.24D-01
 Coeff-Com: -0.449D-01 0.337D+00 0.199D+00 0.238D-01 0.485D+00
 Coeff-En:   0.000D+00 0.000D+00 0.000D+00 0.000D+00 0.100D+01
 Coeff:     -0.393D-01 0.295D+00 0.175D+00 0.209D-01 0.549D+00
 Gap=     0.068 Goal=   None    Shift=    0.000
 RMSDP=1.63D-03 MaxDP=3.68D-02 DE=-7.91D-01 OVMax= 9.68D-02

 Cycle   6  Pass 0  IDiag  1:
 E= -345.781510573764     Delta-E=       -0.000625049849 Rises=F Damp=F
 DIIS: error= 1.02D-02 at cycle   6 NSaved=   6.
 NSaved= 6 IEnMin= 6 EnMin= -345.781510573764     IErMin= 6 ErrMin= 1.02D-02
 ErrMax= 1.02D-02  0.00D+00 EMaxC= 1.00D-01 BMatC= 1.73D-02 BMatP= 2.40D-02
 IDIUse=3 WtCom= 8.98D-01 WtEn= 1.02D-01
 EnCoef did     3 forward-backward iterations
 Coeff-Com: -0.119D+00 0.233D+00 0.126D-01-0.601D-02 0.365D+00 0.514D+00
 Coeff-En:   0.000D+00 0.000D+00 0.000D+00 0.100D-01 0.472D+00 0.517D+00
 Coeff:     -0.107D+00 0.210D+00 0.114D-01-0.437D-02 0.376D+00 0.515D+00
 Gap=     0.059 Goal=   None    Shift=    0.000
 RMSDP=1.05D-03 MaxDP=2.19D-02 DE=-6.25D-04 OVMax= 7.84D-02

 Cycle   7  Pass 0  IDiag  1:
 E= -345.801326968582     Delta-E=       -0.019816394818 Rises=F Damp=F
 DIIS: error= 4.41D-03 at cycle   7 NSaved=   7.
 NSaved= 7 IEnMin= 7 EnMin= -345.801326968582     IErMin= 7 ErrMin= 4.41D-03
 ErrMax= 4.41D-03  0.00D+00 EMaxC= 1.00D-01 BMatC= 2.30D-03 BMatP= 1.73D-02
 IDIUse=3 WtCom= 9.56D-01 WtEn= 4.41D-02
 Coeff-Com: -0.728D-01 0.101D+00-0.393D-01 0.672D-02 0.166D+00 0.289D+00
 Coeff-Com:  0.549D+00
 Coeff-En:   0.000D+00 0.000D+00 0.000D+00 0.000D+00 0.000D+00 0.000D+00
 Coeff-En:   0.100D+01
 Coeff:     -0.695D-01 0.968D-01-0.376D-01 0.642D-02 0.159D+00 0.276D+00
 Coeff:      0.569D+00
 Gap=     0.057 Goal=   None    Shift=    0.000
 RMSDP=4.02D-04 MaxDP=7.79D-03 DE=-1.98D-02 OVMax= 3.77D-02

 Cycle   8  Pass 0  IDiag  1:
 E= -345.804065530685     Delta-E=       -0.002738562103 Rises=F Damp=F
 DIIS: error= 1.85D-03 at cycle   8 NSaved=   8.
 NSaved= 8 IEnMin= 8 EnMin= -345.804065530685     IErMin= 8 ErrMin= 1.85D-03
 ErrMax= 1.85D-03  0.00D+00 EMaxC= 1.00D-01 BMatC= 3.00D-04 BMatP= 2.30D-03
 IDIUse=3 WtCom= 9.82D-01 WtEn= 1.85D-02
 Coeff-Com: -0.173D-01 0.216D-01-0.108D-01 0.353D-02-0.416D-01-0.638D-01
 Coeff-Com:  0.196D+00 0.913D+00
 Coeff-En:   0.000D+00 0.000D+00 0.000D+00 0.000D+00 0.000D+00 0.000D+00
 Coeff-En:   0.000D+00 0.100D+01
 Coeff:     -0.170D-01 0.212D-01-0.106D-01 0.347D-02-0.409D-01-0.626D-01
 Coeff:      0.192D+00 0.914D+00
 Gap=     0.058 Goal=   None    Shift=    0.000
 RMSDP=3.40D-04 MaxDP=5.85D-03 DE=-2.74D-03 OVMax= 3.46D-02

 Cycle   9  Pass 0  IDiag  1:
 E= -345.804637186192     Delta-E=       -0.000571655507 Rises=F Damp=F
 DIIS: error= 4.23D-04 at cycle   9 NSaved=   9.
 NSaved= 9 IEnMin= 9 EnMin= -345.804637186192     IErMin= 9 ErrMin= 4.23D-04
 ErrMax= 4.23D-04  0.00D+00 EMaxC= 1.00D-01 BMatC= 5.06D-05 BMatP= 3.00D-04
 IDIUse=3 WtCom= 9.96D-01 WtEn= 4.23D-03
 Coeff-Com:  0.745D-03 0.141D-02 0.640D-02-0.764D-03-0.304D-01-0.675D-01
 Coeff-Com: -0.980D-02 0.473D+00 0.627D+00
 Coeff-En:   0.000D+00 0.000D+00 0.000D+00 0.000D+00 0.000D+00 0.000D+00
 Coeff-En:   0.000D+00 0.000D+00 0.100D+01
 Coeff:      0.742D-03 0.140D-02 0.637D-02-0.761D-03-0.303D-01-0.672D-01
 Coeff:     -0.975D-02 0.471D+00 0.629D+00
 Gap=     0.059 Goal=   None    Shift=    0.000
 RMSDP=1.25D-04 MaxDP=2.46D-03 DE=-5.72D-04 OVMax= 1.30D-02

 Cycle  10  Pass 0  IDiag  1:
 E= -345.804667962350     Delta-E=       -0.000030776157 Rises=F Damp=F
 DIIS: error= 4.58D-04 at cycle  10 NSaved=  10.
 NSaved=10 IEnMin=10 EnMin= -345.804667962350     IErMin= 9 ErrMin= 4.23D-04
 ErrMax= 4.58D-04  0.00D+00 EMaxC= 1.00D-01 BMatC= 3.48D-05 BMatP= 5.06D-05
 IDIUse=3 WtCom= 9.96D-01 WtEn= 4.23D-03
 Coeff-Com:  0.113D-02 0.346D-03 0.560D-02-0.146D-02-0.285D-02-0.210D-01
 Coeff-Com: -0.550D-02 0.195D+00 0.365D+00 0.464D+00
 Coeff-En:   0.000D+00 0.000D+00 0.000D+00 0.000D+00 0.000D+00 0.000D+00
 Coeff-En:   0.000D+00 0.000D+00 0.207D+00 0.793D+00
 Coeff:      0.113D-02 0.344D-03 0.558D-02-0.145D-02-0.284D-02-0.209D-01
 Coeff:     -0.548D-02 0.194D+00 0.364D+00 0.466D+00
 Gap=     0.059 Goal=   None    Shift=    0.000
 RMSDP=2.92D-05 MaxDP=7.11D-04 DE=-3.08D-05 OVMax= 1.88D-03

 Cycle  11  Pass 0  IDiag  1:
 E= -345.804686862904     Delta-E=       -0.000018900554 Rises=F Damp=F
 DIIS: error= 4.04D-04 at cycle  11 NSaved=  11.
 NSaved=11 IEnMin=11 EnMin= -345.804686862904     IErMin=11 ErrMin= 4.04D-04
 ErrMax= 4.04D-04  0.00D+00 EMaxC= 1.00D-01 BMatC= 1.80D-05 BMatP= 3.48D-05
 IDIUse=3 WtCom= 9.96D-01 WtEn= 4.04D-03
 Coeff-Com: -0.753D-03 0.140D-02 0.790D-03-0.132D-02 0.153D-01 0.189D-01
 Coeff-Com:  0.298D-01 0.771D-02-0.261D-01 0.428D-01 0.912D+00
 Coeff-En:   0.000D+00 0.000D+00 0.000D+00 0.000D+00 0.000D+00 0.000D+00
 Coeff-En:   0.000D+00 0.000D+00 0.000D+00 0.000D+00 0.100D+01
 Coeff:     -0.750D-03 0.140D-02 0.787D-03-0.132D-02 0.153D-01 0.188D-01
 Coeff:      0.296D-01 0.768D-02-0.260D-01 0.426D-01 0.912D+00
 Gap=     0.060 Goal=   None    Shift=    0.000
 RMSDP=2.64D-05 MaxDP=5.83D-04 DE=-1.89D-05 OVMax= 1.63D-03

 Cycle  12  Pass 0  IDiag  1:
 E= -345.804706938885     Delta-E=       -0.000020075981 Rises=F Damp=F
 DIIS: error= 1.77D-04 at cycle  12 NSaved=  12.
 NSaved=12 IEnMin=12 EnMin= -345.804706938885     IErMin=12 ErrMin= 1.77D-04
 ErrMax= 1.77D-04  0.00D+00 EMaxC= 1.00D-01 BMatC= 3.92D-06 BMatP= 1.80D-05
 IDIUse=3 WtCom= 9.98D-01 WtEn= 1.77D-03
 Coeff-Com: -0.705D-03 0.949D-03-0.857D-03-0.533D-03 0.750D-02 0.134D-01
 Coeff-Com:  0.197D-01-0.271D-01-0.115D+00-0.226D+00 0.199D+00 0.113D+01
 Coeff-En:   0.000D+00 0.000D+00 0.000D+00 0.000D+00 0.000D+00 0.000D+00
 Coeff-En:   0.000D+00 0.000D+00 0.000D+00 0.000D+00 0.000D+00 0.100D+01
 Coeff:     -0.704D-03 0.948D-03-0.855D-03-0.532D-03 0.748D-02 0.134D-01
 Coeff:      0.196D-01-0.271D-01-0.115D+00-0.225D+00 0.199D+00 0.113D+01
 Gap=     0.060 Goal=   None    Shift=    0.000
 RMSDP=2.11D-05 MaxDP=3.66D-04 DE=-2.01D-05 OVMax= 1.03D-03

 Cycle  13  Pass 0  IDiag  1:
 E= -345.804712135674     Delta-E=       -0.000005196789 Rises=F Damp=F
 DIIS: error= 1.07D-05 at cycle  13 NSaved=  13.
 NSaved=13 IEnMin=13 EnMin= -345.804712135674     IErMin=13 ErrMin= 1.07D-05
 ErrMax= 1.07D-05  0.00D+00 EMaxC= 1.00D-01 BMatC= 3.67D-08 BMatP= 3.92D-06
 IDIUse=1 WtCom= 1.00D+00 WtEn= 0.00D+00
 Coeff-Com: -0.143D-03 0.173D-03-0.266D-03-0.535D-04 0.528D-03 0.191D-02
 Coeff-Com:  0.177D-02-0.818D-02-0.326D-01-0.845D-01-0.547D-01 0.364D+00
 Coeff-Com:  0.812D+00
 Coeff:     -0.143D-03 0.173D-03-0.266D-03-0.535D-04 0.528D-03 0.191D-02
 Coeff:      0.177D-02-0.818D-02-0.326D-01-0.845D-01-0.547D-01 0.364D+00
 Coeff:      0.812D+00
 Gap=     0.060 Goal=   None    Shift=    0.000
 RMSDP=4.15D-06 MaxDP=6.52D-05 DE=-5.20D-06 OVMax= 2.44D-04

 Initial convergence to 1.0D-05 achieved.  Increase integral accuracy.
 Cycle  14  Pass 1  IDiag  1:
 E= -345.804698511970     Delta-E=        0.000013623704 Rises=F Damp=F
 DIIS: error= 1.93D-05 at cycle   1 NSaved=   1.
 NSaved= 1 IEnMin= 1 EnMin= -345.804698511970     IErMin= 1 ErrMin= 1.93D-05
 ErrMax= 1.93D-05  0.00D+00 EMaxC= 1.00D-01 BMatC= 4.12D-08 BMatP= 4.12D-08
 IDIUse=1 WtCom= 1.00D+00 WtEn= 0.00D+00
 Coeff-Com:  0.100D+01
 Coeff:      0.100D+01
 Gap=     0.060 Goal=   None    Shift=    0.000
 RMSDP=4.15D-06 MaxDP=6.52D-05 DE= 1.36D-05 OVMax= 8.61D-04

 Cycle  15  Pass 1  IDiag  1:
 E= -345.804698064280     Delta-E=        0.000000447690 Rises=F Damp=F
 DIIS: error= 6.09D-05 at cycle   2 NSaved=   2.
 NSaved= 2 IEnMin= 1 EnMin= -345.804698511970     IErMin= 1 ErrMin= 1.93D-05
 ErrMax= 6.09D-05  0.00D+00 EMaxC= 1.00D-01 BMatC= 3.68D-07 BMatP= 4.12D-08
 IDIUse=1 WtCom= 1.00D+00 WtEn= 0.00D+00
 Coeff-Com:  0.753D+00 0.247D+00
 Coeff:      0.753D+00 0.247D+00
 Gap=     0.060 Goal=   None    Shift=    0.000
 RMSDP=7.47D-06 MaxDP=1.47D-04 DE= 4.48D-07 OVMax= 7.17D-04

 Cycle  16  Pass 1  IDiag  1:
 E= -345.804698567013     Delta-E=       -0.000000502733 Rises=F Damp=F
 DIIS: error= 2.55D-06 at cycle   3 NSaved=   3.
 NSaved= 3 IEnMin= 3 EnMin= -345.804698567013     IErMin= 3 ErrMin= 2.55D-06
 ErrMax= 2.55D-06  0.00D+00 EMaxC= 1.00D-01 BMatC= 2.26D-09 BMatP= 4.12D-08
 IDIUse=1 WtCom= 1.00D+00 WtEn= 0.00D+00
 Coeff-Com:  0.347D+00 0.132D+00 0.521D+00
 Coeff:      0.347D+00 0.132D+00 0.521D+00
 Gap=     0.060 Goal=   None    Shift=    0.000
 RMSDP=4.05D-07 MaxDP=1.28D-05 DE=-5.03D-07 OVMax= 2.34D-05

 Cycle  17  Pass 1  IDiag  1:
 E= -345.804698568614     Delta-E=       -0.000000001600 Rises=F Damp=F
 DIIS: error= 1.96D-06 at cycle   4 NSaved=   4.
 NSaved= 4 IEnMin= 4 EnMin= -345.804698568614     IErMin= 4 ErrMin= 1.96D-06
 ErrMax= 1.96D-06  0.00D+00 EMaxC= 1.00D-01 BMatC= 6.98D-10 BMatP= 2.26D-09
 IDIUse=1 WtCom= 1.00D+00 WtEn= 0.00D+00
 Coeff-Com:  0.423D-01 0.358D-01 0.356D+00 0.566D+00
 Coeff:      0.423D-01 0.358D-01 0.356D+00 0.566D+00
 Gap=     0.060 Goal=   None    Shift=    0.000
 RMSDP=1.75D-07 MaxDP=4.46D-06 DE=-1.60D-09 OVMax= 7.24D-06

 Cycle  18  Pass 1  IDiag  1:
 E= -345.804698569193     Delta-E=       -0.000000000580 Rises=F Damp=F
 DIIS: error= 1.44D-06 at cycle   5 NSaved=   5.
 NSaved= 5 IEnMin= 5 EnMin= -345.804698569193     IErMin= 5 ErrMin= 1.44D-06
 ErrMax= 1.44D-06  0.00D+00 EMaxC= 1.00D-01 BMatC= 1.79D-10 BMatP= 6.98D-10
 IDIUse=1 WtCom= 1.00D+00 WtEn= 0.00D+00
 Coeff-Com: -0.119D-01 0.143D-01 0.182D+00 0.377D+00 0.438D+00
 Coeff:     -0.119D-01 0.143D-01 0.182D+00 0.377D+00 0.438D+00
 Gap=     0.060 Goal=   None    Shift=    0.000
 RMSDP=9.70D-08 MaxDP=2.60D-06 DE=-5.80D-10 OVMax= 6.34D-06

 SCF Done:  E(RB3LYP) =  -345.804698569     A.U. after   18 cycles
            NFock= 18  Conv=0.97D-07     -V/T= 2.0100
 KE= 3.423802789217D+02 PE=-1.443621137893D+03 EE= 4.293933269911D+02
 Leave Link  502 at Wed Dec 03 16:51:34 2025, MaxMem=   104857600 cpu:              11.0 elap:              11.0
 (Enter D:\Gaussian\G16W\l601.exe)
 Copying SCF densities to generalized density rwf, IOpCl= 0 IROHF=0.

 **********************************************************************

            Population analysis using the SCF density.

 **********************************************************************

 Orbital symmetries:
       Occupied  (A) (A) (A) (A) (A) (A) (A) (A) (A) (A) (A) (A)
                 (A) (A) (A) (A) (A) (A) (A) (A) (A) (A) (A) (A)
                 (A) (A) (A) (A)
       Virtual   (A) (A) (A) (A) (A) (A) (A) (A) (A) (A) (A) (A)
                 (A) (A) (A) (A) (A) (A) (A) (A) (A) (A) (A) (A)
                 (A) (A) (A) (A) (A) (A) (A) (A) (A) (A) (A) (A)
                 (A) (A) (A) (A) (A) (A) (A) (A) (A) (A) (A) (A)
                 (A) (A) (A) (A) (A) (A) (A) (A) (A) (A) (A) (A)
                 (A) (A) (A) (A) (A) (A) (A) (A) (A) (A) (A) (A)
                 (A) (A) (A) (A) (A) (A) (A) (A) (A) (A) (A) (A)
                 (A) (A) (A) (A) (A) (A) (A) (A) (A) (A) (A) (A)
                 (A) (A) (A) (A) (A) (A) (A) (A) (A) (A)
 The electronic state is 1-A.
 Alpha  occ. eigenvalues --  -19.49125 -10.58465 -10.46474 -10.41017 -10.39455
 Alpha  occ. eigenvalues --  -10.39273 -10.37956 -10.34689  -1.36630  -1.08194
 Alpha  occ. eigenvalues --   -0.96954  -0.92055  -0.86964  -0.79694  -0.75406
 Alpha  occ. eigenvalues --   -0.72921  -0.71329  -0.70508  -0.67363  -0.65612
 Alpha  occ. eigenvalues --   -0.61235  -0.59074  -0.58254  -0.57224  -0.55791
 Alpha  occ. eigenvalues --   -0.53064  -0.49429  -0.41984
 Alpha virt. eigenvalues --   -0.35946  -0.27257  -0.21655  -0.11549  -0.06343
 Alpha virt. eigenvalues --   -0.03993  -0.03331  -0.01545  -0.00701   0.00825
 Alpha virt. eigenvalues --    0.01534   0.03339   0.04524   0.05619   0.07726
 Alpha virt. eigenvalues --    0.10976   0.18195   0.21265   0.24157   0.27671
 Alpha virt. eigenvalues --    0.31725   0.33486   0.34868   0.36406   0.38148
 Alpha virt. eigenvalues --    0.38977   0.41901   0.43054   0.44819   0.45401
 Alpha virt. eigenvalues --    0.46784   0.48786   0.51663   0.53570   0.55754
 Alpha virt. eigenvalues --    0.58461   0.59975   0.61522   0.64399   0.66007
 Alpha virt. eigenvalues --    0.67642   0.68155   0.70129   0.72259   0.74059
 Alpha virt. eigenvalues --    0.74820   0.77392   0.79509   0.80826   0.81615
 Alpha virt. eigenvalues --    0.94869   0.95916   1.00500   1.08470   1.13256
 Alpha virt. eigenvalues --    1.17644   1.18422   1.21885   1.25060   1.28006
 Alpha virt. eigenvalues --    1.30270   1.32623   1.34649   1.40850   1.43140
 Alpha virt. eigenvalues --    1.50470   1.52122   1.59915   1.62493   1.65520
 Alpha virt. eigenvalues --    1.70335   1.71716   1.74803   1.79770   1.82460
 Alpha virt. eigenvalues --    1.83223   1.86191   1.91099   1.97791   1.98477
 Alpha virt. eigenvalues --    2.01706   2.10895   2.14466   2.16717   2.17960
 Alpha virt. eigenvalues --    2.19307   2.25659   2.29690   2.34769   2.37031
 Alpha virt. eigenvalues --    2.43296   2.50077   2.53734   2.56980   2.67261
 Alpha virt. eigenvalues --    2.73207   2.80503   2.86146   3.62681   3.79411
 Alpha virt. eigenvalues --    3.90431   3.95529   4.07111   4.09777   4.33041
 Alpha virt. eigenvalues --    4.36562
          Condensed to atoms (all electrons):
               1          2          3          4          5          6
     1  C    4.593000   0.590652  -0.001263  -0.041302  -0.002250   0.426271
     2  C    0.590652   5.092799  -0.024778   0.355681  -0.118497  -0.032335
     3  C   -0.001263  -0.024778   4.779651   0.201609  -0.010628   0.000876
     4  C   -0.041302   0.355681   0.201609   5.340594   0.313087  -0.076197
     5  C   -0.002250  -0.118497  -0.010628   0.313087   5.005401   0.617820
     6  C    0.426271  -0.032335   0.000876  -0.076197   0.617820   4.864595
     7  H   -0.023470   0.367389  -0.001094  -0.046322   0.003404   0.005304
     8  O   -0.000021  -0.010928   0.569369  -0.041306   0.001473   0.000077
     9  H    0.002843   0.004594  -0.000004  -0.045747   0.366970  -0.020161
    10  H   -0.038261   0.005629  -0.000026   0.006169  -0.043033   0.372667
    11  H   -0.001872  -0.017377  -0.040275   0.346904  -0.021493  -0.000877
    12  C    0.375100  -0.067953  -0.000027   0.008341   0.006087  -0.058611
    13  H   -0.023167   0.001925  -0.000003  -0.000324   0.000050  -0.001216
    14  H   -0.023139   0.000602   0.000011  -0.000153   0.000057  -0.002403
    15  H   -0.026742  -0.004106  -0.000002   0.000026  -0.000177   0.003813
               7          8          9         10         11         12
     1  C   -0.023470  -0.000021   0.002843  -0.038261  -0.001872   0.375100
     2  C    0.367389  -0.010928   0.004594   0.005629  -0.017377  -0.067953
     3  C   -0.001094   0.569369  -0.000004  -0.000026  -0.040275  -0.000027
     4  C   -0.046322  -0.041306  -0.045747   0.006169   0.346904   0.008341
     5  C    0.003404   0.001473   0.366970  -0.043033  -0.021493   0.006087
     6  C    0.005304   0.000077  -0.020161   0.372667  -0.000877  -0.058611
     7  H    0.476856   0.001682  -0.000035  -0.000104   0.000609  -0.004516
     8  O    0.001682   7.586585  -0.000024   0.000000  -0.000913  -0.000007
     9  H   -0.000035  -0.000024   0.472220  -0.002551   0.000276  -0.000136
    10  H   -0.000104   0.000000  -0.002551   0.488055  -0.000087  -0.003266
    11  H    0.000609  -0.000913   0.000276  -0.000087   0.433982  -0.000097
    12  C   -0.004516  -0.000007  -0.000136  -0.003266  -0.000097   5.186733
    13  H    0.000051   0.000000  -0.000001   0.000848   0.000015   0.361573
    14  H    0.000031   0.000001   0.000001   0.000828  -0.000002   0.364809
    15  H    0.003112   0.000000   0.000002  -0.000014  -0.000004   0.370977
              13         14         15
     1  C   -0.023167  -0.023139  -0.026742
     2  C    0.001925   0.000602  -0.004106
     3  C   -0.000003   0.000011  -0.000002
     4  C   -0.000324  -0.000153   0.000026
     5  C    0.000050   0.000057  -0.000177
     6  C   -0.001216  -0.002403   0.003813
     7  H    0.000051   0.000031   0.003112
     8  O    0.000000   0.000001   0.000000
     9  H   -0.000001   0.000001   0.000002
    10  H    0.000848   0.000828  -0.000014
    11  H    0.000015  -0.000002  -0.000004
    12  C    0.361573   0.364809   0.370977
    13  H    0.483295  -0.022891  -0.022604
    14  H   -0.022891   0.479789  -0.023007
    15  H   -0.022604  -0.023007   0.492812
 Mulliken charges:
               1
     1  C    0.193619
     2  C   -0.143295
     3  C    0.526586
     4  C   -0.321060
     5  C   -0.118274
     6  C   -0.099623
     7  H    0.217103
     8  O   -0.105988
     9  H    0.221753
    10  H    0.213146
    11  H    0.301211
    12  C   -0.539007
    13  H    0.222448
    14  H    0.225466
    15  H    0.205914
 Sum of Mulliken charges =   1.00000
 Mulliken charges with hydrogens summed into heavy atoms:
               1
     1  C    0.193619
     2  C    0.073808
     3  C    0.526586
     4  C   -0.019849
     5  C    0.103480
     6  C    0.113523
     8  O   -0.105988
    12  C    0.114821
 Electronic spatial extent (au):  <R**2>=            972.7048
 Charge=              1.0000 electrons
 Dipole moment (field-independent basis, Debye):
    X=              1.3579    Y=              0.8934    Z=              0.5628  Tot=              1.7201
 Quadrupole moment (field-independent basis, Debye-Ang):
   XX=            -23.0251   YY=            -36.4716   ZZ=            -42.0322
   XY=              2.9601   XZ=              2.7582   YZ=             -1.0166
 Traceless Quadrupole moment (field-independent basis, Debye-Ang):
   XX=             10.8178   YY=             -2.6286   ZZ=             -8.1892
   XY=              2.9601   XZ=              2.7582   YZ=             -1.0166
 Octapole moment (field-independent basis, Debye-Ang**2):
  XXX=              5.2690  YYY=              0.7713  ZZZ=             -0.1515  XYY=             -0.0692
  XXY=             -0.8536  XXZ=             -3.4945  XZZ=              5.3170  YZZ=             -1.8206
  YYZ=             -0.8293  XYZ=              1.4238
 Hexadecapole moment (field-independent basis, Debye-Ang**3):
 XXXX=           -692.2330 YYYY=           -262.9033 ZZZZ=            -83.9632 XXXY=              6.8765
 XXXZ=              4.0796 YYYX=             -4.6044 YYYZ=             -8.7988 ZZZX=              4.3998
 ZZZY=              5.7365 XXYY=           -172.6012 XXZZ=           -140.8450 YYZZ=            -65.7523
 XXYZ=             -0.5284 YYXZ=              3.1999 ZZXY=             -1.6849
 N-N= 3.260428334110D+02 E-N=-1.443621181837D+03  KE= 3.423802789217D+02
 No NMR shielding tensors so no spin-rotation constants.
 Leave Link  601 at Wed Dec 03 16:51:34 2025, MaxMem=   104857600 cpu:               0.0 elap:               0.1
 (Enter D:\Gaussian\G16W\l9999.exe)
 1|1|UNPC-PC-20250526LCFF|SP|RB3LYP|6-31G(d)|C7H7O1(1+)|ADMINISTRATOR|0
 3-Dec-2025|0||#P B3LYP/6-31G* SCF=conver=7 out=wfn||Generated by Multi
 wfn (http://sobereva.com/multiwfn)||1,1|C,0,-1.32321,-0.216124,0.03218
 2|C,0,-0.169785,-0.716949,0.516848|C,0,2.190855,0.05888,-0.180164|C,0,
 0.870359,0.370749,0.555013|C,0,0.143481,1.571759,-0.001449|C,0,-1.1183
 83,1.213018,-0.284264|H,0,0.024431,-1.735809,0.820399|O,0,2.638482,-0.
 995904,-0.452769|H,0,0.603134,2.540895,-0.131346|H,0,-1.888232,1.85995
 5,-0.686898|H,0,1.204802,0.574877,1.58453|C,0,-2.619599,-0.93486,-0.17
 9524|H,0,-3.422959,-0.479819,0.409644|H,0,-2.927572,-0.885672,-1.22954
 7|H,0,-2.543765,-1.986034,0.103511||Version=EM64W-G16RevA.03|State=1-A
 |HF=-345.8046986|RMSD=9.698e-008|Dipole=0.5342342,0.3514902,0.2214141|
 Quadrupole=8.0427928,-1.9543305,-6.0884623,2.2007894,2.0506587,-0.7558
 33|PG=C01 [X(C7H7O1)]||@

 Writing a WFN file to "N-1.wfn"


 10 WHATSOEVER THY HAND FINDETH TO DO, DO IT WITH THY  
 MIGHT. FOR THERE IS NO WORK, NOR DEVICE, NOR KNOWLEDGE, NOR  
 WISDOM, IN THE GRAVE, WHITHER THOU GOEST.                    
 11 I RETURNED AND SAW UNDER THE SUN, THAT THE RACE IS NOT TO 
 THE SWIFT, NOR THE BATTLE TO THE STRONG, NEITHER YET BREAD TO
 THE WISE, NOR YET RICHES TO MEN OF UNDERSTANDING, NOR YET    
 FAVOR TO MEN OF SKILL. BUT TIME AND CHANCE HAPPEN TO THEM ALL.
 12 FOR MAN ALSO KNOWETH NOT HIS TIME. AS THE FISHES   
 THAT ARE TAKEN IN AN EVIL NET, AND AS THE BIRDS THAT ARE     
 CAUGHT IN THE SNARE. SO ARE THE SONS OF MEN SNARED IN AN EVIL
 TIME, WHEN IT FALLETH SUDDENLY UPON THEM.
                                         ECCLESIASTES 9
 Job cpu time:       0 days  0 hours  0 minutes 13.0 seconds.
 Elapsed time:       0 days  0 hours  0 minutes 12.6 seconds.
 File lengths (MBytes):  RWF=     10 Int=      0 D2E=      0 Chk=      2 Scr=      1
 Normal termination of Gaussian 16 at Wed Dec 03 16:51:35 2025.
