 Generated by Multiwfn (http://sobereva.com/multiwfn)
GAUSSIAN             28 MOL ORBITALS    252 PRIMITIVES       15 NUCLEI
  C    1    (CENTRE  1)  -2.50050467 -0.40841476  0.06081540  CHARGE =  6.0
  C    2    (CENTRE  2)  -0.32084745 -1.35483717  0.97670140  CHARGE =  6.0
  C    3    (CENTRE  3)   4.14011585  0.11126648 -0.34046039  CHARGE =  6.0
  C    4    (CENTRE  4)   1.64474015  0.70061386  1.04882280  CHARGE =  6.0
  C    5    (CENTRE  5)   0.27114014  2.97019404 -0.00273798  CHARGE =  6.0
  C    6    (CENTRE  6)  -2.11343733  2.29227216 -0.53718088  CHARGE =  6.0
  H    7    (CENTRE  7)   0.04616731 -3.28020359  1.55032965  CHARGE =  1.0
  O    8    (CENTRE  8)   4.98600798 -1.88198652 -0.85560918  CHARGE =  8.0
  H    9    (CENTRE  9)   1.13975870  4.80159552 -0.24820774  CHARGE =  1.0
  H   10    (CENTRE 10)  -3.56824091  3.51480612 -1.29804886  CHARGE =  1.0
  H   11    (CENTRE 11)   2.27674588  1.08635978  2.99432797  CHARGE =  1.0
  C   12    (CENTRE 12)  -4.95032503 -1.76662859 -0.33925096  CHARGE =  6.0
  H   13    (CENTRE 13)  -6.46845528 -0.90672549  0.77411520  CHARGE =  1.0
  H   14    (CENTRE 14)  -5.53230964 -1.67367665 -2.32350686  CHARGE =  1.0
  H   15    (CENTRE 15)  -4.80701984 -3.75305958  0.19560767  CHARGE =  1.0
CENTRE ASSIGNMENTS    1  1  1  1  1  1  1  1  1  1  1  1  1  1  1  1  1  1  1  1
CENTRE ASSIGNMENTS    1  1  1  1  1  1  1  1  2  2  2  2  2  2  2  2  2  2  2  2
CENTRE ASSIGNMENTS    2  2  2  2  2  2  2  2  2  2  2  2  2  2  2  2  3  3  3  3
CENTRE ASSIGNMENTS    3  3  3  3  3  3  3  3  3  3  3  3  3  3  3  3  3  3  3  3
CENTRE ASSIGNMENTS    3  3  3  3  4  4  4  4  4  4  4  4  4  4  4  4  4  4  4  4
CENTRE ASSIGNMENTS    4  4  4  4  4  4  4  4  4  4  4  4  5  5  5  5  5  5  5  5
CENTRE ASSIGNMENTS    5  5  5  5  5  5  5  5  5  5  5  5  5  5  5  5  5  5  5  5
CENTRE ASSIGNMENTS    6  6  6  6  6  6  6  6  6  6  6  6  6  6  6  6  6  6  6  6
CENTRE ASSIGNMENTS    6  6  6  6  6  6  6  6  7  7  7  7  8  8  8  8  8  8  8  8
CENTRE ASSIGNMENTS    8  8  8  8  8  8  8  8  8  8  8  8  8  8  8  8  8  8  8  8
CENTRE ASSIGNMENTS    9  9  9  9 10 10 10 10 11 11 11 11 12 12 12 12 12 12 12 12
CENTRE ASSIGNMENTS   12 12 12 12 12 12 12 12 12 12 12 12 12 12 12 12 12 12 12 12
CENTRE ASSIGNMENTS   13 13 13 13 14 14 14 14 15 15 15 15
TYPE ASSIGNMENTS      1  1  1  1  1  1  1  1  1  2  2  2  3  3  3  4  4  4  1  2
TYPE ASSIGNMENTS      3  4  5  6  7  8  9 10  1  1  1  1  1  1  1  1  1  2  2  2
TYPE ASSIGNMENTS      3  3  3  4  4  4  1  2  3  4  5  6  7  8  9 10  1  1  1  1
TYPE ASSIGNMENTS      1  1  1  1  1  2  2  2  3  3  3  4  4  4  1  2  3  4  5  6
TYPE ASSIGNMENTS      7  8  9 10  1  1  1  1  1  1  1  1  1  2  2  2  3  3  3  4
TYPE ASSIGNMENTS      4  4  1  2  3  4  5  6  7  8  9 10  1  1  1  1  1  1  1  1
TYPE ASSIGNMENTS      1  2  2  2  3  3  3  4  4  4  1  2  3  4  5  6  7  8  9 10
TYPE ASSIGNMENTS      1  1  1  1  1  1  1  1  1  2  2  2  3  3  3  4  4  4  1  2
TYPE ASSIGNMENTS      3  4  5  6  7  8  9 10  1  1  1  1  1  1  1  1  1  1  1  1
TYPE ASSIGNMENTS      1  2  2  2  3  3  3  4  4  4  1  2  3  4  5  6  7  8  9 10
TYPE ASSIGNMENTS      1  1  1  1  1  1  1  1  1  1  1  1  1  1  1  1  1  1  1  1
TYPE ASSIGNMENTS      1  2  2  2  3  3  3  4  4  4  1  2  3  4  5  6  7  8  9 10
TYPE ASSIGNMENTS      1  1  1  1  1  1  1  1  1  1  1  1
EXPONENTS  0.3047525D+04 0.4573695D+03 0.1039487D+03 0.2921016D+02 0.9286663D+01
EXPONENTS  0.3163927D+01 0.7868272D+01 0.1881289D+01 0.5442493D+00 0.7868272D+01
EXPONENTS  0.1881289D+01 0.5442493D+00 0.7868272D+01 0.1881289D+01 0.5442493D+00
EXPONENTS  0.7868272D+01 0.1881289D+01 0.5442493D+00 0.1687145D+00 0.1687145D+00
EXPONENTS  0.1687145D+00 0.1687145D+00 0.8000000D+00 0.8000000D+00 0.8000000D+00
EXPONENTS  0.8000000D+00 0.8000000D+00 0.8000000D+00 0.3047525D+04 0.4573695D+03
EXPONENTS  0.1039487D+03 0.2921016D+02 0.9286663D+01 0.3163927D+01 0.7868272D+01
EXPONENTS  0.1881289D+01 0.5442493D+00 0.7868272D+01 0.1881289D+01 0.5442493D+00
EXPONENTS  0.7868272D+01 0.1881289D+01 0.5442493D+00 0.7868272D+01 0.1881289D+01
EXPONENTS  0.5442493D+00 0.1687145D+00 0.1687145D+00 0.1687145D+00 0.1687145D+00
EXPONENTS  0.8000000D+00 0.8000000D+00 0.8000000D+00 0.8000000D+00 0.8000000D+00
EXPONENTS  0.8000000D+00 0.3047525D+04 0.4573695D+03 0.1039487D+03 0.2921016D+02
EXPONENTS  0.9286663D+01 0.3163927D+01 0.7868272D+01 0.1881289D+01 0.5442493D+00
EXPONENTS  0.7868272D+01 0.1881289D+01 0.5442493D+00 0.7868272D+01 0.1881289D+01
EXPONENTS  0.5442493D+00 0.7868272D+01 0.1881289D+01 0.5442493D+00 0.1687145D+00
EXPONENTS  0.1687145D+00 0.1687145D+00 0.1687145D+00 0.8000000D+00 0.8000000D+00
EXPONENTS  0.8000000D+00 0.8000000D+00 0.8000000D+00 0.8000000D+00 0.3047525D+04
EXPONENTS  0.4573695D+03 0.1039487D+03 0.2921016D+02 0.9286663D+01 0.3163927D+01
EXPONENTS  0.7868272D+01 0.1881289D+01 0.5442493D+00 0.7868272D+01 0.1881289D+01
EXPONENTS  0.5442493D+00 0.7868272D+01 0.1881289D+01 0.5442493D+00 0.7868272D+01
EXPONENTS  0.1881289D+01 0.5442493D+00 0.1687145D+00 0.1687145D+00 0.1687145D+00
EXPONENTS  0.1687145D+00 0.8000000D+00 0.8000000D+00 0.8000000D+00 0.8000000D+00
EXPONENTS  0.8000000D+00 0.8000000D+00 0.3047525D+04 0.4573695D+03 0.1039487D+03
EXPONENTS  0.2921016D+02 0.9286663D+01 0.3163927D+01 0.7868272D+01 0.1881289D+01
EXPONENTS  0.5442493D+00 0.7868272D+01 0.1881289D+01 0.5442493D+00 0.7868272D+01
EXPONENTS  0.1881289D+01 0.5442493D+00 0.7868272D+01 0.1881289D+01 0.5442493D+00
EXPONENTS  0.1687145D+00 0.1687145D+00 0.1687145D+00 0.1687145D+00 0.8000000D+00
EXPONENTS  0.8000000D+00 0.8000000D+00 0.8000000D+00 0.8000000D+00 0.8000000D+00
EXPONENTS  0.3047525D+04 0.4573695D+03 0.1039487D+03 0.2921016D+02 0.9286663D+01
EXPONENTS  0.3163927D+01 0.7868272D+01 0.1881289D+01 0.5442493D+00 0.7868272D+01
EXPONENTS  0.1881289D+01 0.5442493D+00 0.7868272D+01 0.1881289D+01 0.5442493D+00
EXPONENTS  0.7868272D+01 0.1881289D+01 0.5442493D+00 0.1687145D+00 0.1687145D+00
EXPONENTS  0.1687145D+00 0.1687145D+00 0.8000000D+00 0.8000000D+00 0.8000000D+00
EXPONENTS  0.8000000D+00 0.8000000D+00 0.8000000D+00 0.1873114D+02 0.2825394D+01
EXPONENTS  0.6401217D+00 0.1612778D+00 0.5484672D+04 0.8252349D+03 0.1880470D+03
EXPONENTS  0.5296450D+02 0.1689757D+02 0.5799635D+01 0.1553962D+02 0.3599934D+01
EXPONENTS  0.1013762D+01 0.1553962D+02 0.3599934D+01 0.1013762D+01 0.1553962D+02
EXPONENTS  0.3599934D+01 0.1013762D+01 0.1553962D+02 0.3599934D+01 0.1013762D+01
EXPONENTS  0.2700058D+00 0.2700058D+00 0.2700058D+00 0.2700058D+00 0.8000000D+00
EXPONENTS  0.8000000D+00 0.8000000D+00 0.8000000D+00 0.8000000D+00 0.8000000D+00
EXPONENTS  0.1873114D+02 0.2825394D+01 0.6401217D+00 0.1612778D+00 0.1873114D+02
EXPONENTS  0.2825394D+01 0.6401217D+00 0.1612778D+00 0.1873114D+02 0.2825394D+01
EXPONENTS  0.6401217D+00 0.1612778D+00 0.3047525D+04 0.4573695D+03 0.1039487D+03
EXPONENTS  0.2921016D+02 0.9286663D+01 0.3163927D+01 0.7868272D+01 0.1881289D+01
EXPONENTS  0.5442493D+00 0.7868272D+01 0.1881289D+01 0.5442493D+00 0.7868272D+01
EXPONENTS  0.1881289D+01 0.5442493D+00 0.7868272D+01 0.1881289D+01 0.5442493D+00
EXPONENTS  0.1687145D+00 0.1687145D+00 0.1687145D+00 0.1687145D+00 0.8000000D+00
EXPONENTS  0.8000000D+00 0.8000000D+00 0.8000000D+00 0.8000000D+00 0.8000000D+00
EXPONENTS  0.1873114D+02 0.2825394D+01 0.6401217D+00 0.1612778D+00 0.1873114D+02
EXPONENTS  0.2825394D+01 0.6401217D+00 0.1612778D+00 0.1873114D+02 0.2825394D+01
EXPONENTS  0.6401217D+00 0.1612778D+00
MO    1     MO 0.0        OCC NO =    2.0000000  ORB. ENERGY =  -19.491255
 -0.16317075D-05 -0.30101817D-05 -0.48593666D-05 -0.63254515D-05 -0.53975192D-05
 -0.18636337D-05  0.46094645D-05  0.21244980D-05 -0.59573141D-05 -0.33406288D-04
 -0.25613823D-04 -0.12783093D-04 -0.64893767D-05 -0.49756424D-05 -0.24831943D-05
  0.18361557D-05  0.14078477D-05  0.70261469D-06  0.46168638D-04  0.40600020D-04
  0.70507709D-04 -0.60530028D-05 -0.17576429D-04  0.57401638D-05 -0.10086140D-04
  0.20480434D-04 -0.15973542D-04  0.12924694D-04  0.55057244D-05  0.10156986D-04
  0.16396525D-04  0.21343404D-04  0.18212365D-04  0.62882921D-05 -0.96455585D-05
 -0.44456291D-05  0.12466008D-04  0.45563375D-04  0.34935106D-04  0.17435066D-04
 -0.24220218D-04 -0.18570527D-04 -0.92679947D-05 -0.93634979D-05 -0.71793363D-05
 -0.35829920D-05 -0.12560007D-03 -0.68090116D-04 -0.67894840D-04 -0.33446327D-05
  0.56182752D-04 -0.25795424D-04  0.40931371D-04 -0.84343819D-04 -0.19393093D-04
  0.49178470D-05  0.12039728D-04  0.22210948D-04  0.35855357D-04  0.46673021D-04
  0.39826174D-04  0.13751021D-04 -0.17823450D-03 -0.82148118D-04  0.23035190D-03
 -0.98858202D-04 -0.75798199D-04 -0.37828614D-04  0.31819181D-03  0.24396930D-03
  0.12175778D-03  0.81222910D-04  0.62276576D-04  0.31080376D-04 -0.71222667D-03
 -0.17339248D-03  0.42480070D-03  0.10268338D-03 -0.18196505D-03 -0.97844165D-03
 -0.41663855D-04  0.81241429D-03  0.25071143D-03 -0.49107139D-03 -0.66161942D-05
 -0.12205586D-04 -0.19703601D-04 -0.25648234D-04 -0.21885685D-04 -0.75566009D-05
  0.33971603D-04  0.15657481D-04 -0.43905210D-04  0.54509635D-04  0.41794531D-04
  0.20858400D-04  0.30736169D-04  0.23566545D-04  0.11761358D-04 -0.37796064D-05
 -0.28979625D-05 -0.14462864D-05  0.62676457D-04 -0.52650404D-04 -0.12595851D-03
 -0.76818702D-05  0.47844090D-04 -0.47890095D-05 -0.21714585D-05  0.92644690D-04
 -0.56135204D-04 -0.35766668D-05  0.10224567D-05  0.18862330D-05  0.30449649D-05
  0.39636395D-05  0.33821808D-05  0.11677857D-05 -0.42390708D-05 -0.19537839D-05
  0.54786139D-05  0.45224966D-04  0.34675636D-04  0.17305572D-04  0.97808056D-05
  0.74993014D-05  0.37426770D-05 -0.12516339D-05 -0.95967347D-06 -0.47894432D-06
  0.11402385D-03 -0.80825543D-04 -0.35597979D-04  0.17397687D-04  0.17603536D-04
 -0.27460516D-04  0.28635574D-04  0.54635403D-04  0.76360159D-04 -0.21252038D-04
  0.70302381D-05  0.12969416D-04  0.20936660D-04  0.27253310D-04  0.23255299D-04
  0.80294958D-05 -0.30040071D-04 -0.13845441D-04  0.38824062D-04 -0.16986138D-04
 -0.13023893D-04 -0.64998356D-05  0.45902200D-05  0.35194896D-05  0.17564720D-05
  0.11124641D-04  0.85296689D-05  0.42569026D-05 -0.19483833D-03 -0.60705232D-04
  0.31386092D-04 -0.39429132D-04 -0.12867924D-04 -0.23176014D-05  0.25164950D-04
 -0.18459370D-04 -0.37760787D-04  0.92151468D-05  0.93835385D-05  0.15916257D-04
  0.18120096D-04 -0.24608785D-04  0.82570949D+00  0.15197462D+01  0.24592363D+01
  0.32327350D+01  0.27726980D+01  0.94803253D+00 -0.15828096D-01 -0.70624658D-02
  0.20855556D-01 -0.14774035D-02 -0.11382597D-02 -0.49975733D-03  0.38635645D-02
  0.29766682D-02  0.13069177D-02  0.91659730D-03  0.70618881D-03  0.31005492D-03
  0.38191010D-02 -0.19342237D-03  0.45098505D-03  0.11961208D-03 -0.89790630D-02
 -0.84303261D-02 -0.90541360D-02 -0.57175636D-03 -0.14632631D-03  0.35310521D-03
  0.14000823D-04  0.23748046D-04  0.27036311D-04  0.12535690D-04  0.25466130D-06
  0.43195377D-06  0.49176410D-06 -0.21533893D-04 -0.35679828D-05 -0.60519741D-05
 -0.68899586D-05  0.24298091D-04  0.99758756D-06  0.18403543D-05  0.29709024D-05
  0.38672322D-05  0.32999162D-05  0.11393818D-05 -0.40301289D-06 -0.18574827D-06
  0.52085755D-06  0.21152905D-04  0.16218706D-04  0.80942708D-05  0.12347832D-04
  0.94675342D-05  0.47249631D-05  0.11695436D-05  0.89673187D-06  0.44753205D-06
  0.36059445D-04  0.11237846D-04 -0.59641930D-05  0.58874582D-05  0.12443460D-04
  0.21603204D-05  0.76539805D-05 -0.80608492D-05  0.41360113D-05  0.37059944D-05
 -0.93465942D-06 -0.15853593D-05 -0.18048755D-05  0.22111350D-05  0.43997730D-06
  0.74628478D-06  0.84961885D-06  0.97956904D-06 -0.43010389D-06 -0.72953761D-06
 -0.83055278D-06 -0.10443331D-04
MO    2     MO 0.0        OCC NO =    2.0000000  ORB. ENERGY =  -10.584650
  0.51892830D-05  0.95732139D-05  0.15454135D-04  0.20116693D-04  0.17165610D-04
  0.59268727D-05 -0.26161493D-04 -0.12057808D-04  0.33811353D-04  0.36423758D-04
  0.27927428D-04  0.13937744D-04  0.47625598D-04  0.36516288D-04  0.18224187D-04
 -0.43746135D-04 -0.33541762D-04 -0.16739690D-04 -0.17112203D-03 -0.18175922D-03
 -0.13247844D-04 -0.25355288D-04 -0.28587540D-04  0.22943312D-04  0.30866084D-04
 -0.14108501D-04  0.27057894D-04 -0.15103810D-04 -0.48586892D-04 -0.89633329D-04
 -0.14469598D-03 -0.18835118D-03 -0.16072040D-03 -0.55492893D-04  0.14642704D-03
  0.67488088D-04 -0.18924364D-03 -0.10816444D-03 -0.82933631D-04 -0.41389694D-04
 -0.42459358D-04 -0.32555143D-04 -0.16247298D-04  0.92751034D-04  0.71115610D-04
  0.35491674D-04  0.52224078D-03  0.12715733D-04  0.23001874D-03 -0.84719240D-04
 -0.78147298D-04 -0.43591824D-04 -0.19087905D-03  0.98253824D-04 -0.19526548D-04
  0.17943682D-04  0.53252380D+00  0.98240242D+00  0.15859021D+01  0.20643733D+01
  0.17615335D+01  0.60821519D+00 -0.19336922D-01 -0.89123697D-02  0.24991215D-01
  0.55406553D-03  0.42482231D-03  0.21201611D-03 -0.19827683D-02 -0.15202609D-02
 -0.75871675D-03 -0.30777533D-03 -0.23598260D-03 -0.11777186D-03 -0.13462805D-02
  0.41603823D-03 -0.19396976D-03 -0.24493053D-03 -0.10465760D-01 -0.96340661D-02
 -0.10749805D-01 -0.14141488D-02 -0.44158821D-03  0.83510915D-03  0.38518231D-03
  0.71058616D-03  0.11471064D-02  0.14931917D-02  0.12741432D-02  0.43993102D-03
 -0.66869912D-04 -0.30820282D-04  0.86423287D-04 -0.23894497D-03 -0.18320784D-03
 -0.91433554D-04  0.77052147D-04  0.59078699D-04  0.29484411D-04  0.20673682D-03
  0.15851268D-03  0.79108938D-04  0.10706945D-03  0.43608149D-03 -0.87268377D-04
 -0.75016907D-04 -0.43645584D-03 -0.16716542D-03 -0.16911489D-03  0.29006004D-04
  0.26128382D-03  0.42288510D-04 -0.50904341D-04 -0.93908570D-04 -0.15159755D-03
 -0.19733497D-03 -0.16838628D-03 -0.58139737D-04  0.14186206D-03  0.65384094D-04
 -0.18334382D-03 -0.10254409D-03 -0.78624302D-04 -0.39239037D-04  0.10403162D-03
  0.79764850D-04  0.39808250D-04  0.75476743D-04  0.57870779D-04  0.28881575D-04
  0.35069522D-03  0.83504357D-04 -0.20148176D-03  0.33360046D-04 -0.10842890D-03
 -0.42438721D-04 -0.16705803D-03 -0.13795124D-03 -0.53324887D-04 -0.11347935D-03
  0.15024834D-05  0.27717885D-05  0.44745261D-05  0.58245034D-05  0.49700593D-05
  0.17160421D-05 -0.10398340D-04 -0.47925854D-05  0.13438910D-04 -0.14556511D-04
 -0.11161010D-04 -0.55701260D-05 -0.74687480D-04 -0.57265623D-04 -0.28579559D-04
 -0.17408438D-04 -0.13347686D-04 -0.66614308D-05 -0.14093452D-04 -0.78733193D-05
  0.62735681D-04  0.67346935D-05  0.17104212D-05  0.74208396D-05  0.21052476D-04
  0.61689338D-04  0.55497457D-04  0.79008517D-05 -0.91909681D-06 -0.15589621D-05
 -0.17748233D-05  0.69243519D-04 -0.21377506D-03 -0.39346022D-03 -0.63669291D-03
 -0.83695066D-03 -0.71784771D-03 -0.24544433D-03 -0.17713645D-03 -0.79037938D-04
  0.23340009D-03  0.22551168D-03  0.17374459D-03  0.76283233D-04 -0.16135806D-03
 -0.12431769D-03 -0.54582162D-04 -0.13049200D-03 -0.10053705D-03 -0.44141181D-04
 -0.73078389D-03  0.79795666D-04 -0.62491413D-03 -0.60615808D-04  0.27279871D-03
 -0.51690180D-03  0.30207647D-03  0.30139076D-03  0.85344480D-04 -0.22812508D-03
 -0.15703560D-04 -0.26636210D-04 -0.30324383D-04  0.56943839D-04 -0.54126380D-05
 -0.91808585D-05 -0.10452083D-04 -0.15204104D-04 -0.21650293D-04 -0.36722995D-04
 -0.41807832D-04  0.56158435D-04  0.69521860D-06  0.12825426D-05  0.20704214D-05
  0.26950735D-05  0.22997111D-05  0.79403496D-06 -0.54424990D-05 -0.25084428D-05
  0.70339355D-05 -0.36142722D-04 -0.27711947D-04 -0.13830204D-04 -0.96605201D-05
 -0.74070741D-05 -0.36966491D-05  0.22410233D-05  0.17182745D-05  0.85753940D-06
 -0.95323358D-04 -0.95207780D-05 -0.32515805D-04 -0.70441528D-05  0.12732752D-04
 -0.14413893D-04 -0.52890735D-05 -0.17820204D-04  0.17022953D-04 -0.27371820D-04
  0.70684490D-05  0.11989427D-04  0.13649539D-04  0.64323105D-05  0.11684447D-06
  0.19819034D-06  0.22563269D-06  0.60925387D-05 -0.23468037D-05 -0.39806232D-05
 -0.45317988D-05  0.82669692D-06
MO    3     MO 0.0        OCC NO =    2.0000000  ORB. ENERGY =  -10.464737
 -0.11238878D-04 -0.20733535D-04 -0.33470354D-04 -0.43568456D-04 -0.37177042D-04
 -0.12836339D-04  0.58127772D-04  0.26791037D-04 -0.75124864D-04 -0.12309449D-03
 -0.94381050D-04 -0.47102759D-04  0.80949255D-04  0.62066755D-04  0.30975660D-04
 -0.10530137D-04 -0.80738410D-05 -0.40294125D-05 -0.11188932D-03 -0.21731067D-04
  0.12894432D-04 -0.21587617D-04  0.27537373D-04  0.37308102D-04 -0.55662597D-04
  0.28516935D-04  0.46187551D-04 -0.78739844D-04  0.91630651D-03  0.16904066D-02
  0.27288404D-02  0.35521393D-02  0.30310469D-02  0.10465477D-02  0.12510524D-03
  0.57660889D-04 -0.16168715D-03  0.19485423D-04  0.14940186D-04  0.74562000D-05
 -0.78208585D-04 -0.59965382D-04 -0.29926929D-04 -0.12321073D-05 -0.94470173D-06
 -0.47147237D-06  0.12548877D-02  0.30978677D-03  0.44253919D-03 -0.67618418D-04
 -0.18838169D-03 -0.26742482D-03 -0.19030607D-03 -0.13033577D-03 -0.32342872D-05
 -0.15132966D-03 -0.48163530D-03 -0.88852308D-03 -0.14343517D-02 -0.18670998D-02
 -0.15931996D-02 -0.55009355D-03  0.88604194D-04  0.40837592D-04 -0.11451287D-03
  0.32938625D-04  0.25255248D-04  0.12604139D-04  0.21591204D-04  0.16554765D-04
  0.82619882D-05 -0.64437370D-04 -0.49406489D-04 -0.24657300D-04  0.11116983D-02
 -0.45621218D-03  0.24066719D-04  0.16571082D-03 -0.46352699D-03 -0.74453218D-04
 -0.37516806D-03  0.28245458D-03  0.50272594D-03 -0.10237322D-03  0.53270464D+00
  0.98273604D+00  0.15864407D+01  0.20650744D+01  0.17621317D+01  0.60842174D+00
 -0.20302430D-01 -0.93573713D-02  0.26239046D-01  0.88242775D-03  0.67658963D-03
  0.33766564D-03 -0.15290750D-03 -0.11723978D-03 -0.58510865D-04 -0.67427023D-03
 -0.51698764D-03 -0.25801307D-03 -0.48368588D-02  0.13690859D-03  0.67759675D-04
  0.38888770D-03 -0.97433803D-02 -0.97715602D-02 -0.95676344D-02 -0.19068422D-04
  0.23321404D-04  0.90421515D-04  0.84443203D-03  0.15578122D-02  0.25147919D-02
  0.32735119D-02  0.27932936D-02  0.96445715D-03  0.10568271D-03  0.48709063D-04
 -0.13658530D-03  0.62184514D-04  0.47679141D-04  0.23795233D-04  0.53277526D-04
  0.40849828D-04  0.20386927D-04 -0.44172539D-04 -0.33868701D-04 -0.16902855D-04
  0.12145177D-02  0.17765037D-03 -0.50889300D-03  0.14528107D-03 -0.16264046D-03
 -0.23437686D-03 -0.25794157D-03  0.13848918D-03 -0.31894338D-04  0.20762019D-03
 -0.18138945D-04 -0.33462811D-04 -0.54019352D-04 -0.70317146D-04 -0.60001748D-04
 -0.20717162D-04  0.56185279D-04  0.25895744D-04 -0.72614368D-04 -0.15079639D-03
 -0.11562111D-03 -0.57703037D-04 -0.80469109D-04 -0.61698609D-04 -0.30791930D-04
  0.84554756D-05  0.64831224D-05  0.32355324D-05 -0.15291324D-03 -0.48022578D-04
  0.10054739D-03 -0.41920449D-04  0.49294145D-04  0.29548662D-04 -0.66481084D-04
 -0.27726670D-04  0.67137403D-04 -0.32982065D-04 -0.22540518D-04 -0.38232985D-04
 -0.43526902D-04  0.60158581D-04 -0.58955958D-05 -0.10851043D-04 -0.17559037D-04
 -0.23081845D-04 -0.19797164D-04 -0.67689867D-05  0.27753748D-04  0.12383668D-04
 -0.36569139D-04 -0.37881805D-04 -0.29185889D-04 -0.12814177D-04 -0.71746055D-04
 -0.55276467D-04 -0.24269346D-04 -0.68895117D-04 -0.53079974D-04 -0.23304967D-04
 -0.63712439D-04  0.13545690D-03  0.45281961D-04 -0.24488422D-04 -0.77841122D-04
  0.13592898D-03 -0.12919368D-03  0.12705515D-03 -0.11001840D-03 -0.51388639D-05
 -0.19180385D-04 -0.32533563D-04 -0.37038311D-04  0.75993909D-04 -0.15326929D-04
 -0.25997373D-04 -0.29597091D-04 -0.13267488D-04  0.43356057D-04  0.73540079D-04
  0.83722781D-04  0.45633876D-03 -0.14134431D-04 -0.26075265D-04 -0.42093563D-04
 -0.54793312D-04 -0.46755232D-04 -0.16143458D-04  0.35860695D-04  0.16528161D-04
 -0.46346690D-04 -0.36497903D-04 -0.27984277D-04 -0.13966115D-04 -0.18702448D-04
 -0.14339851D-04 -0.71565907D-05 -0.39432110D-04 -0.30234041D-04 -0.15088905D-04
  0.65152932D-04  0.42663890D-04  0.13522637D-04  0.30403408D-04  0.60706258D-06
 -0.30632092D-04 -0.63236640D-04 -0.13008062D-04  0.40552250D-04 -0.81491239D-05
 -0.30795947D-05 -0.52235754D-05 -0.59468560D-05 -0.84416223D-05  0.24158929D-05
  0.40978116D-05  0.46652137D-05  0.11595139D-04 -0.16613322D-04 -0.28179338D-04
 -0.32081181D-04  0.28574737D-04
MO    4     MO 0.0        OCC NO =    2.0000000  ORB. ENERGY =  -10.410166
  0.53233309D+00  0.98205060D+00  0.15853342D+01  0.20636340D+01  0.17609027D+01
  0.60799738D+00 -0.19725732D-01 -0.90915720D-02  0.25493717D-01  0.39951512D-03
  0.30632285D-03  0.15287657D-03  0.15967508D-03  0.12242873D-03  0.61100514D-04
  0.20010372D-03  0.15342684D-03  0.76570745D-04 -0.32221490D-02 -0.31909997D-03
 -0.78561191D-04 -0.85573494D-04 -0.99382529D-02 -0.10256711D-01 -0.10423068D-01
 -0.12754649D-04  0.33384520D-03 -0.13652559D-03  0.13310177D-01  0.24554677D-01
  0.39638862D-01  0.51598020D-01  0.44028684D-01  0.15202047D-01 -0.28023600D-03
 -0.12916052D-03  0.36217957D-03  0.42407978D-03  0.32515748D-03  0.16227637D-03
 -0.25525415D-03 -0.19571270D-03 -0.97674352D-04  0.17782174D-03  0.13634244D-03
  0.68044431D-04  0.11609188D-02 -0.32050999D-03  0.22496216D-03 -0.15328787D-03
 -0.66185209D-03 -0.59629847D-03 -0.47324063D-03  0.15725388D-03 -0.16942345D-03
  0.13062255D-03 -0.11158328D-06 -0.20584937D-06 -0.33230471D-06 -0.43256199D-06
 -0.36910593D-06 -0.12744341D-06  0.14272518D-05  0.65781905D-06 -0.18445933D-05
  0.15523787D-04  0.11902655D-04  0.59402592D-05 -0.32068723D-05 -0.24588263D-05
 -0.12271267D-05 -0.87762687D-05 -0.67290862D-05 -0.33582856D-05  0.30938586D-04
 -0.61453812D-05 -0.17503991D-04 -0.35751136D-05 -0.40197112D-05  0.57633065D-05
 -0.14052403D-04 -0.15946436D-04 -0.19083556D-04 -0.89790844D-05 -0.23954951D-04
 -0.44192208D-04 -0.71339926D-04 -0.92863386D-04 -0.79240496D-04 -0.27359839D-04
  0.27818113D-04  0.12821343D-04 -0.35952384D-04  0.62684265D-05  0.48062319D-05
  0.23986466D-05  0.81057231D-04  0.62149543D-04  0.31016978D-04 -0.22552488D-04
 -0.17291817D-04 -0.86298287D-05 -0.90146849D-04  0.37091549D-04  0.15266282D-04
  0.16455646D-04  0.71472229D-04  0.18454792D-04  0.84340911D-05  0.25581514D-04
  0.44337290D-04 -0.76767171D-05  0.22620776D-04  0.41730914D-04  0.67366634D-04
  0.87691342D-04  0.74827181D-04  0.25836027D-04  0.36474934D-04  0.16811264D-04
 -0.47140538D-04  0.58281510D-04  0.44686565D-04  0.22301728D-04 -0.32878051D-04
 -0.25208804D-04 -0.12580960D-04  0.29699908D-04  0.22772006D-04  0.11364827D-04
 -0.15660307D-03  0.45190999D-04  0.52116241D-04 -0.43864815D-05  0.70948678D-04
  0.67670001D-04 -0.12318173D-04  0.59632022D-04  0.36404322D-04 -0.22823968D-04
  0.25762613D-02  0.47526990D-02  0.76723298D-02  0.99870937D-02  0.85220052D-02
  0.29424436D-02  0.97832753D-05  0.45091026D-05 -0.12643994D-04 -0.27764473D-04
 -0.21288037D-04 -0.10624223D-04  0.31912247D-03  0.24468287D-03  0.12211390D-03
 -0.97267863D-04 -0.74578828D-04 -0.37220062D-04  0.93544727D-03  0.68182028D-04
 -0.30619431D-03  0.10502690D-03 -0.29509017D-03 -0.63163943D-03 -0.25469674D-03
 -0.79260831D-04 -0.21515440D-04  0.19610155D-03 -0.12769515D-04 -0.21659514D-04
 -0.24658591D-04  0.31307195D-04  0.39009735D-05  0.71798736D-05  0.11618391D-04
  0.15272700D-04  0.13099306D-04  0.44788752D-05 -0.11878535D-04 -0.53001791D-05
  0.15651500D-04 -0.11016057D-04 -0.84872779D-05 -0.37263722D-05  0.13422381D-04
  0.10341221D-04  0.45403531D-05 -0.38478644D-04 -0.29645720D-04 -0.13016068D-04
 -0.42523015D-04  0.86209759D-05 -0.16898049D-04  0.60140689D-05  0.17077191D-04
  0.49377318D-05  0.17578440D-04  0.19092572D-04 -0.15876021D-04 -0.82028272D-05
 -0.56285143D-05 -0.95470255D-05 -0.10868951D-04 -0.39761133D-05 -0.91895625D-05
 -0.15587237D-04 -0.17745519D-04  0.24424039D-04 -0.29968119D-05 -0.50831602D-05
 -0.57869982D-05  0.20488208D-05  0.10749740D-02  0.19831172D-02  0.32013660D-02
  0.41672273D-02  0.35559026D-02  0.12277677D-02  0.10569779D-04  0.48716016D-05
 -0.13660479D-04 -0.41170625D-03 -0.31567024D-03 -0.15754157D-03 -0.13591949D-03
 -0.10421444D-03 -0.52010310D-04 -0.90684981D-04 -0.69531492D-04 -0.34701087D-04
  0.42769695D-03  0.22078516D-03  0.32559998D-04  0.59206985D-04 -0.44124042D-03
 -0.26163206D-03 -0.89937074D-04 -0.40602363D-03 -0.12446130D-03 -0.25895540D-04
 -0.29145456D-04 -0.49436210D-04 -0.56281378D-04  0.79932108D-04 -0.27498331D-04
 -0.46642373D-04 -0.53100693D-04  0.76512373D-04 -0.18791276D-04 -0.31873561D-04
 -0.36286922D-04 -0.54286063D-04
MO    5     MO 0.0        OCC NO =    2.0000000  ORB. ENERGY =  -10.394552
 -0.13579280D-01 -0.25051119D-01 -0.40440274D-01 -0.52641221D-01 -0.44918849D-01
 -0.15509399D-01  0.73511338D-03  0.33881309D-03 -0.95006726D-03 -0.49433122D-03
 -0.37902183D-03 -0.18915845D-03  0.92824426D-04  0.71171883D-04  0.35519757D-04
 -0.15658728D-03 -0.12006119D-03 -0.59918949D-04  0.14165250D-02  0.65021318D-03
 -0.73516361D-04  0.20115899D-03 -0.11342613D-03 -0.66044243D-04  0.53484855D-04
 -0.26834466D-04 -0.12528712D-03  0.64648906D-04  0.53231680D+00  0.98202056D+00
  0.15852857D+01  0.20635709D+01  0.17608488D+01  0.60797877D+00 -0.19919002D-01
 -0.91806498D-02  0.25743500D-01  0.30119482D-03  0.23093708D-03  0.11525379D-03
  0.80921980D-03  0.62045842D-03  0.30965224D-03 -0.30416837D-03 -0.23321701D-03
 -0.11639163D-03 -0.33544434D-02  0.20822231D-03 -0.64347680D-03  0.24684528D-03
 -0.10321753D-01 -0.10292570D-01 -0.10536957D-01 -0.25494451D-03  0.23220151D-03
 -0.22784365D-03 -0.35562575D-04 -0.65606006D-04 -0.10590844D-03 -0.13786132D-03
 -0.11763731D-03 -0.40617336D-04  0.13555378D-03  0.62476611D-04 -0.17519094D-03
  0.18915051D-03  0.14502861D-03  0.72379442D-04  0.10834876D-04  0.83074960D-05
  0.41460228D-05  0.35130438D-04  0.26935792D-04  0.13442848D-04  0.40006514D-03
 -0.13013736D-03 -0.45488210D-04  0.64760900D-04 -0.10438743D-03 -0.10371898D-03
 -0.20608655D-03  0.78320530D-04 -0.17523428D-03  0.91720860D-04 -0.10364216D-02
 -0.19119955D-02 -0.30865537D-02 -0.40177758D-02 -0.34283753D-02 -0.11837356D-02
  0.53718633D-04  0.24758869D-04 -0.69426452D-04  0.21871310D-03  0.16769533D-03
  0.83691724D-04  0.11259687D-03  0.86332135D-04  0.43085786D-04  0.56807435D-04
  0.43556338D-04  0.21737665D-04  0.78539992D-03 -0.47935391D-03 -0.64979085D-04
 -0.39598761D-04 -0.32117799D-03 -0.34456677D-03 -0.17729533D-04 -0.39623043D-03
  0.66435060D-04 -0.23121416D-04 -0.63981649D-03 -0.11803365D-02 -0.19054291D-02
 -0.24803025D-02 -0.21164466D-02 -0.73075816D-03  0.93206135D-05  0.42958623D-05
 -0.12046046D-04 -0.73697619D-04 -0.56506660D-04 -0.28200784D-04  0.28007523D-04
  0.21474392D-04  0.10717227D-04 -0.34763147D-04 -0.26654176D-04 -0.13302302D-04
 -0.26933790D-03 -0.68790856D-05  0.11456245D-03 -0.50980897D-04  0.70386521D-04
  0.11590370D-03  0.47499436D-04  0.57430622D-04 -0.75961074D-05  0.34610249D-04
 -0.24813501D-03 -0.45776065D-03 -0.73896762D-03 -0.96191627D-03 -0.82080489D-03
 -0.28340421D-03  0.78713994D-04  0.36279208D-04 -0.10173069D-03  0.45907203D-04
  0.35198732D-04  0.17566634D-04  0.93357036D-04  0.71580254D-04  0.35723563D-04
 -0.57658823D-05 -0.44209128D-05 -0.22063453D-05 -0.44427797D-04 -0.22164649D-04
 -0.57267627D-05 -0.81065470D-06  0.30500934D-04  0.10488644D-03 -0.24355169D-04
 -0.35921291D-04  0.47910291D-04 -0.82811447D-04 -0.10122210D-03 -0.17169184D-03
 -0.19546509D-03  0.14809738D-03  0.44731243D-05  0.82329366D-05  0.13322446D-04
  0.17512728D-04  0.15020565D-04  0.51357862D-05 -0.34175138D-04 -0.15248880D-04
  0.45030146D-04  0.97768736D-04  0.75325540D-04  0.33071969D-04  0.35088568D-04
  0.27033850D-04  0.11869316D-04  0.56499211D-04  0.43529596D-04  0.19111837D-04
 -0.13778126D-03  0.42579100D-04 -0.25724039D-04 -0.39140840D-04 -0.32902066D-05
  0.40516902D-04 -0.33159093D-04  0.37311734D-04 -0.63190996D-05  0.17871544D-04
 -0.42414840D-05 -0.71943597D-05 -0.81905242D-05 -0.97636602D-05 -0.27741925D-05
 -0.47055555D-05 -0.53571087D-05  0.14277027D-04 -0.34297795D-04 -0.58175552D-04
 -0.66230810D-04  0.84328130D-04 -0.64478422D-04 -0.11895010D-03 -0.19202234D-03
 -0.24995603D-03 -0.21328794D-03 -0.73643199D-04  0.46191314D-04  0.21289535D-04
 -0.59698077D-04  0.23024713D-04  0.17653890D-04  0.88105282D-05  0.16497730D-04
  0.12649413D-04  0.63129435D-05 -0.37069886D-05 -0.28422837D-05 -0.14184988D-05
  0.16132437D-03  0.18350614D-04  0.88965960D-04 -0.81944253D-05  0.43648443D-04
  0.50616662D-04 -0.26182703D-04  0.11045517D-03  0.20085100D-04  0.49004118D-05
 -0.49713139D-05 -0.84322894D-05 -0.95998634D-05 -0.15067312D-04 -0.22686117D-05
 -0.38479949D-05 -0.43808062D-05 -0.10012336D-04 -0.28850156D-06 -0.48935326D-06
 -0.55711139D-06  0.32217975D-04
MO    6     MO 0.0        OCC NO =    2.0000000  ORB. ENERGY =  -10.392731
 -0.12974356D-03 -0.23935154D-03 -0.38638759D-03 -0.50296184D-03 -0.42917825D-03
 -0.14818494D-03  0.47053465D-04  0.21686899D-04 -0.60812328D-04 -0.44745607D-04
 -0.34308093D-04 -0.17122143D-04 -0.87105725D-04 -0.66787145D-04 -0.33331466D-04
  0.20024205D-04  0.15353290D-04  0.76623678D-05 -0.12457118D-03  0.13112053D-03
 -0.87000019D-04  0.62734514D-04  0.48645558D-04  0.35658875D-04 -0.12507774D-04
  0.60806567D-04  0.16343131D-04 -0.18204948D-04  0.66850669D-03  0.12332643D-02
  0.19908710D-02  0.25915225D-02  0.22113508D-02  0.76352630D-03 -0.41510424D-04
 -0.19132116D-04  0.53648451D-04 -0.46786295D-04 -0.35872764D-04 -0.17903023D-04
 -0.21153722D-04 -0.16219332D-04 -0.80945836D-05 -0.10704829D-04 -0.82077841D-05
 -0.40962595D-05 -0.36797406D-03  0.33993109D-04 -0.10668475D-03  0.20594914D-04
  0.24754491D-04  0.84511999D-04  0.46179126D-04 -0.83794442D-05 -0.12539049D-04
 -0.84197946D-04 -0.30451642D-04 -0.56177333D-04 -0.90687634D-04 -0.11804835D-03
 -0.10073087D-03 -0.34779950D-04  0.12752824D-03  0.58777649D-04 -0.16481866D-03
  0.18880688D-03  0.14476514D-03  0.72247950D-04 -0.10030439D-03 -0.76907044D-04
 -0.38382005D-04  0.59237833D-04  0.45419813D-04  0.22667670D-04  0.36852029D-03
 -0.18064674D-03  0.45453754D-04  0.48331046D-04 -0.11328445D-03 -0.14364854D-03
 -0.15820512D-03 -0.10970261D-03 -0.11699071D-03 -0.13861557D-04 -0.95517625D-03
 -0.17621137D-02 -0.28445978D-02 -0.37028211D-02 -0.31596240D-02 -0.10909422D-02
  0.26660797D-04  0.12287937D-04 -0.34456657D-04  0.14523801D-03  0.11135929D-03
  0.55576092D-04 -0.14445805D-03 -0.11076127D-03 -0.55277636D-04  0.11212736D-03
  0.85972149D-04  0.42906128D-04  0.69357679D-03 -0.41442358D-03  0.21270362D-03