 Entering Link 1 = D:\Gaussian\G16W\l1.exe PID=     39676.
  
 Copyright (c) 1988,1990,1992,1993,1995,1998,2003,2009,2016,
            Gaussian, Inc.  All Rights Reserved.
  
 This is part of the Gaussian(R) 16 program.  It is based on
 the Gaussian(R) 09 system (copyright 2009, Gaussian, Inc.),
 the Gaussian(R) 03 system (copyright 2003, Gaussian, Inc.),
 the Gaussian(R) 98 system (copyright 1998, Gaussian, Inc.),
 the Gaussian(R) 94 system (copyright 1995, Gaussian, Inc.),
 the Gaussian 92(TM) system (copyright 1992, Gaussian, Inc.),
 the Gaussian 90(TM) system (copyright 1990, Gaussian, Inc.),
 the Gaussian 88(TM) system (copyright 1988, Gaussian, Inc.),
 the Gaussian 86(TM) system (copyright 1986, Carnegie Mellon
 University), and the Gaussian 82(TM) system (copyright 1983,
 Carnegie Mellon University). Gaussian is a federally registered
 trademark of Gaussian, Inc.
  
 This software contains proprietary and confidential information,
 including trade secrets, belonging to Gaussian, Inc.
  
 This software is provided under written license and may be
 used, copied, transmitted, or stored only in accord with that
 written license.
  
 The following legend is applicable only to US Government
 contracts under FAR:
  
                    RESTRICTED RIGHTS LEGEND
  
 Use, reproduction and disclosure by the US Government is
 subject to restrictions as set forth in subparagraphs (a)
 and (c) of the Commercial Computer Software - Restricted
 Rights clause in FAR 52.227-19.
  
 Gaussian, Inc.
 340 Quinnipiac St., Bldg. 40, Wallingford CT 06492
  
  
 ---------------------------------------------------------------
 Warning -- This program may not be used in any manner that
 competes with the business of Gaussian, Inc. or will provide
 assistance to any competitor of Gaussian, Inc.  The licensee
 of this program is prohibited from giving any competitor of
 Gaussian, Inc. access to this program.  By using this program,
 the user acknowledges that Gaussian, Inc. is engaged in the
 business of creating and licensing software in the field of
 computational chemistry and represents and warrants to the
 licensee that it is not a competitor of Gaussian, Inc. and that
 it will not use this program in any manner prohibited above.
 ---------------------------------------------------------------
  

 Cite this work as:
 Gaussian 16, Revision A.03,
 M. J. Frisch, G. W. Trucks, H. B. Schlegel, G. E. Scuseria, 
 M. A. Robb, J. R. Cheeseman, G. Scalmani, V. Barone, 
 G. A. Petersson, H. Nakatsuji, X. Li, M. Caricato, A. V. Marenich, 
 J. Bloino, B. G. Janesko, R. Gomperts, B. Mennucci, H. P. Hratchian, 
 J. V. Ortiz, A. F. Izmaylov, J. L. Sonnenberg, D. Williams-Young, 
 F. Ding, F. Lipparini, F. Egidi, J. Goings, B. Peng, A. Petrone, 
 T. Henderson, D. Ranasinghe, V. G. Zakrzewski, J. Gao, N. Rega, 
 G. Zheng, W. Liang, M. Hada, M. Ehara, K. Toyota, R. Fukuda, 
 J. Hasegawa, M. Ishida, T. Nakajima, Y. Honda, O. Kitao, H. Nakai, 
 T. Vreven, K. Throssell, J. A. Montgomery, Jr., J. E. Peralta, 
 F. Ogliaro, M. J. Bearpark, J. J. Heyd, E. N. Brothers, K. N. Kudin, 
 V. N. Staroverov, T. A. Keith, R. Kobayashi, J. Normand, 
 K. Raghavachari, A. P. Rendell, J. C. Burant, S. S. Iyengar, 
 J. Tomasi, M. Cossi, J. M. Millam, M. Klene, C. Adamo, R. Cammi, 
 J. W. Ochterski, R. L. Martin, K. Morokuma, O. Farkas, 
 J. B. Foresman, and D. J. Fox, Gaussian, Inc., Wallingford CT, 2016.
 
 ******************************************
 Gaussian 16:  EM64W-G16RevA.03 17-Dec-2016
                03-Dec-2025 
 ******************************************
 %nprocs=   4
 Will use up to    4 processors via shared memory.
 ------------------------------------
 #P B3LYP/6-31G* SCF=conver=7 out=wfn
 ------------------------------------
 1/38=1,172=1/1;
 2/12=2,17=6,18=5,40=1/2;
 3/5=1,6=6,7=1,11=2,25=1,30=1,74=-5/1,2,3;
 4//1;
 5/5=2,6=7,38=5/2;
 6/7=2,8=2,9=2,10=2,28=1/1;
 99/5=1,6=100,9=1/99;
 Leave Link    1 at Wed Dec 03 16:50:29 2025, MaxMem=           0 cpu:               0.0 elap:               0.1
 (Enter D:\Gaussian\G16W\l101.exe)
 ----------------------------------------------------
 Generated by Multiwfn (http://sobereva.com/multiwfn)
 ----------------------------------------------------
 Symbolic Z-matrix:
 Charge =  0 Multiplicity = 2
 C                    -1.32321  -0.21612   0.03218 
 C                    -0.16979  -0.71695   0.51685 
 C                     2.19086   0.05888  -0.18016 
 C                     0.87036   0.37075   0.55501 
 C                     0.14348   1.57176  -0.00145 
 C                    -1.11838   1.21302  -0.28426 
 H                     0.02443  -1.73581   0.8204 
 O                     2.63848  -0.9959   -0.45277 
 H                     0.60313   2.5409   -0.13135 
 H                    -1.88823   1.85996  -0.6869 
 H                     1.2048    0.57488   1.58453 
 C                    -2.6196   -0.93486  -0.17952 
 H                    -3.42296  -0.47982   0.40964 
 H                    -2.92757  -0.88567  -1.22955 
 H                    -2.54377  -1.98603   0.10351 
 
 ITRead=  0  0  0  0  0  0  0  0  0  0  0  0  0  0  0
 MicOpt= -1 -1 -1 -1 -1 -1 -1 -1 -1 -1 -1 -1 -1 -1 -1
 NAtoms=     15 NQM=       15 NQMF=       0 NMMI=      0 NMMIF=      0
                NMic=       0 NMicF=      0.
                    Isotopes and Nuclear Properties:
 (Nuclear quadrupole moments (NQMom) in fm**2, nuclear magnetic moments (NMagM)
  in nuclear magnetons)

  Atom         1           2           3           4           5           6           7           8           9          10
 IAtWgt=          12          12          12          12          12          12           1          16           1           1
 AtmWgt=  12.0000000  12.0000000  12.0000000  12.0000000  12.0000000  12.0000000   1.0078250  15.9949146   1.0078250   1.0078250
 NucSpn=           0           0           0           0           0           0           1           0           1           1
 AtZEff=   0.0000000   0.0000000   0.0000000   0.0000000   0.0000000   0.0000000   0.0000000   0.0000000   0.0000000   0.0000000
 NQMom=    0.0000000   0.0000000   0.0000000   0.0000000   0.0000000   0.0000000   0.0000000   0.0000000   0.0000000   0.0000000
 NMagM=    0.0000000   0.0000000   0.0000000   0.0000000   0.0000000   0.0000000   2.7928460   0.0000000   2.7928460   2.7928460
 AtZNuc=   6.0000000   6.0000000   6.0000000   6.0000000   6.0000000   6.0000000   1.0000000   8.0000000   1.0000000   1.0000000

  Atom        11          12          13          14          15
 IAtWgt=           1          12           1           1           1
 AtmWgt=   1.0078250  12.0000000   1.0078250   1.0078250   1.0078250
 NucSpn=           1           0           1           1           1
 AtZEff=   0.0000000   0.0000000   0.0000000   0.0000000   0.0000000
 NQMom=    0.0000000   0.0000000   0.0000000   0.0000000   0.0000000
 NMagM=    2.7928460   0.0000000   2.7928460   2.7928460   2.7928460
 AtZNuc=   1.0000000   6.0000000   1.0000000   1.0000000   1.0000000
 Leave Link  101 at Wed Dec 03 16:50:29 2025, MaxMem=   104857600 cpu:               0.0 elap:               0.1
 (Enter D:\Gaussian\G16W\l202.exe)
                          Input orientation:                          
 ---------------------------------------------------------------------
 Center     Atomic      Atomic             Coordinates (Angstroms)
 Number     Number       Type             X           Y           Z
 ---------------------------------------------------------------------
      1          6           0       -1.323210   -0.216124    0.032182
      2          6           0       -0.169785   -0.716949    0.516848
      3          6           0        2.190855    0.058880   -0.180164
      4          6           0        0.870359    0.370749    0.555013
      5          6           0        0.143481    1.571759   -0.001449
      6          6           0       -1.118383    1.213018   -0.284264
      7          1           0        0.024431   -1.735809    0.820399
      8          8           0        2.638482   -0.995904   -0.452769
      9          1           0        0.603134    2.540895   -0.131346
     10          1           0       -1.888232    1.859955   -0.686898
     11          1           0        1.204802    0.574877    1.584530
     12          6           0       -2.619599   -0.934860   -0.179524
     13          1           0       -3.422959   -0.479819    0.409644
     14          1           0       -2.927572   -0.885672   -1.229547
     15          1           0       -2.543765   -1.986034    0.103511
 ---------------------------------------------------------------------
                    Distance matrix (angstroms):
                    1          2          3          4          5
     1  C    0.000000
     2  C    1.347633   0.000000
     3  C    3.531200   2.580767   0.000000
     4  C    2.330132   1.505471   1.543197   0.000000
     5  C    2.312756   2.367478   2.551957   1.510108   0.000000
     6  C    1.478019   2.294862   3.506270   2.317088   1.342006
     7  H    2.178730   1.080712   2.985871   2.285522   3.410222
     8  O    4.066723   2.984013   1.177817   2.451453   3.608547
     9  H    3.367298   3.410441   2.946802   2.291731   1.080453
    10  H    2.268574   3.323026   4.487717   3.371928   2.163505
    11  H    3.070230   2.167544   2.086312   1.101556   2.153022
    12  C    1.497339   2.556171   4.912025   3.797890   3.734898
    13  H    2.149641   3.263566   5.670360   4.379175   4.134908
    14  H    2.148076   3.268601   5.309584   4.380357   4.120505
    15  H    2.151145   2.723455   5.165150   4.173071   4.459843
                    6          7          8          9         10
     6  C    0.000000
     7  H    3.349908   0.000000
     8  O    4.361395   3.000280   0.000000
     9  H    2.179510   4.419379   4.093275   0.000000
    10  H    1.083194   4.342781   5.357414   2.641822   0.000000
    11  H    3.049066   2.704892   2.945060   2.677958   4.046933
    12  C    2.622594   2.938071   5.265530   4.740169   2.933141
    13  H    2.942495   3.691982   6.144198   5.062293   3.005384
    14  H    2.927665   3.693147   5.621076   5.041160   2.985492
    15  H    3.523637   2.678091   5.305232   5.518262   3.980716
                   11         12         13         14         15
    11  H    0.000000
    12  C    4.474063   0.000000
    13  H    4.889674   1.095248   0.000000
    14  H    5.208526   1.095361   1.759850   0.000000
    15  H    4.775294   1.091250   1.770701   1.770635   0.000000
 Stoichiometry    C7H7O(2)
 Framework group  C1[X(C7H7O)]
 Deg. of freedom    39
 Full point group                 C1      NOp   1
 Largest Abelian subgroup         C1      NOp   1
 Largest concise Abelian subgroup C1      NOp   1
                         Standard orientation:                         
 ---------------------------------------------------------------------
 Center     Atomic      Atomic             Coordinates (Angstroms)
 Number     Number       Type             X           Y           Z
 ---------------------------------------------------------------------
      1          6           0       -1.323210   -0.216124    0.032182
      2          6           0       -0.169785   -0.716949    0.516848
      3          6           0        2.190855    0.058880   -0.180164
      4          6           0        0.870359    0.370749    0.555013
      5          6           0        0.143481    1.571759   -0.001449
      6          6           0       -1.118383    1.213018   -0.284264
      7          1           0        0.024431   -1.735809    0.820399
      8          8           0        2.638482   -0.995904   -0.452769
      9          1           0        0.603134    2.540895   -0.131346
     10          1           0       -1.888232    1.859955   -0.686898
     11          1           0        1.204802    0.574877    1.584530
     12          6           0       -2.619599   -0.934860   -0.179524
     13          1           0       -3.422959   -0.479818    0.409644
     14          1           0       -2.927572   -0.885672   -1.229547
     15          1           0       -2.543765   -1.986034    0.103511
 ---------------------------------------------------------------------
 Rotational constants (GHZ):           4.3040818           1.4595922           1.1775210
 Leave Link  202 at Wed Dec 03 16:50:29 2025, MaxMem=   104857600 cpu:               0.0 elap:               0.1
 (Enter D:\Gaussian\G16W\l301.exe)
 Standard basis: 6-31G(d) (6D, 7F)
 Ernie: Thresh=  0.10000D-02 Tol=  0.10000D-05 Strict=F.
 There are   134 symmetry adapted cartesian basis functions of A   symmetry.
 There are   134 symmetry adapted basis functions of A   symmetry.
   134 basis functions,   252 primitive gaussians,   134 cartesian basis functions
    29 alpha electrons       28 beta electrons
       nuclear repulsion energy       326.0428334110 Hartrees.
 IExCor=  402 DFT=T Ex+Corr=B3LYP ExCW=0 ScaHFX=  0.200000
 ScaDFX=  0.800000  0.720000  1.000000  0.810000 ScalE2=  1.000000  1.000000
 IRadAn=      5 IRanWt=     -1 IRanGd=            0 ICorTp=0 IEmpDi=  4
 NAtoms=   15 NActive=   15 NUniq=   15 SFac= 1.00D+00 NAtFMM=   60 NAOKFM=F Big=F
 Integral buffers will be    131072 words long.
 Raffenetti 2 integral format.
 Two-electron integral symmetry is turned on.
 Leave Link  301 at Wed Dec 03 16:50:29 2025, MaxMem=   104857600 cpu:               0.0 elap:               0.1
 (Enter D:\Gaussian\G16W\l302.exe)
 NPDir=0 NMtPBC=     1 NCelOv=     1 NCel=       1 NClECP=     1 NCelD=      1
         NCelK=      1 NCelE2=     1 NClLst=     1 CellRange=     0.0.
 One-electron integrals computed using PRISM.
 One-electron integral symmetry used in STVInt
 NBasis=   134 RedAO= T EigKep=  1.34D-03  NBF=   134
 NBsUse=   134 1.00D-06 EigRej= -1.00D+00 NBFU=   134
 Precomputing XC quadrature grid using
 IXCGrd= 4 IRadAn=           5 IRanWt=          -1 IRanGd=           0 AccXCQ= 0.00D+00.
 Generated NRdTot=       0 NPtTot=           0 NUsed=           0 NTot=          32
 NSgBfM=   134   134   134   134   134 MxSgAt=    15 MxSgA2=    15.
 Leave Link  302 at Wed Dec 03 16:50:29 2025, MaxMem=   104857600 cpu:               0.0 elap:               0.2
 (Enter D:\Gaussian\G16W\l303.exe)
 DipDrv:  MaxL=1.
 Leave Link  303 at Wed Dec 03 16:50:29 2025, MaxMem=   104857600 cpu:               0.0 elap:               0.1
 (Enter D:\Gaussian\G16W\l401.exe)
 ExpMin= 1.61D-01 ExpMax= 5.48D+03 ExpMxC= 8.25D+02 IAcc=3 IRadAn=         5 AccDes= 0.00D+00
 Harris functional with IExCor=  402 and IRadAn=       5 diagonalized for initial guess.
 HarFok:  IExCor=  402 AccDes= 0.00D+00 IRadAn=         5 IDoV= 1 UseB2=F ITyADJ=14
 ICtDFT=  3500011 ScaDFX=  1.000000  1.000000  1.000000  1.000000
 FoFCou: FMM=F IPFlag=           0 FMFlag=      100000 FMFlg1=           0
         NFxFlg=           0 DoJE=T BraDBF=F KetDBF=T FulRan=T
         wScrn=  0.000000 ICntrl=       500 IOpCl=  0 I1Cent=   200000004 NGrid=           0
         NMat0=    1 NMatS0=      1 NMatT0=    0 NMatD0=    1 NMtDS0=    0 NMtDT0=    0
 Petite list used in FoFCou.
 Harris En= -346.093241603635    
 JPrj=0 DoOrth=F DoCkMO=F.
 Initial guess <Sx>= 0.0000 <Sy>= 0.0000 <Sz>= 0.5000 <S**2>= 0.7500 S= 0.5000
 Leave Link  401 at Wed Dec 03 16:50:30 2025, MaxMem=   104857600 cpu:               1.0 elap:               0.7
 (Enter D:\Gaussian\G16W\l502.exe)
 Keep R1 and R2 ints in memory in canonical form, NReq=85656813.
 FoFCou: FMM=F IPFlag=           0 FMFlag=           0 FMFlg1=           0
         NFxFlg=           0 DoJE=F BraDBF=F KetDBF=F FulRan=T
         wScrn=  0.000000 ICntrl=       600 IOpCl=  0 I1Cent=           0 NGrid=           0
         NMat0=    1 NMatS0=   9045 NMatT0=    0 NMatD0=    1 NMtDS0=    0 NMtDT0=    0
 Symmetry not used in FoFCou.
 Two-electron integral symmetry not used.
 UHF open shell SCF:
 Using DIIS extrapolation, IDIIS=  1040.
 NGot=   104857600 LenX=    22998193 LenY=    22979796
 Requested convergence on RMS density matrix=1.00D-07 within 128 cycles.
 Requested convergence on MAX density matrix=1.00D-05.
 Requested convergence on             energy=1.00D-05.
 No special actions if energy rises.
 Integral accuracy reduced to 1.0D-05 until final iterations.

 Cycle   1  Pass 0  IDiag  1:
 E= -345.857537539430    
 DIIS: error= 3.49D-02 at cycle   1 NSaved=   1.
 NSaved= 1 IEnMin= 1 EnMin= -345.857537539430     IErMin= 1 ErrMin= 3.49D-02
 ErrMax= 3.49D-02  0.00D+00 EMaxC= 1.00D-01 BMatC= 8.52D-01 BMatP= 8.52D-01
 IDIUse=3 WtCom= 6.51D-01 WtEn= 3.49D-01
 Coeff-Com:  0.100D+01
 Coeff-En:   0.100D+01
 Coeff:      0.100D+01
 Gap=     0.234 Goal=   None    Shift=    0.000
 Gap=     0.031 Goal=   None    Shift=    0.000
 GapD=    0.031 DampG=0.250 DampE=0.500 DampFc=0.2500 IDamp=-1.
 Damping current iteration by 2.50D-01
 RMSDP=8.71D-03 MaxDP=1.34D-01              OVMax= 2.98D-01

 Cycle   2  Pass 0  IDiag  1:
 E= -345.937891942100     Delta-E=       -0.080354402670 Rises=F Damp=T
 DIIS: error= 1.70D-02 at cycle   2 NSaved=   2.
 NSaved= 2 IEnMin= 2 EnMin= -345.937891942100     IErMin= 2 ErrMin= 1.70D-02
 ErrMax= 1.70D-02  0.00D+00 EMaxC= 1.00D-01 BMatC= 1.93D-01 BMatP= 8.52D-01
 IDIUse=3 WtCom= 8.30D-01 WtEn= 1.70D-01
 Coeff-Com: -0.658D+00 0.166D+01
 Coeff-En:   0.000D+00 0.100D+01
 Coeff:     -0.546D+00 0.155D+01
 Gap=     0.188 Goal=   None    Shift=    0.000
 Gap=     0.138 Goal=   None    Shift=    0.000
 RMSDP=2.88D-03 MaxDP=4.84D-02 DE=-8.04D-02 OVMax= 1.57D-01

 Cycle   3  Pass 0  IDiag  1:
 E= -346.063028279276     Delta-E=       -0.125136337177 Rises=F Damp=F
 DIIS: error= 1.52D-02 at cycle   3 NSaved=   3.
 NSaved= 3 IEnMin= 3 EnMin= -346.063028279276     IErMin= 3 ErrMin= 1.52D-02
 ErrMax= 1.52D-02  0.00D+00 EMaxC= 1.00D-01 BMatC= 9.06D-02 BMatP= 1.93D-01
 IDIUse=3 WtCom= 8.48D-01 WtEn= 1.52D-01
 Coeff-Com: -0.396D+00 0.930D+00 0.465D+00
 Coeff-En:   0.000D+00 0.000D+00 0.100D+01
 Coeff:     -0.336D+00 0.789D+00 0.546D+00
 Gap=     0.153 Goal=   None    Shift=    0.000
 Gap=     0.165 Goal=   None    Shift=    0.000
 RMSDP=1.54D-03 MaxDP=4.00D-02 DE=-1.25D-01 OVMax= 6.35D-02

 Cycle   4  Pass 0  IDiag  1:
 E= -346.076140906919     Delta-E=       -0.013112627643 Rises=F Damp=F
 DIIS: error= 9.74D-03 at cycle   4 NSaved=   4.
 NSaved= 4 IEnMin= 4 EnMin= -346.076140906919     IErMin= 4 ErrMin= 9.74D-03
 ErrMax= 9.74D-03  0.00D+00 EMaxC= 1.00D-01 BMatC= 3.75D-02 BMatP= 9.06D-02
 IDIUse=3 WtCom= 9.03D-01 WtEn= 9.74D-02
 Coeff-Com: -0.464D-01 0.139D+00 0.379D+00 0.529D+00
 Coeff-En:   0.000D+00 0.000D+00 0.310D+00 0.690D+00
 Coeff:     -0.418D-01 0.126D+00 0.372D+00 0.544D+00
 Gap=     0.163 Goal=   None    Shift=    0.000
 Gap=     0.158 Goal=   None    Shift=    0.000
 RMSDP=7.17D-04 MaxDP=2.50D-02 DE=-1.31D-02 OVMax= 3.02D-02

 Cycle   5  Pass 0  IDiag  1:
 E= -346.083731420140     Delta-E=       -0.007590513221 Rises=F Damp=F
 DIIS: error= 1.07D-03 at cycle   5 NSaved=   5.
 NSaved= 5 IEnMin= 5 EnMin= -346.083731420140     IErMin= 5 ErrMin= 1.07D-03
 ErrMax= 1.07D-03  0.00D+00 EMaxC= 1.00D-01 BMatC= 1.06D-03 BMatP= 3.75D-02
 IDIUse=3 WtCom= 9.89D-01 WtEn= 1.07D-02
 Coeff-Com:  0.984D-02-0.120D-01 0.138D+00 0.265D+00 0.598D+00
 Coeff-En:   0.000D+00 0.000D+00 0.000D+00 0.000D+00 0.100D+01
 Coeff:      0.974D-02-0.119D-01 0.137D+00 0.262D+00 0.603D+00
 Gap=     0.160 Goal=   None    Shift=    0.000
 Gap=     0.164 Goal=   None    Shift=    0.000
 RMSDP=1.65D-04 MaxDP=4.48D-03 DE=-7.59D-03 OVMax= 5.74D-03

 Cycle   6  Pass 0  IDiag  1:
 E= -346.083976481098     Delta-E=       -0.000245060958 Rises=F Damp=F
 DIIS: error= 2.33D-04 at cycle   6 NSaved=   6.
 NSaved= 6 IEnMin= 6 EnMin= -346.083976481098     IErMin= 6 ErrMin= 2.33D-04
 ErrMax= 2.33D-04  0.00D+00 EMaxC= 1.00D-01 BMatC= 6.60D-05 BMatP= 1.06D-03
 IDIUse=3 WtCom= 9.98D-01 WtEn= 2.33D-03
 Coeff-Com:  0.869D-02-0.174D-01 0.251D-01 0.620D-01 0.242D+00 0.680D+00
 Coeff-En:   0.000D+00 0.000D+00 0.000D+00 0.000D+00 0.000D+00 0.100D+01
 Coeff:      0.867D-02-0.173D-01 0.251D-01 0.619D-01 0.241D+00 0.680D+00
 Gap=     0.160 Goal=   None    Shift=    0.000
 Gap=     0.164 Goal=   None    Shift=    0.000
 RMSDP=5.22D-05 MaxDP=1.40D-03 DE=-2.45D-04 OVMax= 4.18D-03

 Cycle   7  Pass 0  IDiag  1:
 E= -346.083991594049     Delta-E=       -0.000015112951 Rises=F Damp=F
 DIIS: error= 1.51D-04 at cycle   7 NSaved=   7.
 NSaved= 7 IEnMin= 7 EnMin= -346.083991594049     IErMin= 7 ErrMin= 1.51D-04
 ErrMax= 1.51D-04  0.00D+00 EMaxC= 1.00D-01 BMatC= 2.19D-05 BMatP= 6.60D-05
 IDIUse=3 WtCom= 9.98D-01 WtEn= 1.51D-03
 Coeff-Com:  0.287D-02-0.674D-02-0.446D-02-0.175D-02 0.451D-01 0.393D+00
 Coeff-Com:  0.571D+00
 Coeff-En:   0.000D+00 0.000D+00 0.000D+00 0.000D+00 0.000D+00 0.112D+00
 Coeff-En:   0.888D+00
 Coeff:      0.286D-02-0.673D-02-0.445D-02-0.175D-02 0.451D-01 0.393D+00
 Coeff:      0.572D+00
 Gap=     0.160 Goal=   None    Shift=    0.000
 Gap=     0.165 Goal=   None    Shift=    0.000
 RMSDP=2.65D-05 MaxDP=5.63D-04 DE=-1.51D-05 OVMax= 1.34D-03

 Cycle   8  Pass 0  IDiag  1:
 E= -346.083996846192     Delta-E=       -0.000005252143 Rises=F Damp=F
 DIIS: error= 6.42D-05 at cycle   8 NSaved=   8.
 NSaved= 8 IEnMin= 8 EnMin= -346.083996846192     IErMin= 8 ErrMin= 6.42D-05
 ErrMax= 6.42D-05  0.00D+00 EMaxC= 1.00D-01 BMatC= 4.28D-06 BMatP= 2.19D-05
 IDIUse=1 WtCom= 1.00D+00 WtEn= 0.00D+00
 Coeff-Com: -0.243D-03-0.501D-04-0.778D-02-0.137D-01-0.281D-01 0.902D-01
 Coeff-Com:  0.351D+00 0.609D+00
 Coeff:     -0.243D-03-0.501D-04-0.778D-02-0.137D-01-0.281D-01 0.902D-01
 Coeff:      0.351D+00 0.609D+00
 Gap=     0.161 Goal=   None    Shift=    0.000
 Gap=     0.165 Goal=   None    Shift=    0.000
 RMSDP=1.16D-05 MaxDP=2.28D-04 DE=-5.25D-06 OVMax= 8.51D-04

 Cycle   9  Pass 0  IDiag  1:
 E= -346.083998107972     Delta-E=       -0.000001261780 Rises=F Damp=F
 DIIS: error= 1.52D-05 at cycle   9 NSaved=   9.
 NSaved= 9 IEnMin= 9 EnMin= -346.083998107972     IErMin= 9 ErrMin= 1.52D-05
 ErrMax= 1.52D-05  0.00D+00 EMaxC= 1.00D-01 BMatC= 2.43D-07 BMatP= 4.28D-06
 IDIUse=1 WtCom= 1.00D+00 WtEn= 0.00D+00
 Coeff-Com: -0.368D-03 0.617D-03-0.281D-02-0.567D-02-0.175D-01-0.668D-02
 Coeff-Com:  0.827D-01 0.257D+00 0.693D+00
 Coeff:     -0.368D-03 0.617D-03-0.281D-02-0.567D-02-0.175D-01-0.668D-02
 Coeff:      0.827D-01 0.257D+00 0.693D+00
 Gap=     0.160 Goal=   None    Shift=    0.000
 Gap=     0.165 Goal=   None    Shift=    0.000
 RMSDP=3.69D-06 MaxDP=7.55D-05 DE=-1.26D-06 OVMax= 2.37D-04

 Initial convergence to 1.0D-05 achieved.  Increase integral accuracy.
 Cycle  10  Pass 1  IDiag  1:
 E= -346.083985141029     Delta-E=        0.000012966943 Rises=F Damp=F
 DIIS: error= 5.62D-06 at cycle   1 NSaved=   1.
 NSaved= 1 IEnMin= 1 EnMin= -346.083985141029     IErMin= 1 ErrMin= 5.62D-06
 ErrMax= 5.62D-06  0.00D+00 EMaxC= 1.00D-01 BMatC= 2.51D-08 BMatP= 2.51D-08
 IDIUse=1 WtCom= 1.00D+00 WtEn= 0.00D+00
 Coeff-Com:  0.100D+01
 Coeff:      0.100D+01
 Gap=     0.160 Goal=   None    Shift=    0.000
 Gap=     0.165 Goal=   None    Shift=    0.000
 RMSDP=3.69D-06 MaxDP=7.55D-05 DE= 1.30D-05 OVMax= 1.47D-04

 Cycle  11  Pass 1  IDiag  1:
 E= -346.083985155406     Delta-E=       -0.000000014378 Rises=F Damp=F
 DIIS: error= 4.48D-06 at cycle   2 NSaved=   2.
 NSaved= 2 IEnMin= 2 EnMin= -346.083985155406     IErMin= 2 ErrMin= 4.48D-06
 ErrMax= 4.48D-06  0.00D+00 EMaxC= 1.00D-01 BMatC= 1.55D-08 BMatP= 2.51D-08
 IDIUse=1 WtCom= 1.00D+00 WtEn= 0.00D+00
 Coeff-Com:  0.408D+00 0.592D+00
 Coeff:      0.408D+00 0.592D+00
 Gap=     0.160 Goal=   None    Shift=    0.000
 Gap=     0.165 Goal=   None    Shift=    0.000
 RMSDP=8.73D-07 MaxDP=1.98D-05 DE=-1.44D-08 OVMax= 4.39D-05

 Cycle  12  Pass 1  IDiag  1:
 E= -346.083985160151     Delta-E=       -0.000000004744 Rises=F Damp=F
 DIIS: error= 3.37D-06 at cycle   3 NSaved=   3.
 NSaved= 3 IEnMin= 3 EnMin= -346.083985160151     IErMin= 3 ErrMin= 3.37D-06
 ErrMax= 3.37D-06  0.00D+00 EMaxC= 1.00D-01 BMatC= 5.45D-09 BMatP= 1.55D-08
 IDIUse=1 WtCom= 1.00D+00 WtEn= 0.00D+00
 Coeff-Com: -0.434D-01 0.329D+00 0.715D+00
 Coeff:     -0.434D-01 0.329D+00 0.715D+00
 Gap=     0.160 Goal=   None    Shift=    0.000
 Gap=     0.165 Goal=   None    Shift=    0.000
 RMSDP=6.20D-07 MaxDP=1.56D-05 DE=-4.74D-09 OVMax= 4.89D-05

 Cycle  13  Pass 1  IDiag  1:
 E= -346.083985162636     Delta-E=       -0.000000002486 Rises=F Damp=F
 DIIS: error= 2.17D-06 at cycle   4 NSaved=   4.
 NSaved= 4 IEnMin= 4 EnMin= -346.083985162636     IErMin= 4 ErrMin= 2.17D-06
 ErrMax= 2.17D-06  0.00D+00 EMaxC= 1.00D-01 BMatC= 2.09D-09 BMatP= 5.45D-09
 IDIUse=1 WtCom= 1.00D+00 WtEn= 0.00D+00
 Coeff-Com: -0.145D+00 0.432D-01 0.470D+00 0.632D+00
 Coeff:     -0.145D+00 0.432D-01 0.470D+00 0.632D+00
 Gap=     0.160 Goal=   None    Shift=    0.000
 Gap=     0.165 Goal=   None    Shift=    0.000
 RMSDP=3.77D-07 MaxDP=1.15D-05 DE=-2.49D-09 OVMax= 3.34D-05

 Cycle  14  Pass 1  IDiag  1:
 E= -346.083985163623     Delta-E=       -0.000000000986 Rises=F Damp=F
 DIIS: error= 1.35D-06 at cycle   5 NSaved=   5.
 NSaved= 5 IEnMin= 5 EnMin= -346.083985163623     IErMin= 5 ErrMin= 1.35D-06
 ErrMax= 1.35D-06  0.00D+00 EMaxC= 1.00D-01 BMatC= 4.20D-10 BMatP= 2.09D-09
 IDIUse=1 WtCom= 1.00D+00 WtEn= 0.00D+00
 Coeff-Com: -0.629D-01-0.704D-01 0.537D-01 0.336D+00 0.743D+00
 Coeff:     -0.629D-01-0.704D-01 0.537D-01 0.336D+00 0.743D+00
 Gap=     0.160 Goal=   None    Shift=    0.000
 Gap=     0.165 Goal=   None    Shift=    0.000
 RMSDP=2.33D-07 MaxDP=6.95D-06 DE=-9.86D-10 OVMax= 1.98D-05

 Cycle  15  Pass 1  IDiag  1:
 E= -346.083985163833     Delta-E=       -0.000000000211 Rises=F Damp=F
 DIIS: error= 8.64D-07 at cycle   6 NSaved=   6.
 NSaved= 6 IEnMin= 6 EnMin= -346.083985163833     IErMin= 6 ErrMin= 8.64D-07
 ErrMax= 8.64D-07  0.00D+00 EMaxC= 1.00D-01 BMatC= 2.50D-10 BMatP= 4.20D-10
 IDIUse=1 WtCom= 1.00D+00 WtEn= 0.00D+00
 Coeff-Com:  0.320D-02-0.717D-01-0.126D+00 0.395D-01 0.583D+00 0.573D+00
 Coeff:      0.320D-02-0.717D-01-0.126D+00 0.395D-01 0.583D+00 0.573D+00
 Gap=     0.160 Goal=   None    Shift=    0.000
 Gap=     0.165 Goal=   None    Shift=    0.000
 RMSDP=1.17D-07 MaxDP=3.32D-06 DE=-2.11D-10 OVMax= 9.61D-06

 Cycle  16  Pass 1  IDiag  1:
 E= -346.083985163917     Delta-E=       -0.000000000084 Rises=F Damp=F
 DIIS: error= 2.00D-07 at cycle   7 NSaved=   7.
 NSaved= 7 IEnMin= 7 EnMin= -346.083985163917     IErMin= 7 ErrMin= 2.00D-07
 ErrMax= 2.00D-07  0.00D+00 EMaxC= 1.00D-01 BMatC= 2.13D-11 BMatP= 2.50D-10
 IDIUse=1 WtCom= 1.00D+00 WtEn= 0.00D+00
 Coeff-Com:  0.896D-02-0.311D-01-0.775D-01-0.196D-01 0.227D+00 0.321D+00
 Coeff-Com:  0.571D+00
 Coeff:      0.896D-02-0.311D-01-0.775D-01-0.196D-01 0.227D+00 0.321D+00
 Coeff:      0.571D+00
 Gap=     0.160 Goal=   None    Shift=    0.000
 Gap=     0.165 Goal=   None    Shift=    0.000
 RMSDP=3.03D-08 MaxDP=6.89D-07 DE=-8.38D-11 OVMax= 1.88D-06

 SCF Done:  E(UB3LYP) =  -346.083985164     A.U. after   16 cycles
            NFock= 16  Conv=0.30D-07     -V/T= 2.0092
 <Sx>= 0.0000 <Sy>= 0.0000 <Sz>= 0.5000 <S**2>= 0.7530 S= 0.5015
 <L.S>= 0.000000000000E+00
 KE= 3.429145492628D+02 PE=-1.456321907690D+03 EE= 4.412805398520D+02
 Annihilation of the first spin contaminant:
 S**2 before annihilation     0.7530,   after     0.7500
 Leave Link  502 at Wed Dec 03 16:50:50 2025, MaxMem=   104857600 cpu:              20.0 elap:              19.6
 (Enter D:\Gaussian\G16W\l601.exe)
 Copying SCF densities to generalized density rwf, IOpCl= 1 IROHF=0.

 **********************************************************************

            Population analysis using the SCF density.

 **********************************************************************

 Orbital symmetries:
 Alpha Orbitals:
       Occupied  (A) (A) (A) (A) (A) (A) (A) (A) (A) (A) (A) (A)
                 (A) (A) (A) (A) (A) (A) (A) (A) (A) (A) (A) (A)
                 (A) (A) (A) (A) (A)
       Virtual   (A) (A) (A) (A) (A) (A) (A) (A) (A) (A) (A) (A)
                 (A) (A) (A) (A) (A) (A) (A) (A) (A) (A) (A) (A)
                 (A) (A) (A) (A) (A) (A) (A) (A) (A) (A) (A) (A)
                 (A) (A) (A) (A) (A) (A) (A) (A) (A) (A) (A) (A)
                 (A) (A) (A) (A) (A) (A) (A) (A) (A) (A) (A) (A)
                 (A) (A) (A) (A) (A) (A) (A) (A) (A) (A) (A) (A)
                 (A) (A) (A) (A) (A) (A) (A) (A) (A) (A) (A) (A)
                 (A) (A) (A) (A) (A) (A) (A) (A) (A) (A) (A) (A)
                 (A) (A) (A) (A) (A) (A) (A) (A) (A)
 Beta  Orbitals:
       Occupied  (A) (A) (A) (A) (A) (A) (A) (A) (A) (A) (A) (A)
                 (A) (A) (A) (A) (A) (A) (A) (A) (A) (A) (A) (A)
                 (A) (A) (A) (A)
       Virtual   (A) (A) (A) (A) (A) (A) (A) (A) (A) (A) (A) (A)
                 (A) (A) (A) (A) (A) (A) (A) (A) (A) (A) (A) (A)
                 (A) (A) (A) (A) (A) (A) (A) (A) (A) (A) (A) (A)
                 (A) (A) (A) (A) (A) (A) (A) (A) (A) (A) (A) (A)
                 (A) (A) (A) (A) (A) (A) (A) (A) (A) (A) (A) (A)
                 (A) (A) (A) (A) (A) (A) (A) (A) (A) (A) (A) (A)
                 (A) (A) (A) (A) (A) (A) (A) (A) (A) (A) (A) (A)
                 (A) (A) (A) (A) (A) (A) (A) (A) (A) (A) (A) (A)
                 (A) (A) (A) (A) (A) (A) (A) (A) (A) (A)
 The electronic state is 2-A.
 Alpha  occ. eigenvalues --  -19.19286 -10.27852 -10.22427 -10.20014 -10.19422
 Alpha  occ. eigenvalues --  -10.19258 -10.18874 -10.18570  -1.09063  -0.87261
 Alpha  occ. eigenvalues --   -0.76562  -0.72365  -0.68048  -0.58430  -0.53469
 Alpha  occ. eigenvalues --   -0.53191  -0.50016  -0.47194  -0.43456  -0.42871
 Alpha  occ. eigenvalues --   -0.42152  -0.41022  -0.40016  -0.37361  -0.36238
 Alpha  occ. eigenvalues --   -0.35423  -0.30601  -0.22568  -0.18752
 Alpha virt. eigenvalues --   -0.02703  -0.01105   0.06871   0.10726   0.12216
 Alpha virt. eigenvalues --    0.13919   0.14552   0.16554   0.17379   0.18286
 Alpha virt. eigenvalues --    0.19310   0.23611   0.24187   0.27599   0.31296
 Alpha virt. eigenvalues --    0.35915   0.40427   0.43549   0.49324   0.51088
 Alpha virt. eigenvalues --    0.53239   0.53473   0.55546   0.56028   0.57988
 Alpha virt. eigenvalues --    0.61745   0.61907   0.65130   0.66010   0.68150
 Alpha virt. eigenvalues --    0.69084   0.69799   0.73590   0.74690   0.76324
 Alpha virt. eigenvalues --    0.80213   0.81786   0.84506   0.85543   0.86174
 Alpha virt. eigenvalues --    0.86713   0.87847   0.89307   0.90834   0.93147
 Alpha virt. eigenvalues --    0.94894   0.96552   1.01529   1.03683   1.13430
 Alpha virt. eigenvalues --    1.13550   1.18917   1.27254   1.34794   1.38449
 Alpha virt. eigenvalues --    1.39327   1.40896   1.46349   1.49032   1.50246
 Alpha virt. eigenvalues --    1.54138   1.57583   1.64646   1.66838   1.73395
 Alpha virt. eigenvalues --    1.74345   1.78962   1.83495   1.86714   1.89639
 Alpha virt. eigenvalues --    1.93053   1.93943   2.00998   2.02506   2.04232
 Alpha virt. eigenvalues --    2.08235   2.12797   2.16652   2.17732   2.21709
 Alpha virt. eigenvalues --    2.30464   2.32792   2.36143   2.39821   2.41304
 Alpha virt. eigenvalues --    2.45100   2.51526   2.55794   2.59750   2.64987
 Alpha virt. eigenvalues --    2.70825   2.74541   2.79294   2.90271   2.97223
 Alpha virt. eigenvalues --    3.01542   3.05548   3.87660   4.05084   4.09911
 Alpha virt. eigenvalues --    4.15041   4.25480   4.30239   4.53450   4.57353
  Beta  occ. eigenvalues --  -19.18510 -10.26871 -10.22072 -10.19950 -10.19406
  Beta  occ. eigenvalues --  -10.19259 -10.18871 -10.18553  -1.07527  -0.86983
  Beta  occ. eigenvalues --   -0.76168  -0.71998  -0.67703  -0.57722  -0.53335
  Beta  occ. eigenvalues --   -0.52010  -0.49691  -0.45697  -0.43094  -0.42013
  Beta  occ. eigenvalues --   -0.41081  -0.39953  -0.38700  -0.36936  -0.35677
  Beta  occ. eigenvalues --   -0.34450  -0.30169  -0.22392
  Beta virt. eigenvalues --   -0.05915  -0.01865   0.00418   0.07083   0.10755
  Beta virt. eigenvalues --    0.12379   0.14060   0.14586   0.16641   0.17421
  Beta virt. eigenvalues --    0.18344   0.19714   0.23878   0.24408   0.29017
  Beta virt. eigenvalues --    0.32220   0.36036   0.40851   0.44033   0.49698
  Beta virt. eigenvalues --    0.51349   0.53507   0.55560   0.56163   0.56491
  Beta virt. eigenvalues --    0.58802   0.62087   0.62126   0.65218   0.66688
  Beta virt. eigenvalues --    0.68576   0.69167   0.70484   0.74614   0.75001
  Beta virt. eigenvalues --    0.76536   0.80629   0.82032   0.84537   0.85932
  Beta virt. eigenvalues --    0.86631   0.86958   0.88121   0.89422   0.90909
  Beta virt. eigenvalues --    0.93697   0.95096   0.96664   1.02097   1.05428
  Beta virt. eigenvalues --    1.13592   1.13758   1.18978   1.27454   1.35482
  Beta virt. eigenvalues --    1.38705   1.40124   1.41131   1.46676   1.49420
  Beta virt. eigenvalues --    1.50781   1.55166   1.58764   1.65922   1.68840
  Beta virt. eigenvalues --    1.74085   1.75379   1.79094   1.83961   1.87487
  Beta virt. eigenvalues --    1.89766   1.94185   1.94405   2.01507   2.02877
  Beta virt. eigenvalues --    2.04678   2.09349   2.13601   2.16862   2.18007
  Beta virt. eigenvalues --    2.22360   2.30616   2.33051   2.36200   2.40837
  Beta virt. eigenvalues --    2.42562   2.45781   2.52058   2.56315   2.60637
  Beta virt. eigenvalues --    2.65663   2.71365   2.75104   2.80198   2.91692
  Beta virt. eigenvalues --    2.97760   3.02247   3.05630   3.88798   4.06508
  Beta virt. eigenvalues --    4.10405   4.15089   4.25553   4.30894   4.53676
  Beta virt. eigenvalues --    4.57840
          Condensed to atoms (all electrons):
               1          2          3          4          5          6
     1  C    4.613967   0.642162  -0.001627  -0.037333  -0.008483   0.422057
     2  C    0.642162   5.105206  -0.019380   0.306846  -0.118011  -0.020674
     3  C   -0.001627  -0.019380   5.124256   0.153204  -0.020358   0.001248
     4  C   -0.037333   0.306846   0.153204   5.382894   0.364862  -0.076932
     5  C   -0.008483  -0.118011  -0.020358   0.364862   4.986960   0.627475
     6  C    0.422057  -0.020674   0.001248  -0.076932   0.627475   4.912896
     7  H   -0.036276   0.364877  -0.001197  -0.051733   0.004309   0.006936
     8  O    0.000226   0.001434   0.513514  -0.058076   0.001256   0.000095
     9  H    0.003733   0.005975   0.002777  -0.050775   0.361922  -0.034424
    10  H   -0.047884   0.006349  -0.000022   0.007526  -0.053502   0.364156
    11  H   -0.001993  -0.020850  -0.030427   0.334858  -0.026851   0.000640
    12  C    0.367430  -0.077374  -0.000072   0.009912   0.006696  -0.072021
    13  H   -0.027129   0.001010  -0.000004  -0.000287   0.000002  -0.000782
    14  H   -0.028972   0.000591   0.000015  -0.000095   0.000054  -0.001169
    15  H   -0.025055  -0.003458  -0.000003  -0.000132  -0.000106   0.003868
               7          8          9         10         11         12
     1  C   -0.036276   0.000226   0.003733  -0.047884  -0.001993   0.367430
     2  C    0.364877   0.001434   0.005975   0.006349  -0.020850  -0.077374
     3  C   -0.001197   0.513514   0.002777  -0.000022  -0.030427  -0.000072
     4  C   -0.051733  -0.058076  -0.050775   0.007526   0.334858   0.009912
     5  C    0.004309   0.001256   0.361922  -0.053502  -0.026851   0.006696
     6  C    0.006936   0.000095  -0.034424   0.364156   0.000640  -0.072021
     7  H    0.571881   0.002231  -0.000065  -0.000141   0.000727  -0.007045
     8  O    0.002231   7.842322  -0.000056   0.000001  -0.000646  -0.000005
     9  H   -0.000065  -0.000056   0.570534  -0.003657   0.000474  -0.000173
    10  H   -0.000141   0.000001  -0.003657   0.596195  -0.000151  -0.003766
    11  H    0.000727  -0.000646   0.000474  -0.000151   0.545323  -0.000170
    12  C   -0.007045  -0.000005  -0.000173  -0.003766  -0.000170   5.211686
    13  H    0.000076   0.000000   0.000000   0.001241   0.000024   0.360828
    14  H    0.000018   0.000000  -0.000003   0.001142  -0.000005   0.363682
    15  H    0.004272   0.000000   0.000003  -0.000049  -0.000005   0.366058
              13         14         15
     1  C   -0.027129  -0.028972  -0.025055
     2  C    0.001010   0.000591  -0.003458
     3  C   -0.000004   0.000015  -0.000003
     4  C   -0.000287  -0.000095  -0.000132
     5  C    0.000002   0.000054  -0.000106
     6  C   -0.000782  -0.001169   0.003868
     7  H    0.000076   0.000018   0.004272
     8  O    0.000000   0.000000   0.000000
     9  H    0.000000  -0.000003   0.000003
    10  H    0.001241   0.001142  -0.000049
    11  H    0.000024  -0.000005  -0.000005
    12  C    0.360828   0.363682   0.366058
    13  H    0.566045  -0.034940  -0.027959
    14  H   -0.034940   0.563591  -0.027605
    15  H   -0.027959  -0.027605   0.548467
          Atomic-Atomic Spin Densities.
               1          2          3          4          5          6
     1  C    0.044934   0.000888  -0.000032  -0.003344  -0.002074   0.005084
     2  C    0.000888   0.029885   0.006457  -0.053587   0.003248  -0.001431
     3  C   -0.000032   0.006457   0.903824  -0.174322   0.000610   0.000563
     4  C   -0.003344  -0.053587  -0.174322   0.368448  -0.000154  -0.001118
     5  C   -0.002074   0.003248   0.000610  -0.000154   0.011242  -0.001963
     6  C    0.005084  -0.001431   0.000563  -0.001118  -0.001963  -0.004479
     7  H    0.000068   0.000986  -0.000390  -0.000259   0.000043  -0.000120
     8  O    0.000013   0.006581  -0.143813  -0.010578   0.000037   0.000003
     9  H   -0.000075   0.000527   0.003271  -0.003490  -0.000874   0.000284
    10  H   -0.000029   0.000067   0.000013  -0.000047  -0.000077   0.000226
    11  H   -0.000317   0.004666   0.007037  -0.011830   0.001231  -0.000113
    12  C   -0.000549  -0.001032   0.000001  -0.000242  -0.000033  -0.000463
    13  H   -0.000711  -0.000122   0.000000   0.000003   0.000006  -0.000126
    14  H   -0.001250   0.000292   0.000000   0.000027   0.000015   0.000120
    15  H   -0.000081  -0.000013   0.000000  -0.000002   0.000000  -0.000010
               7          8          9         10         11         12
     1  C    0.000068   0.000013  -0.000075  -0.000029  -0.000317  -0.000549
     2  C    0.000986   0.006581   0.000527   0.000067   0.004666  -0.001032
     3  C   -0.000390  -0.143813   0.003271   0.000013   0.007037   0.000001
     4  C   -0.000259  -0.010578  -0.003490  -0.000047  -0.011830  -0.000242
     5  C    0.000043   0.000037  -0.000874  -0.000077   0.001231  -0.000033
     6  C   -0.000120   0.000003   0.000284   0.000226  -0.000113  -0.000463
     7  H   -0.001190   0.000523   0.000003   0.000001   0.000153   0.000229
     8  O    0.000523   0.388525  -0.000015   0.000000   0.000290   0.000004
     9  H    0.000003  -0.000015   0.000580   0.000117   0.000258   0.000008
    10  H    0.000001   0.000000   0.000117  -0.000402   0.000007   0.000071
    11  H    0.000153   0.000290   0.000258   0.000007  -0.006869   0.000016
    12  C    0.000229   0.000004   0.000008   0.000071   0.000016   0.000637
    13  H    0.000004   0.000000   0.000001   0.000012   0.000000   0.001044
    14  H   -0.000020   0.000000  -0.000001  -0.000042  -0.000001  -0.001021
    15  H    0.000000   0.000000   0.000000   0.000000   0.000000   0.000220
              13         14         15
     1  C   -0.000711  -0.001250  -0.000081
     2  C   -0.000122   0.000292  -0.000013
     3  C    0.000000   0.000000   0.000000
     4  C    0.000003   0.000027  -0.000002
     5  C    0.000006   0.000015   0.000000
     6  C   -0.000126   0.000120  -0.000010
     7  H    0.000004  -0.000020   0.000000
     8  O    0.000000   0.000000   0.000000
     9  H    0.000001  -0.000001   0.000000
    10  H    0.000012  -0.000042   0.000000
    11  H    0.000000  -0.000001   0.000000
    12  C    0.001044  -0.001021   0.000220
    13  H    0.001316  -0.000699   0.000019
    14  H   -0.000699   0.006065  -0.000088
    15  H    0.000019  -0.000088  -0.000091
 Mulliken charges and spin densities:
               1          2
     1  C    0.165178   0.042524
     2  C   -0.174705  -0.002588
     3  C    0.278075   0.603219
     4  C   -0.284739   0.109505
     5  C   -0.126225   0.011257
     6  C   -0.133370  -0.003543
     7  H    0.141128   0.000030
     8  O   -0.302297   0.241570
     9  H    0.143736   0.000595
    10  H    0.132561  -0.000082
    11  H    0.199051  -0.005473
    12  C   -0.525668  -0.001110
    13  H    0.161874   0.000747
    14  H    0.163695   0.003396
    15  H    0.161703  -0.000046
 Sum of Mulliken charges =   0.00000   1.00000
 Mulliken charges and spin densities with hydrogens summed into heavy atoms:
               1          2
     1  C    0.165178   0.042524
     2  C   -0.033577  -0.002558
     3  C    0.278075   0.603219
     4  C   -0.085687   0.104032
     5  C    0.017511   0.011852
     6  C   -0.000808  -0.003625
     8  O   -0.302297   0.241570
    12  C   -0.038395   0.002986
 Electronic spatial extent (au):  <R**2>=           1001.6277
 Charge=              0.0000 electrons
 Dipole moment (field-independent basis, Debye):
    X=             -2.1093    Y=              0.9537    Z=              0.9458  Tot=              2.5007
 Quadrupole moment (field-independent basis, Debye-Ang):
   XX=            -49.0602   YY=            -45.0621   ZZ=            -46.3089
   XY=              2.9894   XZ=              3.8254   YZ=             -1.1916
 Traceless Quadrupole moment (field-independent basis, Debye-Ang):
   XX=             -2.2498   YY=              1.7483   ZZ=              0.5015
   XY=              2.9894   XZ=              3.8254   YZ=             -1.1916
 Octapole moment (field-independent basis, Debye-Ang**2):
  XXX=            -18.1511  YYY=             -1.8670  ZZZ=             -0.8559  XYY=             -1.6130
  XXY=              6.0647  XXZ=              4.1920  XZZ=              4.6006  YZZ=             -1.9812
  YYZ=              0.0652  XYZ=              0.0684
 Hexadecapole moment (field-independent basis, Debye-Ang**3):
 XXXX=           -925.5849 YYYY=           -305.1959 ZZZZ=            -95.1875 XXXY=              2.3545
 XXXZ=             15.0737 YYYX=             -3.4708 YYYZ=             -6.6591 ZZZX=              1.9493
 ZZZY=              4.6183 XXYY=           -208.3047 XXZZ=           -160.1066 YYZZ=            -72.3553
 XXYZ=             -4.3430 YYXZ=              3.3187 ZZXY=             -2.7580
 N-N= 3.260428334110D+02 E-N=-1.456321909594D+03  KE= 3.429145492628D+02
                          Isotropic Fermi Contact Couplings
        Atom                 a.u.       MegaHertz       Gauss      10(-4) cm-1
     1  C(13)              0.00725       8.15235       2.90896       2.71933
     2  C(13)              0.01118      12.56392       4.48312       4.19087
     3  C(13)              0.36645     411.96068     146.99781     137.41529
     4  C(13)              0.12556     141.14924      50.36556      47.08232
     5  C(13)              0.00032       0.36348       0.12970       0.12124
     6  C(13)             -0.00042      -0.47484      -0.16943      -0.15839
     7  H(1)               0.00000      -0.01984      -0.00708      -0.00662
     8  O(17)              0.05592     -33.89964     -12.09623     -11.30770
     9  H(1)              -0.00027      -1.20294      -0.42924      -0.40126
    10  H(1)              -0.00005      -0.22158      -0.07906      -0.07391
    11  H(1)              -0.00308     -13.74966      -4.90622      -4.58639
    12  C(13)              0.00137       1.53946       0.54932       0.51351
    13  H(1)               0.00054       2.41741       0.86259       0.80636
    14  H(1)               0.00164       7.31903       2.61161       2.44137
    15  H(1)               0.00001       0.02525       0.00901       0.00842
 --------------------------------------------------------
       Center         ----  Spin Dipole Couplings  ----
                      3XX-RR        3YY-RR        3ZZ-RR
 --------------------------------------------------------
     1   Atom       -0.018205     -0.023553      0.041758
     2   Atom        0.020973      0.018310     -0.039283
     3   Atom       -0.056294      0.300179     -0.243885
     4   Atom        0.131834     -0.100106     -0.031728
     5   Atom        0.002982     -0.007870      0.004888
     6   Atom        0.005361     -0.003074     -0.002286
     7   Atom        0.003145      0.001944     -0.005089
     8   Atom        0.256706      0.214998     -0.471704
     9   Atom       -0.000636      0.006547     -0.005910
    10   Atom        0.001899     -0.000294     -0.001605
    11   Atom       -0.007231     -0.015119      0.022350
    12   Atom        0.003864     -0.002026     -0.001838
    13   Atom        0.002593     -0.001341     -0.001253
    14   Atom        0.001641     -0.001224     -0.000417
    15   Atom        0.001227      0.000221     -0.001448
 --------------------------------------------------------
                        XY            XZ            YZ
 --------------------------------------------------------
     1   Atom       -0.000299     -0.003716      0.013509
     2   Atom        0.034550      0.019745      0.001622
     3   Atom        0.398988     -0.102369     -0.179217
     4   Atom       -0.048653     -0.135142      0.024408
     5   Atom       -0.010395     -0.014740      0.007359
     6   Atom       -0.001669     -0.000500     -0.006054
     7   Atom        0.004672     -0.002391     -0.002465
     8   Atom        0.841117     -0.454480     -0.395423
     9   Atom       -0.006230     -0.000790      0.000124
    10   Atom       -0.001794      0.000659     -0.000824
    11   Atom       -0.001451     -0.009443      0.010145
    12   Atom        0.002875      0.002031      0.001337
    13   Atom        0.000352     -0.000490      0.000025
    14   Atom        0.000851      0.000992      0.000139
    15   Atom        0.001740     -0.000048     -0.000114
 --------------------------------------------------------


 ---------------------------------------------------------------------------------
              Anisotropic Spin Dipole Couplings in Principal Axis System
 ---------------------------------------------------------------------------------

       Atom             a.u.   MegaHertz   Gauss  10(-4) cm-1        Axes

              Baa    -0.0263    -3.524    -1.257    -1.175 -0.0547  0.9788 -0.1974
     1 C(13)  Bbb    -0.0184    -2.469    -0.881    -0.824  0.9968  0.0651  0.0469
              Bcc     0.0447     5.993     2.138     1.999 -0.0588  0.1942  0.9792
 
              Baa    -0.0466    -6.250    -2.230    -2.085 -0.3537  0.1653  0.9207
     2 C(13)  Bbb    -0.0102    -1.362    -0.486    -0.454 -0.5843  0.7295 -0.3554
              Bcc     0.0567     7.613     2.716     2.539  0.7304  0.6637  0.1614
 
              Baa    -0.3199   -42.931   -15.319   -14.320  0.7214 -0.5755 -0.3852
     3 C(13)  Bbb    -0.2888   -38.757   -13.829   -12.928  0.4500 -0.0333  0.8924
              Bcc     0.6087    81.687    29.148    27.248  0.5264  0.8171 -0.2350
 
              Baa    -0.1114   -14.944    -5.332    -4.985  0.4116  0.7886  0.4568
     4 C(13)  Bbb    -0.1060   -14.219    -5.074    -4.743  0.3036 -0.5913  0.7471
              Bcc     0.2173    29.163    10.406     9.728  0.8593 -0.1688 -0.4828
 
              Baa    -0.0144    -1.932    -0.689    -0.645  0.6065  0.7774  0.1669
     5 C(13)  Bbb    -0.0093    -1.244    -0.444    -0.415  0.4505 -0.5089  0.7335
              Bcc     0.0237     3.177     1.133     1.060 -0.6551  0.3696  0.6589
 
              Baa    -0.0089    -1.197    -0.427    -0.399  0.1090  0.7300  0.6747
     6 C(13)  Bbb     0.0031     0.421     0.150     0.140 -0.3046 -0.6215  0.7217
              Bcc     0.0058     0.776     0.277     0.259  0.9462 -0.2841  0.1546
 
              Baa    -0.0060    -3.198    -1.141    -1.067  0.1422  0.2162  0.9659
     7 H(1)   Bbb    -0.0021    -1.146    -0.409    -0.382 -0.6766  0.7335 -0.0646
              Bcc     0.0081     4.344     1.550     1.449  0.7225  0.6443 -0.2506
 
              Baa    -0.6903    49.946    17.822    16.660  0.4652 -0.0462  0.8840
     8 O(17)  Bbb    -0.5931    42.920    15.315    14.317 -0.5652  0.7531  0.3368
              Bcc     1.2834   -92.866   -33.137   -30.977  0.6812  0.6563 -0.3243
 
              Baa    -0.0061    -3.271    -1.167    -1.091  0.2846  0.1306  0.9497
     9 H(1)   Bbb    -0.0040    -2.151    -0.768    -0.718  0.8172  0.4849 -0.3116
              Bcc     0.0102     5.422     1.935     1.809 -0.5012  0.8648  0.0313
 
              Baa    -0.0020    -1.077    -0.384    -0.359  0.0832  0.4987  0.8628
    10 H(1)   Bbb    -0.0011    -0.583    -0.208    -0.194  0.5288  0.7117 -0.4624
              Bcc     0.0031     1.659     0.592     0.553  0.8447 -0.4947  0.2045
 
              Baa    -0.0178    -9.491    -3.387    -3.166 -0.1075  0.9576 -0.2673
    11 H(1)   Bbb    -0.0097    -5.195    -1.854    -1.733  0.9585  0.1712  0.2280
              Bcc     0.0275    14.686     5.240     4.899 -0.2641  0.2317  0.9363
 
              Baa    -0.0034    -0.461    -0.165    -0.154 -0.2160  0.8664 -0.4501
    12 C(13)  Bbb    -0.0023    -0.315    -0.112    -0.105 -0.4280  0.3303  0.8412
              Bcc     0.0058     0.776     0.277     0.259  0.8776  0.3744  0.2995
 
              Baa    -0.0014    -0.756    -0.270    -0.252 -0.1392  0.8274 -0.5441
    13 H(1)   Bbb    -0.0013    -0.677    -0.241    -0.226  0.0549  0.5550  0.8300
              Bcc     0.0027     1.432     0.511     0.478  0.9888  0.0857 -0.1226
 
              Baa    -0.0015    -0.789    -0.282    -0.263 -0.3078  0.9371  0.1647
    14 H(1)   Bbb    -0.0008    -0.409    -0.146    -0.137 -0.2890 -0.2571  0.9222
              Bcc     0.0022     1.198     0.428     0.400  0.9065  0.2363  0.3500
 
              Baa    -0.0015    -0.780    -0.278    -0.260 -0.0774  0.1471  0.9861
    15 H(1)   Bbb    -0.0011    -0.574    -0.205    -0.192 -0.5967  0.7856 -0.1641
              Bcc     0.0025     1.354     0.483     0.452  0.7988  0.6010 -0.0270
 

 ---------------------------------------------------------------------------------

 No NMR shielding tensors so no spin-rotation constants.
 Leave Link  601 at Wed Dec 03 16:50:50 2025, MaxMem=   104857600 cpu:               0.0 elap:               0.2
 (Enter D:\Gaussian\G16W\l9999.exe)
 1|1|UNPC-PC-20250526LCFF|SP|UB3LYP|6-31G(d)|C7H7O1(2)|ADMINISTRATOR|03
 -Dec-2025|0||#P B3LYP/6-31G* SCF=conver=7 out=wfn||Generated by Multiw
 fn (http://sobereva.com/multiwfn)||0,2|C,0,-1.32321,-0.216124,0.032182
 |C,0,-0.169785,-0.716949,0.516848|C,0,2.190855,0.05888,-0.180164|C,0,0
 .870359,0.370749,0.555013|C,0,0.143481,1.571759,-0.001449|C,0,-1.11838
 3,1.213018,-0.284264|H,0,0.024431,-1.735809,0.820399|O,0,2.638482,-0.9
 95904,-0.452769|H,0,0.603134,2.540895,-0.131346|H,0,-1.888232,1.859955
 ,-0.686898|H,0,1.204802,0.574877,1.58453|C,0,-2.619599,-0.93486,-0.179
 524|H,0,-3.422959,-0.479819,0.409644|H,0,-2.927572,-0.885672,-1.229547
 |H,0,-2.543765,-1.986034,0.103511||Version=EM64W-G16RevA.03|State=2-A|
 HF=-346.0839852|S2=0.752952|S2-1=0.|S2A=0.750007|RMSD=3.031e-008|Dipol
 e=-0.8298734,0.3751991,0.3721158|Quadrupole=-1.6727029,1.2998338,0.372
 8691,2.2225569,2.8440857,-0.8859561|PG=C01 [X(C7H7O1)]||@

 Writing a WFN file to "N.wfn"


 DEFINE YOUR TERMS, YOU WILL PERMIT ME AGAIN TO SAY, 
 OR WE SHALL NEVER UNDERSTAND ONE ANOTHER.

                                    -- VOLTAIRE
 Job cpu time:       0 days  0 hours  0 minutes 21.0 seconds.
 Elapsed time:       0 days  0 hours  0 minutes 21.3 seconds.
 File lengths (MBytes):  RWF=     15 Int=      0 D2E=      0 Chk=      2 Scr=      1
 Normal termination of Gaussian 16 at Wed Dec 03 16:50:50 2025.
