 Generated by Multiwfn (http://sobereva.com/multiwfn)
GAUSSIAN             57 MOL ORBITALS    252 PRIMITIVES       15 NUCLEI
  C    1    (CENTRE  1)  -2.50050467 -0.40841476  0.06081540  CHARGE =  6.0
  C    2    (CENTRE  2)  -0.32084745 -1.35483717  0.97670140  CHARGE =  6.0
  C    3    (CENTRE  3)   4.14011585  0.11126648 -0.34046039  CHARGE =  6.0
  C    4    (CENTRE  4)   1.64474015  0.70061386  1.04882280  CHARGE =  6.0
  C    5    (CENTRE  5)   0.27114014  2.97019404 -0.00273798  CHARGE =  6.0
  C    6    (CENTRE  6)  -2.11343733  2.29227216 -0.53718088  CHARGE =  6.0
  H    7    (CENTRE  7)   0.04616731 -3.28020359  1.55032965  CHARGE =  1.0
  O    8    (CENTRE  8)   4.98600798 -1.88198652 -0.85560918  CHARGE =  8.0
  H    9    (CENTRE  9)   1.13975870  4.80159552 -0.24820774  CHARGE =  1.0
  H   10    (CENTRE 10)  -3.56824091  3.51480612 -1.29804886  CHARGE =  1.0
  H   11    (CENTRE 11)   2.27674588  1.08635978  2.99432797  CHARGE =  1.0
  C   12    (CENTRE 12)  -4.95032503 -1.76662859 -0.33925096  CHARGE =  6.0
  H   13    (CENTRE 13)  -6.46845528 -0.90672549  0.77411520  CHARGE =  1.0
  H   14    (CENTRE 14)  -5.53230964 -1.67367665 -2.32350686  CHARGE =  1.0
  H   15    (CENTRE 15)  -4.80701984 -3.75305958  0.19560767  CHARGE =  1.0
CENTRE ASSIGNMENTS    1  1  1  1  1  1  1  1  1  1  1  1  1  1  1  1  1  1  1  1
CENTRE ASSIGNMENTS    1  1  1  1  1  1  1  1  2  2  2  2  2  2  2  2  2  2  2  2
CENTRE ASSIGNMENTS    2  2  2  2  2  2  2  2  2  2  2  2  2  2  2  2  3  3  3  3
CENTRE ASSIGNMENTS    3  3  3  3  3  3  3  3  3  3  3  3  3  3  3  3  3  3  3  3
CENTRE ASSIGNMENTS    3  3  3  3  4  4  4  4  4  4  4  4  4  4  4  4  4  4  4  4
CENTRE ASSIGNMENTS    4  4  4  4  4  4  4  4  4  4  4  4  5  5  5  5  5  5  5  5
CENTRE ASSIGNMENTS    5  5  5  5  5  5  5  5  5  5  5  5  5  5  5  5  5  5  5  5
CENTRE ASSIGNMENTS    6  6  6  6  6  6  6  6  6  6  6  6  6  6  6  6  6  6  6  6
CENTRE ASSIGNMENTS    6  6  6  6  6  6  6  6  7  7  7  7  8  8  8  8  8  8  8  8
CENTRE ASSIGNMENTS    8  8  8  8  8  8  8  8  8  8  8  8  8  8  8  8  8  8  8  8
CENTRE ASSIGNMENTS    9  9  9  9 10 10 10 10 11 11 11 11 12 12 12 12 12 12 12 12
CENTRE ASSIGNMENTS   12 12 12 12 12 12 12 12 12 12 12 12 12 12 12 12 12 12 12 12
CENTRE ASSIGNMENTS   13 13 13 13 14 14 14 14 15 15 15 15
TYPE ASSIGNMENTS      1  1  1  1  1  1  1  1  1  2  2  2  3  3  3  4  4  4  1  2
TYPE ASSIGNMENTS      3  4  5  6  7  8  9 10  1  1  1  1  1  1  1  1  1  2  2  2
TYPE ASSIGNMENTS      3  3  3  4  4  4  1  2  3  4  5  6  7  8  9 10  1  1  1  1
TYPE ASSIGNMENTS      1  1  1  1  1  2  2  2  3  3  3  4  4  4  1  2  3  4  5  6
TYPE ASSIGNMENTS      7  8  9 10  1  1  1  1  1  1  1  1  1  2  2  2  3  3  3  4
TYPE ASSIGNMENTS      4  4  1  2  3  4  5  6  7  8  9 10  1  1  1  1  1  1  1  1
TYPE ASSIGNMENTS      1  2  2  2  3  3  3  4  4  4  1  2  3  4  5  6  7  8  9 10
TYPE ASSIGNMENTS      1  1  1  1  1  1  1  1  1  2  2  2  3  3  3  4  4  4  1  2
TYPE ASSIGNMENTS      3  4  5  6  7  8  9 10  1  1  1  1  1  1  1  1  1  1  1  1
TYPE ASSIGNMENTS      1  2  2  2  3  3  3  4  4  4  1  2  3  4  5  6  7  8  9 10
TYPE ASSIGNMENTS      1  1  1  1  1  1  1  1  1  1  1  1  1  1  1  1  1  1  1  1
TYPE ASSIGNMENTS      1  2  2  2  3  3  3  4  4  4  1  2  3  4  5  6  7  8  9 10
TYPE ASSIGNMENTS      1  1  1  1  1  1  1  1  1  1  1  1
EXPONENTS  0.3047525D+04 0.4573695D+03 0.1039487D+03 0.2921016D+02 0.9286663D+01
EXPONENTS  0.3163927D+01 0.7868272D+01 0.1881289D+01 0.5442493D+00 0.7868272D+01
EXPONENTS  0.1881289D+01 0.5442493D+00 0.7868272D+01 0.1881289D+01 0.5442493D+00
EXPONENTS  0.7868272D+01 0.1881289D+01 0.5442493D+00 0.1687145D+00 0.1687145D+00
EXPONENTS  0.1687145D+00 0.1687145D+00 0.8000000D+00 0.8000000D+00 0.8000000D+00
EXPONENTS  0.8000000D+00 0.8000000D+00 0.8000000D+00 0.3047525D+04 0.4573695D+03
EXPONENTS  0.1039487D+03 0.2921016D+02 0.9286663D+01 0.3163927D+01 0.7868272D+01
EXPONENTS  0.1881289D+01 0.5442493D+00 0.7868272D+01 0.1881289D+01 0.5442493D+00
EXPONENTS  0.7868272D+01 0.1881289D+01 0.5442493D+00 0.7868272D+01 0.1881289D+01
EXPONENTS  0.5442493D+00 0.1687145D+00 0.1687145D+00 0.1687145D+00 0.1687145D+00
EXPONENTS  0.8000000D+00 0.8000000D+00 0.8000000D+00 0.8000000D+00 0.8000000D+00
EXPONENTS  0.8000000D+00 0.3047525D+04 0.4573695D+03 0.1039487D+03 0.2921016D+02
EXPONENTS  0.9286663D+01 0.3163927D+01 0.7868272D+01 0.1881289D+01 0.5442493D+00
EXPONENTS  0.7868272D+01 0.1881289D+01 0.5442493D+00 0.7868272D+01 0.1881289D+01
EXPONENTS  0.5442493D+00 0.7868272D+01 0.1881289D+01 0.5442493D+00 0.1687145D+00
EXPONENTS  0.1687145D+00 0.1687145D+00 0.1687145D+00 0.8000000D+00 0.8000000D+00
EXPONENTS  0.8000000D+00 0.8000000D+00 0.8000000D+00 0.8000000D+00 0.3047525D+04
EXPONENTS  0.4573695D+03 0.1039487D+03 0.2921016D+02 0.9286663D+01 0.3163927D+01
EXPONENTS  0.7868272D+01 0.1881289D+01 0.5442493D+00 0.7868272D+01 0.1881289D+01
EXPONENTS  0.5442493D+00 0.7868272D+01 0.1881289D+01 0.5442493D+00 0.7868272D+01
EXPONENTS  0.1881289D+01 0.5442493D+00 0.1687145D+00 0.1687145D+00 0.1687145D+00
EXPONENTS  0.1687145D+00 0.8000000D+00 0.8000000D+00 0.8000000D+00 0.8000000D+00
EXPONENTS  0.8000000D+00 0.8000000D+00 0.3047525D+04 0.4573695D+03 0.1039487D+03
EXPONENTS  0.2921016D+02 0.9286663D+01 0.3163927D+01 0.7868272D+01 0.1881289D+01
EXPONENTS  0.5442493D+00 0.7868272D+01 0.1881289D+01 0.5442493D+00 0.7868272D+01
EXPONENTS  0.1881289D+01 0.5442493D+00 0.7868272D+01 0.1881289D+01 0.5442493D+00
EXPONENTS  0.1687145D+00 0.1687145D+00 0.1687145D+00 0.1687145D+00 0.8000000D+00
EXPONENTS  0.8000000D+00 0.8000000D+00 0.8000000D+00 0.8000000D+00 0.8000000D+00
EXPONENTS  0.3047525D+04 0.4573695D+03 0.1039487D+03 0.2921016D+02 0.9286663D+01
EXPONENTS  0.3163927D+01 0.7868272D+01 0.1881289D+01 0.5442493D+00 0.7868272D+01
EXPONENTS  0.1881289D+01 0.5442493D+00 0.7868272D+01 0.1881289D+01 0.5442493D+00
EXPONENTS  0.7868272D+01 0.1881289D+01 0.5442493D+00 0.1687145D+00 0.1687145D+00
EXPONENTS  0.1687145D+00 0.1687145D+00 0.8000000D+00 0.8000000D+00 0.8000000D+00
EXPONENTS  0.8000000D+00 0.8000000D+00 0.8000000D+00 0.1873114D+02 0.2825394D+01
EXPONENTS  0.6401217D+00 0.1612778D+00 0.5484672D+04 0.8252349D+03 0.1880470D+03
EXPONENTS  0.5296450D+02 0.1689757D+02 0.5799635D+01 0.1553962D+02 0.3599934D+01
EXPONENTS  0.1013762D+01 0.1553962D+02 0.3599934D+01 0.1013762D+01 0.1553962D+02
EXPONENTS  0.3599934D+01 0.1013762D+01 0.1553962D+02 0.3599934D+01 0.1013762D+01
EXPONENTS  0.2700058D+00 0.2700058D+00 0.2700058D+00 0.2700058D+00 0.8000000D+00
EXPONENTS  0.8000000D+00 0.8000000D+00 0.8000000D+00 0.8000000D+00 0.8000000D+00
EXPONENTS  0.1873114D+02 0.2825394D+01 0.6401217D+00 0.1612778D+00 0.1873114D+02
EXPONENTS  0.2825394D+01 0.6401217D+00 0.1612778D+00 0.1873114D+02 0.2825394D+01
EXPONENTS  0.6401217D+00 0.1612778D+00 0.3047525D+04 0.4573695D+03 0.1039487D+03
EXPONENTS  0.2921016D+02 0.9286663D+01 0.3163927D+01 0.7868272D+01 0.1881289D+01
EXPONENTS  0.5442493D+00 0.7868272D+01 0.1881289D+01 0.5442493D+00 0.7868272D+01
EXPONENTS  0.1881289D+01 0.5442493D+00 0.7868272D+01 0.1881289D+01 0.5442493D+00
EXPONENTS  0.1687145D+00 0.1687145D+00 0.1687145D+00 0.1687145D+00 0.8000000D+00
EXPONENTS  0.8000000D+00 0.8000000D+00 0.8000000D+00 0.8000000D+00 0.8000000D+00
EXPONENTS  0.1873114D+02 0.2825394D+01 0.6401217D+00 0.1612778D+00 0.1873114D+02
EXPONENTS  0.2825394D+01 0.6401217D+00 0.1612778D+00 0.1873114D+02 0.2825394D+01
EXPONENTS  0.6401217D+00 0.1612778D+00
MO    1     MO 0.0        OCC NO =    1.0000000  ORB. ENERGY =  -19.192858
 -0.16757961D-05 -0.30915165D-05 -0.49906663D-05 -0.64963646D-05 -0.55433597D-05
 -0.19139889D-05  0.48749461D-05  0.22468582D-05 -0.63004249D-05 -0.34553964D-04
 -0.26493788D-04 -0.13222257D-04 -0.67703723D-05 -0.51910920D-05 -0.25907187D-05
  0.88660539D-06  0.67979278D-06  0.33926424D-06  0.48495509D-04  0.41700323D-04
  0.73830181D-04 -0.61704849D-05 -0.18436185D-04  0.63475815D-05 -0.10247729D-04
  0.21391885D-04 -0.16475635D-04  0.12913041D-04  0.55308344D-05  0.10203309D-04
  0.16471305D-04  0.21440745D-04  0.18295427D-04  0.63169712D-05 -0.95933647D-05
 -0.44215730D-05  0.12398552D-04  0.48286410D-04  0.37022956D-04  0.18477050D-04
 -0.23950553D-04 -0.18363765D-04 -0.91648057D-05 -0.89793586D-05 -0.68848026D-05
 -0.34359990D-05 -0.12898629D-03 -0.70045825D-04 -0.69918773D-04 -0.47710880D-05
  0.58294579D-04 -0.26632595D-04  0.41904328D-04 -0.86433681D-04 -0.20310339D-04
  0.41613510D-05  0.13187831D-04  0.24328973D-04  0.39274506D-04  0.51123737D-04
  0.43623978D-04  0.15062311D-04 -0.18304227D-03 -0.84364017D-04  0.23656551D-03
 -0.87597628D-04 -0.67164305D-04 -0.33519696D-04  0.25102654D-03  0.19247123D-03
  0.96056634D-04  0.72500568D-04  0.55588837D-04  0.27742726D-04 -0.73721938D-03
 -0.18681922D-03  0.44382500D-03  0.11036897D-03 -0.18985461D-03 -0.93890333D-03
 -0.40923627D-04  0.77241647D-03  0.25904790D-03 -0.46707471D-03 -0.54630323D-05
 -0.10078228D-04 -0.16269385D-04 -0.21177905D-04 -0.18071145D-04 -0.62395319D-05
  0.31180784D-04  0.14371195D-04 -0.40298331D-04  0.57509058D-04  0.44094298D-04
  0.22006145D-04  0.32696213D-04  0.25069382D-04  0.12511379D-04 -0.39377444D-05
 -0.30192127D-05 -0.15067987D-05  0.48810183D-04 -0.57996253D-04 -0.13258889D-03
 -0.49422988D-05  0.50681084D-04  0.32728527D-06  0.17015485D-05  0.91199195D-04
 -0.53884447D-04  0.10945399D-05  0.96321438D-06  0.17769425D-05  0.28685361D-05
  0.37339817D-05  0.31862133D-05  0.11001229D-05 -0.35986796D-05 -0.16586281D-05
  0.46509664D-05  0.48161674D-04  0.36927317D-04  0.18429319D-04  0.93048365D-05
  0.71343584D-05  0.35605449D-05 -0.14997472D-05 -0.11499110D-05 -0.57388618D-06
  0.12353542D-03 -0.82952941D-04 -0.39070782D-04  0.18754298D-04  0.20357223D-04
 -0.28230923D-04  0.28837193D-04  0.55482472D-04  0.80406937D-04 -0.21097001D-04
  0.73987115D-05  0.13649178D-04  0.22034005D-04  0.28681728D-04  0.24474171D-04
  0.84503430D-05 -0.31529552D-04 -0.14531942D-04  0.40749081D-04 -0.18389958D-04
 -0.14100253D-04 -0.70370145D-05  0.40145336D-05  0.30780897D-05  0.15361825D-05
  0.11983279D-04  0.91880184D-05  0.45854651D-05 -0.20409601D-03 -0.63713158D-04
  0.33781711D-04 -0.41719091D-04 -0.13609271D-04 -0.22210523D-05  0.26326850D-04
 -0.20062881D-04 -0.39604465D-04  0.99327459D-05  0.94149636D-05  0.15969560D-04
  0.18180780D-04 -0.24818619D-04  0.82561874D+00  0.15195792D+01  0.24589660D+01
  0.32323796D+01  0.27723932D+01  0.94792833D+00 -0.15974514D-01 -0.71277971D-02
  0.21048480D-01 -0.14602812D-02 -0.11250679D-02 -0.49396541D-03  0.34719368D-02
  0.26749401D-02  0.11744428D-02  0.89883449D-03  0.69250351D-03  0.30404634D-03
  0.39523106D-02 -0.19418186D-03  0.47713266D-03  0.12080715D-03 -0.91621421D-02
 -0.86367571D-02 -0.92774072D-02 -0.42799434D-03 -0.19162139D-03  0.28210849D-03
  0.14446118D-04  0.24503350D-04  0.27896198D-04  0.13316138D-04  0.12778488D-06
  0.21674734D-06  0.24675919D-06 -0.22879453D-04 -0.32987709D-05 -0.55953398D-05
 -0.63700967D-05  0.26467682D-04  0.10066872D-05  0.18571414D-05  0.29980021D-05
  0.39025079D-05  0.33300171D-05  0.11497749D-05 -0.38887173D-06 -0.17923062D-06
  0.50258138D-06  0.21999495D-04  0.16867817D-04  0.84182231D-05  0.12838743D-04
  0.98439337D-05  0.49128128D-05  0.10886424D-05  0.83470197D-06  0.41657478D-06
  0.37436943D-04  0.11750020D-04 -0.64059283D-05  0.62197466D-05  0.13074120D-04
  0.20369921D-05  0.77352630D-05 -0.86294978D-05  0.42984807D-05  0.35514475D-05
 -0.94256984D-06 -0.15987768D-05 -0.18201509D-05  0.22743628D-05  0.44800979D-06
  0.75990940D-06  0.86512999D-06  0.11039535D-05 -0.46886655D-06 -0.79528641D-06
 -0.90540547D-06 -0.10967537D-04
MO    2     MO 0.0        OCC NO =    1.0000000  ORB. ENERGY =  -10.278521
  0.37311226D-05  0.68831927D-05  0.11111607D-04  0.14464011D-04  0.12342167D-04
  0.42614536D-05 -0.24961064D-04 -0.11504532D-04  0.32259907D-04  0.38000101D-04
  0.29136067D-04  0.14540940D-04  0.57811441D-04  0.44326146D-04  0.22121854D-04
 -0.43624825D-04 -0.33448748D-04 -0.16693270D-04 -0.15395648D-03 -0.18173490D-03
 -0.22096378D-04 -0.19352032D-04 -0.28493336D-04  0.23765709D-04  0.31555596D-04
 -0.16933715D-04  0.34294267D-04 -0.21190088D-04 -0.72922075D-04 -0.13452699D-03
 -0.21716827D-03 -0.28268856D-03 -0.24121866D-03 -0.83287008D-04  0.16300847D-03
  0.75130456D-04 -0.21067364D-03 -0.12432484D-03 -0.95324399D-04 -0.47573556D-04
 -0.41089410D-04 -0.31504753D-04 -0.15723080D-04  0.10229438D-03  0.78432840D-04
  0.39143484D-04  0.56919504D-03  0.46892930D-04  0.24358340D-03 -0.88927234D-04
 -0.79877970D-04 -0.54440544D-04 -0.21080302D-03  0.11799121D-03 -0.35799924D-04
  0.20184005D-05  0.53244469D+00  0.98225649D+00  0.15856665D+01  0.20640667D+01
  0.17612719D+01  0.60812484D+00 -0.19765421D-01 -0.91098643D-02  0.25545010D-01
 -0.82012483D-05 -0.62881970D-05 -0.31382510D-05 -0.24548844D-02 -0.18822497D-02
 -0.93937450D-03 -0.12245246D-03 -0.93888783D-04 -0.46857083D-04 -0.13108184D-02
  0.44636975D-03 -0.18195114D-03 -0.25604207D-03 -0.10777054D-01 -0.97080680D-02
 -0.11118643D-01 -0.10148514D-02 -0.49251737D-03  0.65991879D-03  0.10007739D-02
  0.18462324D-02  0.29803916D-02  0.38795843D-02  0.33104563D-02  0.11430210D-02
 -0.14236674D-03 -0.65616698D-04  0.18399607D-03 -0.22026623D-03 -0.16888617D-03
 -0.84286037D-04  0.71877519D-04  0.55111123D-04  0.27504313D-04  0.19861139D-03
  0.15228261D-03  0.75999698D-04  0.94068626D-05  0.44261924D-03 -0.68850295D-04
 -0.59730307D-04 -0.47769351D-03 -0.17534944D-03 -0.16656429D-03  0.75615388D-04
  0.32201517D-03  0.27272857D-05 -0.68566445D-04 -0.12649170D-03 -0.20419683D-03
 -0.26580360D-03 -0.22681069D-03 -0.78312282D-04  0.15303379D-03  0.70533134D-04
 -0.19778227D-03 -0.96779539D-04 -0.74204412D-04 -0.37033202D-04  0.11175390D-03
  0.85685802D-04  0.42763221D-04  0.77826772D-04  0.59672633D-04  0.29780826D-04
  0.40132148D-03  0.71070397D-04 -0.22858601D-03  0.31631087D-04 -0.10974974D-03
 -0.45192393D-04 -0.18129231D-03 -0.13942237D-03 -0.48419920D-04 -0.11001278D-03
  0.16175661D-05  0.29840936D-05  0.48172524D-05  0.62706313D-05  0.53507410D-05
  0.18474823D-05 -0.14465329D-04 -0.66670568D-05  0.18695123D-04 -0.22134583D-04
 -0.16971395D-04 -0.84699154D-05 -0.82370358D-04 -0.63156366D-04 -0.31519453D-04
 -0.15030319D-04 -0.11524295D-04 -0.57514311D-05 -0.43172463D-04 -0.25728525D-04
  0.67353796D-04 -0.14310312D-07 -0.27207976D-05  0.12099212D-04  0.22749047D-04
  0.63232548D-04  0.52709258D-04  0.12293458D-04 -0.44580647D-05 -0.75617215D-05
 -0.86087526D-05  0.69390052D-04 -0.20342583D-03 -0.37441212D-03 -0.60586949D-03
 -0.79643240D-03 -0.68309544D-03 -0.23356193D-03 -0.21675373D-03 -0.96715090D-04
  0.28560096D-03  0.36588188D-03  0.28189226D-03  0.12376589D-03 -0.12341712D-03
 -0.95086240D-04 -0.41747981D-04 -0.19760919D-03 -0.15224723D-03 -0.66844733D-04
 -0.80789953D-03  0.11127804D-03 -0.66680037D-03 -0.77862570D-04  0.20600950D-03
 -0.48697757D-03  0.33479959D-03  0.51771514D-03  0.22377414D-03 -0.32988462D-03
 -0.13649889D-04 -0.23152795D-04 -0.26358638D-04  0.65734141D-04 -0.64611685D-05
 -0.10959365D-04 -0.12476849D-04 -0.21235730D-04 -0.19561391D-04 -0.33179822D-04
 -0.37774054D-04  0.59383712D-04 -0.21572875D-08 -0.39797741D-08 -0.64245894D-08
 -0.83629065D-08 -0.71360833D-08 -0.24639181D-08 -0.56773891D-05 -0.26167035D-05
  0.73375096D-05 -0.41600237D-04 -0.31896423D-04 -0.15918550D-04 -0.10357437D-04
 -0.79414255D-05 -0.39633279D-05 -0.24048303D-05 -0.18438714D-05 -0.92022104D-06
 -0.10169532D-03 -0.10003190D-04 -0.32669268D-04 -0.67387351D-05  0.12234832D-04
 -0.14077145D-04 -0.74206602D-05 -0.18187250D-04  0.16641350D-04 -0.30398426D-04
  0.76015698D-05  0.12893701D-04  0.14679023D-04  0.58798045D-05  0.59088782D-06
  0.10022576D-05  0.11410348D-05  0.73491302D-05 -0.30748613D-05 -0.52155467D-05
 -0.59377156D-05  0.34018313D-05
MO    3     MO 0.0        OCC NO =    1.0000000  ORB. ENERGY =  -10.224267
 -0.34180706D-04 -0.63056727D-04 -0.10179311D-03 -0.13250438D-03 -0.11306623D-03
 -0.39039052D-04  0.65202611D-04  0.30051824D-04 -0.84268451D-04 -0.12628046D-03
 -0.96823850D-04 -0.48321887D-04  0.69107911D-04  0.52987563D-04  0.26444507D-04
 -0.21792934D-04 -0.16709440D-04 -0.83391816D-05 -0.10186074D-03  0.30088640D-06
  0.21765249D-04 -0.16593213D-04  0.35749331D-04  0.37985661D-04 -0.61988656D-04
  0.32455936D-04  0.51657608D-04 -0.71970411D-04  0.17416628D-02  0.32130278D-02
  0.51868231D-02  0.67517025D-02  0.57612400D-02  0.19892177D-02  0.77217119D-04
  0.35589299D-04 -0.99796111D-04  0.21548570D-04  0.16522077D-04  0.82456742D-05
 -0.84971734D-04 -0.65150936D-04 -0.32514883D-04 -0.14485840D-04 -0.11106824D-04
 -0.55430834D-05  0.12287787D-02  0.30415765D-03  0.42734160D-03 -0.51661591D-04
 -0.22236708D-03 -0.31457898D-03 -0.20284689D-03 -0.17200894D-03 -0.51984608D-05
 -0.14323228D-03 -0.10870594D-02 -0.20054124D-02 -0.32373574D-02 -0.42140774D-02
 -0.35958799D-02 -0.12415709D-02  0.13288181D-03  0.61245104D-04 -0.17173766D-03
  0.15532942D-05  0.11909675D-05  0.59437625D-06 -0.12665145D-04 -0.97108296D-05
 -0.48463845D-05 -0.38237124D-04 -0.29317802D-04 -0.14631638D-04  0.10739800D-02
 -0.44744434D-03  0.18997084D-04  0.15921084D-03 -0.35887126D-03 -0.63451091D-04
 -0.33671167D-03  0.25390680D-03  0.39827887D-03 -0.86259663D-04  0.53266085D+00
  0.98265527D+00  0.15863103D+01  0.20649047D+01  0.17619869D+01  0.60837173D+00
 -0.20463903D-01 -0.94317941D-02  0.26447735D-01  0.35446599D-03  0.27178204D-03
  0.13563829D-03  0.17553461D-05  0.13458880D-05  0.67169246D-06 -0.26139445D-03
 -0.20042069D-03 -0.10002397D-03 -0.48044035D-02  0.18145111D-03  0.49305160D-04
  0.33552968D-03 -0.98278758D-02 -0.99416458D-02 -0.97109937D-02 -0.30328761D-04
 -0.72736009D-04  0.94252932D-04  0.21596193D-02  0.39840759D-02  0.64315338D-02
  0.83719460D-02  0.71437967D-02  0.24665813D-02  0.44838170D-04  0.20665872D-04
 -0.57949261D-04  0.59311150D-04  0.45476028D-04  0.22695725D-04  0.58095089D-04
  0.44543629D-04  0.22230393D-04 -0.54412579D-04 -0.41720115D-04 -0.20821261D-04
  0.12035796D-02  0.17264334D-03 -0.49365066D-03  0.15406476D-03 -0.19018565D-03
 -0.29554494D-03 -0.28144787D-03  0.15983737D-03 -0.49478760D-04  0.23259443D-03
 -0.20253346D-04 -0.37363469D-04 -0.60316224D-04 -0.78513801D-04 -0.66995969D-04
 -0.23132098D-04  0.62490020D-04  0.28801593D-04 -0.80762674D-04 -0.14830076D-03
 -0.11370762D-03 -0.56748071D-04 -0.73500280D-04 -0.56355353D-04 -0.28125271D-04
  0.19448356D-05  0.14911766D-05  0.74420163D-06 -0.14911840D-03 -0.42653294D-04
  0.93653008D-04 -0.40009102D-04  0.52431800D-04  0.24224173D-04 -0.68225300D-04
 -0.34198698D-04  0.73924389D-04 -0.44431337D-04 -0.22672152D-04 -0.38456261D-04
 -0.43781094D-04  0.51575800D-04 -0.20933167D-05 -0.38528201D-05 -0.62345902D-05
 -0.81955434D-05 -0.70292699D-05 -0.24034268D-05  0.14328333D-04  0.63932742D-05
 -0.18879424D-04 -0.43919962D-04 -0.33837963D-04 -0.14856688D-04 -0.53396381D-04
 -0.41139033D-04 -0.18062251D-04 -0.68123963D-04 -0.52485841D-04 -0.23044111D-04
 -0.83955490D-04  0.14306445D-03  0.38453909D-04 -0.26807454D-04 -0.62547639D-04
  0.13694515D-03 -0.10469456D-03  0.12585451D-03 -0.99482906D-04 -0.36752061D-05
 -0.19148545D-04 -0.32479556D-04 -0.36976826D-04  0.69846431D-04 -0.14577701D-04
 -0.24726539D-04 -0.28150291D-04 -0.88600895D-05  0.38345447D-04  0.65041136D-04
  0.74047034D-04  0.48118794D-03 -0.18443882D-04 -0.34025361D-04 -0.54927483D-04
 -0.71499262D-04 -0.61010450D-04 -0.21065442D-04  0.37631882D-04  0.17344500D-04
 -0.48635788D-04 -0.32472650D-04 -0.24897968D-04 -0.12425831D-04 -0.15591448D-04
 -0.11954533D-04 -0.59661500D-05 -0.31481260D-04 -0.24137833D-04 -0.12046471D-04
  0.82835937D-04  0.47616664D-04  0.16812145D-04  0.27214463D-04 -0.56808210D-06
 -0.31035512D-04 -0.61628848D-04 -0.10718925D-04  0.40074638D-04 -0.82209940D-05
 -0.32838994D-05 -0.55701149D-05 -0.63413790D-05 -0.68766759D-05  0.13333977D-05
  0.22616949D-05  0.25748597D-05  0.85767523D-05 -0.16689171D-04 -0.28307992D-04
 -0.32227649D-04  0.28590225D-04
MO    4     MO 0.0        OCC NO =    1.0000000  ORB. ENERGY =  -10.200136
  0.53214339D+00  0.98170064D+00  0.15847692D+01  0.20628987D+01  0.17602752D+01
  0.60778071D+00 -0.19783904D-01 -0.91183835D-02  0.25568899D-01  0.18596160D-04
  0.14258356D-04  0.71159191D-05  0.14704655D-03  0.11274597D-03  0.56268140D-04
 -0.59554300D-05 -0.45662460D-05 -0.22788768D-05 -0.31926322D-02 -0.24139562D-03
 -0.54894553D-04 -0.60099383D-04 -0.10041461D-01 -0.10331078D-01 -0.10447484D-01
  0.33922469D-04  0.28747839D-03 -0.86919702D-04  0.14474554D-01  0.26702726D-01
  0.43106480D-01  0.56111829D-01  0.47880325D-01  0.16531926D-01 -0.31358490D-03
 -0.14453099D-03  0.40527999D-03  0.36638085D-03  0.28091760D-03  0.14019757D-03
 -0.23713366D-03 -0.18181905D-03 -0.90740450D-04  0.16372061D-03  0.12553058D-03
  0.62648556D-04  0.11046140D-02 -0.31680672D-03  0.21173598D-03 -0.15106629D-03
 -0.60084833D-03 -0.60069336D-03 -0.48289176D-03  0.94155398D-04 -0.11012664D-03
  0.10027519D-03  0.13964347D-05  0.25761494D-05  0.41587039D-05  0.54133968D-05
  0.46192613D-05  0.15949199D-05  0.22447401D-05  0.10345987D-05 -0.29011227D-05
  0.15783497D-04  0.12101785D-04  0.60396387D-05 -0.12579279D-05 -0.96449931D-06
 -0.48135275D-06 -0.87340887D-05 -0.66967452D-05 -0.33421452D-05  0.27693013D-04
 -0.72290264D-05 -0.15647538D-04 -0.52357847D-05 -0.27184996D-05  0.49288880D-05
 -0.16638507D-04 -0.14317450D-04 -0.17085309D-04 -0.80959228D-05 -0.27510215D-04
 -0.50750975D-04 -0.81927810D-04 -0.10664567D-03 -0.91000940D-04 -0.31420438D-04
  0.22217181D-04  0.10239879D-04 -0.28713688D-04  0.19792267D-05  0.15175455D-05
  0.75736158D-06  0.75502809D-04  0.57890765D-04  0.28891549D-04 -0.23170131D-04
 -0.17765387D-04 -0.88661733D-05 -0.94079316D-04  0.43173962D-04  0.96836925D-05
  0.20122050D-04  0.67871945D-04  0.22676004D-04  0.14738672D-04  0.27279900D-04
  0.38622131D-04 -0.57680241D-05  0.55620503D-03  0.10260897D-02  0.16564269D-02
  0.21561756D-02  0.18398686D-02  0.63526240D-03  0.18878096D-04  0.87008974D-05
 -0.24398224D-04  0.56472065D-04  0.43299197D-04  0.21609334D-04 -0.36386800D-04
 -0.27899090D-04 -0.13923601D-04  0.29301231D-04  0.22466326D-04  0.11212271D-04
 -0.10332254D-03  0.31359062D-04  0.44813769D-04 -0.58866090D-05  0.59086101D-04
  0.50590408D-04 -0.24256209D-04  0.53757014D-04  0.36981767D-04 -0.20666620D-04
  0.10823399D-01  0.19967058D-01  0.32233023D-01  0.41957819D-01  0.35802683D-01
  0.12361806D-01 -0.29925123D-03 -0.13792462D-03  0.38675503D-03 -0.14437145D-04
 -0.11069487D-04 -0.55244499D-05  0.32109485D-03  0.24619517D-03  0.12286864D-03
 -0.90230424D-04 -0.69182966D-04 -0.34527149D-04  0.85593477D-03  0.29298648D-04
 -0.29448364D-03  0.88032866D-04 -0.45363712D-03 -0.78980768D-03 -0.41710223D-03
 -0.82547536D-04 -0.18715853D-04  0.18931937D-03 -0.13839886D-04 -0.23475066D-04
 -0.26725532D-04  0.31066176D-04  0.29966660D-05  0.55154652D-05  0.89250637D-05
  0.11732246D-04  0.10062679D-04  0.34406010D-05 -0.91554173D-05 -0.40851294D-05
  0.12063442D-04 -0.10123927D-04 -0.77999399D-05 -0.34245937D-05  0.11443501D-04
  0.88166005D-05  0.38709625D-05 -0.38981447D-04 -0.30033104D-04 -0.13186150D-04
 -0.35782712D-04  0.77571617D-05 -0.15187901D-04  0.74234668D-05  0.13616620D-04
  0.23907639D-05  0.13185794D-04  0.18449158D-04 -0.15855695D-04 -0.58326908D-05
 -0.64328035D-05 -0.10911252D-04 -0.12422075D-04 -0.37799648D-05 -0.14479410D-04
 -0.24559820D-04 -0.27960487D-04  0.14289311D-04 -0.35536721D-05 -0.60277005D-05
 -0.68623239D-05  0.19123369D-05  0.61366488D-02  0.11320919D-01  0.18275473D-01
  0.23789236D-01  0.20299398D-01  0.70088943D-02 -0.18045808D-03 -0.83172966D-04
  0.23322568D-03 -0.42516887D-03 -0.32599252D-03 -0.16269312D-03 -0.14132561D-03
 -0.10835951D-03 -0.54078991D-04 -0.90908434D-04 -0.69702821D-04 -0.34786593D-04
  0.45929169D-03  0.23683572D-03  0.45044683D-04  0.58876256D-04 -0.57872854D-03
 -0.37050579D-03 -0.19239793D-03 -0.43891035D-03 -0.13541101D-03 -0.32258159D-04
 -0.31359154D-04 -0.53191061D-04 -0.60556143D-04  0.85114546D-04 -0.30614175D-04
 -0.51927436D-04 -0.59117550D-04  0.81447084D-04 -0.20361821D-04 -0.34537503D-04
 -0.39319726D-04 -0.48733482D-04
MO    5     MO 0.0        OCC NO =    1.0000000  ORB. ENERGY =  -10.194218
 -0.33967216D-02 -0.62662881D-02 -0.10115732D-01 -0.13167677D-01 -0.11236003D-01
 -0.38795218D-02  0.19902501D-03  0.91730444D-04 -0.25722174D-03 -0.63268092D-04
 -0.48509960D-04 -0.24209870D-04 -0.15830446D-03 -0.12137782D-03 -0.60576037D-04
  0.31300429D-04  0.23999183D-04  0.11977274D-04  0.19607700D-03  0.19173908D-03
  0.41674152D-04  0.47870291D-04  0.43797300D-04 -0.16208311D-04  0.21726419D-05
  0.38587490D-04  0.89925220D-05  0.13122020D-04 -0.34132026D-03 -0.62966923D-03
 -0.10164814D-02 -0.13231567D-02 -0.11290520D-02 -0.38983454D-03  0.75847846D-06
  0.34958203D-06 -0.98026450D-06 -0.27370364D-04 -0.20985859D-04 -0.10473415D-04
 -0.10185909D-04 -0.78099089D-05 -0.38976919D-05 -0.51758618D-05 -0.39685225D-05
 -0.19805709D-05 -0.41489856D-03  0.36600821D-04 -0.14320926D-03  0.31293478D-04
  0.63976745D-04  0.11207695D-03  0.64298676D-04 -0.11933846D-04  0.26680916D-05
 -0.85708199D-04 -0.10085964D-04 -0.18606634D-04 -0.30036876D-04 -0.39099088D-04
 -0.33363323D-04 -0.11519554D-04  0.11895637D-03  0.54826882D-04 -0.15374030D-03
  0.17127793D-03  0.13132505D-03  0.65540405D-04 -0.95172849D-04 -0.72972504D-04
 -0.36418394D-04  0.59840986D-04  0.45882273D-04  0.22898470D-04  0.33463553D-03
 -0.16963016D-03  0.50430609D-04  0.48793313D-04 -0.10685902D-03 -0.13702585D-03
 -0.14772728D-03 -0.95201745D-04 -0.11592639D-03 -0.68965628D-05 -0.21892728D-02
 -0.40387808D-02 -0.65198444D-02 -0.84869002D-02 -0.72418873D-02 -0.25004497D-02
  0.10096408D-03  0.46534254D-04 -0.13048691D-03  0.12931087D-03  0.99147372D-04
  0.49481487D-04 -0.14548915D-03 -0.11155185D-03 -0.55672193D-04  0.10465466D-03
  0.80242554D-04  0.40046658D-04  0.64467275D-03 -0.39149838D-03  0.18907124D-03
 -0.66461189D-04 -0.15158587D-03 -0.28264692D-03 -0.47997668D-04  0.28596443D-03
 -0.14378798D-04  0.24016800D-03  0.51404699D+00  0.94831633D+00  0.15308766D+01
  0.19927465D+01  0.17004142D+01  0.58711215D+00 -0.19128098D-01 -0.88161231D-02
  0.24721329D-01  0.15594052D-03  0.11956530D-03  0.59671464D-04 -0.43226739D-03
 -0.33143522D-03 -0.16540940D-03  0.13972361D-03  0.10713120D-03  0.53465977D-04
 -0.26937705D-02  0.15435819D-03  0.44146860D-03 -0.72909168D-04 -0.99556138D-02
 -0.10043076D-01 -0.10264501D-01  0.34871199D-03  0.86084433D-04  0.13961782D-04
  0.13858781D+00  0.25566745D+00  0.41272653D+00  0.53724731D+00  0.45843410D+00
  0.15828628D+00 -0.49214773D-02 -0.22683044D-02  0.63605622D-02 -0.38479539D-03
 -0.29503670D-03 -0.14724399D-03 -0.63061318D-04 -0.48351419D-04 -0.24130747D-04
 -0.79481501D-04 -0.60941373D-04 -0.30414016D-04  0.44785591D-03  0.32043991D-03
  0.16059954D-04  0.83119566D-04 -0.29827754D-02 -0.29985817D-02 -0.29776039D-02
 -0.35432515D-04 -0.26722807D-04  0.19027491D-04 -0.38845118D-05 -0.65888673D-05
 -0.75011925D-05 -0.17758231D-04  0.57604029D-06  0.10602216D-05  0.17156387D-05
  0.22552551D-05  0.19343192D-05  0.66137659D-06 -0.25405420D-05 -0.11335849D-05
  0.33474913D-05 -0.17852665D-03 -0.13754516D-03 -0.60389735D-04  0.71314390D-05
  0.54943893D-05  0.24123328D-05 -0.61109595D-04 -0.47081648D-04 -0.20671380D-04
  0.88976252D-05  0.80159006D-04  0.62417038D-05  0.13738736D-04 -0.19345693D-04
  0.24881718D-04  0.17280392D-04  0.64349945D-04 -0.19888549D-04  0.11618334D-04
 -0.10663572D-03 -0.18087436D-03 -0.20591906D-03  0.20963544D-03 -0.30752575D-04
 -0.52162188D-04 -0.59384807D-04  0.12022558D-03 -0.35117067D-04 -0.59565192D-04
 -0.67812865D-04  0.79774947D-04 -0.16563475D-03 -0.30556378D-03 -0.49327469D-03
 -0.64209707D-03 -0.54790260D-03 -0.18917760D-03  0.47592227D-04  0.21935214D-04
 -0.61508629D-04  0.30883233D-04  0.23679304D-04  0.11817632D-04 -0.32128444D-04
 -0.24634053D-04 -0.12294119D-04  0.77540988D-05  0.59453512D-05  0.29671469D-05
  0.15655635D-03  0.30383289D-04  0.76128723D-04 -0.51295619D-05 -0.15248522D-04
  0.82332048D-05 -0.19747137D-04  0.69735738D-04 -0.21761742D-04  0.11763446D-04
 -0.12506274D-04 -0.21213007D-04 -0.24150259D-04 -0.11540081D-04 -0.10887764D-04
 -0.18467708D-04 -0.21024833D-04 -0.71375077D-05  0.20226954D-05  0.34308742D-05
  0.39059290D-05  0.26490106D-04
MO    6     MO 0.0        OCC NO =    1.0000000  ORB. ENERGY =  -10.192578
 -0.10440704D-01 -0.19261060D-01 -0.31093323D-01 -0.40474268D-01 -0.34536766D-01
 -0.11924715D-01  0.49948190D-03  0.23021075D-03 -0.64553498D-03 -0.93544202D-04
 -0.71723761D-04 -0.35795184D-04 -0.29855645D-03 -0.22891415D-03 -0.11424420D-03
  0.43935746D-04  0.33687143D-04  0.16812246D-04  0.11425818D-02  0.18150124D-03
  0.48605901D-03 -0.69283979D-04 -0.86012235D-04 -0.31285957D-03  0.28058759D-05
 -0.78644844D-04 -0.44450127D-04  0.15870880D-03 -0.71306467D-03 -0.13154651D-02
 -0.21235685D-02 -0.27642552D-02 -0.23587440D-02 -0.81441762D-03  0.85951869D-04
  0.39615138D-04 -0.11108498D-03  0.76406651D-04  0.58583773D-04  0.29237409D-04
  0.25126214D-04  0.19265187D-04  0.96146786D-05  0.25653211D-04  0.19669255D-04
  0.98163369D-05 -0.27483063D-04 -0.11582294D-04 -0.38530280D-04  0.52246472D-05
  0.78598264D-04  0.48271841D-04 -0.30385194D-04 -0.21747019D-04  0.79778480D-04
 -0.46831832D-04  0.30174000D-05  0.55665137D-05  0.89860792D-05  0.11697205D-04
  0.99812463D-05  0.34462845D-05 -0.29006942D-04 -0.13369273D-04  0.37488837D-04
 -0.66659461D-04 -0.51110247D-04 -0.25507595D-04  0.32781972D-04  0.25135137D-04
  0.12544195D-04 -0.11033163D-04 -0.84595292D-05 -0.42218980D-05 -0.12655329D-03
  0.26228472D-04  0.33526414D-04 -0.44388555D-05  0.32462175D-04  0.29500250D-04
  0.27075295D-04  0.52577886D-04  0.27216403D-04  0.21775362D-04  0.60630622D-03
  0.11185166D-02  0.18056326D-02  0.23503971D-02  0.20055981D-02  0.69248483D-03
 -0.10977954D-04 -0.50597288D-05  0.14188008D-04 -0.30181703D-04 -0.23141416D-04
 -0.11549188D-04 -0.55965574D-04 -0.42910853D-04 -0.21415523D-04 -0.43221644D-05
 -0.33139616D-05 -0.16538991D-05 -0.39003586D-03  0.15950784D-03 -0.12563302D-03