 Entering Link 1 = D:\Gaussian\G16W\l1.exe PID=     32664.
  
 Copyright (c) 1988,1990,1992,1993,1995,1998,2003,2009,2016,
            Gaussian, Inc.  All Rights Reserved.
  
 This is part of the Gaussian(R) 16 program.  It is based on
 the Gaussian(R) 09 system (copyright 2009, Gaussian, Inc.),
 the Gaussian(R) 03 system (copyright 2003, Gaussian, Inc.),
 the Gaussian(R) 98 system (copyright 1998, Gaussian, Inc.),
 the Gaussian(R) 94 system (copyright 1995, Gaussian, Inc.),
 the Gaussian 92(TM) system (copyright 1992, Gaussian, Inc.),
 the Gaussian 90(TM) system (copyright 1990, Gaussian, Inc.),
 the Gaussian 88(TM) system (copyright 1988, Gaussian, Inc.),
 the Gaussian 86(TM) system (copyright 1986, Carnegie Mellon
 University), and the Gaussian 82(TM) system (copyright 1983,
 Carnegie Mellon University). Gaussian is a federally registered
 trademark of Gaussian, Inc.
  
 This software contains proprietary and confidential information,
 including trade secrets, belonging to Gaussian, Inc.
  
 This software is provided under written license and may be
 used, copied, transmitted, or stored only in accord with that
 written license.
  
 The following legend is applicable only to US Government
 contracts under FAR:
  
                    RESTRICTED RIGHTS LEGEND
  
 Use, reproduction and disclosure by the US Government is
 subject to restrictions as set forth in subparagraphs (a)
 and (c) of the Commercial Computer Software - Restricted
 Rights clause in FAR 52.227-19.
  
 Gaussian, Inc.
 340 Quinnipiac St., Bldg. 40, Wallingford CT 06492
  
  
 ---------------------------------------------------------------
 Warning -- This program may not be used in any manner that
 competes with the business of Gaussian, Inc. or will provide
 assistance to any competitor of Gaussian, Inc.  The licensee
 of this program is prohibited from giving any competitor of
 Gaussian, Inc. access to this program.  By using this program,
 the user acknowledges that Gaussian, Inc. is engaged in the
 business of creating and licensing software in the field of
 computational chemistry and represents and warrants to the
 licensee that it is not a competitor of Gaussian, Inc. and that
 it will not use this program in any manner prohibited above.
 ---------------------------------------------------------------
  

 Cite this work as:
 Gaussian 16, Revision A.03,
 M. J. Frisch, G. W. Trucks, H. B. Schlegel, G. E. Scuseria, 
 M. A. Robb, J. R. Cheeseman, G. Scalmani, V. Barone, 
 G. A. Petersson, H. Nakatsuji, X. Li, M. Caricato, A. V. Marenich, 
 J. Bloino, B. G. Janesko, R. Gomperts, B. Mennucci, H. P. Hratchian, 
 J. V. Ortiz, A. F. Izmaylov, J. L. Sonnenberg, D. Williams-Young, 
 F. Ding, F. Lipparini, F. Egidi, J. Goings, B. Peng, A. Petrone, 
 T. Henderson, D. Ranasinghe, V. G. Zakrzewski, J. Gao, N. Rega, 
 G. Zheng, W. Liang, M. Hada, M. Ehara, K. Toyota, R. Fukuda, 
 J. Hasegawa, M. Ishida, T. Nakajima, Y. Honda, O. Kitao, H. Nakai, 
 T. Vreven, K. Throssell, J. A. Montgomery, Jr., J. E. Peralta, 
 F. Ogliaro, M. J. Bearpark, J. J. Heyd, E. N. Brothers, K. N. Kudin, 
 V. N. Staroverov, T. A. Keith, R. Kobayashi, J. Normand, 
 K. Raghavachari, A. P. Rendell, J. C. Burant, S. S. Iyengar, 
 J. Tomasi, M. Cossi, J. M. Millam, M. Klene, C. Adamo, R. Cammi, 
 J. W. Ochterski, R. L. Martin, K. Morokuma, O. Farkas, 
 J. B. Foresman, and D. J. Fox, Gaussian, Inc., Wallingford CT, 2016.
 
 ******************************************
 Gaussian 16:  EM64W-G16RevA.03 17-Dec-2016
                02-Dec-2025 
 ******************************************
 %nprocshared=14
 Will use up to   14 processors via shared memory.
 %mem=58339MB
 %chk=5.chk
 ---------------------------------------------------------
 # ub3lyp/6-311g(d,p) geom=connectivity temperature=823.15
 ---------------------------------------------------------
 1/38=1,57=2,112=823150,172=1/1;
 2/12=2,17=6,18=5,40=1/2;
 3/5=4,6=6,7=101,11=2,25=1,30=1,74=-5,116=2/1,2,3;
 4//1;
 5/5=2,38=5/2;
 6/7=2,8=2,9=2,10=2,28=1/1;
 99/5=1,9=1/99;
 -------------------
 Title Card Required
 -------------------
 Symbolic Z-matrix:
 Charge =  0 Multiplicity = 2
 C                    -1.32321  -0.21612   0.03218 
 C                    -0.16979  -0.71695   0.51685 
 C                     2.19086   0.05888  -0.18016 
 C                     0.87036   0.37075   0.55501 
 C                     0.14348   1.57176  -0.00145 
 C                    -1.11838   1.21302  -0.28426 
 H                     0.02443  -1.73581   0.8204 
 O                     2.63848  -0.9959   -0.45277 
 H                     0.60313   2.5409   -0.13135 
 H                    -1.88823   1.85996  -0.6869 
 H                     1.2048    0.57488   1.58453 
 C                    -2.6196   -0.93486  -0.17952 
 H                    -3.42296  -0.47982   0.40964 
 H                    -2.92757  -0.88567  -1.22955 
 H                    -2.54377  -1.98603   0.10351 
 
                          Input orientation:                          
 ---------------------------------------------------------------------
 Center     Atomic      Atomic             Coordinates (Angstroms)
 Number     Number       Type             X           Y           Z
 ---------------------------------------------------------------------
      1          6           0       -1.323210   -0.216124    0.032182
      2          6           0       -0.169785   -0.716949    0.516848
      3          6           0        2.190855    0.058880   -0.180164
      4          6           0        0.870359    0.370749    0.555013
      5          6           0        0.143481    1.571759   -0.001449
      6          6           0       -1.118383    1.213018   -0.284264
      7          1           0        0.024431   -1.735809    0.820399
      8          8           0        2.638482   -0.995904   -0.452769
      9          1           0        0.603134    2.540895   -0.131346
     10          1           0       -1.888232    1.859955   -0.686898
     11          1           0        1.204802    0.574877    1.584530
     12          6           0       -2.619599   -0.934860   -0.179524
     13          1           0       -3.422959   -0.479819    0.409644
     14          1           0       -2.927572   -0.885672   -1.229547
     15          1           0       -2.543765   -1.986034    0.103511
 ---------------------------------------------------------------------
                    Distance matrix (angstroms):
                    1          2          3          4          5
     1  C    0.000000
     2  C    1.347633   0.000000
     3  C    3.531200   2.580767   0.000000
     4  C    2.330132   1.505471   1.543197   0.000000
     5  C    2.312756   2.367478   2.551957   1.510108   0.000000
     6  C    1.478019   2.294862   3.506270   2.317088   1.342006
     7  H    2.178730   1.080712   2.985871   2.285522   3.410222
     8  O    4.066723   2.984013   1.177817   2.451453   3.608547
     9  H    3.367298   3.410441   2.946802   2.291731   1.080453
    10  H    2.268574   3.323026   4.487717   3.371928   2.163505
    11  H    3.070230   2.167544   2.086312   1.101556   2.153022
    12  C    1.497339   2.556171   4.912025   3.797890   3.734898
    13  H    2.149641   3.263566   5.670360   4.379175   4.134908
    14  H    2.148076   3.268601   5.309584   4.380357   4.120505
    15  H    2.151145   2.723455   5.165150   4.173071   4.459843
                    6          7          8          9         10
     6  C    0.000000
     7  H    3.349908   0.000000
     8  O    4.361395   3.000280   0.000000
     9  H    2.179510   4.419379   4.093275   0.000000
    10  H    1.083194   4.342781   5.357414   2.641822   0.000000
    11  H    3.049066   2.704892   2.945060   2.677958   4.046933
    12  C    2.622594   2.938071   5.265530   4.740169   2.933141
    13  H    2.942495   3.691982   6.144198   5.062293   3.005384
    14  H    2.927665   3.693147   5.621076   5.041160   2.985492
    15  H    3.523637   2.678091   5.305232   5.518262   3.980716
                   11         12         13         14         15
    11  H    0.000000
    12  C    4.474063   0.000000
    13  H    4.889674   1.095248   0.000000
    14  H    5.208526   1.095361   1.759850   0.000000
    15  H    4.775294   1.091250   1.770701   1.770635   0.000000
 Stoichiometry    C7H7O(2)
 Framework group  C1[X(C7H7O)]
 Deg. of freedom    39
 Full point group                 C1      NOp   1
 Largest Abelian subgroup         C1      NOp   1
 Largest concise Abelian subgroup C1      NOp   1
                         Standard orientation:                         
 ---------------------------------------------------------------------
 Center     Atomic      Atomic             Coordinates (Angstroms)
 Number     Number       Type             X           Y           Z
 ---------------------------------------------------------------------
      1          6           0       -1.323210   -0.216124    0.032182
      2          6           0       -0.169785   -0.716949    0.516848
      3          6           0        2.190855    0.058880   -0.180164
      4          6           0        0.870359    0.370749    0.555013
      5          6           0        0.143481    1.571759   -0.001449
      6          6           0       -1.118383    1.213018   -0.284264
      7          1           0        0.024431   -1.735809    0.820399
      8          8           0        2.638482   -0.995904   -0.452769
      9          1           0        0.603134    2.540895   -0.131346
     10          1           0       -1.888232    1.859955   -0.686898
     11          1           0        1.204802    0.574877    1.584530
     12          6           0       -2.619599   -0.934860   -0.179524
     13          1           0       -3.422959   -0.479818    0.409644
     14          1           0       -2.927572   -0.885672   -1.229547
     15          1           0       -2.543765   -1.986034    0.103511
 ---------------------------------------------------------------------
 Rotational constants (GHZ):           4.3040818           1.4595922           1.1775210
 Standard basis: 6-311G(d,p) (5D, 7F)
 There are   194 symmetry adapted cartesian basis functions of A   symmetry.
 There are   186 symmetry adapted basis functions of A   symmetry.
   186 basis functions,   312 primitive gaussians,   194 cartesian basis functions
    29 alpha electrons       28 beta electrons
       nuclear repulsion energy       326.0428334110 Hartrees.
 NAtoms=   15 NActive=   15 NUniq=   15 SFac= 1.00D+00 NAtFMM=   60 NAOKFM=F Big=F
 Integral buffers will be    131072 words long.
 Raffenetti 2 integral format.
 Two-electron integral symmetry is turned on.
 One-electron integrals computed using PRISM.
 NBasis=   186 RedAO= T EigKep=  5.47D-04  NBF=   186
 NBsUse=   186 1.00D-06 EigRej= -1.00D+00 NBFU=   186
 ExpMin= 1.03D-01 ExpMax= 8.59D+03 ExpMxC= 1.30D+03 IAcc=3 IRadAn=         5 AccDes= 0.00D+00
 Harris functional with IExCor=  402 and IRadAn=       5 diagonalized for initial guess.
 HarFok:  IExCor=  402 AccDes= 0.00D+00 IRadAn=         5 IDoV= 1 UseB2=F ITyADJ=14
 ICtDFT=  3500011 ScaDFX=  1.000000  1.000000  1.000000  1.000000
 FoFCou: FMM=F IPFlag=           0 FMFlag=      100000 FMFlg1=           0
         NFxFlg=           0 DoJE=T BraDBF=F KetDBF=T FulRan=T
         wScrn=  0.000000 ICntrl=       500 IOpCl=  0 I1Cent=   200000004 NGrid=           0
         NMat0=    1 NMatS0=      1 NMatT0=    0 NMatD0=    1 NMtDS0=    0 NMtDT0=    0
 Petite list used in FoFCou.
 Initial guess <Sx>= 0.0000 <Sy>= 0.0000 <Sz>= 0.5000 <S**2>= 0.7500 S= 0.5000
 Requested convergence on RMS density matrix=1.00D-08 within 128 cycles.
 Requested convergence on MAX density matrix=1.00D-06.
 Requested convergence on             energy=1.00D-06.
 No special actions if energy rises.
 Integral accuracy reduced to 1.0D-05 until final iterations.
 Initial convergence to 1.0D-05 achieved.  Increase integral accuracy.
 SCF Done:  E(UB3LYP) =  -346.177253056     A.U. after   20 cycles
            NFock= 20  Conv=0.47D-08     -V/T= 2.0040
 <Sx>= 0.0000 <Sy>= 0.0000 <Sz>= 0.5000 <S**2>= 0.7531 S= 0.5016
 <L.S>= 0.000000000000E+00
 Annihilation of the first spin contaminant:
 S**2 before annihilation     0.7531,   after     0.7500

 **********************************************************************

            Population analysis using the SCF density.

 **********************************************************************

 Orbital symmetries:
 Alpha Orbitals:
       Occupied  (A) (A) (A) (A) (A) (A) (A) (A) (A) (A) (A) (A)
                 (A) (A) (A) (A) (A) (A) (A) (A) (A) (A) (A) (A)
                 (A) (A) (A) (A) (A)
       Virtual   (A) (A) (A) (A) (A) (A) (A) (A) (A) (A) (A) (A)
                 (A) (A) (A) (A) (A) (A) (A) (A) (A) (A) (A) (A)
                 (A) (A) (A) (A) (A) (A) (A) (A) (A) (A) (A) (A)
                 (A) (A) (A) (A) (A) (A) (A) (A) (A) (A) (A) (A)
                 (A) (A) (A) (A) (A) (A) (A) (A) (A) (A) (A) (A)
                 (A) (A) (A) (A) (A) (A) (A) (A) (A) (A) (A) (A)
                 (A) (A) (A) (A) (A) (A) (A) (A) (A) (A) (A) (A)
                 (A) (A) (A) (A) (A) (A) (A) (A) (A) (A) (A) (A)
                 (A) (A) (A) (A) (A) (A) (A) (A) (A) (A) (A) (A)
                 (A) (A) (A) (A) (A) (A) (A) (A) (A) (A) (A) (A)
                 (A) (A) (A) (A) (A) (A) (A) (A) (A) (A) (A) (A)
                 (A) (A) (A) (A) (A) (A) (A) (A) (A) (A) (A) (A)
                 (A) (A) (A) (A) (A) (A) (A) (A) (A) (A) (A) (A)
                 (A)
 Beta  Orbitals:
       Occupied  (A) (A) (A) (A) (A) (A) (A) (A) (A) (A) (A) (A)
                 (A) (A) (A) (A) (A) (A) (A) (A) (A) (A) (A) (A)
                 (A) (A) (A) (A)
       Virtual   (A) (A) (A) (A) (A) (A) (A) (A) (A) (A) (A) (A)
                 (A) (A) (A) (A) (A) (A) (A) (A) (A) (A) (A) (A)
                 (A) (A) (A) (A) (A) (A) (A) (A) (A) (A) (A) (A)
                 (A) (A) (A) (A) (A) (A) (A) (A) (A) (A) (A) (A)
                 (A) (A) (A) (A) (A) (A) (A) (A) (A) (A) (A) (A)
                 (A) (A) (A) (A) (A) (A) (A) (A) (A) (A) (A) (A)
                 (A) (A) (A) (A) (A) (A) (A) (A) (A) (A) (A) (A)
                 (A) (A) (A) (A) (A) (A) (A) (A) (A) (A) (A) (A)
                 (A) (A) (A) (A) (A) (A) (A) (A) (A) (A) (A) (A)
                 (A) (A) (A) (A) (A) (A) (A) (A) (A) (A) (A) (A)
                 (A) (A) (A) (A) (A) (A) (A) (A) (A) (A) (A) (A)
                 (A) (A) (A) (A) (A) (A) (A) (A) (A) (A) (A) (A)
                 (A) (A) (A) (A) (A) (A) (A) (A) (A) (A) (A) (A)
                 (A) (A)
 The electronic state is 2-A.
 Alpha  occ. eigenvalues --  -19.16572 -10.26630 -10.21512 -10.18952 -10.18251
 Alpha  occ. eigenvalues --  -10.18080 -10.17639 -10.17364  -1.09909  -0.88099
 Alpha  occ. eigenvalues --   -0.77241  -0.73111  -0.68717  -0.59111  -0.54172
 Alpha  occ. eigenvalues --   -0.53920  -0.50795  -0.48089  -0.44273  -0.43738
 Alpha  occ. eigenvalues --   -0.42748  -0.41772  -0.40806  -0.38196  -0.37111
 Alpha  occ. eigenvalues --   -0.36185  -0.31455  -0.23550  -0.19732
 Alpha virt. eigenvalues --   -0.03847  -0.02287   0.04577   0.05062   0.06512
 Alpha virt. eigenvalues --    0.07972   0.08837   0.10571   0.12411   0.12775
 Alpha virt. eigenvalues --    0.17124   0.19732   0.20853   0.24123   0.26648
 Alpha virt. eigenvalues --    0.26986   0.30086   0.30448   0.33023   0.36193
 Alpha virt. eigenvalues --    0.37152   0.39353   0.40969   0.41538   0.42496
 Alpha virt. eigenvalues --    0.44721   0.45570   0.48410   0.49397   0.50045
 Alpha virt. eigenvalues --    0.51199   0.51814   0.54412   0.55006   0.56952
 Alpha virt. eigenvalues --    0.58145   0.59465   0.60284   0.62473   0.62578
 Alpha virt. eigenvalues --    0.63256   0.64980   0.66595   0.68212   0.73014
 Alpha virt. eigenvalues --    0.75064   0.77124   0.79325   0.83907   0.85259
 Alpha virt. eigenvalues --    0.87744   0.88332   0.92705   0.97206   0.99208
 Alpha virt. eigenvalues --    1.00890   1.04193   1.06660   1.09138   1.10566
 Alpha virt. eigenvalues --    1.21222   1.28489   1.31852   1.33639   1.38649
 Alpha virt. eigenvalues --    1.39474   1.44582   1.45825   1.47939   1.48342
 Alpha virt. eigenvalues --    1.50435   1.50879   1.52490   1.53553   1.54056
 Alpha virt. eigenvalues --    1.55380   1.57243   1.59392   1.60387   1.63463
 Alpha virt. eigenvalues --    1.65804   1.70194   1.74346   1.76190   1.77785
 Alpha virt. eigenvalues --    1.80261   1.81194   1.85513   1.89073   1.91707
 Alpha virt. eigenvalues --    1.92007   1.95654   2.00041   2.00402   2.05652
 Alpha virt. eigenvalues --    2.10151   2.11909   2.13228   2.18962   2.25512
 Alpha virt. eigenvalues --    2.29311   2.30712   2.34591   2.36801   2.41087
 Alpha virt. eigenvalues --    2.43883   2.44478   2.46616   2.49392   2.52830
 Alpha virt. eigenvalues --    2.53436   2.57338   2.58205   2.63973   2.64974
 Alpha virt. eigenvalues --    2.66149   2.67817   2.68557   2.73730   2.76580
 Alpha virt. eigenvalues --    2.80422   2.82035   2.83329   2.85394   2.89826
 Alpha virt. eigenvalues --    2.91938   2.99375   3.02418   3.06166   3.14344
 Alpha virt. eigenvalues --    3.16713   3.31188   3.32951   3.38430   3.41500
 Alpha virt. eigenvalues --    3.47577   3.57998   3.60290   3.77489   3.81121
 Alpha virt. eigenvalues --    3.84005   4.01352   4.03648   4.19525   4.31635
 Alpha virt. eigenvalues --    4.56123   4.86429   4.93280   5.51217  23.57607
 Alpha virt. eigenvalues --   23.74651  23.75565  23.82053  23.92129  24.20252
 Alpha virt. eigenvalues --   24.24992  49.88864
  Beta  occ. eigenvalues --  -19.15751 -10.25650 -10.21158 -10.18891 -10.18236
  Beta  occ. eigenvalues --  -10.18082 -10.17636 -10.17346  -1.08364  -0.87827
  Beta  occ. eigenvalues --   -0.76845  -0.72743  -0.68370  -0.58400  -0.54019
  Beta  occ. eigenvalues --   -0.52775  -0.50460  -0.46620  -0.43852  -0.42600
  Beta  occ. eigenvalues --   -0.41892  -0.40729  -0.39581  -0.37781  -0.36480
  Beta  occ. eigenvalues --   -0.35335  -0.31043  -0.23374
  Beta virt. eigenvalues --   -0.07120  -0.03186  -0.00801   0.04614   0.05215
  Beta virt. eigenvalues --    0.06782   0.08021   0.08870   0.10615   0.12437
  Beta virt. eigenvalues --    0.12826   0.17461   0.19881   0.21185   0.25231
  Beta virt. eigenvalues --    0.26811   0.27482   0.30294   0.30635   0.33313
  Beta virt. eigenvalues --    0.37286   0.37402   0.39513   0.41116   0.42139
  Beta virt. eigenvalues --    0.43678   0.44902   0.45692   0.48679   0.50301
  Beta virt. eigenvalues --    0.50584   0.51706   0.52139   0.54676   0.55162
  Beta virt. eigenvalues --    0.57282   0.58247   0.59594   0.60522   0.62616
  Beta virt. eigenvalues --    0.62857   0.63446   0.65994   0.66801   0.68441
  Beta virt. eigenvalues --    0.73551   0.75967   0.77322   0.79422   0.84113
  Beta virt. eigenvalues --    0.85485   0.88013   0.88916   0.93591   0.97451
  Beta virt. eigenvalues --    0.99391   1.01041   1.04604   1.07371   1.09462
  Beta virt. eigenvalues --    1.10854   1.21416   1.28829   1.32046   1.35534
  Beta virt. eigenvalues --    1.39719   1.40665   1.44616   1.46186   1.48165
  Beta virt. eigenvalues --    1.48624   1.50974   1.51167   1.52660   1.53940
  Beta virt. eigenvalues --    1.54990   1.55705   1.57552   1.59952   1.60714
  Beta virt. eigenvalues --    1.63944   1.66452   1.70479   1.74481   1.76235
  Beta virt. eigenvalues --    1.78050   1.80383   1.81665   1.85739   1.89533
  Beta virt. eigenvalues --    1.91865   1.92198   1.96009   2.00503   2.00631
  Beta virt. eigenvalues --    2.05770   2.10396   2.12096   2.13563   2.19313
  Beta virt. eigenvalues --    2.25634   2.29882   2.31038   2.34651   2.36893
  Beta virt. eigenvalues --    2.41641   2.44181   2.44580   2.46831   2.49525
  Beta virt. eigenvalues --    2.52975   2.53504   2.57494   2.58543   2.64377
  Beta virt. eigenvalues --    2.65286   2.66241   2.68066   2.69851   2.75554
  Beta virt. eigenvalues --    2.76731   2.80727   2.83723   2.85076   2.85725
  Beta virt. eigenvalues --    2.90956   2.92389   2.99589   3.02703   3.06768
  Beta virt. eigenvalues --    3.14678   3.16892   3.31348   3.33494   3.38716
  Beta virt. eigenvalues --    3.43610   3.47633   3.58515   3.60999   3.77516
  Beta virt. eigenvalues --    3.81204   3.84487   4.01391   4.03804   4.20084
  Beta virt. eigenvalues --    4.31730   4.56341   4.86994   4.96604   5.52123
  Beta virt. eigenvalues --   23.57703  23.74788  23.76476  23.82435  23.92139
  Beta virt. eigenvalues --   24.20288  24.25016  49.89677
          Condensed to atoms (all electrons):
               1          2          3          4          5          6
     1  C    5.037068   0.619088  -0.000383  -0.093157  -0.054665   0.393874
     2  C    0.619088   5.006311  -0.031431   0.307483  -0.124163  -0.060950
     3  C   -0.000383  -0.031431   5.270817   0.115320  -0.045258   0.002975
     4  C   -0.093157   0.307483   0.115320   5.430827   0.347434  -0.098787
     5  C   -0.054665  -0.124163  -0.045258   0.347434   4.981852   0.615374
     6  C    0.393874  -0.060950   0.002975  -0.098787   0.615374   4.878382
     7  H   -0.034083   0.420413  -0.000978  -0.045971   0.005291   0.007489
     8  O    0.000280   0.004580   0.535667  -0.060357   0.003336  -0.000048
     9  H    0.006270   0.007508   0.007389  -0.048979   0.413295  -0.032107
    10  H   -0.046757   0.005213  -0.000084   0.009291  -0.040654   0.421546
    11  H   -0.002534  -0.011759  -0.026179   0.358343  -0.018515  -0.001086
    12  C    0.363400  -0.050784  -0.000111   0.007557   0.004808  -0.056216
    13  H   -0.038298   0.000794  -0.000022  -0.000642   0.000355  -0.002289
    14  H   -0.039507  -0.000268   0.000072  -0.000195   0.000365  -0.002738
    15  H   -0.032531  -0.006234  -0.000025   0.000170  -0.000360   0.006249
               7          8          9         10         11         12
     1  C   -0.034083   0.000280   0.006270  -0.046757  -0.002534   0.363400
     2  C    0.420413   0.004580   0.007508   0.005213  -0.011759  -0.050784
     3  C   -0.000978   0.535667   0.007389  -0.000084  -0.026179  -0.000111
     4  C   -0.045971  -0.060357  -0.048979   0.009291   0.358343   0.007557
     5  C    0.005291   0.003336   0.413295  -0.040654  -0.018515   0.004808
     6  C    0.007489  -0.000048  -0.032107   0.421546  -0.001086  -0.056216
     7  H    0.546807   0.005421  -0.000078  -0.000290   0.000742  -0.005084
     8  O    0.005421   7.711004  -0.000213   0.000003  -0.000248  -0.000007
     9  H   -0.000078  -0.000213   0.546911  -0.005274   0.000823  -0.000274
    10  H   -0.000290   0.000003  -0.005274   0.563376  -0.000273  -0.000242
    11  H    0.000742  -0.000248   0.000823  -0.000273   0.526440  -0.000140
    12  C   -0.005084  -0.000007  -0.000274  -0.000242  -0.000140   4.773615
    13  H    0.000007   0.000000   0.000005   0.000829   0.000114   0.400317
    14  H   -0.000035   0.000001  -0.000028   0.000735  -0.000033   0.403289
    15  H    0.002896  -0.000006   0.000019  -0.000206  -0.000025   0.406963
              13         14         15
     1  C   -0.038298  -0.039507  -0.032531
     2  C    0.000794  -0.000268  -0.006234
     3  C   -0.000022   0.000072  -0.000025
     4  C   -0.000642  -0.000195   0.000170
     5  C    0.000355   0.000365  -0.000360
     6  C   -0.002289  -0.002738   0.006249
     7  H    0.000007  -0.000035   0.002896
     8  O    0.000000   0.000001  -0.000006
     9  H    0.000005  -0.000028   0.000019
    10  H    0.000829   0.000735  -0.000206
    11  H    0.000114  -0.000033  -0.000025
    12  C    0.400317   0.403289   0.406963
    13  H    0.577948  -0.033631  -0.026349
    14  H   -0.033631   0.575764  -0.026117
    15  H   -0.026349  -0.026117   0.561405
          Atomic-Atomic Spin Densities.
               1          2          3          4          5          6
     1  C    0.046884  -0.007920  -0.001228   0.004238  -0.003578   0.005222
     2  C   -0.007920   0.064734   0.020436  -0.101971   0.008926  -0.002691
     3  C   -0.001228   0.020436   0.962246  -0.236483   0.003304   0.000449
     4  C    0.004238  -0.101971  -0.236483   0.467907  -0.005535   0.000509
     5  C   -0.003578   0.008926   0.003304  -0.005535   0.010619  -0.002872
     6  C    0.005222  -0.002691   0.000449   0.000509  -0.002872  -0.002371
     7  H   -0.000889   0.003858   0.000177  -0.005596   0.000404  -0.000284
     8  O   -0.000158   0.008934  -0.160024  -0.006683   0.000033  -0.000023
     9  H   -0.000637   0.002308   0.008560  -0.009000  -0.001021  -0.000165
    10  H   -0.000048   0.000198   0.000049  -0.000195  -0.000073   0.000057
    11  H   -0.000880   0.006382   0.010208  -0.015121   0.001469  -0.000420
    12  C   -0.000854  -0.000554   0.000014  -0.000469   0.000102  -0.000185
    13  H   -0.000408  -0.000156   0.000001  -0.000022   0.000030  -0.000164
    14  H   -0.001758   0.000259  -0.000008   0.000148  -0.000028   0.000119
    15  H   -0.000078   0.000114   0.000004   0.000042  -0.000009   0.000011
               7          8          9         10         11         12
     1  C   -0.000889  -0.000158  -0.000637  -0.000048  -0.000880  -0.000854
     2  C    0.003858   0.008934   0.002308   0.000198   0.006382  -0.000554
     3  C    0.000177  -0.160024   0.008560   0.000049   0.010208   0.000014
     4  C   -0.005596  -0.006683  -0.009000  -0.000195  -0.015121  -0.000469
     5  C    0.000404   0.000033  -0.001021  -0.000073   0.001469   0.000102
     6  C   -0.000284  -0.000023  -0.000165   0.000057  -0.000420  -0.000185
     7  H    0.000922   0.001923   0.000093   0.000011   0.000596   0.000463
     8  O    0.001923   0.401308  -0.000122   0.000000   0.000293   0.000006
     9  H    0.000093  -0.000122   0.002691   0.000217   0.000807   0.000029
    10  H    0.000011   0.000000   0.000217  -0.000269   0.000020   0.000027
    11  H    0.000596   0.000293   0.000807   0.000020  -0.006173   0.000041
    12  C    0.000463   0.000006   0.000029   0.000027   0.000041  -0.000545
    13  H    0.000051   0.000000   0.000007   0.000017   0.000004   0.000762
    14  H   -0.000146  -0.000003  -0.000018  -0.000058  -0.000008   0.000042
    15  H   -0.000051  -0.000003  -0.000002  -0.000002  -0.000005   0.000068
              13         14         15
     1  C   -0.000408  -0.001758  -0.000078
     2  C   -0.000156   0.000259   0.000114
     3  C    0.000001  -0.000008   0.000004
     4  C   -0.000022   0.000148   0.000042
     5  C    0.000030  -0.000028  -0.000009
     6  C   -0.000164   0.000119   0.000011
     7  H    0.000051  -0.000146  -0.000051
     8  O    0.000000  -0.000003  -0.000003
     9  H    0.000007  -0.000018  -0.000002
    10  H    0.000017  -0.000058  -0.000002
    11  H    0.000004  -0.000008  -0.000005
    12  C    0.000762   0.000042   0.000068
    13  H    0.001360  -0.000691  -0.000062
    14  H   -0.000691   0.005160   0.000129
    15  H   -0.000062   0.000129  -0.000100
 Mulliken charges and spin densities:
               1          2
     1  C   -0.078065   0.037910
     2  C   -0.085802   0.002855
     3  C    0.172232   0.607705
     4  C   -0.228337   0.091769
     5  C   -0.088494   0.011771
     6  C   -0.071668  -0.002809
     7  H    0.097452   0.001534
     8  O   -0.199413   0.245482
     9  H    0.104733   0.003745
    10  H    0.092787  -0.000051
    11  H    0.174329  -0.002786
    12  C   -0.247092  -0.001052
    13  H    0.120861   0.000732
    14  H    0.122327   0.003139
    15  H    0.114149   0.000058
 Sum of Mulliken charges =   0.00000   1.00000
 Mulliken charges and spin densities with hydrogens summed into heavy atoms:
               1          2
     1  C   -0.078065   0.037910
     2  C    0.011650   0.004388
     3  C    0.172232   0.607705
     4  C   -0.054007   0.088983
     5  C    0.016239   0.015516
     6  C    0.021119  -0.002860
     8  O   -0.199413   0.245482
    12  C    0.110245   0.002876
 Electronic spatial extent (au):  <R**2>=           1003.6199
 Charge=              0.0000 electrons
 Dipole moment (field-independent basis, Debye):
    X=             -2.2041    Y=              0.8968    Z=              0.9443  Tot=              2.5601
 Quadrupole moment (field-independent basis, Debye-Ang):
   XX=            -49.9105   YY=            -45.8361   ZZ=            -47.3641
   XY=              2.9342   XZ=              4.0073   YZ=             -1.2552
 Traceless Quadrupole moment (field-independent basis, Debye-Ang):
   XX=             -2.2070   YY=              1.8675   ZZ=              0.3395
   XY=              2.9342   XZ=              4.0073   YZ=             -1.2552
 Octapole moment (field-independent basis, Debye-Ang**2):
  XXX=            -19.8039  YYY=             -2.1602  ZZZ=             -0.8098  XYY=             -1.9147
  XXY=              5.4946  XXZ=              4.0980  XZZ=              4.7326  YZZ=             -2.1786
  YYZ=             -0.0071  XYZ=              0.1753
 Hexadecapole moment (field-independent basis, Debye-Ang**3):
 XXXX=           -945.0112 YYYY=           -312.1309 ZZZZ=           -100.7497 XXXY=              1.1772
 XXXZ=             15.8134 YYYX=             -3.6628 YYYZ=             -7.8738 ZZZX=              2.7538
 ZZZY=              5.2075 XXYY=           -212.7751 XXZZ=           -164.2743 YYZZ=            -75.2159
 XXYZ=             -4.4003 YYXZ=              3.9878 ZZXY=             -3.1610
 N-N= 3.260428334110D+02 E-N=-1.458240052660D+03  KE= 3.448073561212D+02
                          Isotropic Fermi Contact Couplings
        Atom                 a.u.       MegaHertz       Gauss      10(-4) cm-1
     1  C(13)              0.00567       6.37519       2.27483       2.12653
     2  C(13)              0.00912      10.25561       3.65946       3.42090
     3  C(13)              0.32865     369.46984     131.83603     123.24187
     4  C(13)              0.12516     140.70375      50.20660      46.93372
     5  C(13)              0.00012       0.13426       0.04791       0.04478
     6  C(13)             -0.00027      -0.29903      -0.10670      -0.09974
     7  H(1)              -0.00004      -0.17245      -0.06153      -0.05752
     8  O(17)              0.05159     -31.27340     -11.15913     -10.43168
     9  H(1)              -0.00028      -1.27262      -0.45410      -0.42450
    10  H(1)              -0.00004      -0.16076      -0.05736      -0.05362
    11  H(1)              -0.00295     -13.17562      -4.70139      -4.39491
    12  C(13)              0.00134       1.50142       0.53574       0.50082
    13  H(1)               0.00049       2.18043       0.77803       0.72731
    14  H(1)               0.00151       6.76153       2.41268       2.25540
    15  H(1)               0.00000       0.00081       0.00029       0.00027
 --------------------------------------------------------
       Center         ----  Spin Dipole Couplings  ----
                      3XX-RR        3YY-RR        3ZZ-RR
 --------------------------------------------------------
     1   Atom       -0.018219     -0.023342      0.041561
     2   Atom        0.022313      0.018292     -0.040605
     3   Atom       -0.062387      0.325111     -0.262725
     4   Atom        0.139657     -0.104991     -0.034666
     5   Atom        0.002983     -0.008053      0.005070
     6   Atom        0.005403     -0.002966     -0.002437
     7   Atom        0.003198      0.001946     -0.005145
     8   Atom        0.290147      0.215446     -0.505593
     9   Atom       -0.000566      0.006475     -0.005909
    10   Atom        0.001906     -0.000335     -0.001571
    11   Atom       -0.007294     -0.015298      0.022593
    12   Atom        0.003915     -0.002159     -0.001756
    13   Atom        0.002516     -0.001287     -0.001229
    14   Atom        0.001642     -0.001152     -0.000491
    15   Atom        0.001228      0.000193     -0.001421
 --------------------------------------------------------
                        XY            XZ            YZ
 --------------------------------------------------------
     1   Atom       -0.000113     -0.003061      0.013940
     2   Atom        0.036621      0.018762      0.000943
     3   Atom        0.425104     -0.110662     -0.191703
     4   Atom       -0.048075     -0.140029      0.023657
     5   Atom       -0.009830     -0.015019      0.006869
     6   Atom       -0.001551     -0.000654     -0.006433
     7   Atom        0.004513     -0.002379     -0.002489
     8   Atom        0.918785     -0.505969     -0.437902
     9   Atom       -0.006234     -0.000772      0.000207
    10   Atom       -0.001765      0.000649     -0.000809
    11   Atom       -0.001469     -0.009643      0.010421
    12   Atom        0.003014      0.002443      0.001536
    13   Atom        0.000319     -0.000466      0.000027
    14   Atom        0.000840      0.000904      0.000102
    15   Atom        0.001684     -0.000032     -0.000104
 --------------------------------------------------------


 ---------------------------------------------------------------------------------
              Anisotropic Spin Dipole Couplings in Principal Axis System
 ---------------------------------------------------------------------------------

       Atom             a.u.   MegaHertz   Gauss  10(-4) cm-1        Axes

              Baa    -0.0262    -3.521    -1.257    -1.175 -0.0640  0.9769 -0.2037
     1 C(13)  Bbb    -0.0183    -2.460    -0.878    -0.821  0.9968  0.0724  0.0341
              Bcc     0.0446     5.981     2.134     1.995 -0.0481  0.2009  0.9784
 
              Baa    -0.0474    -6.357    -2.268    -2.120 -0.3417  0.1773  0.9229
     2 C(13)  Bbb    -0.0117    -1.569    -0.560    -0.523 -0.5863  0.7273 -0.3568
              Bcc     0.0591     7.926     2.828     2.644  0.7345  0.6630  0.1445
 
              Baa    -0.3403   -45.659   -16.292   -15.230  0.7240 -0.5732 -0.3838
     3 C(13)  Bbb    -0.3117   -41.831   -14.927   -13.953  0.4489 -0.0309  0.8930
              Bcc     0.6520    87.490    31.219    29.184  0.5237  0.8189 -0.2350
 
              Baa    -0.1157   -15.531    -5.542    -5.181  0.4113  0.7717  0.4852
     4 C(13)  Bbb    -0.1103   -14.808    -5.284    -4.939  0.2916 -0.6157  0.7320
              Bcc     0.2261    30.339    10.826    10.120  0.8636 -0.1596 -0.4783
 
              Baa    -0.0142    -1.902    -0.679    -0.635  0.6201  0.7547  0.2145
     5 C(13)  Bbb    -0.0093    -1.247    -0.445    -0.416  0.4284 -0.5547  0.7133
              Bcc     0.0235     3.150     1.124     1.051 -0.6573  0.3504  0.6673
 
              Baa    -0.0093    -1.249    -0.446    -0.417  0.1064  0.7208  0.6849
     6 C(13)  Bbb     0.0036     0.478     0.170     0.159 -0.2832 -0.6383  0.7158
              Bcc     0.0057     0.771     0.275     0.257  0.9531 -0.2702  0.1362
 
              Baa    -0.0061    -3.233    -1.154    -1.079  0.1402  0.2210  0.9651
     7 H(1)   Bbb    -0.0020    -1.047    -0.373    -0.349 -0.6748  0.7346 -0.0701
              Bcc     0.0080     4.280     1.527     1.428  0.7245  0.6415 -0.2522
 
              Baa    -0.7517    54.396    19.410    18.144  0.4693 -0.0465  0.8818
     8 O(17)  Bbb    -0.6543    47.343    16.893    15.792 -0.5576  0.7587  0.3368
              Bcc     1.4060  -101.739   -36.303   -33.936  0.6847  0.6498 -0.3301
 
              Baa    -0.0061    -3.252    -1.160    -1.085  0.2628  0.1145  0.9580
     9 H(1)   Bbb    -0.0040    -2.155    -0.769    -0.719  0.8221  0.4931 -0.2845
              Bcc     0.0101     5.407     1.929     1.803 -0.5050  0.8624  0.0354
 
              Baa    -0.0020    -1.061    -0.379    -0.354  0.0907  0.5140  0.8530
    10 H(1)   Bbb    -0.0011    -0.579    -0.207    -0.193  0.5206  0.7057 -0.4806
              Bcc     0.0031     1.641     0.585     0.547  0.8490 -0.4876  0.2036
 
              Baa    -0.0181    -9.650    -3.443    -3.219 -0.1125  0.9558 -0.2715
    11 H(1)   Bbb    -0.0099    -5.260    -1.877    -1.755  0.9575  0.1774  0.2276
              Bcc     0.0279    14.910     5.320     4.973 -0.2657  0.2344  0.9351
 
              Baa    -0.0036    -0.489    -0.175    -0.163 -0.2038  0.8721 -0.4449
    12 C(13)  Bbb    -0.0025    -0.340    -0.121    -0.113 -0.4616  0.3152  0.8292
              Bcc     0.0062     0.829     0.296     0.277  0.8634  0.3744  0.3383
 
              Baa    -0.0014    -0.729    -0.260    -0.243 -0.1381  0.7719 -0.6206
    13 H(1)   Bbb    -0.0012    -0.658    -0.235    -0.219  0.0427  0.6307  0.7749
              Bcc     0.0026     1.386     0.495     0.462  0.9895  0.0805 -0.1201
 
              Baa    -0.0014    -0.755    -0.269    -0.252 -0.3155  0.9262  0.2064
    14 H(1)   Bbb    -0.0008    -0.407    -0.145    -0.136 -0.2464 -0.2900  0.9248
              Bcc     0.0022     1.162     0.415     0.388  0.9164  0.2409  0.3197
 
              Baa    -0.0014    -0.765    -0.273    -0.255 -0.0817  0.1479  0.9856
    15 H(1)   Bbb    -0.0010    -0.555    -0.198    -0.185 -0.5893  0.7904 -0.1674
              Bcc     0.0025     1.320     0.471     0.440  0.8038  0.5945 -0.0225
 

 ---------------------------------------------------------------------------------

 1|1|UNPC-PC-20250526LCFF|SP|UB3LYP|6-311G(d,p)|C7H7O1(2)|ADMINISTRATOR
 |02-Dec-2025|0||# ub3lyp/6-311g(d,p) geom=connectivity temperature=823
 .15||Title Card Required||0,2|C,0,-1.32321,-0.216124,0.032182|C,0,-0.1
 69785,-0.716949,0.516848|C,0,2.190855,0.05888,-0.180164|C,0,0.870359,0
 .370749,0.555013|C,0,0.143481,1.571759,-0.001449|C,0,-1.118383,1.21301
 8,-0.284264|H,0,0.024431,-1.735809,0.820399|O,0,2.638482,-0.995904,-0.
 452769|H,0,0.603134,2.540895,-0.131346|H,0,-1.888232,1.859955,-0.68689
 8|H,0,1.204802,0.574877,1.58453|C,0,-2.619599,-0.93486,-0.179524|H,0,-
 3.422959,-0.479819,0.409644|H,0,-2.927572,-0.885672,-1.229547|H,0,-2.5
 43765,-1.986034,0.103511||Version=EM64W-G16RevA.03|State=2-A|HF=-346.1
 772531|S2=0.753112|S2-1=0.|S2A=0.750007|RMSD=4.720e-009|Dipole=-0.8671
 751,0.3528108,0.3715189|Quadrupole=-1.6408206,1.3884248,0.2523958,2.18
 15404,2.9792967,-0.9332146|PG=C01 [X(C7H7O1)]||@


 IT'S WHAT A FELLER THINKS HE KNOWS THAT HURTS HIM...
                    ------
           KIN HUBBARD
 Job cpu time:       0 days  0 hours  0 minutes 28.0 seconds.
 Elapsed time:       0 days  0 hours  0 minutes 27.8 seconds.
 File lengths (MBytes):  RWF=     38 Int=      0 D2E=      0 Chk=      4 Scr=      1
 Normal termination of Gaussian 16 at Tue Dec 02 11:24:17 2025.
