Title Card Required                                                     
SP        RB3LYP                                                      6-311G(d,p)         
Number of atoms                            I               17
Info1-9                                    I   N=           9
          45          44           0           0           0         110
           1          18        -502
Full Title                                 C   N=           2
Title Card Required     
Route                                      C   N=           5
# rb3lyp/6-311g(d,p) geom=connectivity temperature=823.15   
Charge                                     I                0
Multiplicity                               I                1
Number of electrons                        I               66
Number of alpha electrons                  I               33
Number of beta electrons                   I               33
Number of basis functions                  I              210
Number of independent functions            I              210
Number of point charges in /Mol/           I                0
Number of translation vectors              I                0
Atomic numbers                             I   N=          17
           6           6           6           6           6           6
           1           1           1           8           6           1
           1           1           1           8           1
Nuclear charges                            R   N=          17
  6.00000000E+00  6.00000000E+00  6.00000000E+00  6.00000000E+00  6.00000000E+00
  6.00000000E+00  1.00000000E+00  1.00000000E+00  1.00000000E+00  8.00000000E+00
  6.00000000E+00  1.00000000E+00  1.00000000E+00  1.00000000E+00  1.00000000E+00
  8.00000000E+00  1.00000000E+00
Current cartesian coordinates              R   N=          51
 -4.34482240E+00 -1.11207737E+00 -3.59047964E-05 -3.47329394E+00  1.37875741E+00
 -2.83458919E-05 -8.97376134E-01  1.86918669E+00 -2.26767135E-05  8.28930254E-01
 -1.56571368E-01 -2.45664396E-05 -3.94045691E-02 -2.63449554E+00 -3.40150702E-05
 -2.64076376E+00 -3.10869396E+00 -3.77945225E-05 -6.35986760E+00 -1.47616901E+00
 -3.96842486E-05 -4.76571921E+00  2.96646372E+00 -2.45664396E-05  1.27911782E+00
 -4.19766565E+00 -3.96842486E-05  3.31556228E+00  5.96427801E-01 -3.21253441E-05
  5.22317844E+00 -1.29309234E+00  1.64406173E-04  7.01952375E+00 -2.89925561E-01
  2.43774670E-04  5.10014215E+00 -2.48199842E+00  1.68998207E+00  5.10037081E+00
 -2.48212503E+00 -1.68957956E+00 -3.30977216E+00 -5.04374139E+00 -4.34637009E-05
 -3.90625287E-02  4.29472387E+00 -1.51178090E-05  1.78551907E+00  4.21784981E+00
 -1.88972612E-06
Number of symbols in /Mol/                 I                0
Force Field                                I                0
Atom Types                                 C   N=          17
                                                            
                                                            
                                                            
                        
Int Atom Types                             I   N=          17
           0           0           0           0           0           0
           0           0           0           0           0           0
           0           0           0           0           0
MM charges                                 R   N=          17
  0.00000000E+00  0.00000000E+00  0.00000000E+00  0.00000000E+00  0.00000000E+00
  0.00000000E+00  0.00000000E+00  0.00000000E+00  0.00000000E+00  0.00000000E+00
  0.00000000E+00  0.00000000E+00  0.00000000E+00  0.00000000E+00  0.00000000E+00
  0.00000000E+00  0.00000000E+00
Integer atomic weights                     I   N=          17
          12          12          12          12          12          12
           1           1           1          16          12           1
           1           1           1          16           1
Real atomic weights                        R   N=          17
  1.20000000E+01  1.20000000E+01  1.20000000E+01  1.20000000E+01  1.20000000E+01
  1.20000000E+01  1.00782504E+00  1.00782504E+00  1.00782504E+00  1.59949146E+01
  1.20000000E+01  1.00782504E+00  1.00782504E+00  1.00782504E+00  1.00782504E+00
  1.59949146E+01  1.00782504E+00
Atom fragment info                         I   N=          17
           0           0           0           0           0           0
           0           0           0           0           0           0
           0           0           0           0           0
Atom residue num                           I   N=          17
           0           0           0           0           0           0
           0           0           0           0           0           0
           0           0           0           0           0
Nuclear spins                              I   N=          17
           0           0           0           0           0           0
           1           1           1           0           0           1
           1           1           1           0           1
Nuclear ZEff                               R   N=          17
 -3.60000000E+00 -3.60000000E+00 -3.60000000E+00 -3.60000000E+00 -3.60000000E+00
 -3.60000000E+00 -1.00000000E+00 -1.00000000E+00 -1.00000000E+00 -5.60000000E+00
 -3.60000000E+00 -1.00000000E+00 -1.00000000E+00 -1.00000000E+00 -1.00000000E+00
 -5.60000000E+00 -1.00000000E+00
Nuclear ZNuc                               R   N=          17
  6.00000000E+00  6.00000000E+00  6.00000000E+00  6.00000000E+00  6.00000000E+00
  6.00000000E+00  1.00000000E+00  1.00000000E+00  1.00000000E+00  8.00000000E+00
  6.00000000E+00  1.00000000E+00  1.00000000E+00  1.00000000E+00  1.00000000E+00
  8.00000000E+00  1.00000000E+00
Nuclear QMom                               R   N=          17
  0.00000000E+00  0.00000000E+00  0.00000000E+00  0.00000000E+00  0.00000000E+00
  0.00000000E+00  0.00000000E+00  0.00000000E+00  0.00000000E+00  0.00000000E+00
  0.00000000E+00  0.00000000E+00  0.00000000E+00  0.00000000E+00  0.00000000E+00
  0.00000000E+00  0.00000000E+00
Nuclear GFac                               R   N=          17
  0.00000000E+00  0.00000000E+00  0.00000000E+00  0.00000000E+00  0.00000000E+00
  0.00000000E+00  2.79284600E+00  2.79284600E+00  2.79284600E+00  0.00000000E+00
  0.00000000E+00  2.79284600E+00  2.79284600E+00  2.79284600E+00  2.79284600E+00
  0.00000000E+00  2.79284600E+00
MicOpt                                     I   N=          17
          -1          -1          -1          -1          -1          -1
          -1          -1          -1          -1          -1          -1
          -1          -1          -1          -1          -1
Number of residues                         I                0
Number of secondary structures             I                0
SymInf integers                            I   N=          26
           1           1           1           1           1           0
           0           0           0           0           0           0
           0           0           0           0           0           0
           0           0           0           0           0           0
           0           0
RotTr to input orientation                 R   N=          12
  1.00000000E+00 -2.90157086E-08  0.00000000E+00  2.90157086E-08  1.00000000E+00
  0.00000000E+00  0.00000000E+00  0.00000000E+00  1.00000000E+00  1.04293678E-16
 -2.57689926E-07  8.58966420E-08
Number of contracted shells                I               77
Number of primitive shells                 I              156
Pure/Cartesian d shells                    I                0
Pure/Cartesian f shells                    I                0
Highest angular momentum                   I                2
Largest degree of contraction              I                6
Shell types                                I   N=          77
           0          -1          -1          -1          -2           0
          -1          -1          -1          -2           0          -1
          -1          -1          -2           0          -1          -1
          -1          -2           0          -1          -1          -1
          -2           0          -1          -1          -1          -2
           0           0           0           1           0           0
           0           1           0           0           0           1
           0          -1          -1          -1          -2           0
          -1          -1          -1          -2           0           0
           0           1           0           0           0           1
           0           0           0           1           0           0
           0           1           0          -1          -1          -1
          -2           0           0           0           1
Number of primitives per shell             I   N=          77
           6           3           1           1           1           6
           3           1           1           1           6           3
           1           1           1           6           3           1
           1           1           6           3           1           1
           1           6           3           1           1           1
           3           1           1           1           3           1
           1           1           3           1           1           1
           6           3           1           1           1           6
           3           1           1           1           3           1
           1           1           3           1           1           1
           3           1           1           1           3           1
           1           1           6           3           1           1
           1           3           1           1           1
Shell to atom map                          I   N=          77
           1           1           1           1           1           2
           2           2           2           2           3           3
           3           3           3           4           4           4
           4           4           5           5           5           5
           5           6           6           6           6           6
           7           7           7           7           8           8
           8           8           9           9           9           9
          10          10          10          10          10          11
          11          11          11          11          12          12
          12          12          13          13          13          13
          14          14          14          14          15          15
          15          15          16          16          16          16
          16          17          17          17          17
Primitive exponents                        R   N=         156
  4.56324000E+03  6.82024000E+02  1.54973000E+02  4.44553000E+01  1.30290000E+01
  1.82773000E+00  2.09642000E+01  4.80331000E+00  1.45933000E+00  4.83456000E-01
  1.45585000E-01  6.26000000E-01  4.56324000E+03  6.82024000E+02  1.54973000E+02
  4.44553000E+01  1.30290000E+01  1.82773000E+00  2.09642000E+01  4.80331000E+00
  1.45933000E+00  4.83456000E-01  1.45585000E-01  6.26000000E-01  4.56324000E+03
  6.82024000E+02  1.54973000E+02  4.44553000E+01  1.30290000E+01  1.82773000E+00
  2.09642000E+01  4.80331000E+00  1.45933000E+00  4.83456000E-01  1.45585000E-01
  6.26000000E-01  4.56324000E+03  6.82024000E+02  1.54973000E+02  4.44553000E+01
  1.30290000E+01  1.82773000E+00  2.09642000E+01  4.80331000E+00  1.45933000E+00
  4.83456000E-01  1.45585000E-01  6.26000000E-01  4.56324000E+03  6.82024000E+02
  1.54973000E+02  4.44553000E+01  1.30290000E+01  1.82773000E+00  2.09642000E+01
  4.80331000E+00  1.45933000E+00  4.83456000E-01  1.45585000E-01  6.26000000E-01
  4.56324000E+03  6.82024000E+02  1.54973000E+02  4.44553000E+01  1.30290000E+01
  1.82773000E+00  2.09642000E+01  4.80331000E+00  1.45933000E+00  4.83456000E-01
  1.45585000E-01  6.26000000E-01  3.38650000E+01  5.09479000E+00  1.15879000E+00
  3.25840000E-01  1.02741000E-01  7.50000000E-01  3.38650000E+01  5.09479000E+00
  1.15879000E+00  3.25840000E-01  1.02741000E-01  7.50000000E-01  3.38650000E+01
  5.09479000E+00  1.15879000E+00  3.25840000E-01  1.02741000E-01  7.50000000E-01
  8.58850000E+03  1.29723000E+03  2.99296000E+02  8.73771000E+01  2.56789000E+01
  3.74004000E+00  4.21175000E+01  9.62837000E+00  2.85332000E+00  9.05661000E-01
  2.55611000E-01  1.29200000E+00  4.56324000E+03  6.82024000E+02  1.54973000E+02
  4.44553000E+01  1.30290000E+01  1.82773000E+00  2.09642000E+01  4.80331000E+00
  1.45933000E+00  4.83456000E-01  1.45585000E-01  6.26000000E-01  3.38650000E+01
  5.09479000E+00  1.15879000E+00  3.25840000E-01  1.02741000E-01  7.50000000E-01
  3.38650000E+01  5.09479000E+00  1.15879000E+00  3.25840000E-01  1.02741000E-01
  7.50000000E-01  3.38650000E+01  5.09479000E+00  1.15879000E+00  3.25840000E-01
  1.02741000E-01  7.50000000E-01  3.38650000E+01  5.09479000E+00  1.15879000E+00
  3.25840000E-01  1.02741000E-01  7.50000000E-01  8.58850000E+03  1.29723000E+03
  2.99296000E+02  8.73771000E+01  2.56789000E+01  3.74004000E+00  4.21175000E+01
  9.62837000E+00  2.85332000E+00  9.05661000E-01  2.55611000E-01  1.29200000E+00
  3.38650000E+01  5.09479000E+00  1.15879000E+00  3.25840000E-01  1.02741000E-01
  7.50000000E-01
Contraction coefficients                   R   N=         156
  1.96665025E-03  1.52306019E-02  7.61269097E-02  2.60801033E-01  6.16462078E-01
  2.21006028E-01  1.14660081E-01  9.19999648E-01 -3.03068213E-03  1.00000000E+00
  1.00000000E+00  1.00000000E+00  1.96665025E-03  1.52306019E-02  7.61269097E-02
  2.60801033E-01  6.16462078E-01  2.21006028E-01  1.14660081E-01  9.19999648E-01
 -3.03068213E-03  1.00000000E+00  1.00000000E+00  1.00000000E+00  1.96665025E-03
  1.52306019E-02  7.61269097E-02  2.60801033E-01  6.16462078E-01  2.21006028E-01
  1.14660081E-01  9.19999648E-01 -3.03068213E-03  1.00000000E+00  1.00000000E+00
  1.00000000E+00  1.96665025E-03  1.52306019E-02  7.61269097E-02  2.60801033E-01
  6.16462078E-01  2.21006028E-01  1.14660081E-01  9.19999648E-01 -3.03068213E-03
  1.00000000E+00  1.00000000E+00  1.00000000E+00  1.96665025E-03  1.52306019E-02
  7.61269097E-02  2.60801033E-01  6.16462078E-01  2.21006028E-01  1.14660081E-01
  9.19999648E-01 -3.03068213E-03  1.00000000E+00  1.00000000E+00  1.00000000E+00
  1.96665025E-03  1.52306019E-02  7.61269097E-02  2.60801033E-01  6.16462078E-01
  2.21006028E-01  1.14660081E-01  9.19999648E-01 -3.03068213E-03  1.00000000E+00
  1.00000000E+00  1.00000000E+00  2.54938145E-02  1.90373109E-01  8.52161486E-01
  1.00000000E+00  1.00000000E+00  1.00000000E+00  2.54938145E-02  1.90373109E-01
  8.52161486E-01  1.00000000E+00  1.00000000E+00  1.00000000E+00  2.54938145E-02
  1.90373109E-01  8.52161486E-01  1.00000000E+00  1.00000000E+00  1.00000000E+00
  1.89515008E-03  1.43859006E-02  7.07320031E-02  2.40001011E-01  5.94797026E-01
  2.80802012E-01  1.13889012E-01  9.20811101E-01 -3.27447036E-03  1.00000000E+00
  1.00000000E+00  1.00000000E+00  1.96665025E-03  1.52306019E-02  7.61269097E-02
  2.60801033E-01  6.16462078E-01  2.21006028E-01  1.14660081E-01  9.19999648E-01
 -3.03068213E-03  1.00000000E+00  1.00000000E+00  1.00000000E+00  2.54938145E-02
  1.90373109E-01  8.52161486E-01  1.00000000E+00  1.00000000E+00  1.00000000E+00
  2.54938145E-02  1.90373109E-01  8.52161486E-01  1.00000000E+00  1.00000000E+00
  1.00000000E+00  2.54938145E-02  1.90373109E-01  8.52161486E-01  1.00000000E+00
  1.00000000E+00  1.00000000E+00  2.54938145E-02  1.90373109E-01  8.52161486E-01
  1.00000000E+00  1.00000000E+00  1.00000000E+00  1.89515008E-03  1.43859006E-02
  7.07320031E-02  2.40001011E-01  5.94797026E-01  2.80802012E-01  1.13889012E-01
  9.20811101E-01 -3.27447036E-03  1.00000000E+00  1.00000000E+00  1.00000000E+00
  2.54938145E-02  1.90373109E-01  8.52161486E-01  1.00000000E+00  1.00000000E+00
  1.00000000E+00
P(S=P) Contraction coefficients            R   N=         156
  0.00000000E+00  0.00000000E+00  0.00000000E+00  0.00000000E+00  0.00000000E+00
  0.00000000E+00  4.02486927E-02  2.37593957E-01  8.15853851E-01  1.00000000E+00
  1.00000000E+00  0.00000000E+00  0.00000000E+00  0.00000000E+00  0.00000000E+00
  0.00000000E+00  0.00000000E+00  0.00000000E+00  4.02486927E-02  2.37593957E-01
  8.15853851E-01  1.00000000E+00  1.00000000E+00  0.00000000E+00  0.00000000E+00
  0.00000000E+00  0.00000000E+00  0.00000000E+00  0.00000000E+00  0.00000000E+00
  4.02486927E-02  2.37593957E-01  8.15853851E-01  1.00000000E+00  1.00000000E+00
  0.00000000E+00  0.00000000E+00  0.00000000E+00  0.00000000E+00  0.00000000E+00
  0.00000000E+00  0.00000000E+00  4.02486927E-02  2.37593957E-01  8.15853851E-01
  1.00000000E+00  1.00000000E+00  0.00000000E+00  0.00000000E+00  0.00000000E+00
  0.00000000E+00  0.00000000E+00  0.00000000E+00  0.00000000E+00  4.02486927E-02
  2.37593957E-01  8.15853851E-01  1.00000000E+00  1.00000000E+00  0.00000000E+00
  0.00000000E+00  0.00000000E+00  0.00000000E+00  0.00000000E+00  0.00000000E+00
  0.00000000E+00  4.02486927E-02  2.37593957E-01  8.15853851E-01  1.00000000E+00
  1.00000000E+00  0.00000000E+00  0.00000000E+00  0.00000000E+00  0.00000000E+00
  0.00000000E+00  0.00000000E+00  0.00000000E+00  0.00000000E+00  0.00000000E+00
  0.00000000E+00  0.00000000E+00  0.00000000E+00  0.00000000E+00  0.00000000E+00
  0.00000000E+00  0.00000000E+00  0.00000000E+00  0.00000000E+00  0.00000000E+00
  0.00000000E+00  0.00000000E+00  0.00000000E+00  0.00000000E+00  0.00000000E+00
  0.00000000E+00  3.65113974E-02  2.37152983E-01  8.19701941E-01  1.00000000E+00
  1.00000000E+00  0.00000000E+00  0.00000000E+00  0.00000000E+00  0.00000000E+00
  0.00000000E+00  0.00000000E+00  0.00000000E+00  4.02486927E-02  2.37593957E-01
  8.15853851E-01  1.00000000E+00  1.00000000E+00  0.00000000E+00  0.00000000E+00
  0.00000000E+00  0.00000000E+00  0.00000000E+00  0.00000000E+00  0.00000000E+00
  0.00000000E+00  0.00000000E+00  0.00000000E+00  0.00000000E+00  0.00000000E+00
  0.00000000E+00  0.00000000E+00  0.00000000E+00  0.00000000E+00  0.00000000E+00
  0.00000000E+00  0.00000000E+00  0.00000000E+00  0.00000000E+00  0.00000000E+00
  0.00000000E+00  0.00000000E+00  0.00000000E+00  0.00000000E+00  0.00000000E+00
  0.00000000E+00  0.00000000E+00  0.00000000E+00  0.00000000E+00  3.65113974E-02
  2.37152983E-01  8.19701941E-01  1.00000000E+00  1.00000000E+00  0.00000000E+00
  0.00000000E+00  0.00000000E+00  0.00000000E+00  0.00000000E+00  0.00000000E+00
  0.00000000E+00
Coordinates of each shell                  R   N=         231
 -4.34482237E+00 -1.11207724E+00 -3.59906930E-05 -4.34482237E+00 -1.11207724E+00
 -3.59906930E-05 -4.34482237E+00 -1.11207724E+00 -3.59906930E-05 -4.34482237E+00
 -1.11207724E+00 -3.59906930E-05 -4.34482237E+00 -1.11207724E+00 -3.59906930E-05
 -3.47329398E+00  1.37875757E+00 -2.84317885E-05 -3.47329398E+00  1.37875757E+00
 -2.84317885E-05 -3.47329398E+00  1.37875757E+00 -2.84317885E-05 -3.47329398E+00
  1.37875757E+00 -2.84317885E-05 -3.47329398E+00  1.37875757E+00 -2.84317885E-05
 -8.97376189E-01  1.86918692E+00 -2.27626101E-05 -8.97376189E-01  1.86918692E+00
 -2.27626101E-05 -8.97376189E-01  1.86918692E+00 -2.27626101E-05 -8.97376189E-01
  1.86918692E+00 -2.27626101E-05 -8.97376189E-01  1.86918692E+00 -2.27626101E-05
  8.28930259E-01 -1.56571087E-01 -2.46523363E-05  8.28930259E-01 -1.56571087E-01
 -2.46523363E-05  8.28930259E-01 -1.56571087E-01 -2.46523363E-05  8.28930259E-01
 -1.56571087E-01 -2.46523363E-05  8.28930259E-01 -1.56571087E-01 -2.46523363E-05
 -3.94044927E-02 -2.63449528E+00 -3.41009669E-05 -3.94044927E-02 -2.63449528E+00
 -3.41009669E-05 -3.94044927E-02 -2.63449528E+00 -3.41009669E-05 -3.94044927E-02
 -2.63449528E+00 -3.41009669E-05 -3.94044927E-02 -2.63449528E+00 -3.41009669E-05
 -2.64076367E+00 -3.10869378E+00 -3.78804191E-05 -2.64076367E+00 -3.10869378E+00
 -3.78804191E-05 -2.64076367E+00 -3.10869378E+00 -3.78804191E-05 -2.64076367E+00
 -3.10869378E+00 -3.78804191E-05 -2.64076367E+00 -3.10869378E+00 -3.78804191E-05
 -6.35986756E+00 -1.47616894E+00 -3.97701453E-05 -6.35986756E+00 -1.47616894E+00
 -3.97701453E-05 -6.35986756E+00 -1.47616894E+00 -3.97701453E-05 -6.35986756E+00
 -1.47616894E+00 -3.97701453E-05 -4.76571930E+00  2.96646384E+00 -2.46523363E-05
 -4.76571930E+00  2.96646384E+00 -2.46523363E-05 -4.76571930E+00  2.96646384E+00
 -2.46523363E-05 -4.76571930E+00  2.96646384E+00 -2.46523363E-05  1.27911794E+00
 -4.19766535E+00 -3.97701453E-05  1.27911794E+00 -4.19766535E+00 -3.97701453E-05
  1.27911794E+00 -4.19766535E+00 -3.97701453E-05  1.27911794E+00 -4.19766535E+00
 -3.97701453E-05  3.31556226E+00  5.96428154E-01 -3.22112408E-05  3.31556226E+00
  5.96428154E-01 -3.22112408E-05  3.31556226E+00  5.96428154E-01 -3.22112408E-05
  3.31556226E+00  5.96428154E-01 -3.22112408E-05  3.31556226E+00  5.96428154E-01
 -3.22112408E-05  5.22317848E+00 -1.29309193E+00  1.64320276E-04  5.22317848E+00
 -1.29309193E+00  1.64320276E-04  5.22317848E+00 -1.29309193E+00  1.64320276E-04
  5.22317848E+00 -1.29309193E+00  1.64320276E-04  5.22317848E+00 -1.29309193E+00
  1.64320276E-04  7.01952376E+00 -2.89925100E-01  2.43688773E-04  7.01952376E+00
 -2.89925100E-01  2.43688773E-04  7.01952376E+00 -2.89925100E-01  2.43688773E-04
  7.01952376E+00 -2.89925100E-01  2.43688773E-04  5.10014223E+00 -2.48199801E+00
  1.68998199E+00  5.10014223E+00 -2.48199801E+00  1.68998199E+00  5.10014223E+00
 -2.48199801E+00  1.68998199E+00  5.10014223E+00 -2.48199801E+00  1.68998199E+00
  5.10037088E+00 -2.48212462E+00 -1.68957965E+00  5.10037088E+00 -2.48212462E+00
 -1.68957965E+00  5.10037088E+00 -2.48212462E+00 -1.68957965E+00  5.10037088E+00
 -2.48212462E+00 -1.68957965E+00 -3.30977201E+00 -5.04374123E+00 -4.35495975E-05
 -3.30977201E+00 -5.04374123E+00 -4.35495975E-05 -3.30977201E+00 -5.04374123E+00
 -4.35495975E-05 -3.30977201E+00 -5.04374123E+00 -4.35495975E-05 -3.90626533E-02
  4.29472413E+00 -1.52037056E-05 -3.90626533E-02  4.29472413E+00 -1.52037056E-05
 -3.90626533E-02  4.29472413E+00 -1.52037056E-05 -3.90626533E-02  4.29472413E+00
 -1.52037056E-05 -3.90626533E-02  4.29472413E+00 -1.52037056E-05  1.78551894E+00
  4.21785012E+00 -1.97562277E-06  1.78551894E+00  4.21785012E+00 -1.97562277E-06
  1.78551894E+00  4.21785012E+00 -1.97562277E-06  1.78551894E+00  4.21785012E+00
 -1.97562277E-06
Num ILSW                                   I              100
ILSW                                       I   N=         100
           0           0           0           0           2           0
           0           0           0           0         402          -1
           5           0           0           0           0           0
           0           0           1           0           0           0
           1           0           0           0           0           0
           0           0      100000           0          -1           0
           0           0           0           0           0           0
           0           0           0           1           0           0
           0 -2000000000           1           0           0           0
           0           0           4          52           0           0
           0           0           5           0           0           0
           0           0           0           0           0           1
           0           0           0           0           0           0
           0           0           0           0           0           0
           0           0           0           0           0           0
           0           0           0           0           0           0
           0           0           0           0
Num RLSW                                   I               52
RLSW                                       R   N=          52
  8.00000000E-01  7.20000000E-01  1.00000000E+00  8.10000000E-01  2.00000000E-01
  0.00000000E+00  0.00000000E+00  1.00000000E+00  0.00000000E+00  0.00000000E+00
  0.00000000E+00  0.00000000E+00  1.00000000E+00  0.00000000E+00  0.00000000E+00
  0.00000000E+00  0.00000000E+00  1.00000000E+00  0.00000000E+00  0.00000000E+00
  0.00000000E+00  0.00000000E+00  1.00000000E+00  0.00000000E+00  0.00000000E+00
  0.00000000E+00  0.00000000E+00  1.00000000E+00  0.00000000E+00  0.00000000E+00
  0.00000000E+00  0.00000000E+00  1.00000000E+00  0.00000000E+00  0.00000000E+00
  0.00000000E+00  0.00000000E+00  0.00000000E+00  1.00000000E+00  1.00000000E+00
  0.00000000E+00  1.00000000E+00  0.00000000E+00  0.00000000E+00  0.00000000E+00
  0.00000000E+00  0.00000000E+00  0.00000000E+00  0.00000000E+00  0.00000000E+00
  0.00000000E+00  0.00000000E+00
MxBond                                     I                4
NBond                                      I   N=          17
           3           3           3           3           3           3
           1           1           1           2           4           1
           1           1           1           2           1
IBond                                      I   N=          68
           2           6           7           0           1           3
           8           0           2           4          16           0
           3           5          10           0           4           6
           9           0           1           5          15           0
           1           0           0           0           2           0
           0           0           5           0           0           0
           4          11           0           0          10          12
          13          14          11           0           0           0
          11           0           0           0          11           0
           0           0           6           0           0           0
           3          17           0           0          16           0
           0           0
RBond                                      R   N=          68
  1.50000000E+00  1.50000000E+00  1.00000000E+00  0.00000000E+00  1.50000000E+00
  1.50000000E+00  1.00000000E+00  0.00000000E+00  1.50000000E+00  1.50000000E+00
  1.00000000E+00  0.00000000E+00  1.50000000E+00  1.50000000E+00  1.00000000E+00
  0.00000000E+00  1.50000000E+00  1.50000000E+00  1.00000000E+00  0.00000000E+00
  1.50000000E+00  1.50000000E+00  1.00000000E+00  0.00000000E+00  1.00000000E+00
  0.00000000E+00  0.00000000E+00  0.00000000E+00  1.00000000E+00  0.00000000E+00
  0.00000000E+00  0.00000000E+00  1.00000000E+00  0.00000000E+00  0.00000000E+00
  0.00000000E+00  1.00000000E+00  1.00000000E+00  0.00000000E+00  0.00000000E+00
  1.00000000E+00  1.00000000E+00  1.00000000E+00  1.00000000E+00  1.00000000E+00
  0.00000000E+00  0.00000000E+00  0.00000000E+00  1.00000000E+00  0.00000000E+00
  0.00000000E+00  0.00000000E+00  1.00000000E+00  0.00000000E+00  0.00000000E+00
  0.00000000E+00  1.00000000E+00  0.00000000E+00  0.00000000E+00  0.00000000E+00
  1.00000000E+00  1.00000000E+00  0.00000000E+00  0.00000000E+00  1.00000000E+00
  0.00000000E+00  0.00000000E+00  0.00000000E+00
Virial Ratio                               R      2.003725640325672E+00
SCF Energy                                 R     -4.221069427770382E+02
Total Energy                               R     -4.221069427770382E+02
RMS Density                                R      3.874436112342309E-09
Job Status                                 I                1
Nuclear derivative order                   I                0
External E-field                           R   N=          35
  0.00000000E+00  0.00000000E+00  0.00000000E+00  0.00000000E+00  0.00000000E+00
  0.00000000E+00  0.00000000E+00  0.00000000E+00  0.00000000E+00  0.00000000E+00
  0.00000000E+00  0.00000000E+00  0.00000000E+00  0.00000000E+00  0.00000000E+00
  0.00000000E+00  0.00000000E+00  0.00000000E+00  0.00000000E+00  0.00000000E+00
  0.00000000E+00  0.00000000E+00  0.00000000E+00  0.00000000E+00  0.00000000E+00
  0.00000000E+00  0.00000000E+00  0.00000000E+00  0.00000000E+00  0.00000000E+00
  0.00000000E+00  0.00000000E+00  0.00000000E+00  0.00000000E+00  0.00000000E+00
IOpCl                                      I                0
IROHF                                      I                0
Alpha Orbital Energies                     R   N=         210
 -1.91626073E+01 -1.91395025E+01 -1.02357801E+01 -1.02324982E+01 -1.02290514E+01
 -1.01747806E+01 -1.01674544E+01 -1.01669180E+01 -1.01660502E+01 -1.08430925E+00
 -1.05081083E+00 -8.51298571E-01 -7.60997150E-01 -7.45822330E-01 -7.04480723E-01
 -6.10834745E-01 -6.09431260E-01 -5.56811473E-01 -5.25729823E-01 -4.91679990E-01
 -4.82615795E-01 -4.60203220E-01 -4.50057250E-01 -4.29491808E-01 -4.12942542E-01
 -3.92985492E-01 -3.83691460E-01 -3.51356517E-01 -3.49205852E-01 -3.43723066E-01
 -3.26511572E-01 -2.43632749E-01 -2.12380011E-01 -5.88389742E-04  9.69514812E-03
  3.95732007E-02  4.60477256E-02  6.67803518E-02  8.66768711E-02  1.01070353E-01
  1.06327845E-01  1.12268697E-01  1.28198216E-01  1.38742671E-01  1.65909088E-01
  1.99991241E-01  2.37849020E-01  2.69826908E-01  2.81542425E-01  2.90473377E-01
  2.98771864E-01  3.29685081E-01  3.48210954E-01  3.80682714E-01  3.92487424E-01
  3.96176849E-01  4.04406615E-01  4.06631488E-01  4.23237748E-01  4.37463140E-01
  4.41941892E-01  4.54325280E-01  4.60626765E-01  4.83737861E-01  5.11138601E-01
  5.16444350E-01  5.19913223E-01  5.41833730E-01  5.42505605E-01  5.60617201E-01
  5.95835268E-01  6.02419493E-01  6.06911768E-01  6.23712325E-01  6.31644002E-01
  6.39222433E-01  6.67390114E-01  6.87381684E-01  7.24359918E-01  7.37411143E-01
  7.73595687E-01  7.91686928E-01  8.01958834E-01  8.05919478E-01  8.23264264E-01
  8.42511839E-01  8.85149944E-01  9.11340231E-01  9.20779472E-01  9.70189110E-01
  9.85432594E-01  9.87131489E-01  9.94016577E-01  9.95657490E-01  1.03017636E+00
  1.07597748E+00  1.09903932E+00  1.14310799E+00  1.18355838E+00  1.19648835E+00