 Entering Link 1 = D:\Gaussian\G16W\l1.exe PID=     45020.
  
 Copyright (c) 1988,1990,1992,1993,1995,1998,2003,2009,2016,
            Gaussian, Inc.  All Rights Reserved.
  
 This is part of the Gaussian(R) 16 program.  It is based on
 the Gaussian(R) 09 system (copyright 2009, Gaussian, Inc.),
 the Gaussian(R) 03 system (copyright 2003, Gaussian, Inc.),
 the Gaussian(R) 98 system (copyright 1998, Gaussian, Inc.),
 the Gaussian(R) 94 system (copyright 1995, Gaussian, Inc.),
 the Gaussian 92(TM) system (copyright 1992, Gaussian, Inc.),
 the Gaussian 90(TM) system (copyright 1990, Gaussian, Inc.),
 the Gaussian 88(TM) system (copyright 1988, Gaussian, Inc.),
 the Gaussian 86(TM) system (copyright 1986, Carnegie Mellon
 University), and the Gaussian 82(TM) system (copyright 1983,
 Carnegie Mellon University). Gaussian is a federally registered
 trademark of Gaussian, Inc.
  
 This software contains proprietary and confidential information,
 including trade secrets, belonging to Gaussian, Inc.
  
 This software is provided under written license and may be
 used, copied, transmitted, or stored only in accord with that
 written license.
  
 The following legend is applicable only to US Government
 contracts under FAR:
  
                    RESTRICTED RIGHTS LEGEND
  
 Use, reproduction and disclosure by the US Government is
 subject to restrictions as set forth in subparagraphs (a)
 and (c) of the Commercial Computer Software - Restricted
 Rights clause in FAR 52.227-19.
  
 Gaussian, Inc.
 340 Quinnipiac St., Bldg. 40, Wallingford CT 06492
  
  
 ---------------------------------------------------------------
 Warning -- This program may not be used in any manner that
 competes with the business of Gaussian, Inc. or will provide
 assistance to any competitor of Gaussian, Inc.  The licensee
 of this program is prohibited from giving any competitor of
 Gaussian, Inc. access to this program.  By using this program,
 the user acknowledges that Gaussian, Inc. is engaged in the
 business of creating and licensing software in the field of
 computational chemistry and represents and warrants to the
 licensee that it is not a competitor of Gaussian, Inc. and that
 it will not use this program in any manner prohibited above.
 ---------------------------------------------------------------
  

 Cite this work as:
 Gaussian 16, Revision A.03,
 M. J. Frisch, G. W. Trucks, H. B. Schlegel, G. E. Scuseria, 
 M. A. Robb, J. R. Cheeseman, G. Scalmani, V. Barone, 
 G. A. Petersson, H. Nakatsuji, X. Li, M. Caricato, A. V. Marenich, 
 J. Bloino, B. G. Janesko, R. Gomperts, B. Mennucci, H. P. Hratchian, 
 J. V. Ortiz, A. F. Izmaylov, J. L. Sonnenberg, D. Williams-Young, 
 F. Ding, F. Lipparini, F. Egidi, J. Goings, B. Peng, A. Petrone, 
 T. Henderson, D. Ranasinghe, V. G. Zakrzewski, J. Gao, N. Rega, 
 G. Zheng, W. Liang, M. Hada, M. Ehara, K. Toyota, R. Fukuda, 
 J. Hasegawa, M. Ishida, T. Nakajima, Y. Honda, O. Kitao, H. Nakai, 
 T. Vreven, K. Throssell, J. A. Montgomery, Jr., J. E. Peralta, 
 F. Ogliaro, M. J. Bearpark, J. J. Heyd, E. N. Brothers, K. N. Kudin, 
 V. N. Staroverov, T. A. Keith, R. Kobayashi, J. Normand, 
 K. Raghavachari, A. P. Rendell, J. C. Burant, S. S. Iyengar, 
 J. Tomasi, M. Cossi, J. M. Millam, M. Klene, C. Adamo, R. Cammi, 
 J. W. Ochterski, R. L. Martin, K. Morokuma, O. Farkas, 
 J. B. Foresman, and D. J. Fox, Gaussian, Inc., Wallingford CT, 2016.
 
 ******************************************
 Gaussian 16:  EM64W-G16RevA.03 17-Dec-2016
                02-Dec-2025 
 ******************************************
 %nprocshared=14
 Will use up to   14 processors via shared memory.
 %mem=58371MB
 %chk=4.chk
 ---------------------------------------------------------
 # rb3lyp/6-311g(d,p) geom=connectivity temperature=823.15
 ---------------------------------------------------------
 1/38=1,57=2,112=823150,172=1/1;
 2/12=2,17=6,18=5,40=1/2;
 3/5=4,6=6,7=101,11=2,25=1,30=1,74=-5,116=1/1,2,3;
 4//1;
 5/5=2,38=5/2;
 6/7=2,8=2,9=2,10=2,28=1/1;
 99/5=1,9=1/99;
 -------------------
 Title Card Required
 -------------------
 Symbolic Z-matrix:
 Charge =  0 Multiplicity = 1
 C                    -2.29918  -0.58849  -0.00002 
 C                    -1.83799   0.72961  -0.00002 
 C                    -0.47487   0.98913  -0.00001 
 C                     0.43865  -0.08285  -0.00001 
 C                    -0.02085  -1.39412  -0.00002 
 C                    -1.39743  -1.64505  -0.00002 
 H                    -3.3655   -0.78116  -0.00002 
 H                    -2.52191   1.56979  -0.00001 
 H                     0.67688  -2.22131  -0.00002 
 O                     1.75452   0.31562  -0.00002 
 C                     2.76399  -0.68428   0.00009 
 H                     3.71457  -0.15342   0.00013 
 H                     2.69888  -1.31342   0.8943 
 H                     2.699    -1.31348  -0.89409 
 H                    -1.75146  -2.66903  -0.00002 
 O                    -0.02067   2.27267  -0.00001 
 H                     0.94486   2.23199  0. 
 
                          Input orientation:                          
 ---------------------------------------------------------------------
 Center     Atomic      Atomic             Coordinates (Angstroms)
 Number     Number       Type             X           Y           Z
 ---------------------------------------------------------------------
      1          6           0       -2.299181   -0.588486   -0.000019
      2          6           0       -1.837988    0.729607   -0.000015
      3          6           0       -0.474871    0.989131   -0.000012
      4          6           0        0.438651   -0.082854   -0.000013
      5          6           0       -0.020852   -1.394115   -0.000018
      6          6           0       -1.397432   -1.645050   -0.000020
      7          1           0       -3.365497   -0.781155   -0.000021
      8          1           0       -2.521910    1.569785   -0.000013
      9          1           0        0.676880   -2.221309   -0.000021
     10          8           0        1.754520    0.315616   -0.000017
     11          6           0        2.763987   -0.684275    0.000087
     12          1           0        3.714572   -0.153422    0.000129
     13          1           0        2.698879   -1.313417    0.894300
     14          1           0        2.699000   -1.313484   -0.894087
     15          1           0       -1.751456   -2.669033   -0.000023
     16          8           0       -0.020671    2.272670   -0.000008
     17          1           0        0.944856    2.231990   -0.000001
 ---------------------------------------------------------------------
                    Distance matrix (angstroms):
                    1          2          3          4          5
     1  C    0.000000
     2  C    1.396448   0.000000
     3  C    2.411842   1.387602   0.000000
     4  C    2.784131   2.417267   1.408430   0.000000
     5  C    2.416572   2.795027   2.426107   1.389442   0.000000
     6  C    1.389057   2.415178   2.791062   2.410738   1.399264
     7  H    1.083583   2.148415   3.389636   3.867708   3.400349
     8  H    2.169733   1.083351   2.127799   3.390595   3.878143
     9  H    3.394562   3.877172   3.410785   2.151684   1.082164
    10  O    4.153299   3.616283   2.328907   1.374878   2.464777
    11  C    5.064074   4.814274   3.645612   2.401852   2.873883
    12  H    6.029470   5.622336   4.342449   3.276681   3.936078
    13  H    5.128931   5.055384   4.021717   2.724465   2.864132
    14  H    5.129015   5.055477   4.021798   2.724518   2.864168
    15  H    2.151436   3.399741   3.874511   3.388936   2.149513
    16  O    3.657570   2.384048   1.361532   2.399890   3.666785
    17  H    4.298705   3.162495   1.886882   2.369546   3.752496
                    6          7          8          9         10
     6  C    0.000000
     7  H    2.149324   0.000000
     8  H    3.405821   2.497711   0.000000
     9  H    2.152869   4.291253   4.960308   0.000000
    10  O    3.712009   5.236170   4.456545   2.756319   0.000000
    11  C    4.270889   6.130250   5.746433   2.592005   1.420847
    12  H    5.325180   7.107843   6.470174   3.674742   2.015391
    13  H    4.205895   6.153029   6.030695   2.390096   2.084554
    14  H    4.205954   6.153117   6.030797   2.390077   2.084555
    15  H    1.083455   2.483790   4.308268   2.469266   4.604345
    16  O    4.152590   4.529206   2.598123   4.547793   2.642227
    17  H    4.529653   5.259105   3.529445   4.461354   2.080395
                   11         12         13         14         15
    11  C    0.000000
    12  H    1.088768   0.000000
    13  H    1.095297   1.782347   0.000000
    14  H    1.095296   1.782345   1.788387   0.000000
    15  H    4.932392   6.017122   4.737403   4.737449   0.000000
    16  O    4.061754   4.453983   4.588655   4.588735   5.236033
    17  H    3.437127   3.655341   4.055402   4.055465   5.593758
                   16         17
    16  O    0.000000
    17  H    0.966384   0.000000
 Stoichiometry    C7H8O2
 Framework group  C1[X(C7H8O2)]
 Deg. of freedom    45
 Full point group                 C1      NOp   1
 Largest Abelian subgroup         C1      NOp   1
 Largest concise Abelian subgroup C1      NOp   1
                         Standard orientation:                         
 ---------------------------------------------------------------------
 Center     Atomic      Atomic             Coordinates (Angstroms)
 Number     Number       Type             X           Y           Z
 ---------------------------------------------------------------------
      1          6           0       -2.299181   -0.588486   -0.000019
      2          6           0       -1.837988    0.729607   -0.000015
      3          6           0       -0.474871    0.989131   -0.000012
      4          6           0        0.438651   -0.082854   -0.000013
      5          6           0       -0.020852   -1.394115   -0.000018
      6          6           0       -1.397432   -1.645050   -0.000020
      7          1           0       -3.365497   -0.781155   -0.000021
      8          1           0       -2.521910    1.569785   -0.000013
      9          1           0        0.676880   -2.221309   -0.000021
     10          8           0        1.754520    0.315616   -0.000017
     11          6           0        2.763987   -0.684275    0.000087
     12          1           0        3.714572   -0.153422    0.000129
     13          1           0        2.698879   -1.313417    0.894300
     14          1           0        2.699000   -1.313484   -0.894087
     15          1           0       -1.751456   -2.669033   -0.000023
     16          8           0       -0.020671    2.272670   -0.000008
     17          1           0        0.944856    2.231990   -0.000001
 ---------------------------------------------------------------------
 Rotational constants (GHZ):           2.6172540           1.5509198           0.9799306
 Standard basis: 6-311G(d,p) (5D, 7F)
 There are   219 symmetry adapted cartesian basis functions of A   symmetry.
 There are   210 symmetry adapted basis functions of A   symmetry.
   210 basis functions,   352 primitive gaussians,   219 cartesian basis functions
    33 alpha electrons       33 beta electrons
       nuclear repulsion energy       433.7432541136 Hartrees.
 NAtoms=   17 NActive=   17 NUniq=   17 SFac= 1.00D+00 NAtFMM=   60 NAOKFM=F Big=F
 Integral buffers will be    131072 words long.
 Raffenetti 2 integral format.
 Two-electron integral symmetry is turned on.
 One-electron integrals computed using PRISM.
 NBasis=   210 RedAO= T EigKep=  2.17D-04  NBF=   210
 NBsUse=   210 1.00D-06 EigRej= -1.00D+00 NBFU=   210
 ExpMin= 1.03D-01 ExpMax= 8.59D+03 ExpMxC= 1.30D+03 IAcc=3 IRadAn=         5 AccDes= 0.00D+00
 Harris functional with IExCor=  402 and IRadAn=       5 diagonalized for initial guess.
 HarFok:  IExCor=  402 AccDes= 0.00D+00 IRadAn=         5 IDoV= 1 UseB2=F ITyADJ=14
 ICtDFT=  3500011 ScaDFX=  1.000000  1.000000  1.000000  1.000000
 FoFCou: FMM=F IPFlag=           0 FMFlag=      100000 FMFlg1=           0
         NFxFlg=           0 DoJE=T BraDBF=F KetDBF=T FulRan=T
         wScrn=  0.000000 ICntrl=       500 IOpCl=  0 I1Cent=   200000004 NGrid=           0
         NMat0=    1 NMatS0=      1 NMatT0=    0 NMatD0=    1 NMtDS0=    0 NMtDT0=    0
 Petite list used in FoFCou.
 Requested convergence on RMS density matrix=1.00D-08 within 128 cycles.
 Requested convergence on MAX density matrix=1.00D-06.
 Requested convergence on             energy=1.00D-06.
 No special actions if energy rises.
 Integral accuracy reduced to 1.0D-05 until final iterations.
 Initial convergence to 1.0D-05 achieved.  Increase integral accuracy.
 SCF Done:  E(RB3LYP) =  -422.106942777     A.U. after   14 cycles
            NFock= 14  Conv=0.39D-08     -V/T= 2.0037

 **********************************************************************

            Population analysis using the SCF density.

 **********************************************************************

 Orbital symmetries:
       Occupied  (A) (A) (A) (A) (A) (A) (A) (A) (A) (A) (A) (A)
                 (A) (A) (A) (A) (A) (A) (A) (A) (A) (A) (A) (A)
                 (A) (A) (A) (A) (A) (A) (A) (A) (A)
       Virtual   (A) (A) (A) (A) (A) (A) (A) (A) (A) (A) (A) (A)
                 (A) (A) (A) (A) (A) (A) (A) (A) (A) (A) (A) (A)
                 (A) (A) (A) (A) (A) (A) (A) (A) (A) (A) (A) (A)
                 (A) (A) (A) (A) (A) (A) (A) (A) (A) (A) (A) (A)
                 (A) (A) (A) (A) (A) (A) (A) (A) (A) (A) (A) (A)
                 (A) (A) (A) (A) (A) (A) (A) (A) (A) (A) (A) (A)
                 (A) (A) (A) (A) (A) (A) (A) (A) (A) (A) (A) (A)
                 (A) (A) (A) (A) (A) (A) (A) (A) (A) (A) (A) (A)
                 (A) (A) (A) (A) (A) (A) (A) (A) (A) (A) (A) (A)
                 (A) (A) (A) (A) (A) (A) (A) (A) (A) (A) (A) (A)
                 (A) (A) (A) (A) (A) (A) (A) (A) (A) (A) (A) (A)
                 (A) (A) (A) (A) (A) (A) (A) (A) (A) (A) (A) (A)
                 (A) (A) (A) (A) (A) (A) (A) (A) (A) (A) (A) (A)
                 (A) (A) (A) (A) (A) (A) (A) (A) (A) (A) (A) (A)
                 (A) (A) (A) (A) (A) (A) (A) (A) (A)
 The electronic state is 1-A.
 Alpha  occ. eigenvalues --  -19.16261 -19.13950 -10.23578 -10.23250 -10.22905
 Alpha  occ. eigenvalues --  -10.17478 -10.16745 -10.16692 -10.16605  -1.08431
 Alpha  occ. eigenvalues --   -1.05081  -0.85130  -0.76100  -0.74582  -0.70448
 Alpha  occ. eigenvalues --   -0.61083  -0.60943  -0.55681  -0.52573  -0.49168
 Alpha  occ. eigenvalues --   -0.48262  -0.46020  -0.45006  -0.42949  -0.41294
 Alpha  occ. eigenvalues --   -0.39299  -0.38369  -0.35136  -0.34921  -0.34372
 Alpha  occ. eigenvalues --   -0.32651  -0.24363  -0.21238
 Alpha virt. eigenvalues --   -0.00059   0.00970   0.03957   0.04605   0.06678
 Alpha virt. eigenvalues --    0.08668   0.10107   0.10633   0.11227   0.12820
 Alpha virt. eigenvalues --    0.13874   0.16591   0.19999   0.23785   0.26983
 Alpha virt. eigenvalues --    0.28154   0.29047   0.29877   0.32969   0.34821
 Alpha virt. eigenvalues --    0.38068   0.39249   0.39618   0.40441   0.40663
 Alpha virt. eigenvalues --    0.42324   0.43746   0.44194   0.45433   0.46063
 Alpha virt. eigenvalues --    0.48374   0.51114   0.51644   0.51991   0.54183
 Alpha virt. eigenvalues --    0.54251   0.56062   0.59584   0.60242   0.60691
 Alpha virt. eigenvalues --    0.62371   0.63164   0.63922   0.66739   0.68738
 Alpha virt. eigenvalues --    0.72436   0.73741   0.77360   0.79169   0.80196
 Alpha virt. eigenvalues --    0.80592   0.82326   0.84251   0.88515   0.91134
 Alpha virt. eigenvalues --    0.92078   0.97019   0.98543   0.98713   0.99402
 Alpha virt. eigenvalues --    0.99566   1.03018   1.07598   1.09904   1.14311
 Alpha virt. eigenvalues --    1.18356   1.19649   1.21474   1.25174   1.30601
 Alpha virt. eigenvalues --    1.32233   1.40619   1.41221   1.42100   1.45158
 Alpha virt. eigenvalues --    1.46032   1.47618   1.51328   1.54016   1.55243
 Alpha virt. eigenvalues --    1.55720   1.55916   1.57639   1.57734   1.62557
 Alpha virt. eigenvalues --    1.64932   1.65190   1.67074   1.68988   1.70993
 Alpha virt. eigenvalues --    1.73656   1.74269   1.81496   1.85381   1.85824
 Alpha virt. eigenvalues --    1.88338   1.90525   1.90533   1.91143   1.91411
 Alpha virt. eigenvalues --    1.96356   1.98141   2.02802   2.03579   2.04149
 Alpha virt. eigenvalues --    2.06443   2.09628   2.12852   2.23689   2.23884
 Alpha virt. eigenvalues --    2.25633   2.30283   2.32921   2.32933   2.39342
 Alpha virt. eigenvalues --    2.40049   2.43219   2.45537   2.50785   2.51974
 Alpha virt. eigenvalues --    2.52437   2.55182   2.58991   2.61260   2.63734
 Alpha virt. eigenvalues --    2.66496   2.66555   2.66725   2.70260   2.74502
 Alpha virt. eigenvalues --    2.81482   2.81680   2.82374   2.83588   2.86831
 Alpha virt. eigenvalues --    2.95072   3.00120   3.02097   3.05021   3.05458
 Alpha virt. eigenvalues --    3.09818   3.11895   3.16631   3.23657   3.30213
 Alpha virt. eigenvalues --    3.33517   3.38010   3.42272   3.48097   3.51872
 Alpha virt. eigenvalues --    3.61112   3.62848   3.74395   3.78488   3.85520
 Alpha virt. eigenvalues --    3.99155   4.01938   4.07544   4.08176   4.13440
 Alpha virt. eigenvalues --    4.17652   4.79775   4.84408   4.90658   5.31033
 Alpha virt. eigenvalues --    5.34724   5.67496   5.77450  23.45193  23.85054
 Alpha virt. eigenvalues --   23.89971  23.91434  24.06138  24.09560  24.18589
 Alpha virt. eigenvalues --   49.88377  49.93793
          Condensed to atoms (all electrons):
               1          2          3          4          5          6
     1  C    4.842544   0.523147  -0.049481  -0.052683  -0.050907   0.534574
     2  C    0.523147   4.871105   0.534693  -0.042482  -0.050153  -0.056634
     3  C   -0.049481   0.534693   4.863596   0.289107   0.010001  -0.046127
     4  C   -0.052683  -0.042482   0.289107   5.202998   0.334116  -0.007138
     5  C   -0.050907  -0.050153   0.010001   0.334116   5.105584   0.452262
     6  C    0.534574  -0.056634  -0.046127  -0.007138   0.452262   4.876405
     7  H    0.417424  -0.045146   0.009945  -0.001682   0.009903  -0.045665
     8  H   -0.041515   0.403244  -0.047947   0.016244  -0.002559   0.008919
     9  H    0.006502   0.000218   0.002402  -0.047180   0.412220  -0.025980
    10  O   -0.000064   0.002601  -0.068495   0.347075  -0.074913   0.005299
    11  C    0.000052  -0.000251   0.006722  -0.071766  -0.012043  -0.000273
    12  H   -0.000001   0.000027  -0.000198   0.004668   0.000821   0.000029
    13  H   -0.000024  -0.000059  -0.000316  -0.004770   0.004224  -0.000442
    14  H   -0.000024  -0.000059  -0.000317  -0.004772   0.004224  -0.000442
    15  H   -0.040715   0.007564  -0.000329   0.007457  -0.040812   0.413414
    16  O    0.004200  -0.060176   0.397093  -0.093511   0.007117  -0.000578
    17  H   -0.000281   0.005305  -0.047198  -0.021874   0.003596  -0.000509
               7          8          9         10         11         12
     1  C    0.417424  -0.041515   0.006502  -0.000064   0.000052  -0.000001
     2  C   -0.045146   0.403244   0.000218   0.002601  -0.000251   0.000027
     3  C    0.009945  -0.047947   0.002402  -0.068495   0.006722  -0.000198
     4  C   -0.001682   0.016244  -0.047180   0.347075  -0.071766   0.004668
     5  C    0.009903  -0.002559   0.412220  -0.074913  -0.012043   0.000821
     6  C   -0.045665   0.008919  -0.025980   0.005299  -0.000273   0.000029
     7  H    0.582573  -0.009479  -0.000387   0.000007  -0.000002   0.000000
     8  H   -0.009479   0.568897   0.000058  -0.000135   0.000025  -0.000001
     9  H   -0.000387   0.000058   0.557241  -0.006094   0.004687  -0.000023
    10  O    0.000007  -0.000135  -0.006094   7.992096   0.276581  -0.022835
    11  C   -0.000002   0.000025   0.004687   0.276581   4.716393   0.402253
    12  H    0.000000  -0.000001  -0.000023  -0.022835   0.402253   0.541253
    13  H    0.000001   0.000000   0.000196  -0.033742   0.400583  -0.026953
    14  H    0.000001   0.000000   0.000196  -0.033741   0.400585  -0.026955
    15  H   -0.008356  -0.000307  -0.007515  -0.000105  -0.000038   0.000000
    16  O   -0.000118   0.004098  -0.000055  -0.005692  -0.000214   0.000024
    17  H    0.000038  -0.000839   0.000022   0.026778  -0.001926  -0.000489
              13         14         15         16         17
     1  C   -0.000024  -0.000024  -0.040715   0.004200  -0.000281
     2  C   -0.000059  -0.000059   0.007564  -0.060176   0.005305
     3  C   -0.000316  -0.000317  -0.000329   0.397093  -0.047198
     4  C   -0.004770  -0.004772   0.007457  -0.093511  -0.021874
     5  C    0.004224   0.004224  -0.040812   0.007117   0.003596
     6  C   -0.000442  -0.000442   0.413414  -0.000578  -0.000509
     7  H    0.000001   0.000001  -0.008356  -0.000118   0.000038
     8  H    0.000000   0.000000  -0.000307   0.004098  -0.000839
     9  H    0.000196   0.000196  -0.007515  -0.000055   0.000022
    10  O   -0.033742  -0.033741  -0.000105  -0.005692   0.026778
    11  C    0.400583   0.400585  -0.000038  -0.000214  -0.001926
    12  H   -0.026953  -0.026955   0.000000   0.000024  -0.000489
    13  H    0.595450  -0.050118   0.000015  -0.000050   0.000325
    14  H   -0.050118   0.595453   0.000015  -0.000050   0.000325
    15  H    0.000015   0.000015   0.580243   0.000005   0.000002
    16  O   -0.000050  -0.000050   0.000005   7.775190   0.333210
    17  H    0.000325   0.000325   0.000002   0.333210   0.449518
 Mulliken charges:
               1
     1  C   -0.092748
     2  C   -0.092943
     3  C    0.146849
     4  C    0.146194
     5  C   -0.112681
     6  C   -0.107115
     7  H    0.090944
     8  H    0.101298
     9  H    0.103491
    10  O   -0.404622
    11  C   -0.121369
    12  H    0.128379
    13  H    0.115679
    14  H    0.115679
    15  H    0.089464
    16  O   -0.360493
    17  H    0.253995
 Sum of Mulliken charges =   0.00000
 Mulliken charges with hydrogens summed into heavy atoms:
               1
     1  C   -0.001804
     2  C    0.008354
     3  C    0.146849
     4  C    0.146194
     5  C   -0.009190
     6  C   -0.017651
    10  O   -0.404622
    11  C    0.238368
    16  O   -0.106498
 Electronic spatial extent (au):  <R**2>=           1171.2192
 Charge=              0.0000 electrons
 Dipole moment (field-independent basis, Debye):
    X=              2.2079    Y=             -1.6873    Z=              0.0001  Tot=              2.7788
 Quadrupole moment (field-independent basis, Debye-Ang):
   XX=            -43.3269   YY=            -52.3757   ZZ=            -56.2040
   XY=             -0.4053   XZ=              0.0004   YZ=              0.0000
 Traceless Quadrupole moment (field-independent basis, Debye-Ang):
   XX=              7.3087   YY=             -1.7402   ZZ=             -5.5684
   XY=             -0.4053   XZ=              0.0004   YZ=              0.0000
 Octapole moment (field-independent basis, Debye-Ang**2):
  XXX=             21.4977  YYY=             -2.3257  ZZZ=              0.0003  XYY=              9.9588
  XXY=              1.2955  XXZ=              0.0009  XZZ=              8.6177  YZZ=              5.1573
  YYZ=              0.0000  XYZ=              0.0000
 Hexadecapole moment (field-independent basis, Debye-Ang**3):
 XXXX=           -829.0043 YYYY=           -540.1395 ZZZZ=            -65.6553 XXXY=             -7.7188
 XXXZ=             -0.0040 YYYX=             22.4524 YYYZ=              0.0014 ZZZX=             -0.0072
 ZZZY=              0.0005 XXYY=           -222.1244 XXZZ=           -177.9663 YYZZ=           -106.5097
 XXYZ=              0.0004 YYXZ=             -0.0023 ZZXY=             -2.8906
 N-N= 4.337432541136D+02 E-N=-1.853340663879D+03  KE= 4.205401613932D+02
 1|1|UNPC-PC-20250526LCFF|SP|RB3LYP|6-311G(d,p)|C7H8O2|ADMINISTRATOR|02
 -Dec-2025|0||# rb3lyp/6-311g(d,p) geom=connectivity temperature=823.15
 ||Title Card Required||0,1|C,0,-2.299181,-0.588486,-0.000019|C,0,-1.83
 7988,0.729607,-0.000015|C,0,-0.474871,0.989131,-0.000012|C,0,0.438651,
 -0.082854,-0.000013|C,0,-0.020852,-1.394115,-0.000018|C,0,-1.397432,-1
 .64505,-0.00002|H,0,-3.365497,-0.781155,-0.000021|H,0,-2.52191,1.56978
 5,-0.000013|H,0,0.67688,-2.221309,-0.000021|O,0,1.75452,0.315616,-0.00
 0017|C,0,2.763987,-0.684275,0.000087|H,0,3.714572,-0.153422,0.000129|H
 ,0,2.698879,-1.313417,0.8943|H,0,2.699,-1.313484,-0.894087|H,0,-1.7514
 56,-2.669033,-0.000023|O,0,-0.020671,2.27267,-0.000008|H,0,0.944856,2.
 23199,-0.000001||Version=EM64W-G16RevA.03|State=1-A|HF=-422.1069428|RM
 SD=3.874e-009|Dipole=0.8686503,-0.66384,0.0000532|Quadrupole=5.4338041
 ,-1.2937987,-4.1400054,-0.3013032,0.000274,0.0000141|PG=C01 [X(C7H8O2)
 ]||@


 NOTHING RESEMBLES A NEW PHENOMENON AS MUCH AS A MISTAKE.

                               -- ENRICO FERMI (?)
 Job cpu time:       0 days  0 hours  0 minutes 15.0 seconds.
 Elapsed time:       0 days  0 hours  0 minutes 15.1 seconds.
 File lengths (MBytes):  RWF=     30 Int=      0 D2E=      0 Chk=      4 Scr=      1
 Normal termination of Gaussian 16 at Tue Dec 02 12:12:40 2025.
