 Generated by Multiwfn (http://sobereva.com/multiwfn)
GAUSSIAN             67 MOL ORBITALS    284 PRIMITIVES       17 NUCLEI
  C    1    (CENTRE  1)  -4.34482237 -1.11207724 -0.00003599  CHARGE =  6.0
  C    2    (CENTRE  2)  -3.47329398  1.37875757 -0.00002843  CHARGE =  6.0
  C    3    (CENTRE  3)  -0.89737619  1.86918692 -0.00002276  CHARGE =  6.0
  C    4    (CENTRE  4)   0.82893026 -0.15657109 -0.00002465  CHARGE =  6.0
  C    5    (CENTRE  5)  -0.03940449 -2.63449528 -0.00003410  CHARGE =  6.0
  C    6    (CENTRE  6)  -2.64076367 -3.10869378 -0.00003788  CHARGE =  6.0
  H    7    (CENTRE  7)  -6.35986756 -1.47616894 -0.00003977  CHARGE =  1.0
  H    8    (CENTRE  8)  -4.76571930  2.96646384 -0.00002465  CHARGE =  1.0
  H    9    (CENTRE  9)   1.27911794 -4.19766535 -0.00003977  CHARGE =  1.0
  O   10    (CENTRE 10)   3.31556226  0.59642815 -0.00003221  CHARGE =  8.0
  C   11    (CENTRE 11)   5.22317848 -1.29309193  0.00016432  CHARGE =  6.0
  H   12    (CENTRE 12)   7.01952376 -0.28992510  0.00024369  CHARGE =  1.0
  H   13    (CENTRE 13)   5.10014223 -2.48199801  1.68998199  CHARGE =  1.0
  H   14    (CENTRE 14)   5.10037088 -2.48212462 -1.68957965  CHARGE =  1.0
  H   15    (CENTRE 15)  -3.30977201 -5.04374123 -0.00004355  CHARGE =  1.0
  O   16    (CENTRE 16)  -0.03906265  4.29472413 -0.00001520  CHARGE =  8.0
  H   17    (CENTRE 17)   1.78551894  4.21785012 -0.00000198  CHARGE =  1.0
CENTRE ASSIGNMENTS    1  1  1  1  1  1  1  1  1  1  1  1  1  1  1  1  1  1  1  1
CENTRE ASSIGNMENTS    1  1  1  1  1  1  1  1  2  2  2  2  2  2  2  2  2  2  2  2
CENTRE ASSIGNMENTS    2  2  2  2  2  2  2  2  2  2  2  2  2  2  2  2  3  3  3  3
CENTRE ASSIGNMENTS    3  3  3  3  3  3  3  3  3  3  3  3  3  3  3  3  3  3  3  3
CENTRE ASSIGNMENTS    3  3  3  3  4  4  4  4  4  4  4  4  4  4  4  4  4  4  4  4
CENTRE ASSIGNMENTS    4  4  4  4  4  4  4  4  4  4  4  4  5  5  5  5  5  5  5  5
CENTRE ASSIGNMENTS    5  5  5  5  5  5  5  5  5  5  5  5  5  5  5  5  5  5  5  5
CENTRE ASSIGNMENTS    6  6  6  6  6  6  6  6  6  6  6  6  6  6  6  6  6  6  6  6
CENTRE ASSIGNMENTS    6  6  6  6  6  6  6  6  7  7  7  7  8  8  8  8  9  9  9  9
CENTRE ASSIGNMENTS   10 10 10 10 10 10 10 10 10 10 10 10 10 10 10 10 10 10 10 10
CENTRE ASSIGNMENTS   10 10 10 10 10 10 10 10 11 11 11 11 11 11 11 11 11 11 11 11
CENTRE ASSIGNMENTS   11 11 11 11 11 11 11 11 11 11 11 11 11 11 11 11 12 12 12 12
CENTRE ASSIGNMENTS   13 13 13 13 14 14 14 14 15 15 15 15 16 16 16 16 16 16 16 16
CENTRE ASSIGNMENTS   16 16 16 16 16 16 16 16 16 16 16 16 16 16 16 16 16 16 16 16
CENTRE ASSIGNMENTS   17 17 17 17
TYPE ASSIGNMENTS      1  1  1  1  1  1  1  1  1  2  2  2  3  3  3  4  4  4  1  2
TYPE ASSIGNMENTS      3  4  5  6  7  8  9 10  1  1  1  1  1  1  1  1  1  2  2  2
TYPE ASSIGNMENTS      3  3  3  4  4  4  1  2  3  4  5  6  7  8  9 10  1  1  1  1
TYPE ASSIGNMENTS      1  1  1  1  1  2  2  2  3  3  3  4  4  4  1  2  3  4  5  6
TYPE ASSIGNMENTS      7  8  9 10  1  1  1  1  1  1  1  1  1  2  2  2  3  3  3  4
TYPE ASSIGNMENTS      4  4  1  2  3  4  5  6  7  8  9 10  1  1  1  1  1  1  1  1
TYPE ASSIGNMENTS      1  2  2  2  3  3  3  4  4  4  1  2  3  4  5  6  7  8  9 10
TYPE ASSIGNMENTS      1  1  1  1  1  1  1  1  1  2  2  2  3  3  3  4  4  4  1  2
TYPE ASSIGNMENTS      3  4  5  6  7  8  9 10  1  1  1  1  1  1  1  1  1  1  1  1
TYPE ASSIGNMENTS      1  1  1  1  1  1  1  1  1  2  2  2  3  3  3  4  4  4  1  2
TYPE ASSIGNMENTS      3  4  5  6  7  8  9 10  1  1  1  1  1  1  1  1  1  2  2  2
TYPE ASSIGNMENTS      3  3  3  4  4  4  1  2  3  4  5  6  7  8  9 10  1  1  1  1
TYPE ASSIGNMENTS      1  1  1  1  1  1  1  1  1  1  1  1  1  1  1  1  1  1  1  1
TYPE ASSIGNMENTS      1  2  2  2  3  3  3  4  4  4  1  2  3  4  5  6  7  8  9 10
TYPE ASSIGNMENTS      1  1  1  1
EXPONENTS  0.3047525D+04 0.4573695D+03 0.1039487D+03 0.2921016D+02 0.9286663D+01
EXPONENTS  0.3163927D+01 0.7868272D+01 0.1881289D+01 0.5442493D+00 0.7868272D+01
EXPONENTS  0.1881289D+01 0.5442493D+00 0.7868272D+01 0.1881289D+01 0.5442493D+00
EXPONENTS  0.7868272D+01 0.1881289D+01 0.5442493D+00 0.1687145D+00 0.1687145D+00
EXPONENTS  0.1687145D+00 0.1687145D+00 0.8000000D+00 0.8000000D+00 0.8000000D+00
EXPONENTS  0.8000000D+00 0.8000000D+00 0.8000000D+00 0.3047525D+04 0.4573695D+03
EXPONENTS  0.1039487D+03 0.2921016D+02 0.9286663D+01 0.3163927D+01 0.7868272D+01
EXPONENTS  0.1881289D+01 0.5442493D+00 0.7868272D+01 0.1881289D+01 0.5442493D+00
EXPONENTS  0.7868272D+01 0.1881289D+01 0.5442493D+00 0.7868272D+01 0.1881289D+01
EXPONENTS  0.5442493D+00 0.1687145D+00 0.1687145D+00 0.1687145D+00 0.1687145D+00
EXPONENTS  0.8000000D+00 0.8000000D+00 0.8000000D+00 0.8000000D+00 0.8000000D+00
EXPONENTS  0.8000000D+00 0.3047525D+04 0.4573695D+03 0.1039487D+03 0.2921016D+02
EXPONENTS  0.9286663D+01 0.3163927D+01 0.7868272D+01 0.1881289D+01 0.5442493D+00
EXPONENTS  0.7868272D+01 0.1881289D+01 0.5442493D+00 0.7868272D+01 0.1881289D+01
EXPONENTS  0.5442493D+00 0.7868272D+01 0.1881289D+01 0.5442493D+00 0.1687145D+00
EXPONENTS  0.1687145D+00 0.1687145D+00 0.1687145D+00 0.8000000D+00 0.8000000D+00
EXPONENTS  0.8000000D+00 0.8000000D+00 0.8000000D+00 0.8000000D+00 0.3047525D+04
EXPONENTS  0.4573695D+03 0.1039487D+03 0.2921016D+02 0.9286663D+01 0.3163927D+01
EXPONENTS  0.7868272D+01 0.1881289D+01 0.5442493D+00 0.7868272D+01 0.1881289D+01
EXPONENTS  0.5442493D+00 0.7868272D+01 0.1881289D+01 0.5442493D+00 0.7868272D+01
EXPONENTS  0.1881289D+01 0.5442493D+00 0.1687145D+00 0.1687145D+00 0.1687145D+00
EXPONENTS  0.1687145D+00 0.8000000D+00 0.8000000D+00 0.8000000D+00 0.8000000D+00
EXPONENTS  0.8000000D+00 0.8000000D+00 0.3047525D+04 0.4573695D+03 0.1039487D+03
EXPONENTS  0.2921016D+02 0.9286663D+01 0.3163927D+01 0.7868272D+01 0.1881289D+01
EXPONENTS  0.5442493D+00 0.7868272D+01 0.1881289D+01 0.5442493D+00 0.7868272D+01
EXPONENTS  0.1881289D+01 0.5442493D+00 0.7868272D+01 0.1881289D+01 0.5442493D+00
EXPONENTS  0.1687145D+00 0.1687145D+00 0.1687145D+00 0.1687145D+00 0.8000000D+00
EXPONENTS  0.8000000D+00 0.8000000D+00 0.8000000D+00 0.8000000D+00 0.8000000D+00
EXPONENTS  0.3047525D+04 0.4573695D+03 0.1039487D+03 0.2921016D+02 0.9286663D+01
EXPONENTS  0.3163927D+01 0.7868272D+01 0.1881289D+01 0.5442493D+00 0.7868272D+01
EXPONENTS  0.1881289D+01 0.5442493D+00 0.7868272D+01 0.1881289D+01 0.5442493D+00
EXPONENTS  0.7868272D+01 0.1881289D+01 0.5442493D+00 0.1687145D+00 0.1687145D+00
EXPONENTS  0.1687145D+00 0.1687145D+00 0.8000000D+00 0.8000000D+00 0.8000000D+00
EXPONENTS  0.8000000D+00 0.8000000D+00 0.8000000D+00 0.1873114D+02 0.2825394D+01
EXPONENTS  0.6401217D+00 0.1612778D+00 0.1873114D+02 0.2825394D+01 0.6401217D+00
EXPONENTS  0.1612778D+00 0.1873114D+02 0.2825394D+01 0.6401217D+00 0.1612778D+00
EXPONENTS  0.5484672D+04 0.8252349D+03 0.1880470D+03 0.5296450D+02 0.1689757D+02
EXPONENTS  0.5799635D+01 0.1553962D+02 0.3599934D+01 0.1013762D+01 0.1553962D+02
EXPONENTS  0.3599934D+01 0.1013762D+01 0.1553962D+02 0.3599934D+01 0.1013762D+01
EXPONENTS  0.1553962D+02 0.3599934D+01 0.1013762D+01 0.2700058D+00 0.2700058D+00
EXPONENTS  0.2700058D+00 0.2700058D+00 0.8000000D+00 0.8000000D+00 0.8000000D+00
EXPONENTS  0.8000000D+00 0.8000000D+00 0.8000000D+00 0.3047525D+04 0.4573695D+03
EXPONENTS  0.1039487D+03 0.2921016D+02 0.9286663D+01 0.3163927D+01 0.7868272D+01
EXPONENTS  0.1881289D+01 0.5442493D+00 0.7868272D+01 0.1881289D+01 0.5442493D+00
EXPONENTS  0.7868272D+01 0.1881289D+01 0.5442493D+00 0.7868272D+01 0.1881289D+01
EXPONENTS  0.5442493D+00 0.1687145D+00 0.1687145D+00 0.1687145D+00 0.1687145D+00
EXPONENTS  0.8000000D+00 0.8000000D+00 0.8000000D+00 0.8000000D+00 0.8000000D+00
EXPONENTS  0.8000000D+00 0.1873114D+02 0.2825394D+01 0.6401217D+00 0.1612778D+00
EXPONENTS  0.1873114D+02 0.2825394D+01 0.6401217D+00 0.1612778D+00 0.1873114D+02
EXPONENTS  0.2825394D+01 0.6401217D+00 0.1612778D+00 0.1873114D+02 0.2825394D+01
EXPONENTS  0.6401217D+00 0.1612778D+00 0.5484672D+04 0.8252349D+03 0.1880470D+03
EXPONENTS  0.5296450D+02 0.1689757D+02 0.5799635D+01 0.1553962D+02 0.3599934D+01
EXPONENTS  0.1013762D+01 0.1553962D+02 0.3599934D+01 0.1013762D+01 0.1553962D+02
EXPONENTS  0.3599934D+01 0.1013762D+01 0.1553962D+02 0.3599934D+01 0.1013762D+01
EXPONENTS  0.2700058D+00 0.2700058D+00 0.2700058D+00 0.2700058D+00 0.8000000D+00
EXPONENTS  0.8000000D+00 0.8000000D+00 0.8000000D+00 0.8000000D+00 0.8000000D+00
EXPONENTS  0.1873114D+02 0.2825394D+01 0.6401217D+00 0.1612778D+00
MO    1     MO 0.0        OCC NO =    1.0000000  ORB. ENERGY =  -19.001086
  0.65929726D-05  0.12162747D-04  0.19634445D-04  0.25558213D-04  0.21808870D-04
  0.75300787D-05 -0.27218106D-04 -0.12544800D-04  0.35176929D-04  0.12646438D-04
  0.96964865D-05  0.48392263D-05  0.18774403D-04  0.14395022D-04  0.71841246D-05
  0.10071207D-08  0.77219631D-09  0.38538008D-09 -0.21824526D-03 -0.95845095D-04
 -0.37689921D-04 -0.78278107D-09  0.10375691D-04 -0.24708474D-04  0.30685130D-04
  0.21523742D-04 -0.57957766D-09 -0.56275521D-09  0.47309971D-05  0.87277659D-05
  0.14089320D-04  0.18340109D-04  0.15649648D-04  0.54034474D-05 -0.11360468D-04
 -0.52360292D-05  0.14682372D-04  0.73134251D-04  0.56074705D-04  0.27985208D-04
 -0.16744527D-04 -0.12838642D-04 -0.64073819D-05  0.64805554D-09  0.49688788D-09
  0.24798188D-09  0.22979738D-03  0.39321767D-04 -0.10244680D-03  0.60247199D-09
  0.20288756D-04  0.22194969D-04  0.31904714D-04  0.10939720D-04  0.18172572D-08
  0.65698006D-09  0.13070776D-04  0.24113029D-04  0.38925905D-04  0.50669962D-04
  0.43236771D-04  0.14928618D-04 -0.68729968D-04 -0.31677580D-04  0.88827240D-04
  0.46610202D-04  0.35737746D-04  0.17835640D-04  0.74496469D-04  0.57119167D-04
  0.28506468D-04  0.19842468D-08  0.15213946D-08  0.75928254D-09 -0.96283407D-04
  0.15021986D-03  0.33681823D-03 -0.18597409D-08 -0.54127732D-04  0.74201657D-04
  0.32761817D-04  0.76101573D-04 -0.30760916D-09  0.25873364D-08 -0.24769208D-04
 -0.45694352D-04 -0.73764852D-04 -0.96019920D-04 -0.81933972D-04 -0.28289832D-04
 -0.31969136D-04 -0.14734545D-04  0.41317203D-04  0.52597040D-03  0.40328074D-03
  0.20126535D-03  0.24461424D-03  0.18755469D-03  0.93602933D-04 -0.10989577D-07
 -0.84261107D-08 -0.42052198D-08  0.50081699D-05 -0.67601755D-03 -0.34377906D-03
  0.47900023D-08  0.66328721D-04  0.13553947D-04 -0.89612490D-04  0.19145055D-03
 -0.31904081D-08 -0.58432045D-08  0.11069719D-04  0.20421470D-04  0.32966585D-04
  0.42912698D-04  0.36617483D-04  0.12643137D-04 -0.77429913D-04 -0.35687376D-04
  0.10007113D-03 -0.80602267D-04 -0.61800706D-04 -0.30842884D-04 -0.63209406D-04
 -0.48464963D-04 -0.24187413D-04 -0.77079815D-09 -0.59099913D-09 -0.29494999D-09
 -0.59610825D-03  0.23534987D-03 -0.25033516D-03 -0.26332806D-08 -0.66006676D-04
 -0.88985872D-04  0.48486302D-04 -0.42574186D-05  0.65117936D-09 -0.73810567D-08
 -0.33273557D-05 -0.61383216D-05 -0.99091543D-05 -0.12898775D-04 -0.11006548D-04
 -0.38002964D-05  0.21468147D-04  0.98946492D-05 -0.27745629D-04  0.89660470D-04
  0.68745961D-04  0.34309053D-04  0.18226091D-04  0.13974610D-04  0.69743100D-05
  0.85697255D-09  0.65707219D-09  0.32792508D-09  0.33749114D-03  0.84363557D-04
  0.11418245D-03  0.76823937D-09  0.53369029D-04 -0.56820077D-05 -0.35884611D-06
  0.30660269D-06  0.10472848D-08 -0.46279594D-09 -0.35475071D-05 -0.60172435D-05
 -0.68504191D-05 -0.28106083D-04  0.56482648D-05  0.95805262D-05  0.10907090D-04
  0.20209462D-04 -0.15762289D-04 -0.26735826D-04 -0.30437793D-04 -0.11869289D-03
  0.82556838D+00  0.15194865D+01  0.24588160D+01  0.32321825D+01  0.27722241D+01
  0.94787052D+00 -0.15701973D-01 -0.70061899D-02  0.20689373D-01 -0.19939715D-03
 -0.15362476D-03 -0.67449542D-04 -0.27810356D-02 -0.21426380D-02 -0.94073349D-03
  0.22044663D-06  0.16984225D-06  0.74569895D-07  0.41510985D-02 -0.34851222D-03
 -0.22501615D-04  0.16136614D-08 -0.95208090D-02 -0.95811362D-02 -0.94418187D-02
  0.18721158D-03 -0.23191187D-07  0.28448975D-07  0.69096848D-05  0.12747019D-04
  0.20577642D-04  0.26785975D-04  0.22856521D-04  0.78918074D-05 -0.74611125D-04
 -0.34388199D-04  0.96428100D-04 -0.34788619D-03 -0.26673707D-03 -0.13312049D-03
  0.46553424D-03  0.35694213D-03  0.17813914D-03 -0.47052113D-07 -0.36076576D-07
 -0.18004740D-07 -0.30296239D-03  0.57273678D-04 -0.10667528D-03  0.89034416D-08
  0.23624217D-03  0.30103442D-03  0.23926225D-04 -0.49583257D-03  0.46594236D-07
 -0.65596350D-07  0.25312086D-04  0.42934089D-04  0.48878943D-04  0.25359333D-04
  0.12234046D-04  0.20751258D-04  0.23624574D-04  0.10283798D-04  0.12235582D-04
  0.20753864D-04  0.23627540D-04  0.10281856D-04  0.34243829D-05  0.58084015D-05
  0.66126598D-05  0.26817050D-04  0.27517183D-04  0.50646306D-04  0.81955283D-04
  0.10773251D-03  0.92401551D-04  0.31593659D-04 -0.10395564D-03 -0.46384805D-04
  0.13697495D-03 -0.13421460D-03 -0.10340511D-03 -0.45400415D-04 -0.21688792D-03
 -0.16710045D-03 -0.73366097D-04 -0.70501430D-08 -0.54317551D-08 -0.23848331D-08
 -0.30334842D-03  0.15868362D-03  0.18116763D-03  0.32833426D-08  0.16696080D-03
 -0.52854812D-05  0.11781907D-03 -0.57980897D-04  0.88880856D-09 -0.31998026D-08
 -0.60049105D-05 -0.10185465D-04 -0.11595792D-04 -0.15708172D-03
MO    2     MO 0.0        OCC NO =    1.0000000  ORB. ENERGY =  -18.978113
  0.99894069D-06  0.18428505D-05  0.29749321D-05  0.38724777D-05  0.33043922D-05
  0.11409272D-05  0.59088678D-05  0.27233918D-05 -0.76366748D-05  0.50644184D-04
  0.38830748D-04  0.19379265D-04  0.65173370D-04  0.49970806D-04  0.24938935D-04
  0.14025018D-09  0.10753494D-09  0.53667474D-10  0.34805865D-03  0.11861687D-03
  0.36421989D-04  0.39039496D-09  0.86161428D-06  0.49110591D-04  0.23714451D-04
 -0.19687520D-04  0.46553139D-10 -0.12699790D-09  0.75704330D-05  0.13965971D-04
  0.22545407D-04  0.29347421D-04  0.25042208D-04  0.86464725D-05 -0.66501944D-04
 -0.30650685D-04  0.85947721D-04 -0.10978543D-04 -0.84176505D-05 -0.42009976D-05
 -0.82000734D-05 -0.62872961D-05 -0.31378014D-05 -0.24296194D-09 -0.18628781D-09
 -0.92970672D-10 -0.39388676D-03 -0.17902258D-03  0.29815334D-03  0.50683672D-09
 -0.88034253D-04 -0.54392135D-04  0.34473099D-04  0.27724521D-04 -0.49644676D-09
 -0.18972647D-09 -0.35392386D-04 -0.65292041D-04 -0.10540160D-03 -0.13720156D-03
 -0.11707434D-03 -0.40422957D-04 -0.22371365D-04 -0.10310942D-04  0.28912957D-04
  0.14060232D-03  0.10780494D-03  0.53802222D-04  0.54865713D-03  0.42067549D-03
  0.20994655D-03  0.16911763D-08  0.12966867D-08  0.64713757D-09  0.21770026D-03
 -0.16463640D-03 -0.88874969D-03 -0.23822240D-08 -0.67012614D-04 -0.30392894D-04
 -0.13088716D-03 -0.10407940D-03 -0.45044423D-11  0.16554353D-10  0.27001151D-04
  0.49811851D-04  0.80411772D-04  0.10467223D-03  0.89317007D-04  0.30839016D-04
 -0.12336674D-03 -0.56859618D-04  0.15944030D-03  0.22780757D-04  0.17466840D-04
  0.87171771D-05 -0.48594444D-04 -0.37259137D-04 -0.18594921D-04 -0.29641863D-08
 -0.22727501D-08 -0.11342616D-08 -0.70390465D-03  0.59351610D-03  0.95329312D-04
  0.10229688D-08  0.58741317D-04 -0.63107150D-04  0.82711391D-04  0.10701261D-03
 -0.25605652D-08 -0.22487548D-08 -0.45933918D-05 -0.84739109D-05 -0.13679520D-04
 -0.17806670D-04 -0.15194464D-04 -0.52462832D-05  0.25944231D-04  0.11957672D-04
 -0.33530561D-04  0.38944659D-04  0.29860295D-04  0.14902380D-04  0.98800066D-04
  0.75753624D-04  0.37806368D-04 -0.12895464D-08 -0.98874240D-09 -0.49345176D-09
  0.49204817D-03 -0.17644716D-03  0.20296390D-03  0.12422579D-08 -0.15266110D-05
  0.45435661D-04 -0.21209726D-05  0.24590271D-05  0.17773858D-09  0.49299384D-09
  0.93091548D-05  0.17173573D-04  0.27723471D-04  0.36087722D-04  0.30793719D-04
  0.10632331D-04 -0.38599189D-04 -0.17790331D-04  0.49885945D-04 -0.30327626D-04
 -0.23253300D-04 -0.11605026D-04  0.22631383D-04  0.17352309D-04  0.86600182D-05
  0.46205418D-09  0.35427384D-09  0.17680748D-09 -0.33599622D-03 -0.65064686D-04
 -0.14423239D-03 -0.75890554D-09 -0.28216968D-04  0.11484240D-04  0.39099303D-04
  0.19679120D-04 -0.66445489D-09 -0.14153018D-09  0.24752188D-05  0.41984395D-05
  0.47797750D-05  0.18959443D-04 -0.11335433D-04 -0.19227041D-04 -0.21889306D-04
 -0.14611903D-03  0.11415744D-04  0.19363262D-04  0.22044389D-04  0.86411524D-04
  0.42443100D-04  0.78117961D-04  0.12640961D-03  0.16616897D-03  0.14252216D-03
  0.48730746D-04 -0.15936566D-03 -0.71108648D-04  0.20998479D-03 -0.14429776D-03
 -0.11117365D-03 -0.48811219D-04 -0.10785957D-03 -0.83099986D-04 -0.36485370D-04
 -0.53012324D-08 -0.40843138D-08 -0.17932337D-08 -0.46923722D-03  0.17544875D-03
  0.10343075D-03  0.20250466D-08  0.83882386D-04  0.17202418D-03  0.16440318D-03
 -0.71090565D-04  0.11649564D-08  0.73449630D-09  0.10472742D-04  0.19320163D-04
  0.31188734D-04  0.40598465D-04  0.34642744D-04  0.11961307D-04 -0.32664784D-04
 -0.15055169D-04  0.42216265D-04 -0.61790769D-04 -0.47377242D-04 -0.23644564D-04
  0.19048412D-04  0.14605114D-04  0.72889754D-05 -0.51732761D-08 -0.39665400D-08
 -0.19795815D-08 -0.51692041D-04  0.31673799D-04 -0.96188258D-05  0.10568397D-08
  0.33889192D-04  0.16683461D-04  0.41541327D-04  0.57387901D-05  0.46742622D-08
  0.15382038D-08 -0.64261408D-06 -0.10899951D-05 -0.12409209D-05 -0.72329015D-05
  0.48777322D-05  0.82735570D-05  0.94191522D-05 -0.54335485D-05  0.48778127D-05
  0.82736936D-05  0.94193078D-05 -0.54343558D-05 -0.54042873D-05 -0.91666941D-05
 -0.10435957D-04 -0.43553805D-04  0.82560735D+00  0.15195582D+01  0.24589321D+01
  0.32323350D+01  0.27723550D+01  0.94791525D+00 -0.15744319D-01 -0.70250843D-02
  0.20745168D-01  0.21176520D-02  0.16315367D-02  0.71633248D-03 -0.22282208D-02
 -0.17167240D-02 -0.75373430D-03  0.18617944D-07  0.14344122D-07  0.62978423D-08
  0.40404139D-02 -0.20633563D-03 -0.35752159D-03 -0.15454709D-08 -0.93193133D-02
 -0.92528941D-02 -0.92800106D-02  0.16528143D-03 -0.74146098D-09  0.86626516D-09
  0.84778201D-04  0.14379987D-03  0.16371107D-03 -0.20461793D-03
MO    3     MO 0.0        OCC NO =    1.0000000  ORB. ENERGY =  -10.097601
 -0.38010554D-05 -0.70122050D-05 -0.11319873D-04 -0.14735111D-04 -0.12573497D-04
 -0.43413264D-05  0.13033250D-04  0.60070128D-05 -0.16844291D-04 -0.15656645D-04
 -0.12004522D-04 -0.59910980D-05  0.71414167D-04  0.54755854D-04  0.27327009D-04
  0.14800953D-08  0.11348432D-08  0.56636630D-09  0.14128444D-03  0.32909289D-04
  0.32959827D-04 -0.80717959D-09 -0.13591103D-04  0.13508394D-04 -0.15776059D-04
  0.20377082D-04 -0.61027131D-09 -0.70381685D-09  0.56694795D-05  0.10459083D-04
  0.16884202D-04  0.21978215D-04  0.18754051D-04  0.64753230D-05 -0.23104513D-04
 -0.10648849D-04  0.29860484D-04 -0.89966536D-04 -0.68980634D-04 -0.34426171D-04
 -0.47758471D-04 -0.36618167D-04 -0.18275032D-04 -0.32687315D-09 -0.25062560D-09
 -0.12507974D-09 -0.25685539D-03 -0.81146899D-04  0.15732223D-03  0.20577708D-08
 -0.26051497D-04  0.15351834D-04  0.10325393D-04  0.32066559D-04  0.30132209D-08
  0.10230981D-08 -0.31998965D-04 -0.59031843D-04 -0.95295698D-04 -0.12404668D-03
 -0.10584926D-03 -0.36547206D-04  0.10129801D-03  0.46688162D-04 -0.13091848D-03
  0.10953112D-03  0.83981515D-04  0.41912662D-04 -0.13967999D-04 -0.10709776D-04
 -0.53449286D-05  0.46250233D-08  0.35461745D-08  0.17697896D-08  0.72005595D-03
  0.33230752D-04 -0.42156674D-03 -0.64567748D-08  0.63249145D-05 -0.27411615D-04
 -0.85327103D-04 -0.56091399D-04 -0.24704173D-08  0.24672561D-08 -0.95198479D-05
 -0.17562261D-04 -0.28350934D-04 -0.36904492D-04 -0.31490670D-04 -0.10872972D-04
  0.41191981D-04  0.18985347D-04 -0.53236894D-04 -0.14642099D-03 -0.11226633D-03
 -0.56028767D-04  0.16868020D-03  0.12933328D-03  0.64546370D-04 -0.12648414D-07
 -0.96980012D-08 -0.48399823D-08 -0.27517585D-03  0.50390190D-03 -0.36576708D-03
  0.10885456D-07  0.20313472D-03  0.28986308D-04 -0.41727648D-04  0.14339672D-03
  0.17491972D-07 -0.13855615D-07  0.72956765D-06  0.13459099D-05  0.21727158D-05
  0.28282304D-05  0.24133341D-05  0.83326629D-06 -0.26098690D-04 -0.12028862D-04
  0.33730186D-04 -0.13068341D-03 -0.10019975D-03 -0.50006699D-04 -0.45158731D-04
 -0.34624851D-04 -0.17280227D-04  0.84606201D-09  0.64870669D-09  0.32375010D-09
 -0.22374148D-03 -0.52103642D-04  0.98431574D-05 -0.33409189D-08 -0.93902303D-04
  0.21403734D-04 -0.14072859D-04 -0.13092052D-03  0.48227224D-08 -0.10148099D-07
 -0.13317053D-04 -0.24567363D-04 -0.39659341D-04 -0.51624678D-04 -0.44051431D-04
 -0.15209901D-04  0.44774809D-04  0.20636669D-04 -0.57867373D-04  0.17596191D-04
  0.13491643D-04  0.67332754D-05 -0.45899466D-04 -0.35192799D-04 -0.17563673D-04
  0.14957675D-08  0.11468597D-08  0.57236335D-09  0.56680275D-04  0.47971822D-04
  0.40963652D-04  0.83385554D-09  0.37070201D-04 -0.16964033D-04 -0.61070088D-04
  0.33418447D-04  0.25921804D-08  0.25987119D-09 -0.19176454D-05 -0.32526896D-05
 -0.37030722D-05  0.72784064D-05 -0.11896151D-04 -0.20178124D-04 -0.22972081D-04
 -0.47835012D-04  0.10248702D-04  0.17383739D-04  0.19790772D-04  0.49845888D-04
 -0.57731215D-04 -0.10625625D-03 -0.17194268D-03 -0.22602346D-03 -0.19385901D-03
 -0.66283687D-04 -0.26742996D-04 -0.11932673D-04  0.35237342D-04 -0.17045680D-03
 -0.13132777D-03 -0.57659966D-04 -0.17944843D-03 -0.13825534D-03 -0.60701543D-04
 -0.10728767D-07 -0.82659367D-08 -0.36291914D-08  0.19117663D-03  0.97477345D-04
  0.22488389D-03 -0.47244360D-08 -0.42986452D-03 -0.43260854D-03  0.11911544D-03
  0.56548061D-03 -0.88258987D-07  0.97926758D-07  0.53256300D+00  0.98247474D+00
  0.15860189D+01  0.20645253D+01  0.17616632D+01  0.60825996D+00 -0.19684583D-01
 -0.90726064D-02  0.25440535D-01 -0.70598998D-03 -0.54130834D-03 -0.27015080D-03
  0.58234651D-03  0.44650637D-03  0.22283797D-03 -0.81424710D-07 -0.62431303D-07
 -0.31157596D-07 -0.26618141D-02  0.80773216D-04  0.65283219D-04  0.11698812D-08
 -0.99661005D-02 -0.99646913D-02 -0.10106009D-01 -0.18399133D-03  0.36482549D-07
 -0.19043818D-07 -0.48239435D-04 -0.81823213D-04 -0.93152835D-04  0.41292667D-03
 -0.10676610D-04 -0.18109551D-04 -0.20617083D-04  0.48752806D-03 -0.10679113D-04
 -0.18113797D-04 -0.20621918D-04  0.48753166D-03  0.21241222D-05  0.36029133D-05
  0.41017895D-05  0.27863980D-04 -0.43742287D-04 -0.80509160D-04 -0.13027902D-03
 -0.17125541D-03 -0.14688477D-03 -0.50222399D-04  0.14429284D-03  0.64383183D-04
 -0.19012440D-03  0.49106810D-04  0.37834150D-04  0.16611230D-04 -0.14940039D-05
 -0.11510495D-05 -0.50537273D-06 -0.55474895D-08 -0.42740416D-08 -0.18765345D-08
  0.38939574D-03 -0.38119563D-04 -0.59694173D-04  0.26445980D-08 -0.13610151D-03
 -0.16575549D-03 -0.16780874D-03  0.35557625D-04 -0.17013639D-08 -0.33510191D-08
 -0.30531718D-06 -0.51787572D-06 -0.58958321D-06 -0.38697440D-04
MO    4     MO 0.0        OCC NO =    1.0000000  ORB. ENERGY =  -10.016924
  0.41246065D-04  0.76090936D-04  0.12283436D-03  0.15989384D-03  0.13643771D-03
  0.47108662D-04 -0.80398356D-04 -0.37055529D-04  0.10390757D-03 -0.87824653D-04
 -0.67338374D-04 -0.33606568D-04 -0.15069541D-03 -0.11554368D-03 -0.57664396D-04
 -0.35507150D-09 -0.27224631D-09 -0.13586999D-09 -0.14118589D-02 -0.57344072D-03
 -0.16397851D-03 -0.13732154D-08  0.56330104D-04  0.32085323D-04  0.43558538D-04
  0.69747213D-04 -0.13659916D-09  0.98134374D-09  0.16356015D-02  0.30173654D-02
  0.48709634D-02  0.63405470D-02  0.54104003D-02  0.18680812D-02  0.28051490D-03
  0.12928906D-03 -0.36254002D-03 -0.32255400D-03 -0.24731395D-03 -0.12342699D-03
  0.87410085D-04  0.67020509D-04  0.33447931D-04  0.85925750D-09  0.65882415D-09
  0.32879943D-09  0.23724581D-02  0.84491445D-03 -0.82525248D-03 -0.14555167D-08
 -0.34492350D-03 -0.32373986D-03 -0.34970428D-03 -0.30855497D-03 -0.79937278D-09
 -0.50340567D-09  0.53213187D+00  0.98167939D+00  0.15847349D+01  0.20628540D+01
  0.17602370D+01  0.60776755D+00 -0.19791012D-01 -0.91216595D-02  0.25578085D-01
  0.50467263D-03  0.38695096D-03  0.19311565D-03  0.13176879D-02  0.10103195D-02
  0.50422026D-03 -0.54291885D-08 -0.41627574D-08 -0.20775077D-08 -0.38213714D-02
  0.57859949D-03  0.17676748D-02  0.70739667D-08 -0.99854249D-02 -0.93709068D-02
 -0.10403224D-01  0.58125489D-03  0.53246458D-08  0.36010806D-08  0.21201816D-01
  0.39113211D-01  0.63140850D-01  0.82190626D-01  0.70133410D-01  0.24215381D-01
 -0.42713102D-03 -0.19686430D-03  0.55202804D-03  0.33892487D-03  0.25986609D-03
  0.12969139D-03 -0.25713634D-03 -0.19715584D-03 -0.98394582D-04  0.56759974D-08
  0.43519948D-08  0.21719504D-08  0.23749465D-02 -0.13093168D-02 -0.51816415D-05
 -0.31675977D-08 -0.71486970D-03 -0.96246708D-03 -0.76321414D-03 -0.12021568D-04
  0.34308319D-08  0.20443718D-08  0.81381230D-04  0.15013248D-03  0.24236037D-03
  0.31548119D-03  0.26920067D-03  0.92948522D-04 -0.58018962D-04 -0.26740887D-04
  0.74984238D-04  0.59821670D-06  0.45867462D-06  0.22891078D-06 -0.13810113D-03
 -0.10588719D-03 -0.52845128D-04  0.37394943D-08  0.28672071D-08  0.14309373D-08
 -0.13009490D-02  0.42559877D-03 -0.51243099D-03 -0.27779335D-08  0.38385559D-04
  0.67366785D-04  0.19908341D-04  0.55178395D-04 -0.45337680D-11  0.44653593D-09
 -0.68837371D-04 -0.12699151D-03 -0.20500367D-03 -0.26685387D-03 -0.22770689D-03
 -0.78621716D-04  0.14258033D-03  0.65715142D-04 -0.18427212D-03 -0.20251687D-04
 -0.15527709D-04 -0.77494150D-05 -0.59027284D-04 -0.45258378D-04 -0.22587102D-04
 -0.12252968D-08 -0.93947990D-09 -0.46886631D-09  0.11178715D-02  0.18824782D-03
  0.53009678D-03  0.21869213D-08  0.24792400D-04 -0.21627841D-04 -0.14036477D-03
 -0.46620449D-04  0.15012280D-08  0.51950155D-09 -0.16623327D-04 -0.28196309D-04
 -0.32100501D-04 -0.12051040D-03  0.42638549D-04  0.72323050D-04  0.82337236D-04
  0.35338104D-03 -0.21284807D-04 -0.36103061D-04 -0.41102058D-04 -0.19627749D-03
 -0.60407380D-04 -0.11118183D-03 -0.17991318D-03 -0.23650091D-03 -0.20284546D-03
 -0.69356308D-04  0.22970653D-03  0.10249461D-03 -0.30266795D-03  0.59117561D-04
  0.45546894D-04  0.19997540D-04 -0.18437920D-04 -0.14205424D-04 -0.62369462D-05
  0.89704389D-08  0.69112396D-08  0.30344064D-08  0.67168550D-03 -0.18451718D-03
 -0.55094490D-04 -0.44918163D-08 -0.13581270D-03 -0.21357820D-03 -0.22260532D-03
  0.18906608D-04 -0.21104914D-08  0.71132144D-08 -0.10538781D-04 -0.19441993D-04
 -0.31385406D-04 -0.40854473D-04 -0.34861196D-04 -0.12036733D-04  0.63199739D-04
  0.29128702D-04 -0.81679920D-04  0.67747061D-04  0.51944149D-04  0.25923771D-04
 -0.14351809D-04 -0.11004057D-04 -0.54917957D-05  0.55396796D-08  0.42474750D-08
  0.21197877D-08  0.11584384D-03 -0.93044143D-04 -0.58112084D-05 -0.24368360D-08
  0.13384865D-04 -0.76959618D-04 -0.40961231D-04 -0.27013356D-04 -0.98691830D-09
  0.48580691D-08  0.41191805D-05  0.69869097D-05  0.79543497D-05  0.35086964D-04
 -0.12852230D-04 -0.21799814D-04 -0.24818318D-04  0.29065179D-06 -0.12853482D-04
 -0.21801939D-04 -0.24820737D-04  0.29563493D-06  0.22431070D-04  0.38047340D-04
  0.43315552D-04  0.16401837D-03  0.13442370D-03  0.24741137D-03  0.40035830D-03
  0.52628219D-03  0.45138918D-03  0.15433763D-03 -0.74142507D-03 -0.33082242D-03
  0.97692304D-03 -0.14270519D-04 -0.10994666D-04 -0.48272505D-05  0.10142989D-03
  0.78146261D-04  0.34310418D-04  0.10938796D-08  0.84277525D-09  0.37002373D-09
 -0.18047975D-02  0.28297233D-03  0.78143260D-03  0.18761166D-08  0.66727506D-03
 -0.33179025D-03  0.10513118D-02 -0.89189585D-03 -0.44556828D-08 -0.87062870D-08
  0.44592552D-04  0.75637408D-04  0.86110515D-04 -0.33118579D-04
MO    5     MO 0.0        OCC NO =    1.0000000  ORB. ENERGY =  -10.010609
 -0.70071379D-04 -0.12926801D-03 -0.20867865D-03 -0.27163760D-03 -0.23178886D-03
 -0.80031122D-04  0.15642709D-03  0.72097102D-04 -0.20216780D-03 -0.51737731D-04
 -0.39669211D-04 -0.19797716D-04 -0.25422402D-04 -0.19492286D-04 -0.97280166D-05
 -0.56615454D-09 -0.43409139D-09 -0.21664203D-09  0.12253902D-02  0.56594702D-03
  0.15540808D-03  0.12650420D-08 -0.34963497D-04  0.38560296D-04 -0.15624655D-03
 -0.33148491D-04  0.48004926D-09  0.16432711D-08 -0.73570383D-04 -0.13572299D-03
 -0.21909899D-03 -0.28520179D-03 -0.24336320D-03 -0.84027465D-04 -0.56616405D-04
 -0.26094449D-04  0.73171559D-04 -0.11654549D-03 -0.89359692D-04 -0.44596749D-04
  0.21722695D-04  0.16655585D-04  0.83123041D-05 -0.94083937D-09 -0.72137596D-09
 -0.36001716D-09 -0.13742841D-02 -0.35978250D-03  0.53345625D-03  0.58295492D-09
  0.15058093D-03  0.17222614D-04  0.26371193D-04  0.47577907D-04 -0.37253382D-09
 -0.41862624D-09 -0.21504592D-01 -0.39671774D-01 -0.64042543D-01 -0.83364363D-01
 -0.71134962D-01 -0.24561193D-01  0.11195677D-02  0.51600773D-03 -0.14469395D-02
 -0.24835871D-03 -0.19042571D-03 -0.95035774D-04  0.18248883D-03  0.13992086D-03
  0.69830315D-04 -0.10300839D-08 -0.78980299D-09 -0.39416705D-09  0.21116577D-02
 -0.25682488D-03 -0.12651335D-02 -0.20825085D-08 -0.17464719D-03  0.45398362D-04
  0.10207503D-03  0.88167989D-04 -0.28524575D-09 -0.18399552D-08  0.53210061D+00
  0.98162173D+00  0.15846418D+01  0.20627328D+01  0.17601337D+01  0.60773185D+00
 -0.19949979D-01 -0.91949271D-02  0.25783535D-01  0.15121977D-02  0.11594573D-02
  0.57865044D-03  0.31090870D-03  0.23838507D-03  0.11897086D-03 -0.44187481D-08
 -0.33880158D-08 -0.16908573D-08 -0.38368645D-02  0.17404054D-02  0.60406827D-03
  0.18998295D-08 -0.94797010D-02 -0.10103443D-01 -0.10460866D-01  0.57165134D-03
 -0.10189168D-07 -0.55463424D-08  0.19474632D-02  0.35926894D-02  0.57997147D-02
  0.75495052D-02  0.64420065D-02  0.22242700D-02  0.29001584D-03  0.13366803D-03
 -0.37481912D-03  0.78954799D-04  0.60537532D-04  0.30212471D-04 -0.31534689D-03
 -0.24178800D-03 -0.12066916D-03  0.15734075D-08  0.12063891D-08  0.60207270D-09
  0.26651851D-02 -0.65720307D-03  0.10342227D-02  0.23378331D-08 -0.32495569D-03
 -0.36421765D-03 -0.37172718D-03 -0.26333337D-03 -0.25995664D-08  0.17140707D-09
  0.56796592D-04  0.10477862D-03  0.16914518D-03  0.22017677D-03  0.18787724D-03
  0.64869496D-04 -0.10026700D-03 -0.46212970D-04  0.12958599D-03 -0.17368555D-03
 -0.13317107D-03 -0.66461695D-04 -0.44246852D-04 -0.33925679D-04 -0.16931292D-04
 -0.20890661D-08 -0.16017634D-08 -0.79939220D-09 -0.14573091D-02 -0.28861340D-03
 -0.58557088D-03 -0.92759423D-09  0.21528693D-04  0.57645669D-04  0.66105733D-04
  0.56658732D-04  0.58002608D-09  0.19660207D-08  0.20518759D-04  0.34803699D-04
  0.39622781D-04  0.16365409D-03 -0.26771540D-04 -0.45409599D-04 -0.51697223D-04