 Entering Link 1 = D:\Gaussian\G16W\l1.exe PID=     40872.
  
 Copyright (c) 1988,1990,1992,1993,1995,1998,2003,2009,2016,
            Gaussian, Inc.  All Rights Reserved.
  
 This is part of the Gaussian(R) 16 program.  It is based on
 the Gaussian(R) 09 system (copyright 2009, Gaussian, Inc.),
 the Gaussian(R) 03 system (copyright 2003, Gaussian, Inc.),
 the Gaussian(R) 98 system (copyright 1998, Gaussian, Inc.),
 the Gaussian(R) 94 system (copyright 1995, Gaussian, Inc.),
 the Gaussian 92(TM) system (copyright 1992, Gaussian, Inc.),
 the Gaussian 90(TM) system (copyright 1990, Gaussian, Inc.),
 the Gaussian 88(TM) system (copyright 1988, Gaussian, Inc.),
 the Gaussian 86(TM) system (copyright 1986, Carnegie Mellon
 University), and the Gaussian 82(TM) system (copyright 1983,
 Carnegie Mellon University). Gaussian is a federally registered
 trademark of Gaussian, Inc.
  
 This software contains proprietary and confidential information,
 including trade secrets, belonging to Gaussian, Inc.
  
 This software is provided under written license and may be
 used, copied, transmitted, or stored only in accord with that
 written license.
  
 The following legend is applicable only to US Government
 contracts under FAR:
  
                    RESTRICTED RIGHTS LEGEND
  
 Use, reproduction and disclosure by the US Government is
 subject to restrictions as set forth in subparagraphs (a)
 and (c) of the Commercial Computer Software - Restricted
 Rights clause in FAR 52.227-19.
  
 Gaussian, Inc.
 340 Quinnipiac St., Bldg. 40, Wallingford CT 06492
  
  
 ---------------------------------------------------------------
 Warning -- This program may not be used in any manner that
 competes with the business of Gaussian, Inc. or will provide
 assistance to any competitor of Gaussian, Inc.  The licensee
 of this program is prohibited from giving any competitor of
 Gaussian, Inc. access to this program.  By using this program,
 the user acknowledges that Gaussian, Inc. is engaged in the
 business of creating and licensing software in the field of
 computational chemistry and represents and warrants to the
 licensee that it is not a competitor of Gaussian, Inc. and that
 it will not use this program in any manner prohibited above.
 ---------------------------------------------------------------
  

 Cite this work as:
 Gaussian 16, Revision A.03,
 M. J. Frisch, G. W. Trucks, H. B. Schlegel, G. E. Scuseria, 
 M. A. Robb, J. R. Cheeseman, G. Scalmani, V. Barone, 
 G. A. Petersson, H. Nakatsuji, X. Li, M. Caricato, A. V. Marenich, 
 J. Bloino, B. G. Janesko, R. Gomperts, B. Mennucci, H. P. Hratchian, 
 J. V. Ortiz, A. F. Izmaylov, J. L. Sonnenberg, D. Williams-Young, 
 F. Ding, F. Lipparini, F. Egidi, J. Goings, B. Peng, A. Petrone, 
 T. Henderson, D. Ranasinghe, V. G. Zakrzewski, J. Gao, N. Rega, 
 G. Zheng, W. Liang, M. Hada, M. Ehara, K. Toyota, R. Fukuda, 
 J. Hasegawa, M. Ishida, T. Nakajima, Y. Honda, O. Kitao, H. Nakai, 
 T. Vreven, K. Throssell, J. A. Montgomery, Jr., J. E. Peralta, 
 F. Ogliaro, M. J. Bearpark, J. J. Heyd, E. N. Brothers, K. N. Kudin, 
 V. N. Staroverov, T. A. Keith, R. Kobayashi, J. Normand, 
 K. Raghavachari, A. P. Rendell, J. C. Burant, S. S. Iyengar, 
 J. Tomasi, M. Cossi, J. M. Millam, M. Klene, C. Adamo, R. Cammi, 
 J. W. Ochterski, R. L. Martin, K. Morokuma, O. Farkas, 
 J. B. Foresman, and D. J. Fox, Gaussian, Inc., Wallingford CT, 2016.
 
 ******************************************
 Gaussian 16:  EM64W-G16RevA.03 17-Dec-2016
                03-Dec-2025 
 ******************************************
 %nprocs=   4
 Will use up to    4 processors via shared memory.
 ------------------------------------
 #P B3LYP/6-31G* SCF=conver=7 out=wfn
 ------------------------------------
 1/38=1,172=1/1;
 2/12=2,17=6,18=5,40=1/2;
 3/5=1,6=6,7=1,11=2,25=1,30=1,74=-5/1,2,3;
 4//1;
 5/5=2,6=7,38=5/2;
 6/7=2,8=2,9=2,10=2,28=1/1;
 99/5=1,6=100,9=1/99;
 Leave Link    1 at Wed Dec 03 10:29:17 2025, MaxMem=           0 cpu:               0.0 elap:               0.1
 (Enter D:\Gaussian\G16W\l101.exe)
 ----------------------------------------------------
 Generated by Multiwfn (http://sobereva.com/multiwfn)
 ----------------------------------------------------
 Symbolic Z-matrix:
 Charge = -1 Multiplicity = 2
 C                    -2.29918  -0.58849  -0.00002 
 C                    -1.83799   0.72961  -0.00002 
 C                    -0.47487   0.98913  -0.00001 
 C                     0.43865  -0.08285  -0.00001 
 C                    -0.02085  -1.39412  -0.00002 
 C                    -1.39743  -1.64505  -0.00002 
 H                    -3.3655   -0.78116  -0.00002 
 H                    -2.52191   1.56979  -0.00001 
 H                     0.67688  -2.22131  -0.00002 
 O                     1.75452   0.31562  -0.00002 
 C                     2.76399  -0.68428   0.00009 
 H                     3.71457  -0.15342   0.00013 
 H                     2.69888  -1.31342   0.8943 
 H                     2.699    -1.31348  -0.89409 
 H                    -1.75146  -2.66903  -0.00002 
 O                    -0.02067   2.27267  -0.00001 
 H                     0.94486   2.23199  0. 
 
 ITRead=  0  0  0  0  0  0  0  0  0  0  0  0  0  0  0  0  0
 MicOpt= -1 -1 -1 -1 -1 -1 -1 -1 -1 -1 -1 -1 -1 -1 -1 -1 -1
 NAtoms=     17 NQM=       17 NQMF=       0 NMMI=      0 NMMIF=      0
                NMic=       0 NMicF=      0.
                    Isotopes and Nuclear Properties:
 (Nuclear quadrupole moments (NQMom) in fm**2, nuclear magnetic moments (NMagM)
  in nuclear magnetons)

  Atom         1           2           3           4           5           6           7           8           9          10
 IAtWgt=          12          12          12          12          12          12           1           1           1          16
 AtmWgt=  12.0000000  12.0000000  12.0000000  12.0000000  12.0000000  12.0000000   1.0078250   1.0078250   1.0078250  15.9949146
 NucSpn=           0           0           0           0           0           0           1           1           1           0
 AtZEff=   0.0000000   0.0000000   0.0000000   0.0000000   0.0000000   0.0000000   0.0000000   0.0000000   0.0000000   0.0000000
 NQMom=    0.0000000   0.0000000   0.0000000   0.0000000   0.0000000   0.0000000   0.0000000   0.0000000   0.0000000   0.0000000
 NMagM=    0.0000000   0.0000000   0.0000000   0.0000000   0.0000000   0.0000000   2.7928460   2.7928460   2.7928460   0.0000000
 AtZNuc=   6.0000000   6.0000000   6.0000000   6.0000000   6.0000000   6.0000000   1.0000000   1.0000000   1.0000000   8.0000000

  Atom        11          12          13          14          15          16          17
 IAtWgt=          12           1           1           1           1          16           1
 AtmWgt=  12.0000000   1.0078250   1.0078250   1.0078250   1.0078250  15.9949146   1.0078250
 NucSpn=           0           1           1           1           1           0           1
 AtZEff=   0.0000000   0.0000000   0.0000000   0.0000000   0.0000000   0.0000000   0.0000000
 NQMom=    0.0000000   0.0000000   0.0000000   0.0000000   0.0000000   0.0000000   0.0000000
 NMagM=    0.0000000   2.7928460   2.7928460   2.7928460   2.7928460   0.0000000   2.7928460
 AtZNuc=   6.0000000   1.0000000   1.0000000   1.0000000   1.0000000   8.0000000   1.0000000
 Leave Link  101 at Wed Dec 03 10:29:17 2025, MaxMem=   104857600 cpu:               0.0 elap:               0.1
 (Enter D:\Gaussian\G16W\l202.exe)
                          Input orientation:                          
 ---------------------------------------------------------------------
 Center     Atomic      Atomic             Coordinates (Angstroms)
 Number     Number       Type             X           Y           Z
 ---------------------------------------------------------------------
      1          6           0       -2.299181   -0.588486   -0.000019
      2          6           0       -1.837988    0.729607   -0.000015
      3          6           0       -0.474871    0.989131   -0.000012
      4          6           0        0.438651   -0.082854   -0.000013
      5          6           0       -0.020852   -1.394115   -0.000018
      6          6           0       -1.397432   -1.645050   -0.000020
      7          1           0       -3.365497   -0.781155   -0.000021
      8          1           0       -2.521910    1.569785   -0.000013
      9          1           0        0.676880   -2.221309   -0.000021
     10          8           0        1.754520    0.315616   -0.000017
     11          6           0        2.763987   -0.684275    0.000087
     12          1           0        3.714572   -0.153422    0.000129
     13          1           0        2.698879   -1.313417    0.894300
     14          1           0        2.699000   -1.313484   -0.894087
     15          1           0       -1.751456   -2.669033   -0.000023
     16          8           0       -0.020671    2.272670   -0.000008
     17          1           0        0.944856    2.231990   -0.000001
 ---------------------------------------------------------------------
                    Distance matrix (angstroms):
                    1          2          3          4          5
     1  C    0.000000
     2  C    1.396448   0.000000
     3  C    2.411842   1.387602   0.000000
     4  C    2.784131   2.417267   1.408430   0.000000
     5  C    2.416572   2.795027   2.426107   1.389442   0.000000
     6  C    1.389057   2.415178   2.791062   2.410738   1.399264
     7  H    1.083583   2.148415   3.389636   3.867708   3.400349
     8  H    2.169733   1.083351   2.127799   3.390595   3.878143
     9  H    3.394562   3.877172   3.410785   2.151684   1.082164
    10  O    4.153299   3.616283   2.328907   1.374878   2.464777
    11  C    5.064074   4.814274   3.645612   2.401852   2.873883
    12  H    6.029470   5.622336   4.342449   3.276681   3.936078
    13  H    5.128931   5.055384   4.021717   2.724465   2.864132
    14  H    5.129015   5.055477   4.021798   2.724518   2.864168
    15  H    2.151436   3.399741   3.874511   3.388936   2.149513
    16  O    3.657570   2.384048   1.361532   2.399890   3.666785
    17  H    4.298705   3.162495   1.886882   2.369546   3.752496
                    6          7          8          9         10
     6  C    0.000000
     7  H    2.149324   0.000000
     8  H    3.405821   2.497711   0.000000
     9  H    2.152869   4.291253   4.960308   0.000000
    10  O    3.712009   5.236170   4.456545   2.756319   0.000000
    11  C    4.270889   6.130250   5.746433   2.592005   1.420847
    12  H    5.325180   7.107843   6.470174   3.674742   2.015391
    13  H    4.205895   6.153029   6.030695   2.390096   2.084554
    14  H    4.205954   6.153117   6.030797   2.390077   2.084555
    15  H    1.083455   2.483790   4.308268   2.469266   4.604345
    16  O    4.152590   4.529206   2.598123   4.547793   2.642227
    17  H    4.529653   5.259105   3.529445   4.461354   2.080395
                   11         12         13         14         15
    11  C    0.000000
    12  H    1.088768   0.000000
    13  H    1.095297   1.782347   0.000000
    14  H    1.095296   1.782345   1.788387   0.000000
    15  H    4.932392   6.017122   4.737403   4.737449   0.000000
    16  O    4.061754   4.453983   4.588655   4.588735   5.236033
    17  H    3.437127   3.655341   4.055402   4.055465   5.593758
                   16         17
    16  O    0.000000
    17  H    0.966384   0.000000
 Stoichiometry    C7H8O2(1-,2)
 Framework group  C1[X(C7H8O2)]
 Deg. of freedom    45
 Full point group                 C1      NOp   1
 Largest Abelian subgroup         C1      NOp   1
 Largest concise Abelian subgroup C1      NOp   1
                         Standard orientation:                         
 ---------------------------------------------------------------------
 Center     Atomic      Atomic             Coordinates (Angstroms)
 Number     Number       Type             X           Y           Z
 ---------------------------------------------------------------------
      1          6           0       -2.299181   -0.588486   -0.000019
      2          6           0       -1.837988    0.729607   -0.000015
      3          6           0       -0.474871    0.989131   -0.000012
      4          6           0        0.438651   -0.082854   -0.000013
      5          6           0       -0.020852   -1.394115   -0.000018
      6          6           0       -1.397432   -1.645050   -0.000020
      7          1           0       -3.365497   -0.781155   -0.000021
      8          1           0       -2.521910    1.569785   -0.000013
      9          1           0        0.676880   -2.221309   -0.000021
     10          8           0        1.754520    0.315616   -0.000017
     11          6           0        2.763987   -0.684275    0.000087
     12          1           0        3.714572   -0.153422    0.000129
     13          1           0        2.698879   -1.313417    0.894300
     14          1           0        2.699000   -1.313484   -0.894087
     15          1           0       -1.751456   -2.669033   -0.000023
     16          8           0       -0.020671    2.272670   -0.000008
     17          1           0        0.944856    2.231990   -0.000001
 ---------------------------------------------------------------------
 Rotational constants (GHZ):           2.6172540           1.5509198           0.9799306
 Leave Link  202 at Wed Dec 03 10:29:17 2025, MaxMem=   104857600 cpu:               0.0 elap:               0.1
 (Enter D:\Gaussian\G16W\l301.exe)
 Standard basis: 6-31G(d) (6D, 7F)
 Ernie: Thresh=  0.10000D-02 Tol=  0.10000D-05 Strict=F.
 There are   151 symmetry adapted cartesian basis functions of A   symmetry.
 There are   151 symmetry adapted basis functions of A   symmetry.
   151 basis functions,   284 primitive gaussians,   151 cartesian basis functions
    34 alpha electrons       33 beta electrons
       nuclear repulsion energy       433.7432541136 Hartrees.
 IExCor=  402 DFT=T Ex+Corr=B3LYP ExCW=0 ScaHFX=  0.200000
 ScaDFX=  0.800000  0.720000  1.000000  0.810000 ScalE2=  1.000000  1.000000
 IRadAn=      5 IRanWt=     -1 IRanGd=            0 ICorTp=0 IEmpDi=  4
 NAtoms=   17 NActive=   17 NUniq=   17 SFac= 1.00D+00 NAtFMM=   60 NAOKFM=F Big=F
 Integral buffers will be    131072 words long.
 Raffenetti 2 integral format.
 Two-electron integral symmetry is turned on.
 Leave Link  301 at Wed Dec 03 10:29:17 2025, MaxMem=   104857600 cpu:               0.0 elap:               0.1
 (Enter D:\Gaussian\G16W\l302.exe)
 NPDir=0 NMtPBC=     1 NCelOv=     1 NCel=       1 NClECP=     1 NCelD=      1
         NCelK=      1 NCelE2=     1 NClLst=     1 CellRange=     0.0.
 One-electron integrals computed using PRISM.
 One-electron integral symmetry used in STVInt
 NBasis=   151 RedAO= T EigKep=  4.13D-04  NBF=   151
 NBsUse=   151 1.00D-06 EigRej= -1.00D+00 NBFU=   151
 Precomputing XC quadrature grid using
 IXCGrd= 4 IRadAn=           5 IRanWt=          -1 IRanGd=           0 AccXCQ= 0.00D+00.
 Generated NRdTot=       0 NPtTot=           0 NUsed=           0 NTot=          32
 NSgBfM=   151   151   151   151   151 MxSgAt=    17 MxSgA2=    17.
 Leave Link  302 at Wed Dec 03 10:29:17 2025, MaxMem=   104857600 cpu:               0.0 elap:               0.2
 (Enter D:\Gaussian\G16W\l303.exe)
 DipDrv:  MaxL=1.
 Leave Link  303 at Wed Dec 03 10:29:17 2025, MaxMem=   104857600 cpu:               0.0 elap:               0.1
 (Enter D:\Gaussian\G16W\l401.exe)
 ExpMin= 1.61D-01 ExpMax= 5.48D+03 ExpMxC= 8.25D+02 IAcc=3 IRadAn=         5 AccDes= 0.00D+00
 Harris functional with IExCor=  402 and IRadAn=       5 diagonalized for initial guess.
 HarFok:  IExCor=  402 AccDes= 0.00D+00 IRadAn=         5 IDoV= 1 UseB2=F ITyADJ=14
 ICtDFT=  3500011 ScaDFX=  1.000000  1.000000  1.000000  1.000000
 FoFCou: FMM=F IPFlag=           0 FMFlag=      100000 FMFlg1=           0
         NFxFlg=           0 DoJE=T BraDBF=F KetDBF=T FulRan=T
         wScrn=  0.000000 ICntrl=       500 IOpCl=  0 I1Cent=   200000004 NGrid=           0
         NMat0=    1 NMatS0=      1 NMatT0=    0 NMatD0=    1 NMtDS0=    0 NMtDT0=    0
 Petite list used in FoFCou.
 Harris En= -422.147130432607    
 JPrj=0 DoOrth=F DoCkMO=F.
 Initial guess <Sx>= 0.0000 <Sy>= 0.0000 <Sz>= 0.5000 <S**2>= 0.7500 S= 0.5000
 Leave Link  401 at Wed Dec 03 10:29:18 2025, MaxMem=   104857600 cpu:               1.0 elap:               1.0
 (Enter D:\Gaussian\G16W\l502.exe)
 Integral symmetry usage will be decided dynamically.
 UHF open shell SCF:
 Using DIIS extrapolation, IDIIS=  1040.
 NGot=   104857600 LenX=   104809284 LenY=   104786042
 Requested convergence on RMS density matrix=1.00D-07 within 128 cycles.
 Requested convergence on MAX density matrix=1.00D-05.
 Requested convergence on             energy=1.00D-05.
 No special actions if energy rises.
 Fock matrices will be formed incrementally for  20 cycles.
 Integral accuracy reduced to 1.0D-05 until final iterations.

 Cycle   1  Pass 0  IDiag  1:
 FoFJK:  IHMeth= 1 ICntrl=       0 DoSepK=F KAlg= 0 I1Cent=           0 FoldK=F
 IRaf= 950000000 NMat=       1 IRICut=       1 DoRegI=T DoRafI=F ISym2E= 0 IDoP0=0 IntGTp=1.
 FoFCou: FMM=F IPFlag=           0 FMFlag=      100000 FMFlg1=           0
         NFxFlg=           0 DoJE=F BraDBF=F KetDBF=F FulRan=T
         wScrn=  0.000000 ICntrl=         0 IOpCl=  1 I1Cent=           0 NGrid=           0
         NMat0=    1 NMatS0=      1 NMatT0=    0 NMatD0=    1 NMtDS0=    0 NMtDT0=    0
 Symmetry not used in FoFCou.
 E= -421.541643038713    
 DIIS: error= 4.79D-02 at cycle   1 NSaved=   1.
 NSaved= 1 IEnMin= 1 EnMin= -421.541643038713     IErMin= 1 ErrMin= 4.79D-02
 ErrMax= 4.79D-02  0.00D+00 EMaxC= 1.00D-01 BMatC= 1.31D+00 BMatP= 1.31D+00
 IDIUse=3 WtCom= 5.21D-01 WtEn= 4.79D-01
 Coeff-Com:  0.100D+01
 Coeff-En:   0.100D+01
 Coeff:      0.100D+01
 Gap=     0.054 Goal=   None    Shift=    0.000
 Gap=     0.279 Goal=   None    Shift=    0.000
 GapD=    0.054 DampG=0.500 DampE=0.500 DampFc=0.2500 IDamp=-1.
 Damping current iteration by 2.50D-01
 RMSDP=5.54D-02 MaxDP=6.33D+00              OVMax= 9.92D-01

 Cycle   2  Pass 0  IDiag  1:
 RMSU=  1.38D-02    CP:  9.89D-01
 E= -421.666472924363     Delta-E=       -0.124829885650 Rises=F Damp=T
 DIIS: error= 2.35D-02 at cycle   2 NSaved=   2.
 NSaved= 2 IEnMin= 2 EnMin= -421.666472924363     IErMin= 2 ErrMin= 2.35D-02
 ErrMax= 2.35D-02  0.00D+00 EMaxC= 1.00D-01 BMatC= 2.87D-01 BMatP= 1.31D+00
 IDIUse=3 WtCom= 7.65D-01 WtEn= 2.35D-01
 Coeff-Com: -0.700D+00 0.170D+01
 Coeff-En:   0.000D+00 0.100D+01
 Coeff:     -0.535D+00 0.154D+01
 Gap=     0.004 Goal=   None    Shift=    0.000
 Gap=     0.323 Goal=   None    Shift=    0.000
 RMSDP=1.42D-02 MaxDP=1.62D+00 DE=-1.25D-01 OVMax= 9.82D-01

 Cycle   3  Pass 0  IDiag  1:
 RMSU=  4.84D-03    CP:  9.72D-01  3.75D-02
 E= -421.867039002727     Delta-E=       -0.200566078364 Rises=F Damp=F
 DIIS: error= 2.03D-02 at cycle   3 NSaved=   3.
 NSaved= 3 IEnMin= 3 EnMin= -421.867039002727     IErMin= 3 ErrMin= 2.03D-02
 ErrMax= 2.03D-02  0.00D+00 EMaxC= 1.00D-01 BMatC= 1.06D-01 BMatP= 2.87D-01
 IDIUse=3 WtCom= 7.97D-01 WtEn= 2.03D-01
 Coeff-Com: -0.406D+00 0.949D+00 0.457D+00
 Coeff-En:   0.000D+00 0.000D+00 0.100D+01
 Coeff:     -0.324D+00 0.756D+00 0.567D+00
 Gap=     0.050 Goal=   None    Shift=    0.000
 Gap=     0.234 Goal=   None    Shift=    0.000
 RMSDP=1.83D-03 MaxDP=3.85D-02 DE=-2.01D-01 OVMax= 7.32D-02

 Cycle   4  Pass 0  IDiag  1:
 RMSU=  1.75D-03    CP:  9.76D-01  4.59D-02  8.94D-01
 E= -421.893682217595     Delta-E=       -0.026643214867 Rises=F Damp=F
 DIIS: error= 5.96D-03 at cycle   4 NSaved=   4.
 NSaved= 4 IEnMin= 4 EnMin= -421.893682217595     IErMin= 4 ErrMin= 5.96D-03
 ErrMax= 5.96D-03  0.00D+00 EMaxC= 1.00D-01 BMatC= 2.17D-02 BMatP= 1.06D-01
 IDIUse=3 WtCom= 9.40D-01 WtEn= 5.96D-02
 Coeff-Com: -0.176D+00 0.352D+00 0.288D+00 0.536D+00
 Coeff-En:   0.000D+00 0.000D+00 0.373D-01 0.963D+00
 Coeff:     -0.166D+00 0.331D+00 0.273D+00 0.561D+00
 Gap=     0.056 Goal=   None    Shift=    0.000
 Gap=     0.224 Goal=   None    Shift=    0.000
 RMSDP=7.53D-04 MaxDP=1.59D-02 DE=-2.66D-02 OVMax= 4.03D-02

 Cycle   5  Pass 0  IDiag  1:
 RMSU=  5.63D-04    CP:  9.75D-01  4.80D-02  9.43D-01  7.49D-01
 E= -421.897472575425     Delta-E=       -0.003790357831 Rises=F Damp=F
 DIIS: error= 2.57D-03 at cycle   5 NSaved=   5.
 NSaved= 5 IEnMin= 5 EnMin= -421.897472575425     IErMin= 5 ErrMin= 2.57D-03
 ErrMax= 2.57D-03  0.00D+00 EMaxC= 1.00D-01 BMatC= 5.56D-03 BMatP= 2.17D-02
 IDIUse=3 WtCom= 9.74D-01 WtEn= 2.57D-02
 Coeff-Com: -0.867D-01 0.142D+00 0.815D-01 0.335D+00 0.528D+00
 Coeff-En:   0.000D+00 0.000D+00 0.000D+00 0.201D+00 0.799D+00
 Coeff:     -0.845D-01 0.139D+00 0.794D-01 0.332D+00 0.535D+00
 Gap=     0.060 Goal=   None    Shift=    0.000
 Gap=     0.224 Goal=   None    Shift=    0.000
 RMSDP=4.17D-04 MaxDP=1.22D-02 DE=-3.79D-03 OVMax= 2.86D-02

 Cycle   6  Pass 0  IDiag  1:
 RMSU=  2.52D-04    CP:  9.75D-01  4.92D-02  9.45D-01  9.06D-01  6.70D-01
 E= -421.898861811536     Delta-E=       -0.001389236111 Rises=F Damp=F
 DIIS: error= 1.03D-03 at cycle   6 NSaved=   6.
 NSaved= 6 IEnMin= 6 EnMin= -421.898861811536     IErMin= 6 ErrMin= 1.03D-03
 ErrMax= 1.03D-03  0.00D+00 EMaxC= 1.00D-01 BMatC= 1.03D-03 BMatP= 5.56D-03
 IDIUse=3 WtCom= 9.90D-01 WtEn= 1.03D-02
 Coeff-Com: -0.261D-01 0.317D-01-0.357D-01 0.461D-01 0.344D+00 0.640D+00
 Coeff-En:   0.000D+00 0.000D+00 0.000D+00 0.000D+00 0.813D-01 0.919D+00
 Coeff:     -0.258D-01 0.314D-01-0.354D-01 0.456D-01 0.342D+00 0.643D+00
 Gap=     0.062 Goal=   None    Shift=    0.000
 Gap=     0.224 Goal=   None    Shift=    0.000
 RMSDP=1.65D-04 MaxDP=5.12D-03 DE=-1.39D-03 OVMax= 1.09D-02

 Cycle   7  Pass 0  IDiag  1:
 RMSU=  1.03D-04    CP:  9.75D-01  4.99D-02  9.50D-01  9.07D-01  8.78D-01
                    CP:  8.16D-01
 E= -421.899149269114     Delta-E=       -0.000287457578 Rises=F Damp=F
 DIIS: error= 3.56D-04 at cycle   7 NSaved=   7.
 NSaved= 7 IEnMin= 7 EnMin= -421.899149269114     IErMin= 7 ErrMin= 3.56D-04
 ErrMax= 3.56D-04  0.00D+00 EMaxC= 1.00D-01 BMatC= 1.13D-04 BMatP= 1.03D-03
 IDIUse=3 WtCom= 9.96D-01 WtEn= 3.56D-03
 Coeff-Com: -0.883D-02 0.733D-02-0.319D-01-0.882D-02 0.151D+00 0.370D+00
 Coeff-Com:  0.521D+00
 Coeff-En:   0.000D+00 0.000D+00 0.000D+00 0.000D+00 0.000D+00 0.000D+00
 Coeff-En:   0.100D+01
 Coeff:     -0.880D-02 0.730D-02-0.318D-01-0.879D-02 0.151D+00 0.369D+00
 Coeff:      0.522D+00
 Gap=     0.062 Goal=   None    Shift=    0.000
 Gap=     0.224 Goal=   None    Shift=    0.000
 RMSDP=6.58D-05 MaxDP=1.83D-03 DE=-2.87D-04 OVMax= 5.84D-03

 Cycle   8  Pass 0  IDiag  1:
 RMSU=  4.61D-05    CP:  9.75D-01  5.02D-02  9.51D-01  9.18D-01  8.82D-01
                    CP:  9.72D-01  1.16D+00
 E= -421.899185059222     Delta-E=       -0.000035790108 Rises=F Damp=F
 DIIS: error= 1.43D-04 at cycle   8 NSaved=   8.
 NSaved= 8 IEnMin= 8 EnMin= -421.899185059222     IErMin= 8 ErrMin= 1.43D-04
 ErrMax= 1.43D-04  0.00D+00 EMaxC= 1.00D-01 BMatC= 1.13D-05 BMatP= 1.13D-04
 IDIUse=3 WtCom= 9.99D-01 WtEn= 1.43D-03
 Coeff-Com:  0.183D-02-0.165D-02-0.137D-03-0.144D-01-0.420D-01-0.676D-01
 Coeff-Com:  0.158D+00 0.966D+00
 Coeff-En:   0.000D+00 0.000D+00 0.000D+00 0.000D+00 0.000D+00 0.000D+00
 Coeff-En:   0.000D+00 0.100D+01
 Coeff:      0.182D-02-0.164D-02-0.137D-03-0.144D-01-0.420D-01-0.675D-01
 Coeff:      0.158D+00 0.966D+00
 Gap=     0.063 Goal=   None    Shift=    0.000
 Gap=     0.224 Goal=   None    Shift=    0.000
 RMSDP=8.62D-05 MaxDP=2.30D-03 DE=-3.58D-05 OVMax= 1.00D-02

 Cycle   9  Pass 0  IDiag  1:
 RMSU=  2.85D-05    CP:  9.75D-01  5.03D-02  9.51D-01  9.24D-01  9.04D-01
                    CP:  1.09D+00  1.79D+00  1.80D+00
 E= -421.899202602385     Delta-E=       -0.000017543162 Rises=F Damp=F
 DIIS: error= 9.15D-05 at cycle   9 NSaved=   9.
 NSaved= 9 IEnMin= 9 EnMin= -421.899202602385     IErMin= 9 ErrMin= 9.15D-05
 ErrMax= 9.15D-05  0.00D+00 EMaxC= 1.00D-01 BMatC= 4.06D-06 BMatP= 1.13D-05
 IDIUse=1 WtCom= 1.00D+00 WtEn= 0.00D+00
 Coeff-Com:  0.218D-02-0.247D-02 0.315D-02-0.528D-02-0.292D-01-0.656D-01
 Coeff-Com: -0.825D-04 0.366D+00 0.731D+00
 Coeff:      0.218D-02-0.247D-02 0.315D-02-0.528D-02-0.292D-01-0.656D-01
 Coeff:     -0.825D-04 0.366D+00 0.731D+00
 Gap=     0.063 Goal=   None    Shift=    0.000
 Gap=     0.224 Goal=   None    Shift=    0.000
 RMSDP=5.76D-05 MaxDP=1.61D-03 DE=-1.75D-05 OVMax= 6.76D-03

 Cycle  10  Pass 0  IDiag  1:
 RMSU=  1.14D-05    CP:  9.75D-01  5.03D-02  9.51D-01  9.25D-01  9.16D-01
                    CP:  1.16D+00  2.18D+00  2.44D+00  1.63D+00
 E= -421.899211531429     Delta-E=       -0.000008929044 Rises=F Damp=F
 DIIS: error= 8.07D-05 at cycle  10 NSaved=  10.
 NSaved=10 IEnMin=10 EnMin= -421.899211531429     IErMin=10 ErrMin= 8.07D-05
 ErrMax= 8.07D-05  0.00D+00 EMaxC= 1.00D-01 BMatC= 2.65D-06 BMatP= 4.06D-06
 IDIUse=1 WtCom= 1.00D+00 WtEn= 0.00D+00
 Coeff-Com: -0.325D-04 0.147D-03 0.229D-02 0.464D-02 0.992D-02 0.261D-02
 Coeff-Com: -0.756D-01-0.253D+00 0.367D+00 0.943D+00
 Coeff:     -0.325D-04 0.147D-03 0.229D-02 0.464D-02 0.992D-02 0.261D-02
 Coeff:     -0.756D-01-0.253D+00 0.367D+00 0.943D+00
 Gap=     0.063 Goal=   None    Shift=    0.000
 Gap=     0.224 Goal=   None    Shift=    0.000
 RMSDP=8.13D-05 MaxDP=2.49D-03 DE=-8.93D-06 OVMax= 9.76D-03

 Cycle  11  Pass 0  IDiag  1:
 RMSU=  1.78D-05    CP:  9.74D-01  5.03D-02  9.50D-01  9.26D-01  9.28D-01
                    CP:  1.25D+00  2.72D+00  3.00D+00  2.74D+00  1.75D+00
 E= -421.899222764308     Delta-E=       -0.000011232879 Rises=F Damp=F
 DIIS: error= 8.17D-05 at cycle  11 NSaved=  11.
 NSaved=11 IEnMin=11 EnMin= -421.899222764308     IErMin=10 ErrMin= 8.07D-05
 ErrMax= 8.17D-05  0.00D+00 EMaxC= 1.00D-01 BMatC= 1.96D-06 BMatP= 2.65D-06
 IDIUse=1 WtCom= 1.00D+00 WtEn= 0.00D+00
 Coeff-Com: -0.131D-02 0.153D-02-0.175D-02 0.373D-02 0.236D-01 0.462D-01
 Coeff-Com: -0.239D-01-0.255D+00-0.482D+00 0.302D+00 0.139D+01
 Coeff:     -0.131D-02 0.153D-02-0.175D-02 0.373D-02 0.236D-01 0.462D-01
 Coeff:     -0.239D-01-0.255D+00-0.482D+00 0.302D+00 0.139D+01
 Gap=     0.063 Goal=   None    Shift=    0.000
 Gap=     0.224 Goal=   None    Shift=    0.000
 RMSDP=1.24D-04 MaxDP=3.77D-03 DE=-1.12D-05 OVMax= 1.48D-02

 Cycle  12  Pass 0  IDiag  1:
 RMSU=  7.70D-05    CP:  9.74D-01  5.04D-02  9.50D-01  9.28D-01  9.45D-01
                    CP:  1.40D+00  3.00D+00  3.00D+00  3.00D+00  3.00D+00
                    CP:  3.00D+00
 E= -421.899237232352     Delta-E=       -0.000014468044 Rises=F Damp=F
 DIIS: error= 5.06D-05 at cycle  12 NSaved=  12.
 NSaved=12 IEnMin=12 EnMin= -421.899237232352     IErMin=12 ErrMin= 5.06D-05
 ErrMax= 5.06D-05  0.00D+00 EMaxC= 1.00D-01 BMatC= 9.84D-07 BMatP= 1.96D-06
 IDIUse=1 WtCom= 1.00D+00 WtEn= 0.00D+00
 Coeff-Com: -0.119D-02 0.142D-02-0.351D-02-0.146D-02 0.106D-01 0.310D-01
 Coeff-Com:  0.398D-01 0.630D-01-0.704D+00-0.440D+00 0.518D+00 0.149D+01
 Coeff:     -0.119D-02 0.142D-02-0.351D-02-0.146D-02 0.106D-01 0.310D-01
 Coeff:      0.398D-01 0.630D-01-0.704D+00-0.440D+00 0.518D+00 0.149D+01
 Gap=     0.063 Goal=   None    Shift=    0.000
 Gap=     0.224 Goal=   None    Shift=    0.000
 RMSDP=1.85D-04 MaxDP=5.78D-03 DE=-1.45D-05 OVMax= 2.23D-02

 Cycle  13  Pass 0  IDiag  1:
 RMSU=  5.27D-05    CP:  9.74D-01  5.05D-02  9.49D-01  9.32D-01  9.74D-01
                    CP:  1.61D+00  3.00D+00  3.00D+00  3.00D+00  3.00D+00
                    CP:  3.00D+00  3.00D+00
 E= -421.899252325655     Delta-E=       -0.000015093303 Rises=F Damp=F
 DIIS: error= 6.29D-05 at cycle  13 NSaved=  13.
 NSaved=13 IEnMin=13 EnMin= -421.899252325655     IErMin=12 ErrMin= 5.06D-05
 ErrMax= 6.29D-05  0.00D+00 EMaxC= 1.00D-01 BMatC= 1.01D-06 BMatP= 9.84D-07
 IDIUse=1 WtCom= 1.00D+00 WtEn= 0.00D+00
 Coeff-Com: -0.283D-03 0.482D-03-0.173D-02-0.379D-02-0.748D-02-0.852D-02
 Coeff-Com:  0.476D-01 0.246D+00-0.206D+00-0.418D+00-0.105D+01 0.126D+01
 Coeff-Com:  0.114D+01
 Coeff:     -0.283D-03 0.482D-03-0.173D-02-0.379D-02-0.748D-02-0.852D-02
 Coeff:      0.476D-01 0.246D+00-0.206D+00-0.418D+00-0.105D+01 0.126D+01
 Coeff:      0.114D+01
 Gap=     0.063 Goal=   None    Shift=    0.000
 Gap=     0.225 Goal=   None    Shift=    0.000
 RMSDP=2.09D-04 MaxDP=6.60D-03 DE=-1.51D-05 OVMax= 2.51D-02

 Cycle  14  Pass 0  IDiag  1:
 RMSU=  1.66D-04    CP:  9.74D-01  5.08D-02  9.48D-01  9.36D-01  1.01D+00
                    CP:  1.85D+00  3.00D+00  3.00D+00  3.00D+00  3.00D+00
                    CP:  3.00D+00  3.00D+00  3.00D+00
 E= -421.899260632363     Delta-E=       -0.000008306708 Rises=F Damp=F
 DIIS: error= 1.79D-05 at cycle  14 NSaved=  14.
 NSaved=14 IEnMin=14 EnMin= -421.899260632363     IErMin=14 ErrMin= 1.79D-05
 ErrMax= 1.79D-05  0.00D+00 EMaxC= 1.00D-01 BMatC= 1.52D-07 BMatP= 9.84D-07
 IDIUse=1 WtCom= 1.00D+00 WtEn= 0.00D+00
 Coeff-Com:  0.183D-03-0.194D-03 0.324D-03-0.508D-03-0.364D-02-0.633D-02
 Coeff-Com:  0.115D-01 0.656D-01 0.141D+00 0.139D+00-0.429D+00-0.263D+00
 Coeff-Com:  0.389D+00 0.955D+00
 Coeff:      0.183D-03-0.194D-03 0.324D-03-0.508D-03-0.364D-02-0.633D-02
 Coeff:      0.115D-01 0.656D-01 0.141D+00 0.139D+00-0.429D+00-0.263D+00
 Coeff:      0.389D+00 0.955D+00
 Gap=     0.063 Goal=   None    Shift=    0.000
 Gap=     0.225 Goal=   None    Shift=    0.000
 RMSDP=2.58D-05 MaxDP=8.67D-04 DE=-8.31D-06 OVMax= 3.11D-03

 Cycle  15  Pass 0  IDiag  1:
 RMSU=  1.46D-05    CP:  9.74D-01  5.08D-02  9.48D-01  9.36D-01  1.01D+00
                    CP:  1.87D+00  3.00D+00  3.00D+00  3.00D+00  3.00D+00
                    CP:  3.00D+00  3.00D+00  3.00D+00  1.12D+00
 E= -421.899261075604     Delta-E=       -0.000000443241 Rises=F Damp=F
 DIIS: error= 1.49D-05 at cycle  15 NSaved=  15.
 NSaved=15 IEnMin=15 EnMin= -421.899261075604     IErMin=15 ErrMin= 1.49D-05
 ErrMax= 1.49D-05  0.00D+00 EMaxC= 1.00D-01 BMatC= 4.39D-08 BMatP= 1.52D-07
 IDIUse=1 WtCom= 1.00D+00 WtEn= 0.00D+00
 Coeff-Com:  0.154D-03-0.220D-03 0.462D-03 0.659D-03 0.705D-03 0.113D-02
 Coeff-Com: -0.743D-02-0.374D-01 0.524D-01 0.126D+00 0.774D-01-0.261D+00
 Coeff-Com: -0.235D+00 0.266D+00 0.102D+01
 Coeff:      0.154D-03-0.220D-03 0.462D-03 0.659D-03 0.705D-03 0.113D-02
 Coeff:     -0.743D-02-0.374D-01 0.524D-01 0.126D+00 0.774D-01-0.261D+00
 Coeff:     -0.235D+00 0.266D+00 0.102D+01
 Gap=     0.063 Goal=   None    Shift=    0.000
 Gap=     0.225 Goal=   None    Shift=    0.000
 RMSDP=3.46D-05 MaxDP=1.12D-03 DE=-4.43D-07 OVMax= 4.15D-03

 Cycle  16  Pass 0  IDiag  1:
 RMSU=  3.48D-06    CP:  9.74D-01  5.08D-02  9.48D-01  9.36D-01  1.01D+00
                    CP:  1.91D+00  3.00D+00  3.00D+00  3.00D+00  3.00D+00
                    CP:  3.00D+00  3.00D+00  3.00D+00  1.29D+00  2.20D+00
 E= -421.899261320322     Delta-E=       -0.000000244718 Rises=F Damp=F
 DIIS: error= 3.48D-06 at cycle  16 NSaved=  16.
 NSaved=16 IEnMin=16 EnMin= -421.899261320322     IErMin=16 ErrMin= 3.48D-06
 ErrMax= 3.48D-06  0.00D+00 EMaxC= 1.00D-01 BMatC= 9.35D-09 BMatP= 4.39D-08
 IDIUse=1 WtCom= 1.00D+00 WtEn= 0.00D+00
 Coeff-Com:  0.353D-04-0.512D-04 0.209D-03 0.474D-03 0.104D-02 0.182D-02
 Coeff-Com: -0.545D-02-0.276D-01 0.477D-02 0.446D-01 0.855D-01-0.663D-01
 Coeff-Com: -0.189D+00 0.268D-01 0.511D+00 0.612D+00
 Coeff:      0.353D-04-0.512D-04 0.209D-03 0.474D-03 0.104D-02 0.182D-02
 Coeff:     -0.545D-02-0.276D-01 0.477D-02 0.446D-01 0.855D-01-0.663D-01
 Coeff:     -0.189D+00 0.268D-01 0.511D+00 0.612D+00
 Gap=     0.063 Goal=   None    Shift=    0.000
 Gap=     0.225 Goal=   None    Shift=    0.000
 RMSDP=3.53D-06 MaxDP=1.14D-04 DE=-2.45D-07 OVMax= 4.19D-04

 Initial convergence to 1.0D-05 achieved.  Increase integral accuracy.
 Cycle  17  Pass 1  IDiag  1:
 E= -421.899263057982     Delta-E=       -0.000001737660 Rises=F Damp=F
 DIIS: error= 1.88D-05 at cycle   1 NSaved=   1.
 NSaved= 1 IEnMin= 1 EnMin= -421.899263057982     IErMin= 1 ErrMin= 1.88D-05
 ErrMax= 1.88D-05  0.00D+00 EMaxC= 1.00D-01 BMatC= 4.58D-08 BMatP= 4.58D-08
 IDIUse=1 WtCom= 1.00D+00 WtEn= 0.00D+00
 Coeff-Com:  0.100D+01
 Coeff:      0.100D+01
 Gap=     0.063 Goal=   None    Shift=    0.000
 Gap=     0.225 Goal=   None    Shift=    0.000
 RMSDP=3.53D-06 MaxDP=1.14D-04 DE=-1.74D-06 OVMax= 4.50D-05

 Cycle  18  Pass 1  IDiag  1:
 RMSU=  4.30D-06    CP:  1.00D+00
 E= -421.899263065669     Delta-E=       -0.000000007687 Rises=F Damp=F
 DIIS: error= 3.06D-06 at cycle   2 NSaved=   2.
 NSaved= 2 IEnMin= 2 EnMin= -421.899263065669     IErMin= 2 ErrMin= 3.06D-06
 ErrMax= 3.06D-06  0.00D+00 EMaxC= 1.00D-01 BMatC= 2.98D-09 BMatP= 4.58D-08
 IDIUse=1 WtCom= 1.00D+00 WtEn= 0.00D+00
 Coeff-Com:  0.791D-01 0.921D+00
 Coeff:      0.791D-01 0.921D+00
 Gap=     0.063 Goal=   None    Shift=    0.000
 Gap=     0.225 Goal=   None    Shift=    0.000
 RMSDP=7.27D-07 MaxDP=2.42D-05 DE=-7.69D-09 OVMax= 7.47D-05

 Cycle  19  Pass 1  IDiag  1:
 RMSU=  7.21D-07    CP:  1.00D+00  1.02D+00
 E= -421.899263065584     Delta-E=        0.000000000084 Rises=F Damp=F
 DIIS: error= 4.18D-06 at cycle   3 NSaved=   3.
 NSaved= 3 IEnMin= 2 EnMin= -421.899263065669     IErMin= 2 ErrMin= 3.06D-06
 ErrMax= 4.18D-06  0.00D+00 EMaxC= 1.00D-01 BMatC= 6.42D-09 BMatP= 2.98D-09
 IDIUse=1 WtCom= 1.00D+00 WtEn= 0.00D+00
 Coeff-Com: -0.119D-01 0.604D+00 0.408D+00
 Coeff:     -0.119D-01 0.604D+00 0.408D+00
 Gap=     0.063 Goal=   None    Shift=    0.000
 Gap=     0.225 Goal=   None    Shift=    0.000
 RMSDP=2.74D-07 MaxDP=1.08D-05 DE= 8.42D-11 OVMax= 1.60D-05

 Cycle  20  Pass 1  IDiag  1:
 RMSU=  2.62D-07    CP:  1.00D+00  1.03D+00  9.07D-01
 E= -421.899263067230     Delta-E=       -0.000000001645 Rises=F Damp=F
 DIIS: error= 9.19D-07 at cycle   4 NSaved=   4.
 NSaved= 4 IEnMin= 4 EnMin= -421.899263067230     IErMin= 4 ErrMin= 9.19D-07
 ErrMax= 9.19D-07  0.00D+00 EMaxC= 1.00D-01 BMatC= 1.41D-10 BMatP= 2.98D-09
 IDIUse=1 WtCom= 1.00D+00 WtEn= 0.00D+00
 Coeff-Com: -0.307D-02 0.235D-01-0.491D-01 0.103D+01
 Coeff:     -0.307D-02 0.235D-01-0.491D-01 0.103D+01
 Gap=     0.063 Goal=   None    Shift=    0.000
 Gap=     0.225 Goal=   None    Shift=    0.000
 RMSDP=3.89D-07 MaxDP=1.38D-05 DE=-1.65D-09 OVMax= 4.63D-05

 Cycle  21  Pass 1  IDiag  1:
 RMSU=  9.34D-08    CP:  1.00D+00  1.04D+00  1.35D+00  1.77D+00
 E= -421.899263067598     Delta-E=       -0.000000000368 Rises=F Damp=F
 DIIS: error= 9.29D-07 at cycle   5 NSaved=   5.
 NSaved= 5 IEnMin= 5 EnMin= -421.899263067598     IErMin= 4 ErrMin= 9.19D-07
 ErrMax= 9.29D-07  0.00D+00 EMaxC= 1.00D-01 BMatC= 1.94D-10 BMatP= 1.41D-10
 IDIUse=1 WtCom= 1.00D+00 WtEn= 0.00D+00
 Coeff-Com:  0.441D-02-0.316D+00-0.332D+00 0.915D+00 0.728D+00
 Coeff:      0.441D-02-0.316D+00-0.332D+00 0.915D+00 0.728D+00
 Gap=     0.063 Goal=   None    Shift=    0.000
 Gap=     0.225 Goal=   None    Shift=    0.000
 RMSDP=4.68D-07 MaxDP=1.50D-05 DE=-3.68D-10 OVMax= 5.49D-05

 Cycle  22  Pass 1  IDiag  1:
 RMSU=  6.07D-08    CP:  1.00D+00  1.05D+00  1.86D+00  2.79D+00  1.67D+00
 E= -421.899263067986     Delta-E=       -0.000000000388 Rises=F Damp=F
 DIIS: error= 6.11D-07 at cycle   6 NSaved=   6.
 NSaved= 6 IEnMin= 6 EnMin= -421.899263067986     IErMin= 6 ErrMin= 6.11D-07
 ErrMax= 6.11D-07  0.00D+00 EMaxC= 1.00D-01 BMatC= 8.70D-11 BMatP= 1.41D-10
 IDIUse=1 WtCom= 1.00D+00 WtEn= 0.00D+00
 Coeff-Com:  0.301D-02-0.124D+00-0.184D+00 0.894D-01 0.974D-01 0.112D+01
 Coeff:      0.301D-02-0.124D+00-0.184D+00 0.894D-01 0.974D-01 0.112D+01
 Gap=     0.063 Goal=   None    Shift=    0.000
 Gap=     0.225 Goal=   None    Shift=    0.000
 RMSDP=5.12D-07 MaxDP=1.73D-05 DE=-3.88D-10 OVMax= 6.14D-05

 Cycle  23  Pass 1  IDiag  1:
 RMSU=  2.35D-07    CP:  1.00D+00  1.07D+00  2.42D+00  3.00D+00  2.74D+00
                    CP:  1.84D+00
 E= -421.899263068338     Delta-E=       -0.000000000352 Rises=F Damp=F
 DIIS: error= 5.24D-07 at cycle   7 NSaved=   7.
 NSaved= 7 IEnMin= 7 EnMin= -421.899263068338     IErMin= 7 ErrMin= 5.24D-07
 ErrMax= 5.24D-07  0.00D+00 EMaxC= 1.00D-01 BMatC= 7.14D-11 BMatP= 8.70D-11
 IDIUse=1 WtCom= 1.00D+00 WtEn= 0.00D+00
 Coeff-Com:  0.233D-03 0.639D-01-0.203D-01-0.268D+00-0.371D+00 0.830D+00
 Coeff-Com:  0.765D+00
 Coeff:      0.233D-03 0.639D-01-0.203D-01-0.268D+00-0.371D+00 0.830D+00
 Coeff:      0.765D+00
 Gap=     0.063 Goal=   None    Shift=    0.000
 Gap=     0.225 Goal=   None    Shift=    0.000
 RMSDP=4.34D-07 MaxDP=1.36D-05 DE=-3.52D-10 OVMax= 5.20D-05

 Cycle  24  Pass 1  IDiag  1:
 RMSU=  7.57D-08    CP:  1.00D+00  1.08D+00  2.89D+00  3.00D+00  3.00D+00
                    CP:  3.00D+00  2.00D+00
 E= -421.899263068568     Delta-E=       -0.000000000230 Rises=F Damp=F
 DIIS: error= 2.94D-07 at cycle   8 NSaved=   8.
 NSaved= 8 IEnMin= 8 EnMin= -421.899263068568     IErMin= 8 ErrMin= 2.94D-07
 ErrMax= 2.94D-07  0.00D+00 EMaxC= 1.00D-01 BMatC= 4.71D-11 BMatP= 7.14D-11
 IDIUse=1 WtCom= 1.00D+00 WtEn= 0.00D+00
 Coeff-Com: -0.401D-02 0.251D+00 0.172D+00-0.252D+00-0.627D+00-0.576D+00
 Coeff-Com:  0.653D+00 0.138D+01
 Coeff:     -0.401D-02 0.251D+00 0.172D+00-0.252D+00-0.627D+00-0.576D+00
 Coeff:      0.653D+00 0.138D+01
 Gap=     0.063 Goal=   None    Shift=    0.000
 Gap=     0.225 Goal=   None    Shift=    0.000
 RMSDP=8.14D-07 MaxDP=2.65D-05 DE=-2.30D-10 OVMax= 9.80D-05

 Cycle  25  Pass 1  IDiag  1:
 RMSU=  6.16D-07    CP:  1.00D+00  1.10D+00  3.00D+00  3.00D+00  3.00D+00
                    CP:  3.00D+00  3.00D+00  3.00D+00
 E= -421.899263068913     Delta-E=       -0.000000000345 Rises=F Damp=F
 DIIS: error= 2.12D-07 at cycle   9 NSaved=   9.
 NSaved= 9 IEnMin= 9 EnMin= -421.899263068913     IErMin= 9 ErrMin= 2.12D-07
 ErrMax= 2.12D-07  0.00D+00 EMaxC= 1.00D-01 BMatC= 2.05D-11 BMatP= 4.71D-11
 IDIUse=1 WtCom= 1.00D+00 WtEn= 0.00D+00
 Coeff-Com: -0.310D-02 0.145D+00 0.117D+00 0.972D-01-0.228D+00-0.106D+01
 Coeff-Com: -0.160D+00 0.951D+00 0.114D+01
 Coeff:     -0.310D-02 0.145D+00 0.117D+00 0.972D-01-0.228D+00-0.106D+01
 Coeff:     -0.160D+00 0.951D+00 0.114D+01
 Gap=     0.063 Goal=   None    Shift=    0.000
 Gap=     0.225 Goal=   None    Shift=    0.000
 RMSDP=8.25D-07 MaxDP=2.62D-05 DE=-3.45D-10 OVMax= 9.93D-05

 Cycle  26  Pass 1  IDiag  1:
 RMSU=  2.52D-07    CP:  1.00D+00  1.11D+00  3.00D+00  3.00D+00  3.00D+00
                    CP:  3.00D+00  3.00D+00  3.00D+00  2.27D+00
 E= -421.899263069106     Delta-E=       -0.000000000193 Rises=F Damp=F
 DIIS: error= 1.30D-07 at cycle  10 NSaved=  10.
 NSaved=10 IEnMin=10 EnMin= -421.899263069106     IErMin=10 ErrMin= 1.30D-07
 ErrMax= 1.30D-07  0.00D+00 EMaxC= 1.00D-01 BMatC= 7.19D-12 BMatP= 2.05D-11
 IDIUse=1 WtCom= 1.00D+00 WtEn= 0.00D+00
 Coeff-Com: -0.777D-04-0.280D-01-0.189D-01 0.182D+00 0.124D+00-0.327D+00
 Coeff-Com: -0.402D+00-0.158D+00 0.724D+00 0.904D+00
 Coeff:     -0.777D-04-0.280D-01-0.189D-01 0.182D+00 0.124D+00-0.327D+00
 Coeff:     -0.402D+00-0.158D+00 0.724D+00 0.904D+00
 Gap=     0.063 Goal=   None    Shift=    0.000
 Gap=     0.225 Goal=   None    Shift=    0.000
 RMSDP=5.29D-07 MaxDP=1.68D-05 DE=-1.93D-10 OVMax= 6.36D-05

 Cycle  27  Pass 1  IDiag  1:
 RMSU=  5.20D-08    CP:  1.00D+00  1.13D+00  3.00D+00  3.00D+00  3.00D+00
                    CP:  3.00D+00  3.00D+00  3.00D+00  3.00D+00  1.63D+00
 E= -421.899263069159     Delta-E=       -0.000000000052 Rises=F Damp=F
 DIIS: error= 2.27D-08 at cycle  11 NSaved=  11.
 NSaved=11 IEnMin=11 EnMin= -421.899263069159     IErMin=11 ErrMin= 2.27D-08
 ErrMax= 2.27D-08  0.00D+00 EMaxC= 1.00D-01 BMatC= 4.11D-13 BMatP= 7.19D-12
 IDIUse=1 WtCom= 1.00D+00 WtEn= 0.00D+00
 Coeff-Com:  0.332D-03-0.271D-01-0.233D-01 0.618D-01 0.682D-01 0.395D-02
 Coeff-Com: -0.109D+00-0.174D+00 0.148D+00 0.306D+00 0.744D+00
 Coeff:      0.332D-03-0.271D-01-0.233D-01 0.618D-01 0.682D-01 0.395D-02
 Coeff:     -0.109D+00-0.174D+00 0.148D+00 0.306D+00 0.744D+00
 Gap=     0.063 Goal=   None    Shift=    0.000
 Gap=     0.225 Goal=   None    Shift=    0.000
 RMSDP=2.25D-08 MaxDP=6.54D-07 DE=-5.24D-11 OVMax= 2.66D-06

 SCF Done:  E(UB3LYP) =  -421.899263069     A.U. after   27 cycles
            NFock= 27  Conv=0.23D-07     -V/T= 2.0078
 <Sx>= 0.0000 <Sy>= 0.0000 <Sz>= 0.5000 <S**2>= 0.7572 S= 0.5036
 <L.S>= 0.000000000000E+00
 KE= 4.186280096818D+02 PE=-1.864521223127D+03 EE= 5.902506962623D+02
 Annihilation of the first spin contaminant:
 S**2 before annihilation     0.7572,   after     0.7500
 Leave Link  502 at Wed Dec 03 10:30:02 2025, MaxMem=   104857600 cpu:              44.0 elap:              43.6
 (Enter D:\Gaussian\G16W\l601.exe)
 Copying SCF densities to generalized density rwf, IOpCl= 1 IROHF=0.

 **********************************************************************

            Population analysis using the SCF density.

 **********************************************************************

 Orbital symmetries:
 Alpha Orbitals:
       Occupied  (A) (A) (A) (A) (A) (A) (A) (A) (A) (A) (A) (A)
                 (A) (A) (A) (A) (A) (A) (A) (A) (A) (A) (A) (A)
                 (A) (A) (A) (A) (A) (A) (A) (A) (A) (A)
       Virtual   (A) (A) (A) (A) (A) (A) (A) (A) (A) (A) (A) (A)
                 (A) (A) (A) (A) (A) (A) (A) (A) (A) (A) (A) (A)
                 (A) (A) (A) (A) (A) (A) (A) (A) (A) (A) (A) (A)
                 (A) (A) (A) (A) (A) (A) (A) (A) (A) (A) (A) (A)
                 (A) (A) (A) (A) (A) (A) (A) (A) (A) (A) (A) (A)
                 (A) (A) (A) (A) (A) (A) (A) (A) (A) (A) (A) (A)
                 (A) (A) (A) (A) (A) (A) (A) (A) (A) (A) (A) (A)
                 (A) (A) (A) (A) (A) (A) (A) (A) (A) (A) (A) (A)
                 (A) (A) (A) (A) (A) (A) (A) (A) (A) (A) (A) (A)
                 (A) (A) (A) (A) (A) (A) (A) (A) (A)
 Beta  Orbitals:
       Occupied  (A) (A) (A) (A) (A) (A) (A) (A) (A) (A) (A) (A)
                 (A) (A) (A) (A) (A) (A) (A) (A) (A) (A) (A) (A)
                 (A) (A) (A) (A) (A) (A) (A) (A) (A)
       Virtual   (A) (A) (A) (A) (A) (A) (A) (A) (A) (A) (A) (A)
                 (A) (A) (A) (A) (A) (A) (A) (A) (A) (A) (A) (A)
                 (A) (A) (A) (A) (A) (A) (A) (A) (A) (A) (A) (A)
                 (A) (A) (A) (A) (A) (A) (A) (A) (A) (A) (A) (A)
                 (A) (A) (A) (A) (A) (A) (A) (A) (A) (A) (A) (A)
                 (A) (A) (A) (A) (A) (A) (A) (A) (A) (A) (A) (A)
                 (A) (A) (A) (A) (A) (A) (A) (A) (A) (A) (A) (A)
                 (A) (A) (A) (A) (A) (A) (A) (A) (A) (A) (A) (A)
                 (A) (A) (A) (A) (A) (A) (A) (A) (A) (A) (A) (A)
                 (A) (A) (A) (A) (A) (A) (A) (A) (A) (A)
 The electronic state is 2-A.
 Alpha  occ. eigenvalues --  -19.00109 -18.97811 -10.09760 -10.01692 -10.01061
 Alpha  occ. eigenvalues --   -9.96510  -9.95918  -9.94182  -9.93337  -0.88887
 Alpha  occ. eigenvalues --   -0.85559  -0.62389  -0.57168  -0.52135  -0.50178
 Alpha  occ. eigenvalues --   -0.40817  -0.39451  -0.35821  -0.31981  -0.31479
 Alpha  occ. eigenvalues --   -0.29624  -0.26111  -0.24498  -0.21175  -0.21046
 Alpha  occ. eigenvalues --   -0.18721  -0.18164  -0.15837  -0.14452  -0.12814
 Alpha  occ. eigenvalues --   -0.11773  -0.03209  -0.00454   0.16672
 Alpha virt. eigenvalues --    0.22998   0.23773   0.24759   0.28129   0.29209
 Alpha virt. eigenvalues --    0.30645   0.30848   0.33560   0.36245   0.36503
 Alpha virt. eigenvalues --    0.37926   0.42361   0.47200   0.51538   0.53461
 Alpha virt. eigenvalues --    0.55141   0.57534   0.65475   0.68811   0.70852
 Alpha virt. eigenvalues --    0.72255   0.73395   0.75529   0.78036   0.78702
 Alpha virt. eigenvalues --    0.80634   0.81263   0.82078   0.82766   0.83428
 Alpha virt. eigenvalues --    0.84794   0.86360   0.88383   0.90233   0.93123
 Alpha virt. eigenvalues --    0.97178   0.98233   1.00577   1.02605   1.04425
 Alpha virt. eigenvalues --    1.05900   1.07241   1.09810   1.11855   1.13165
 Alpha virt. eigenvalues --    1.13902   1.15399   1.18693   1.20977   1.24017
 Alpha virt. eigenvalues --    1.24042   1.28857   1.29760   1.33933   1.42912
 Alpha virt. eigenvalues --    1.43332   1.46360   1.47273   1.54061   1.54252
 Alpha virt. eigenvalues --    1.60649   1.60664   1.65797   1.67003   1.67858
 Alpha virt. eigenvalues --    1.71336   1.72612   1.85277   1.90221   1.92009
 Alpha virt. eigenvalues --    1.97591   2.01238   2.03808   2.06624   2.10198
 Alpha virt. eigenvalues --    2.12706   2.14670   2.16241   2.19668   2.22396
 Alpha virt. eigenvalues --    2.22576   2.25778   2.30825   2.34166   2.36255
 Alpha virt. eigenvalues --    2.39714   2.42427   2.45926   2.50009   2.50796
 Alpha virt. eigenvalues --    2.54477   2.55658   2.63895   2.63946   2.74904
 Alpha virt. eigenvalues --    2.78836   2.79798   2.86100   2.87551   2.89731
 Alpha virt. eigenvalues --    2.94045   2.97736   3.04486   3.07757   3.12220
 Alpha virt. eigenvalues --    3.24295   3.44281   3.66584   4.12082   4.30643
 Alpha virt. eigenvalues --    4.31855   4.38505   4.41238   4.52309   4.60190
 Alpha virt. eigenvalues --    4.71569   5.13971
  Beta  occ. eigenvalues --  -19.00051 -18.97804 -10.09764 -10.01676 -10.00836
  Beta  occ. eigenvalues --   -9.96526  -9.95815  -9.93617  -9.92762  -0.88733
  Beta  occ. eigenvalues --   -0.85513  -0.61752  -0.56959  -0.51248  -0.49703
  Beta  occ. eigenvalues --   -0.40515  -0.38782  -0.35711  -0.31562  -0.31346
  Beta  occ. eigenvalues --   -0.29412  -0.25933  -0.24297  -0.20721  -0.20431
  Beta  occ. eigenvalues --   -0.18599  -0.17913  -0.15427  -0.14266  -0.12542
  Beta  occ. eigenvalues --   -0.10301  -0.00006   0.00954
  Beta virt. eigenvalues --    0.23422   0.23809   0.24800   0.25006   0.28183
  Beta virt. eigenvalues --    0.29287   0.30762   0.30890   0.33772   0.36567
  Beta virt. eigenvalues --    0.36774   0.40855   0.42707   0.47666   0.51758
  Beta virt. eigenvalues --    0.53954   0.55453   0.57999   0.65530   0.68977
  Beta virt. eigenvalues --    0.71168   0.72816   0.74396   0.75879   0.78397
  Beta virt. eigenvalues --    0.79082   0.81440   0.82432   0.82857   0.83096
  Beta virt. eigenvalues --    0.84076   0.85218   0.88310   0.89270   0.90549
  Beta virt. eigenvalues --    0.93273   0.97953   0.98261   1.01159   1.02855
  Beta virt. eigenvalues --    1.04732   1.06232   1.07310   1.09902   1.12165
  Beta virt. eigenvalues --    1.13338   1.14228   1.15685   1.18933   1.21225
  Beta virt. eigenvalues --    1.24249   1.24340   1.29078   1.30085   1.34510
  Beta virt. eigenvalues --    1.43192   1.43602   1.47455   1.47547   1.54260
  Beta virt. eigenvalues --    1.54801   1.61050   1.61157   1.66759   1.67313
  Beta virt. eigenvalues --    1.68629   1.72072   1.74233   1.85443   1.90645
  Beta virt. eigenvalues --    1.92186   1.97982   2.01923   2.04219   2.06911
  Beta virt. eigenvalues --    2.11356   2.13120   2.14872   2.16415   2.19969
  Beta virt. eigenvalues --    2.23002   2.23308   2.26162   2.31602   2.34713
  Beta virt. eigenvalues --    2.36741   2.39874   2.42911   2.46770   2.51041
  Beta virt. eigenvalues --    2.52367   2.55319   2.56101   2.64082   2.64716
  Beta virt. eigenvalues --    2.76037   2.79129   2.80466   2.86487   2.88048
  Beta virt. eigenvalues --    2.91188   2.94769   2.98168   3.04639   3.07983
  Beta virt. eigenvalues --    3.12444   3.24890   3.44484   3.66879   4.12169
  Beta virt. eigenvalues --    4.31132   4.32397   4.38988   4.41702   4.52526
  Beta virt. eigenvalues --    4.61067   4.72060   5.14413
          Condensed to atoms (all electrons):
               1          2          3          4          5          6
     1  C    4.962589   0.426265   0.014212  -0.040291  -0.050965   0.616269
     2  C    0.426265   5.249104   0.482877  -0.074171  -0.020665  -0.040270
     3  C    0.014212   0.482877   4.681506   0.532864  -0.050312  -0.041620
     4  C   -0.040291  -0.074171   0.532864   4.939041   0.339283   0.025340
     5  C   -0.050965  -0.020665  -0.050312   0.339283   5.410422   0.434480
     6  C    0.616269  -0.040270  -0.041620   0.025340   0.434480   4.916863
     7  H    0.332547  -0.055220   0.006155   0.000786   0.006563  -0.056384
     8  H   -0.060412   0.320425  -0.047501   0.010241   0.000144   0.007076
     9  H    0.005763   0.001136   0.003988  -0.055376   0.325922  -0.046874
    10  O    0.000208   0.003856  -0.052309   0.182269  -0.060462   0.003731
    11  C   -0.000003  -0.000099   0.004124  -0.045173  -0.007058   0.000048
    12  H    0.000000   0.000007   0.000069   0.002981   0.000281   0.000000
    13  H   -0.000005  -0.000015  -0.000061   0.000400   0.004671  -0.000157
    14  H   -0.000005  -0.000015  -0.000061   0.000398   0.004670  -0.000157
    15  H   -0.052543   0.005443   0.001178   0.004405  -0.051799   0.329674
    16  O    0.003201  -0.044463   0.252171  -0.070215   0.005801   0.000078
    17  H   -0.000066   0.005009  -0.047493  -0.013400   0.001730  -0.000159
               7          8          9         10         11         12
     1  C    0.332547  -0.060412   0.005763   0.000208  -0.000003   0.000000
     2  C   -0.055220   0.320425   0.001136   0.003856  -0.000099   0.000007
     3  C    0.006155  -0.047501   0.003988  -0.052309   0.004124   0.000069
     4  C    0.000786   0.010241  -0.055376   0.182269  -0.045173   0.002981
     5  C    0.006563   0.000144   0.325922  -0.060462  -0.007058   0.000281
     6  C   -0.056384   0.007076  -0.046874   0.003731   0.000048   0.000000
     7  H    0.774643  -0.009896  -0.000299   0.000002   0.000000   0.000000
     8  H   -0.009896   0.779639   0.000020  -0.000081   0.000005   0.000000
     9  H   -0.000299   0.000020   0.768717  -0.008997   0.004799   0.000115
    10  O    0.000002  -0.000081  -0.008997   8.323954   0.277770  -0.038621
    11  C    0.000000   0.000005   0.004799   0.277770   4.852093   0.373709
    12  H    0.000000   0.000000   0.000115  -0.038621   0.373709   0.635219
    13  H    0.000000   0.000000   0.001472  -0.040814   0.354476  -0.040209
    14  H    0.000000   0.000000   0.001472  -0.040815   0.354481  -0.040213
    15  H   -0.008678  -0.000272  -0.008780  -0.000064  -0.000013   0.000000
    16  O   -0.000072  -0.003093  -0.000072  -0.012547   0.000317   0.000013
    17  H    0.000008  -0.000531  -0.000022   0.032124  -0.001961  -0.000135
              13         14         15         16         17
     1  C   -0.000005  -0.000005  -0.052543   0.003201  -0.000066
     2  C   -0.000015  -0.000015   0.005443  -0.044463   0.005009
     3  C   -0.000061  -0.000061   0.001178   0.252171  -0.047493
     4  C    0.000400   0.000398   0.004405  -0.070215  -0.013400
     5  C    0.004671   0.004670  -0.051799   0.005801   0.001730
     6  C   -0.000157  -0.000157   0.329674   0.000078  -0.000159
     7  H    0.000000   0.000000  -0.008678  -0.000072   0.000008
     8  H    0.000000   0.000000  -0.000272  -0.003093  -0.000531
     9  H    0.001472   0.001472  -0.008780  -0.000072  -0.000022
    10  O   -0.040814  -0.040815  -0.000064  -0.012547   0.032124
    11  C    0.354476   0.354481  -0.000013   0.000317  -0.001961
    12  H   -0.040209  -0.040213   0.000000   0.000013  -0.000135
    13  H    0.655804  -0.059029   0.000005  -0.000024   0.000133
    14  H   -0.059029   0.655809   0.000005  -0.000024   0.000133
    15  H    0.000005   0.000005   0.768468   0.000002   0.000000
    16  O   -0.000024  -0.000024   0.000002   8.328197   0.241544
    17  H    0.000133   0.000133   0.000000   0.241544   0.397332
          Atomic-Atomic Spin Densities.
               1          2          3          4          5          6
     1  C    0.153818  -0.138298   0.009163   0.012068  -0.028216   0.064601
     2  C   -0.138298   0.710138  -0.108334  -0.034235   0.023831  -0.020696
     3  C    0.009163  -0.108334   0.046324   0.074813  -0.022482   0.007612
     4  C    0.012068  -0.034235   0.074813   0.259260  -0.161983   0.009777
     5  C   -0.028216   0.023831  -0.022482  -0.161983   0.706650  -0.094737
     6  C    0.064601  -0.020696   0.007612   0.009777  -0.094737   0.014801
     7  H    0.002973  -0.001010   0.000047  -0.000079   0.000223  -0.001064
     8  H    0.000327   0.006248  -0.001691  -0.000263  -0.000065  -0.000184
     9  H   -0.000103  -0.000082  -0.000192  -0.001606   0.006503  -0.000371
    10  O   -0.000063   0.000502  -0.005588  -0.027018   0.006980  -0.000140
    11  C   -0.000002   0.000001  -0.000078  -0.000394   0.000832   0.000010
    12  H    0.000000   0.000000  -0.000007   0.000015   0.000012   0.000000
    13  H    0.000004  -0.000005   0.000044   0.000541  -0.001390   0.000013
    14  H    0.000004  -0.000005   0.000044   0.000540  -0.001389   0.000013
    15  H   -0.001179   0.000266  -0.000078   0.000163  -0.001121   0.002294
    16  O   -0.000125   0.004922  -0.005637  -0.005100   0.000375  -0.000048
    17  H   -0.000010   0.000154   0.000511  -0.000214   0.000009   0.000000
               7          8          9         10         11         12
     1  C    0.002973   0.000327  -0.000103  -0.000063  -0.000002   0.000000
     2  C   -0.001010   0.006248  -0.000082   0.000502   0.000001   0.000000
     3  C    0.000047  -0.001691  -0.000192  -0.005588  -0.000078  -0.000007
     4  C   -0.000079  -0.000263  -0.001606  -0.027018  -0.000394   0.000015
     5  C    0.000223  -0.000065   0.006503   0.006980   0.000832   0.000012
     6  C   -0.001064  -0.000184  -0.000371  -0.000140   0.000010   0.000000
     7  H   -0.008451   0.000378   0.000004   0.000000   0.000000   0.000000
     8  H    0.000378  -0.032977  -0.000001   0.000001   0.000000   0.000000
     9  H    0.000004  -0.000001  -0.032054   0.000300  -0.000073  -0.000023
    10  O    0.000000   0.000001   0.000300   0.033979   0.000077   0.000042
    11  C    0.000000   0.000000  -0.000073   0.000077  -0.004500   0.000174
    12  H    0.000000   0.000000  -0.000023   0.000042   0.000174  -0.000435
    13  H    0.000000   0.000000   0.000076  -0.000250   0.001190   0.000029
    14  H    0.000000   0.000000   0.000076  -0.000250   0.001191   0.000030
    15  H    0.000260   0.000004   0.000361   0.000001   0.000000   0.000000
    16  O    0.000001   0.000377   0.000002   0.000571   0.000000   0.000000
    17  H    0.000000   0.000001   0.000001  -0.000055   0.000025  -0.000002
              13         14         15         16         17
     1  C    0.000004   0.000004  -0.001179  -0.000125  -0.000010
     2  C   -0.000005  -0.000005   0.000266   0.004922   0.000154
     3  C    0.000044   0.000044  -0.000078  -0.005637   0.000511
     4  C    0.000541   0.000540   0.000163  -0.005100  -0.000214
     5  C   -0.001390  -0.001389  -0.001121   0.000375   0.000009
     6  C    0.000013   0.000013   0.002294  -0.000048   0.000000
     7  H    0.000000   0.000000   0.000260   0.000001   0.000000
     8  H    0.000000   0.000000   0.000004   0.000377   0.000001
     9  H    0.000076   0.000076   0.000361   0.000002   0.000001
    10  O   -0.000250  -0.000250   0.000001   0.000571  -0.000055
    11  C    0.001190   0.001191   0.000000   0.000000   0.000025
    12  H    0.000029   0.000030   0.000000   0.000000  -0.000002
    13  H   -0.000970   0.000776   0.000000  -0.000001  -0.000001
    14  H    0.000776  -0.000970   0.000000  -0.000001  -0.000001
    15  H    0.000000   0.000000  -0.002443   0.000000   0.000000
    16  O   -0.000001  -0.000001   0.000000   0.005765   0.000253
    17  H   -0.000001  -0.000001   0.000000   0.000253  -0.001323
 Mulliken charges and spin densities:
               1          2
     1  C   -0.156762   0.074960
     2  C   -0.259203   0.443397
     3  C    0.260213  -0.005528
     4  C    0.260618   0.126286
     5  C   -0.292706   0.434033
     6  C   -0.147939  -0.018121
     7  H    0.009844  -0.006718
     8  H    0.004235  -0.027846
     9  H    0.007015  -0.027183
    10  O   -0.569205   0.009090
    11  C   -0.167513  -0.001548
    12  H    0.106785  -0.000166
    13  H    0.123354   0.000057
    14  H    0.123352   0.000057
    15  H    0.012968  -0.001472
    16  O   -0.700811   0.001355
    17  H    0.385755  -0.000652
 Sum of Mulliken charges =  -1.00000   1.00000
 Mulliken charges and spin densities with hydrogens summed into heavy atoms:
               1          2
     1  C   -0.146918   0.068242
     2  C   -0.254967   0.415550
     3  C    0.260213  -0.005528
     4  C    0.260618   0.126286
     5  C   -0.285691   0.406850
     6  C   -0.134971  -0.019593
    10  O   -0.569205   0.009090
    11  C    0.185978  -0.001600
    16  O   -0.315056   0.000703
 Electronic spatial extent (au):  <R**2>=           1197.5547
 Charge=             -1.0000 electrons
 Dipole moment (field-independent basis, Debye):
    X=              5.1015    Y=             -0.3181    Z=              0.0002  Tot=              5.1114
 Quadrupole moment (field-independent basis, Debye-Ang):
   XX=            -62.8843   YY=            -65.3033   ZZ=            -59.1411
   XY=             -0.0584   XZ=              0.0002   YZ=              0.0000
 Traceless Quadrupole moment (field-independent basis, Debye-Ang):
   XX=             -0.4414   YY=             -2.8604   ZZ=              3.3018
   XY=             -0.0584   XZ=              0.0002   YZ=              0.0000
 Octapole moment (field-independent basis, Debye-Ang**2):
  XXX=             38.8858  YYY=              7.0212  ZZZ=              0.0003  XYY=             17.8262
  XXY=              6.4887  XXZ=              0.0007  XZZ=             10.2036  YZZ=              6.3715
  YYZ=              0.0002  XYZ=              0.0000
 Hexadecapole moment (field-independent basis, Debye-Ang**3):
 XXXX=          -1019.9181 YYYY=           -616.8567 ZZZZ=            -66.8960 XXXY=             -6.2152
 XXXZ=             -0.0066 YYYX=             17.9382 YYYZ=              0.0011 ZZZX=             -0.0076
 ZZZY=              0.0006 XXYY=           -261.3200 XXZZ=           -187.7169 YYZZ=           -112.5976
 XXYZ=              0.0005 YYXZ=             -0.0026 ZZXY=             -1.4233
 N-N= 4.337432541136D+02 E-N=-1.864521224079D+03  KE= 4.186280096818D+02
                          Isotropic Fermi Contact Couplings
        Atom                 a.u.       MegaHertz       Gauss      10(-4) cm-1
     1  C(13)              0.00093       1.04059       0.37131       0.34710
     2  C(13)              0.04285      48.17234      17.18909      16.06856
     3  C(13)             -0.01124     -12.63068      -4.50694      -4.21314
     4  C(13)              0.00590       6.63422       2.36726       2.21294
     5  C(13)              0.04187      47.06718      16.79474      15.69992
     6  C(13)             -0.00988     -11.10970      -3.96422      -3.70580
     7  H(1)              -0.00181      -8.11282      -2.89486      -2.70615
     8  H(1)              -0.00724     -32.38244     -11.55486     -10.80162
     9  H(1)              -0.00708     -31.64795     -11.29278     -10.55662
    10  O(17)              0.00436      -2.64208      -0.94276      -0.88130
    11  C(13)             -0.00101      -1.14103      -0.40715      -0.38061
    12  H(1)              -0.00008      -0.35888      -0.12806      -0.11971
    13  H(1)               0.00101       4.50840       1.60871       1.50384
    14  H(1)               0.00101       4.50813       1.60861       1.50375
    15  H(1)              -0.00045      -2.00193      -0.71434      -0.66777
    16  O(17)             -0.00094       0.56683       0.20226       0.18907
    17  H(1)              -0.00026      -1.17369      -0.41880      -0.39150
 --------------------------------------------------------
       Center         ----  Spin Dipole Couplings  ----
                      3XX-RR        3YY-RR        3ZZ-RR
 --------------------------------------------------------
     1   Atom       -0.053839     -0.044638      0.098478
     2   Atom       -0.230510     -0.229403      0.459912
     3   Atom       -0.013901     -0.027447      0.041348
     4   Atom       -0.105836     -0.093546      0.199382
     5   Atom       -0.230530     -0.224048      0.454578
     6   Atom        0.002001     -0.011020      0.009019
     7   Atom        0.011852     -0.007841     -0.004010
     8   Atom       -0.006415      0.006417     -0.000002
     9   Atom       -0.006156      0.006449     -0.000293
    10   Atom       -0.045957     -0.052834      0.098791
    11   Atom        0.006164     -0.002038     -0.004126
    12   Atom        0.003626     -0.001715     -0.001910
    13   Atom        0.005023     -0.002415     -0.002608
    14   Atom        0.005023     -0.002415     -0.002608
    15   Atom       -0.001038      0.006098     -0.005060
    16   Atom       -0.007828     -0.004921      0.012749
    17   Atom       -0.000039      0.004593     -0.004554
 --------------------------------------------------------
                        XY            XZ            YZ
 --------------------------------------------------------
     1   Atom        0.002320      0.000000     -0.000001
     2   Atom       -0.006467      0.000000     -0.000002
     3   Atom       -0.002505      0.000001     -0.000002
     4   Atom        0.001430     -0.000004     -0.000002
     5   Atom       -0.005548      0.000001      0.000000
     6   Atom       -0.001415      0.000000      0.000000
     7   Atom        0.003694      0.000000      0.000000
     8   Atom       -0.033264      0.000000      0.000000
     9   Atom       -0.033169      0.000000      0.000000
    10   Atom       -0.002986     -0.000011      0.000012
    11   Atom       -0.000730      0.000001      0.000000
    12   Atom        0.000114      0.000000      0.000000
    13   Atom       -0.001493      0.002257     -0.000611
    14   Atom       -0.001493     -0.002256      0.000611
    15   Atom        0.003008      0.000000      0.000000
    16   Atom        0.003044     -0.000003      0.000001
    17   Atom        0.004552      0.000000      0.000000
 --------------------------------------------------------


 ---------------------------------------------------------------------------------
              Anisotropic Spin Dipole Couplings in Principal Axis System
 ---------------------------------------------------------------------------------

       Atom             a.u.   MegaHertz   Gauss  10(-4) cm-1        Axes

              Baa    -0.0544    -7.299    -2.604    -2.435  0.9728 -0.2314  0.0000
     1 C(13)  Bbb    -0.0441    -5.916    -2.111    -1.973  0.2314  0.9728  0.0000
              Bcc     0.0985    13.215     4.715     4.408  0.0000  0.0000  1.0000
 
              Baa    -0.2364   -31.729   -11.322   -10.584  0.7366  0.6763  0.0000
     2 C(13)  Bbb    -0.2235   -29.987   -10.700   -10.003 -0.6763  0.7366  0.0000
              Bcc     0.4599    61.716    22.022    20.586  0.0000  0.0000  1.0000
 
              Baa    -0.0279    -3.743    -1.336    -1.249  0.1762  0.9843  0.0000
     3 C(13)  Bbb    -0.0135    -1.805    -0.644    -0.602  0.9843 -0.1762  0.0000
              Bcc     0.0413     5.549     1.980     1.851  0.0000  0.0000  1.0000
 
              Baa    -0.1060   -14.224    -5.076    -4.745  0.9935 -0.1141  0.0000
     4 C(13)  Bbb    -0.0934   -12.531    -4.471    -4.180  0.1141  0.9935  0.0000
              Bcc     0.1994    26.755     9.547     8.925  0.0000  0.0000  1.0000
 
              Baa    -0.2337   -31.362   -11.191   -10.461  0.8673  0.4978  0.0000
     5 C(13)  Bbb    -0.2209   -29.638   -10.575    -9.886 -0.4978  0.8673  0.0000
              Bcc     0.4546    61.000    21.766    20.347  0.0000  0.0000  1.0000
 
              Baa    -0.0112    -1.499    -0.535    -0.500  0.1068  0.9943  0.0000
     6 C(13)  Bbb     0.0022     0.289     0.103     0.096  0.9943 -0.1068  0.0000
              Bcc     0.0090     1.210     0.432     0.404  0.0000  0.0000  1.0000
 
              Baa    -0.0085    -4.541    -1.620    -1.515 -0.1785  0.9839  0.0000
     7 H(1)   Bbb    -0.0040    -2.140    -0.764    -0.714  0.0000  0.0000  1.0000
              Bcc     0.0125     6.681     2.384     2.229  0.9839  0.1785  0.0000
 
              Baa    -0.0339   -18.075    -6.450    -6.029  0.7712  0.6366  0.0000
     8 H(1)   Bbb     0.0000    -0.001     0.000     0.000  0.0000  0.0000  1.0000
              Bcc     0.0339    18.076     6.450     6.029 -0.6366  0.7712  0.0000
 
              Baa    -0.0336   -17.936    -6.400    -5.983  0.7703  0.6377  0.0000
     9 H(1)   Bbb    -0.0003    -0.156    -0.056    -0.052  0.0000  0.0000  1.0000
              Bcc     0.0339    18.092     6.456     6.035 -0.6377  0.7703  0.0000
 
              Baa    -0.0539     3.904     1.393     1.302  0.3500  0.9368  0.0000
    10 O(17)  Bbb    -0.0448     3.245     1.158     1.082  0.9368 -0.3500  0.0001
              Bcc     0.0988    -7.148    -2.551    -2.384 -0.0001  0.0001  1.0000
 
              Baa    -0.0041    -0.554    -0.198    -0.185 -0.0001  0.0001  1.0000
    11 C(13)  Bbb    -0.0021    -0.282    -0.101    -0.094  0.0880  0.9961 -0.0001
              Bcc     0.0062     0.836     0.298     0.279  0.9961 -0.0880  0.0001
 
              Baa    -0.0019    -1.019    -0.364    -0.340  0.0000  0.0002  1.0000
    12 H(1)   Bbb    -0.0017    -0.917    -0.327    -0.306 -0.0214  0.9998 -0.0002
              Bcc     0.0036     1.936     0.691     0.646  0.9998  0.0214  0.0000
 
              Baa    -0.0033    -1.756    -0.626    -0.586 -0.1954  0.3153  0.9286
    13 H(1)   Bbb    -0.0027    -1.418    -0.506    -0.473  0.2577  0.9301 -0.2616
              Bcc     0.0059     3.173     1.132     1.058  0.9463 -0.1881  0.2630
 
              Baa    -0.0033    -1.756    -0.626    -0.586  0.1954 -0.3152  0.9287
    14 H(1)   Bbb    -0.0027    -1.418    -0.506    -0.473  0.2576  0.9302  0.2615
              Bcc     0.0059     3.173     1.132     1.058  0.9463 -0.1882 -0.2630
 
              Baa    -0.0051    -2.700    -0.963    -0.901  0.0000  0.0000  1.0000
    15 H(1)   Bbb    -0.0021    -1.140    -0.407    -0.380  0.9393 -0.3431  0.0000
              Bcc     0.0072     3.840     1.370     1.281  0.3431  0.9393  0.0000
 
              Baa    -0.0097     0.705     0.252     0.235  0.8459 -0.5334  0.0002
    16 O(17)  Bbb    -0.0030     0.217     0.077     0.072  0.5334  0.8459  0.0000
              Bcc     0.0127    -0.922    -0.329    -0.308 -0.0002  0.0000  1.0000
 
              Baa    -0.0046    -2.430    -0.867    -0.810  0.0000  0.0000  1.0000
    17 H(1)   Bbb    -0.0028    -1.510    -0.539    -0.504  0.8525 -0.5227  0.0000
              Bcc     0.0074     3.940     1.406     1.314  0.5227  0.8525  0.0000
 

 ---------------------------------------------------------------------------------

 No NMR shielding tensors so no spin-rotation constants.
 Leave Link  601 at Wed Dec 03 10:30:02 2025, MaxMem=   104857600 cpu:               0.0 elap:               0.3
 (Enter D:\Gaussian\G16W\l9999.exe)
 1|1|UNPC-PC-20250526LCFF|SP|UB3LYP|6-31G(d)|C7H8O2(1-,2)|ADMINISTRATOR
 |03-Dec-2025|0||#P B3LYP/6-31G* SCF=conver=7 out=wfn||Generated by Mul
 tiwfn (http://sobereva.com/multiwfn)||-1,2|C,0,-2.299181,-0.588486,-0.
 000019|C,0,-1.837988,0.729607,-0.000015|C,0,-0.474871,0.989131,-0.0000
 12|C,0,0.438651,-0.082854,-0.000013|C,0,-0.020852,-1.394115,-0.000018|
 C,0,-1.397432,-1.64505,-0.00002|H,0,-3.365497,-0.781155,-0.000021|H,0,
 -2.52191,1.569785,-0.000013|H,0,0.67688,-2.221309,-0.000021|O,0,1.7545
 2,0.315616,-0.000017|C,0,2.763987,-0.684275,0.000087|H,0,3.714572,-0.1
 53422,0.000129|H,0,2.698879,-1.313417,0.8943|H,0,2.699,-1.313484,-0.89
 4087|H,0,-1.751456,-2.669033,-0.000023|O,0,-0.020671,2.27267,-0.000008
 |H,0,0.944856,2.23199,-0.000001||Version=EM64W-G16RevA.03|State=2-A|HF
 =-421.8992631|S2=0.757222|S2-1=0.|S2A=0.750025|RMSD=2.255e-008|Dipole=
 2.0070654,-0.1251366,0.0000665|Quadrupole=-0.328164,-2.1266495,2.45481
 35,-0.0433974,0.0001126,-0.0000035|PG=C01 [X(C7H8O2)]||@

 Writing a WFN file to "N+1.wfn"


 I HAVE NOT FAILED, I HAVE ONLY DISCOVERED 10,000
 WAYS THAT DIDN'T WORK.  -- THOMAS A. EDISON
 Job cpu time:       0 days  0 hours  0 minutes 45.0 seconds.
 Elapsed time:       0 days  0 hours  0 minutes 45.5 seconds.
 File lengths (MBytes):  RWF=     27 Int=      0 D2E=      0 Chk=      3 Scr=      1
 Normal termination of Gaussian 16 at Wed Dec 03 10:30:02 2025.
