 Generated by Multiwfn (http://sobereva.com/multiwfn)
GAUSSIAN             65 MOL ORBITALS    284 PRIMITIVES       17 NUCLEI
  C    1    (CENTRE  1)  -4.34482237 -1.11207724 -0.00003599  CHARGE =  6.0
  C    2    (CENTRE  2)  -3.47329398  1.37875757 -0.00002843  CHARGE =  6.0
  C    3    (CENTRE  3)  -0.89737619  1.86918692 -0.00002276  CHARGE =  6.0
  C    4    (CENTRE  4)   0.82893026 -0.15657109 -0.00002465  CHARGE =  6.0
  C    5    (CENTRE  5)  -0.03940449 -2.63449528 -0.00003410  CHARGE =  6.0
  C    6    (CENTRE  6)  -2.64076367 -3.10869378 -0.00003788  CHARGE =  6.0
  H    7    (CENTRE  7)  -6.35986756 -1.47616894 -0.00003977  CHARGE =  1.0
  H    8    (CENTRE  8)  -4.76571930  2.96646384 -0.00002465  CHARGE =  1.0
  H    9    (CENTRE  9)   1.27911794 -4.19766535 -0.00003977  CHARGE =  1.0
  O   10    (CENTRE 10)   3.31556226  0.59642815 -0.00003221  CHARGE =  8.0
  C   11    (CENTRE 11)   5.22317848 -1.29309193  0.00016432  CHARGE =  6.0
  H   12    (CENTRE 12)   7.01952376 -0.28992510  0.00024369  CHARGE =  1.0
  H   13    (CENTRE 13)   5.10014223 -2.48199801  1.68998199  CHARGE =  1.0
  H   14    (CENTRE 14)   5.10037088 -2.48212462 -1.68957965  CHARGE =  1.0
  H   15    (CENTRE 15)  -3.30977201 -5.04374123 -0.00004355  CHARGE =  1.0
  O   16    (CENTRE 16)  -0.03906265  4.29472413 -0.00001520  CHARGE =  8.0
  H   17    (CENTRE 17)   1.78551894  4.21785012 -0.00000198  CHARGE =  1.0
CENTRE ASSIGNMENTS    1  1  1  1  1  1  1  1  1  1  1  1  1  1  1  1  1  1  1  1
CENTRE ASSIGNMENTS    1  1  1  1  1  1  1  1  2  2  2  2  2  2  2  2  2  2  2  2
CENTRE ASSIGNMENTS    2  2  2  2  2  2  2  2  2  2  2  2  2  2  2  2  3  3  3  3
CENTRE ASSIGNMENTS    3  3  3  3  3  3  3  3  3  3  3  3  3  3  3  3  3  3  3  3
CENTRE ASSIGNMENTS    3  3  3  3  4  4  4  4  4  4  4  4  4  4  4  4  4  4  4  4
CENTRE ASSIGNMENTS    4  4  4  4  4  4  4  4  4  4  4  4  5  5  5  5  5  5  5  5
CENTRE ASSIGNMENTS    5  5  5  5  5  5  5  5  5  5  5  5  5  5  5  5  5  5  5  5
CENTRE ASSIGNMENTS    6  6  6  6  6  6  6  6  6  6  6  6  6  6  6  6  6  6  6  6
CENTRE ASSIGNMENTS    6  6  6  6  6  6  6  6  7  7  7  7  8  8  8  8  9  9  9  9
CENTRE ASSIGNMENTS   10 10 10 10 10 10 10 10 10 10 10 10 10 10 10 10 10 10 10 10
CENTRE ASSIGNMENTS   10 10 10 10 10 10 10 10 11 11 11 11 11 11 11 11 11 11 11 11
CENTRE ASSIGNMENTS   11 11 11 11 11 11 11 11 11 11 11 11 11 11 11 11 12 12 12 12
CENTRE ASSIGNMENTS   13 13 13 13 14 14 14 14 15 15 15 15 16 16 16 16 16 16 16 16
CENTRE ASSIGNMENTS   16 16 16 16 16 16 16 16 16 16 16 16 16 16 16 16 16 16 16 16
CENTRE ASSIGNMENTS   17 17 17 17
TYPE ASSIGNMENTS      1  1  1  1  1  1  1  1  1  2  2  2  3  3  3  4  4  4  1  2
TYPE ASSIGNMENTS      3  4  5  6  7  8  9 10  1  1  1  1  1  1  1  1  1  2  2  2
TYPE ASSIGNMENTS      3  3  3  4  4  4  1  2  3  4  5  6  7  8  9 10  1  1  1  1
TYPE ASSIGNMENTS      1  1  1  1  1  2  2  2  3  3  3  4  4  4  1  2  3  4  5  6
TYPE ASSIGNMENTS      7  8  9 10  1  1  1  1  1  1  1  1  1  2  2  2  3  3  3  4
TYPE ASSIGNMENTS      4  4  1  2  3  4  5  6  7  8  9 10  1  1  1  1  1  1  1  1
TYPE ASSIGNMENTS      1  2  2  2  3  3  3  4  4  4  1  2  3  4  5  6  7  8  9 10
TYPE ASSIGNMENTS      1  1  1  1  1  1  1  1  1  2  2  2  3  3  3  4  4  4  1  2
TYPE ASSIGNMENTS      3  4  5  6  7  8  9 10  1  1  1  1  1  1  1  1  1  1  1  1
TYPE ASSIGNMENTS      1  1  1  1  1  1  1  1  1  2  2  2  3  3  3  4  4  4  1  2
TYPE ASSIGNMENTS      3  4  5  6  7  8  9 10  1  1  1  1  1  1  1  1  1  2  2  2
TYPE ASSIGNMENTS      3  3  3  4  4  4  1  2  3  4  5  6  7  8  9 10  1  1  1  1
TYPE ASSIGNMENTS      1  1  1  1  1  1  1  1  1  1  1  1  1  1  1  1  1  1  1  1
TYPE ASSIGNMENTS      1  2  2  2  3  3  3  4  4  4  1  2  3  4  5  6  7  8  9 10
TYPE ASSIGNMENTS      1  1  1  1
EXPONENTS  0.3047525D+04 0.4573695D+03 0.1039487D+03 0.2921016D+02 0.9286663D+01
EXPONENTS  0.3163927D+01 0.7868272D+01 0.1881289D+01 0.5442493D+00 0.7868272D+01
EXPONENTS  0.1881289D+01 0.5442493D+00 0.7868272D+01 0.1881289D+01 0.5442493D+00
EXPONENTS  0.7868272D+01 0.1881289D+01 0.5442493D+00 0.1687145D+00 0.1687145D+00
EXPONENTS  0.1687145D+00 0.1687145D+00 0.8000000D+00 0.8000000D+00 0.8000000D+00
EXPONENTS  0.8000000D+00 0.8000000D+00 0.8000000D+00 0.3047525D+04 0.4573695D+03
EXPONENTS  0.1039487D+03 0.2921016D+02 0.9286663D+01 0.3163927D+01 0.7868272D+01
EXPONENTS  0.1881289D+01 0.5442493D+00 0.7868272D+01 0.1881289D+01 0.5442493D+00
EXPONENTS  0.7868272D+01 0.1881289D+01 0.5442493D+00 0.7868272D+01 0.1881289D+01
EXPONENTS  0.5442493D+00 0.1687145D+00 0.1687145D+00 0.1687145D+00 0.1687145D+00
EXPONENTS  0.8000000D+00 0.8000000D+00 0.8000000D+00 0.8000000D+00 0.8000000D+00
EXPONENTS  0.8000000D+00 0.3047525D+04 0.4573695D+03 0.1039487D+03 0.2921016D+02
EXPONENTS  0.9286663D+01 0.3163927D+01 0.7868272D+01 0.1881289D+01 0.5442493D+00
EXPONENTS  0.7868272D+01 0.1881289D+01 0.5442493D+00 0.7868272D+01 0.1881289D+01
EXPONENTS  0.5442493D+00 0.7868272D+01 0.1881289D+01 0.5442493D+00 0.1687145D+00
EXPONENTS  0.1687145D+00 0.1687145D+00 0.1687145D+00 0.8000000D+00 0.8000000D+00
EXPONENTS  0.8000000D+00 0.8000000D+00 0.8000000D+00 0.8000000D+00 0.3047525D+04
EXPONENTS  0.4573695D+03 0.1039487D+03 0.2921016D+02 0.9286663D+01 0.3163927D+01
EXPONENTS  0.7868272D+01 0.1881289D+01 0.5442493D+00 0.7868272D+01 0.1881289D+01
EXPONENTS  0.5442493D+00 0.7868272D+01 0.1881289D+01 0.5442493D+00 0.7868272D+01
EXPONENTS  0.1881289D+01 0.5442493D+00 0.1687145D+00 0.1687145D+00 0.1687145D+00
EXPONENTS  0.1687145D+00 0.8000000D+00 0.8000000D+00 0.8000000D+00 0.8000000D+00
EXPONENTS  0.8000000D+00 0.8000000D+00 0.3047525D+04 0.4573695D+03 0.1039487D+03
EXPONENTS  0.2921016D+02 0.9286663D+01 0.3163927D+01 0.7868272D+01 0.1881289D+01
EXPONENTS  0.5442493D+00 0.7868272D+01 0.1881289D+01 0.5442493D+00 0.7868272D+01
EXPONENTS  0.1881289D+01 0.5442493D+00 0.7868272D+01 0.1881289D+01 0.5442493D+00
EXPONENTS  0.1687145D+00 0.1687145D+00 0.1687145D+00 0.1687145D+00 0.8000000D+00
EXPONENTS  0.8000000D+00 0.8000000D+00 0.8000000D+00 0.8000000D+00 0.8000000D+00
EXPONENTS  0.3047525D+04 0.4573695D+03 0.1039487D+03 0.2921016D+02 0.9286663D+01
EXPONENTS  0.3163927D+01 0.7868272D+01 0.1881289D+01 0.5442493D+00 0.7868272D+01
EXPONENTS  0.1881289D+01 0.5442493D+00 0.7868272D+01 0.1881289D+01 0.5442493D+00
EXPONENTS  0.7868272D+01 0.1881289D+01 0.5442493D+00 0.1687145D+00 0.1687145D+00
EXPONENTS  0.1687145D+00 0.1687145D+00 0.8000000D+00 0.8000000D+00 0.8000000D+00
EXPONENTS  0.8000000D+00 0.8000000D+00 0.8000000D+00 0.1873114D+02 0.2825394D+01
EXPONENTS  0.6401217D+00 0.1612778D+00 0.1873114D+02 0.2825394D+01 0.6401217D+00
EXPONENTS  0.1612778D+00 0.1873114D+02 0.2825394D+01 0.6401217D+00 0.1612778D+00
EXPONENTS  0.5484672D+04 0.8252349D+03 0.1880470D+03 0.5296450D+02 0.1689757D+02
EXPONENTS  0.5799635D+01 0.1553962D+02 0.3599934D+01 0.1013762D+01 0.1553962D+02
EXPONENTS  0.3599934D+01 0.1013762D+01 0.1553962D+02 0.3599934D+01 0.1013762D+01
EXPONENTS  0.1553962D+02 0.3599934D+01 0.1013762D+01 0.2700058D+00 0.2700058D+00
EXPONENTS  0.2700058D+00 0.2700058D+00 0.8000000D+00 0.8000000D+00 0.8000000D+00
EXPONENTS  0.8000000D+00 0.8000000D+00 0.8000000D+00 0.3047525D+04 0.4573695D+03
EXPONENTS  0.1039487D+03 0.2921016D+02 0.9286663D+01 0.3163927D+01 0.7868272D+01
EXPONENTS  0.1881289D+01 0.5442493D+00 0.7868272D+01 0.1881289D+01 0.5442493D+00
EXPONENTS  0.7868272D+01 0.1881289D+01 0.5442493D+00 0.7868272D+01 0.1881289D+01
EXPONENTS  0.5442493D+00 0.1687145D+00 0.1687145D+00 0.1687145D+00 0.1687145D+00
EXPONENTS  0.8000000D+00 0.8000000D+00 0.8000000D+00 0.8000000D+00 0.8000000D+00
EXPONENTS  0.8000000D+00 0.1873114D+02 0.2825394D+01 0.6401217D+00 0.1612778D+00
EXPONENTS  0.1873114D+02 0.2825394D+01 0.6401217D+00 0.1612778D+00 0.1873114D+02
EXPONENTS  0.2825394D+01 0.6401217D+00 0.1612778D+00 0.1873114D+02 0.2825394D+01
EXPONENTS  0.6401217D+00 0.1612778D+00 0.5484672D+04 0.8252349D+03 0.1880470D+03
EXPONENTS  0.5296450D+02 0.1689757D+02 0.5799635D+01 0.1553962D+02 0.3599934D+01
EXPONENTS  0.1013762D+01 0.1553962D+02 0.3599934D+01 0.1013762D+01 0.1553962D+02
EXPONENTS  0.3599934D+01 0.1013762D+01 0.1553962D+02 0.3599934D+01 0.1013762D+01
EXPONENTS  0.2700058D+00 0.2700058D+00 0.2700058D+00 0.2700058D+00 0.8000000D+00
EXPONENTS  0.8000000D+00 0.8000000D+00 0.8000000D+00 0.8000000D+00 0.8000000D+00
EXPONENTS  0.1873114D+02 0.2825394D+01 0.6401217D+00 0.1612778D+00
MO    1     MO 0.0        OCC NO =    1.0000000  ORB. ENERGY =  -19.412984
  0.68613796D-05  0.12657906D-04  0.20433784D-04  0.26598716D-04  0.22696732D-04
  0.78366363D-05 -0.28386437D-04 -0.13083283D-04  0.36686891D-04  0.12931595D-04
  0.99151270D-05  0.49483433D-05  0.17872554D-04  0.13703541D-04  0.68390273D-05
  0.93913294D-09  0.72006757D-09  0.35936418D-09 -0.22675308D-03 -0.10175375D-03
 -0.38097041D-04 -0.74109548D-09  0.10540457D-04 -0.25627280D-04  0.31542367D-04
  0.21673178D-04 -0.52341869D-09 -0.60918675D-09  0.40878059D-05  0.75412038D-05
  0.12173841D-04  0.15846724D-04  0.13522038D-04  0.46688349D-05 -0.85579740D-05
 -0.39443624D-05  0.11060404D-04  0.75527139D-04  0.57909420D-04  0.28900859D-04
 -0.15999809D-04 -0.12267639D-04 -0.61224117D-05  0.47972098D-09  0.36781962D-09
  0.18356777D-09  0.25058458D-03  0.47879156D-04 -0.10486562D-03  0.58233430D-09
  0.22740273D-04  0.22082418D-04  0.29028917D-04  0.13647668D-04  0.17830847D-08
  0.60701388D-09  0.13077189D-04  0.24124861D-04  0.38945006D-04  0.50694826D-04
  0.43257987D-04  0.14935943D-04 -0.69624810D-04 -0.32090011D-04  0.89983741D-04
  0.36558568D-04  0.28030791D-04  0.13989329D-04  0.76783065D-04  0.58872384D-04
  0.29381446D-04  0.22735399D-08  0.17432062D-08  0.86998207D-09 -0.11349919D-03
  0.16185706D-03  0.34260159D-03 -0.16520935D-08 -0.59452906D-04  0.75487480D-04
  0.30711722D-04  0.78391470D-04 -0.76117396D-10  0.22399230D-08 -0.24512099D-04
 -0.45220036D-04 -0.72999159D-04 -0.95023215D-04 -0.81083481D-04 -0.27996178D-04
 -0.42062522D-04 -0.19386578D-04  0.54361988D-04  0.53922676D-03  0.41344487D-03
  0.20633797D-03  0.24875689D-03  0.19073100D-03  0.95188138D-04 -0.10708374D-07
 -0.82105024D-08 -0.40976161D-08  0.11635400D-04 -0.68172184D-03 -0.34123951D-03
  0.41259883D-08  0.46814227D-04  0.14942179D-04 -0.91730962D-04  0.18149987D-03
 -0.40304491D-08 -0.62936046D-08  0.10964133D-04  0.20226685D-04  0.32652141D-04
  0.42503386D-04  0.36268216D-04  0.12522543D-04 -0.77993083D-04 -0.35946941D-04
  0.10079897D-03 -0.84528968D-04 -0.64811451D-04 -0.32345457D-04 -0.63754624D-04
 -0.48883002D-04 -0.24396044D-04 -0.10087713D-08 -0.77346182D-09 -0.38601166D-09
 -0.60224349D-03  0.24279237D-03 -0.25163730D-03 -0.23353738D-08 -0.69870793D-04
 -0.88273893D-04  0.46325055D-04 -0.96792736D-05  0.67727445D-09 -0.68336929D-08
 -0.37240225D-05 -0.68700943D-05 -0.11090462D-04 -0.14436487D-04 -0.12318680D-04
 -0.42533442D-05  0.23196567D-04  0.10691277D-04 -0.29979456D-04  0.90182929D-04
  0.69146550D-04  0.34508975D-04  0.18567082D-04  0.14236061D-04  0.71047920D-05
  0.86780095D-09  0.66537472D-09  0.33206862D-09  0.35095967D-03  0.87701552D-04
  0.11859743D-03  0.69051374D-09  0.55434305D-04 -0.61124343D-05 -0.21312234D-05
 -0.59626445D-06  0.88158979D-09 -0.46958138D-09 -0.40171731D-05 -0.68138860D-05
 -0.77573683D-05 -0.29770332D-04  0.56315410D-05  0.95521594D-05  0.10874796D-04
  0.21945833D-04 -0.16460930D-04 -0.27920853D-04 -0.31786904D-04 -0.12111021D-03
  0.82554310D+00  0.15194400D+01  0.24587407D+01  0.32320835D+01  0.27721393D+01
  0.94784149D+00 -0.15742322D-01 -0.70241936D-02  0.20742538D-01 -0.73014458D-03
 -0.56253704D-03 -0.24698406D-03 -0.27575873D-02 -0.21245724D-02 -0.93280170D-03
  0.16251050D-06  0.12520558D-06  0.54971994D-07  0.41948949D-02 -0.31386743D-03
 -0.33376898D-04  0.53129742D-08 -0.96025214D-02 -0.96593798D-02 -0.94757087D-02
  0.18174730D-03 -0.23987003D-07  0.30114312D-07  0.82927255D-05  0.15298459D-04
  0.24696457D-04  0.32147449D-04  0.27431476D-04  0.94714295D-05 -0.71868516D-04
 -0.33124133D-04  0.92883527D-04 -0.34707986D-03 -0.26611882D-03 -0.13281194D-03
  0.46662171D-03  0.35777593D-03  0.17855526D-03 -0.47216654D-07 -0.36202736D-07
 -0.18067702D-07 -0.32619357D-03  0.59628239D-04 -0.11469093D-03  0.91354175D-08
  0.25589112D-03  0.31344067D-03  0.30151217D-04 -0.51918487D-03  0.49930200D-07
 -0.68349093D-07  0.27665998D-04  0.46926770D-04  0.53424469D-04  0.28959944D-04
  0.13579390D-04  0.23033215D-04  0.26222502D-04  0.10968656D-04  0.13580871D-04
  0.23035727D-04  0.26225361D-04  0.10966512D-04  0.34526869D-05  0.58564105D-05
  0.66673164D-05  0.28328482D-04  0.29774148D-04  0.54800326D-04  0.88677272D-04
  0.11656876D-03  0.99980345D-04  0.34184978D-04 -0.10456610D-03 -0.46657191D-04
  0.13777931D-03 -0.13662440D-03 -0.10526173D-03 -0.46215571D-04 -0.21235538D-03
 -0.16360837D-03 -0.71832887D-04 -0.66036747D-08 -0.50877754D-08 -0.22338074D-08
 -0.30720937D-03  0.15762188D-03  0.18260105D-03  0.31343655D-08  0.16693790D-03
 -0.76133610D-05  0.11538797D-03 -0.55029133D-04  0.86187758D-09 -0.30549359D-08
 -0.56987018D-05 -0.96660769D-05 -0.11004487D-04 -0.15777705D-03
MO    2     MO 0.0        OCC NO =    1.0000000  ORB. ENERGY =  -19.405353
  0.57987951D-06  0.10697645D-05  0.17269316D-05  0.22479518D-05  0.19181813D-05
  0.66230191D-06  0.78707164D-05  0.36276060D-05 -0.10172186D-04  0.52052899D-04
  0.39910862D-04  0.19918317D-04  0.67171244D-04  0.51502649D-04  0.25703432D-04
  0.13765422D-09  0.10554453D-09  0.52674116D-10  0.36884621D-03  0.12607871D-03
  0.40244432D-04  0.40856453D-09  0.28464880D-06  0.51795679D-04  0.22354596D-04
 -0.19729044D-04  0.54927141D-10 -0.12478455D-09  0.77319962D-05  0.14264023D-04
  0.23026556D-04  0.29973734D-04  0.25576642D-04  0.88309998D-05 -0.68218105D-04
 -0.31441662D-04  0.88165702D-04 -0.14468035D-04 -0.11093171D-04 -0.55362700D-05
 -0.12748971D-04 -0.97751020D-05 -0.48784610D-05 -0.28959850D-09 -0.22204576D-09
 -0.11081640D-09 -0.41351143D-03 -0.18395502D-03  0.31141995D-03  0.56298255D-09
 -0.89511183D-04 -0.56981348D-04  0.33501154D-04  0.22964736D-04 -0.42839070D-09
 -0.22966181D-09 -0.36085442D-04 -0.66570594D-04 -0.10746558D-03 -0.13988825D-03
 -0.11936690D-03 -0.41214523D-04 -0.30317857D-04 -0.13973473D-04  0.39183076D-04
  0.14388415D-03  0.11032124D-03  0.55058031D-04  0.56036860D-03  0.42965510D-03
  0.21442801D-03  0.17853774D-08  0.13689142D-08  0.68318411D-09  0.23384098D-03
 -0.17017840D-03 -0.91040480D-03 -0.25432462D-08 -0.69132091D-04 -0.54144124D-04
 -0.13637973D-03 -0.12526654D-03 -0.77076612D-10 -0.24788609D-09  0.27581833D-04
  0.50883097D-04  0.82141095D-04  0.10692330D-03  0.91237846D-04  0.31502236D-04
 -0.12623962D-03 -0.58183724D-04  0.16315324D-03  0.23135757D-04  0.17739031D-04
  0.88530196D-05 -0.56863784D-04 -0.43599543D-04 -0.21759227D-04 -0.31113960D-08
 -0.23856211D-08 -0.11905921D-08 -0.73049322D-03  0.61194359D-03  0.10503005D-03
  0.11163283D-08  0.62553973D-04 -0.68126456D-04  0.83181828D-04  0.10840219D-03
 -0.26889322D-08 -0.23140493D-08 -0.51827404D-05 -0.95611440D-05 -0.15434651D-04
 -0.20091329D-04 -0.17143968D-04 -0.59194001D-05  0.28609007D-04  0.13185865D-04
 -0.36974542D-04  0.40563114D-04  0.31101223D-04  0.15521690D-04  0.10240056D-03
  0.78514254D-04  0.39184116D-04 -0.13046023D-08 -0.10002863D-08 -0.49921297D-09
  0.51858340D-03 -0.18196574D-03  0.21391321D-03  0.12792854D-08 -0.12778237D-05
  0.47727866D-04 -0.43434948D-05  0.48714499D-05  0.17733891D-09  0.51077144D-09
  0.97555098D-05  0.17997011D-04  0.29052755D-04  0.37818055D-04  0.32270215D-04
  0.11142130D-04 -0.40463226D-04 -0.18649464D-04  0.52295044D-04 -0.31307024D-04
 -0.24004240D-04 -0.11979798D-04  0.23280926D-04  0.17850337D-04  0.89085693D-05
  0.45640886D-09  0.34994537D-09  0.17464726D-09 -0.35123765D-03 -0.68090944D-04
 -0.15229008D-03 -0.78143079D-09 -0.29417834D-04  0.11885129D-04  0.40697245D-04
  0.20508275D-04 -0.67812012D-09 -0.13580023D-09  0.25782798D-05  0.43732505D-05
  0.49787912D-05  0.20845799D-04 -0.12365951D-04 -0.20974994D-04 -0.23879289D-04
 -0.15092556D-03  0.11731275D-04  0.19898462D-04  0.22653696D-04  0.89822410D-04
  0.40678732D-04  0.74870582D-04  0.12115473D-03  0.15926129D-03  0.13659748D-03
  0.46704999D-04 -0.16279541D-03 -0.72638996D-04  0.21450393D-03 -0.14199088D-03
 -0.10939632D-03 -0.48030876D-04 -0.11524356D-03 -0.88788947D-04 -0.38983130D-04
 -0.53434583D-08 -0.41168466D-08 -0.18075174D-08 -0.48254717D-03  0.17920323D-03
  0.10692719D-03  0.20085046D-08  0.83224848D-04  0.17492445D-03  0.16472040D-03
 -0.71452466D-04  0.11175950D-08  0.95867108D-09  0.10665345D-04  0.19675478D-04
  0.31762323D-04  0.41345107D-04  0.35279854D-04  0.12181286D-04 -0.32897313D-04
 -0.15162341D-04  0.42516788D-04 -0.64155300D-04 -0.49190215D-04 -0.24549365D-04
  0.21012558D-04  0.16111097D-04  0.80405665D-05 -0.53145461D-08 -0.40748569D-08
 -0.20336392D-08 -0.51667399D-04  0.31919649D-04 -0.99063840D-05  0.99571922D-09
  0.35591172D-04  0.17628184D-04  0.42392481D-04  0.40477845D-05  0.49920435D-08
  0.14677953D-08 -0.67997811D-06 -0.11533716D-05 -0.13130728D-05 -0.72756478D-05
  0.49404063D-05  0.83798642D-05  0.95401792D-05 -0.58921419D-05  0.49404682D-05
  0.83799691D-05  0.95402987D-05 -0.58930318D-05 -0.59120752D-05 -0.10027999D-04
 -0.11416522D-04 -0.45942357D-04  0.82557603D+00  0.15195006D+01  0.24588388D+01
  0.32322124D+01  0.27722498D+01  0.94787930D+00 -0.15801855D-01 -0.70507568D-02
  0.20820979D-01  0.20478678D-02  0.15777718D-02  0.69272678D-03 -0.26508951D-02
 -0.20423718D-02 -0.89671121D-03  0.85809477D-08  0.66111576D-08  0.29026543D-08
  0.40911614D-02 -0.20467263D-03 -0.34787185D-03 -0.11406928D-08 -0.94157326D-02
 -0.93468599D-02 -0.93138424D-02  0.16777429D-03 -0.17676122D-08  0.32997469D-09
  0.88811992D-04  0.15064195D-03  0.17150053D-03 -0.21181086D-03
MO    3     MO 0.0        OCC NO =    1.0000000  ORB. ENERGY =  -10.481947
  0.25943705D-04  0.47861070D-04  0.77262608D-04  0.10057296D-03  0.85819087D-04
  0.29631269D-04 -0.74481951D-04 -0.34328663D-04  0.96261155D-04 -0.95578075D-04
 -0.73283206D-04 -0.36573456D-04 -0.16187876D-03 -0.12411837D-03 -0.61943764D-04
 -0.46089355D-09 -0.35338394D-09 -0.17636335D-09 -0.13711166D-02 -0.54480453D-03
 -0.17039839D-03 -0.14061435D-08  0.54877019D-04  0.24014129D-04  0.35556372D-04
  0.64199324D-04 -0.59466078D-10  0.82748926D-09  0.15293927D-02  0.28214308D-02
  0.45546642D-02  0.59288194D-02  0.50590724D-02  0.17467761D-02  0.28556471D-03
  0.13161652D-03 -0.36906645D-03 -0.29596158D-03 -0.22692457D-03 -0.11325126D-03
  0.10727555D-03  0.82252089D-04  0.41049557D-04  0.40763340D-09  0.31254743D-09
  0.15598307D-09  0.22980602D-02  0.81359005D-03 -0.82682706D-03 -0.12371033D-08
 -0.31314371D-03 -0.30977218D-03 -0.34342687D-03 -0.27373327D-03 -0.11716004D-08
 -0.69246413D-09  0.53048770D+00  0.97864623D+00  0.15798385D+01  0.20564803D+01
  0.17547983D+01  0.60588969D+00 -0.19910308D-01 -0.91766429D-02  0.25732265D-01
  0.56002090D-03  0.42938851D-03  0.21429496D-03  0.65604417D-03  0.50301306D-03
  0.25103877D-03  0.63205500D-08  0.48461968D-08  0.24185919D-08 -0.37468425D-02
  0.51906455D-03  0.17289923D-02  0.59597711D-08 -0.10222881D-01 -0.97059768D-02
 -0.10455601D-01  0.44127491D-03  0.58066504D-08  0.96146005D-09  0.46285452D-01
  0.85387620D-01  0.13784209D+00  0.17942945D+00  0.15310748D+00  0.52864332D-01
 -0.13815344D-02 -0.63674795D-03  0.17855077D-02  0.36341286D-03  0.27864193D-03
  0.13906185D-03 -0.23897469D-03 -0.18323064D-03 -0.91444930D-04  0.42309072D-08
  0.32439913D-08  0.16189790D-08  0.22133005D-02 -0.12031710D-02  0.36401039D-04
 -0.26985944D-08 -0.12080256D-02 -0.14767612D-02 -0.12641746D-02  0.88884878D-04
  0.40789000D-08  0.10515058D-08  0.15511697D-03  0.28616052D-03  0.46195181D-03
  0.60132400D-03  0.51311086D-03  0.17716485D-03 -0.36152673D-04 -0.16662734D-04
  0.46724045D-04  0.13042183D-04  0.99999187D-05  0.49906603D-05 -0.15920960D-03
 -0.12207183D-03 -0.60922396D-04  0.37331352D-08  0.28623313D-08  0.14285039D-08
 -0.11515967D-02  0.38002754D-03 -0.44571896D-03 -0.26080682D-08  0.24691814D-04
  0.51473533D-04 -0.41204420D-05  0.45232337D-04 -0.17188629D-09  0.49468862D-09
 -0.63284668D-04 -0.11674786D-03 -0.18846724D-03 -0.24532835D-03 -0.20933912D-03
 -0.72279768D-04  0.13743502D-03  0.63343673D-04 -0.17762227D-03 -0.39924333D-04
 -0.30611446D-04 -0.15277257D-04 -0.64693177D-04 -0.49602625D-04 -0.24755186D-04
 -0.14304350D-08 -0.10967668D-08 -0.54736350D-09  0.10291897D-02  0.17565462D-03
  0.49689770D-03  0.21492361D-08  0.23743494D-04 -0.20293939D-04 -0.14016517D-03
 -0.47396224D-04  0.14879086D-08  0.63420748D-09 -0.14878053D-04 -0.25235994D-04
 -0.28730287D-04 -0.11199488D-03  0.44574858D-04  0.75607395D-04  0.86076347D-04
  0.35004343D-03 -0.17695777D-04 -0.30015387D-04 -0.34171457D-04 -0.16925289D-03
 -0.52879648D-04 -0.97326781D-04 -0.15749310D-03 -0.20702909D-03 -0.17756765D-03
 -0.60713395D-04  0.19183494D-03  0.85596377D-04 -0.25276725D-03  0.55790319D-04
  0.42983433D-04  0.18872042D-04 -0.17000172D-04 -0.13097716D-04 -0.57506028D-05
  0.91676677D-08  0.70631937D-08  0.31011225D-08  0.56789841D-03 -0.14056568D-03
 -0.43569431D-04 -0.47162823D-08 -0.14169297D-03 -0.17253984D-03 -0.17616312D-03
 -0.81175982D-05 -0.14876291D-08  0.79839273D-08 -0.24316292D-04 -0.44858810D-04
 -0.72416028D-04 -0.94264152D-04 -0.80435771D-04 -0.27772539D-04  0.62775475D-04
  0.28933159D-04 -0.81131598D-04  0.61258201D-04  0.46968903D-04  0.23440774D-04
 -0.12573244D-04 -0.96403661D-05 -0.48112183D-05  0.51699463D-08  0.39639869D-08
  0.19783073D-08  0.11175047D-03 -0.91349563D-04 -0.86247208D-05 -0.21569245D-08
  0.20202214D-04 -0.77526146D-04 -0.36237277D-04 -0.28399653D-04 -0.93371365D-09
  0.54051353D-08  0.45220678D-05  0.76702829D-05  0.87323459D-05  0.34554697D-04
 -0.12820114D-04 -0.21745340D-04 -0.24756301D-04 -0.11768796D-05 -0.12821206D-04
 -0.21747193D-04 -0.24758410D-04 -0.11720495D-05  0.21866486D-04  0.37089698D-04
  0.42225310D-04  0.15670990D-03  0.12464350D-03  0.22941057D-03  0.37122961D-03
  0.48799172D-03  0.41854766D-03  0.14310855D-03 -0.68680977D-03 -0.30645318D-03
  0.90496035D-03 -0.52969229D-04 -0.40809936D-04 -0.17917760D-04  0.12879515D-04
  0.99229721D-05  0.43567192D-05  0.27503137D-10  0.21189684D-10  0.93034127D-11
 -0.16968794D-02  0.26481377D-03  0.70237622D-03  0.18760553D-08  0.62362175D-03
 -0.19530399D-03  0.97087472D-03 -0.75408460D-03 -0.37631494D-08 -0.64889266D-08
  0.40756856D-04  0.69131341D-04  0.78703589D-04 -0.26777058D-04
MO    4     MO 0.0        OCC NO =    1.0000000  ORB. ENERGY =  -10.479067
 -0.68874668D-04 -0.12706031D-03 -0.20511474D-03 -0.26699845D-03 -0.22783026D-03
 -0.78664314D-04  0.15922481D-03  0.73386571D-04 -0.20578361D-03 -0.52257407D-04
 -0.40067665D-04 -0.19996573D-04 -0.27470785D-04 -0.21062855D-04 -0.10511841D-04
 -0.55576679D-09 -0.42612673D-09 -0.21266710D-09  0.12751945D-02  0.58713921D-03
  0.16356647D-03  0.13169463D-08 -0.39676474D-04  0.35169042D-04 -0.16101766D-03
 -0.40630802D-04  0.49123524D-09  0.14772736D-08 -0.12821065D-03 -0.23652361D-03
 -0.38182244D-03 -0.49701937D-03 -0.42410753D-03 -0.14643414D-03 -0.61888606D-04
 -0.28524402D-04  0.79985401D-04 -0.11191060D-03 -0.85805947D-04 -0.42823181D-04
  0.24487520D-04  0.18775477D-04  0.93702790D-05 -0.81816881D-09 -0.62731995D-09
 -0.31307662D-09 -0.14622863D-02 -0.38711558D-03  0.56016986D-03  0.71581261D-09
  0.16513383D-03  0.36927122D-04  0.33484181D-04  0.62953659D-04 -0.14366555D-10
 -0.24683034D-09 -0.46589154D-01 -0.85947892D-01 -0.13874655D+00 -0.18060678D+00
 -0.15411209D+00 -0.53211202D-01  0.20552275D-02  0.94725250D-03 -0.26561949D-02
 -0.31239753D-03 -0.23952661D-03 -0.11954057D-03  0.22115979D-03  0.16957130D-03
  0.84627964D-04 -0.15093267D-08 -0.11572560D-08 -0.57755185D-09  0.23630875D-02
 -0.25372870D-03 -0.13480492D-02 -0.26367933D-08  0.26979053D-03  0.43273392D-03
  0.58838165D-03  0.19648426D-03 -0.61354976D-09 -0.16372443D-08  0.53051199D+00
  0.97869103D+00  0.15799108D+01  0.20565744D+01  0.17548787D+01  0.60591743D+00
 -0.19907925D-01 -0.91755444D-02  0.25729184D-01  0.77387830D-03  0.59336080D-03
  0.29612862D-03  0.59568934D-03  0.45673680D-03  0.22794367D-03 -0.69547262D-08
 -0.53324430D-08 -0.26612628D-08 -0.39995393D-02  0.18430394D-02  0.52027458D-03
  0.25450104D-08 -0.95494123D-02 -0.10042933D-01 -0.10402916D-01  0.41097899D-03
 -0.74842633D-08 -0.21797217D-08  0.16150079D-02  0.29793742D-02  0.48096337D-02
  0.62607140D-02  0.53422786D-02  0.18445604D-02  0.30839334D-03  0.14213821D-03
 -0.39857038D-03  0.94186408D-04  0.72216164D-04  0.36040927D-04 -0.29186602D-03
 -0.22378435D-03 -0.11168408D-03  0.13568456D-08  0.10403432D-08  0.51920415D-09
  0.26907170D-02 -0.70920052D-03  0.10540006D-02  0.25317840D-08 -0.31550774D-03
 -0.33676970D-03 -0.35508486D-03 -0.23440610D-03 -0.20201679D-08  0.97367835D-09
  0.40815134D-04  0.75295953D-04  0.12155101D-03  0.15822331D-03  0.13501223D-03
  0.46616480D-04 -0.10547186D-03 -0.48611886D-04  0.13631280D-03 -0.17980158D-03
 -0.13786045D-03 -0.68802027D-04 -0.44110663D-04 -0.33821259D-04 -0.16879179D-04
 -0.18021085D-08 -0.13817425D-08 -0.68958636D-09 -0.15204459D-02 -0.30537448D-03
 -0.60691363D-03 -0.11563017D-08  0.16264916D-04  0.59278688D-04  0.70231565D-04
  0.61731421D-04  0.44934506D-09  0.17467355D-08  0.21466379D-04  0.36411041D-04
  0.41452684D-04  0.16819393D-03 -0.27689702D-04 -0.46966976D-04 -0.53470242D-04
 -0.14834852D-03  0.46731186D-04  0.79264936D-04  0.90240328D-04  0.35395493D-03
  0.12362014D-03  0.22752704D-03  0.36818171D-03  0.48398516D-03  0.41511126D-03
  0.14193359D-03 -0.69438583D-03 -0.30983360D-03  0.91494278D-03 -0.23402385D-03
 -0.18030276D-03 -0.79162625D-04  0.13869532D-04  0.10685727D-04  0.46916096D-05
  0.11089214D-07  0.85436417D-08  0.37511189D-08 -0.16854352D-02  0.84839601D-03
  0.22116312D-03 -0.77255076D-08 -0.34910890D-03  0.66827439D-03  0.94214110D-03
 -0.64207169D-03  0.13419669D-07  0.19374732D-07 -0.92300806D-05 -0.17027696D-04
 -0.27487982D-04 -0.35781185D-04 -0.30532150D-04 -0.10542018D-04  0.25488908D-04
  0.11747814D-04 -0.32942098D-04 -0.35715287D-04 -0.27384217D-04 -0.13666644D-04
  0.13006902D-04  0.99728674D-05  0.49771598D-05 -0.77373804D-08 -0.59325325D-08
 -0.29607495D-08 -0.52634542D-04 -0.37804504D-04 -0.67865310D-04  0.81626568D-08
  0.16056740D-03 -0.84300683D-04  0.62860864D-04 -0.84673843D-04 -0.42035425D-08
  0.50214460D-08  0.16887521D-04  0.28644432D-04  0.32610673D-04  0.23395438D-04
 -0.12149167D-04 -0.20607287D-04 -0.23460668D-04 -0.18465517D-04 -0.12143482D-04
 -0.20597643D-04 -0.23449689D-04 -0.18463894D-04 -0.21929654D-04 -0.37196844D-04
 -0.42347292D-04 -0.14740430D-03 -0.93746701D-04 -0.17254397D-03 -0.27920872D-03
 -0.36702768D-03 -0.31479751D-03 -0.10763461D-03  0.36347500D-03  0.16218184D-03
 -0.47892513D-03  0.12250934D-03  0.94386846D-04  0.41440909D-04  0.86668865D-04
  0.66773688D-04  0.29317246D-04  0.28085719D-08  0.21638533D-08  0.95004813D-09
  0.10064662D-02 -0.16697343D-03 -0.25601011D-03 -0.18317550D-08 -0.36141168D-03
 -0.17884637D-03 -0.41826045D-03  0.11486895D-03  0.61610482D-09  0.23625853D-08
 -0.72093420D-05 -0.12228409D-04 -0.13921611D-04  0.38064848D-04
MO    5     MO 0.0        OCC NO =    1.0000000  ORB. ENERGY =  -10.411527
 -0.14936567D-04 -0.27555049D-04 -0.44482393D-04 -0.57902859D-04 -0.49408615D-04
 -0.17059607D-04  0.14427477D-04  0.66496110D-05 -0.18646203D-04 -0.17736479D-04
 -0.13599207D-04 -0.67869576D-05  0.78470654D-04  0.60166320D-04  0.30027211D-04
  0.17494743D-08  0.13413859D-08  0.66944559D-09  0.15117992D-03  0.37649321D-04
  0.37248380D-04 -0.87695457D-09 -0.14374896D-04  0.14194722D-04 -0.16412594D-04
  0.23470975D-04 -0.68644751D-09 -0.69396218D-09  0.85567510D-05  0.15785535D-04
  0.25482748D-04  0.33170966D-04  0.28304845D-04  0.97729829D-05 -0.27496387D-04
 -0.12673060D-04  0.35536582D-04 -0.99359769D-04 -0.76182769D-04 -0.38020541D-04
 -0.52277330D-04 -0.40082941D-04 -0.20004197D-04 -0.27346216D-09 -0.20967344D-09
 -0.10464174D-09 -0.29310757D-03 -0.93849366D-04  0.16929890D-03  0.21482024D-08
 -0.29743994D-04  0.17379169D-04  0.13606842D-04  0.33767210D-04  0.32025522D-08
  0.11905613D-08 -0.20748321D-04 -0.38276601D-04 -0.61790302D-04 -0.80432614D-04
 -0.68633295D-04 -0.23697427D-04  0.10813646D-03  0.49839994D-04 -0.13975655D-03
  0.12755515D-03  0.97801202D-04  0.48809654D-04 -0.13730138D-04 -0.10527399D-04
 -0.52539099D-05  0.48584627D-08  0.37251610D-08  0.18591164D-08  0.80204718D-03
  0.29050486D-04 -0.45549000D-03 -0.70487959D-08  0.58770537D-05 -0.27488182D-04
 -0.90424818D-04 -0.53150906D-04 -0.24199565D-08  0.28650787D-08  0.10456073D-04
  0.19289412D-04  0.31139093D-04  0.40533846D-04  0.34587604D-04  0.11942269D-04
  0.49446447D-04  0.22789822D-04 -0.63905040D-04 -0.16601859D-03 -0.12729253D-03
 -0.63527891D-04  0.18228944D-03  0.13976798D-03  0.69754020D-04 -0.12975558D-07
 -0.99488350D-08 -0.49651660D-08 -0.27738084D-03  0.54970023D-03 -0.42046086D-03
  0.12423945D-07  0.21127072D-03  0.33236162D-04 -0.51233808D-04  0.13923544D-03
  0.20577283D-07 -0.14551288D-07 -0.98606734D-05 -0.18191017D-04 -0.29365942D-04
 -0.38225731D-04 -0.32618085D-04 -0.11262241D-04 -0.30904571D-04 -0.14243888D-04
  0.39941350D-04 -0.14249347D-03 -0.10925496D-03 -0.54525880D-04 -0.56622345D-04
 -0.43414423D-04 -0.21666840D-04  0.49414469D-09  0.37887880D-09  0.18908708D-09
 -0.26590734D-03 -0.70267257D-04  0.20977849D-05 -0.38501471D-08 -0.10450852D-03
  0.21291244D-04 -0.12765319D-04 -0.15037852D-03  0.48409285D-08 -0.11781156D-07
 -0.10412656D-03 -0.19209317D-03 -0.31009793D-03 -0.40365537D-03 -0.34443986D-03
 -0.11892681D-03  0.51058296D-04  0.23532722D-04 -0.65988208D-04  0.22696435D-04
  0.17402187D-04  0.86849107D-05 -0.51138453D-04 -0.39209722D-04 -0.19568399D-04
  0.16286121D-08  0.12487164D-08  0.62319702D-09  0.53505370D-04  0.45980150D-04
  0.45282539D-04  0.94252409D-09  0.43170612D-04 -0.16446587D-04 -0.62708271D-04
  0.34076415D-04  0.27890185D-08  0.22505512D-09 -0.16185057D-05 -0.27452919D-05
 -0.31254178D-05  0.86943254D-05 -0.12491564D-04 -0.21188056D-04 -0.24121853D-04