 Entering Link 1 = D:\Gaussian\G16W\l1.exe PID=     31612.
  
 Copyright (c) 1988,1990,1992,1993,1995,1998,2003,2009,2016,
            Gaussian, Inc.  All Rights Reserved.
  
 This is part of the Gaussian(R) 16 program.  It is based on
 the Gaussian(R) 09 system (copyright 2009, Gaussian, Inc.),
 the Gaussian(R) 03 system (copyright 2003, Gaussian, Inc.),
 the Gaussian(R) 98 system (copyright 1998, Gaussian, Inc.),
 the Gaussian(R) 94 system (copyright 1995, Gaussian, Inc.),
 the Gaussian 92(TM) system (copyright 1992, Gaussian, Inc.),
 the Gaussian 90(TM) system (copyright 1990, Gaussian, Inc.),
 the Gaussian 88(TM) system (copyright 1988, Gaussian, Inc.),
 the Gaussian 86(TM) system (copyright 1986, Carnegie Mellon
 University), and the Gaussian 82(TM) system (copyright 1983,
 Carnegie Mellon University). Gaussian is a federally registered
 trademark of Gaussian, Inc.
  
 This software contains proprietary and confidential information,
 including trade secrets, belonging to Gaussian, Inc.
  
 This software is provided under written license and may be
 used, copied, transmitted, or stored only in accord with that
 written license.
  
 The following legend is applicable only to US Government
 contracts under FAR:
  
                    RESTRICTED RIGHTS LEGEND
  
 Use, reproduction and disclosure by the US Government is
 subject to restrictions as set forth in subparagraphs (a)
 and (c) of the Commercial Computer Software - Restricted
 Rights clause in FAR 52.227-19.
  
 Gaussian, Inc.
 340 Quinnipiac St., Bldg. 40, Wallingford CT 06492
  
  
 ---------------------------------------------------------------
 Warning -- This program may not be used in any manner that
 competes with the business of Gaussian, Inc. or will provide
 assistance to any competitor of Gaussian, Inc.  The licensee
 of this program is prohibited from giving any competitor of
 Gaussian, Inc. access to this program.  By using this program,
 the user acknowledges that Gaussian, Inc. is engaged in the
 business of creating and licensing software in the field of
 computational chemistry and represents and warrants to the
 licensee that it is not a competitor of Gaussian, Inc. and that
 it will not use this program in any manner prohibited above.
 ---------------------------------------------------------------
  

 Cite this work as:
 Gaussian 16, Revision A.03,
 M. J. Frisch, G. W. Trucks, H. B. Schlegel, G. E. Scuseria, 
 M. A. Robb, J. R. Cheeseman, G. Scalmani, V. Barone, 
 G. A. Petersson, H. Nakatsuji, X. Li, M. Caricato, A. V. Marenich, 
 J. Bloino, B. G. Janesko, R. Gomperts, B. Mennucci, H. P. Hratchian, 
 J. V. Ortiz, A. F. Izmaylov, J. L. Sonnenberg, D. Williams-Young, 
 F. Ding, F. Lipparini, F. Egidi, J. Goings, B. Peng, A. Petrone, 
 T. Henderson, D. Ranasinghe, V. G. Zakrzewski, J. Gao, N. Rega, 
 G. Zheng, W. Liang, M. Hada, M. Ehara, K. Toyota, R. Fukuda, 
 J. Hasegawa, M. Ishida, T. Nakajima, Y. Honda, O. Kitao, H. Nakai, 
 T. Vreven, K. Throssell, J. A. Montgomery, Jr., J. E. Peralta, 
 F. Ogliaro, M. J. Bearpark, J. J. Heyd, E. N. Brothers, K. N. Kudin, 
 V. N. Staroverov, T. A. Keith, R. Kobayashi, J. Normand, 
 K. Raghavachari, A. P. Rendell, J. C. Burant, S. S. Iyengar, 
 J. Tomasi, M. Cossi, J. M. Millam, M. Klene, C. Adamo, R. Cammi, 
 J. W. Ochterski, R. L. Martin, K. Morokuma, O. Farkas, 
 J. B. Foresman, and D. J. Fox, Gaussian, Inc., Wallingford CT, 2016.
 
 ******************************************
 Gaussian 16:  EM64W-G16RevA.03 17-Dec-2016
                03-Dec-2025 
 ******************************************
 %nprocs=   4
 Will use up to    4 processors via shared memory.
 ------------------------------------
 #P B3LYP/6-31G* SCF=conver=7 out=wfn
 ------------------------------------
 1/38=1,172=1/1;
 2/12=2,17=6,18=5,40=1/2;
 3/5=1,6=6,7=1,11=2,25=1,30=1,74=-5/1,2,3;
 4//1;
 5/5=2,6=7,38=5/2;
 6/7=2,8=2,9=2,10=2,28=1/1;
 99/5=1,6=100,9=1/99;
 Leave Link    1 at Wed Dec 03 10:30:24 2025, MaxMem=           0 cpu:               0.0 elap:               0.1
 (Enter D:\Gaussian\G16W\l101.exe)
 ----------------------------------------------------
 Generated by Multiwfn (http://sobereva.com/multiwfn)
 ----------------------------------------------------
 Symbolic Z-matrix:
 Charge =  1 Multiplicity = 2
 C                    -2.29918  -0.58849  -0.00002 
 C                    -1.83799   0.72961  -0.00002 
 C                    -0.47487   0.98913  -0.00001 
 C                     0.43865  -0.08285  -0.00001 
 C                    -0.02085  -1.39412  -0.00002 
 C                    -1.39743  -1.64505  -0.00002 
 H                    -3.3655   -0.78116  -0.00002 
 H                    -2.52191   1.56979  -0.00001 
 H                     0.67688  -2.22131  -0.00002 
 O                     1.75452   0.31562  -0.00002 
 C                     2.76399  -0.68428   0.00009 
 H                     3.71457  -0.15342   0.00013 
 H                     2.69888  -1.31342   0.8943 
 H                     2.699    -1.31348  -0.89409 
 H                    -1.75146  -2.66903  -0.00002 
 O                    -0.02067   2.27267  -0.00001 
 H                     0.94486   2.23199  0. 
 
 ITRead=  0  0  0  0  0  0  0  0  0  0  0  0  0  0  0  0  0
 MicOpt= -1 -1 -1 -1 -1 -1 -1 -1 -1 -1 -1 -1 -1 -1 -1 -1 -1
 NAtoms=     17 NQM=       17 NQMF=       0 NMMI=      0 NMMIF=      0
                NMic=       0 NMicF=      0.
                    Isotopes and Nuclear Properties:
 (Nuclear quadrupole moments (NQMom) in fm**2, nuclear magnetic moments (NMagM)
  in nuclear magnetons)

  Atom         1           2           3           4           5           6           7           8           9          10
 IAtWgt=          12          12          12          12          12          12           1           1           1          16
 AtmWgt=  12.0000000  12.0000000  12.0000000  12.0000000  12.0000000  12.0000000   1.0078250   1.0078250   1.0078250  15.9949146
 NucSpn=           0           0           0           0           0           0           1           1           1           0
 AtZEff=   0.0000000   0.0000000   0.0000000   0.0000000   0.0000000   0.0000000   0.0000000   0.0000000   0.0000000   0.0000000
 NQMom=    0.0000000   0.0000000   0.0000000   0.0000000   0.0000000   0.0000000   0.0000000   0.0000000   0.0000000   0.0000000
 NMagM=    0.0000000   0.0000000   0.0000000   0.0000000   0.0000000   0.0000000   2.7928460   2.7928460   2.7928460   0.0000000
 AtZNuc=   6.0000000   6.0000000   6.0000000   6.0000000   6.0000000   6.0000000   1.0000000   1.0000000   1.0000000   8.0000000

  Atom        11          12          13          14          15          16          17
 IAtWgt=          12           1           1           1           1          16           1
 AtmWgt=  12.0000000   1.0078250   1.0078250   1.0078250   1.0078250  15.9949146   1.0078250
 NucSpn=           0           1           1           1           1           0           1
 AtZEff=   0.0000000   0.0000000   0.0000000   0.0000000   0.0000000   0.0000000   0.0000000
 NQMom=    0.0000000   0.0000000   0.0000000   0.0000000   0.0000000   0.0000000   0.0000000
 NMagM=    0.0000000   2.7928460   2.7928460   2.7928460   2.7928460   0.0000000   2.7928460
 AtZNuc=   6.0000000   1.0000000   1.0000000   1.0000000   1.0000000   8.0000000   1.0000000
 Leave Link  101 at Wed Dec 03 10:30:24 2025, MaxMem=   104857600 cpu:               0.0 elap:               0.1
 (Enter D:\Gaussian\G16W\l202.exe)
                          Input orientation:                          
 ---------------------------------------------------------------------
 Center     Atomic      Atomic             Coordinates (Angstroms)
 Number     Number       Type             X           Y           Z
 ---------------------------------------------------------------------
      1          6           0       -2.299181   -0.588486   -0.000019
      2          6           0       -1.837988    0.729607   -0.000015
      3          6           0       -0.474871    0.989131   -0.000012
      4          6           0        0.438651   -0.082854   -0.000013
      5          6           0       -0.020852   -1.394115   -0.000018
      6          6           0       -1.397432   -1.645050   -0.000020
      7          1           0       -3.365497   -0.781155   -0.000021
      8          1           0       -2.521910    1.569785   -0.000013
      9          1           0        0.676880   -2.221309   -0.000021
     10          8           0        1.754520    0.315616   -0.000017
     11          6           0        2.763987   -0.684275    0.000087
     12          1           0        3.714572   -0.153422    0.000129
     13          1           0        2.698879   -1.313417    0.894300
     14          1           0        2.699000   -1.313484   -0.894087
     15          1           0       -1.751456   -2.669033   -0.000023
     16          8           0       -0.020671    2.272670   -0.000008
     17          1           0        0.944856    2.231990   -0.000001
 ---------------------------------------------------------------------
                    Distance matrix (angstroms):
                    1          2          3          4          5
     1  C    0.000000
     2  C    1.396448   0.000000
     3  C    2.411842   1.387602   0.000000
     4  C    2.784131   2.417267   1.408430   0.000000
     5  C    2.416572   2.795027   2.426107   1.389442   0.000000
     6  C    1.389057   2.415178   2.791062   2.410738   1.399264
     7  H    1.083583   2.148415   3.389636   3.867708   3.400349
     8  H    2.169733   1.083351   2.127799   3.390595   3.878143
     9  H    3.394562   3.877172   3.410785   2.151684   1.082164
    10  O    4.153299   3.616283   2.328907   1.374878   2.464777
    11  C    5.064074   4.814274   3.645612   2.401852   2.873883
    12  H    6.029470   5.622336   4.342449   3.276681   3.936078
    13  H    5.128931   5.055384   4.021717   2.724465   2.864132
    14  H    5.129015   5.055477   4.021798   2.724518   2.864168
    15  H    2.151436   3.399741   3.874511   3.388936   2.149513
    16  O    3.657570   2.384048   1.361532   2.399890   3.666785
    17  H    4.298705   3.162495   1.886882   2.369546   3.752496
                    6          7          8          9         10
     6  C    0.000000
     7  H    2.149324   0.000000
     8  H    3.405821   2.497711   0.000000
     9  H    2.152869   4.291253   4.960308   0.000000
    10  O    3.712009   5.236170   4.456545   2.756319   0.000000
    11  C    4.270889   6.130250   5.746433   2.592005   1.420847
    12  H    5.325180   7.107843   6.470174   3.674742   2.015391
    13  H    4.205895   6.153029   6.030695   2.390096   2.084554
    14  H    4.205954   6.153117   6.030797   2.390077   2.084555
    15  H    1.083455   2.483790   4.308268   2.469266   4.604345
    16  O    4.152590   4.529206   2.598123   4.547793   2.642227
    17  H    4.529653   5.259105   3.529445   4.461354   2.080395
                   11         12         13         14         15
    11  C    0.000000
    12  H    1.088768   0.000000
    13  H    1.095297   1.782347   0.000000
    14  H    1.095296   1.782345   1.788387   0.000000
    15  H    4.932392   6.017122   4.737403   4.737449   0.000000
    16  O    4.061754   4.453983   4.588655   4.588735   5.236033
    17  H    3.437127   3.655341   4.055402   4.055465   5.593758
                   16         17
    16  O    0.000000
    17  H    0.966384   0.000000
 Stoichiometry    C7H8O2(1+,2)
 Framework group  C1[X(C7H8O2)]
 Deg. of freedom    45
 Full point group                 C1      NOp   1
 Largest Abelian subgroup         C1      NOp   1
 Largest concise Abelian subgroup C1      NOp   1
                         Standard orientation:                         
 ---------------------------------------------------------------------
 Center     Atomic      Atomic             Coordinates (Angstroms)
 Number     Number       Type             X           Y           Z
 ---------------------------------------------------------------------
      1          6           0       -2.299181   -0.588486   -0.000019
      2          6           0       -1.837988    0.729607   -0.000015
      3          6           0       -0.474871    0.989131   -0.000012
      4          6           0        0.438651   -0.082854   -0.000013
      5          6           0       -0.020852   -1.394115   -0.000018
      6          6           0       -1.397432   -1.645050   -0.000020
      7          1           0       -3.365497   -0.781155   -0.000021
      8          1           0       -2.521910    1.569785   -0.000013
      9          1           0        0.676880   -2.221309   -0.000021
     10          8           0        1.754520    0.315616   -0.000017
     11          6           0        2.763987   -0.684275    0.000087
     12          1           0        3.714572   -0.153422    0.000129
     13          1           0        2.698879   -1.313417    0.894300
     14          1           0        2.699000   -1.313484   -0.894087
     15          1           0       -1.751456   -2.669033   -0.000023
     16          8           0       -0.020671    2.272670   -0.000008
     17          1           0        0.944856    2.231990   -0.000001
 ---------------------------------------------------------------------
 Rotational constants (GHZ):           2.6172540           1.5509198           0.9799306
 Leave Link  202 at Wed Dec 03 10:30:25 2025, MaxMem=   104857600 cpu:               1.0 elap:               0.0
 (Enter D:\Gaussian\G16W\l301.exe)
 Standard basis: 6-31G(d) (6D, 7F)
 Ernie: Thresh=  0.10000D-02 Tol=  0.10000D-05 Strict=F.
 There are   151 symmetry adapted cartesian basis functions of A   symmetry.
 There are   151 symmetry adapted basis functions of A   symmetry.
   151 basis functions,   284 primitive gaussians,   151 cartesian basis functions
    33 alpha electrons       32 beta electrons
       nuclear repulsion energy       433.7432541136 Hartrees.
 IExCor=  402 DFT=T Ex+Corr=B3LYP ExCW=0 ScaHFX=  0.200000
 ScaDFX=  0.800000  0.720000  1.000000  0.810000 ScalE2=  1.000000  1.000000
 IRadAn=      5 IRanWt=     -1 IRanGd=            0 ICorTp=0 IEmpDi=  4
 NAtoms=   17 NActive=   17 NUniq=   17 SFac= 1.00D+00 NAtFMM=   60 NAOKFM=F Big=F
 Integral buffers will be    131072 words long.
 Raffenetti 2 integral format.
 Two-electron integral symmetry is turned on.
 Leave Link  301 at Wed Dec 03 10:30:25 2025, MaxMem=   104857600 cpu:               0.0 elap:               0.1
 (Enter D:\Gaussian\G16W\l302.exe)
 NPDir=0 NMtPBC=     1 NCelOv=     1 NCel=       1 NClECP=     1 NCelD=      1
         NCelK=      1 NCelE2=     1 NClLst=     1 CellRange=     0.0.
 One-electron integrals computed using PRISM.
 One-electron integral symmetry used in STVInt
 NBasis=   151 RedAO= T EigKep=  4.13D-04  NBF=   151
 NBsUse=   151 1.00D-06 EigRej= -1.00D+00 NBFU=   151
 Precomputing XC quadrature grid using
 IXCGrd= 4 IRadAn=           5 IRanWt=          -1 IRanGd=           0 AccXCQ= 0.00D+00.
 Generated NRdTot=       0 NPtTot=           0 NUsed=           0 NTot=          32
 NSgBfM=   151   151   151   151   151 MxSgAt=    17 MxSgA2=    17.
 Leave Link  302 at Wed Dec 03 10:30:25 2025, MaxMem=   104857600 cpu:               0.0 elap:               0.4
 (Enter D:\Gaussian\G16W\l303.exe)
 DipDrv:  MaxL=1.
 Leave Link  303 at Wed Dec 03 10:30:25 2025, MaxMem=   104857600 cpu:               0.0 elap:               0.1
 (Enter D:\Gaussian\G16W\l401.exe)
 ExpMin= 1.61D-01 ExpMax= 5.48D+03 ExpMxC= 8.25D+02 IAcc=3 IRadAn=         5 AccDes= 0.00D+00
 Harris functional with IExCor=  402 and IRadAn=       5 diagonalized for initial guess.
 HarFok:  IExCor=  402 AccDes= 0.00D+00 IRadAn=         5 IDoV= 1 UseB2=F ITyADJ=14
 ICtDFT=  3500011 ScaDFX=  1.000000  1.000000  1.000000  1.000000
 FoFCou: FMM=F IPFlag=           0 FMFlag=      100000 FMFlg1=           0
         NFxFlg=           0 DoJE=T BraDBF=F KetDBF=T FulRan=T
         wScrn=  0.000000 ICntrl=       500 IOpCl=  0 I1Cent=   200000004 NGrid=           0
         NMat0=    1 NMatS0=      1 NMatT0=    0 NMatD0=    1 NMtDS0=    0 NMtDT0=    0
 Petite list used in FoFCou.
 Harris En= -421.721976311552    
 JPrj=0 DoOrth=F DoCkMO=F.
 Initial guess <Sx>= 0.0000 <Sy>= 0.0000 <Sz>= 0.5000 <S**2>= 0.7500 S= 0.5000
 Leave Link  401 at Wed Dec 03 10:30:26 2025, MaxMem=   104857600 cpu:               1.0 elap:               0.9
 (Enter D:\Gaussian\G16W\l502.exe)
 Integral symmetry usage will be decided dynamically.
 UHF open shell SCF:
 Using DIIS extrapolation, IDIIS=  1040.
 NGot=   104857600 LenX=   104809284 LenY=   104786042
 Requested convergence on RMS density matrix=1.00D-07 within 128 cycles.
 Requested convergence on MAX density matrix=1.00D-05.
 Requested convergence on             energy=1.00D-05.
 No special actions if energy rises.
 Fock matrices will be formed incrementally for  20 cycles.
 Integral accuracy reduced to 1.0D-05 until final iterations.

 Cycle   1  Pass 0  IDiag  1:
 FoFJK:  IHMeth= 1 ICntrl=       0 DoSepK=F KAlg= 0 I1Cent=           0 FoldK=F
 IRaf= 950000000 NMat=       1 IRICut=       1 DoRegI=T DoRafI=F ISym2E= 0 IDoP0=0 IntGTp=1.
 FoFCou: FMM=F IPFlag=           0 FMFlag=      100000 FMFlg1=           0
         NFxFlg=           0 DoJE=F BraDBF=F KetDBF=F FulRan=T
         wScrn=  0.000000 ICntrl=         0 IOpCl=  1 I1Cent=           0 NGrid=           0
         NMat0=    1 NMatS0=      1 NMatT0=    0 NMatD0=    1 NMtDS0=    0 NMtDT0=    0
 Symmetry not used in FoFCou.
 E= -421.554091146484    
 DIIS: error= 2.68D-02 at cycle   1 NSaved=   1.
 NSaved= 1 IEnMin= 1 EnMin= -421.554091146484     IErMin= 1 ErrMin= 2.68D-02
 ErrMax= 2.68D-02  0.00D+00 EMaxC= 1.00D-01 BMatC= 6.30D-01 BMatP= 6.30D-01
 IDIUse=3 WtCom= 7.32D-01 WtEn= 2.68D-01
 Coeff-Com:  0.100D+01
 Coeff-En:   0.100D+01
 Coeff:      0.100D+01
 Gap=     0.258 Goal=   None    Shift=    0.000
 Gap=     0.021 Goal=   None    Shift=    0.000
 GapD=    0.021 DampG=0.250 DampE=0.500 DampFc=0.2500 IDamp=-1.
 Damping current iteration by 2.50D-01
 RMSDP=5.97D-03 MaxDP=1.25D-01              OVMax= 4.31D-01

 Cycle   2  Pass 0  IDiag  1:
 RMSU=  1.47D-03    CP:  9.90D-01
 E= -421.606342156156     Delta-E=       -0.052251009672 Rises=F Damp=T
 DIIS: error= 1.66D-02 at cycle   2 NSaved=   2.
 NSaved= 2 IEnMin= 2 EnMin= -421.606342156156     IErMin= 2 ErrMin= 1.66D-02
 ErrMax= 1.66D-02  0.00D+00 EMaxC= 1.00D-01 BMatC= 1.59D-01 BMatP= 6.30D-01
 IDIUse=3 WtCom= 8.34D-01 WtEn= 1.66D-01
 Coeff-Com: -0.605D+00 0.161D+01
 Coeff-En:   0.000D+00 0.100D+01
 Coeff:     -0.505D+00 0.150D+01
 Gap=     0.248 Goal=   None    Shift=    0.000
 Gap=     0.055 Goal=   None    Shift=    0.000
 RMSDP=2.23D-03 MaxDP=5.04D-02 DE=-5.23D-02 OVMax= 3.11D-01

 Cycle   3  Pass 0  IDiag  1:
 RMSU=  2.06D-03    CP:  9.71D-01  1.47D+00
 E= -421.683898179632     Delta-E=       -0.077556023476 Rises=F Damp=F
 DIIS: error= 1.27D-02 at cycle   3 NSaved=   3.
 NSaved= 3 IEnMin= 3 EnMin= -421.683898179632     IErMin= 3 ErrMin= 1.27D-02
 ErrMax= 1.27D-02  0.00D+00 EMaxC= 1.00D-01 BMatC= 9.06D-02 BMatP= 1.59D-01
 IDIUse=3 WtCom= 8.73D-01 WtEn= 1.27D-01
 Coeff-Com: -0.407D+00 0.908D+00 0.499D+00
 Coeff-En:   0.000D+00 0.000D+00 0.100D+01
 Coeff:     -0.355D+00 0.793D+00 0.563D+00
 Gap=     0.241 Goal=   None    Shift=    0.000
 Gap=     0.071 Goal=   None    Shift=    0.000
 RMSDP=1.49D-03 MaxDP=5.29D-02 DE=-7.76D-02 OVMax= 1.40D-01

 Cycle   4  Pass 0  IDiag  1:
 RMSU=  9.00D-04    CP:  9.75D-01  1.83D+00  4.87D-01
 E= -421.701564157538     Delta-E=       -0.017665977906 Rises=F Damp=F
 DIIS: error= 7.55D-03 at cycle   4 NSaved=   4.
 NSaved= 4 IEnMin= 4 EnMin= -421.701564157538     IErMin= 4 ErrMin= 7.55D-03
 ErrMax= 7.55D-03  0.00D+00 EMaxC= 1.00D-01 BMatC= 2.72D-02 BMatP= 9.06D-02
 IDIUse=3 WtCom= 9.25D-01 WtEn= 7.55D-02
 Coeff-Com: -0.115D+00 0.246D+00 0.361D+00 0.509D+00
 Coeff-En:   0.000D+00 0.000D+00 0.253D+00 0.747D+00
 Coeff:     -0.107D+00 0.227D+00 0.353D+00 0.527D+00
 Gap=     0.235 Goal=   None    Shift=    0.000
 Gap=     0.074 Goal=   None    Shift=    0.000
 RMSDP=5.79D-04 MaxDP=2.39D-02 DE=-1.77D-02 OVMax= 6.18D-02

 Cycle   5  Pass 0  IDiag  1:
 RMSU=  2.78D-04    CP:  9.75D-01  1.70D+00  6.46D-01  6.26D-01
 E= -421.707801246285     Delta-E=       -0.006237088747 Rises=F Damp=F
 DIIS: error= 2.20D-03 at cycle   5 NSaved=   5.
 NSaved= 5 IEnMin= 5 EnMin= -421.707801246285     IErMin= 5 ErrMin= 2.20D-03
 ErrMax= 2.20D-03  0.00D+00 EMaxC= 1.00D-01 BMatC= 2.36D-03 BMatP= 2.72D-02
 IDIUse=3 WtCom= 9.78D-01 WtEn= 2.20D-02
 Coeff-Com: -0.185D-01 0.378D-01 0.148D+00 0.317D+00 0.515D+00
 Coeff-En:   0.000D+00 0.000D+00 0.000D+00 0.124D-01 0.988D+00
 Coeff:     -0.181D-01 0.370D-01 0.145D+00 0.311D+00 0.525D+00
 Gap=     0.231 Goal=   None    Shift=    0.000
 Gap=     0.076 Goal=   None    Shift=    0.000
 RMSDP=1.78D-04 MaxDP=5.33D-03 DE=-6.24D-03 OVMax= 1.40D-02

 Cycle   6  Pass 0  IDiag  1:
 RMSU=  1.26D-04    CP:  9.74D-01  1.71D+00  6.44D-01  6.85D-01  5.99D-01
 E= -421.708332718227     Delta-E=       -0.000531471943 Rises=F Damp=F
 DIIS: error= 6.27D-04 at cycle   6 NSaved=   6.
 NSaved= 6 IEnMin= 6 EnMin= -421.708332718227     IErMin= 6 ErrMin= 6.27D-04
 ErrMax= 6.27D-04  0.00D+00 EMaxC= 1.00D-01 BMatC= 2.09D-04 BMatP= 2.36D-03
 IDIUse=3 WtCom= 9.94D-01 WtEn= 6.27D-03
 Coeff-Com:  0.739D-03-0.373D-02 0.307D-01 0.852D-01 0.271D+00 0.616D+00
 Coeff-En:   0.000D+00 0.000D+00 0.000D+00 0.000D+00 0.000D+00 0.100D+01
 Coeff:      0.734D-03-0.371D-02 0.305D-01 0.847D-01 0.270D+00 0.618D+00
 Gap=     0.231 Goal=   None    Shift=    0.000
 Gap=     0.078 Goal=   None    Shift=    0.000
 RMSDP=5.90D-05 MaxDP=2.62D-03 DE=-5.31D-04 OVMax= 5.04D-03

 Cycle   7  Pass 0  IDiag  1:
 RMSU=  4.94D-05    CP:  9.74D-01  1.71D+00  6.45D-01  6.94D-01  6.89D-01
                    CP:  8.60D-01
 E= -421.708384487431     Delta-E=       -0.000051769204 Rises=F Damp=F
 DIIS: error= 2.57D-04 at cycle   7 NSaved=   7.
 NSaved= 7 IEnMin= 7 EnMin= -421.708384487431     IErMin= 7 ErrMin= 2.57D-04
 ErrMax= 2.57D-04  0.00D+00 EMaxC= 1.00D-01 BMatC= 4.39D-05 BMatP= 2.09D-04
 IDIUse=3 WtCom= 9.97D-01 WtEn= 2.57D-03
 Coeff-Com:  0.585D-02-0.121D-01-0.142D-01-0.223D-01 0.494D-01 0.342D+00
 Coeff-Com:  0.652D+00
 Coeff-En:   0.000D+00 0.000D+00 0.000D+00 0.000D+00 0.000D+00 0.000D+00
 Coeff-En:   0.100D+01
 Coeff:      0.583D-02-0.121D-01-0.142D-01-0.223D-01 0.493D-01 0.341D+00
 Coeff:      0.652D+00
 Gap=     0.231 Goal=   None    Shift=    0.000
 Gap=     0.078 Goal=   None    Shift=    0.000
 RMSDP=3.11D-05 MaxDP=1.47D-03 DE=-5.18D-05 OVMax= 2.25D-03

 Cycle   8  Pass 0  IDiag  1:
 RMSU=  2.24D-05    CP:  9.74D-01  1.72D+00  6.46D-01  6.99D-01  7.37D-01
                    CP:  9.87D-01  9.62D-01
 E= -421.708400990207     Delta-E=       -0.000016502776 Rises=F Damp=F
 DIIS: error= 1.11D-04 at cycle   8 NSaved=   8.
 NSaved= 8 IEnMin= 8 EnMin= -421.708400990207     IErMin= 8 ErrMin= 1.11D-04
 ErrMax= 1.11D-04  0.00D+00 EMaxC= 1.00D-01 BMatC= 5.47D-06 BMatP= 4.39D-05
 IDIUse=3 WtCom= 9.99D-01 WtEn= 1.11D-03
 Coeff-Com:  0.130D-02-0.145D-02-0.962D-02-0.302D-01-0.654D-01-0.908D-01
 Coeff-Com:  0.184D+00 0.101D+01
 Coeff-En:   0.000D+00 0.000D+00 0.000D+00 0.000D+00 0.000D+00 0.000D+00
 Coeff-En:   0.000D+00 0.100D+01
 Coeff:      0.130D-02-0.145D-02-0.961D-02-0.301D-01-0.653D-01-0.907D-01
 Coeff:      0.184D+00 0.101D+01
 Gap=     0.231 Goal=   None    Shift=    0.000
 Gap=     0.079 Goal=   None    Shift=    0.000
 RMSDP=2.31D-05 MaxDP=1.10D-03 DE=-1.65D-05 OVMax= 3.16D-03

 Cycle   9  Pass 0  IDiag  1:
 RMSU=  1.04D-05    CP:  9.74D-01  1.71D+00  6.47D-01  7.01D-01  7.62D-01
                    CP:  1.07D+00  1.27D+00  1.27D+00
 E= -421.708405643821     Delta-E=       -0.000004653614 Rises=F Damp=F
 DIIS: error= 6.28D-05 at cycle   9 NSaved=   9.
 NSaved= 9 IEnMin= 9 EnMin= -421.708405643821     IErMin= 9 ErrMin= 6.28D-05
 ErrMax= 6.28D-05  0.00D+00 EMaxC= 1.00D-01 BMatC= 2.16D-06 BMatP= 5.47D-06
 IDIUse=1 WtCom= 1.00D+00 WtEn= 0.00D+00
 Coeff-Com:  0.673D-03-0.480D-03-0.451D-02-0.160D-01-0.440D-01-0.811D-01
 Coeff-Com:  0.437D-01 0.595D+00 0.506D+00
 Coeff:      0.673D-03-0.480D-03-0.451D-02-0.160D-01-0.440D-01-0.811D-01
 Coeff:      0.437D-01 0.595D+00 0.506D+00
 Gap=     0.231 Goal=   None    Shift=    0.000
 Gap=     0.079 Goal=   None    Shift=    0.000
 RMSDP=7.13D-06 MaxDP=2.88D-04 DE=-4.65D-06 OVMax= 7.97D-04

 Initial convergence to 1.0D-05 achieved.  Increase integral accuracy.
 Cycle  10  Pass 1  IDiag  1:
 E= -421.708407113241     Delta-E=       -0.000001469420 Rises=F Damp=F
 DIIS: error= 3.05D-05 at cycle   1 NSaved=   1.
 NSaved= 1 IEnMin= 1 EnMin= -421.708407113241     IErMin= 1 ErrMin= 3.05D-05
 ErrMax= 3.05D-05  0.00D+00 EMaxC= 1.00D-01 BMatC= 4.96D-07 BMatP= 4.96D-07
 IDIUse=1 WtCom= 1.00D+00 WtEn= 0.00D+00
 Coeff-Com:  0.100D+01
 Coeff:      0.100D+01
 Gap=     0.231 Goal=   None    Shift=    0.000
 Gap=     0.079 Goal=   None    Shift=    0.000
 RMSDP=7.13D-06 MaxDP=2.88D-04 DE=-1.47D-06 OVMax= 1.29D-03

 Cycle  11  Pass 1  IDiag  1:
 RMSU=  8.83D-06    CP:  1.00D+00
 E= -421.708407325401     Delta-E=       -0.000000212160 Rises=F Damp=F
 DIIS: error= 5.07D-05 at cycle   2 NSaved=   2.
 NSaved= 2 IEnMin= 2 EnMin= -421.708407325401     IErMin= 1 ErrMin= 3.05D-05
 ErrMax= 5.07D-05  0.00D+00 EMaxC= 1.00D-01 BMatC= 1.42D-06 BMatP= 4.96D-07
 IDIUse=1 WtCom= 1.00D+00 WtEn= 0.00D+00
 Coeff-Com:  0.668D+00 0.332D+00
 Coeff:      0.668D+00 0.332D+00
 Gap=     0.231 Goal=   None    Shift=    0.000
 Gap=     0.079 Goal=   None    Shift=    0.000
 RMSDP=3.54D-06 MaxDP=1.06D-04 DE=-2.12D-07 OVMax= 3.06D-04

 Cycle  12  Pass 1  IDiag  1:
 RMSU=  3.38D-06    CP:  1.00D+00  8.78D-01
 E= -421.708407707675     Delta-E=       -0.000000382274 Rises=F Damp=F
 DIIS: error= 2.19D-05 at cycle   3 NSaved=   3.
 NSaved= 3 IEnMin= 3 EnMin= -421.708407707675     IErMin= 3 ErrMin= 2.19D-05
 ErrMax= 2.19D-05  0.00D+00 EMaxC= 1.00D-01 BMatC= 7.22D-08 BMatP= 4.96D-07
 IDIUse=1 WtCom= 1.00D+00 WtEn= 0.00D+00
 Coeff-Com: -0.382D+00-0.163D+00 0.154D+01
 Coeff:     -0.382D+00-0.163D+00 0.154D+01
 Gap=     0.231 Goal=   None    Shift=    0.000
 Gap=     0.079 Goal=   None    Shift=    0.000
 RMSDP=6.00D-06 MaxDP=2.24D-04 DE=-3.82D-07 OVMax= 1.17D-03

 Cycle  13  Pass 1  IDiag  1:
 RMSU=  2.98D-06    CP:  1.00D+00  1.38D+00  1.80D+00
 E= -421.708407933955     Delta-E=       -0.000000226280 Rises=F Damp=F
 DIIS: error= 1.40D-05 at cycle   4 NSaved=   4.
 NSaved= 4 IEnMin= 4 EnMin= -421.708407933955     IErMin= 4 ErrMin= 1.40D-05
 ErrMax= 1.40D-05  0.00D+00 EMaxC= 1.00D-01 BMatC= 9.30D-08 BMatP= 7.22D-08
 IDIUse=1 WtCom= 1.00D+00 WtEn= 0.00D+00
 Coeff-Com: -0.474D+00-0.259D+00 0.116D+01 0.573D+00
 Coeff:     -0.474D+00-0.259D+00 0.116D+01 0.573D+00
 Gap=     0.231 Goal=   None    Shift=    0.000
 Gap=     0.079 Goal=   None    Shift=    0.000
 RMSDP=3.00D-06 MaxDP=9.26D-05 DE=-2.26D-07 OVMax= 4.81D-04

 Cycle  14  Pass 1  IDiag  1:
 RMSU=  1.13D-06    CP:  1.00D+00  1.60D+00  2.34D+00  1.31D+00
 E= -421.708408010428     Delta-E=       -0.000000076472 Rises=F Damp=F
 DIIS: error= 8.82D-06 at cycle   5 NSaved=   5.
 NSaved= 5 IEnMin= 5 EnMin= -421.708408010428     IErMin= 5 ErrMin= 8.82D-06
 ErrMax= 8.82D-06  0.00D+00 EMaxC= 1.00D-01 BMatC= 1.51D-08 BMatP= 7.22D-08
 IDIUse=1 WtCom= 1.00D+00 WtEn= 0.00D+00
 Coeff-Com: -0.105D+00-0.125D+00-0.370D-01 0.281D+00 0.986D+00
 Coeff:     -0.105D+00-0.125D+00-0.370D-01 0.281D+00 0.986D+00
 Gap=     0.231 Goal=   None    Shift=    0.000
 Gap=     0.079 Goal=   None    Shift=    0.000
 RMSDP=2.92D-06 MaxDP=1.01D-04 DE=-7.65D-08 OVMax= 5.63D-04

 Cycle  15  Pass 1  IDiag  1:
 RMSU=  4.78D-07    CP:  1.00D+00  1.81D+00  2.82D+00  1.78D+00  1.14D+00
 E= -421.708408040281     Delta-E=       -0.000000029854 Rises=F Damp=F
 DIIS: error= 3.36D-06 at cycle   6 NSaved=   6.
 NSaved= 6 IEnMin= 6 EnMin= -421.708408040281     IErMin= 6 ErrMin= 3.36D-06
 ErrMax= 3.36D-06  0.00D+00 EMaxC= 1.00D-01 BMatC= 4.31D-09 BMatP= 1.51D-08
 IDIUse=1 WtCom= 1.00D+00 WtEn= 0.00D+00
 Coeff-Com:  0.144D-01-0.328D-01-0.148D+00 0.217D-01 0.536D+00 0.609D+00
 Coeff:      0.144D-01-0.328D-01-0.148D+00 0.217D-01 0.536D+00 0.609D+00
 Gap=     0.231 Goal=   None    Shift=    0.000
 Gap=     0.079 Goal=   None    Shift=    0.000
 RMSDP=5.73D-07 MaxDP=1.75D-05 DE=-2.99D-08 OVMax= 1.16D-04

 Cycle  16  Pass 1  IDiag  1:
 RMSU=  2.74D-07    CP:  1.00D+00  1.85D+00  2.90D+00  1.86D+00  1.23D+00
                    CP:  9.49D-01
 E= -421.708408042679     Delta-E=       -0.000000002398 Rises=F Damp=F
 DIIS: error= 1.83D-06 at cycle   7 NSaved=   7.
 NSaved= 7 IEnMin= 7 EnMin= -421.708408042679     IErMin= 7 ErrMin= 1.83D-06
 ErrMax= 1.83D-06  0.00D+00 EMaxC= 1.00D-01 BMatC= 1.37D-09 BMatP= 4.31D-09
 IDIUse=1 WtCom= 1.00D+00 WtEn= 0.00D+00
 Coeff-Com:  0.272D-01-0.442D-03-0.813D-01-0.683D-01 0.144D+00 0.384D+00
 Coeff-Com:  0.595D+00
 Coeff:      0.272D-01-0.442D-03-0.813D-01-0.683D-01 0.144D+00 0.384D+00
 Coeff:      0.595D+00
 Gap=     0.231 Goal=   None    Shift=    0.000
 Gap=     0.079 Goal=   None    Shift=    0.000
 RMSDP=3.78D-07 MaxDP=1.22D-05 DE=-2.40D-09 OVMax= 6.35D-05

 Cycle  17  Pass 1  IDiag  1:
 RMSU=  1.37D-07    CP:  1.00D+00  1.88D+00  2.95D+00  1.92D+00  1.30D+00
                    CP:  1.12D+00  1.04D+00
 E= -421.708408043575     Delta-E=       -0.000000000896 Rises=F Damp=F
 DIIS: error= 6.96D-07 at cycle   8 NSaved=   8.
 NSaved= 8 IEnMin= 8 EnMin= -421.708408043575     IErMin= 8 ErrMin= 6.96D-07
 ErrMax= 6.96D-07  0.00D+00 EMaxC= 1.00D-01 BMatC= 2.62D-10 BMatP= 1.37D-09
 IDIUse=1 WtCom= 1.00D+00 WtEn= 0.00D+00
 Coeff-Com:  0.123D-01 0.895D-02 0.164D-01-0.649D-01-0.860D-01 0.245D-01
 Coeff-Com:  0.282D+00 0.807D+00
 Coeff:      0.123D-01 0.895D-02 0.164D-01-0.649D-01-0.860D-01 0.245D-01
 Coeff:      0.282D+00 0.807D+00
 Gap=     0.231 Goal=   None    Shift=    0.000
 Gap=     0.079 Goal=   None    Shift=    0.000
 RMSDP=1.96D-07 MaxDP=5.53D-06 DE=-8.96D-10 OVMax= 3.82D-05

 Cycle  18  Pass 1  IDiag  1:
 RMSU=  6.56D-08    CP:  1.00D+00  1.89D+00  2.98D+00  1.94D+00  1.33D+00
                    CP:  1.30D+00  1.38D+00  1.03D+00
 E= -421.708408043814     Delta-E=       -0.000000000240 Rises=F Damp=F
 DIIS: error= 4.68D-07 at cycle   9 NSaved=   9.
 NSaved= 9 IEnMin= 9 EnMin= -421.708408043814     IErMin= 9 ErrMin= 4.68D-07
 ErrMax= 4.68D-07  0.00D+00 EMaxC= 1.00D-01 BMatC= 1.65D-10 BMatP= 2.62D-10
 IDIUse=1 WtCom= 1.00D+00 WtEn= 0.00D+00
 Coeff-Com: -0.180D-02 0.546D-02 0.458D-01-0.301D-01-0.114D+00-0.127D+00
 Coeff-Com: -0.627D-01 0.601D+00 0.683D+00
 Coeff:     -0.180D-02 0.546D-02 0.458D-01-0.301D-01-0.114D+00-0.127D+00
 Coeff:     -0.627D-01 0.601D+00 0.683D+00
 Gap=     0.231 Goal=   None    Shift=    0.000
 Gap=     0.079 Goal=   None    Shift=    0.000
 RMSDP=1.47D-07 MaxDP=4.82D-06 DE=-2.40D-10 OVMax= 2.72D-05

 Cycle  19  Pass 1  IDiag  1:
 RMSU=  2.95D-08    CP:  1.00D+00  1.89D+00  3.00D+00  1.96D+00  1.36D+00
                    CP:  1.39D+00  1.56D+00  1.39D+00  8.72D-01
 E= -421.708408043909     Delta-E=       -0.000000000095 Rises=F Damp=F
 DIIS: error= 1.64D-07 at cycle  10 NSaved=  10.
 NSaved=10 IEnMin=10 EnMin= -421.708408043909     IErMin=10 ErrMin= 1.64D-07
 ErrMax= 1.64D-07  0.00D+00 EMaxC= 1.00D-01 BMatC= 1.87D-11 BMatP= 1.65D-10
 IDIUse=1 WtCom= 1.00D+00 WtEn= 0.00D+00
 Coeff-Com: -0.275D-02 0.136D-02 0.237D-01-0.928D-02-0.472D-01-0.749D-01
 Coeff-Com: -0.930D-01 0.231D+00 0.380D+00 0.591D+00
 Coeff:     -0.275D-02 0.136D-02 0.237D-01-0.928D-02-0.472D-01-0.749D-01
 Coeff:     -0.930D-01 0.231D+00 0.380D+00 0.591D+00
 Gap=     0.231 Goal=   None    Shift=    0.000
 Gap=     0.079 Goal=   None    Shift=    0.000
 RMSDP=3.89D-08 MaxDP=1.01D-06 DE=-9.47D-11 OVMax= 6.97D-06

 SCF Done:  E(UB3LYP) =  -421.708408044     A.U. after   19 cycles
            NFock= 19  Conv=0.39D-07     -V/T= 2.0092
 <Sx>= 0.0000 <Sy>= 0.0000 <Sz>= 0.5000 <S**2>= 0.7600 S= 0.5050
 <L.S>= 0.000000000000E+00
 KE= 4.178664420503D+02 PE=-1.836817031880D+03 EE= 5.634989276722D+02
 Annihilation of the first spin contaminant:
 S**2 before annihilation     0.7600,   after     0.7501
 Leave Link  502 at Wed Dec 03 10:31:01 2025, MaxMem=   104857600 cpu:              35.0 elap:              35.3
 (Enter D:\Gaussian\G16W\l601.exe)
 Copying SCF densities to generalized density rwf, IOpCl= 1 IROHF=0.

 **********************************************************************

            Population analysis using the SCF density.

 **********************************************************************

 Orbital symmetries:
 Alpha Orbitals:
       Occupied  (A) (A) (A) (A) (A) (A) (A) (A) (A) (A) (A) (A)
                 (A) (A) (A) (A) (A) (A) (A) (A) (A) (A) (A) (A)
                 (A) (A) (A) (A) (A) (A) (A) (A) (A)
       Virtual   (A) (A) (A) (A) (A) (A) (A) (A) (A) (A) (A) (A)
                 (A) (A) (A) (A) (A) (A) (A) (A) (A) (A) (A) (A)
                 (A) (A) (A) (A) (A) (A) (A) (A) (A) (A) (A) (A)
                 (A) (A) (A) (A) (A) (A) (A) (A) (A) (A) (A) (A)
                 (A) (A) (A) (A) (A) (A) (A) (A) (A) (A) (A) (A)
                 (A) (A) (A) (A) (A) (A) (A) (A) (A) (A) (A) (A)
                 (A) (A) (A) (A) (A) (A) (A) (A) (A) (A) (A) (A)
                 (A) (A) (A) (A) (A) (A) (A) (A) (A) (A) (A) (A)
                 (A) (A) (A) (A) (A) (A) (A) (A) (A) (A) (A) (A)
                 (A) (A) (A) (A) (A) (A) (A) (A) (A) (A)
 Beta  Orbitals:
       Occupied  (A) (A) (A) (A) (A) (A) (A) (A) (A) (A) (A) (A)
                 (A) (A) (A) (A) (A) (A) (A) (A) (A) (A) (A) (A)
                 (A) (A) (A) (A) (A) (A) (A) (A)
       Virtual   (A) (A) (A) (A) (A) (A) (A) (A) (A) (A) (A) (A)
                 (A) (A) (A) (A) (A) (A) (A) (A) (A) (A) (A) (A)
                 (A) (A) (A) (A) (A) (A) (A) (A) (A) (A) (A) (A)
                 (A) (A) (A) (A) (A) (A) (A) (A) (A) (A) (A) (A)
                 (A) (A) (A) (A) (A) (A) (A) (A) (A) (A) (A) (A)
                 (A) (A) (A) (A) (A) (A) (A) (A) (A) (A) (A) (A)
                 (A) (A) (A) (A) (A) (A) (A) (A) (A) (A) (A) (A)
                 (A) (A) (A) (A) (A) (A) (A) (A) (A) (A) (A) (A)
                 (A) (A) (A) (A) (A) (A) (A) (A) (A) (A) (A) (A)
                 (A) (A) (A) (A) (A) (A) (A) (A) (A) (A) (A)
 The electronic state is 2-A.
 Alpha  occ. eigenvalues --  -19.41298 -19.40535 -10.48195 -10.47907 -10.41153
 Alpha  occ. eigenvalues --  -10.40781 -10.39994 -10.39242 -10.38905  -1.29835
 Alpha  occ. eigenvalues --   -1.26919  -1.06823  -0.96728  -0.95519  -0.89541
 Alpha  occ. eigenvalues --   -0.81769  -0.81094  -0.76015  -0.72117  -0.69192
 Alpha  occ. eigenvalues --   -0.67501  -0.66241  -0.63593  -0.62351  -0.62064
 Alpha  occ. eigenvalues --   -0.60093  -0.57406  -0.55628  -0.55100  -0.53751
 Alpha  occ. eigenvalues --   -0.52865  -0.44525  -0.43617
 Alpha virt. eigenvalues --   -0.20548  -0.19916  -0.11416  -0.06800  -0.04574
 Alpha virt. eigenvalues --   -0.03937  -0.03366  -0.01293  -0.00239   0.01028
 Alpha virt. eigenvalues --    0.01187   0.02892   0.03945   0.06173   0.11497
 Alpha virt. eigenvalues --    0.13323   0.15096   0.16374   0.29920   0.31243
 Alpha virt. eigenvalues --    0.31942   0.33197   0.33712   0.37435   0.37976
 Alpha virt. eigenvalues --    0.38389   0.39939   0.41487   0.42023   0.42173
 Alpha virt. eigenvalues --    0.42489   0.44196   0.47335   0.48672   0.53582
 Alpha virt. eigenvalues --    0.56798   0.58170   0.64618   0.66287   0.66554
 Alpha virt. eigenvalues --    0.68192   0.69132   0.72330   0.73456   0.73846
 Alpha virt. eigenvalues --    0.74114   0.75302   0.79214   0.80421   0.81762
 Alpha virt. eigenvalues --    0.85632   0.86025   0.88992   0.92142   0.94448
 Alpha virt. eigenvalues --    1.01763   1.03258   1.04942   1.10637   1.12003
 Alpha virt. eigenvalues --    1.15476   1.19059   1.20216   1.22618   1.25331
 Alpha virt. eigenvalues --    1.27738   1.29124   1.31421   1.47184   1.50497
 Alpha virt. eigenvalues --    1.51189   1.54727   1.59526   1.61737   1.65491
 Alpha virt. eigenvalues --    1.67822   1.71817   1.73130   1.73957   1.78986
 Alpha virt. eigenvalues --    1.82169   1.82941   1.87842   1.91723   1.93170
 Alpha virt. eigenvalues --    1.93304   2.02098   2.03353   2.04088   2.07996
 Alpha virt. eigenvalues --    2.09880   2.10343   2.16459   2.23252   2.23723
 Alpha virt. eigenvalues --    2.33156   2.36394   2.36529   2.45053   2.45845
 Alpha virt. eigenvalues --    2.46211   2.51079   2.54726   2.61834   2.66378
 Alpha virt. eigenvalues --    2.69793   2.82497   3.00978   3.22939   3.72496
 Alpha virt. eigenvalues --    3.87894   3.89262   3.97117   4.01407   4.14104
 Alpha virt. eigenvalues --    4.16292   4.29663   4.70759
  Beta  occ. eigenvalues --  -19.40822 -19.40018 -10.47845 -10.47601 -10.41167
  Beta  occ. eigenvalues --  -10.40440 -10.39816 -10.39371 -10.38944  -1.28849
  Beta  occ. eigenvalues --   -1.25884  -1.06022  -0.95827  -0.95075  -0.89178
  Beta  occ. eigenvalues --   -0.81256  -0.80683  -0.75619  -0.71852  -0.68882
  Beta  occ. eigenvalues --   -0.65937  -0.65655  -0.63467  -0.61809  -0.60103
  Beta  occ. eigenvalues --   -0.59621  -0.57292  -0.54791  -0.53468  -0.53418
  Beta  occ. eigenvalues --   -0.50738  -0.43661
  Beta virt. eigenvalues --   -0.35777  -0.18677  -0.17562  -0.11013  -0.06722
  Beta virt. eigenvalues --   -0.04453  -0.03172  -0.02185  -0.01152  -0.00065
  Beta virt. eigenvalues --    0.01240   0.01476   0.03135   0.04145   0.06842
  Beta virt. eigenvalues --    0.11795   0.13535   0.15467   0.16963   0.30069
  Beta virt. eigenvalues --    0.32191   0.32320   0.33385   0.33982   0.37902
  Beta virt. eigenvalues --    0.38128   0.38758   0.41098   0.41856   0.42346
  Beta virt. eigenvalues --    0.42511   0.42807   0.44431   0.47633   0.49780
  Beta virt. eigenvalues --    0.53769   0.57014   0.58957   0.64705   0.66360
  Beta virt. eigenvalues --    0.66692   0.68262   0.69433   0.72520   0.73682
  Beta virt. eigenvalues --    0.74134   0.75487   0.75752   0.79483   0.80593
  Beta virt. eigenvalues --    0.81891   0.86275   0.87046   0.89420   0.92419
  Beta virt. eigenvalues --    0.94664   1.02920   1.03350   1.05233   1.10831
  Beta virt. eigenvalues --    1.13086   1.15787   1.19760   1.20770   1.23433
  Beta virt. eigenvalues --    1.26684   1.28057   1.29487   1.32000   1.47564
  Beta virt. eigenvalues --    1.50934   1.52263   1.55359   1.60102   1.62150
  Beta virt. eigenvalues --    1.66146   1.68583   1.72540   1.73557   1.74241
  Beta virt. eigenvalues --    1.79244   1.82808   1.83042   1.88252   1.92342
  Beta virt. eigenvalues --    1.93776   1.94210   2.03095   2.03553   2.04837
  Beta virt. eigenvalues --    2.08524   2.10081   2.11623   2.16792   2.24248
  Beta virt. eigenvalues --    2.24375   2.33521   2.37059   2.37717   2.45889
  Beta virt. eigenvalues --    2.46601   2.46810   2.51331   2.55299   2.62069
  Beta virt. eigenvalues --    2.66723   2.70042   2.83019   3.01209   3.23144
  Beta virt. eigenvalues --    3.73209   3.88340   3.89530   3.97836   4.01668
  Beta virt. eigenvalues --    4.14426   4.16650   4.30142   4.71397
          Condensed to atoms (all electrons):
               1          2          3          4          5          6
     1  C    4.850611   0.543338  -0.012090  -0.033380  -0.036821   0.480077
     2  C    0.543338   4.926990   0.516048  -0.065824  -0.035629  -0.032688
     3  C   -0.012090   0.516048   4.612048   0.372866  -0.045054  -0.031518
     4  C   -0.033380  -0.065824   0.372866   4.735174   0.447787   0.001985
     5  C   -0.036821  -0.035629  -0.045054   0.447787   5.051785   0.505199
     6  C    0.480077  -0.032688  -0.031518   0.001985   0.505199   4.858266
     7  H    0.367329  -0.030842   0.003627   0.000359   0.004247  -0.036082
     8  H   -0.032000   0.357511  -0.031379   0.005992  -0.000085   0.004185
     9  H    0.003916   0.000346   0.002794  -0.039747   0.363750  -0.028443
    10  O   -0.000093   0.003834  -0.050226   0.277914  -0.060781   0.003391
    11  C    0.000018  -0.000135   0.003934  -0.037184  -0.000443   0.000080
    12  H    0.000000   0.000004  -0.000034   0.002970   0.000119   0.000000
    13  H   -0.000001  -0.000005  -0.000252  -0.006065   0.003341  -0.000002
    14  H   -0.000001  -0.000005  -0.000252  -0.006065   0.003341  -0.000002
    15  H   -0.033641   0.003703   0.000500   0.002871  -0.030265   0.365451
    16  O    0.003030  -0.053574   0.331700  -0.056996   0.004758  -0.000205
    17  H   -0.000156   0.005037  -0.026041  -0.012543   0.001200  -0.000075
               7          8          9         10         11         12
     1  C    0.367329  -0.032000   0.003916  -0.000093   0.000018   0.000000
     2  C   -0.030842   0.357511   0.000346   0.003834  -0.000135   0.000004
     3  C    0.003627  -0.031379   0.002794  -0.050226   0.003934  -0.000034
     4  C    0.000359   0.005992  -0.039747   0.277914  -0.037184   0.002970
     5  C    0.004247  -0.000085   0.363750  -0.060781  -0.000443   0.000119
     6  C   -0.036082   0.004185  -0.028443   0.003391   0.000080   0.000000
     7  H    0.473423  -0.004436  -0.000126   0.000001   0.000000   0.000000
     8  H   -0.004436   0.473045   0.000008  -0.000044   0.000002   0.000000
     9  H   -0.000126   0.000008   0.486715  -0.006480   0.006863  -0.000067
    10  O    0.000001  -0.000044  -0.006480   8.177709   0.205466  -0.027396
    11  C    0.000000   0.000002   0.006863   0.205466   4.961769   0.385366
    12  H    0.000000   0.000000  -0.000067  -0.027396   0.385366   0.453088
    13  H    0.000000   0.000000   0.001121  -0.027820   0.370834  -0.023790
    14  H    0.000000   0.000000   0.001121  -0.027820   0.370834  -0.023790
    15  H   -0.003853  -0.000110  -0.004116  -0.000033  -0.000005   0.000000
    16  O   -0.000038  -0.002080  -0.000034  -0.012568   0.000180   0.000004
    17  H    0.000003  -0.000166  -0.000004   0.026251  -0.000838  -0.000124
              13         14         15         16         17
     1  C   -0.000001  -0.000001  -0.033641   0.003030  -0.000156
     2  C   -0.000005  -0.000005   0.003703  -0.053574   0.005037
     3  C   -0.000252  -0.000252   0.000500   0.331700  -0.026041
     4  C   -0.006065  -0.006065   0.002871  -0.056996  -0.012543
     5  C    0.003341   0.003341  -0.030265   0.004758   0.001200
     6  C   -0.000002  -0.000002   0.365451  -0.000205  -0.000075
     7  H    0.000000   0.000000  -0.003853  -0.000038   0.000003
     8  H    0.000000   0.000000  -0.000110  -0.002080  -0.000166
     9  H    0.001121   0.001121  -0.004116  -0.000034  -0.000004
    10  O   -0.027820  -0.027820  -0.000033  -0.012568   0.026251
    11  C    0.370834   0.370834  -0.000005   0.000180  -0.000838
    12  H   -0.023790  -0.023790   0.000000   0.000004  -0.000124
    13  H    0.507584  -0.035745   0.000002  -0.000008   0.000082
    14  H   -0.035745   0.507583   0.000002  -0.000008   0.000082
    15  H    0.000002   0.000002   0.471740   0.000001   0.000000
    16  O   -0.000008  -0.000008   0.000001   8.076231   0.240697
    17  H    0.000082   0.000082   0.000000   0.240697   0.297544
          Atomic-Atomic Spin Densities.
               1          2          3          4          5          6
     1  C    0.124584  -0.023447  -0.005334  -0.004035  -0.003760   0.039641
     2  C   -0.023447  -0.038182   0.027035  -0.000865   0.002136  -0.005595
     3  C   -0.005334   0.027035   0.239775   0.043963  -0.000937  -0.005616
     4  C   -0.004035  -0.000865   0.043963   0.215448   0.015590  -0.006630
     5  C   -0.003760   0.002136  -0.000937   0.015590  -0.109928  -0.014357
     6  C    0.039641  -0.005595  -0.005616  -0.006630  -0.014357   0.247527
     7  H    0.000225   0.000280   0.000012  -0.000033   0.000020  -0.000690
     8  H    0.000062   0.001078  -0.000492   0.000055  -0.000039   0.000031
     9  H    0.000044  -0.000045   0.000114  -0.000276   0.001062  -0.000233
    10  O    0.000041  -0.000065  -0.007219  -0.054012   0.000352   0.000269
    11  C    0.000001  -0.000004  -0.000015   0.000670   0.000373  -0.000005
    12  H    0.000000   0.000000  -0.000001   0.000028  -0.000006   0.000000
    13  H   -0.000003   0.000002   0.000073   0.001564  -0.000008  -0.000049
    14  H   -0.000003   0.000002   0.000073   0.001563  -0.000007  -0.000049
    15  H   -0.000439   0.000016  -0.000033  -0.000007   0.000264  -0.000325
    16  O    0.000272  -0.001943  -0.060011  -0.005730  -0.000039   0.000061
    17  H   -0.000004  -0.000088   0.000770   0.000119  -0.000023   0.000001
               7          8          9         10         11         12
     1  C    0.000225   0.000062   0.000044   0.000041   0.000001   0.000000
     2  C    0.000280   0.001078  -0.000045  -0.000065  -0.000004   0.000000
     3  C    0.000012  -0.000492   0.000114  -0.007219  -0.000015  -0.000001
     4  C   -0.000033   0.000055  -0.000276  -0.054012   0.000670   0.000028
     5  C    0.000020  -0.000039   0.001062   0.000352   0.000373  -0.000006
     6  C   -0.000690   0.000031  -0.000233   0.000269  -0.000005   0.000000
     7  H   -0.006113   0.000095   0.000002   0.000000   0.000000   0.000000
     8  H    0.000095  -0.000759  -0.000001   0.000000   0.000000   0.000000
     9  H    0.000002  -0.000001   0.002202   0.000020  -0.000080   0.000005
    10  O    0.000000   0.000000   0.000020   0.225917  -0.004627   0.000096
    11  C    0.000000   0.000000  -0.000080  -0.004627  -0.010505   0.000238
    12  H    0.000000   0.000000   0.000005   0.000096   0.000238  -0.000337
    13  H    0.000000   0.000000  -0.000027  -0.002727   0.001993  -0.000070
    14  H    0.000000   0.000000  -0.000027  -0.002727   0.001994  -0.000070
    15  H    0.000047   0.000002   0.000078   0.000001   0.000000   0.000000
    16  O    0.000000  -0.000082   0.000000   0.002308  -0.000003   0.000000
    17  H    0.000000   0.000007   0.000000  -0.000434   0.000022   0.000002
              13         14         15         16         17
     1  C   -0.000003  -0.000003  -0.000439   0.000272  -0.000004
     2  C    0.000002   0.000002   0.000016  -0.001943  -0.000088
     3  C    0.000073   0.000073  -0.000033  -0.060011   0.000770
     4  C    0.001564   0.001563  -0.000007  -0.005730   0.000119
     5  C   -0.000008  -0.000007   0.000264  -0.000039  -0.000023
     6  C   -0.000049  -0.000049  -0.000325   0.000061   0.000001
     7  H    0.000000   0.000000   0.000047   0.000000   0.000000
     8  H    0.000000   0.000000   0.000002  -0.000082   0.000007
     9  H   -0.000027  -0.000027   0.000078   0.000000   0.000000
    10  O   -0.002727  -0.002727   0.000001   0.002308  -0.000434
    11  C    0.001993   0.001994   0.000000  -0.000003   0.000022
    12  H   -0.000070  -0.000070   0.000000   0.000000   0.000002
    13  H    0.013190  -0.002813   0.000000  -0.000005  -0.000001
    14  H   -0.002813   0.013190   0.000000  -0.000005  -0.000001
    15  H    0.000000   0.000000  -0.010719   0.000000   0.000000
    16  O   -0.000005  -0.000005   0.000000   0.245345  -0.001674
    17  H   -0.000001  -0.000001   0.000000  -0.001674  -0.004478
 Mulliken charges and spin densities:
               1          2
     1  C   -0.100137   0.127844
     2  C   -0.138107  -0.039685
     3  C    0.353329   0.232156
     4  C    0.409887   0.207411
     5  C   -0.176448  -0.109308
     6  C   -0.089619   0.253982
     7  H    0.226388  -0.006156
     8  H    0.229557  -0.000043
     9  H    0.212383   0.002837
    10  O   -0.481305   0.157191
    11  C   -0.266739  -0.009949
    12  H    0.233649  -0.000116
    13  H    0.210724   0.011120
    14  H    0.210726   0.011121
    15  H    0.227753  -0.011116
    16  O   -0.531092   0.178493
    17  H    0.469051  -0.005781
 Sum of Mulliken charges =   1.00000   1.00000
 Mulliken charges and spin densities with hydrogens summed into heavy atoms:
               1          2
     1  C    0.126251   0.121687
     2  C    0.091450  -0.039729
     3  C    0.353329   0.232156
     4  C    0.409887   0.207411
     5  C    0.035935  -0.106471
     6  C    0.138134   0.242865
    10  O   -0.481305   0.157191
    11  C    0.388360   0.012176
    16  O   -0.062040   0.172712
 Electronic spatial extent (au):  <R**2>=           1141.7779
 Charge=              1.0000 electrons
 Dipole moment (field-independent basis, Debye):
    X=              0.5791    Y=             -2.0794    Z=              0.0001  Tot=              2.1585
 Quadrupole moment (field-independent basis, Debye-Ang):
   XX=            -23.4618   YY=            -37.6143   ZZ=            -51.2309
   XY=              1.3324   XZ=              0.0006   YZ=              0.0000
 Traceless Quadrupole moment (field-independent basis, Debye-Ang):
   XX=             13.9738   YY=             -0.1786   ZZ=            -13.7952
   XY=              1.3324   XZ=              0.0006   YZ=              0.0000
 Octapole moment (field-independent basis, Debye-Ang**2):
  XXX=             14.0762  YYY=             -3.8665  ZZZ=              0.0003  XYY=              3.5656
  XXY=             -8.1557  XXZ=              0.0011  XZZ=              6.8147  YZZ=              3.5216
  YYZ=             -0.0001  XYZ=             -0.0002
 Hexadecapole moment (field-independent basis, Debye-Ang**3):
 XXXX=           -630.9710 YYYY=           -442.3179 ZZZZ=            -53.6491 XXXY=             -5.3434
 XXXZ=             -0.0016 YYYX=             33.6450 YYYZ=              0.0015 ZZZX=             -0.0065
 ZZZY=              0.0004 XXYY=           -179.7255 XXZZ=           -159.3846 YYZZ=            -94.5878
 XXYZ=              0.0003 YYXZ=             -0.0020 ZZXY=             -2.3116
 N-N= 4.337432541136D+02 E-N=-1.836817019771D+03  KE= 4.178664420503D+02
                          Isotropic Fermi Contact Couplings
        Atom                 a.u.       MegaHertz       Gauss      10(-4) cm-1
     1  C(13)              0.00900      10.11543       3.60944       3.37414
     2  C(13)             -0.00894     -10.04792      -3.58535      -3.35162
     3  C(13)              0.01621      18.22305       6.50244       6.07855
     4  C(13)              0.01464      16.45829       5.87273       5.48989
     5  C(13)             -0.01667     -18.74446      -6.68849      -6.25248
     6  C(13)              0.02305      25.90830       9.24472       8.64208
     7  H(1)              -0.00222      -9.90405      -3.53401      -3.30364
     8  H(1)              -0.00009      -0.41197      -0.14700      -0.13742
     9  H(1)               0.00091       4.08406       1.45729       1.36230
    10  O(17)              0.03516     -21.31208      -7.60468      -7.10894
    11  C(13)             -0.00454      -5.10599      -1.82194      -1.70317
    12  H(1)              -0.00010      -0.46021      -0.16422      -0.15351
    13  H(1)               0.00506      22.62683       8.07381       7.54750
    14  H(1)               0.00506      22.62873       8.07449       7.54813
    15  H(1)              -0.00395     -17.64215      -6.29516      -5.88479
    16  O(17)              0.03480     -21.09466      -7.52710      -7.03642
    17  H(1)              -0.00293     -13.09765      -4.67357      -4.36891
 --------------------------------------------------------
       Center         ----  Spin Dipole Couplings  ----
                      3XX-RR        3YY-RR        3ZZ-RR
 --------------------------------------------------------
     1   Atom       -0.072113     -0.075405      0.147518
     2   Atom        0.013154      0.004188     -0.017341
     3   Atom       -0.152264     -0.141502      0.293766
     4   Atom       -0.123405     -0.133583      0.256988
     5   Atom        0.041388      0.044134     -0.085522
     6   Atom       -0.137230     -0.129352      0.266582
     7   Atom        0.016322     -0.011653     -0.004669
     8   Atom        0.007481     -0.001931     -0.005550
     9   Atom        0.001207      0.004131     -0.005338
    10   Atom       -0.352724     -0.362477      0.715202
    11   Atom        0.001871     -0.000765     -0.001106
    12   Atom        0.006824     -0.003248     -0.003576
    13   Atom        0.000931      0.001479     -0.002410
    14   Atom        0.000931      0.001479     -0.002411
    15   Atom       -0.016391      0.020831     -0.004441
    16   Atom       -0.390468     -0.395870      0.786338
    17   Atom        0.034481     -0.018169     -0.016312
 --------------------------------------------------------
                        XY            XZ            YZ
 --------------------------------------------------------
     1   Atom       -0.002226     -0.000001      0.000000
     2   Atom        0.001929      0.000000      0.000000
     3   Atom       -0.001710      0.000002     -0.000004
     4   Atom       -0.004362     -0.000002      0.000001
     5   Atom        0.003779      0.000000      0.000000
     6   Atom        0.000110     -0.000001     -0.000002
     7   Atom       -0.000557      0.000000      0.000000
     8   Atom       -0.002618      0.000000      0.000000
     9   Atom        0.002570      0.000000      0.000000
    10   Atom       -0.008640     -0.000026      0.000046
    11   Atom       -0.008506      0.000002      0.000000
    12   Atom       -0.002312      0.000001      0.000000
    13   Atom       -0.004274      0.001852     -0.003242
    14   Atom       -0.004275     -0.001852      0.003241
    15   Atom        0.008886      0.000000      0.000000
    16   Atom        0.003140     -0.000013     -0.000002
    17   Atom       -0.000252      0.000001      0.000000
 --------------------------------------------------------


 ---------------------------------------------------------------------------------
              Anisotropic Spin Dipole Couplings in Principal Axis System
 ---------------------------------------------------------------------------------

       Atom             a.u.   MegaHertz   Gauss  10(-4) cm-1        Axes

              Baa    -0.0765   -10.269    -3.664    -3.425  0.4503  0.8929  0.0000
     1 C(13)  Bbb    -0.0710    -9.526    -3.399    -3.178  0.8929 -0.4503  0.0000
              Bcc     0.1475    19.796     7.064     6.603  0.0000  0.0000  1.0000
 
              Baa    -0.0173    -2.327    -0.830    -0.776  0.0000  0.0000  1.0000
     2 C(13)  Bbb     0.0038     0.509     0.181     0.170 -0.2018  0.9794  0.0000
              Bcc     0.0136     1.818     0.649     0.607  0.9794  0.2018  0.0000
 
              Baa    -0.1525   -20.468    -7.303    -6.827  0.9882  0.1533  0.0000
     3 C(13)  Bbb    -0.1412   -18.953    -6.763    -6.322 -0.1533  0.9882  0.0000
              Bcc     0.2938    39.421    14.066    13.149  0.0000  0.0000  1.0000
 
              Baa    -0.1352   -18.142    -6.474    -6.052  0.3469  0.9379  0.0000
     4 C(13)  Bbb    -0.1218   -16.343    -5.832    -5.452  0.9379 -0.3469  0.0000
              Bcc     0.2570    34.485    12.305    11.503  0.0000  0.0000  1.0000
 
              Baa    -0.0855   -11.476    -4.095    -3.828  0.0000  0.0000  1.0000
     5 C(13)  Bbb     0.0387     5.199     1.855     1.734  0.8190 -0.5738  0.0000
              Bcc     0.0468     6.278     2.240     2.094  0.5738  0.8190  0.0000
 
              Baa    -0.1372   -18.415    -6.571    -6.143  0.9999 -0.0140  0.0000
     6 C(13)  Bbb    -0.1294   -17.358    -6.194    -5.790  0.0140  0.9999  0.0000
              Bcc     0.2666    35.773    12.765    11.932  0.0000  0.0000  1.0000
 
              Baa    -0.0117    -6.223    -2.221    -2.076  0.0199  0.9998  0.0000
     7 H(1)   Bbb    -0.0047    -2.491    -0.889    -0.831  0.0000  0.0000  1.0000
              Bcc     0.0163     8.714     3.109     2.907  0.9998 -0.0199  0.0000
 
              Baa    -0.0055    -2.961    -1.057    -0.988  0.0000  0.0000  1.0000
     8 H(1)   Bbb    -0.0026    -1.393    -0.497    -0.465  0.2511  0.9680  0.0000
              Bcc     0.0082     4.354     1.554     1.452  0.9680 -0.2511  0.0000
 
              Baa    -0.0053    -2.848    -1.016    -0.950  0.0000  0.0000  1.0000
     9 H(1)   Bbb    -0.0003    -0.154    -0.055    -0.051  0.8644 -0.5028  0.0000
              Bcc     0.0056     3.002     1.071     1.001  0.5028  0.8644  0.0000
 
              Baa    -0.3675    26.594     9.489     8.871  0.5042  0.8636  0.0000
    10 O(17)  Bbb    -0.3477    25.158     8.977     8.392  0.8636 -0.5042  0.0000
              Bcc     0.7152   -51.751   -18.466   -17.262  0.0000  0.0000  1.0000
 
              Baa    -0.0081    -1.081    -0.386    -0.361  0.6507  0.7593 -0.0001
    11 C(13)  Bbb    -0.0011    -0.148    -0.053    -0.049  0.0000  0.0002  1.0000
              Bcc     0.0092     1.229     0.439     0.410  0.7593 -0.6507  0.0001
 
              Baa    -0.0038    -2.003    -0.715    -0.668  0.2135  0.9769  0.0005
    12 H(1)   Bbb    -0.0036    -1.908    -0.681    -0.636 -0.0002 -0.0005  1.0000
              Bcc     0.0073     3.911     1.395     1.304  0.9769 -0.2135  0.0001
 
              Baa    -0.0043    -2.318    -0.827    -0.773  0.1945  0.5822  0.7895
    13 H(1)   Bbb    -0.0026    -1.371    -0.489    -0.457  0.7655  0.4132 -0.4933
              Bcc     0.0069     3.689     1.316     1.230 -0.6134  0.7002 -0.3653
 
              Baa    -0.0043    -2.318    -0.827    -0.773 -0.1945 -0.5822  0.7895
    14 H(1)   Bbb    -0.0026    -1.371    -0.489    -0.457  0.7655  0.4132  0.4933
              Bcc     0.0069     3.689     1.316     1.231 -0.6134  0.7003  0.3652
 
              Baa    -0.0184    -9.819    -3.504    -3.275  0.9753 -0.2209  0.0000
    15 H(1)   Bbb    -0.0044    -2.369    -0.845    -0.790  0.0000  0.0000  1.0000
              Bcc     0.0228    12.189     4.349     4.066  0.2209  0.9753  0.0000
 
              Baa    -0.3973    28.749    10.258     9.590 -0.4171  0.9089  0.0000
    16 O(17)  Bbb    -0.3890    28.150    10.045     9.390  0.9089  0.4171  0.0000
              Bcc     0.7863   -56.899   -20.303   -18.979  0.0000  0.0000  1.0000
 
              Baa    -0.0182    -9.695    -3.459    -3.234  0.0048  1.0000  0.0000
    17 H(1)   Bbb    -0.0163    -8.703    -3.106    -2.903  0.0000  0.0000  1.0000
              Bcc     0.0345    18.398     6.565     6.137  1.0000 -0.0048  0.0000
 

 ---------------------------------------------------------------------------------

 No NMR shielding tensors so no spin-rotation constants.
 Leave Link  601 at Wed Dec 03 10:31:02 2025, MaxMem=   104857600 cpu:               1.0 elap:               0.2
 (Enter D:\Gaussian\G16W\l9999.exe)
 1|1|UNPC-PC-20250526LCFF|SP|UB3LYP|6-31G(d)|C7H8O2(1+,2)|ADMINISTRATOR
 |03-Dec-2025|0||#P B3LYP/6-31G* SCF=conver=7 out=wfn||Generated by Mul
 tiwfn (http://sobereva.com/multiwfn)||1,2|C,0,-2.299181,-0.588486,-0.0
 00019|C,0,-1.837988,0.729607,-0.000015|C,0,-0.474871,0.989131,-0.00001
 2|C,0,0.438651,-0.082854,-0.000013|C,0,-0.020852,-1.394115,-0.000018|C
 ,0,-1.397432,-1.64505,-0.00002|H,0,-3.365497,-0.781155,-0.000021|H,0,-
 2.52191,1.569785,-0.000013|H,0,0.67688,-2.221309,-0.000021|O,0,1.75452
 ,0.315616,-0.000017|C,0,2.763987,-0.684275,0.000087|H,0,3.714572,-0.15
 3422,0.000129|H,0,2.698879,-1.313417,0.8943|H,0,2.699,-1.313484,-0.894
 087|H,0,-1.751456,-2.669033,-0.000023|O,0,-0.020671,2.27267,-0.000008|
 H,0,0.944856,2.23199,-0.000001||Version=EM64W-G16RevA.03|State=2-A|HF=
 -421.708408|S2=0.76|S2-1=0.|S2A=0.750064|RMSD=3.894e-008|Dipole=0.2278
 391,-0.8180838,0.0000462|Quadrupole=10.3891972,-0.1327927,-10.2564045,
 0.990621,0.0004227,0.0000061|PG=C01 [X(C7H8O2)]||@

 Writing a WFN file to "N-1.wfn"


 WHEN ALL ELSE FAILS, TRY THE BOSS'S SUGGESTION.
 Job cpu time:       0 days  0 hours  0 minutes 38.0 seconds.
 Elapsed time:       0 days  0 hours  0 minutes 37.3 seconds.
 File lengths (MBytes):  RWF=     27 Int=      0 D2E=      0 Chk=      3 Scr=      1
 Normal termination of Gaussian 16 at Wed Dec 03 10:31:02 2025.
