 Entering Link 1 = D:\Gaussian\G16W\l1.exe PID=     35408.
  
 Copyright (c) 1988,1990,1992,1993,1995,1998,2003,2009,2016,
            Gaussian, Inc.  All Rights Reserved.
  
 This is part of the Gaussian(R) 16 program.  It is based on
 the Gaussian(R) 09 system (copyright 2009, Gaussian, Inc.),
 the Gaussian(R) 03 system (copyright 2003, Gaussian, Inc.),
 the Gaussian(R) 98 system (copyright 1998, Gaussian, Inc.),
 the Gaussian(R) 94 system (copyright 1995, Gaussian, Inc.),
 the Gaussian 92(TM) system (copyright 1992, Gaussian, Inc.),
 the Gaussian 90(TM) system (copyright 1990, Gaussian, Inc.),
 the Gaussian 88(TM) system (copyright 1988, Gaussian, Inc.),
 the Gaussian 86(TM) system (copyright 1986, Carnegie Mellon
 University), and the Gaussian 82(TM) system (copyright 1983,
 Carnegie Mellon University). Gaussian is a federally registered
 trademark of Gaussian, Inc.
  
 This software contains proprietary and confidential information,
 including trade secrets, belonging to Gaussian, Inc.
  
 This software is provided under written license and may be
 used, copied, transmitted, or stored only in accord with that
 written license.
  
 The following legend is applicable only to US Government
 contracts under FAR:
  
                    RESTRICTED RIGHTS LEGEND
  
 Use, reproduction and disclosure by the US Government is
 subject to restrictions as set forth in subparagraphs (a)
 and (c) of the Commercial Computer Software - Restricted
 Rights clause in FAR 52.227-19.
  
 Gaussian, Inc.
 340 Quinnipiac St., Bldg. 40, Wallingford CT 06492
  
  
 ---------------------------------------------------------------
 Warning -- This program may not be used in any manner that
 competes with the business of Gaussian, Inc. or will provide
 assistance to any competitor of Gaussian, Inc.  The licensee
 of this program is prohibited from giving any competitor of
 Gaussian, Inc. access to this program.  By using this program,
 the user acknowledges that Gaussian, Inc. is engaged in the
 business of creating and licensing software in the field of
 computational chemistry and represents and warrants to the
 licensee that it is not a competitor of Gaussian, Inc. and that
 it will not use this program in any manner prohibited above.
 ---------------------------------------------------------------
  

 Cite this work as:
 Gaussian 16, Revision A.03,
 M. J. Frisch, G. W. Trucks, H. B. Schlegel, G. E. Scuseria, 
 M. A. Robb, J. R. Cheeseman, G. Scalmani, V. Barone, 
 G. A. Petersson, H. Nakatsuji, X. Li, M. Caricato, A. V. Marenich, 
 J. Bloino, B. G. Janesko, R. Gomperts, B. Mennucci, H. P. Hratchian, 
 J. V. Ortiz, A. F. Izmaylov, J. L. Sonnenberg, D. Williams-Young, 
 F. Ding, F. Lipparini, F. Egidi, J. Goings, B. Peng, A. Petrone, 
 T. Henderson, D. Ranasinghe, V. G. Zakrzewski, J. Gao, N. Rega, 
 G. Zheng, W. Liang, M. Hada, M. Ehara, K. Toyota, R. Fukuda, 
 J. Hasegawa, M. Ishida, T. Nakajima, Y. Honda, O. Kitao, H. Nakai, 
 T. Vreven, K. Throssell, J. A. Montgomery, Jr., J. E. Peralta, 
 F. Ogliaro, M. J. Bearpark, J. J. Heyd, E. N. Brothers, K. N. Kudin, 
 V. N. Staroverov, T. A. Keith, R. Kobayashi, J. Normand, 
 K. Raghavachari, A. P. Rendell, J. C. Burant, S. S. Iyengar, 
 J. Tomasi, M. Cossi, J. M. Millam, M. Klene, C. Adamo, R. Cammi, 
 J. W. Ochterski, R. L. Martin, K. Morokuma, O. Farkas, 
 J. B. Foresman, and D. J. Fox, Gaussian, Inc., Wallingford CT, 2016.
 
 ******************************************
 Gaussian 16:  EM64W-G16RevA.03 17-Dec-2016
                03-Dec-2025 
 ******************************************
 %nprocs=   4
 Will use up to    4 processors via shared memory.
 ------------------------------------
 #P B3LYP/6-31G* SCF=conver=7 out=wfn
 ------------------------------------
 1/38=1,172=1/1;
 2/12=2,17=6,18=5,40=1/2;
 3/5=1,6=6,7=1,11=2,25=1,30=1,74=-5/1,2,3;
 4//1;
 5/5=2,6=7,38=5/2;
 6/7=2,8=2,9=2,10=2,28=1/1;
 99/5=1,6=100,9=1/99;
 Leave Link    1 at Wed Dec 03 10:28:48 2025, MaxMem=           0 cpu:               0.0 elap:               0.1
 (Enter D:\Gaussian\G16W\l101.exe)
 ----------------------------------------------------
 Generated by Multiwfn (http://sobereva.com/multiwfn)
 ----------------------------------------------------
 Symbolic Z-matrix:
 Charge =  0 Multiplicity = 1
 C                    -2.29918  -0.58849  -0.00002 
 C                    -1.83799   0.72961  -0.00002 
 C                    -0.47487   0.98913  -0.00001 
 C                     0.43865  -0.08285  -0.00001 
 C                    -0.02085  -1.39412  -0.00002 
 C                    -1.39743  -1.64505  -0.00002 
 H                    -3.3655   -0.78116  -0.00002 
 H                    -2.52191   1.56979  -0.00001 
 H                     0.67688  -2.22131  -0.00002 
 O                     1.75452   0.31562  -0.00002 
 C                     2.76399  -0.68428   0.00009 
 H                     3.71457  -0.15342   0.00013 
 H                     2.69888  -1.31342   0.8943 
 H                     2.699    -1.31348  -0.89409 
 H                    -1.75146  -2.66903  -0.00002 
 O                    -0.02067   2.27267  -0.00001 
 H                     0.94486   2.23199  0. 
 
 ITRead=  0  0  0  0  0  0  0  0  0  0  0  0  0  0  0  0  0
 MicOpt= -1 -1 -1 -1 -1 -1 -1 -1 -1 -1 -1 -1 -1 -1 -1 -1 -1
 NAtoms=     17 NQM=       17 NQMF=       0 NMMI=      0 NMMIF=      0
                NMic=       0 NMicF=      0.
                    Isotopes and Nuclear Properties:
 (Nuclear quadrupole moments (NQMom) in fm**2, nuclear magnetic moments (NMagM)
  in nuclear magnetons)

  Atom         1           2           3           4           5           6           7           8           9          10
 IAtWgt=          12          12          12          12          12          12           1           1           1          16
 AtmWgt=  12.0000000  12.0000000  12.0000000  12.0000000  12.0000000  12.0000000   1.0078250   1.0078250   1.0078250  15.9949146
 NucSpn=           0           0           0           0           0           0           1           1           1           0
 AtZEff=   0.0000000   0.0000000   0.0000000   0.0000000   0.0000000   0.0000000   0.0000000   0.0000000   0.0000000   0.0000000
 NQMom=    0.0000000   0.0000000   0.0000000   0.0000000   0.0000000   0.0000000   0.0000000   0.0000000   0.0000000   0.0000000
 NMagM=    0.0000000   0.0000000   0.0000000   0.0000000   0.0000000   0.0000000   2.7928460   2.7928460   2.7928460   0.0000000
 AtZNuc=   6.0000000   6.0000000   6.0000000   6.0000000   6.0000000   6.0000000   1.0000000   1.0000000   1.0000000   8.0000000

  Atom        11          12          13          14          15          16          17
 IAtWgt=          12           1           1           1           1          16           1
 AtmWgt=  12.0000000   1.0078250   1.0078250   1.0078250   1.0078250  15.9949146   1.0078250
 NucSpn=           0           1           1           1           1           0           1
 AtZEff=   0.0000000   0.0000000   0.0000000   0.0000000   0.0000000   0.0000000   0.0000000
 NQMom=    0.0000000   0.0000000   0.0000000   0.0000000   0.0000000   0.0000000   0.0000000
 NMagM=    0.0000000   2.7928460   2.7928460   2.7928460   2.7928460   0.0000000   2.7928460
 AtZNuc=   6.0000000   1.0000000   1.0000000   1.0000000   1.0000000   8.0000000   1.0000000
 Leave Link  101 at Wed Dec 03 10:28:48 2025, MaxMem=   104857600 cpu:               0.0 elap:               0.1
 (Enter D:\Gaussian\G16W\l202.exe)
                          Input orientation:                          
 ---------------------------------------------------------------------
 Center     Atomic      Atomic             Coordinates (Angstroms)
 Number     Number       Type             X           Y           Z
 ---------------------------------------------------------------------
      1          6           0       -2.299181   -0.588486   -0.000019
      2          6           0       -1.837988    0.729607   -0.000015
      3          6           0       -0.474871    0.989131   -0.000012
      4          6           0        0.438651   -0.082854   -0.000013
      5          6           0       -0.020852   -1.394115   -0.000018
      6          6           0       -1.397432   -1.645050   -0.000020
      7          1           0       -3.365497   -0.781155   -0.000021
      8          1           0       -2.521910    1.569785   -0.000013
      9          1           0        0.676880   -2.221309   -0.000021
     10          8           0        1.754520    0.315616   -0.000017
     11          6           0        2.763987   -0.684275    0.000087
     12          1           0        3.714572   -0.153422    0.000129
     13          1           0        2.698879   -1.313417    0.894300
     14          1           0        2.699000   -1.313484   -0.894087
     15          1           0       -1.751456   -2.669033   -0.000023
     16          8           0       -0.020671    2.272670   -0.000008
     17          1           0        0.944856    2.231990   -0.000001
 ---------------------------------------------------------------------
                    Distance matrix (angstroms):
                    1          2          3          4          5
     1  C    0.000000
     2  C    1.396448   0.000000
     3  C    2.411842   1.387602   0.000000
     4  C    2.784131   2.417267   1.408430   0.000000
     5  C    2.416572   2.795027   2.426107   1.389442   0.000000
     6  C    1.389057   2.415178   2.791062   2.410738   1.399264
     7  H    1.083583   2.148415   3.389636   3.867708   3.400349
     8  H    2.169733   1.083351   2.127799   3.390595   3.878143
     9  H    3.394562   3.877172   3.410785   2.151684   1.082164
    10  O    4.153299   3.616283   2.328907   1.374878   2.464777
    11  C    5.064074   4.814274   3.645612   2.401852   2.873883
    12  H    6.029470   5.622336   4.342449   3.276681   3.936078
    13  H    5.128931   5.055384   4.021717   2.724465   2.864132
    14  H    5.129015   5.055477   4.021798   2.724518   2.864168
    15  H    2.151436   3.399741   3.874511   3.388936   2.149513
    16  O    3.657570   2.384048   1.361532   2.399890   3.666785
    17  H    4.298705   3.162495   1.886882   2.369546   3.752496
                    6          7          8          9         10
     6  C    0.000000
     7  H    2.149324   0.000000
     8  H    3.405821   2.497711   0.000000
     9  H    2.152869   4.291253   4.960308   0.000000
    10  O    3.712009   5.236170   4.456545   2.756319   0.000000
    11  C    4.270889   6.130250   5.746433   2.592005   1.420847
    12  H    5.325180   7.107843   6.470174   3.674742   2.015391
    13  H    4.205895   6.153029   6.030695   2.390096   2.084554
    14  H    4.205954   6.153117   6.030797   2.390077   2.084555
    15  H    1.083455   2.483790   4.308268   2.469266   4.604345
    16  O    4.152590   4.529206   2.598123   4.547793   2.642227
    17  H    4.529653   5.259105   3.529445   4.461354   2.080395
                   11         12         13         14         15
    11  C    0.000000
    12  H    1.088768   0.000000
    13  H    1.095297   1.782347   0.000000
    14  H    1.095296   1.782345   1.788387   0.000000
    15  H    4.932392   6.017122   4.737403   4.737449   0.000000
    16  O    4.061754   4.453983   4.588655   4.588735   5.236033
    17  H    3.437127   3.655341   4.055402   4.055465   5.593758
                   16         17
    16  O    0.000000
    17  H    0.966384   0.000000
 Stoichiometry    C7H8O2
 Framework group  C1[X(C7H8O2)]
 Deg. of freedom    45
 Full point group                 C1      NOp   1
 Largest Abelian subgroup         C1      NOp   1
 Largest concise Abelian subgroup C1      NOp   1
                         Standard orientation:                         
 ---------------------------------------------------------------------
 Center     Atomic      Atomic             Coordinates (Angstroms)
 Number     Number       Type             X           Y           Z
 ---------------------------------------------------------------------
      1          6           0       -2.299181   -0.588486   -0.000019
      2          6           0       -1.837988    0.729607   -0.000015
      3          6           0       -0.474871    0.989131   -0.000012
      4          6           0        0.438651   -0.082854   -0.000013
      5          6           0       -0.020852   -1.394115   -0.000018
      6          6           0       -1.397432   -1.645050   -0.000020
      7          1           0       -3.365497   -0.781155   -0.000021
      8          1           0       -2.521910    1.569785   -0.000013
      9          1           0        0.676880   -2.221309   -0.000021
     10          8           0        1.754520    0.315616   -0.000017
     11          6           0        2.763987   -0.684275    0.000087
     12          1           0        3.714572   -0.153422    0.000129
     13          1           0        2.698879   -1.313417    0.894300
     14          1           0        2.699000   -1.313484   -0.894087
     15          1           0       -1.751456   -2.669033   -0.000023
     16          8           0       -0.020671    2.272670   -0.000008
     17          1           0        0.944856    2.231990   -0.000001
 ---------------------------------------------------------------------
 Rotational constants (GHZ):           2.6172540           1.5509198           0.9799306
 Leave Link  202 at Wed Dec 03 10:28:48 2025, MaxMem=   104857600 cpu:               0.0 elap:               0.1
 (Enter D:\Gaussian\G16W\l301.exe)
 Standard basis: 6-31G(d) (6D, 7F)
 Ernie: Thresh=  0.10000D-02 Tol=  0.10000D-05 Strict=F.
 There are   151 symmetry adapted cartesian basis functions of A   symmetry.
 There are   151 symmetry adapted basis functions of A   symmetry.
   151 basis functions,   284 primitive gaussians,   151 cartesian basis functions
    33 alpha electrons       33 beta electrons
       nuclear repulsion energy       433.7432541136 Hartrees.
 IExCor=  402 DFT=T Ex+Corr=B3LYP ExCW=0 ScaHFX=  0.200000
 ScaDFX=  0.800000  0.720000  1.000000  0.810000 ScalE2=  1.000000  1.000000
 IRadAn=      5 IRanWt=     -1 IRanGd=            0 ICorTp=0 IEmpDi=  4
 NAtoms=   17 NActive=   17 NUniq=   17 SFac= 1.00D+00 NAtFMM=   60 NAOKFM=F Big=F
 Integral buffers will be    131072 words long.
 Raffenetti 2 integral format.
 Two-electron integral symmetry is turned on.
 Leave Link  301 at Wed Dec 03 10:28:48 2025, MaxMem=   104857600 cpu:               0.0 elap:               0.1
 (Enter D:\Gaussian\G16W\l302.exe)
 NPDir=0 NMtPBC=     1 NCelOv=     1 NCel=       1 NClECP=     1 NCelD=      1
         NCelK=      1 NCelE2=     1 NClLst=     1 CellRange=     0.0.
 One-electron integrals computed using PRISM.
 One-electron integral symmetry used in STVInt
 NBasis=   151 RedAO= T EigKep=  4.13D-04  NBF=   151
 NBsUse=   151 1.00D-06 EigRej= -1.00D+00 NBFU=   151
 Precomputing XC quadrature grid using
 IXCGrd= 4 IRadAn=           5 IRanWt=          -1 IRanGd=           0 AccXCQ= 0.00D+00.
 Generated NRdTot=       0 NPtTot=           0 NUsed=           0 NTot=          32
 NSgBfM=   151   151   151   151   151 MxSgAt=    17 MxSgA2=    17.
 Leave Link  302 at Wed Dec 03 10:28:49 2025, MaxMem=   104857600 cpu:               0.0 elap:               0.3
 (Enter D:\Gaussian\G16W\l303.exe)
 DipDrv:  MaxL=1.
 Leave Link  303 at Wed Dec 03 10:28:49 2025, MaxMem=   104857600 cpu:               0.0 elap:               0.1
 (Enter D:\Gaussian\G16W\l401.exe)
 ExpMin= 1.61D-01 ExpMax= 5.48D+03 ExpMxC= 8.25D+02 IAcc=3 IRadAn=         5 AccDes= 0.00D+00
 Harris functional with IExCor=  402 and IRadAn=       5 diagonalized for initial guess.
 HarFok:  IExCor=  402 AccDes= 0.00D+00 IRadAn=         5 IDoV= 1 UseB2=F ITyADJ=14
 ICtDFT=  3500011 ScaDFX=  1.000000  1.000000  1.000000  1.000000
 FoFCou: FMM=F IPFlag=           0 FMFlag=      100000 FMFlg1=           0
         NFxFlg=           0 DoJE=T BraDBF=F KetDBF=T FulRan=T
         wScrn=  0.000000 ICntrl=       500 IOpCl=  0 I1Cent=   200000004 NGrid=           0
         NMat0=    1 NMatS0=      1 NMatT0=    0 NMatD0=    1 NMtDS0=    0 NMtDT0=    0
 Petite list used in FoFCou.
 Harris En= -422.010608702319    
 JPrj=0 DoOrth=F DoCkMO=F.
 Leave Link  401 at Wed Dec 03 10:28:50 2025, MaxMem=   104857600 cpu:               1.0 elap:               0.9
 (Enter D:\Gaussian\G16W\l502.exe)
 Keep R1 ints in memory in canonical form, NReq=69757708.
 FoFCou: FMM=F IPFlag=           0 FMFlag=           0 FMFlg1=           0
         NFxFlg=           0 DoJE=F BraDBF=F KetDBF=F FulRan=T
         wScrn=  0.000000 ICntrl=       600 IOpCl=  0 I1Cent=           0 NGrid=           0
         NMat0=    1 NMatS0=  11476 NMatT0=    0 NMatD0=    1 NMtDS0=    0 NMtDT0=    0
 Symmetry not used in FoFCou.
 Two-electron integral symmetry not used.
 Closed shell SCF:
 Using DIIS extrapolation, IDIIS=  1040.
 NGot=   104857600 LenX=    38954258 LenY=    38931016
 Requested convergence on RMS density matrix=1.00D-07 within 128 cycles.
 Requested convergence on MAX density matrix=1.00D-05.
 Requested convergence on             energy=1.00D-05.
 No special actions if energy rises.
 Integral accuracy reduced to 1.0D-05 until final iterations.

 Cycle   1  Pass 0  IDiag  1:
 E= -421.777737142875    
 DIIS: error= 3.52D-02 at cycle   1 NSaved=   1.
 NSaved= 1 IEnMin= 1 EnMin= -421.777737142875     IErMin= 1 ErrMin= 3.52D-02
 ErrMax= 3.52D-02  0.00D+00 EMaxC= 1.00D-01 BMatC= 2.10D-01 BMatP= 2.10D-01
 IDIUse=3 WtCom= 6.48D-01 WtEn= 3.52D-01
 Coeff-Com:  0.100D+01
 Coeff-En:   0.100D+01
 Coeff:      0.100D+01
 Gap=     0.236 Goal=   None    Shift=    0.000
 GapD=    0.236 DampG=1.000 DampE=0.500 DampFc=0.5000 IDamp=-1.
 Damping current iteration by 5.00D-01
 RMSDP=6.75D-03 MaxDP=1.28D-01              OVMax= 2.07D-01

 Cycle   2  Pass 0  IDiag  1:
 E= -421.869631488470     Delta-E=       -0.091894345595 Rises=F Damp=T
 DIIS: error= 8.50D-03 at cycle   2 NSaved=   2.
 NSaved= 2 IEnMin= 2 EnMin= -421.869631488470     IErMin= 2 ErrMin= 8.50D-03
 ErrMax= 8.50D-03  0.00D+00 EMaxC= 1.00D-01 BMatC= 1.50D-02 BMatP= 2.10D-01
 IDIUse=3 WtCom= 9.15D-01 WtEn= 8.50D-02
 Coeff-Com:  0.655D-01 0.934D+00
 Coeff-En:   0.118D+00 0.882D+00
 Coeff:      0.700D-01 0.930D+00
 Gap=     0.237 Goal=   None    Shift=    0.000
 RMSDP=1.86D-03 MaxDP=4.67D-02 DE=-9.19D-02 OVMax= 1.87D-01

 Cycle   3  Pass 0  IDiag  1:
 E= -421.972267086506     Delta-E=       -0.102635598037 Rises=F Damp=F
 DIIS: error= 1.09D-02 at cycle   3 NSaved=   3.
 NSaved= 3 IEnMin= 3 EnMin= -421.972267086506     IErMin= 2 ErrMin= 8.50D-03
 ErrMax= 1.09D-02  0.00D+00 EMaxC= 1.00D-01 BMatC= 1.51D-02 BMatP= 1.50D-02
 IDIUse=3 WtCom= 8.91D-01 WtEn= 1.09D-01
 Coeff-Com: -0.135D-01 0.506D+00 0.508D+00
 Coeff-En:   0.000D+00 0.000D+00 0.100D+01
 Coeff:     -0.120D-01 0.451D+00 0.561D+00
 Gap=     0.218 Goal=   None    Shift=    0.000
 RMSDP=1.35D-03 MaxDP=3.68D-02 DE=-1.03D-01 OVMax= 8.79D-02

 Cycle   4  Pass 0  IDiag  1:
 E= -421.984043149933     Delta-E=       -0.011776063427 Rises=F Damp=F
 DIIS: error= 5.88D-03 at cycle   4 NSaved=   4.
 NSaved= 4 IEnMin= 4 EnMin= -421.984043149933     IErMin= 4 ErrMin= 5.88D-03
 ErrMax= 5.88D-03  0.00D+00 EMaxC= 1.00D-01 BMatC= 4.30D-03 BMatP= 1.50D-02
 IDIUse=3 WtCom= 9.41D-01 WtEn= 5.88D-02
 Coeff-Com: -0.959D-02 0.848D-01 0.357D+00 0.568D+00
 Coeff-En:   0.000D+00 0.000D+00 0.266D+00 0.734D+00
 Coeff:     -0.903D-02 0.798D-01 0.351D+00 0.578D+00
 Gap=     0.215 Goal=   None    Shift=    0.000
 RMSDP=5.39D-04 MaxDP=1.18D-02 DE=-1.18D-02 OVMax= 3.19D-02

 Cycle   5  Pass 0  IDiag  1:
 E= -421.988700073991     Delta-E=       -0.004656924058 Rises=F Damp=F
 DIIS: error= 7.06D-04 at cycle   5 NSaved=   5.
 NSaved= 5 IEnMin= 5 EnMin= -421.988700073991     IErMin= 5 ErrMin= 7.06D-04
 ErrMax= 7.06D-04  0.00D+00 EMaxC= 1.00D-01 BMatC= 1.09D-04 BMatP= 4.30D-03
 IDIUse=3 WtCom= 9.93D-01 WtEn= 7.06D-03
 Coeff-Com: -0.252D-02 0.163D-01 0.142D+00 0.279D+00 0.565D+00
 Coeff-En:   0.000D+00 0.000D+00 0.000D+00 0.000D+00 0.100D+01
 Coeff:     -0.251D-02 0.162D-01 0.141D+00 0.277D+00 0.568D+00
 Gap=     0.216 Goal=   None    Shift=    0.000
 RMSDP=8.52D-05 MaxDP=2.25D-03 DE=-4.66D-03 OVMax= 3.76D-03

 Cycle   6  Pass 0  IDiag  1:
 E= -421.988779452230     Delta-E=       -0.000079378239 Rises=F Damp=F
 DIIS: error= 2.88D-04 at cycle   6 NSaved=   6.
 NSaved= 6 IEnMin= 6 EnMin= -421.988779452230     IErMin= 6 ErrMin= 2.88D-04
 ErrMax= 2.88D-04  0.00D+00 EMaxC= 1.00D-01 BMatC= 1.92D-05 BMatP= 1.09D-04
 IDIUse=3 WtCom= 9.97D-01 WtEn= 2.88D-03
 Coeff-Com: -0.350D-03-0.104D-02 0.367D-01 0.873D-01 0.337D+00 0.540D+00
 Coeff-En:   0.000D+00 0.000D+00 0.000D+00 0.000D+00 0.124D+00 0.876D+00
 Coeff:     -0.349D-03-0.104D-02 0.366D-01 0.870D-01 0.336D+00 0.541D+00
 Gap=     0.215 Goal=   None    Shift=    0.000
 RMSDP=2.94D-05 MaxDP=6.97D-04 DE=-7.94D-05 OVMax= 9.33D-04

 Cycle   7  Pass 0  IDiag  1:
 E= -421.988794756380     Delta-E=       -0.000015304150 Rises=F Damp=F
 DIIS: error= 4.64D-05 at cycle   7 NSaved=   7.
 NSaved= 7 IEnMin= 7 EnMin= -421.988794756380     IErMin= 7 ErrMin= 4.64D-05
 ErrMax= 4.64D-05  0.00D+00 EMaxC= 1.00D-01 BMatC= 3.22D-07 BMatP= 1.92D-05
 IDIUse=1 WtCom= 1.00D+00 WtEn= 0.00D+00
 Coeff-Com:  0.191D-04-0.102D-02 0.112D-01 0.271D-01 0.124D+00 0.218D+00
 Coeff-Com:  0.621D+00
 Coeff:      0.191D-04-0.102D-02 0.112D-01 0.271D-01 0.124D+00 0.218D+00
 Coeff:      0.621D+00
 Gap=     0.216 Goal=   None    Shift=    0.000
 RMSDP=5.84D-06 MaxDP=1.79D-04 DE=-1.53D-05 OVMax= 2.97D-04

 Initial convergence to 1.0D-05 achieved.  Increase integral accuracy.
 Cycle   8  Pass 1  IDiag  1:
 E= -421.988798490572     Delta-E=       -0.000003734192 Rises=F Damp=F
 DIIS: error= 2.12D-05 at cycle   1 NSaved=   1.
 NSaved= 1 IEnMin= 1 EnMin= -421.988798490572     IErMin= 1 ErrMin= 2.12D-05
 ErrMax= 2.12D-05  0.00D+00 EMaxC= 1.00D-01 BMatC= 1.10D-07 BMatP= 1.10D-07
 IDIUse=1 WtCom= 1.00D+00 WtEn= 0.00D+00
 Coeff-Com:  0.100D+01
 Coeff:      0.100D+01
 Gap=     0.215 Goal=   None    Shift=    0.000
 RMSDP=5.84D-06 MaxDP=1.79D-04 DE=-3.73D-06 OVMax= 3.85D-04

 Cycle   9  Pass 1  IDiag  1:
 E= -421.988798247623     Delta-E=        0.000000242949 Rises=F Damp=F
 DIIS: error= 4.06D-05 at cycle   2 NSaved=   2.
 NSaved= 2 IEnMin= 1 EnMin= -421.988798490572     IErMin= 1 ErrMin= 2.12D-05
 ErrMax= 4.06D-05  0.00D+00 EMaxC= 1.00D-01 BMatC= 3.33D-07 BMatP= 1.10D-07
 IDIUse=1 WtCom= 1.00D+00 WtEn= 0.00D+00
 Coeff-Com:  0.637D+00 0.363D+00
 Coeff:      0.637D+00 0.363D+00
 Gap=     0.216 Goal=   None    Shift=    0.000
 RMSDP=4.24D-06 MaxDP=1.24D-04 DE= 2.43D-07 OVMax= 2.66D-04

 Cycle  10  Pass 1  IDiag  1:
 E= -421.988798607142     Delta-E=       -0.000000359519 Rises=F Damp=F
 DIIS: error= 3.81D-06 at cycle   3 NSaved=   3.
 NSaved= 3 IEnMin= 3 EnMin= -421.988798607142     IErMin= 3 ErrMin= 3.81D-06
 ErrMax= 3.81D-06  0.00D+00 EMaxC= 1.00D-01 BMatC= 2.87D-09 BMatP= 1.10D-07
 IDIUse=1 WtCom= 1.00D+00 WtEn= 0.00D+00
 Coeff-Com:  0.295D+00 0.182D+00 0.523D+00
 Coeff:      0.295D+00 0.182D+00 0.523D+00
 Gap=     0.216 Goal=   None    Shift=    0.000
 RMSDP=4.51D-07 MaxDP=1.42D-05 DE=-3.60D-07 OVMax= 2.70D-05

 Cycle  11  Pass 1  IDiag  1:
 E= -421.988798609783     Delta-E=       -0.000000002641 Rises=F Damp=F
 DIIS: error= 1.46D-06 at cycle   4 NSaved=   4.
 NSaved= 4 IEnMin= 4 EnMin= -421.988798609783     IErMin= 4 ErrMin= 1.46D-06
 ErrMax= 1.46D-06  0.00D+00 EMaxC= 1.00D-01 BMatC= 3.37D-10 BMatP= 2.87D-09
 IDIUse=1 WtCom= 1.00D+00 WtEn= 0.00D+00
 Coeff-Com:  0.443D-02 0.102D-01 0.260D+00 0.725D+00
 Coeff:      0.443D-02 0.102D-01 0.260D+00 0.725D+00
 Gap=     0.216 Goal=   None    Shift=    0.000
 RMSDP=1.49D-07 MaxDP=3.43D-06 DE=-2.64D-09 OVMax= 7.79D-06

 Cycle  12  Pass 1  IDiag  1:
 E= -421.988798610122     Delta-E=       -0.000000000339 Rises=F Damp=F
 DIIS: error= 4.66D-07 at cycle   5 NSaved=   5.
 NSaved= 5 IEnMin= 5 EnMin= -421.988798610122     IErMin= 5 ErrMin= 4.66D-07
 ErrMax= 4.66D-07  0.00D+00 EMaxC= 1.00D-01 BMatC= 1.95D-11 BMatP= 3.37D-10
 IDIUse=1 WtCom= 1.00D+00 WtEn= 0.00D+00
 Coeff-Com: -0.950D-02-0.178D-02 0.106D+00 0.356D+00 0.549D+00
 Coeff:     -0.950D-02-0.178D-02 0.106D+00 0.356D+00 0.549D+00
 Gap=     0.216 Goal=   None    Shift=    0.000
 RMSDP=4.74D-08 MaxDP=9.12D-07 DE=-3.39D-10 OVMax= 2.93D-06

 SCF Done:  E(RB3LYP) =  -421.988798610     A.U. after   12 cycles
            NFock= 12  Conv=0.47D-07     -V/T= 2.0091
 KE= 4.181779827189D+02 PE=-1.850893590382D+03 EE= 5.769835549390D+02
 Leave Link  502 at Wed Dec 03 10:29:01 2025, MaxMem=   104857600 cpu:              11.0 elap:              11.1
 (Enter D:\Gaussian\G16W\l601.exe)
 Copying SCF densities to generalized density rwf, IOpCl= 0 IROHF=0.

 **********************************************************************

            Population analysis using the SCF density.

 **********************************************************************

 Orbital symmetries:
       Occupied  (A) (A) (A) (A) (A) (A) (A) (A) (A) (A) (A) (A)
                 (A) (A) (A) (A) (A) (A) (A) (A) (A) (A) (A) (A)
                 (A) (A) (A) (A) (A) (A) (A) (A) (A)
       Virtual   (A) (A) (A) (A) (A) (A) (A) (A) (A) (A) (A) (A)
                 (A) (A) (A) (A) (A) (A) (A) (A) (A) (A) (A) (A)
                 (A) (A) (A) (A) (A) (A) (A) (A) (A) (A) (A) (A)
                 (A) (A) (A) (A) (A) (A) (A) (A) (A) (A) (A) (A)
                 (A) (A) (A) (A) (A) (A) (A) (A) (A) (A) (A) (A)
                 (A) (A) (A) (A) (A) (A) (A) (A) (A) (A) (A) (A)
                 (A) (A) (A) (A) (A) (A) (A) (A) (A) (A) (A) (A)
                 (A) (A) (A) (A) (A) (A) (A) (A) (A) (A) (A) (A)
                 (A) (A) (A) (A) (A) (A) (A) (A) (A) (A) (A) (A)
                 (A) (A) (A) (A) (A) (A) (A) (A) (A) (A)
 The electronic state is 1-A.
 Alpha  occ. eigenvalues --  -19.18802 -19.16661 -10.24889 -10.24247 -10.23941
 Alpha  occ. eigenvalues --  -10.18699 -10.18001 -10.17945 -10.17818  -1.07697
 Alpha  occ. eigenvalues --   -1.04405  -0.84315  -0.75432  -0.73867  -0.69847
 Alpha  occ. eigenvalues --   -0.60423  -0.60228  -0.54943  -0.51873  -0.48440
 Alpha  occ. eigenvalues --   -0.47654  -0.45288  -0.44413  -0.42216  -0.40465
 Alpha  occ. eigenvalues --   -0.38512  -0.37694  -0.34375  -0.34084  -0.33598
 Alpha  occ. eigenvalues --   -0.31744  -0.23430  -0.20302
 Alpha virt. eigenvalues --    0.01253   0.02209   0.07767   0.09431   0.11799
 Alpha virt. eigenvalues --    0.14360   0.14926   0.16041   0.16061   0.18200
 Alpha virt. eigenvalues --    0.18796   0.19611   0.23047   0.26927   0.31635
 Alpha virt. eigenvalues --    0.33352   0.35258   0.37368   0.48504   0.51852
 Alpha virt. eigenvalues --    0.51871   0.52712   0.54616   0.54839   0.58019
 Alpha virt. eigenvalues --    0.58640   0.60680   0.61563   0.61656   0.62175
 Alpha virt. eigenvalues --    0.63086   0.64838   0.66947   0.68808   0.72468
 Alpha virt. eigenvalues --    0.75702   0.78210   0.82725   0.83765   0.84875
 Alpha virt. eigenvalues --    0.85218   0.86542   0.90786   0.92320   0.93011
 Alpha virt. eigenvalues --    0.93840   0.95274   0.97216   0.99722   1.01299
 Alpha virt. eigenvalues --    1.05109   1.06278   1.09109   1.11258   1.14253
 Alpha virt. eigenvalues --    1.22958   1.24499   1.24913   1.29256   1.34249
 Alpha virt. eigenvalues --    1.35218   1.40746   1.40769   1.44656   1.47503
 Alpha virt. eigenvalues --    1.47887   1.50588   1.51458   1.66989   1.70813
 Alpha virt. eigenvalues --    1.73465   1.76734   1.80953   1.83129   1.86548
 Alpha virt. eigenvalues --    1.89625   1.93182   1.94345   1.95167   1.99567
 Alpha virt. eigenvalues --    2.02844   2.03226   2.07472   2.12424   2.12873
 Alpha virt. eigenvalues --    2.14996   2.22390   2.23620   2.24890   2.29419
 Alpha virt. eigenvalues --    2.29947   2.33011   2.36364   2.44438   2.45218
 Alpha virt. eigenvalues --    2.54226   2.58165   2.59114   2.66555   2.66874
 Alpha virt. eigenvalues --    2.68104   2.72509   2.76574   2.83377   2.87404
 Alpha virt. eigenvalues --    2.91401   3.04009   3.22923   3.44723   3.93838
 Alpha virt. eigenvalues --    4.09634   4.10308   4.19604   4.20307   4.33597
 Alpha virt. eigenvalues --    4.38032   4.50843   4.92910
          Condensed to atoms (all electrons):
               1          2          3          4          5          6
     1  C    4.853041   0.530992  -0.015202  -0.042441  -0.030136   0.556709
     2  C    0.530992   4.942748   0.561298  -0.051400  -0.042950  -0.030651
     3  C   -0.015202   0.561298   4.592084   0.446073  -0.034772  -0.038905
     4  C   -0.042441  -0.051400   0.446073   4.764409   0.456330  -0.001582
     5  C   -0.030136  -0.042950  -0.034772   0.456330   5.088938   0.501235
     6  C    0.556709  -0.030651  -0.038905  -0.001582   0.501235   4.869334
     7  H    0.360567  -0.042544   0.004501   0.000535   0.005307  -0.043381
     8  H   -0.044685   0.346101  -0.036266   0.007642  -0.000007   0.005191
     9  H    0.004539   0.000661   0.002960  -0.045556   0.352801  -0.037120
    10  O    0.000087   0.003618  -0.054032   0.245083  -0.067173   0.003765
    11  C    0.000011  -0.000142   0.004370  -0.039726  -0.004637   0.000126
    12  H    0.000000   0.000006   0.000032   0.003067   0.000129   0.000000
    13  H   -0.000005  -0.000005  -0.000201  -0.003815   0.004853  -0.000118
    14  H   -0.000005  -0.000005  -0.000202  -0.003816   0.004852  -0.000118
    15  H   -0.040761   0.004584   0.000742   0.003551  -0.040836   0.359290
    16  O    0.003311  -0.055817   0.302115  -0.064490   0.005300  -0.000034
    17  H   -0.000128   0.005312  -0.036371  -0.013263   0.001530  -0.000114
               7          8          9         10         11         12
     1  C    0.360567  -0.044685   0.004539   0.000087   0.000011   0.000000
     2  C   -0.042544   0.346101   0.000661   0.003618  -0.000142   0.000006
     3  C    0.004501  -0.036266   0.002960  -0.054032   0.004370   0.000032
     4  C    0.000535   0.007642  -0.045556   0.245083  -0.039726   0.003067
     5  C    0.005307  -0.000007   0.352801  -0.067173  -0.004637   0.000129
     6  C   -0.043381   0.005191  -0.037120   0.003765   0.000126   0.000000
     7  H    0.601741  -0.006305  -0.000195   0.000001   0.000000   0.000000
     8  H   -0.006305   0.593399   0.000015  -0.000058   0.000003   0.000000
     9  H   -0.000195   0.000015   0.595763  -0.007367   0.006169  -0.000063
    10  O    0.000001  -0.000058  -0.007367   8.266372   0.247572  -0.032859
    11  C    0.000000   0.000003   0.006169   0.247572   4.881722   0.385972
    12  H    0.000000   0.000000  -0.000063  -0.032859   0.385972   0.536282
    13  H    0.000000   0.000000   0.001408  -0.035748   0.365982  -0.031483
    14  H    0.000000   0.000000   0.001408  -0.035748   0.365984  -0.031486
    15  H   -0.005699  -0.000174  -0.005691  -0.000047  -0.000008   0.000000
    16  O   -0.000054  -0.001482  -0.000049  -0.011942   0.000267   0.000008
    17  H    0.000005  -0.000326  -0.000009   0.029152  -0.001307  -0.000138
              13         14         15         16         17
     1  C   -0.000005  -0.000005  -0.040761   0.003311  -0.000128
     2  C   -0.000005  -0.000005   0.004584  -0.055817   0.005312
     3  C   -0.000201  -0.000202   0.000742   0.302115  -0.036371
     4  C   -0.003815  -0.003816   0.003551  -0.064490  -0.013263
     5  C    0.004853   0.004852  -0.040836   0.005300   0.001530
     6  C   -0.000118  -0.000118   0.359290  -0.000034  -0.000114
     7  H    0.000000   0.000000  -0.005699  -0.000054   0.000005
     8  H    0.000000   0.000000  -0.000174  -0.001482  -0.000326
     9  H    0.001408   0.001408  -0.005691  -0.000049  -0.000009
    10  O   -0.035748  -0.035748  -0.000047  -0.011942   0.029152
    11  C    0.365982   0.365984  -0.000008   0.000267  -0.001307
    12  H   -0.031483  -0.031486   0.000000   0.000008  -0.000138
    13  H    0.589480  -0.048334   0.000003  -0.000018   0.000106
    14  H   -0.048334   0.589482   0.000003  -0.000018   0.000106
    15  H    0.000003   0.000003   0.601078   0.000001   0.000000
    16  O   -0.000018  -0.000018   0.000001   8.230130   0.245216
    17  H    0.000106   0.000106   0.000000   0.245216   0.346923
 Mulliken charges:
               1
     1  C   -0.135894
     2  C   -0.171806
     3  C    0.301774
     4  C    0.339398
     5  C   -0.200764
     6  C   -0.143626
     7  H    0.125519
     8  H    0.136954
     9  H    0.130327
    10  O   -0.550678
    11  C   -0.212357
    12  H    0.170533
    13  H    0.157898
    14  H    0.157898
    15  H    0.123963
    16  O   -0.652446
    17  H    0.423305
 Sum of Mulliken charges =   0.00000
 Mulliken charges with hydrogens summed into heavy atoms:
               1
     1  C   -0.010374
     2  C   -0.034852
     3  C    0.301774
     4  C    0.339398
     5  C   -0.070437
     6  C   -0.019663
    10  O   -0.550678
    11  C    0.273971
    16  O   -0.229140
 Electronic spatial extent (au):  <R**2>=           1169.3354
 Charge=              0.0000 electrons
 Dipole moment (field-independent basis, Debye):
    X=              2.1670    Y=             -1.6858    Z=              0.0001  Tot=              2.7455
 Quadrupole moment (field-independent basis, Debye-Ang):
   XX=            -42.6989   YY=            -51.6695   ZZ=            -55.0043
   XY=             -0.2243   XZ=              0.0004   YZ=              0.0000
 Traceless Quadrupole moment (field-independent basis, Debye-Ang):
   XX=              7.0920   YY=             -1.8786   ZZ=             -5.2134
   XY=             -0.2243   XZ=              0.0004   YZ=              0.0000
 Octapole moment (field-independent basis, Debye-Ang**2):
  XXX=             20.8127  YYY=             -2.2460  ZZZ=              0.0003  XYY=              9.8926
  XXY=              1.2363  XXZ=              0.0009  XZZ=              7.8349  YZZ=              4.7113
  YYZ=              0.0000  XYZ=              0.0000
 Hexadecapole moment (field-independent basis, Debye-Ang**3):
 XXXX=           -818.0735 YYYY=           -531.7713 ZZZZ=            -59.8289 XXXY=             -7.3370
 XXXZ=             -0.0040 YYYX=             23.3610 YYYZ=              0.0013 ZZZX=             -0.0071
 ZZZY=              0.0006 XXYY=           -218.9769 XXZZ=           -172.9711 YYZZ=           -103.3114
 XXYZ=              0.0004 YYXZ=             -0.0023 ZZXY=             -2.4352
 N-N= 4.337432541136D+02 E-N=-1.850893541389D+03  KE= 4.181779827189D+02
 No NMR shielding tensors so no spin-rotation constants.
 Leave Link  601 at Wed Dec 03 10:29:01 2025, MaxMem=   104857600 cpu:               0.0 elap:               0.2
 (Enter D:\Gaussian\G16W\l9999.exe)
 1|1|UNPC-PC-20250526LCFF|SP|RB3LYP|6-31G(d)|C7H8O2|ADMINISTRATOR|03-De
 c-2025|0||#P B3LYP/6-31G* SCF=conver=7 out=wfn||Generated by Multiwfn 
 (http://sobereva.com/multiwfn)||0,1|C,0,-2.299181,-0.588486,-0.000019|
 C,0,-1.837988,0.729607,-0.000015|C,0,-0.474871,0.989131,-0.000012|C,0,
 0.438651,-0.082854,-0.000013|C,0,-0.020852,-1.394115,-0.000018|C,0,-1.
 397432,-1.64505,-0.00002|H,0,-3.365497,-0.781155,-0.000021|H,0,-2.5219
 1,1.569785,-0.000013|H,0,0.67688,-2.221309,-0.000021|O,0,1.75452,0.315
 616,-0.000017|C,0,2.763987,-0.684275,0.000087|H,0,3.714572,-0.153422,0
 .000129|H,0,2.698879,-1.313417,0.8943|H,0,2.699,-1.313484,-0.894087|H,
 0,-1.751456,-2.669033,-0.000023|O,0,-0.020671,2.27267,-0.000008|H,0,0.
 944856,2.23199,-0.000001||Version=EM64W-G16RevA.03|State=1-A|HF=-421.9
 887986|RMSD=4.735e-008|Dipole=0.8525531,-0.6632477,0.0000531|Quadrupol
 e=5.2727189,-1.3966774,-3.8760416,-0.1667795,0.000268,0.0000106|PG=C01
  [X(C7H8O2)]||@

 Writing a WFN file to "N.wfn"


 NOTHING MAKES A PERSON MORE PRODUCTIVE THAN THE LAST MINUTE.
 Job cpu time:       0 days  0 hours  0 minutes 13.0 seconds.
 Elapsed time:       0 days  0 hours  0 minutes 12.9 seconds.
 File lengths (MBytes):  RWF=     15 Int=      0 D2E=      0 Chk=      2 Scr=      1
 Normal termination of Gaussian 16 at Wed Dec 03 10:29:01 2025.
