 Generated by Multiwfn (http://sobereva.com/multiwfn)
GAUSSIAN             33 MOL ORBITALS    284 PRIMITIVES       17 NUCLEI
  C    1    (CENTRE  1)  -4.34482237 -1.11207724 -0.00003599  CHARGE =  6.0
  C    2    (CENTRE  2)  -3.47329398  1.37875757 -0.00002843  CHARGE =  6.0
  C    3    (CENTRE  3)  -0.89737619  1.86918692 -0.00002276  CHARGE =  6.0
  C    4    (CENTRE  4)   0.82893026 -0.15657109 -0.00002465  CHARGE =  6.0
  C    5    (CENTRE  5)  -0.03940449 -2.63449528 -0.00003410  CHARGE =  6.0
  C    6    (CENTRE  6)  -2.64076367 -3.10869378 -0.00003788  CHARGE =  6.0
  H    7    (CENTRE  7)  -6.35986756 -1.47616894 -0.00003977  CHARGE =  1.0
  H    8    (CENTRE  8)  -4.76571930  2.96646384 -0.00002465  CHARGE =  1.0
  H    9    (CENTRE  9)   1.27911794 -4.19766535 -0.00003977  CHARGE =  1.0
  O   10    (CENTRE 10)   3.31556226  0.59642815 -0.00003221  CHARGE =  8.0
  C   11    (CENTRE 11)   5.22317848 -1.29309193  0.00016432  CHARGE =  6.0
  H   12    (CENTRE 12)   7.01952376 -0.28992510  0.00024369  CHARGE =  1.0
  H   13    (CENTRE 13)   5.10014223 -2.48199801  1.68998199  CHARGE =  1.0
  H   14    (CENTRE 14)   5.10037088 -2.48212462 -1.68957965  CHARGE =  1.0
  H   15    (CENTRE 15)  -3.30977201 -5.04374123 -0.00004355  CHARGE =  1.0
  O   16    (CENTRE 16)  -0.03906265  4.29472413 -0.00001520  CHARGE =  8.0
  H   17    (CENTRE 17)   1.78551894  4.21785012 -0.00000198  CHARGE =  1.0
CENTRE ASSIGNMENTS    1  1  1  1  1  1  1  1  1  1  1  1  1  1  1  1  1  1  1  1
CENTRE ASSIGNMENTS    1  1  1  1  1  1  1  1  2  2  2  2  2  2  2  2  2  2  2  2
CENTRE ASSIGNMENTS    2  2  2  2  2  2  2  2  2  2  2  2  2  2  2  2  3  3  3  3
CENTRE ASSIGNMENTS    3  3  3  3  3  3  3  3  3  3  3  3  3  3  3  3  3  3  3  3
CENTRE ASSIGNMENTS    3  3  3  3  4  4  4  4  4  4  4  4  4  4  4  4  4  4  4  4
CENTRE ASSIGNMENTS    4  4  4  4  4  4  4  4  4  4  4  4  5  5  5  5  5  5  5  5
CENTRE ASSIGNMENTS    5  5  5  5  5  5  5  5  5  5  5  5  5  5  5  5  5  5  5  5
CENTRE ASSIGNMENTS    6  6  6  6  6  6  6  6  6  6  6  6  6  6  6  6  6  6  6  6
CENTRE ASSIGNMENTS    6  6  6  6  6  6  6  6  7  7  7  7  8  8  8  8  9  9  9  9
CENTRE ASSIGNMENTS   10 10 10 10 10 10 10 10 10 10 10 10 10 10 10 10 10 10 10 10
CENTRE ASSIGNMENTS   10 10 10 10 10 10 10 10 11 11 11 11 11 11 11 11 11 11 11 11
CENTRE ASSIGNMENTS   11 11 11 11 11 11 11 11 11 11 11 11 11 11 11 11 12 12 12 12
CENTRE ASSIGNMENTS   13 13 13 13 14 14 14 14 15 15 15 15 16 16 16 16 16 16 16 16
CENTRE ASSIGNMENTS   16 16 16 16 16 16 16 16 16 16 16 16 16 16 16 16 16 16 16 16
CENTRE ASSIGNMENTS   17 17 17 17
TYPE ASSIGNMENTS      1  1  1  1  1  1  1  1  1  2  2  2  3  3  3  4  4  4  1  2
TYPE ASSIGNMENTS      3  4  5  6  7  8  9 10  1  1  1  1  1  1  1  1  1  2  2  2
TYPE ASSIGNMENTS      3  3  3  4  4  4  1  2  3  4  5  6  7  8  9 10  1  1  1  1
TYPE ASSIGNMENTS      1  1  1  1  1  2  2  2  3  3  3  4  4  4  1  2  3  4  5  6
TYPE ASSIGNMENTS      7  8  9 10  1  1  1  1  1  1  1  1  1  2  2  2  3  3  3  4
TYPE ASSIGNMENTS      4  4  1  2  3  4  5  6  7  8  9 10  1  1  1  1  1  1  1  1
TYPE ASSIGNMENTS      1  2  2  2  3  3  3  4  4  4  1  2  3  4  5  6  7  8  9 10
TYPE ASSIGNMENTS      1  1  1  1  1  1  1  1  1  2  2  2  3  3  3  4  4  4  1  2
TYPE ASSIGNMENTS      3  4  5  6  7  8  9 10  1  1  1  1  1  1  1  1  1  1  1  1
TYPE ASSIGNMENTS      1  1  1  1  1  1  1  1  1  2  2  2  3  3  3  4  4  4  1  2
TYPE ASSIGNMENTS      3  4  5  6  7  8  9 10  1  1  1  1  1  1  1  1  1  2  2  2
TYPE ASSIGNMENTS      3  3  3  4  4  4  1  2  3  4  5  6  7  8  9 10  1  1  1  1
TYPE ASSIGNMENTS      1  1  1  1  1  1  1  1  1  1  1  1  1  1  1  1  1  1  1  1
TYPE ASSIGNMENTS      1  2  2  2  3  3  3  4  4  4  1  2  3  4  5  6  7  8  9 10
TYPE ASSIGNMENTS      1  1  1  1
EXPONENTS  0.3047525D+04 0.4573695D+03 0.1039487D+03 0.2921016D+02 0.9286663D+01
EXPONENTS  0.3163927D+01 0.7868272D+01 0.1881289D+01 0.5442493D+00 0.7868272D+01
EXPONENTS  0.1881289D+01 0.5442493D+00 0.7868272D+01 0.1881289D+01 0.5442493D+00
EXPONENTS  0.7868272D+01 0.1881289D+01 0.5442493D+00 0.1687145D+00 0.1687145D+00
EXPONENTS  0.1687145D+00 0.1687145D+00 0.8000000D+00 0.8000000D+00 0.8000000D+00
EXPONENTS  0.8000000D+00 0.8000000D+00 0.8000000D+00 0.3047525D+04 0.4573695D+03
EXPONENTS  0.1039487D+03 0.2921016D+02 0.9286663D+01 0.3163927D+01 0.7868272D+01
EXPONENTS  0.1881289D+01 0.5442493D+00 0.7868272D+01 0.1881289D+01 0.5442493D+00
EXPONENTS  0.7868272D+01 0.1881289D+01 0.5442493D+00 0.7868272D+01 0.1881289D+01
EXPONENTS  0.5442493D+00 0.1687145D+00 0.1687145D+00 0.1687145D+00 0.1687145D+00
EXPONENTS  0.8000000D+00 0.8000000D+00 0.8000000D+00 0.8000000D+00 0.8000000D+00
EXPONENTS  0.8000000D+00 0.3047525D+04 0.4573695D+03 0.1039487D+03 0.2921016D+02
EXPONENTS  0.9286663D+01 0.3163927D+01 0.7868272D+01 0.1881289D+01 0.5442493D+00
EXPONENTS  0.7868272D+01 0.1881289D+01 0.5442493D+00 0.7868272D+01 0.1881289D+01
EXPONENTS  0.5442493D+00 0.7868272D+01 0.1881289D+01 0.5442493D+00 0.1687145D+00
EXPONENTS  0.1687145D+00 0.1687145D+00 0.1687145D+00 0.8000000D+00 0.8000000D+00
EXPONENTS  0.8000000D+00 0.8000000D+00 0.8000000D+00 0.8000000D+00 0.3047525D+04
EXPONENTS  0.4573695D+03 0.1039487D+03 0.2921016D+02 0.9286663D+01 0.3163927D+01
EXPONENTS  0.7868272D+01 0.1881289D+01 0.5442493D+00 0.7868272D+01 0.1881289D+01
EXPONENTS  0.5442493D+00 0.7868272D+01 0.1881289D+01 0.5442493D+00 0.7868272D+01
EXPONENTS  0.1881289D+01 0.5442493D+00 0.1687145D+00 0.1687145D+00 0.1687145D+00
EXPONENTS  0.1687145D+00 0.8000000D+00 0.8000000D+00 0.8000000D+00 0.8000000D+00
EXPONENTS  0.8000000D+00 0.8000000D+00 0.3047525D+04 0.4573695D+03 0.1039487D+03
EXPONENTS  0.2921016D+02 0.9286663D+01 0.3163927D+01 0.7868272D+01 0.1881289D+01
EXPONENTS  0.5442493D+00 0.7868272D+01 0.1881289D+01 0.5442493D+00 0.7868272D+01
EXPONENTS  0.1881289D+01 0.5442493D+00 0.7868272D+01 0.1881289D+01 0.5442493D+00
EXPONENTS  0.1687145D+00 0.1687145D+00 0.1687145D+00 0.1687145D+00 0.8000000D+00
EXPONENTS  0.8000000D+00 0.8000000D+00 0.8000000D+00 0.8000000D+00 0.8000000D+00
EXPONENTS  0.3047525D+04 0.4573695D+03 0.1039487D+03 0.2921016D+02 0.9286663D+01
EXPONENTS  0.3163927D+01 0.7868272D+01 0.1881289D+01 0.5442493D+00 0.7868272D+01
EXPONENTS  0.1881289D+01 0.5442493D+00 0.7868272D+01 0.1881289D+01 0.5442493D+00
EXPONENTS  0.7868272D+01 0.1881289D+01 0.5442493D+00 0.1687145D+00 0.1687145D+00
EXPONENTS  0.1687145D+00 0.1687145D+00 0.8000000D+00 0.8000000D+00 0.8000000D+00
EXPONENTS  0.8000000D+00 0.8000000D+00 0.8000000D+00 0.1873114D+02 0.2825394D+01
EXPONENTS  0.6401217D+00 0.1612778D+00 0.1873114D+02 0.2825394D+01 0.6401217D+00
EXPONENTS  0.1612778D+00 0.1873114D+02 0.2825394D+01 0.6401217D+00 0.1612778D+00
EXPONENTS  0.5484672D+04 0.8252349D+03 0.1880470D+03 0.5296450D+02 0.1689757D+02
EXPONENTS  0.5799635D+01 0.1553962D+02 0.3599934D+01 0.1013762D+01 0.1553962D+02
EXPONENTS  0.3599934D+01 0.1013762D+01 0.1553962D+02 0.3599934D+01 0.1013762D+01
EXPONENTS  0.1553962D+02 0.3599934D+01 0.1013762D+01 0.2700058D+00 0.2700058D+00
EXPONENTS  0.2700058D+00 0.2700058D+00 0.8000000D+00 0.8000000D+00 0.8000000D+00
EXPONENTS  0.8000000D+00 0.8000000D+00 0.8000000D+00 0.3047525D+04 0.4573695D+03
EXPONENTS  0.1039487D+03 0.2921016D+02 0.9286663D+01 0.3163927D+01 0.7868272D+01
EXPONENTS  0.1881289D+01 0.5442493D+00 0.7868272D+01 0.1881289D+01 0.5442493D+00
EXPONENTS  0.7868272D+01 0.1881289D+01 0.5442493D+00 0.7868272D+01 0.1881289D+01
EXPONENTS  0.5442493D+00 0.1687145D+00 0.1687145D+00 0.1687145D+00 0.1687145D+00
EXPONENTS  0.8000000D+00 0.8000000D+00 0.8000000D+00 0.8000000D+00 0.8000000D+00
EXPONENTS  0.8000000D+00 0.1873114D+02 0.2825394D+01 0.6401217D+00 0.1612778D+00
EXPONENTS  0.1873114D+02 0.2825394D+01 0.6401217D+00 0.1612778D+00 0.1873114D+02
EXPONENTS  0.2825394D+01 0.6401217D+00 0.1612778D+00 0.1873114D+02 0.2825394D+01
EXPONENTS  0.6401217D+00 0.1612778D+00 0.5484672D+04 0.8252349D+03 0.1880470D+03
EXPONENTS  0.5296450D+02 0.1689757D+02 0.5799635D+01 0.1553962D+02 0.3599934D+01
EXPONENTS  0.1013762D+01 0.1553962D+02 0.3599934D+01 0.1013762D+01 0.1553962D+02
EXPONENTS  0.3599934D+01 0.1013762D+01 0.1553962D+02 0.3599934D+01 0.1013762D+01
EXPONENTS  0.2700058D+00 0.2700058D+00 0.2700058D+00 0.2700058D+00 0.8000000D+00
EXPONENTS  0.8000000D+00 0.8000000D+00 0.8000000D+00 0.8000000D+00 0.8000000D+00
EXPONENTS  0.1873114D+02 0.2825394D+01 0.6401217D+00 0.1612778D+00
MO    1     MO 0.0        OCC NO =    2.0000000  ORB. ENERGY =  -19.188017
  0.65136222D-05  0.12016361D-04  0.19398133D-04  0.25250605D-04  0.21546387D-04
  0.74394497D-05 -0.26951677D-04 -0.12422003D-04  0.34832594D-04  0.12315266D-04
  0.94425652D-05  0.47125018D-05  0.18379047D-04  0.14091887D-04  0.70328393D-05
  0.97696445D-09  0.74907437D-09  0.37384061D-09 -0.21594438D-03 -0.95233889D-04
 -0.37092055D-04 -0.74811681D-09  0.10196786D-04 -0.24802141D-04  0.30282144D-04
  0.21386986D-04 -0.54349149D-09 -0.56256671D-09  0.45302398D-05  0.83574078D-05
  0.13491448D-04  0.17561856D-04  0.14985564D-04  0.51741550D-05 -0.10700306D-04
 -0.49317614D-05  0.13829174D-04  0.72269814D-04  0.55411909D-04  0.27654426D-04
 -0.16125249D-04 -0.12363818D-04 -0.61704117D-05  0.53677446D-09  0.41156461D-09
  0.20539958D-09  0.22861308D-03  0.39987129D-04 -0.10114105D-03  0.57158536D-09
  0.20764101D-04  0.21839219D-04  0.30590928D-04  0.12548386D-04  0.17491794D-08
  0.61963097D-09  0.12756659D-04  0.23533546D-04  0.37990440D-04  0.49452265D-04
  0.42197707D-04  0.14569854D-04 -0.67700569D-04 -0.31203131D-04  0.87496835D-04
  0.42781154D-04  0.32801875D-04  0.16370435D-04  0.75098874D-04  0.57581054D-04
  0.28736981D-04  0.20850370D-08  0.15986741D-08  0.79785043D-09 -0.97854874D-04
  0.14857137D-03  0.33191036D-03 -0.17467335D-08 -0.57215375D-04  0.74942978D-04
  0.30844038D-04  0.77952141D-04 -0.18939125D-09  0.24265743D-08 -0.24495949D-04
 -0.45190242D-04 -0.72951062D-04 -0.94960607D-04 -0.81030058D-04 -0.27977732D-04
 -0.38459453D-04 -0.17725927D-04  0.49705349D-04  0.52292577D-03  0.40094632D-03
  0.20010031D-03  0.24252295D-03  0.18595122D-03  0.92802689D-04 -0.10553757D-07
 -0.80919516D-08 -0.40384510D-08  0.88254464D-05 -0.66395235D-03 -0.33581370D-03
  0.44730916D-08  0.47562210D-04  0.11903469D-04 -0.89849608D-04  0.17849633D-03
 -0.32677227D-08 -0.55420107D-08  0.10805024D-04  0.19933159D-04  0.32178299D-04
  0.41886584D-04  0.35741898D-04  0.12340818D-04 -0.76366207D-04 -0.35197115D-04
  0.98696385D-04 -0.80776584D-04 -0.61934361D-04 -0.30909587D-04 -0.61534291D-04
 -0.47180591D-04 -0.23546422D-04 -0.79306752D-09 -0.60807387D-09 -0.30347148D-09
 -0.58603769D-03  0.23248951D-03 -0.24595002D-03 -0.24820895D-08 -0.67208144D-04
 -0.86038939D-04  0.46145404D-04 -0.92164904D-05  0.68129442D-09 -0.69898855D-08
 -0.33732365D-05 -0.62229627D-05 -0.10045791D-04 -0.13076635D-04 -0.11158317D-04
 -0.38526986D-05  0.21495487D-04  0.99072501D-05 -0.27780964D-04  0.88368482D-04
  0.67755347D-04  0.33814667D-04  0.17559298D-04  0.13463356D-04  0.67191582D-05
  0.84410665D-09  0.64720744D-09  0.32300187D-09  0.33404872D-03  0.83605534D-04
  0.11320424D-03  0.72642954D-09  0.53495306D-04 -0.60454741D-05 -0.93565080D-06
 -0.57589461D-06  0.97542380D-09 -0.45895043D-09 -0.35862247D-05 -0.60829158D-05
 -0.69251846D-05 -0.27893929D-04  0.55879414D-05  0.94782062D-05  0.10790603D-04
  0.20216459D-04 -0.15635700D-04 -0.26521107D-04 -0.30193343D-04 -0.11719235D-03
  0.82557649D+00  0.15195015D+01  0.24588402D+01  0.32322143D+01  0.27722514D+01
  0.94787983D+00 -0.15699245D-01 -0.70049725D-02  0.20685777D-01 -0.51672515D-03
 -0.39810887D-03 -0.17479124D-03 -0.28329583D-02 -0.21826417D-02 -0.95829725D-03
  0.19680592D-06  0.15162835D-06  0.66573013D-07  0.41254959D-02 -0.32336077D-03
 -0.21969336D-04  0.31267163D-08 -0.94914418D-02 -0.95551460D-02 -0.94275292D-02
  0.18301011D-03 -0.21088806D-07  0.26076089D-07  0.72916048D-05  0.13451587D-04
  0.21715032D-04  0.28266520D-04  0.24119873D-04  0.83280124D-05 -0.73255645D-04
 -0.33763460D-04  0.94676265D-04 -0.34510268D-03 -0.26460284D-03 -0.13205536D-03
  0.46218113D-03  0.35437117D-03  0.17685605D-03 -0.46726186D-07 -0.35826676D-07
 -0.17880022D-07 -0.30922251D-03  0.57338893D-04 -0.11020197D-03  0.89521536D-08
  0.24107982D-03  0.29961468D-03  0.27242403D-04 -0.50020088D-03  0.47302133D-07
 -0.65521319D-07  0.26332922D-04  0.44665619D-04  0.50850229D-04  0.26599301D-04
  0.12451805D-04  0.21120618D-04  0.24045077D-04  0.98820826D-05  0.12453283D-04
  0.21123124D-04  0.24047930D-04  0.98801475D-05  0.34110780D-05  0.57858340D-05
  0.65869675D-05  0.26804427D-04  0.26193960D-04  0.48210869D-04  0.78014287D-04
  0.10255196D-03  0.87958223D-04  0.30074410D-04 -0.10058350D-03 -0.44880161D-04
  0.13253172D-03 -0.13478759D-03 -0.10384657D-03 -0.45594238D-04 -0.21259841D-03
 -0.16379561D-03 -0.71915096D-04 -0.68562860D-08 -0.52823987D-08 -0.23192576D-08
 -0.29442601D-03  0.15756477D-03  0.17871294D-03  0.31822895D-08  0.16225040D-03
 -0.96979774D-05  0.11271643D-03 -0.56575405D-04  0.89184566D-09 -0.31003258D-08
 -0.60186170D-05 -0.10208714D-04 -0.11622260D-04 -0.15705490D-03
MO    2     MO 0.0        OCC NO =    2.0000000  ORB. ENERGY =  -19.166609
  0.88830827D-06  0.16387553D-05  0.26454592D-05  0.34436018D-05  0.29384317D-05
  0.10145698D-05  0.62527064D-05  0.28818667D-05 -0.80810550D-05  0.50165841D-04
  0.38463985D-04  0.19196224D-04  0.64894093D-04  0.49756674D-04  0.24832068D-04
  0.13901996D-09  0.10659169D-09  0.53196724D-10  0.34837677D-03  0.11891468D-03
  0.36748449D-04  0.38973920D-09  0.29498630D-06  0.49681579D-04  0.23056632D-04
 -0.19977763D-04  0.44791754D-10 -0.12503754D-09  0.74550046D-05  0.13753028D-04
  0.22201651D-04  0.28899953D-04  0.24660382D-04  0.85146374D-05 -0.66068410D-04
 -0.30450870D-04  0.85387417D-04 -0.11499158D-04 -0.88168251D-05 -0.44002136D-05
 -0.97173790D-05 -0.74506699D-05 -0.37184064D-05 -0.28049630D-09 -0.21506677D-09
 -0.10733339D-09 -0.39297435D-03 -0.17782497D-03  0.29716039D-03  0.51351035D-09
 -0.86835076D-04 -0.54804048D-04  0.32818574D-04  0.22549451D-04 -0.48347474D-09
 -0.22415295D-09 -0.35417597D-04 -0.65338551D-04 -0.10547668D-03 -0.13729930D-03
 -0.11715774D-03 -0.40451752D-04 -0.28320021D-04 -0.13052672D-04  0.36601054D-04
  0.13893464D-03  0.10652627D-03  0.53164073D-04  0.54415776D-03  0.41722566D-03
  0.20822484D-03  0.16909021D-08  0.12964765D-08  0.64703263D-09  0.22162510D-03
 -0.16260835D-03 -0.88242230D-03 -0.23935910D-08 -0.69938982D-04 -0.50702248D-04
 -0.13225132D-03 -0.11928154D-03 -0.11418042D-09 -0.12414917D-09  0.26767933D-04
  0.49381610D-04  0.79717231D-04  0.10376815D-03  0.88545549D-04  0.30572650D-04
 -0.12256841D-03 -0.56491667D-04  0.15840853D-03  0.22605433D-04  0.17332412D-04
  0.86500884D-05 -0.51121568D-04 -0.39196776D-04 -0.19561938D-04 -0.29850251D-08
 -0.22887279D-08 -0.11422356D-08 -0.70283661D-03  0.59060493D-03  0.95737357D-04
  0.10324645D-08  0.60805676D-04 -0.66124161D-04  0.81249291D-04  0.10593388D-03
 -0.25734657D-08 -0.22543775D-08 -0.46992804D-05 -0.86692548D-05 -0.13994865D-04
 -0.18217156D-04 -0.15544733D-04 -0.53672226D-05  0.26293568D-04  0.12118681D-04
 -0.33982047D-04  0.39254587D-04  0.30097928D-04  0.15020975D-04  0.98599608D-04
  0.75599925D-04  0.37729661D-04 -0.12654612D-08 -0.97027540D-09 -0.48423542D-09
  0.49225513D-03 -0.17581540D-03  0.20318066D-03  0.12346632D-08 -0.12860823D-05
  0.45618069D-04 -0.28575592D-05  0.42267489D-05  0.18068271D-09  0.49387026D-09
  0.93126234D-05  0.17179972D-04  0.27733801D-04  0.36101169D-04  0.30805193D-04
  0.10636293D-04 -0.38642955D-04 -0.17810503D-04  0.49942509D-04 -0.30288964D-04
 -0.23223656D-04 -0.11590232D-04  0.22509410D-04  0.17258788D-04  0.86133447D-05
  0.45195029D-09  0.34652682D-09  0.17294117D-09 -0.33575354D-03 -0.65025602D-04
 -0.14449393D-03 -0.75433158D-09 -0.28430967D-04  0.11438953D-04  0.39101083D-04
  0.19840645D-04 -0.65913874D-09 -0.13820657D-09  0.24979954D-05  0.42370731D-05
  0.48237579D-05  0.19203141D-04 -0.11409255D-04 -0.19352256D-04 -0.22031860D-04
 -0.14539286D-03  0.11413901D-04  0.19360136D-04  0.22040831D-04  0.86239687D-04
  0.41886936D-04  0.77094323D-04  0.12475317D-03  0.16399153D-03  0.14065458D-03
  0.48092191D-04 -0.15749251D-03 -0.70272851D-04  0.20751667D-03 -0.14073859D-03
 -0.10843149D-03 -0.47607266D-04 -0.11042264D-03 -0.85074694D-04 -0.37352373D-04
 -0.52367500D-08 -0.40346336D-08 -0.17714215D-08 -0.46484427D-03  0.17370218D-03
  0.10401682D-03  0.19917122D-08  0.80547210D-04  0.16881646D-03  0.16083102D-03
 -0.70285970D-04  0.10993429D-08  0.86462636D-09  0.10420260D-04  0.19223344D-04
  0.31032438D-04  0.40395014D-04  0.34469139D-04  0.11901365D-04 -0.32273612D-04
 -0.14874878D-04  0.41710711D-04 -0.62039034D-04 -0.47567596D-04 -0.23739564D-04
  0.19781575D-04  0.15167257D-04  0.75695243D-05 -0.52087107D-08 -0.39937090D-08
 -0.19931407D-08 -0.50942222D-04  0.31191730D-04 -0.95819600D-05  0.10137889D-08
  0.34470129D-04  0.16991588D-04  0.41365034D-04  0.44372495D-05  0.48127588D-08
  0.14070356D-08 -0.63615495D-06 -0.10790392D-05 -0.12284480D-05 -0.70740274D-05
  0.48202531D-05  0.81760615D-05  0.93081570D-05 -0.54972093D-05  0.48203278D-05
  0.81761882D-05  0.93083013D-05 -0.54980325D-05 -0.54734073D-05 -0.92839347D-05
 -0.10569432D-04 -0.43616044D-04  0.82561137D+00  0.15195656D+01  0.24589441D+01
  0.32323508D+01  0.27723685D+01  0.94791987D+00 -0.15748919D-01 -0.70271369D-02
  0.20751229D-01  0.20320837D-02  0.15656109D-02  0.68738752D-03 -0.24894775D-02
 -0.19180082D-02 -0.84210891D-03  0.14871240D-07  0.11457489D-07  0.50304547D-08
  0.40228670D-02 -0.20044255D-03 -0.34419268D-03 -0.13660452D-08 -0.93050681D-02
 -0.92362663D-02 -0.92693898D-02  0.16670701D-03 -0.32074450D-09  0.68514372D-09
  0.85523690D-04  0.14506437D-03  0.16515065D-03 -0.20715960D-03
MO    3     MO 0.0        OCC NO =    2.0000000  ORB. ENERGY =  -10.248893
 -0.46081613D-05 -0.85011577D-05 -0.13723504D-04 -0.17863925D-04 -0.15243320D-04
 -0.52631520D-05  0.13433128D-04  0.61913164D-05 -0.17361097D-04 -0.16558251D-04
 -0.12695816D-04 -0.63361022D-05  0.74789607D-04  0.57343927D-04  0.28618638D-04
  0.16373584D-08  0.12554226D-08  0.62654386D-09  0.14562581D-03  0.34800412D-04
  0.34584919D-04 -0.83620199D-09 -0.14042881D-04  0.13682161D-04 -0.16114815D-04
  0.21765872D-04 -0.63819773D-09 -0.70694137D-09  0.65229668D-05  0.12033600D-04
  0.19425962D-04  0.25286830D-04  0.21577298D-04  0.74501225D-05 -0.25036656D-04
 -0.11539372D-04  0.32357603D-04 -0.94319981D-04 -0.72318579D-04 -0.36092039D-04
 -0.49908517D-04 -0.38266685D-04 -0.19097758D-04 -0.38278450D-09 -0.29349488D-09
 -0.14647451D-09 -0.27293704D-03 -0.86925695D-04  0.16264325D-03  0.20946605D-08
 -0.27760529D-04  0.16357176D-04  0.11747629D-04  0.32928760D-04  0.30978307D-08
  0.11008649D-08 -0.82244027D-04 -0.15172417D-03 -0.24492986D-03 -0.31882590D-03
 -0.27205472D-03 -0.93933956D-04  0.10648205D-03  0.49077481D-04 -0.13761838D-03
  0.11765614D-03  0.90211262D-04  0.45021742D-04 -0.14025532D-04 -0.10753888D-04
 -0.53669438D-05  0.48336640D-08  0.37061470D-08  0.18496271D-08  0.75734659D-03
  0.31317093D-04 -0.43719477D-03 -0.67386619D-08  0.72662542D-05 -0.26445462D-04
 -0.86580666D-04 -0.54933437D-04 -0.24062254D-08  0.26412539D-08 -0.12793602D-03
 -0.23601698D-03 -0.38100459D-03 -0.49595477D-03 -0.42319910D-03 -0.14612048D-03
  0.49651737D-04  0.22884440D-04 -0.64170360D-04 -0.15595762D-03 -0.11957841D-03
 -0.59678007D-04  0.17490152D-03  0.13410339D-03  0.66926991D-04 -0.12580761D-07
 -0.96461292D-08 -0.48140945D-08 -0.27654200D-03  0.52487846D-03 -0.39028371D-03
  0.11620869D-07  0.20922185D-03  0.33072446D-04 -0.43519952D-04  0.14103221D-03
  0.18997342D-07 -0.14165865D-07 -0.19282732D-05 -0.35572875D-05 -0.57425651D-05
 -0.74751134D-05 -0.63785278D-05 -0.22023524D-05 -0.28406501D-04 -0.13092530D-04
  0.36712821D-04 -0.13680619D-03 -0.10489431D-03 -0.52349611D-04 -0.50517375D-04
 -0.38733519D-04 -0.19330741D-04  0.52200359D-09  0.40023924D-09  0.19974743D-09
 -0.24375285D-03 -0.59162681D-04  0.70109197D-05 -0.35760665D-08 -0.99210301D-04
  0.21815713D-04 -0.13603237D-04 -0.13976384D-03  0.48128680D-08 -0.10945667D-07
 -0.15931678D-04 -0.29390835D-04 -0.47445921D-04 -0.61760492D-04 -0.52700339D-04
 -0.18196161D-04  0.46404352D-04  0.21387723D-04 -0.59973408D-04  0.20072357D-04
  0.15390211D-04  0.76807937D-05 -0.48168630D-04 -0.36932650D-04 -0.18431981D-04
  0.15913064D-08  0.12201128D-08  0.60892182D-09  0.56633416D-04  0.47925130D-04
  0.43003830D-04  0.88330905D-09  0.39328885D-04 -0.17603907D-04 -0.62838499D-04
  0.33808481D-04  0.26758094D-08  0.24718569D-09 -0.18222394D-05 -0.30908629D-05
 -0.35188381D-05  0.78105695D-05 -0.12180296D-04 -0.20660088D-04 -0.23520780D-04
 -0.49736069D-04  0.10444284D-04  0.17715482D-04  0.20168450D-04  0.55702333D-04
 -0.51575482D-04 -0.94926419D-04 -0.15360887D-03 -0.20192315D-03 -0.17318832D-03
 -0.59216026D-04 -0.62445353D-04 -0.27862995D-04  0.82279797D-04 -0.16248180D-03
 -0.12518347D-03 -0.54962287D-04 -0.20583989D-03 -0.15858854D-03 -0.69628911D-04
 -0.12118610D-07 -0.93367355D-08 -0.40993298D-08  0.13235698D-03  0.68782840D-04
  0.26572647D-03 -0.78196553D-08 -0.43437984D-03 -0.45176051D-03  0.16497600D-03
  0.66369465D-03 -0.10000620D-06  0.11141457D-06  0.53255597D+00  0.98246177D+00
  0.15859979D+01  0.20644981D+01  0.17616399D+01  0.60825193D+00 -0.19711104D-01
 -0.90848300D-02  0.25474812D-01 -0.10448746D-02 -0.80114359D-03 -0.39982680D-03
  0.72989715D-03  0.55963884D-03  0.27929900D-03 -0.98258569D-07 -0.75338438D-07
 -0.37599161D-07 -0.26208879D-02  0.97311354D-04  0.72145057D-04  0.79771845D-09
 -0.99625375D-02 -0.99634935D-02 -0.10141621D-01 -0.25288663D-03  0.44395144D-07
 -0.25990707D-07 -0.45134020D-04 -0.76555841D-04 -0.87156119D-04  0.39287221D-03
 -0.98437283D-05 -0.16696826D-04 -0.19008747D-04  0.48267144D-03 -0.98458063D-05
 -0.16700351D-04 -0.19012759D-04  0.48267378D-03  0.24231592D-05  0.41101366D-05
  0.46792452D-05  0.28603745D-04 -0.45137013D-04 -0.83076199D-04 -0.13443297D-03
 -0.17671590D-03 -0.15156820D-03 -0.51823743D-04  0.14896894D-03  0.66469652D-04
 -0.19628577D-03  0.50475560D-04  0.38888698D-04  0.17074233D-04 -0.55044609D-05
 -0.42408904D-05 -0.18619793D-05 -0.61897585D-08 -0.47688752D-08 -0.20937931D-08
  0.40310675D-03 -0.37058629D-04 -0.60281486D-04  0.28207736D-08 -0.13948248D-03
 -0.17241459D-03 -0.17228551D-03  0.35297717D-04 -0.16856592D-08 -0.35738639D-08
 -0.77219007D-06 -0.13097805D-05 -0.14911388D-05 -0.42083288D-04
MO    4     MO 0.0        OCC NO =    2.0000000  ORB. ENERGY =  -10.242467
 -0.68992326D-04 -0.12727737D-03 -0.20546514D-03 -0.26745456D-03 -0.22821946D-03
 -0.78798696D-04  0.14450450D-03  0.66601990D-04 -0.18675893D-03 -0.66036896D-04
 -0.50632903D-04 -0.25269367D-04 -0.49133241D-04 -0.37672253D-04 -0.18801094D-04
 -0.64851414D-09 -0.49723951D-09 -0.24815736D-09  0.10276195D-02  0.48826259D-03
  0.13111297D-03  0.10672412D-08 -0.28596529D-04  0.39092955D-04 -0.15126055D-03
 -0.26581692D-04  0.45538912D-09  0.16917403D-08  0.19746231D-03  0.36427940D-03
  0.58805990D-03  0.76547926D-03  0.65318484D-03  0.22552903D-03 -0.18620097D-04
 -0.85819857D-05  0.24064784D-04 -0.15876334D-03 -0.12172966D-03 -0.60751632D-04
  0.38199114D-04  0.29288658D-04  0.14617093D-04 -0.70813290D-09 -0.54295139D-09
 -0.27097080D-09 -0.10693204D-02 -0.25244812D-03  0.41380071D-03  0.41102229D-09
  0.10760218D-03 -0.19910317D-04 -0.20918635D-04  0.11578523D-04 -0.33885078D-09
 -0.44265082D-09  0.42986129D-01  0.79301015D-01  0.12801643D+00  0.16663935D+00
  0.14219366D+00  0.49096054D-01 -0.12919132D-02 -0.59544162D-03  0.16696805D-02
 -0.21269642D-03 -0.16308213D-03 -0.81389411D-04  0.34051888D-03  0.26108828D-03
  0.13030135D-03 -0.14501328D-08 -0.11118699D-08 -0.55490100D-09  0.16518023D-02
 -0.18959136D-03 -0.10328179D-02 -0.13660143D-08 -0.14133176D-02 -0.11454670D-02
 -0.11621817D-02  0.22991335D-03  0.33183606D-09 -0.12544794D-08  0.53079055D+00
  0.97920492D+00  0.15807404D+01  0.20576543D+01  0.17558001D+01  0.60623559D+00
 -0.19692880D-01 -0.90764303D-02  0.25451258D-01  0.11778173D-02  0.90307561D-03
  0.45069802D-03  0.36047265D-03  0.27638756D-03  0.13793676D-03 -0.55548298D-08
 -0.42590912D-08 -0.21255850D-08 -0.35115661D-02  0.15963484D-02  0.57199875D-03
  0.18072177D-08 -0.93448208D-02 -0.99182677D-02 -0.10443890D-01  0.50672416D-03
 -0.57672911D-08 -0.30757409D-08  0.25914545D-02  0.47807276D-02  0.77175766D-02
  0.10045992D-01  0.85722629D-02  0.29597964D-02  0.25921745D-03  0.11947309D-03
 -0.33501501D-03  0.78460985D-04  0.60158907D-04  0.30023511D-04 -0.35036507D-03
 -0.26863771D-03 -0.13406905D-03  0.21252478D-08  0.16295052D-08  0.81323730D-09
  0.24749237D-02 -0.61890442D-03  0.96205864D-03  0.20036319D-08 -0.33939167D-03
 -0.38850315D-03 -0.36826076D-03 -0.26210006D-03 -0.24735282D-08  0.58928442D-09
  0.34225861D-04  0.63140031D-04  0.10192759D-03  0.13267943D-03  0.11321560D-03
  0.39090626D-04 -0.80036022D-04 -0.36888529D-04  0.10343929D-03 -0.17800624D-03
 -0.13648390D-03 -0.68115029D-04 -0.52662191D-04 -0.40378028D-04 -0.20151466D-04
 -0.21611511D-08 -0.16570336D-08 -0.82697590D-09 -0.13184803D-02 -0.26772611D-03
 -0.51353339D-03 -0.70504972D-09  0.27370364D-04  0.56941084D-04  0.46788650D-04
  0.51509393D-04  0.74104764D-09  0.19176748D-08  0.18674937D-04  0.31676227D-04
  0.36062265D-04  0.14707964D-03 -0.19958163D-04 -0.33852822D-04 -0.38540241D-04
 -0.89693537D-04  0.41513262D-04  0.70414350D-04  0.80164249D-04  0.31115083D-03
  0.11758129D-03  0.21641235D-03  0.35019603D-03  0.46034248D-03  0.39483307D-03
  0.13500013D-03 -0.67792952D-03 -0.30249083D-03  0.89325947D-03 -0.18596199D-03
 -0.14327368D-03 -0.62904865D-04  0.35327432D-04  0.27217882D-04  0.11950116D-04
  0.12718960D-07  0.97992733D-08  0.43024088D-08 -0.16172640D-02  0.86224171D-03
  0.21424114D-03 -0.87924627D-08 -0.44195732D-03  0.65269980D-03  0.93802283D-03
 -0.70312607D-03  0.14796309D-07  0.21703822D-07  0.12904718D-03  0.23806686D-03
  0.38431372D-03  0.50026228D-03  0.42687471D-03  0.14738958D-03  0.37952121D-04
  0.17492098D-04 -0.49049669D-04 -0.17858371D-04 -0.13692666D-04 -0.68336000D-05
  0.83156707D-05  0.63759288D-05  0.31820353D-05 -0.61341148D-08 -0.47032502D-08
 -0.23472515D-08 -0.30030438D-04 -0.62064070D-04 -0.75431440D-04  0.80585786D-08
  0.16699863D-03 -0.11022259D-03  0.52397123D-04 -0.90622362D-04 -0.48068152D-08
  0.66698816D-08  0.18819005D-04  0.31920595D-04  0.36340469D-04  0.34193639D-04
 -0.15680790D-04 -0.26597588D-04 -0.30280413D-04 -0.19991968D-04 -0.15675274D-04
 -0.26588232D-04 -0.30269762D-04 -0.19988781D-04 -0.17936440D-04 -0.30423597D-04
 -0.34636190D-04 -0.11826646D-03 -0.72366469D-04 -0.13319293D-03 -0.21553131D-03
 -0.28332194D-03 -0.24300358D-03 -0.83087051D-04  0.24555456D-03  0.10956597D-03
 -0.32354977D-03  0.10964061D-03  0.84472182D-04  0.37087838D-04  0.88601657D-04
  0.68262800D-04  0.29971046D-04  0.30264916D-08  0.23317486D-08  0.10237632D-08
  0.72134714D-03 -0.11661962D-03 -0.13751014D-03 -0.16137233D-08 -0.26034419D-03
 -0.21558195D-03 -0.24721077D-03 -0.24514058D-04 -0.22892755D-10  0.12892170D-08
 -0.21322244D-06 -0.36166561D-06 -0.41174352D-06  0.32110759D-04
MO    5     MO 0.0        OCC NO =    2.0000000  ORB. ENERGY =  -10.239410
  0.43451430D-04  0.80159403D-04  0.12940213D-03  0.16844313D-03  0.14373282D-03
  0.49627490D-04 -0.97863739D-04 -0.45105308D-04  0.12647999D-03 -0.83807383D-04
 -0.64258186D-04 -0.32069338D-04 -0.14993310D-03 -0.11495919D-03 -0.57372693D-04
 -0.34274915D-09 -0.26279831D-09 -0.13115477D-09 -0.15571666D-02 -0.63363602D-03
 -0.18971268D-03 -0.15336032D-08  0.61936686D-04  0.26425046D-04  0.61035323D-04
  0.71951366D-04 -0.17566547D-09  0.71410408D-09  0.23711666D-02  0.43743394D-02
  0.70615402D-02  0.91920271D-02  0.78435734D-02  0.27081974D-02  0.25829780D-03
  0.11904922D-03 -0.33382643D-03 -0.31404107D-03 -0.24078678D-03 -0.12016948D-03
  0.89890736D-04  0.68922515D-04  0.34397165D-04  0.74621122D-09  0.57214743D-09
  0.28554167D-09  0.25142552D-02  0.87135047D-03 -0.89858838D-03 -0.15233384D-08
 -0.39563861D-03 -0.33939466D-03 -0.35871875D-03 -0.30902768D-03 -0.10980450D-08
 -0.78205035D-09  0.53082426D+00  0.97926712D+00  0.15808408D+01  0.20577850D+01
  0.17559116D+01  0.60627409D+00 -0.19782687D-01 -0.91178222D-02  0.25567325D-01
  0.52465847D-03  0.40227483D-03  0.20076334D-03  0.88931973D-03  0.68187396D-03
  0.34030290D-03 -0.35380874D-08 -0.27127810D-08 -0.13538679D-08 -0.40423782D-02
  0.58826154D-03  0.19254779D-02  0.70672683D-08 -0.98515461D-02 -0.93434187D-02
 -0.10371448D-01  0.46979627D-03  0.40555653D-08  0.56511913D-08 -0.43285781D-01
 -0.79853813D-01 -0.12890881D+00 -0.16780097D+00 -0.14318487D+00 -0.49438296D-01
  0.19644838D-02  0.90542881D-03 -0.25389169D-02  0.20180847D-03  0.15473394D-03
  0.77223079D-04 -0.32052130D-03 -0.24575540D-03 -0.12264917D-03  0.58238116D-08
  0.44653293D-08  0.22285123D-08  0.28262280D-02 -0.15003712D-02 -0.79011486D-04
 -0.32791770D-08  0.39386427D-03  0.21116647D-03  0.49981986D-03 -0.91717925D-05
  0.44679561D-08  0.24510252D-08 -0.20165929D-03 -0.37202201D-03 -0.60055888D-03
 -0.78174922D-03 -0.66706803D-03 -0.23032256D-03 -0.85920437D-04 -0.39600651D-04
  0.11104436D-03 -0.42538616D-05 -0.32615913D-05 -0.16277626D-05 -0.10236621D-03
 -0.78487915D-04 -0.39170971D-04  0.35546875D-08  0.27255089D-08  0.13602200D-08
 -0.16039282D-02  0.49165701D-03 -0.62504395D-03 -0.30137799D-08  0.80360638D-04
  0.11525706D-03  0.60556822D-04  0.87327872D-04  0.33895288D-09  0.41690594D-09
 -0.75333272D-04 -0.13897518D-03 -0.22434903D-03 -0.29203577D-03 -0.24919465D-03
 -0.86040926D-04  0.15300036D-03  0.70517725D-04 -0.19773906D-03 -0.48577187D-05
 -0.37245906D-05 -0.18588317D-05 -0.56539689D-04 -0.43351047D-04 -0.21635211D-04
 -0.10103150D-08 -0.77464546D-09 -0.38660238D-09  0.12705531D-02  0.22178251D-03
  0.59286798D-03  0.22715290D-08  0.19566235D-04 -0.29665246D-04 -0.14888860D-03
 -0.54394297D-04  0.14209796D-08  0.27206887D-09 -0.18263823D-04 -0.30978901D-04
 -0.35268384D-04 -0.13784152D-03  0.47320632D-04  0.80264749D-04  0.91378579D-04