 Entering Gaussian System, Link 0=g16
 Initial command:
 /apps/g16/l1.exe "/tmp/Gau-15776.inp" -scrdir="/tmp/"
 Entering Link 1 = /apps/g16/l1.exe PID=     15778.
  
 Copyright (c) 1988,1990,1992,1993,1995,1998,2003,2009,2016,
            Gaussian, Inc.  All Rights Reserved.
  
 This is part of the Gaussian(R) 16 program.  It is based on
 the Gaussian(R) 09 system (copyright 2009, Gaussian, Inc.),
 the Gaussian(R) 03 system (copyright 2003, Gaussian, Inc.),
 the Gaussian(R) 98 system (copyright 1998, Gaussian, Inc.),
 the Gaussian(R) 94 system (copyright 1995, Gaussian, Inc.),
 the Gaussian 92(TM) system (copyright 1992, Gaussian, Inc.),
 the Gaussian 90(TM) system (copyright 1990, Gaussian, Inc.),
 the Gaussian 88(TM) system (copyright 1988, Gaussian, Inc.),
 the Gaussian 86(TM) system (copyright 1986, Carnegie Mellon
 University), and the Gaussian 82(TM) system (copyright 1983,
 Carnegie Mellon University). Gaussian is a federally registered
 trademark of Gaussian, Inc.
  
 This software contains proprietary and confidential information,
 including trade secrets, belonging to Gaussian, Inc.
  
 This software is provided under written license and may be
 used, copied, transmitted, or stored only in accord with that
 written license.
  
 The following legend is applicable only to US Government
 contracts under FAR:
  
                    RESTRICTED RIGHTS LEGEND
  
 Use, reproduction and disclosure by the US Government is
 subject to restrictions as set forth in subparagraphs (a)
 and (c) of the Commercial Computer Software - Restricted
 Rights clause in FAR 52.227-19.
  
 Gaussian, Inc.
 340 Quinnipiac St., Bldg. 40, Wallingford CT 06492
  
  
 ---------------------------------------------------------------
 Warning -- This program may not be used in any manner that
 competes with the business of Gaussian, Inc. or will provide
 assistance to any competitor of Gaussian, Inc.  The licensee
 of this program is prohibited from giving any competitor of
 Gaussian, Inc. access to this program.  By using this program,
 the user acknowledges that Gaussian, Inc. is engaged in the
 business of creating and licensing software in the field of
 computational chemistry and represents and warrants to the
 licensee that it is not a competitor of Gaussian, Inc. and that
 it will not use this program in any manner prohibited above.
 ---------------------------------------------------------------
  

 Cite this work as:
 Gaussian 16, Revision A.03,
 M. J. Frisch, G. W. Trucks, H. B. Schlegel, G. E. Scuseria, 
 M. A. Robb, J. R. Cheeseman, G. Scalmani, V. Barone, 
 G. A. Petersson, H. Nakatsuji, X. Li, M. Caricato, A. V. Marenich, 
 J. Bloino, B. G. Janesko, R. Gomperts, B. Mennucci, H. P. Hratchian, 
 J. V. Ortiz, A. F. Izmaylov, J. L. Sonnenberg, D. Williams-Young, 
 F. Ding, F. Lipparini, F. Egidi, J. Goings, B. Peng, A. Petrone, 
 T. Henderson, D. Ranasinghe, V. G. Zakrzewski, J. Gao, N. Rega, 
 G. Zheng, W. Liang, M. Hada, M. Ehara, K. Toyota, R. Fukuda, 
 J. Hasegawa, M. Ishida, T. Nakajima, Y. Honda, O. Kitao, H. Nakai, 
 T. Vreven, K. Throssell, J. A. Montgomery, Jr., J. E. Peralta, 
 F. Ogliaro, M. J. Bearpark, J. J. Heyd, E. N. Brothers, K. N. Kudin, 
 V. N. Staroverov, T. A. Keith, R. Kobayashi, J. Normand, 
 K. Raghavachari, A. P. Rendell, J. C. Burant, S. S. Iyengar, 
 J. Tomasi, M. Cossi, J. M. Millam, M. Klene, C. Adamo, R. Cammi, 
 J. W. Ochterski, R. L. Martin, K. Morokuma, O. Farkas, 
 J. B. Foresman, and D. J. Fox, Gaussian, Inc., Wallingford CT, 2016.
 
 ******************************************
 Gaussian 16:  ES64L-G16RevA.03 25-Dec-2016
                 8-Sep-2022 
 ******************************************
 %NProcShared=20
 Will use up to   20 processors via shared memory.
 %mem=58371MB
 %chk=12.chk
 ------------------------------------------------------------------
 # opt freq rb3lyp/6-311g(d,p) geom=connectivity temperature=823.15
 ------------------------------------------------------------------
 1/18=20,19=15,26=3,38=1,57=2,112=823150/1,3;
 2/9=110,12=2,17=6,18=5,40=1/2;
 3/5=4,6=6,7=101,11=2,25=1,30=1,71=1,74=-5,116=1/1,2,3;
 4//1;
 5/5=2,38=5/2;
 6/7=2,8=2,9=2,10=2,28=1/1;
 7//1,2,3,16;
 1/18=20,19=15,26=3/3(2);
 2/9=110/2;
 99//99;
 2/9=110/2;
 3/5=4,6=6,7=101,11=2,25=1,30=1,71=1,74=-5,116=1/1,2,3;
 4/5=5,16=3,69=1/1;
 5/5=2,38=5/2;
 7//1,2,3,16;
 1/18=20,19=15,26=3/3(-5);
 2/9=110/2;
 6/7=2,8=2,9=2,10=2,19=2,28=1/1;
 99/9=1/99;
 -------------------
 Title Card Required
 -------------------
 Symbolic Z-matrix:
 Charge =  0 Multiplicity = 1
 C                    -0.9834    0.88795   0.00027 
 C                     0.45478   0.84157   0.00072 
 C                     1.11022  -0.361     0.00054 
 C                     0.37033  -1.58143  -0.00015 
 C                    -1.01656  -1.60386  -0.00035 
 C                    -1.69933  -0.39337  -0.00012 
 H                     0.99894   1.77585   0.00119 
 H                     0.91148  -2.52254  -0.00049 
 H                    -1.569    -2.53545  -0.00071 
 O                    -3.02753  -0.31205  -0.00038 
 H                    -3.20589   0.65382  -0.00028 
 O                    -1.67863   1.92952   0.00026 
 C                     2.61725  -0.44433   0.00114 
 H                     2.93759  -1.0116    0.8888 
 H                     2.938    -1.01676  -0.88307 
 

 GradGradGradGradGradGradGradGradGradGradGradGradGradGradGradGradGradGrad
 Berny optimization.
 Initialization pass.
                           ----------------------------
                           !    Initial Parameters    !
                           ! (Angstroms and Degrees)  !
 --------------------------                            --------------------------
 ! Name  Definition              Value          Derivative Info.                !
 --------------------------------------------------------------------------------
 ! R1    R(1,2)                  1.4389         estimate D2E/DX2                !
 ! R2    R(1,6)                  1.4678         estimate D2E/DX2                !
 ! R3    R(1,12)                 1.2523         estimate D2E/DX2                !
 ! R4    R(2,3)                  1.3696         estimate D2E/DX2                !
 ! R5    R(2,7)                  1.0812         estimate D2E/DX2                !
 ! R6    R(3,4)                  1.4272         estimate D2E/DX2                !
 ! R7    R(3,13)                 1.5093         estimate D2E/DX2                !
 ! R8    R(4,5)                  1.3871         estimate D2E/DX2                !
 ! R9    R(4,8)                  1.0856         estimate D2E/DX2                !
 ! R10   R(5,6)                  1.3898         estimate D2E/DX2                !
 ! R11   R(5,9)                  1.0831         estimate D2E/DX2                !
 ! R12   R(6,10)                 1.3307         estimate D2E/DX2                !
 ! R13   R(10,11)                0.9822         estimate D2E/DX2                !
 ! R14   R(13,14)                1.1011         estimate D2E/DX2                !
 ! R15   R(13,15)                1.1011         estimate D2E/DX2                !
 ! A1    A(2,1,6)              117.3471         estimate D2E/DX2                !
 ! A2    A(2,1,12)             125.5693         estimate D2E/DX2                !
 ! A3    A(6,1,12)             117.0836         estimate D2E/DX2                !
 ! A4    A(1,2,3)              120.439          estimate D2E/DX2                !
 ! A5    A(1,2,7)              118.3713         estimate D2E/DX2                !
 ! A6    A(3,2,7)              121.1897         estimate D2E/DX2                !
 ! A7    A(2,3,4)              120.1817         estimate D2E/DX2                !
 ! A8    A(2,3,13)             121.7571         estimate D2E/DX2                !
 ! A9    A(4,3,13)             118.0612         estimate D2E/DX2                !
 ! A10   A(3,4,5)              122.1529         estimate D2E/DX2                !
 ! A11   A(3,4,8)              118.8744         estimate D2E/DX2                !
 ! A12   A(5,4,8)              118.9727         estimate D2E/DX2                !
 ! A13   A(4,5,6)              118.4985         estimate D2E/DX2                !
 ! A14   A(4,5,9)              121.5945         estimate D2E/DX2                !
 ! A15   A(6,5,9)              119.9071         estimate D2E/DX2                !
 ! A16   A(1,6,5)              121.3809         estimate D2E/DX2                !
 ! A17   A(1,6,10)             115.6905         estimate D2E/DX2                !
 ! A18   A(5,6,10)             122.9286         estimate D2E/DX2                !
 ! A19   A(6,10,11)            103.9661         estimate D2E/DX2                !
 ! A20   A(3,13,14)            108.6184         estimate D2E/DX2                !
 ! A21   A(3,13,15)            108.617          estimate D2E/DX2                !
 ! A22   A(14,13,15)           107.1456         estimate D2E/DX2                !
 ! D1    D(6,1,2,3)              0.0113         estimate D2E/DX2                !
 ! D2    D(6,1,2,7)           -179.9895         estimate D2E/DX2                !
 ! D3    D(12,1,2,3)          -179.9927         estimate D2E/DX2                !
 ! D4    D(12,1,2,7)             0.0065         estimate D2E/DX2                !
 ! D5    D(2,1,6,5)             -0.0137         estimate D2E/DX2                !
 ! D6    D(2,1,6,10)           179.9929         estimate D2E/DX2                !
 ! D7    D(12,1,6,5)           179.99           estimate D2E/DX2                !
 ! D8    D(12,1,6,10)           -0.0034         estimate D2E/DX2                !
 ! D9    D(1,2,3,4)              0.0021         estimate D2E/DX2                !
 ! D10   D(1,2,3,13)          -179.9935         estimate D2E/DX2                !
 ! D11   D(7,2,3,4)           -179.9971         estimate D2E/DX2                !
 ! D12   D(7,2,3,13)             0.0073         estimate D2E/DX2                !
 ! D13   D(2,3,4,5)             -0.0146         estimate D2E/DX2                !
 ! D14   D(2,3,4,8)            179.9878         estimate D2E/DX2                !
 ! D15   D(13,3,4,5)           179.9812         estimate D2E/DX2                !
 ! D16   D(13,3,4,8)            -0.0164         estimate D2E/DX2                !
 ! D17   D(2,3,13,14)          121.7034         estimate D2E/DX2                !
 ! D18   D(2,3,13,15)         -122.0812         estimate D2E/DX2                !
 ! D19   D(4,3,13,14)          -58.2923         estimate D2E/DX2                !
 ! D20   D(4,3,13,15)           57.9231         estimate D2E/DX2                !
 ! D21   D(3,4,5,6)              0.0122         estimate D2E/DX2                !
 ! D22   D(3,4,5,9)           -179.9899         estimate D2E/DX2                !
 ! D23   D(8,4,5,6)           -179.9903         estimate D2E/DX2                !
 ! D24   D(8,4,5,9)              0.0077         estimate D2E/DX2                !
 ! D25   D(4,5,6,1)              0.0022         estimate D2E/DX2                !
 ! D26   D(4,5,6,10)           179.9951         estimate D2E/DX2                !
 ! D27   D(9,5,6,1)           -179.9958         estimate D2E/DX2                !
 ! D28   D(9,5,6,10)            -0.0029         estimate D2E/DX2                !
 ! D29   D(1,6,10,11)            0.003          estimate D2E/DX2                !
 ! D30   D(5,6,10,11)         -179.9903         estimate D2E/DX2                !
 --------------------------------------------------------------------------------
 Trust Radius=3.00D-01 FncErr=1.00D-07 GrdErr=1.00D-06 EigMax=2.50D+02 EigMin=1.00D-04
 Number of steps in this run=     77 maximum allowed number of steps=    100.
 GradGradGradGradGradGradGradGradGradGradGradGradGradGradGradGradGradGrad

                          Input orientation:                          
 ---------------------------------------------------------------------
 Center     Atomic      Atomic             Coordinates (Angstroms)
 Number     Number       Type             X           Y           Z
 ---------------------------------------------------------------------
      1          6           0       -0.983399    0.887950    0.000272
      2          6           0        0.454781    0.841571    0.000721
      3          6           0        1.110221   -0.360995    0.000537
      4          6           0        0.370331   -1.581430   -0.000149
      5          6           0       -1.016564   -1.603859   -0.000350
      6          6           0       -1.699334   -0.393372   -0.000123
      7          1           0        0.998944    1.775848    0.001191
      8          1           0        0.911475   -2.522538   -0.000485
      9          1           0       -1.568995   -2.535445   -0.000709
     10          8           0       -3.027528   -0.312052   -0.000383
     11          1           0       -3.205888    0.653820   -0.000284
     12          8           0       -1.678625    1.929520    0.000261
     13          6           0        2.617251   -0.444332    0.001142
     14          1           0        2.937593   -1.011596    0.888798
     15          1           0        2.937999   -1.016764   -0.883069
 ---------------------------------------------------------------------
                    Distance matrix (angstroms):
                    1          2          3          4          5
     1  C    0.000000
     2  C    1.438928   0.000000
     3  C    2.437849   1.369586   0.000000
     4  C    2.816101   2.424472   1.427200   0.000000
     5  C    2.492030   2.853942   2.463316   1.387076   0.000000
     6  C    1.467770   2.483001   2.809742   2.386419   1.389767
     7  H    2.172107   1.081197   2.139739   3.415622   3.935060
     8  H    3.901535   3.394967   2.170661   1.085597   2.135721
     9  H    3.473119   3.936992   3.450570   2.161280   1.083066
    10  O    2.370331   3.668422   4.138039   3.627226   2.390134
    11  H    2.234787   3.665481   4.433807   4.217308   3.144877
    12  O    1.252281   2.394797   3.608895   4.065094   3.594870
    13  C    3.839226   2.515914   1.509333   2.518262   3.814330
    14  H    4.446564   3.222928   2.133443   2.775927   4.095939
    15  H    4.448099   3.225037   2.133440   2.773322   4.094196
                    6          7          8          9         10
     6  C    0.000000
     7  H    3.462112   0.000000
     8  H    3.368927   4.299276   0.000000
     9  H    2.146035   5.018123   2.480504   0.000000
    10  O    1.330681   4.535615   4.516857   2.659097   0.000000
    11  H    1.834752   4.351961   5.200185   3.584805   0.982202
    12  O    2.322984   2.681975   5.150674   4.466311   2.616139
    13  C    4.316886   2.747384   2.688608   4.679467   5.646329
    14  H    4.761667   3.509423   2.679351   4.839698   6.071464
    15  H    4.761625   3.512909   2.674530   4.837142   6.071513
                   11         12         13         14         15
    11  H    0.000000
    12  O    1.989961   0.000000
    13  C    5.925782   4.908128   0.000000
    14  H    6.427008   5.545190   1.101063   0.000000
    15  H    6.427870   5.547439   1.101084   1.771875   0.000000
 Stoichiometry    C7H6O2
 Framework group  C1[X(C7H6O2)]
 Deg. of freedom    39
 Full point group                 C1      NOp   1
 Largest Abelian subgroup         C1      NOp   1
 Largest concise Abelian subgroup C1      NOp   1
                         Standard orientation:                         
 ---------------------------------------------------------------------
 Center     Atomic      Atomic             Coordinates (Angstroms)
 Number     Number       Type             X           Y           Z
 ---------------------------------------------------------------------
      1          6           0        0.756644   -0.845563   -0.000111
      2          6           0       -0.647758   -1.158881   -0.000142
      3          6           0       -1.582085   -0.157482   -0.000193
      4          6           0       -1.169513    1.208784   -0.000261
      5          6           0        0.168081    1.575967    0.000021
      6          6           0        1.130850    0.573704    0.000123
      7          1           0       -0.942051   -2.199255   -0.000138
      8          1           0       -1.928020    1.985436   -0.000503
      9          1           0        0.471052    2.615794    0.000130
     10          8           0        2.437436    0.825786    0.000295
     11          1           0        2.850762   -0.065215    0.000168
     12          8           0        1.689401   -1.681130   -0.000193
     13          6           0       -3.062373   -0.452157   -0.000082
     14          1           0       -3.514147    0.017101    0.887633
     15          1           0       -3.515369    0.022669   -0.884233
 ---------------------------------------------------------------------
 Rotational constants (GHZ):           3.3220848           1.3791233           0.9805332
 Standard basis: 6-311G(d,p) (5D, 7F)
 There are   207 symmetry adapted cartesian basis functions of A   symmetry.
 There are   198 symmetry adapted basis functions of A   symmetry.
   198 basis functions,   336 primitive gaussians,   207 cartesian basis functions
    32 alpha electrons       32 beta electrons
       nuclear repulsion energy       406.6086155733 Hartrees.
 NAtoms=   15 NActive=   15 NUniq=   15 SFac= 1.00D+00 NAtFMM=   60 NAOKFM=F Big=F
 Integral buffers will be    131072 words long.
 Raffenetti 2 integral format.
 Two-electron integral symmetry is turned on.
 One-electron integrals computed using PRISM.
 NBasis=   198 RedAO= T EigKep=  2.28D-04  NBF=   198
 NBsUse=   198 1.00D-06 EigRej= -1.00D+00 NBFU=   198
 ExpMin= 1.03D-01 ExpMax= 8.59D+03 ExpMxC= 1.30D+03 IAcc=3 IRadAn=         5 AccDes= 0.00D+00
 Harris functional with IExCor=  402 and IRadAn=       5 diagonalized for initial guess.
 HarFok:  IExCor=  402 AccDes= 0.00D+00 IRadAn=         5 IDoV= 1 UseB2=F ITyADJ=14
 ICtDFT=  3500011 ScaDFX=  1.000000  1.000000  1.000000  1.000000
 FoFCou: FMM=F IPFlag=           0 FMFlag=      100000 FMFlg1=           0
         NFxFlg=           0 DoJE=T BraDBF=F KetDBF=T FulRan=T
         wScrn=  0.000000 ICntrl=       500 IOpCl=  0 I1Cent=   200000004 NGrid=           0
         NMat0=    1 NMatS0=      1 NMatT0=    0 NMatD0=    1 NMtDS0=    0 NMtDT0=    0
 Petite list used in FoFCou.
 Requested convergence on RMS density matrix=1.00D-08 within 128 cycles.
 Requested convergence on MAX density matrix=1.00D-06.
 Requested convergence on             energy=1.00D-06.
 No special actions if energy rises.
 Integral accuracy reduced to 1.0D-05 until final iterations.
 EnCoef did     5 forward-backward iterations
 EnCoef did    38 forward-backward iterations
 EnCoef did     5 forward-backward iterations
 Initial convergence to 1.0D-05 achieved.  Increase integral accuracy.
 SCF Done:  E(RB3LYP) =  -420.757214213     A.U. after   24 cycles
            NFock= 24  Conv=0.31D-08     -V/T= 2.0036

 **********************************************************************

            Population analysis using the SCF density.

 **********************************************************************

 Orbital symmetries:
       Occupied  (A) (A) (A) (A) (A) (A) (A) (A) (A) (A) (A) (A)
                 (A) (A) (A) (A) (A) (A) (A) (A) (A) (A) (A) (A)
                 (A) (A) (A) (A) (A) (A) (A) (A)
       Virtual   (A) (A) (A) (A) (A) (A) (A) (A) (A) (A) (A) (A)
                 (A) (A) (A) (A) (A) (A) (A) (A) (A) (A) (A) (A)
                 (A) (A) (A) (A) (A) (A) (A) (A) (A) (A) (A) (A)
                 (A) (A) (A) (A) (A) (A) (A) (A) (A) (A) (A) (A)
                 (A) (A) (A) (A) (A) (A) (A) (A) (A) (A) (A) (A)
                 (A) (A) (A) (A) (A) (A) (A) (A) (A) (A) (A) (A)
                 (A) (A) (A) (A) (A) (A) (A) (A) (A) (A) (A) (A)
                 (A) (A) (A) (A) (A) (A) (A) (A) (A) (A) (A) (A)
                 (A) (A) (A) (A) (A) (A) (A) (A) (A) (A) (A) (A)
                 (A) (A) (A) (A) (A) (A) (A) (A) (A) (A) (A) (A)
                 (A) (A) (A) (A) (A) (A) (A) (A) (A) (A) (A) (A)
                 (A) (A) (A) (A) (A) (A) (A) (A) (A) (A) (A) (A)
                 (A) (A) (A) (A) (A) (A) (A) (A) (A) (A) (A) (A)
                 (A) (A) (A) (A) (A) (A) (A) (A) (A) (A)
 The electronic state is 1-A.
 Alpha  occ. eigenvalues --  -19.18915 -19.11991 -10.27627 -10.26294 -10.22014
 Alpha  occ. eigenvalues --  -10.21308 -10.20401 -10.19802 -10.18730  -1.11413
 Alpha  occ. eigenvalues --   -1.03612  -0.87959  -0.79084  -0.75171  -0.68835
 Alpha  occ. eigenvalues --   -0.63862  -0.60372  -0.57204  -0.52641  -0.47644
 Alpha  occ. eigenvalues --   -0.46566  -0.46256  -0.44705  -0.43138  -0.42963
 Alpha  occ. eigenvalues --   -0.39053  -0.38642  -0.37817  -0.34199  -0.28220
 Alpha  occ. eigenvalues --   -0.26537  -0.20144
 Alpha virt. eigenvalues --   -0.17123  -0.01889  -0.01284   0.03953   0.05798
 Alpha virt. eigenvalues --    0.06621   0.09303   0.10540   0.11200   0.15145
 Alpha virt. eigenvalues --    0.18311   0.20528   0.22950   0.25130   0.26947
 Alpha virt. eigenvalues --    0.28514   0.31198   0.31450   0.34844   0.36171
 Alpha virt. eigenvalues --    0.36384   0.37433   0.37590   0.38976   0.42957
 Alpha virt. eigenvalues --    0.43007   0.44443   0.46218   0.47364   0.48705
 Alpha virt. eigenvalues --    0.49928   0.50381   0.53573   0.53808   0.56640
 Alpha virt. eigenvalues --    0.58749   0.59647   0.60259   0.60994   0.61744
 Alpha virt. eigenvalues --    0.61811   0.65309   0.70462   0.72989   0.74320
 Alpha virt. eigenvalues --    0.74869   0.78714   0.80889   0.83450   0.85186
 Alpha virt. eigenvalues --    0.87511   0.88742   0.90738   0.92071   0.94986
 Alpha virt. eigenvalues --    0.96914   0.97106   0.98740   1.01889   1.04064
 Alpha virt. eigenvalues --    1.07036   1.09387   1.15632   1.18965   1.20840
 Alpha virt. eigenvalues --    1.26035   1.34531   1.34909   1.36753   1.38039
 Alpha virt. eigenvalues --    1.41406   1.43776   1.48235   1.51168   1.52084
 Alpha virt. eigenvalues --    1.53553   1.54799   1.55321   1.57494   1.60429
 Alpha virt. eigenvalues --    1.61651   1.63168   1.64231   1.64613   1.70085
 Alpha virt. eigenvalues --    1.71896   1.78417   1.79365   1.83122   1.83607
 Alpha virt. eigenvalues --    1.85679   1.86772   1.89143   1.93151   1.94776
 Alpha virt. eigenvalues --    2.00884   2.02395   2.04465   2.04763   2.08476
 Alpha virt. eigenvalues --    2.14279   2.18247   2.19884   2.27323   2.28865
 Alpha virt. eigenvalues --    2.31751   2.37319   2.39893   2.43020   2.48299
 Alpha virt. eigenvalues --    2.50051   2.52078   2.54582   2.56441   2.60296
 Alpha virt. eigenvalues --    2.63440   2.64573   2.64672   2.66573   2.68863
 Alpha virt. eigenvalues --    2.78473   2.78566   2.83177   2.83552   2.90651
 Alpha virt. eigenvalues --    2.93317   2.96055   2.98028   3.00767   3.05076
 Alpha virt. eigenvalues --    3.06503   3.10228   3.13661   3.17394   3.27737
 Alpha virt. eigenvalues --    3.29972   3.34899   3.36864   3.45260   3.51519
 Alpha virt. eigenvalues --    3.56233   3.59448   3.62073   3.72257   3.78795
 Alpha virt. eigenvalues --    3.95530   3.97539   4.06504   4.08737   4.17701
 Alpha virt. eigenvalues --    4.75766   4.75811   4.88959   5.05090   5.32049
 Alpha virt. eigenvalues --    5.60386   5.67451  23.46065  23.76836  23.79304
 Alpha virt. eigenvalues --   23.87434  23.92927  24.08979  24.13418  49.85907
 Alpha virt. eigenvalues --   49.95919
          Condensed to atoms (all electrons):
               1          2          3          4          5          6
     1  C    4.872198   0.342121  -0.018185  -0.038410  -0.002020   0.198481
     2  C    0.342121   5.113520   0.428808  -0.037208  -0.033819  -0.040912
     3  C   -0.018185   0.428808   5.197462   0.439266  -0.049238  -0.040449
     4  C   -0.038410  -0.037208   0.439266   4.922617   0.470266  -0.034566
     5  C   -0.002020  -0.033819  -0.049238   0.470266   4.967960   0.379264
     6  C    0.198481  -0.040912  -0.040449  -0.034566   0.379264   5.182891
     7  H   -0.037734   0.400897  -0.041816   0.009373  -0.002515   0.011603
     8  H   -0.001037   0.006485  -0.046513   0.414384  -0.034576   0.009280
     9  H    0.008128  -0.002312   0.007766  -0.032607   0.401377  -0.037814
    10  O   -0.071670   0.006213  -0.000839   0.004183  -0.055664   0.392756
    11  H   -0.018404   0.006261  -0.001029  -0.000089   0.009450  -0.066406
    12  O    0.576118  -0.072712   0.007735  -0.000693   0.009366  -0.100516
    13  C    0.004648  -0.037775   0.317830  -0.055852   0.009561  -0.000596
    14  H   -0.000179  -0.001777  -0.055998   0.003392   0.000253  -0.000028
    15  H   -0.000204  -0.001012  -0.066344  -0.001892   0.000604   0.000034
               7          8          9         10         11         12
     1  C   -0.037734  -0.001037   0.008128  -0.071670  -0.018404   0.576118
     2  C    0.400897   0.006485  -0.002312   0.006213   0.006261  -0.072712
     3  C   -0.041816  -0.046513   0.007766  -0.000839  -0.001029   0.007735
     4  C    0.009373   0.414384  -0.032607   0.004183  -0.000089  -0.000693
     5  C   -0.002515  -0.034576   0.401377  -0.055664   0.009450   0.009366
     6  C    0.011603   0.009280  -0.037814   0.392756  -0.066406  -0.100516
     7  H    0.543473  -0.000329   0.000114  -0.000083  -0.000215   0.006046
     8  H   -0.000329   0.546913  -0.008879  -0.000120   0.000026   0.000002
     9  H    0.000114  -0.008879   0.545623   0.003001  -0.001048  -0.000189
    10  O   -0.000083  -0.000120   0.003001   7.722365   0.311914  -0.020321
    11  H   -0.000215   0.000026  -0.001048   0.311914   0.437632   0.058116
    12  O    0.006046   0.000002  -0.000189  -0.020321   0.058116   7.907255
    13  C    0.001882  -0.001603  -0.000409  -0.000001   0.000012  -0.000093
    14  H    0.000152   0.001357   0.000019  -0.000000  -0.000001   0.000006
    15  H   -0.000167   0.001762   0.000003  -0.000001  -0.000001   0.000004
              13         14         15
     1  C    0.004648  -0.000179  -0.000204
     2  C   -0.037775  -0.001777  -0.001012
     3  C    0.317830  -0.055998  -0.066344
     4  C   -0.055852   0.003392  -0.001892
     5  C    0.009561   0.000253   0.000604
     6  C   -0.000596  -0.000028   0.000034
     7  H    0.001882   0.000152  -0.000167
     8  H   -0.001603   0.001357   0.001762
     9  H   -0.000409   0.000019   0.000003
    10  O   -0.000001  -0.000000  -0.000001
    11  H    0.000012  -0.000001  -0.000001
    12  O   -0.000093   0.000006   0.000004
    13  C    5.191252   0.404348   0.409178
    14  H    0.404348   0.557387  -0.042758
    15  H    0.409178  -0.042758   0.579022
 Mulliken charges:
               1
     1  C    0.186148
     2  C   -0.076776
     3  C   -0.078456
     4  C   -0.062164
     5  C   -0.070270
     6  C    0.146978
     7  H    0.109321
     8  H    0.112848
     9  H    0.117228
    10  O   -0.291734
    11  H    0.263784
    12  O   -0.370124
    13  C   -0.242381
    14  H    0.133826
    15  H    0.121772
 Sum of Mulliken charges =  -0.00000
 Mulliken charges with hydrogens summed into heavy atoms:
               1
     1  C    0.186148
     2  C    0.032544
     3  C   -0.078456
     4  C    0.050683
     5  C    0.046958
     6  C    0.146978
    10  O   -0.027950
    12  O   -0.370124
    13  C    0.013218
 Electronic spatial extent (au):  <R**2>=           1139.7807
 Charge=             -0.0000 electrons
 Dipole moment (field-independent basis, Debye):
    X=             -1.1295    Y=              2.7551    Z=             -0.0404  Tot=              2.9779
 Quadrupole moment (field-independent basis, Debye-Ang):
   XX=            -52.6096   YY=            -53.9756   ZZ=            -53.0393
   XY=             -1.8014   XZ=              0.1919   YZ=              0.1864
 Traceless Quadrupole moment (field-independent basis, Debye-Ang):
   XX=              0.5986   YY=             -0.7674   ZZ=              0.1689
   XY=             -1.8014   XZ=              0.1919   YZ=              0.1864
 Octapole moment (field-independent basis, Debye-Ang**2):
  XXX=             30.7215  YYY=             14.6852  ZZZ=             -0.1765  XYY=             -4.6810
  XXY=             11.7390  XXZ=             -0.6538  XZZ=              7.4590  YZZ=             -1.4645
  YYZ=             -0.3721  XYZ=             -0.6581
 Hexadecapole moment (field-independent basis, Debye-Ang**3):
 XXXX=           -988.2141 YYYY=           -421.5691 ZZZZ=            -61.2144 XXXY=            -59.8523
 XXXZ=              2.3214 YYYX=              6.9590 YYYZ=              0.1871 ZZZX=              0.2997
 ZZZY=              0.1059 XXYY=           -273.1676 XXZZ=           -172.2901 YYZZ=            -88.2170
 XXYZ=              1.6962 YYXZ=              0.6835 ZZXY=             -4.6341
 N-N= 4.066086155733D+02 E-N=-1.795721467328D+03  KE= 4.192330534370D+02
 Calling FoFJK, ICntrl=      2127 FMM=F ISym2X=0 I1Cent= 0 IOpClX= 0 NMat=1 NMatS=1 NMatT=0.
 ***** Axes restored to original set *****
 -------------------------------------------------------------------
 Center     Atomic                   Forces (Hartrees/Bohr)
 Number     Number              X              Y              Z
 -------------------------------------------------------------------
      1        6          -0.000285324    0.016581491    0.005966330
      2        6          -0.003955245   -0.000397884    0.006540888
      3        6           0.021682649    0.016681963   -0.015357556
      4        6          -0.002859878   -0.006224052   -0.015093838
      5        6          -0.004055208    0.001503591    0.011013736
      6        6          -0.007422010   -0.009026436   -0.001547799
      7        1          -0.000483624    0.000794504   -0.000446029
      8        1          -0.000355012    0.001099224   -0.004515356
      9        1           0.000077182   -0.000112069    0.001032035
     10        8           0.007011851   -0.000868866    0.000500712
     11        1          -0.000270546    0.001744812   -0.001170973
     12        8           0.002540154   -0.008051348   -0.002140831
     13        6          -0.030529767   -0.042437648    0.007880254
     14        1           0.013802528    0.022882967    0.005455679
     15        1           0.005102249    0.005829752    0.001882749
 -------------------------------------------------------------------
 Cartesian Forces:  Max     0.042437648 RMS     0.011219205

 GradGradGradGradGradGradGradGradGradGradGradGradGradGradGradGradGradGrad
 Berny optimization.
 FormGI is forming the generalized inverse of G from B-inverse, IUseBI=4.
 Internal  Forces:  Max     0.030532183 RMS     0.006462918
 Search for a local minimum.
 Step number   1 out of a maximum of   77
 All quantities printed in internal units (Hartrees-Bohrs-Radians)
 Mixed Optimization -- RFO/linear search
 Second derivative matrix not updated -- first step.
 ITU=  0
     Eigenvalues ---    0.00642   0.01386   0.01541   0.01649   0.01872
     Eigenvalues ---    0.01952   0.01997   0.02133   0.02215   0.02242
     Eigenvalues ---    0.02609   0.05774   0.16000   0.16000   0.16000
     Eigenvalues ---    0.16000   0.16000   0.16000   0.22354   0.23493
     Eigenvalues ---    0.24585   0.25000   0.25000   0.25000   0.31418
     Eigenvalues ---    0.33562   0.33565   0.35034   0.35326   0.35626
     Eigenvalues ---    0.35850   0.38424   0.40480   0.45239   0.47066
     Eigenvalues ---    0.50114   0.50959   0.59345   0.82400
 RFO step:  Lambda=-3.06172775D-02 EMin= 6.42495360D-03
 Linear search not attempted -- first point.
 Iteration  1 RMS(Cart)=  0.08450597 RMS(Int)=  0.03241321
 Iteration  2 RMS(Cart)=  0.03533738 RMS(Int)=  0.00650051
 Iteration  3 RMS(Cart)=  0.00260731 RMS(Int)=  0.00587297
 Iteration  4 RMS(Cart)=  0.00002147 RMS(Int)=  0.00587295
 Iteration  5 RMS(Cart)=  0.00000076 RMS(Int)=  0.00587295
 Variable       Old X    -DE/DX   Delta X   Delta X   Delta X     New X
                                 (Linear)    (Quad)   (Total)
    R1        2.71918   0.00024   0.00000   0.00056   0.00069   2.71987
    R2        2.77368   0.00650   0.00000   0.01616   0.01613   2.78981
    R3        2.36647  -0.00811   0.00000  -0.00949  -0.00949   2.35698
    R4        2.58814   0.00469   0.00000   0.00900   0.00916   2.59730
    R5        2.04317   0.00044   0.00000   0.00114   0.00114   2.04430
    R6        2.69702   0.00778   0.00000   0.01792   0.01794   2.71496
    R7        2.85223  -0.01084   0.00000  -0.03145  -0.03145   2.82078
    R8        2.62119   0.00225   0.00000   0.00444   0.00431   2.62551
    R9        2.05148  -0.00113   0.00000  -0.00294  -0.00294   2.04854
   R10        2.62628  -0.00264   0.00000  -0.00560  -0.00576   2.62052
   R11        2.04670   0.00006   0.00000   0.00015   0.00015   2.04685
   R12        2.51462  -0.00668   0.00000  -0.01070  -0.01070   2.50393
   R13        1.85609   0.00177   0.00000   0.00327   0.00327   1.85936
   R14        2.08071  -0.00338   0.00000  -0.00921  -0.00921   2.07149
   R15        2.08075  -0.00306   0.00000  -0.00834  -0.00834   2.07240
    A1        2.04809  -0.00073   0.00000  -0.00347  -0.00354   2.04455
    A2        2.19160   0.00316   0.00000   0.01167   0.01171   2.20331
    A3        2.04349  -0.00242   0.00000  -0.00821  -0.00817   2.03532
    A4        2.10206   0.00125   0.00000   0.00558   0.00556   2.10762
    A5        2.06597  -0.00146   0.00000  -0.00717  -0.00735   2.05862
    A6        2.11516   0.00021   0.00000   0.00159   0.00141   2.11657
    A7        2.09757  -0.00286   0.00000  -0.00902  -0.01018   2.08738
    A8        2.12506   0.00303   0.00000   0.01020   0.00895   2.13401
    A9        2.06056  -0.00016   0.00000  -0.00118  -0.00238   2.05817
   A10        2.13197   0.00103   0.00000   0.00471   0.00396   2.13593
   A11        2.07475  -0.00076   0.00000  -0.00364  -0.00392   2.07083
   A12        2.07647  -0.00027   0.00000  -0.00107  -0.00134   2.07513
   A13        2.06819  -0.00030   0.00000  -0.00208  -0.00284   2.06535
   A14        2.12222   0.00002   0.00000   0.00038   0.00040   2.12262
   A15        2.09277   0.00028   0.00000   0.00170   0.00170   2.09448
   A16        2.11850   0.00161   0.00000   0.00426   0.00386   2.12236
   A17        2.01918  -0.00247   0.00000  -0.00806  -0.00787   2.01131
   A18        2.14551   0.00086   0.00000   0.00380   0.00400   2.14951
   A19        1.81455  -0.00009   0.00000  -0.00049  -0.00049   1.81406
   A20        1.89575   0.03053   0.00000   0.20222   0.18044   2.07619
   A21        1.89572   0.01330   0.00000   0.11182   0.08911   1.98484
   A22        1.87004   0.00148   0.00000   0.09988   0.06906   1.93910
    D1        0.00020   0.00062   0.00000   0.01702   0.01686   0.01706
    D2       -3.14141   0.00202   0.00000   0.04629   0.04612  -3.09529
    D3       -3.14147   0.00082   0.00000   0.01910   0.01904  -3.12243
    D4        0.00011   0.00222   0.00000   0.04837   0.04830   0.04841
    D5       -0.00024  -0.00052   0.00000  -0.01314  -0.01320  -0.01344
    D6        3.14147  -0.00030   0.00000  -0.00858  -0.00854   3.13292
    D7        3.14142  -0.00070   0.00000  -0.01504  -0.01516   3.12625
    D8       -0.00006  -0.00048   0.00000  -0.01048  -0.01051  -0.01057
    D9        0.00004   0.00170   0.00000   0.02902   0.02898   0.02902
   D10       -3.14148   0.00607   0.00000   0.12205   0.12214  -3.01934
   D11       -3.14154   0.00026   0.00000  -0.00108  -0.00126   3.14038
   D12        0.00013   0.00463   0.00000   0.09195   0.09190   0.09203
   D13       -0.00026  -0.00436   0.00000  -0.08369  -0.08384  -0.08410
   D14        3.14138  -0.00148   0.00000  -0.02836  -0.02850   3.11288
   D15        3.14126  -0.00857   0.00000  -0.17333  -0.17299   2.96828
   D16       -0.00029  -0.00569   0.00000  -0.11800  -0.11764  -0.11793
   D17        2.12412  -0.02414   0.00000  -0.43965  -0.44947   1.67466
   D18       -2.13072   0.00135   0.00000  -0.15118  -0.14191  -2.27263
   D19       -1.01739  -0.01986   0.00000  -0.34852  -0.35779  -1.37519
   D20        1.01095   0.00563   0.00000  -0.06005  -0.05023   0.96072
   D21        0.00021   0.00440   0.00000   0.08631   0.08655   0.08676
   D22       -3.14142   0.00232   0.00000   0.04512   0.04530  -3.09612
   D23       -3.14142   0.00152   0.00000   0.03093   0.03108  -3.11035
   D24        0.00013  -0.00057   0.00000  -0.01027  -0.01018  -0.01004
   D25        0.00004  -0.00195   0.00000  -0.03750  -0.03738  -0.03734
   D26        3.14151  -0.00219   0.00000  -0.04240  -0.04241   3.09910
   D27       -3.14152   0.00010   0.00000   0.00298   0.00319  -3.13833
   D28       -0.00005  -0.00014   0.00000  -0.00191  -0.00184  -0.00189
   D29        0.00005   0.00094   0.00000   0.01628   0.01623   0.01629
   D30       -3.14142   0.00117   0.00000   0.02092   0.02097  -3.12045
         Item               Value     Threshold  Converged?
 Maximum Force            0.030532     0.000450     NO 
 RMS     Force            0.006463     0.000300     NO 
 Maximum Displacement     0.559355     0.001800     NO 
 RMS     Displacement     0.110706     0.001200     NO 
 Predicted change in Energy=-2.390043D-02
 GradGradGradGradGradGradGradGradGradGradGradGradGradGradGradGradGradGrad

                          Input orientation:                          
 ---------------------------------------------------------------------
 Center     Atomic      Atomic             Coordinates (Angstroms)
 Number     Number       Type             X           Y           Z
 ---------------------------------------------------------------------
      1          6           0       -0.982426    0.884207   -0.001287
      2          6           0        0.454778    0.819234   -0.043626
      3          6           0        1.102796   -0.392236   -0.082061
      4          6           0        0.335708   -1.606529   -0.116162
      5          6           0       -1.049827   -1.614459   -0.013469
      6          6           0       -1.714231   -0.397757    0.021170
      7          1           0        1.005444    1.749991   -0.016251
      8          1           0        0.862144   -2.552424   -0.173558
      9          1           0       -1.612846   -2.539660    0.001115
     10          8           0       -3.034265   -0.294006    0.070421
     11          1           0       -3.196105    0.676506    0.064362
     12          8           0       -1.673395    1.922434    0.016259
     13          6           0        2.587117   -0.505907    0.027451
     14          1           0        3.032515   -0.715598    1.006878
     15          1           0        3.040855   -1.127469   -0.753871
 ---------------------------------------------------------------------
                    Distance matrix (angstroms):
                    1          2          3          4          5
     1  C    0.000000
     2  C    1.439294   0.000000
     3  C    2.446218   1.374433   0.000000
     4  C    2.820361   2.429767   1.436696   0.000000
     5  C    2.499604   2.861400   2.476352   1.389358   0.000000
     6  C    1.476304   2.487944   2.818923   2.383744   1.386721
     7  H    2.168279   1.081799   2.145447   3.424143   3.942546
     8  H    3.904170   3.398662   2.175476   1.084042   2.135659
     9  H    3.481422   3.944521   3.463100   2.163643   1.083144
    10  O    2.367144   3.664114   4.141035   3.621360   2.385085
    11  H    2.224370   3.655267   4.432177   4.209339   3.140236
    12  O    1.247261   2.397864   3.615881   4.062955   3.591564
    13  C    3.830781   2.511558   1.492690   2.510147   3.802358
    14  H    4.437964   3.178678   2.239233   3.054136   4.302856
    15  H    4.560703   3.313895   2.178984   2.820283   4.185575
                    6          7          8          9         10
     6  C    0.000000
     7  H    3.465668   0.000000
     8  H    3.364255   4.307673   0.000000
     9  H    2.144395   5.025619   2.481180   0.000000
    10  O    1.325021   4.528210   4.510209   2.658608   0.000000
    11  H    1.830807   4.337267   5.191529   3.585307   0.983931
    12  O    2.320555   2.684580   5.146779   4.462530   2.601443
    13  C    4.302712   2.755481   2.684058   4.666534   5.625539
    14  H    4.858419   3.351855   3.078614   5.090986   6.153089
    15  H    4.872783   3.600938   2.667216   4.921507   6.187181
                   11         12         13         14         15
    11  H    0.000000
    12  O    1.968069   0.000000
    13  C    5.902975   4.903970   0.000000
    14  H    6.451510   5.485082   1.096187   0.000000
    15  H    6.543967   5.667377   1.096668   1.808299   0.000000
 Stoichiometry    C7H6O2
 Framework group  C1[X(C7H6O2)]
 Deg. of freedom    39
 Full point group                 C1      NOp   1
 Largest Abelian subgroup         C1      NOp   1
 Largest concise Abelian subgroup C1      NOp   1
                         Standard orientation:                         
 ---------------------------------------------------------------------
 Center     Atomic      Atomic             Coordinates (Angstroms)
 Number     Number       Type             X           Y           Z
 ---------------------------------------------------------------------
      1          6           0        0.751657   -0.852399   -0.015802
      2          6           0       -0.655730   -1.152542   -0.043129
      3          6           0       -1.589398   -0.143996   -0.055928
      4          6           0       -1.154706    1.225181   -0.078103
      5          6           0        0.185077    1.581996    0.011233
      6          6           0        1.135868    0.572584    0.019994
      7          1           0       -0.952813   -2.192596   -0.025258
      8          1           0       -1.903874    2.007812   -0.115278
      9          1           0        0.496078    2.619256    0.035106
     10          8           0        2.439797    0.805484    0.054752
     11          1           0        2.841613   -0.092364    0.031635
     12          8           0        1.682803   -1.682215   -0.021542
     13          6           0       -3.052637   -0.410918    0.069805
     14          1           0       -3.523372   -0.333443    1.056736
     15          1           0       -3.659217    0.085742   -0.697053
 ---------------------------------------------------------------------
 Rotational constants (GHZ):           3.3171230           1.3771968           0.9802719
 Standard basis: 6-311G(d,p) (5D, 7F)
 There are   207 symmetry adapted cartesian basis functions of A   symmetry.
 There are   198 symmetry adapted basis functions of A   symmetry.
   198 basis functions,   336 primitive gaussians,   207 cartesian basis functions
    32 alpha electrons       32 beta electrons
       nuclear repulsion energy       406.4040603296 Hartrees.
 NAtoms=   15 NActive=   15 NUniq=   15 SFac= 1.00D+00 NAtFMM=   60 NAOKFM=F Big=F
 Integral buffers will be    131072 words long.
 Raffenetti 2 integral format.
 Two-electron integral symmetry is turned on.
 One-electron integrals computed using PRISM.
 NBasis=   198 RedAO= T EigKep=  2.41D-04  NBF=   198
 NBsUse=   198 1.00D-06 EigRej= -1.00D+00 NBFU=   198
 Initial guess from the checkpoint file:  "12.chk"
 B after Tr=    -0.000000    0.000000   -0.000000
         Rot=    0.999987   -0.004666   -0.000526    0.002053 Ang=  -0.59 deg.
 ExpMin= 1.03D-01 ExpMax= 8.59D+03 ExpMxC= 1.30D+03 IAcc=2 IRadAn=         4 AccDes= 0.00D+00
 Harris functional with IExCor=  402 and IRadAn=       4 diagonalized for initial guess.
 HarFok:  IExCor=  402 AccDes= 0.00D+00 IRadAn=         4 IDoV= 1 UseB2=F ITyADJ=14
 ICtDFT=  3500011 ScaDFX=  1.000000  1.000000  1.000000  1.000000
 FoFCou: FMM=F IPFlag=           0 FMFlag=      100000 FMFlg1=           0
         NFxFlg=           0 DoJE=T BraDBF=F KetDBF=T FulRan=T
         wScrn=  0.000000 ICntrl=       500 IOpCl=  0 I1Cent=   200000004 NGrid=           0
         NMat0=    1 NMatS0=      1 NMatT0=    0 NMatD0=    1 NMtDS0=    0 NMtDT0=    0
 Petite list used in FoFCou.
 Requested convergence on RMS density matrix=1.00D-08 within 128 cycles.
 Requested convergence on MAX density matrix=1.00D-06.
 Requested convergence on             energy=1.00D-06.
 No special actions if energy rises.
 Integral accuracy reduced to 1.0D-05 until final iterations.
 Initial convergence to 1.0D-05 achieved.  Increase integral accuracy.
 SCF Done:  E(RB3LYP) =  -420.783921517     A.U. after   17 cycles
            NFock= 17  Conv=0.18D-08     -V/T= 2.0038
 Calling FoFJK, ICntrl=      2127 FMM=F ISym2X=0 I1Cent= 0 IOpClX= 0 NMat=1 NMatS=1 NMatT=0.
 ***** Axes restored to original set *****
 -------------------------------------------------------------------
 Center     Atomic                   Forces (Hartrees/Bohr)
 Number     Number              X              Y              Z
 -------------------------------------------------------------------
      1        6           0.010482353    0.008573388    0.002910831
      2        6          -0.010933605    0.003108098    0.009704072
      3        6           0.024065960    0.009314340   -0.005325529
      4        6           0.002561730   -0.004683379   -0.013021910
      5        6           0.001814800   -0.001557789    0.005980690
      6        6          -0.004880278   -0.001804862   -0.001023414
      7        1          -0.000565062    0.000330597   -0.000627935
      8        1           0.000265598    0.000276100   -0.003215601
      9        1           0.000535280   -0.000282852    0.000632319
     10        8           0.006237652   -0.002616626    0.000424751
     11        1           0.000892510    0.003034287   -0.000636855
     12        8          -0.003528795   -0.001583971   -0.001244709
     13        6          -0.029135638   -0.036611274    0.003957953
     14        1           0.002240559    0.023868794   -0.002587160
     15        1          -0.000053065    0.000635149    0.004072496
 -------------------------------------------------------------------
 Cartesian Forces:  Max     0.036611274 RMS     0.009735943

 GradGradGradGradGradGradGradGradGradGradGradGradGradGradGradGradGradGrad
 Berny optimization.
 Using GEDIIS/GDIIS optimizer.
 FormGI is forming the generalized inverse of G from B-inverse, IUseBI=4.
 Internal  Forces:  Max     0.025475825 RMS     0.005687485
 Search for a local minimum.
 Step number   2 out of a maximum of   77
 All quantities printed in internal units (Hartrees-Bohrs-Radians)
 Mixed Optimization -- RFO/linear search
 Update second derivatives using D2CorX and points    1    2
 DE= -2.67D-02 DEPred=-2.39D-02 R= 1.12D+00
 TightC=F SS=  1.41D+00  RLast= 7.05D-01 DXNew= 5.0454D-01 2.1143D+00
 Trust test= 1.12D+00 RLast= 7.05D-01 DXMaxT set to 5.05D-01
 ITU=  1  0
 Use linear search instead of GDIIS.
     Eigenvalues ---    0.00264   0.01389   0.01551   0.01717   0.01889
     Eigenvalues ---    0.01962   0.02025   0.02167   0.02235   0.02245
     Eigenvalues ---    0.02610   0.03505   0.15463   0.15976   0.15990
     Eigenvalues ---    0.15994   0.16000   0.16467   0.22344   0.23557
     Eigenvalues ---    0.24677   0.24931   0.25000   0.26333   0.33439
     Eigenvalues ---    0.33492   0.34259   0.35198   0.35499   0.35627
     Eigenvalues ---    0.35864   0.38608   0.43433   0.45298   0.48455
     Eigenvalues ---    0.50760   0.51242   0.59083   0.83391
 RFO step:  Lambda=-2.71362483D-02 EMin= 2.64349601D-03
 Quartic linear search produced a step of  2.00000.
 Iteration  1 RMS(Cart)=  0.11949321 RMS(Int)=  0.16049468
 Iteration  2 RMS(Cart)=  0.06156627 RMS(Int)=  0.11193524
 Iteration  3 RMS(Cart)=  0.05232887 RMS(Int)=  0.07003174
 Iteration  4 RMS(Cart)=  0.04060999 RMS(Int)=  0.03788248
 Iteration  5 RMS(Cart)=  0.02297803 RMS(Int)=  0.03019370
 Iteration  6 RMS(Cart)=  0.00202504 RMS(Int)=  0.03012669
 Iteration  7 RMS(Cart)=  0.00016887 RMS(Int)=  0.03012619
 Iteration  8 RMS(Cart)=  0.00001862 RMS(Int)=  0.03012619
 Iteration  9 RMS(Cart)=  0.00000202 RMS(Int)=  0.03012619
 Iteration 10 RMS(Cart)=  0.00000022 RMS(Int)=  0.03012619
 Variable       Old X    -DE/DX   Delta X   Delta X   Delta X     New X
                                 (Linear)    (Quad)   (Total)
    R1        2.71987  -0.00798   0.00139  -0.03813  -0.03584   2.68403
    R2        2.78981   0.00340   0.03225   0.00336   0.03578   2.82559
    R3        2.35698   0.00062  -0.01897   0.00910  -0.00987   2.34711
    R4        2.59730   0.00702   0.01832   0.01867   0.03768   2.63498
    R5        2.04430  -0.00002   0.00228  -0.00106   0.00121   2.04552
    R6        2.71496  -0.00050   0.03589  -0.01688   0.01884   2.73380
    R7        2.82078  -0.02548  -0.06290  -0.12160  -0.18450   2.63628
    R8        2.62551  -0.00301   0.00862  -0.01531  -0.00761   2.61790
    R9        2.04854   0.00006  -0.00588   0.00280  -0.00308   2.04546
   R10        2.62052   0.00228  -0.01151   0.01358   0.00137   2.62190
   R11        2.04685  -0.00003   0.00029  -0.00027   0.00002   2.04687
   R12        2.50393  -0.00708  -0.02139  -0.01394  -0.03533   2.46860
   R13        1.85936   0.00285   0.00654   0.00787   0.01440   1.87376
   R14        2.07149  -0.00597  -0.01843  -0.02489  -0.04332   2.02818
   R15        2.07240  -0.00328  -0.01669  -0.01090  -0.02759   2.04481
    A1        2.04455  -0.00298  -0.00709  -0.01848  -0.02603   2.01852
    A2        2.20331   0.00594   0.02342   0.03254   0.05619   2.25950
    A3        2.03532  -0.00297  -0.01634  -0.01406  -0.03017   2.00515
    A4        2.10762  -0.00132   0.01112  -0.01478  -0.00413   2.10349
    A5        2.05862  -0.00004  -0.01470   0.00419  -0.01123   2.04739
    A6        2.11657   0.00135   0.00281   0.01087   0.01306   2.12962
    A7        2.08738   0.00450  -0.02037   0.04312   0.01600   2.10338
    A8        2.13401   0.00422   0.01790   0.02186   0.03344   2.16745
    A9        2.05817  -0.00889  -0.00477  -0.06276  -0.07192   1.98626
   A10        2.13593  -0.00356   0.00791  -0.03065  -0.02704   2.10889
   A11        2.07083   0.00134  -0.00783   0.01245   0.00352   2.07435
   A12        2.07513   0.00216  -0.00268   0.01888   0.01514   2.09027
   A13        2.06535  -0.00133  -0.00568  -0.00747  -0.01779   2.04756
   A14        2.12262   0.00008   0.00079  -0.00145  -0.00033   2.12229
   A15        2.09448   0.00121   0.00341   0.00924   0.01306   2.10754
   A16        2.12236   0.00450   0.00772   0.02865   0.03422   2.15657
   A17        2.01131  -0.00477  -0.01574  -0.02722  -0.04189   1.96942
   A18        2.14951   0.00027   0.00800  -0.00141   0.00764   2.15715
   A19        1.81406  -0.00261  -0.00099  -0.02729  -0.02828   1.78578
   A20        2.07619   0.00857   0.36089  -0.03274   0.18670   2.26289
   A21        1.98484   0.00469   0.17823   0.01047   0.04698   2.03182
   A22        1.93910   0.00171   0.13812   0.04790   0.04352   1.98262
    D1        0.01706   0.00051   0.03372  -0.00241   0.03221   0.04926
    D2       -3.09529   0.00120   0.09224  -0.01325   0.08000  -3.01529
    D3       -3.12243   0.00047   0.03807  -0.00439   0.03364  -3.08878
    D4        0.04841   0.00116   0.09659  -0.01522   0.08144   0.12985
    D5       -0.01344  -0.00056  -0.02640  -0.00661  -0.03381  -0.04725
    D6        3.13292  -0.00056  -0.01709  -0.01046  -0.02866   3.10427
    D7        3.12625  -0.00052  -0.03033  -0.00477  -0.03493   3.09133
    D8       -0.01057  -0.00051  -0.02102  -0.00862  -0.02977  -0.04034
    D9        0.02902   0.00110   0.05796   0.00595   0.06326   0.09228
   D10       -3.01934   0.00378   0.24428  -0.01941   0.22882  -2.79052
   D11        3.14038   0.00036  -0.00252   0.01702   0.01274  -3.13006
   D12        0.09203   0.00304   0.18380  -0.00834   0.17830   0.27033
   D13       -0.08410  -0.00277  -0.16769   0.00073  -0.16812  -0.25222
   D14        3.11288  -0.00140  -0.05700  -0.01445  -0.07412   3.03876
   D15        2.96828  -0.00467  -0.34597   0.02921  -0.31241   2.65587
   D16       -0.11793  -0.00330  -0.23528   0.01403  -0.21840  -0.33633
   D17        1.67466  -0.02138  -0.89894  -0.28125  -1.18613   0.48853
   D18       -2.27263  -0.00328  -0.28381  -0.22880  -0.50521  -2.77783
   D19       -1.37519  -0.01941  -0.71559  -0.31152  -1.03451  -2.40970
   D20        0.96072  -0.00131  -0.10046  -0.25907  -0.35359   0.60713
   D21        0.08676   0.00246   0.17310  -0.01150   0.16116   0.24793
   D22       -3.09612   0.00132   0.09060  -0.00221   0.08771  -3.00840
   D23       -3.11035   0.00106   0.06215   0.00352   0.06594  -3.04441
   D24       -0.01004  -0.00008  -0.02035   0.01280  -0.00751  -0.01755
   D25       -0.03734  -0.00108  -0.07476   0.01193  -0.06405  -0.10140
   D26        3.09910  -0.00110  -0.08482   0.01603  -0.06988   3.02922
   D27       -3.13833   0.00007   0.00637   0.00306   0.00906  -3.12927
   D28       -0.00189   0.00005  -0.00369   0.00715   0.00324   0.00134
   D29        0.01629   0.00051   0.03247  -0.00320   0.02946   0.04575
   D30       -3.12045   0.00051   0.04194  -0.00721   0.03454  -3.08592
         Item               Value     Threshold  Converged?
 Maximum Force            0.025476     0.000450     NO 
 RMS     Force            0.005687     0.000300     NO 
 Maximum Displacement     1.138538     0.001800     NO 
 RMS     Displacement     0.232156     0.001200     NO 
 Predicted change in Energy=-5.318153D-02
 GradGradGradGradGradGradGradGradGradGradGradGradGradGradGradGradGradGrad

                          Input orientation:                          
 ---------------------------------------------------------------------
 Center     Atomic      Atomic             Coordinates (Angstroms)
 Number     Number       Type             X           Y           Z
 ---------------------------------------------------------------------
      1          6           0       -0.956931    0.896632    0.012151
      2          6           0        0.459110    0.821992   -0.069027
      3          6           0        1.098377   -0.412886   -0.172403
      4          6           0        0.328088   -1.629294   -0.313261
      5          6           0       -1.032714   -1.641961   -0.054035
      6          6           0       -1.673485   -0.415319    0.044822
      7          1           0        1.011484    1.747960    0.026614
      8          1           0        0.850496   -2.561055   -0.487967
      9          1           0       -1.598537   -2.565413   -0.036498
     10          8           0       -2.967620   -0.283405    0.164408
     11          1           0       -3.081709    0.701508    0.154028
     12          8           0       -1.693456    1.895723    0.056950
     13          6           0        2.440510   -0.629398    0.140629
     14          1           0        3.073293   -0.113110    0.836998
     15          1           0        2.901356   -1.505645   -0.296039
 ---------------------------------------------------------------------
                    Distance matrix (angstroms):
                    1          2          3          4          5
     1  C    0.000000
     2  C    1.420329   0.000000
     3  C    2.444011   1.394372   0.000000
     4  C    2.852625   2.466905   1.446663   0.000000
     5  C    2.540586   2.880422   2.462963   1.385330   0.000000
     6  C    1.495236   2.468170   2.780362   2.368175   1.387447
     7  H    2.144675   1.082442   2.171731   3.462426   3.959396
     8  H    3.933512   3.431283   2.185327   1.082410   2.139980
     9  H    3.521332   3.963519   3.453287   2.159815   1.083156
    10  O    2.336352   3.608168   4.081978   3.591834   2.374290
    11  H    2.138430   3.549883   4.338381   4.156646   3.119858
    12  O    1.242038   2.408798   3.629960   4.080372   3.600570
    13  C    3.726644   2.465042   1.395057   2.380785   3.623046
    14  H    4.235878   2.920488   2.238091   3.340369   4.471088
    15  H    4.555469   3.381418   2.111904   2.576295   3.943863
                    6          7          8          9         10
     6  C    0.000000
     7  H    3.448068   0.000000
     8  H    3.355373   4.342618   0.000000
     9  H    2.152936   5.041962   2.490303   0.000000
    10  O    1.306326   4.469754   4.493473   2.668766   0.000000
    11  H    1.800645   4.226763   5.149632   3.592891   0.991553
    12  O    2.311160   2.709143   5.160571   4.463124   2.526587
    13  C    4.120675   2.776138   2.579647   4.482570   5.419238
    14  H    4.821906   2.893331   3.562134   5.348158   6.080626
    15  H    4.715312   3.776462   2.314466   4.630282   6.012551
                   11         12         13         14         15
    11  H    0.000000
    12  O    1.833799   0.000000
    13  C    5.680351   4.844884   0.000000
    14  H    6.246127   5.231231   1.073265   0.000000
    15  H    6.393055   5.727669   1.082066   1.803466   0.000000
 Stoichiometry    C7H6O2
 Framework group  C1[X(C7H6O2)]
 Deg. of freedom    39
 Full point group                 C1      NOp   1
 Largest Abelian subgroup         C1      NOp   1
 Largest concise Abelian subgroup C1      NOp   1
                         Standard orientation:                         
 ---------------------------------------------------------------------
 Center     Atomic      Atomic             Coordinates (Angstroms)
 Number     Number       Type             X           Y           Z
 ---------------------------------------------------------------------
      1          6           0        0.766106   -0.859275   -0.043763
      2          6           0       -0.613237   -1.192962   -0.102084
      3          6           0       -1.583459   -0.191858   -0.129155
      4          6           0       -1.200081    1.200547   -0.213210
      5          6           0        0.106321    1.593082    0.028392
      6          6           0        1.075484    0.600508    0.051382
      7          1           0       -0.872862   -2.242522   -0.050113
      8          1           0       -1.973245    1.949058   -0.329660
      9          1           0        0.382762    2.638607    0.089103
     10          8           0        2.355699    0.842351    0.146514
     11          1           0        2.748016   -0.065902    0.080630
     12          8           0        1.759921   -1.603988   -0.063523
     13          6           0       -2.921666   -0.387754    0.212915
     14          1           0       -3.359072   -1.098094    0.888186
     15          1           0       -3.627370    0.338221   -0.168935
 ---------------------------------------------------------------------
 Rotational constants (GHZ):           3.3071606           1.4307273           1.0099282
 Standard basis: 6-311G(d,p) (5D, 7F)
 There are   207 symmetry adapted cartesian basis functions of A   symmetry.
 There are   198 symmetry adapted basis functions of A   symmetry.
   198 basis functions,   336 primitive gaussians,   207 cartesian basis functions
    32 alpha electrons       32 beta electrons
       nuclear repulsion energy       410.1472299980 Hartrees.
 NAtoms=   15 NActive=   15 NUniq=   15 SFac= 1.00D+00 NAtFMM=   60 NAOKFM=F Big=F
 Integral buffers will be    131072 words long.
 Raffenetti 2 integral format.
 Two-electron integral symmetry is turned on.
 One-electron integrals computed using PRISM.
 NBasis=   198 RedAO= T EigKep=  2.96D-04  NBF=   198
 NBsUse=   198 1.00D-06 EigRej= -1.00D+00 NBFU=   198
 Initial guess from the checkpoint file:  "12.chk"
 B after Tr=     0.000000   -0.000000    0.000000
         Rot=    0.999846   -0.008741   -0.000773   -0.015213 Ang=  -2.01 deg.
 ExpMin= 1.03D-01 ExpMax= 8.59D+03 ExpMxC= 1.30D+03 IAcc=2 IRadAn=         4 AccDes= 0.00D+00
 Harris functional with IExCor=  402 and IRadAn=       4 diagonalized for initial guess.
 HarFok:  IExCor=  402 AccDes= 0.00D+00 IRadAn=         4 IDoV= 1 UseB2=F ITyADJ=14
 ICtDFT=  3500011 ScaDFX=  1.000000  1.000000  1.000000  1.000000
 FoFCou: FMM=F IPFlag=           0 FMFlag=      100000 FMFlg1=           0
         NFxFlg=           0 DoJE=T BraDBF=F KetDBF=T FulRan=T
         wScrn=  0.000000 ICntrl=       500 IOpCl=  0 I1Cent=   200000004 NGrid=           0
         NMat0=    1 NMatS0=      1 NMatT0=    0 NMatD0=    1 NMtDS0=    0 NMtDT0=    0
 Petite list used in FoFCou.
 Requested convergence on RMS density matrix=1.00D-08 within 128 cycles.
 Requested convergence on MAX density matrix=1.00D-06.
 Requested convergence on             energy=1.00D-06.
 No special actions if energy rises.
 Integral accuracy reduced to 1.0D-05 until final iterations.
 Initial convergence to 1.0D-05 achieved.  Increase integral accuracy.
 SCF Done:  E(RB3LYP) =  -420.835175514     A.U. after   18 cycles
            NFock= 18  Conv=0.29D-08     -V/T= 2.0035
 Calling FoFJK, ICntrl=      2127 FMM=F ISym2X=0 I1Cent= 0 IOpClX= 0 NMat=1 NMatS=1 NMatT=0.
 ***** Axes restored to original set *****
 -------------------------------------------------------------------
 Center     Atomic                   Forces (Hartrees/Bohr)
 Number     Number              X              Y              Z
 -------------------------------------------------------------------
      1        6           0.020353053   -0.008734746   -0.006722732
      2        6          -0.024133820    0.011789883    0.010095468
      3        6           0.017707134    0.007760739    0.009456067
      4        6          -0.007955329   -0.008529387    0.002422481
      5        6           0.016046984   -0.011053708   -0.008532347
      6        6          -0.002413551    0.014942171    0.001275053
      7        1           0.001981007   -0.001272355   -0.000575172
      8        1           0.000847018   -0.000569245   -0.000294274
      9        1          -0.000360907    0.000133953   -0.000299692
     10        8           0.001731423   -0.009710325   -0.000160072
     11        1           0.000978733    0.009249363    0.000909483
     12        8          -0.012400901    0.009235142    0.002833923
     13        6          -0.012229717   -0.023749752   -0.013184727
     14        1          -0.001028944    0.017377793   -0.002206721
     15        1           0.000877819   -0.006869526    0.004983264
 -------------------------------------------------------------------
 Cartesian Forces:  Max     0.024133820 RMS     0.009837072

 GradGradGradGradGradGradGradGradGradGradGradGradGradGradGradGradGradGrad
 Berny optimization.
 Using GEDIIS/GDIIS optimizer.
 FormGI is forming the generalized inverse of G from B-inverse, IUseBI=4.
 Internal  Forces:  Max     0.015959526 RMS     0.005787948
 Search for a local minimum.
 Step number   3 out of a maximum of   77
 All quantities printed in internal units (Hartrees-Bohrs-Radians)
 Mixed Optimization -- RFO/linear search
 Update second derivatives using D2CorX and points    2    3
 DE= -5.13D-02 DEPred=-5.32D-02 R= 9.64D-01
 TightC=F SS=  1.41D+00  RLast= 1.81D+00 DXNew= 8.4853D-01 5.4429D+00
 Trust test= 9.64D-01 RLast= 1.81D+00 DXMaxT set to 8.49D-01
 ITU=  1  1  0
 Use linear search instead of GDIIS.
     Eigenvalues ---    0.00708   0.01175   0.01415   0.01569   0.01902
     Eigenvalues ---    0.01937   0.02005   0.02083   0.02222   0.02258
     Eigenvalues ---    0.02576   0.02865   0.14892   0.15811   0.15915
     Eigenvalues ---    0.15957   0.16132   0.16408   0.22154   0.22943
     Eigenvalues ---    0.24318   0.24666   0.25005   0.25993   0.28644
     Eigenvalues ---    0.33586   0.33746   0.35098   0.35363   0.35627
     Eigenvalues ---    0.35854   0.38395   0.42448   0.45111   0.48202
     Eigenvalues ---    0.50386   0.51119   0.58802   0.83932
 RFO step:  Lambda=-1.10818768D-02 EMin= 7.07882558D-03
 Quartic linear search produced a step of  0.24133.
 Iteration  1 RMS(Cart)=  0.06449705 RMS(Int)=  0.04955816
 Iteration  2 RMS(Cart)=  0.03617761 RMS(Int)=  0.01535088
 Iteration  3 RMS(Cart)=  0.01430209 RMS(Int)=  0.00551194
 Iteration  4 RMS(Cart)=  0.00056579 RMS(Int)=  0.00548219
 Iteration  5 RMS(Cart)=  0.00000505 RMS(Int)=  0.00548219
 Iteration  6 RMS(Cart)=  0.00000010 RMS(Int)=  0.00548219
 Variable       Old X    -DE/DX   Delta X   Delta X   Delta X     New X
                                 (Linear)    (Quad)   (Total)
    R1        2.68403  -0.01200  -0.00865  -0.02054  -0.02905   2.65498
    R2        2.82559  -0.00295   0.00863  -0.00661   0.00204   2.82763
    R3        2.34711   0.01488  -0.00238   0.01453   0.01215   2.35926
    R4        2.63498   0.01596   0.00909   0.03049   0.03969   2.67467
    R5        2.04552  -0.00013   0.00029   0.00024   0.00053   2.04605
    R6        2.73380   0.00356   0.00455   0.01982   0.02434   2.75814
    R7        2.63628  -0.01219  -0.04453  -0.00856  -0.05309   2.58319
    R8        2.61790  -0.01317  -0.00184  -0.02360  -0.02556   2.59233
    R9        2.04546   0.00095  -0.00074   0.00125   0.00051   2.04597
   R10        2.62190   0.01355   0.00033   0.02526   0.02549   2.64739
   R11        2.04687   0.00007   0.00001   0.00034   0.00034   2.04721
   R12        2.46860  -0.00266  -0.00853  -0.00322  -0.01175   2.45685
   R13        1.87376   0.00907   0.00348   0.01771   0.02118   1.89495
   R14        2.02818   0.00632  -0.01045   0.02637   0.01592   2.04410
   R15        2.04481   0.00393  -0.00666   0.01423   0.00757   2.05238
    A1        2.01852  -0.00276  -0.00628  -0.00607  -0.01261   2.00592
    A2        2.25950   0.00678   0.01356   0.02039   0.03380   2.29331
    A3        2.00515  -0.00402  -0.00728  -0.01422  -0.02161   1.98354
    A4        2.10349  -0.00069  -0.00100   0.00455   0.00346   2.10695
    A5        2.04739   0.00288  -0.00271   0.01532   0.01252   2.05991
    A6        2.12962  -0.00216   0.00315  -0.01845  -0.01541   2.11421
    A7        2.10338   0.00254   0.00386   0.00153   0.00425   2.10763
    A8        2.16745   0.00554   0.00807   0.02242   0.02947   2.19693
    A9        1.98626  -0.00763  -0.01736  -0.00877  -0.02698   1.95928
   A10        2.10889  -0.00308  -0.00652   0.00156  -0.00605   2.10284
   A11        2.07435   0.00114   0.00085   0.00122   0.00155   2.07590
   A12        2.09027   0.00226   0.00365   0.00684   0.01000   2.10027
   A13        2.04756  -0.00077  -0.00429   0.00188  -0.00325   2.04431
   A14        2.12229   0.00076  -0.00008   0.00531   0.00522   2.12751
   A15        2.10754   0.00011   0.00315  -0.00298   0.00016   2.10769
   A16        2.15657   0.00515   0.00826   0.01378   0.02168   2.17826
   A17        1.96942  -0.00419  -0.01011  -0.01074  -0.02067   1.94875
   A18        2.15715  -0.00095   0.00184  -0.00301  -0.00099   2.15615
   A19        1.78578  -0.00362  -0.00682  -0.01363  -0.02045   1.76533
   A20        2.26289  -0.01537   0.04506  -0.06585  -0.04652   2.21637
   A21        2.03182   0.00921   0.01134   0.06027   0.04585   2.07767
   A22        1.98262   0.00632   0.01050   0.01481  -0.00063   1.98198
    D1        0.04926  -0.00010   0.00777  -0.01524  -0.00732   0.04194
    D2       -3.01529  -0.00045   0.01931  -0.03476  -0.01529  -3.03057
    D3       -3.08878  -0.00136   0.00812  -0.05228  -0.04463  -3.13341
    D4        0.12985  -0.00171   0.01965  -0.07181  -0.05259   0.07726
    D5       -0.04725  -0.00053  -0.00816   0.00100  -0.00707  -0.05432
    D6        3.10427  -0.00080  -0.00692  -0.00261  -0.00937   3.09489
    D7        3.09133   0.00057  -0.00843   0.03260   0.02359   3.11492
    D8       -0.04034   0.00030  -0.00719   0.02899   0.02129  -0.01906
    D9        0.09228  -0.00072   0.01527  -0.02041  -0.00526   0.08702
   D10       -2.79052  -0.00185   0.05522  -0.09303  -0.03726  -2.82778
   D11       -3.13006  -0.00013   0.00307   0.00163   0.00424  -3.12582
   D12        0.27033  -0.00126   0.04303  -0.07099  -0.02776   0.24257
   D13       -0.25222   0.00174  -0.04057   0.07239   0.03184  -0.22038
   D14        3.03876  -0.00088  -0.01789  -0.00190  -0.01983   3.01893
   D15        2.65587   0.00444  -0.07539   0.14218   0.06717   2.72304
   D16       -0.33633   0.00183  -0.05271   0.06789   0.01550  -0.32083
   D17        0.48853  -0.00827  -0.28625  -0.17001  -0.45474   0.03379
   D18       -2.77783  -0.00597  -0.12192  -0.06976  -0.19287  -2.97070
   D19       -2.40970  -0.01053  -0.24966  -0.23930  -0.48777  -2.89747
   D20        0.60713  -0.00824  -0.08533  -0.13906  -0.22590   0.38122
   D21        0.24793  -0.00260   0.03889  -0.08389  -0.04496   0.20297
   D22       -3.00840  -0.00153   0.02117  -0.04265  -0.02152  -3.02993
   D23       -3.04441  -0.00007   0.01591  -0.00941   0.00670  -3.03771
   D24       -0.01755   0.00100  -0.00181   0.03183   0.03013   0.01258
   D25       -0.10140   0.00103  -0.01546   0.04685   0.03119  -0.07021
   D26        3.02922   0.00131  -0.01686   0.05083   0.03367   3.06289
   D27       -3.12927  -0.00008   0.00219   0.00541   0.00768  -3.12160
   D28        0.00134   0.00021   0.00078   0.00938   0.01016   0.01151
   D29        0.04575  -0.00094   0.00711  -0.02878  -0.02171   0.02404
   D30       -3.08592  -0.00125   0.00833  -0.03251  -0.02414  -3.11005
         Item               Value     Threshold  Converged?
 Maximum Force            0.015960     0.000450     NO 
 RMS     Force            0.005788     0.000300     NO 
 Maximum Displacement     0.567174     0.001800     NO 
 RMS     Displacement     0.104772     0.001200     NO 
 Predicted change in Energy=-1.338748D-02
 GradGradGradGradGradGradGradGradGradGradGradGradGradGradGradGradGradGrad

                          Input orientation:                          
 ---------------------------------------------------------------------
 Center     Atomic      Atomic             Coordinates (Angstroms)
 Number     Number       Type             X           Y           Z
 ---------------------------------------------------------------------
      1          6           0       -0.959675    0.907051    0.029584
      2          6           0        0.442470    0.832390   -0.018537
      3          6           0        1.096786   -0.418396   -0.121934
      4          6           0        0.331227   -1.649680   -0.289629
      5          6           0       -1.026496   -1.657112   -0.093722
      6          6           0       -1.662326   -0.413996    0.020317
      7          1           0        1.004893    1.751018    0.091450
      8          1           0        0.861241   -2.574239   -0.480607
      9          1           0       -1.602442   -2.574489   -0.111711
     10          8           0       -2.950684   -0.272868    0.122773
     11          1           0       -3.034573    0.725957    0.151822
     12          8           0       -1.732069    1.884541    0.110737
     13          6           0        2.411264   -0.660894    0.164309
     14          1           0        3.137820    0.048594    0.536862
     15          1           0        2.840824   -1.621551   -0.104345
 ---------------------------------------------------------------------
                    Distance matrix (angstroms):
                    1          2          3          4          5
     1  C    0.000000
     2  C    1.404956   0.000000
     3  C    2.451285   1.415375   0.000000
     4  C    2.881874   2.499308   1.459542   0.000000
     5  C    2.567995   2.891563   2.458361   1.371804   0.000000
     6  C    1.496318   2.446458   2.762780   2.365848   1.400936
     7  H    2.139073   1.082725   2.181819   3.487664   3.971924
     8  H    3.961742   3.463235   2.198132   1.082680   2.134092
     9  H    3.543195   3.974566   3.454660   2.150815   1.083337
    10  O    2.316249   3.571423   4.057472   3.582825   2.380232
    11  H    2.086370   3.482840   4.295651   4.143325   3.125970
    12  O    1.248466   2.419164   3.655144   4.111959   3.617036
    13  C    3.720192   2.477797   1.366964   2.347405   3.588484
    14  H    4.217078   2.861419   2.194974   3.382926   4.544073
    15  H    4.566788   3.432389   2.118858   2.516585   3.867498
                    6          7          8          9         10
     6  C    0.000000
     7  H    3.436045   0.000000
     8  H    3.359458   4.365287   0.000000
     9  H    2.165351   5.054650   2.491148   0.000000
    10  O    1.300109   4.443387   4.493456   2.677723   0.000000
    11  H    1.788812   4.167934   5.144767   3.607408   1.002763
    12  O    2.301372   2.740285   5.191884   4.466457   2.477818
    13  C    4.083604   2.792939   2.545461   4.455095   5.376130
    14  H    4.849970   2.765144   3.619020   5.456308   6.111031
    15  H    4.663913   3.844893   2.228887   4.544311   5.950807
                   11         12         13         14         15
    11  H    0.000000
    12  O    1.743709   0.000000
    13  C    5.619666   4.863056   0.000000
    14  H    6.221375   5.221887   1.081690   0.000000
    15  H    6.332196   5.766307   1.086075   1.813488   0.000000
 Stoichiometry    C7H6O2
 Framework group  C1[X(C7H6O2)]
 Deg. of freedom    39
 Full point group                 C1      NOp   1
 Largest Abelian subgroup         C1      NOp   1
 Largest concise Abelian subgroup C1      NOp   1
                         Standard orientation:                         
 ---------------------------------------------------------------------
 Center     Atomic      Atomic             Coordinates (Angstroms)
 Number     Number       Type             X           Y           Z
 ---------------------------------------------------------------------
      1          6           0        0.783076   -0.860391   -0.050533
      2          6           0       -0.576226   -1.213186   -0.092157
      3          6           0       -1.581732   -0.217124   -0.102405
      4          6           0       -1.230395    1.197425   -0.179074
      5          6           0        0.065075    1.604288    0.016028
      6          6           0        1.050889    0.609133    0.037467
      7          1           0       -0.830373   -2.264819   -0.050046
      8          1           0       -2.020444    1.927622   -0.300855
      9          1           0        0.334608    2.652390    0.065563
     10          8           0        2.323255    0.860316    0.128432
     11          1           0        2.707195   -0.064943    0.083508
     12          8           0        1.817528   -1.559325   -0.042334
     13          6           0       -2.900788   -0.407272    0.201775
     14          1           0       -3.368726   -1.328681    0.521295
     15          1           0       -3.607914    0.393268    0.005138
 ---------------------------------------------------------------------
 Rotational constants (GHZ):           3.3224370           1.4385751           1.0111848
 Standard basis: 6-311G(d,p) (5D, 7F)
 There are   207 symmetry adapted cartesian basis functions of A   symmetry.
 There are   198 symmetry adapted basis functions of A   symmetry.
   198 basis functions,   336 primitive gaussians,   207 cartesian basis functions
    32 alpha electrons       32 beta electrons
       nuclear repulsion energy       410.7401102341 Hartrees.
 NAtoms=   15 NActive=   15 NUniq=   15 SFac= 1.00D+00 NAtFMM=   60 NAOKFM=F Big=F
 Integral buffers will be    131072 words long.
 Raffenetti 2 integral format.
 Two-electron integral symmetry is turned on.
 One-electron integrals computed using PRISM.
 NBasis=   198 RedAO= T EigKep=  2.88D-04  NBF=   198
 NBsUse=   198 1.00D-06 EigRej= -1.00D+00 NBFU=   198
 Initial guess from the checkpoint file:  "12.chk"
 B after Tr=     0.000000   -0.000000   -0.000000
         Rot=    0.999962   -0.001694    0.000211   -0.008491 Ang=  -0.99 deg.
 ExpMin= 1.03D-01 ExpMax= 8.59D+03 ExpMxC= 1.30D+03 IAcc=2 IRadAn=         4 AccDes= 0.00D+00
 Harris functional with IExCor=  402 and IRadAn=       4 diagonalized for initial guess.
 HarFok:  IExCor=  402 AccDes= 0.00D+00 IRadAn=         4 IDoV= 1 UseB2=F ITyADJ=14
 ICtDFT=  3500011 ScaDFX=  1.000000  1.000000  1.000000  1.000000
 FoFCou: FMM=F IPFlag=           0 FMFlag=      100000 FMFlg1=           0
         NFxFlg=           0 DoJE=T BraDBF=F KetDBF=T FulRan=T
         wScrn=  0.000000 ICntrl=       500 IOpCl=  0 I1Cent=   200000004 NGrid=           0
         NMat0=    1 NMatS0=      1 NMatT0=    0 NMatD0=    1 NMtDS0=    0 NMtDT0=    0
 Petite list used in FoFCou.
 Requested convergence on RMS density matrix=1.00D-08 within 128 cycles.
 Requested convergence on MAX density matrix=1.00D-06.
 Requested convergence on             energy=1.00D-06.
 No special actions if energy rises.
 Integral accuracy reduced to 1.0D-05 until final iterations.
 Initial convergence to 1.0D-05 achieved.  Increase integral accuracy.
 SCF Done:  E(RB3LYP) =  -420.847096987     A.U. after   15 cycles
            NFock= 15  Conv=0.51D-08     -V/T= 2.0035
 Calling FoFJK, ICntrl=      2127 FMM=F ISym2X=0 I1Cent= 0 IOpClX= 0 NMat=1 NMatS=1 NMatT=0.
 ***** Axes restored to original set *****
 -------------------------------------------------------------------
 Center     Atomic                   Forces (Hartrees/Bohr)
 Number     Number              X              Y              Z
 -------------------------------------------------------------------
      1        6           0.013979054   -0.012246351   -0.002566699
      2        6          -0.012145347    0.007866551    0.004453992
      3        6           0.003492369   -0.004659340    0.005999463
      4        6          -0.009905247   -0.000567952    0.004270508
      5        6           0.009396367   -0.007072499   -0.007857464
      6        6          -0.002859374    0.011090023    0.001042893
      7        1           0.002045663   -0.001058916   -0.000239624
      8        1           0.000875732    0.000012692    0.001583622
      9        1          -0.001142422    0.000679248   -0.000455111
     10        8           0.000751224   -0.010632975   -0.000226087
     11        1           0.001031877    0.008795034    0.000781936
     12        8          -0.008204827    0.008454710    0.001150577
     13        6           0.009695900   -0.005825898   -0.013998822
     14        1          -0.004820167    0.006853980    0.000896820
     15        1          -0.002190801   -0.001688307    0.005163995
 -------------------------------------------------------------------
 Cartesian Forces:  Max     0.013998822 RMS     0.006451141

 GradGradGradGradGradGradGradGradGradGradGradGradGradGradGradGradGradGrad
 Berny optimization.
 Using GEDIIS/GDIIS optimizer.
 FormGI is forming the generalized inverse of G from B-inverse, IUseBI=4.
 Internal  Forces:  Max     0.011770556 RMS     0.003495127
 Search for a local minimum.
 Step number   4 out of a maximum of   77
 All quantities printed in internal units (Hartrees-Bohrs-Radians)
 Mixed Optimization -- RFO/linear search
 Update second derivatives using D2CorX and points    3    4
 DE= -1.19D-02 DEPred=-1.34D-02 R= 8.90D-01
 TightC=F SS=  1.41D+00  RLast= 7.56D-01 DXNew= 1.4270D+00 2.2689D+00
 Trust test= 8.90D-01 RLast= 7.56D-01 DXMaxT set to 1.43D+00
 ITU=  1  1  1  0
 Use linear search instead of GDIIS.
     Eigenvalues ---    0.00828   0.01354   0.01429   0.01657   0.01886
     Eigenvalues ---    0.01913   0.02007   0.02081   0.02218   0.02252
     Eigenvalues ---    0.02605   0.03150   0.14093   0.15364   0.15917
     Eigenvalues ---    0.15956   0.15983   0.16745   0.20827   0.22335
     Eigenvalues ---    0.23855   0.24599   0.24988   0.26156   0.27693
     Eigenvalues ---    0.33335   0.33631   0.34880   0.35339   0.35627
     Eigenvalues ---    0.35854   0.37598   0.42368   0.44103   0.45305
     Eigenvalues ---    0.48903   0.51005   0.58819   0.81455
 RFO step:  Lambda=-6.09067637D-03 EMin= 8.28136496D-03
 Quartic linear search produced a step of  0.28200.
 Iteration  1 RMS(Cart)=  0.07543844 RMS(Int)=  0.00837851
 Iteration  2 RMS(Cart)=  0.00936261 RMS(Int)=  0.00096757
 Iteration  3 RMS(Cart)=  0.00020021 RMS(Int)=  0.00094790
 Iteration  4 RMS(Cart)=  0.00000028 RMS(Int)=  0.00094790
 Variable       Old X    -DE/DX   Delta X   Delta X   Delta X     New X
                                 (Linear)    (Quad)   (Total)
    R1        2.65498  -0.00702  -0.00819  -0.01183  -0.01987   2.63511
    R2        2.82763  -0.00322   0.00058  -0.01084  -0.01022   2.81741
[...]
 ! D23   D(8,4,5,6)            179.9911         -DE/DX =    0.0                 !
 ! D24   D(8,4,5,9)             -0.0054         -DE/DX =    0.0                 !
 ! D25   D(4,5,6,1)              0.0079         -DE/DX =    0.0                 !
 ! D26   D(4,5,6,10)          -180.0157         -DE/DX =    0.0                 !
 ! D27   D(9,5,6,1)           -179.9954         -DE/DX =    0.0                 !
 ! D28   D(9,5,6,10)            -0.019          -DE/DX =    0.0                 !
 ! D29   D(1,6,10,11)           -0.0213         -DE/DX =    0.0                 !
 ! D30   D(5,6,10,11)         -179.9974         -DE/DX =    0.0                 !
 --------------------------------------------------------------------------------
 GradGradGradGradGradGradGradGradGradGradGradGradGradGradGradGradGradGrad


 ----------------------------------------------------------------------

 Electric dipole moment (input orientation):
 (Debye = 10**-18 statcoulomb cm , SI units = C m)
                  (au)            (Debye)         (10**-30 SI)
   Tot        0.135120D+01      0.343441D+01      0.114560D+02
   x          0.124261D+01      0.315841D+01      0.105353D+02
   y         -0.529831D+00     -0.134670D+01     -0.449210D+01
   z         -0.305223D-01     -0.775799D-01     -0.258779D+00

 Dipole polarizability, Alpha (input orientation).
 (esu units = cm**3 , SI units = C**2 m**2 J**-1)
 Alpha(0;0):
               (au)            (10**-24 esu)      (10**-40 SI)
   iso        0.887174D+02      0.131466D+02      0.146275D+02
   aniso      0.102752D+03      0.152263D+02      0.169416D+02
   xx         0.151890D+03      0.225077D+02      0.250432D+02
   yx        -0.661542D+01     -0.980304D+00     -0.109073D+01
   yy         0.785846D+02      0.116450D+02      0.129569D+02
   zx         0.164469D+01      0.243717D+00      0.271172D+00
   zy         0.442459D+01      0.655656D+00      0.729516D+00
   zz         0.356778D+02      0.528691D+01      0.588248D+01

 ----------------------------------------------------------------------

 Dipole orientation:
     6          0.08777017          0.55038078         -2.27169257
     6          0.37954205          1.49331609          0.08178145
     6         -0.10581028         -0.08072401          2.27560884
     6         -0.91050220         -2.69017981          1.86134203
     6         -1.20817079         -3.65521688         -0.47561892
     6         -0.72988501         -2.10194804         -2.70511056
     1          0.97794585          3.43354750          0.34947858
     1         -1.26599662         -3.84374028          3.51875160
     1         -1.80337008         -5.58642778         -0.80366368
     8         -0.95643027         -2.83800023         -4.89897455
     1          0.13252904          0.69833159         -5.76508442
     8          0.49608028          1.87940838         -4.39419647
     6          0.16271253          0.79003991          4.66286950
     1          0.75513397          2.71332884          5.04116101
     1         -0.20826791         -0.41041548          6.27920506

 Electric dipole moment (dipole orientation):
 (Debye = 10**-18 statcoulomb cm , SI units = C m)
                  (au)            (Debye)         (10**-30 SI)
   Tot        0.135120D+01      0.343441D+01      0.114560D+02
   x          0.000000D+00      0.000000D+00      0.000000D+00
   y          0.000000D+00      0.000000D+00      0.000000D+00
   z          0.135120D+01      0.343441D+01      0.114560D+02

 Dipole polarizability, Alpha (dipole orientation).
 (esu units = cm**3 , SI units = C**2 m**2 J**-1)
 Alpha(0;0):
               (au)            (10**-24 esu)      (10**-40 SI)
   iso        0.887174D+02      0.131466D+02      0.146275D+02
   aniso      0.102752D+03      0.152263D+02      0.169416D+02
   xx         0.395598D+02      0.586216D+01      0.652253D+01
   yx         0.142046D+02      0.210490D+01      0.234202D+01
   yy         0.812519D+02      0.120403D+02      0.133966D+02
   zx         0.645842D+01      0.957038D+00      0.106485D+01
   zy         0.208970D+02      0.309662D+01      0.344545D+01
   zz         0.145340D+03      0.215372D+02      0.239634D+02

 ----------------------------------------------------------------------
 1\1\GINC-IONIC-10\Freq\RB3LYP\6-311G(d,p)\C7H6O2\JD\08-Sep-2022\0\\#N 
 Geom=AllCheck Guess=TCheck SCRF=Check GenChk RB3LYP/6-311G(d,p) Freq\\
 Title Card Required\\0,1\C,-0.9918105806,0.7339452113,0.0986456397\C,0
 .3584050722,0.7230477128,0.1241814868\C,1.0841238621,-0.528844926,0.00
 75407265\C,0.3156950597,-1.7636284395,-0.1373661074\C,-1.0312199163,-1
 .7671645357,-0.1648158261\C,-1.7788538247,-0.5185137612,-0.0486198566\
 H,0.9101428124,1.6495412142,0.2323663923\H,0.8717157688,-2.691356039,-
 0.2235405625\H,-1.6103363231,-2.676487716,-0.2719670801\O,-3.006354105
 ,-0.4357450588,-0.0648778946\H,-2.6597972402,1.5335397267,0.1493221071
 \O,-1.7361472586,1.8467379379,0.2010863188\C,2.4350339588,-0.583475734
 6,0.0290112994\H,3.0368583156,0.3113462357,0.1352699574\H,2.9608063989
 ,-1.5266158278,-0.0588666007\\Version=ES64L-G16RevA.03\State=1-A\HF=-4
 20.884129\RMSD=5.305e-09\RMSF=3.383e-05\ZeroPoint=0.1135608\Thermal=0.
 1598957\Dipole=1.2426147,-0.5298313,-0.0305223\DipoleDeriv=0.3733584,-
 0.6739773,-0.0657477,-1.1991708,0.5906204,0.0272772,-0.1209105,0.03784
 61,0.1071891,-0.0936161,0.3326645,0.037126,0.0682762,-0.0935296,0.0125
 615,0.0095853,0.0177841,-0.1989428,-0.1988752,-0.222866,-0.0278799,-0.
 3556776,0.1987844,0.0110627,-0.0422269,0.0138096,0.026408,0.5796271,-0
 .0219256,0.0108648,0.1644563,0.0428972,0.0158146,0.0304301,0.0120556,-
 0.0744772,-0.4981633,0.1984811,0.0142606,0.5244179,-0.1262072,0.015299
 1,0.0484781,0.0087112,-0.1695393,1.7654537,-0.1237928,0.0170197,-0.049
 1431,0.6305426,0.0367401,0.0250293,0.0353002,0.2742679,0.033786,-0.057
 7965,-0.0084551,-0.0239498,-0.0366732,-0.0204312,-0.0049718,-0.0211622
 ,0.1512964,0.0277203,0.0780335,0.0062134,0.0408507,-0.0415619,-0.01673
 69,0.002351,-0.015984,0.1241362,0.0299258,-0.0615099,-0.0086538,-0.038
 2105,-0.0192599,-0.0173849,-0.0062164,-0.0178541,0.1370038,-1.63493,0.
 0512118,-0.0201251,0.1472094,-0.5580337,-0.0175238,-0.010216,-0.019459
 3,-0.3651848,0.3514937,0.0081444,0.0017261,-0.2022223,0.412768,0.00699
 12,-0.0205449,0.011303,0.3079241,-0.7898169,0.3924418,0.032565,0.87457
 66,-0.9795597,-0.0491538,0.0834084,-0.0588854,-0.3510416,-0.0340399,0.
 1096432,0.0158752,0.0491016,0.0679961,0.0339715,0.0102715,0.035145,-0.
 2432994,0.0426419,-0.0202808,-0.004051,-0.0634811,-0.0396362,-0.019820
 5,-0.0088725,-0.0189611,0.1350315,0.0454345,0.0115287,-0.0007382,0.062
 9666,-0.0491472,-0.0186668,0.0044052,-0.0196487,0.139228\Polar=151.889
 7437,-6.615417,78.5846276,1.6446853,4.4245851,35.6778463\Quadrupole=0.
 5950714,1.4403336,-2.0354051,-1.4106189,-0.0937152,0.3381188\PG=C01 [X
 (C7H6O2)]\NImag=0\\0.86181353,-0.06554757,0.57675754,0.00761484,0.0455
 9070,0.13576188,-0.45544307,-0.00437033,-0.00850526,0.79131031,-0.0292
 7876,-0.11985500,-0.00814077,0.04274717,0.64289727,-0.01113204,-0.0076
 3388,-0.04883751,0.01806024,0.05708534,0.11302492,-0.03994388,0.029396
 58,0.00243306,-0.11749257,0.05805076,0.00477951,0.78160394,0.02848352,
 -0.00076462,0.00126588,0.05052227,-0.22501915,-0.01710077,-0.01603507,
 0.56504150,0.00234274,0.00127434,-0.00723921,0.00398546,-0.01693722,-0
 .05394088,0.01115279,0.04378315,0.14911704,-0.00167239,-0.00417822,-0.
 00054694,0.01240357,0.00479100,0.00073564,-0.11424251,-0.04928615,-0.0
 0617886,0.79513688,-0.00928329,-0.00437048,-0.00102906,-0.00731691,-0.
 03785662,-0.00419033,-0.05522826,-0.21518802,-0.01703112,-0.05933446,0
 .62389593,-0.00107999,-0.00093292,0.00358391,-0.00053519,-0.00394620,0
 .00029122,-0.00681452,-0.01691764,-0.06523642,0.00712024,0.05055736,0.
 13608725,0.02181023,-0.00263332,0.00002036,-0.00371139,0.00701587,0.00
 058590,-0.04000060,-0.01703190,-0.00268004,-0.47930847,0.00873018,-0.0
 0774694,0.80490056,0.01227093,-0.02619800,-0.00321225,-0.00281814,-0.0
 0182722,-0.00064029,-0.02201610,0.00485001,-0.00036355,-0.01672655,-0.
 12344001,-0.00824090,0.07229594,0.61997438,0.00158738,-0.00350297,0.00
 635272,-0.00044256,-0.00044137,0.00366552,-0.00319596,-0.00026928,0.00
 405242,-0.01042281,-0.00773786,-0.04915432,0.02159357,0.05518188,0.114
 64600,-0.08333867,-0.03693094,-0.00406833,-0.03018275,-0.02015223,-0.0
 0267744,0.01318616,0.00126086,0.00057610,-0.03629967,0.02864038,0.0023
 4246,-0.10658299,0.03516665,0.00292127,0.86942563,-0.02166936,-0.17085
 022,-0.01061054,-0.01344359,0.01596670,0.00160634,-0.00963820,0.004946
 50,0.00125527,0.03086624,0.01690572,0.00272955,0.02565905,-0.22335238,
 -0.01584658,-0.06106588,0.55693841,-0.00246371,-0.01093121,-0.07502930
 ,-0.00196817,0.00148783,-0.00184231,-0.00056951,0.00147419,-0.00869791
 ,0.00256938,0.00268262,-0.00284686,0.00193071,-0.01565402,-0.06924205,
 0.00745605,0.03798298,0.18785107,-0.01158921,-0.03124951,-0.00368271,-
 0.13125433,-0.12197209,-0.01475181,0.01074183,0.01371666,0.00165714,-0
 .00207046,0.00300476,0.00021408,-0.00001487,-0.00029128,0.00000744,-0.
 00280501,0.00482519,0.00024031,0.13480153,0.00104906,0.00375440,-0.000
 48968,-0.12303110,-0.25922581,-0.02618408,-0.01453195,-0.01767746,-0.0
 0212316,0.00409067,-0.00207690,-0.00044675,-0.00019415,0.00059771,0.00
 026475,0.00141673,0.00012472,-0.00108777,0.13269022,0.27323127,-0.0002
 9414,-0.00113389,0.00849437,-0.01486477,-0.02616860,-0.03600947,-0.001
 30491,-0.00155671,-0.00039916,0.00032578,-0.00047048,0.00292612,0.0000
 2027,0.00026149,-0.00193303,-0.00011898,-0.00102115,0.01064878,0.01617
 109,0.02902090,0.02513920,-0.00032866,0.00024006,0.00005768,-0.0019339
 7,-0.00261742,-0.00036780,0.00963378,-0.01440452,-0.00134273,-0.128899
 05,0.12079102,0.01084809,-0.01227329,0.02959697,0.00271073,-0.00354647
 ,-0.00401689,-0.00074593,0.00059774,-0.00066409,-0.00008036,0.13633062
 ,-0.00039643,0.00082184,0.00028237,-0.00444592,-0.00202358,-0.00058593
 ,0.01543349,-0.01921098,-0.00183448,0.12103360,-0.26021850,-0.02088164
 ,-0.00221429,0.00448004,-0.00036504,-0.00132306,0.00079420,-0.00126078
 ,0.00073370,-0.00099538,-0.00020893,-0.12977649,0.27366845,-0.00000953
 ,0.00029448,-0.00191430,-0.00055842,-0.00054890,0.00264435,0.00178996,
 -0.00243097,0.00100402,0.01087187,-0.02088634,-0.04002781,-0.00062983,
 0.00027136,0.00755922,-0.00046336,-0.00131637,0.01241346,0.00006640,-0
 .00023696,0.00111507,-0.01137828,0.02350582,0.02704827,-0.00263264,0.0
 0212410,0.00010877,0.00011469,0.00025385,0.00004649,-0.00416680,0.0028
 5195,-0.00001312,-0.01160663,-0.02811798,-0.00325857,-0.13470680,-0.12
 586732,-0.01521978,0.01107139,0.01528459,0.00176683,0.00003799,-0.0001
 2096,-0.00000530,0.00092571,0.00020481,0.00016754,0.13967877,0.0043095
 3,-0.00174788,-0.00042089,0.00030004,0.00009957,0.00010908,0.00159358,
 0.00111770,-0.00104645,0.00271977,0.00556336,0.00025255,-0.12595554,-0
 .25846565,-0.02597955,-0.01892113,-0.01960909,-0.00274911,-0.00014080,
 -0.00001179,0.00002978,-0.00035579,0.00079364,0.00074199,0.13615252,0.
 26962215,0.00033925,-0.00046333,0.00302927,0.00005077,0.00010782,-0.00
 086939,-0.00014445,-0.00101797,0.01126724,-0.00002046,-0.00036636,0.00
 363877,-0.01523186,-0.02597646,-0.03825209,-0.00182312,-0.00206731,0.0
 0270729,-0.00000757,0.00003008,-0.00031984,0.00010865,0.00075212,-0.00
 625572,0.01660941,0.02845781,0.02805730,-0.08159123,-0.02588618,-0.004
 78826,0.01306285,-0.01064381,-0.00091086,-0.01192354,-0.00012252,-0.00
 027972,0.01379296,0.00744102,0.00098552,-0.05867817,0.02959062,0.00156
 422,-0.62398707,0.03054496,-0.00814515,-0.00249165,-0.00002784,-0.0000
 0382,-0.00180092,0.00021236,0.00003204,0.00131854,0.00117452,0.0001960
 6,0.74342271,-0.02932818,-0.00543202,-0.00337177,-0.00431065,-0.005560
 55,-0.00096348,0.00421601,-0.00380884,-0.00043645,-0.00315242,-0.00845
 580,-0.00133204,0.05198359,0.00688477,-0.00006050,0.03429849,-0.104203
 73,-0.00343231,-0.00185966,0.00052934,0.00027063,0.00222479,0.00021008
 ,0.00029615,-0.00258211,0.00388538,0.00059704,-0.03026704,0.10057675,-
 0.00514764,-0.00328757,0.02044424,-0.00024818,-0.00109707,0.00269086,0
 .00017891,-0.00052468,0.00110464,-0.00012331,-0.00111704,0.00350444,0.
 00391870,-0.00051557,0.01750783,-0.00775194,-0.00350999,-0.06544124,-0
 .00019940,0.00030573,-0.00235813,0.00024114,0.00025621,-0.00215976,-0.
 00019818,0.00067232,-0.00222438,0.01127141,0.00666023,0.03225710,-0.04
 634268,0.01229492,0.00042663,0.00420422,0.00030637,0.00007591,-0.00218
 604,0.00188822,0.00010060,0.00101656,0.00033118,0.00005248,-0.00381551
 ,0.00011592,-0.00007082,0.00640247,-0.00320066,-0.00024767,-0.00013486
 ,-0.00024729,-0.00001871,-0.00013874,-0.00009175,-0.00001041,0.0003831
 8,-0.00039247,-0.00003527,-0.00492784,0.00314887,0.00036061,0.44114537
 ,0.03832872,0.01362088,0.00254425,0.00536083,-0.00872896,-0.00100381,-
 0.00079196,0.00218632,-0.00008268,0.00188981,0.00075834,0.00010265,-0.
 00371740,0.00158733,0.00006374,0.01664963,-0.00862943,-0.00077691,-0.0
 0024923,-0.00017289,0.00003036,-0.00028445,-0.00007994,-0.00000460,0.0
 0013045,-0.00000335,-0.00000721,-0.00548558,0.01028237,0.00164039,0.09
 768843,0.08810826,0.00318296,0.00200555,-0.00285855,0.00060937,-0.0011
 0569,0.00172127,-0.00017824,-0.00002742,0.00278107,0.00021520,0.000071
 65,0.00015722,-0.00047332,0.00014108,0.00026217,0.00183899,-0.00117359
 ,0.00186694,-0.00001923,0.00003003,-0.00050061,-0.00003094,-0.00000103
 ,-0.00008885,0.00001978,-0.00001809,0.00008877,-0.00054718,0.00181393,
 -0.00618373,0.01892492,0.00962047,0.01716031,-0.17265636,0.12335238,0.
 01040012,-0.03893288,0.05652542,0.00502233,0.00241715,-0.01245105,-0.0
 0141927,-0.00445922,0.00032730,-0.00004272,0.00316334,-0.00443680,-0.0
 0045771,-0.00837186,0.00227307,-0.00008105,0.00296258,-0.00009930,0.00
 015959,0.00035391,0.00040645,0.00005546,0.00031364,-0.00039364,-0.0000
 3291,0.00894709,-0.02311146,-0.00227345,-0.39628860,-0.15042401,-0.023
 65778,0.60699513,0.07234712,-0.26555210,-0.02202926,0.01976666,-0.0005
 1055,-0.00049931,-0.00553086,0.00773167,-0.00015782,0.00262376,-0.0003
 8269,0.00008448,-0.00864671,-0.00185918,-0.00067386,0.02166917,-0.0589
 6833,-0.00657971,0.00051842,0.00027922,0.00063788,0.00018776,-0.000115
 29,0.00002394,0.00116234,-0.00162697,-0.00013617,0.00319325,0.00204790
 ,0.00016731,-0.11099700,-0.09767679,-0.01124941,0.00211036,0.41973967,
 0.00502042,-0.02099599,-0.04496367,0.00115372,0.00023248,0.00794555,-0
 .00070130,-0.00029064,0.00817124,0.00020247,0.00003580,-0.00066460,-0.
 00090352,-0.00058465,0.00280814,0.00196024,-0.00696153,0.00692443,0.00
 022605,0.00062126,-0.00559472,0.00003294,0.00002799,-0.00030242,0.0001
 3058,-0.00016717,-0.00012141,0.00049301,-0.00035948,0.00105588,-0.0194
 9080,-0.01205493,-0.01400974,0.01178603,0.04065605,0.03925753,0.011600
 37,0.00129547,0.00031652,-0.03895174,0.01911626,0.00110040,-0.46461565
 ,0.00957439,-0.00730662,-0.03995056,-0.01480190,-0.00243593,0.00921238
 ,-0.00448210,-0.00033086,-0.00534858,0.00355080,0.00026336,0.00129327,
 -0.00154627,-0.00010758,0.00121393,0.00159119,0.00022363,-0.00024865,-
 0.00016371,-0.00002353,0.00481917,-0.00123277,-0.00002851,0.00071979,0
 .00077332,0.00009777,-0.00377184,0.00164661,0.00009581,0.78575476,-0.0
 0120708,-0.00057038,-0.00035341,0.03984138,-0.00045692,0.00010844,0.01
 357452,-0.10866870,-0.00563624,-0.03358768,0.00333337,-0.00074811,-0.0
 0537760,-0.00384484,-0.00073960,-0.00059040,-0.00971768,-0.00103388,0.
 00084261,0.00102492,0.00027605,-0.00144236,0.00095665,0.00023850,-0.00
 154274,0.00038524,-0.00000005,0.00021845,0.00287657,0.00032081,-0.0007
 7679,-0.00119897,-0.00012361,0.00577863,-0.00303060,-0.00022104,-0.004
 95108,0.64746329,0.00005199,-0.00029987,0.00255472,0.00327218,-0.00031
 065,0.00615742,-0.00691295,-0.00570964,-0.05299113,-0.00441260,-0.0003
 7676,0.00392796,-0.00042091,-0.00072436,0.00209971,-0.00017363,-0.0009
 4818,-0.00009377,0.00014359,0.00022626,-0.00141204,-0.00009432,0.00030
 055,-0.00156069,-0.00016863,0.00002754,0.00009046,0.00012588,0.0002906
 0,-0.00010406,-0.00006421,-0.00009202,-0.00017693,0.00052887,-0.000303
 84,0.00012784,0.01327522,0.05645317,0.11393908,0.00019646,0.00071905,0
 .00009118,0.00133033,-0.00174684,-0.00003462,-0.01198475,-0.02794046,-
 0.00331174,-0.00487011,0.00263172,-0.00004709,-0.00034828,-0.00170506,
 -0.00016444,0.00017157,-0.00075051,-0.00008481,-0.00014420,0.00103312,
 0.00009776,0.00007356,-0.00021705,-0.00002541,-0.00046848,0.00008275,0
 .00002484,0.00005405,0.00029727,0.00003278,-0.00005423,-0.00005687,-0.
 00001196,0.00011438,-0.00002159,-0.00000616,-0.14132417,-0.12497888,-0
 .01529037,0.14725017,-0.00007715,0.00030078,0.00009092,0.00141035,0.00
 080377,0.00073545,0.00305930,0.00383518,-0.00023629,0.00014009,0.00070
 981,-0.00108427,0.00002947,0.00013193,0.00012432,0.00000865,-0.0001403
 2,-0.00006311,-0.00033158,0.00028239,-0.00001626,0.00026258,0.00044996
 ,0.00003186,-0.00000742,-0.00000583,0.00013134,-0.00002041,0.00003730,
 0.00000581,-0.00000928,0.00000765,-0.00002434,-0.00000346,-0.00004504,
 -0.00003620,-0.13016447,-0.25352396,-0.02557269,0.14014562,0.26157965,
 0.00000833,0.00010486,-0.00056787,0.00029300,0.00067199,-0.00585572,-0
 .00004620,-0.00086195,0.00656859,-0.00030633,-0.00103253,0.01095128,0.
 00001798,0.00008933,-0.00103584,-0.00000364,-0.00007756,0.00045287,-0.
 00004542,0.00001187,0.00037340,0.00002493,0.00002213,0.00019900,0.0000
 1501,0.00013342,-0.00124453,-0.00000159,0.00001238,-0.00002069,-0.0000
 0652,-0.00002572,0.00023557,-0.00000484,-0.00003497,0.00029565,-0.0158
 5130,-0.02548526,-0.03817285,0.01728565,0.02809111,0.02451244,0.000118
 20,0.00137351,0.00012234,-0.00452327,-0.00239553,-0.00053186,-0.011026
 53,0.02897379,0.00271728,0.00102910,0.00218524,0.00039809,0.00035385,-
 0.00069369,-0.00007968,0.00020585,0.00078118,0.00007936,0.00006965,0.0
 0018316,0.00002407,-0.00020815,-0.00115060,-0.00013165,-0.00001392,-0.
 00000964,-0.00000979,-0.00001694,-0.00032473,-0.00003292,0.00001691,0.
 00018830,0.00002965,-0.00078646,-0.00002929,0.00000048,-0.12040248,0.1
 1419903,0.01013989,0.01000368,-0.01444229,-0.00137906,0.12518050,-0.00
 000107,0.00008527,-0.00011650,-0.00021205,0.00129706,-0.00084278,-0.00
 155184,0.00062889,-0.00042732,-0.00188947,0.00082250,0.00080387,0.0000
 5681,0.00048110,-0.00001809,-0.00012693,-0.00020506,-0.00005881,-0.000
 23742,0.00033626,0.00004893,0.00025882,0.00046881,0.00002005,0.0000739
 4,0.00000353,-0.00004134,0.00007821,0.00013048,0.00002311,-0.00005868,
 -0.00006082,0.00004048,0.00014609,-0.00003091,0.00009804,0.11979427,-0
 .27502799,-0.02296010,0.01250776,-0.01442327,-0.00161910,-0.12883845,0
 .28549415,-0.00002086,-0.00008831,0.00118931,-0.00030218,-0.00088899,0
 .00921417,-0.00046621,0.00018443,0.00443843,-0.00002927,0.00089044,-0.
 00713818,-0.00000105,-0.00003310,0.00066360,-0.00001466,-0.00004134,0.
 00032860,-0.00001995,0.00005751,-0.00016995,0.00001621,-0.00000935,0.0
 0032617,-0.00000084,-0.00004323,0.00040825,0.00000843,0.00001509,-0.00
 007300,0.00000326,0.00004603,-0.00045493,0.00001732,0.00009469,-0.0009
 2969,0.01071164,-0.02305577,-0.03438572,0.00144438,-0.00217766,0.00330
 869,-0.01134621,0.02504956,0.02327425\\-0.00012159,-0.00003907,-0.0000
 3762,0.00004074,0.00005243,-0.00001023,0.00002348,-0.00000034,0.000014
 83,0.00004754,0.00001129,0.00000903,-0.00004836,0.00000992,-0.00001545
 ,0.00009920,0.00000452,0.00005895,0.00000344,-0.00000963,-0.00000241,0
 .00000115,-0.00000123,0.00000272,-0.00000159,0.00000065,-0.00000344,-0
 .00005409,0.00001613,-0.00002331,0.00003571,-0.00001127,-0.00000594,0.
 00001403,-0.00001746,0.00002524,-0.00002052,-0.00001453,-0.00004576,-0
 .00000926,-0.00000770,0.00001627,-0.00000989,0.00000628,0.00001712\\\@


 OPTIMIST - A PESSIMIST WHO LACKS EXPERIENCE
 Job cpu time:       0 days  0 hours 25 minutes 49.2 seconds.
 Elapsed time:       0 days  0 hours  1 minutes 17.8 seconds.
 File lengths (MBytes):  RWF=     69 Int=      0 D2E=      0 Chk=      5 Scr=      1
 Normal termination of Gaussian 16 at Thu Sep  8 00:29:41 2022.
