 Entering Link 1 = D:\Gaussian\G16W\l1.exe PID=     59760.
  
 Copyright (c) 1988,1990,1992,1993,1995,1998,2003,2009,2016,
            Gaussian, Inc.  All Rights Reserved.
  
 This is part of the Gaussian(R) 16 program.  It is based on
 the Gaussian(R) 09 system (copyright 2009, Gaussian, Inc.),
 the Gaussian(R) 03 system (copyright 2003, Gaussian, Inc.),
 the Gaussian(R) 98 system (copyright 1998, Gaussian, Inc.),
 the Gaussian(R) 94 system (copyright 1995, Gaussian, Inc.),
 the Gaussian 92(TM) system (copyright 1992, Gaussian, Inc.),
 the Gaussian 90(TM) system (copyright 1990, Gaussian, Inc.),
 the Gaussian 88(TM) system (copyright 1988, Gaussian, Inc.),
 the Gaussian 86(TM) system (copyright 1986, Carnegie Mellon
 University), and the Gaussian 82(TM) system (copyright 1983,
 Carnegie Mellon University). Gaussian is a federally registered
 trademark of Gaussian, Inc.
  
 This software contains proprietary and confidential information,
 including trade secrets, belonging to Gaussian, Inc.
  
 This software is provided under written license and may be
 used, copied, transmitted, or stored only in accord with that
 written license.
  
 The following legend is applicable only to US Government
 contracts under FAR:
  
                    RESTRICTED RIGHTS LEGEND
  
 Use, reproduction and disclosure by the US Government is
 subject to restrictions as set forth in subparagraphs (a)
 and (c) of the Commercial Computer Software - Restricted
 Rights clause in FAR 52.227-19.
  
 Gaussian, Inc.
 340 Quinnipiac St., Bldg. 40, Wallingford CT 06492
  
  
 ---------------------------------------------------------------
 Warning -- This program may not be used in any manner that
 competes with the business of Gaussian, Inc. or will provide
 assistance to any competitor of Gaussian, Inc.  The licensee
 of this program is prohibited from giving any competitor of
 Gaussian, Inc. access to this program.  By using this program,
 the user acknowledges that Gaussian, Inc. is engaged in the
 business of creating and licensing software in the field of
 computational chemistry and represents and warrants to the
 licensee that it is not a competitor of Gaussian, Inc. and that
 it will not use this program in any manner prohibited above.
 ---------------------------------------------------------------
  

 Cite this work as:
 Gaussian 16, Revision A.03,
 M. J. Frisch, G. W. Trucks, H. B. Schlegel, G. E. Scuseria, 
 M. A. Robb, J. R. Cheeseman, G. Scalmani, V. Barone, 
 G. A. Petersson, H. Nakatsuji, X. Li, M. Caricato, A. V. Marenich, 
 J. Bloino, B. G. Janesko, R. Gomperts, B. Mennucci, H. P. Hratchian, 
 J. V. Ortiz, A. F. Izmaylov, J. L. Sonnenberg, D. Williams-Young, 
 F. Ding, F. Lipparini, F. Egidi, J. Goings, B. Peng, A. Petrone, 
 T. Henderson, D. Ranasinghe, V. G. Zakrzewski, J. Gao, N. Rega, 
 G. Zheng, W. Liang, M. Hada, M. Ehara, K. Toyota, R. Fukuda, 
 J. Hasegawa, M. Ishida, T. Nakajima, Y. Honda, O. Kitao, H. Nakai, 
 T. Vreven, K. Throssell, J. A. Montgomery, Jr., J. E. Peralta, 
 F. Ogliaro, M. J. Bearpark, J. J. Heyd, E. N. Brothers, K. N. Kudin, 
 V. N. Staroverov, T. A. Keith, R. Kobayashi, J. Normand, 
 K. Raghavachari, A. P. Rendell, J. C. Burant, S. S. Iyengar, 
 J. Tomasi, M. Cossi, J. M. Millam, M. Klene, C. Adamo, R. Cammi, 
 J. W. Ochterski, R. L. Martin, K. Morokuma, O. Farkas, 
 J. B. Foresman, and D. J. Fox, Gaussian, Inc., Wallingford CT, 2016.
 
 ******************************************
 Gaussian 16:  EM64W-G16RevA.03 17-Dec-2016
                08-Dec-2025 
 ******************************************
 %nprocshared=14
 Will use up to   14 processors via shared memory.
 %nprocs=   4
 Will use up to    4 processors via shared memory.
 --------------------------------------
 #p b3lyp/6-31g(d) out=wfn scf=conver=7
 --------------------------------------
 1/38=1,172=1/1;
 2/12=2,17=6,18=5,40=1/2;
 3/5=1,6=6,7=1,11=2,25=1,30=1,74=-5/1,2,3;
 4//1;
 5/5=2,6=7,38=5/2;
 6/7=2,8=2,9=2,10=2,28=1/1;
 99/5=1,6=100,9=1/99;
 Leave Link    1 at Mon Dec 08 16:34:46 2025, MaxMem=           0 cpu:               0.0 elap:               0.2
 (Enter D:\Gaussian\G16W\l101.exe)
 ----------------------------------------------------
 Generated by Multiwfn (http://sobereva.com/multiwfn)
 ----------------------------------------------------
 Symbolic Z-matrix:
 Charge = -1 Multiplicity = 2
 C                     0.74117  -0.78568  -0.00004 
 C                    -0.55723  -1.1572   -0.00044 
 C                    -1.60703  -0.1545   -0.00011 
 C                    -1.21861   1.25451   0.00013 
 C                     0.07253   1.63907   0.00007 
 C                     1.14245   0.64566   0.00007 
 H                    -0.82484  -2.20739  -0.00066 
 H                    -2.01406   1.99243   0.00028 
 H                     0.37126   2.68046   0.00007 
 O                     2.34341   0.91317  -0.00026 
 H                     2.56718  -1.08533   0.00008 
 O                     1.76955  -1.64897   0.00041 
 C                    -2.91844  -0.48406   0.00001 
 H                    -3.24305  -1.5179    0.00018 
 H                    -3.68922   0.27724   0.00067 
 
 ITRead=  0  0  0  0  0  0  0  0  0  0  0  0  0  0  0
 MicOpt= -1 -1 -1 -1 -1 -1 -1 -1 -1 -1 -1 -1 -1 -1 -1
 NAtoms=     15 NQM=       15 NQMF=       0 NMMI=      0 NMMIF=      0
                NMic=       0 NMicF=      0.
                    Isotopes and Nuclear Properties:
 (Nuclear quadrupole moments (NQMom) in fm**2, nuclear magnetic moments (NMagM)
  in nuclear magnetons)

  Atom         1           2           3           4           5           6           7           8           9          10
 IAtWgt=          12          12          12          12          12          12           1           1           1          16
 AtmWgt=  12.0000000  12.0000000  12.0000000  12.0000000  12.0000000  12.0000000   1.0078250   1.0078250   1.0078250  15.9949146
 NucSpn=           0           0           0           0           0           0           1           1           1           0
 AtZEff=   0.0000000   0.0000000   0.0000000   0.0000000   0.0000000   0.0000000   0.0000000   0.0000000   0.0000000   0.0000000
 NQMom=    0.0000000   0.0000000   0.0000000   0.0000000   0.0000000   0.0000000   0.0000000   0.0000000   0.0000000   0.0000000
 NMagM=    0.0000000   0.0000000   0.0000000   0.0000000   0.0000000   0.0000000   2.7928460   2.7928460   2.7928460   0.0000000
 AtZNuc=   6.0000000   6.0000000   6.0000000   6.0000000   6.0000000   6.0000000   1.0000000   1.0000000   1.0000000   8.0000000

  Atom        11          12          13          14          15
 IAtWgt=           1          16          12           1           1
 AtmWgt=   1.0078250  15.9949146  12.0000000   1.0078250   1.0078250
 NucSpn=           1           0           0           1           1
 AtZEff=   0.0000000   0.0000000   0.0000000   0.0000000   0.0000000
 NQMom=    0.0000000   0.0000000   0.0000000   0.0000000   0.0000000
 NMagM=    2.7928460   0.0000000   0.0000000   2.7928460   2.7928460
 AtZNuc=   1.0000000   8.0000000   6.0000000   1.0000000   1.0000000
 Leave Link  101 at Mon Dec 08 16:34:47 2025, MaxMem=   104857600 cpu:               1.0 elap:               0.1
 (Enter D:\Gaussian\G16W\l202.exe)
                          Input orientation:                          
 ---------------------------------------------------------------------
 Center     Atomic      Atomic             Coordinates (Angstroms)
 Number     Number       Type             X           Y           Z
 ---------------------------------------------------------------------
      1          6           0        0.741168   -0.785684   -0.000039
      2          6           0       -0.557227   -1.157200   -0.000440
      3          6           0       -1.607032   -0.154495   -0.000108
      4          6           0       -1.218614    1.254512    0.000131
      5          6           0        0.072532    1.639072    0.000071
      6          6           0        1.142450    0.645662    0.000072
      7          1           0       -0.824842   -2.207386   -0.000663
      8          1           0       -2.014063    1.992432    0.000276
      9          1           0        0.371261    2.680459    0.000074
     10          8           0        2.343411    0.913173   -0.000258
     11          1           0        2.567178   -1.085325    0.000083
     12          8           0        1.769553   -1.648970    0.000412
     13          6           0       -2.918440   -0.484059    0.000005
     14          1           0       -3.243047   -1.517896    0.000176
     15          1           0       -3.689219    0.277238    0.000669
 ---------------------------------------------------------------------
                    Distance matrix (angstroms):
                    1          2          3          4          5
     1  C    0.000000
     2  C    1.350501   0.000000
     3  C    2.431552   1.451726   0.000000
     4  C    2.828983   2.500757   1.461564   0.000000
     5  C    2.515257   2.866310   2.457197   1.347199   0.000000
     6  C    1.486532   2.477744   2.863547   2.438303   1.459996
     7  H    2.115094   1.083747   2.196858   3.484221   3.949749
     8  H    3.912701   3.470238   2.185170   1.085018   2.116304
     9  H    3.485825   3.948382   3.456965   2.135656   1.083386
    10  O    2.335230   3.563726   4.092177   3.578342   2.384077
    11  H    1.850432   3.125232   4.276736   4.450512   3.693995
    12  O    1.342698   2.378181   3.692531   4.166455   3.700149
    13  C    3.672017   2.455289   1.352185   2.431468   3.667915
    14  H    4.050939   2.709932   2.129650   3.432867   4.578156
    15  H    4.556109   3.444849   2.126475   2.656869   4.000670
                    6          7          8          9         10
     6  C    0.000000
     7  H    3.465562   0.000000
     8  H    3.431816   4.364942   0.000000
     9  H    2.176036   5.032066   2.482570   0.000000
    10  O    1.230394   4.446990   4.489140   2.648146   0.000000
    11  H    2.241911   3.572789   5.519090   4.359264   2.010986
    12  O    2.378780   2.653811   5.251244   4.549635   2.625622
    13  C    4.215103   2.711643   2.636457   4.564680   5.444202
    14  H    4.890150   2.514580   3.719248   5.539802   6.092504
    15  H    4.845695   3.791835   2.397507   4.718365   6.066056
                   11         12         13         14         15
    11  H    0.000000
    12  O    0.976679   0.000000
    13  C    5.518471   4.830559   0.000000
    14  H    5.826305   5.014313   1.083600   0.000000
    15  H    6.403053   5.788650   1.083362   1.849750   0.000000
 Stoichiometry    C7H6O2(1-,2)
 Framework group  C1[X(C7H6O2)]
 Deg. of freedom    39
 Full point group                 C1      NOp   1
 Largest Abelian subgroup         C1      NOp   1
 Largest concise Abelian subgroup C1      NOp   1
                         Standard orientation:                         
 ---------------------------------------------------------------------
 Center     Atomic      Atomic             Coordinates (Angstroms)
 Number     Number       Type             X           Y           Z
 ---------------------------------------------------------------------
      1          6           0        0.741168   -0.785684   -0.000039
      2          6           0       -0.557227   -1.157200   -0.000440
      3          6           0       -1.607032   -0.154495   -0.000108
      4          6           0       -1.218614    1.254512    0.000131
      5          6           0        0.072532    1.639072    0.000071
      6          6           0        1.142450    0.645662    0.000072
      7          1           0       -0.824842   -2.207386   -0.000663
      8          1           0       -2.014063    1.992432    0.000276
      9          1           0        0.371261    2.680459    0.000074
     10          8           0        2.343411    0.913173   -0.000258
     11          1           0        2.567178   -1.085325    0.000083
     12          8           0        1.769553   -1.648970    0.000412
     13          6           0       -2.918440   -0.484059    0.000005
     14          1           0       -3.243047   -1.517896    0.000176
     15          1           0       -3.689219    0.277238    0.000669
 ---------------------------------------------------------------------
 Rotational constants (GHZ):           3.1730811           1.4419573           0.9914213
 Leave Link  202 at Mon Dec 08 16:34:47 2025, MaxMem=   104857600 cpu:               0.0 elap:               0.0
 (Enter D:\Gaussian\G16W\l301.exe)
 Standard basis: 6-31G(d) (6D, 7F)
 Ernie: Thresh=  0.10000D-02 Tol=  0.10000D-05 Strict=F.
 There are   147 symmetry adapted cartesian basis functions of A   symmetry.
 There are   147 symmetry adapted basis functions of A   symmetry.
   147 basis functions,   276 primitive gaussians,   147 cartesian basis functions
    33 alpha electrons       32 beta electrons
       nuclear repulsion energy       408.1194779593 Hartrees.
 IExCor=  402 DFT=T Ex+Corr=B3LYP ExCW=0 ScaHFX=  0.200000
 ScaDFX=  0.800000  0.720000  1.000000  0.810000 ScalE2=  1.000000  1.000000
 IRadAn=      5 IRanWt=     -1 IRanGd=            0 ICorTp=0 IEmpDi=  4
 NAtoms=   15 NActive=   15 NUniq=   15 SFac= 1.00D+00 NAtFMM=   60 NAOKFM=F Big=F
 Integral buffers will be    131072 words long.
 Raffenetti 2 integral format.
 Two-electron integral symmetry is turned on.
 Leave Link  301 at Mon Dec 08 16:34:47 2025, MaxMem=   104857600 cpu:               0.0 elap:               0.1
 (Enter D:\Gaussian\G16W\l302.exe)
 NPDir=0 NMtPBC=     1 NCelOv=     1 NCel=       1 NClECP=     1 NCelD=      1
         NCelK=      1 NCelE2=     1 NClLst=     1 CellRange=     0.0.
 One-electron integrals computed using PRISM.
 One-electron integral symmetry used in STVInt
 NBasis=   147 RedAO= T EigKep=  4.77D-04  NBF=   147
 NBsUse=   147 1.00D-06 EigRej= -1.00D+00 NBFU=   147
 Precomputing XC quadrature grid using
 IXCGrd= 4 IRadAn=           5 IRanWt=          -1 IRanGd=           0 AccXCQ= 0.00D+00.
 Generated NRdTot=       0 NPtTot=           0 NUsed=           0 NTot=          32
 NSgBfM=   147   147   147   147   147 MxSgAt=    15 MxSgA2=    15.
 Leave Link  302 at Mon Dec 08 16:34:47 2025, MaxMem=   104857600 cpu:               0.0 elap:               0.4
 (Enter D:\Gaussian\G16W\l303.exe)
 DipDrv:  MaxL=1.
 Leave Link  303 at Mon Dec 08 16:34:47 2025, MaxMem=   104857600 cpu:               0.0 elap:               0.1
 (Enter D:\Gaussian\G16W\l401.exe)
 ExpMin= 1.61D-01 ExpMax= 5.48D+03 ExpMxC= 8.25D+02 IAcc=3 IRadAn=         5 AccDes= 0.00D+00
 Harris functional with IExCor=  402 and IRadAn=       5 diagonalized for initial guess.
 HarFok:  IExCor=  402 AccDes= 0.00D+00 IRadAn=         5 IDoV= 1 UseB2=F ITyADJ=14
 ICtDFT=  3500011 ScaDFX=  1.000000  1.000000  1.000000  1.000000
 FoFCou: FMM=F IPFlag=           0 FMFlag=      100000 FMFlg1=           0
         NFxFlg=           0 DoJE=T BraDBF=F KetDBF=T FulRan=T
         wScrn=  0.000000 ICntrl=       500 IOpCl=  0 I1Cent=   200000004 NGrid=           0
         NMat0=    1 NMatS0=      1 NMatT0=    0 NMatD0=    1 NMtDS0=    0 NMtDT0=    0
 Petite list used in FoFCou.
 Harris En= -420.998519196167    
 JPrj=0 DoOrth=F DoCkMO=F.
 Initial guess <Sx>= 0.0000 <Sy>= 0.0000 <Sz>= 0.5000 <S**2>= 0.7500 S= 0.5000
 Leave Link  401 at Mon Dec 08 16:34:48 2025, MaxMem=   104857600 cpu:               1.0 elap:               0.8
 (Enter D:\Gaussian\G16W\l502.exe)
 Integral symmetry usage will be decided dynamically.
 UHF open shell SCF:
 Using DIIS extrapolation, IDIIS=  1040.
 NGot=   104857600 LenX=   104811816 LenY=   104789766
 Requested convergence on RMS density matrix=1.00D-07 within 128 cycles.
 Requested convergence on MAX density matrix=1.00D-05.
 Requested convergence on             energy=1.00D-05.
 No special actions if energy rises.
 Fock matrices will be formed incrementally for  20 cycles.
 Integral accuracy reduced to 1.0D-05 until final iterations.

 Cycle   1  Pass 0  IDiag  1:
 FoFJK:  IHMeth= 1 ICntrl=       0 DoSepK=F KAlg= 0 I1Cent=           0 FoldK=F
 IRaf= 950000000 NMat=       1 IRICut=       1 DoRegI=T DoRafI=F ISym2E= 0 IDoP0=0 IntGTp=1.
 FoFCou: FMM=F IPFlag=           0 FMFlag=      100000 FMFlg1=           0
         NFxFlg=           0 DoJE=F BraDBF=F KetDBF=F FulRan=T
         wScrn=  0.000000 ICntrl=         0 IOpCl=  1 I1Cent=           0 NGrid=           0
         NMat0=    1 NMatS0=      1 NMatT0=    0 NMatD0=    1 NMtDS0=    0 NMtDT0=    0
 Symmetry not used in FoFCou.
 E= -420.479605273692    
 DIIS: error= 4.16D-02 at cycle   1 NSaved=   1.
 NSaved= 1 IEnMin= 1 EnMin= -420.479605273692     IErMin= 1 ErrMin= 4.16D-02
 ErrMax= 4.16D-02  0.00D+00 EMaxC= 1.00D-01 BMatC= 1.23D+00 BMatP= 1.23D+00
 IDIUse=3 WtCom= 5.84D-01 WtEn= 4.16D-01
 Coeff-Com:  0.100D+01
 Coeff-En:   0.100D+01
 Coeff:      0.100D+01
 Gap=     0.112 Goal=   None    Shift=    0.000
 Gap=     0.162 Goal=   None    Shift=    0.000
 GapD=    0.112 DampG=1.000 DampE=0.500 DampFc=0.5000 IDamp=-1.
 Damping current iteration by 5.00D-01
 RMSDP=1.04D-02 MaxDP=2.06D-01              OVMax= 2.10D-01

 Cycle   2  Pass 0  IDiag  1:
 RMSU=  5.18D-03    CP:  9.85D-01
 E= -420.614127802769     Delta-E=       -0.134522529078 Rises=F Damp=T
 DIIS: error= 8.03D-03 at cycle   2 NSaved=   2.
 NSaved= 2 IEnMin= 2 EnMin= -420.614127802769     IErMin= 2 ErrMin= 8.03D-03
 ErrMax= 8.03D-03  0.00D+00 EMaxC= 1.00D-01 BMatC= 7.56D-02 BMatP= 1.23D+00
 IDIUse=3 WtCom= 9.20D-01 WtEn= 8.03D-02
 Coeff-Com:  0.869D-01 0.913D+00
 Coeff-En:   0.121D+00 0.879D+00
 Coeff:      0.896D-01 0.910D+00
 Gap=     0.150 Goal=   None    Shift=    0.000
 Gap=     0.151 Goal=   None    Shift=    0.000
 RMSDP=2.66D-03 MaxDP=6.09D-02 DE=-1.35D-01 OVMax= 1.50D-01

 Cycle   3  Pass 0  IDiag  1:
 RMSU=  2.34D-03    CP:  9.74D-01  7.63D-01
 E= -420.768618738844     Delta-E=       -0.154490936075 Rises=F Damp=F
 DIIS: error= 1.03D-02 at cycle   3 NSaved=   3.
 NSaved= 3 IEnMin= 3 EnMin= -420.768618738844     IErMin= 2 ErrMin= 8.03D-03
 ErrMax= 1.03D-02  0.00D+00 EMaxC= 1.00D-01 BMatC= 8.80D-02 BMatP= 7.56D-02
 IDIUse=2 WtCom= 0.00D+00 WtEn= 1.00D+00
 Coeff-En:   0.000D+00 0.000D+00 0.100D+01
 Coeff:      0.000D+00 0.000D+00 0.100D+01
 Gap=     0.118 Goal=   None    Shift=    0.000
 Gap=     0.161 Goal=   None    Shift=    0.000
 RMSDP=3.12D-03 MaxDP=7.94D-02 DE=-1.54D-01 OVMax= 1.10D-01

 Cycle   4  Pass 0  IDiag  1:
 RMSU=  2.17D-03    CP:  9.80D-01  9.55D-01  1.42D-01
 E= -420.712438805468     Delta-E=        0.056179933376 Rises=F Damp=F
 DIIS: error= 2.13D-02 at cycle   4 NSaved=   4.
 NSaved= 4 IEnMin= 3 EnMin= -420.768618738844     IErMin= 2 ErrMin= 8.03D-03
 ErrMax= 2.13D-02  0.00D+00 EMaxC= 1.00D-01 BMatC= 3.60D-01 BMatP= 7.56D-02
 IDIUse=2 WtCom= 0.00D+00 WtEn= 1.00D+00
 Coeff-En:   0.000D+00 0.000D+00 0.748D+00 0.252D+00
 Coeff:      0.000D+00 0.000D+00 0.748D+00 0.252D+00
 Gap=     0.134 Goal=   None    Shift=    0.000
 Gap=     0.151 Goal=   None    Shift=    0.000
 RMSDP=1.68D-03 MaxDP=4.18D-02 DE= 5.62D-02 OVMax= 5.63D-02

 Cycle   5  Pass 0  IDiag  1:
 RMSU=  2.39D-04    CP:  9.77D-01  8.20D-01  5.69D-01  4.84D-01
 E= -420.784427802810     Delta-E=       -0.071988997342 Rises=F Damp=F
 DIIS: error= 4.52D-03 at cycle   5 NSaved=   5.
 NSaved= 5 IEnMin= 5 EnMin= -420.784427802810     IErMin= 5 ErrMin= 4.52D-03
 ErrMax= 4.52D-03  0.00D+00 EMaxC= 1.00D-01 BMatC= 1.81D-02 BMatP= 7.56D-02
 IDIUse=3 WtCom= 9.55D-01 WtEn= 4.52D-02
 Coeff-Com:  0.589D-03 0.486D-02 0.324D+00 0.124D-01 0.658D+00
 Coeff-En:   0.000D+00 0.000D+00 0.204D+00 0.000D+00 0.796D+00
 Coeff:      0.562D-03 0.464D-02 0.319D+00 0.118D-01 0.664D+00
 Gap=     0.139 Goal=   None    Shift=    0.000
 Gap=     0.149 Goal=   None    Shift=    0.000
 RMSDP=5.17D-04 MaxDP=1.33D-02 DE=-7.20D-02 OVMax= 2.21D-02

 Cycle   6  Pass 0  IDiag  1:
 RMSU=  1.42D-04    CP:  9.76D-01  8.01D-01  7.20D-01  3.36D-01  6.02D-01
 E= -420.788452396507     Delta-E=       -0.004024593697 Rises=F Damp=F
 DIIS: error= 1.17D-03 at cycle   6 NSaved=   6.
 NSaved= 6 IEnMin= 6 EnMin= -420.788452396507     IErMin= 6 ErrMin= 1.17D-03
 ErrMax= 1.17D-03  0.00D+00 EMaxC= 1.00D-01 BMatC= 3.76D-04 BMatP= 1.81D-02
 IDIUse=3 WtCom= 9.88D-01 WtEn= 1.17D-02
 Coeff-Com: -0.385D-02 0.371D-02 0.104D+00-0.546D-01 0.469D+00 0.482D+00
 Coeff-En:   0.000D+00 0.000D+00 0.000D+00 0.000D+00 0.000D+00 0.100D+01
 Coeff:     -0.381D-02 0.367D-02 0.102D+00-0.540D-01 0.463D+00 0.488D+00
 Gap=     0.139 Goal=   None    Shift=    0.000
 Gap=     0.149 Goal=   None    Shift=    0.000
 RMSDP=9.77D-05 MaxDP=2.19D-03 DE=-4.02D-03 OVMax= 9.01D-03

 Cycle   7  Pass 0  IDiag  1:
 RMSU=  4.85D-05    CP:  9.76D-01  8.02D-01  7.11D-01  3.38D-01  8.78D-01
                    CP:  6.53D-01
 E= -420.788562214236     Delta-E=       -0.000109817729 Rises=F Damp=F
 DIIS: error= 2.70D-04 at cycle   7 NSaved=   7.
 NSaved= 7 IEnMin= 7 EnMin= -420.788562214236     IErMin= 7 ErrMin= 2.70D-04
 ErrMax= 2.70D-04  0.00D+00 EMaxC= 1.00D-01 BMatC= 4.13D-05 BMatP= 3.76D-04
 IDIUse=3 WtCom= 9.97D-01 WtEn= 2.70D-03
 Coeff-Com: -0.248D-02 0.182D-02 0.142D-04-0.370D-01 0.158D+00 0.275D+00
 Coeff-Com:  0.605D+00
 Coeff-En:   0.000D+00 0.000D+00 0.000D+00 0.000D+00 0.000D+00 0.000D+00
 Coeff-En:   0.100D+01
 Coeff:     -0.247D-02 0.182D-02 0.142D-04-0.369D-01 0.157D+00 0.274D+00
 Coeff:      0.606D+00
 Gap=     0.140 Goal=   None    Shift=    0.000
 Gap=     0.149 Goal=   None    Shift=    0.000
 RMSDP=3.42D-05 MaxDP=1.60D-03 DE=-1.10D-04 OVMax= 2.34D-03

 Cycle   8  Pass 0  IDiag  1:
 RMSU=  2.42D-05    CP:  9.76D-01  8.02D-01  7.15D-01  3.38D-01  8.76D-01
                    CP:  8.12D-01  9.58D-01
 E= -420.788577957609     Delta-E=       -0.000015743373 Rises=F Damp=F
 DIIS: error= 1.52D-04 at cycle   8 NSaved=   8.
 NSaved= 8 IEnMin= 8 EnMin= -420.788577957609     IErMin= 8 ErrMin= 1.52D-04
 ErrMax= 1.52D-04  0.00D+00 EMaxC= 1.00D-01 BMatC= 5.90D-06 BMatP= 4.13D-05
 IDIUse=3 WtCom= 9.98D-01 WtEn= 1.52D-03
 Coeff-Com:  0.118D-02-0.248D-02-0.420D-01 0.148D-01-0.159D+00-0.115D+00
 Coeff-Com:  0.204D+00 0.110D+01
 Coeff-En:   0.000D+00 0.000D+00 0.000D+00 0.000D+00 0.000D+00 0.000D+00
 Coeff-En:   0.000D+00 0.100D+01
 Coeff:      0.118D-02-0.248D-02-0.420D-01 0.147D-01-0.159D+00-0.115D+00
 Coeff:      0.203D+00 0.110D+01
 Gap=     0.140 Goal=   None    Shift=    0.000
 Gap=     0.149 Goal=   None    Shift=    0.000
 RMSDP=3.02D-05 MaxDP=1.40D-03 DE=-1.57D-05 OVMax= 3.61D-03

 Cycle   9  Pass 0  IDiag  1:
 RMSU=  1.30D-05    CP:  9.76D-01  8.02D-01  7.17D-01  3.38D-01  9.27D-01
                    CP:  8.91D-01  1.39D+00  1.12D+00
 E= -420.788583768208     Delta-E=       -0.000005810598 Rises=F Damp=F
 DIIS: error= 6.00D-05 at cycle   9 NSaved=   9.
 NSaved= 9 IEnMin= 9 EnMin= -420.788583768208     IErMin= 9 ErrMin= 6.00D-05
 ErrMax= 6.00D-05  0.00D+00 EMaxC= 1.00D-01 BMatC= 2.23D-06 BMatP= 5.90D-06
 IDIUse=1 WtCom= 1.00D+00 WtEn= 0.00D+00
 Coeff-Com:  0.872D-03-0.157D-02-0.229D-01 0.119D-01-0.102D+00-0.781D-01
 Coeff-Com:  0.163D-01 0.607D+00 0.569D+00
 Coeff:      0.872D-03-0.157D-02-0.229D-01 0.119D-01-0.102D+00-0.781D-01
 Coeff:      0.163D-01 0.607D+00 0.569D+00
 Gap=     0.140 Goal=   None    Shift=    0.000
 Gap=     0.149 Goal=   None    Shift=    0.000
 RMSDP=9.70D-06 MaxDP=3.54D-04 DE=-5.81D-06 OVMax= 7.11D-04

 Initial convergence to 1.0D-05 achieved.  Increase integral accuracy.
 Cycle  10  Pass 1  IDiag  1:
 E= -420.788555569887     Delta-E=        0.000028198321 Rises=F Damp=F
 DIIS: error= 2.52D-05 at cycle   1 NSaved=   1.
 NSaved= 1 IEnMin= 1 EnMin= -420.788555569887     IErMin= 1 ErrMin= 2.52D-05
 ErrMax= 2.52D-05  0.00D+00 EMaxC= 1.00D-01 BMatC= 4.34D-07 BMatP= 4.34D-07
 IDIUse=1 WtCom= 1.00D+00 WtEn= 0.00D+00
 Coeff-Com:  0.100D+01
 Coeff:      0.100D+01
 Gap=     0.140 Goal=   None    Shift=    0.000
 Gap=     0.149 Goal=   None    Shift=    0.000
 RMSDP=9.70D-06 MaxDP=3.54D-04 DE= 2.82D-05 OVMax= 3.97D-04

 Cycle  11  Pass 1  IDiag  1:
 RMSU=  7.97D-06    CP:  1.00D+00
 E= -420.788555466822     Delta-E=        0.000000103065 Rises=F Damp=F
 DIIS: error= 4.11D-05 at cycle   2 NSaved=   2.
 NSaved= 2 IEnMin= 1 EnMin= -420.788555569887     IErMin= 1 ErrMin= 2.52D-05
 ErrMax= 4.11D-05  0.00D+00 EMaxC= 1.00D-01 BMatC= 1.15D-06 BMatP= 4.34D-07
 IDIUse=1 WtCom= 1.00D+00 WtEn= 0.00D+00
 Coeff-Com:  0.630D+00 0.370D+00
 Coeff:      0.630D+00 0.370D+00
 Gap=     0.140 Goal=   None    Shift=    0.000
 Gap=     0.149 Goal=   None    Shift=    0.000
 RMSDP=4.36D-06 MaxDP=1.17D-04 DE= 1.03D-07 OVMax= 2.40D-04

 Cycle  12  Pass 1  IDiag  1:
 RMSU=  2.55D-06    CP:  1.00D+00  5.57D-01
 E= -420.788555738350     Delta-E=       -0.000000271528 Rises=F Damp=F
 DIIS: error= 8.44D-06 at cycle   3 NSaved=   3.
 NSaved= 3 IEnMin= 3 EnMin= -420.788555738350     IErMin= 3 ErrMin= 8.44D-06
 ErrMax= 8.44D-06  0.00D+00 EMaxC= 1.00D-01 BMatC= 3.77D-08 BMatP= 4.34D-07
 IDIUse=1 WtCom= 1.00D+00 WtEn= 0.00D+00
 Coeff-Com:  0.147D+00 0.150D+00 0.703D+00
 Coeff:      0.147D+00 0.150D+00 0.703D+00
 Gap=     0.140 Goal=   None    Shift=    0.000
 Gap=     0.149 Goal=   None    Shift=    0.000
 RMSDP=1.45D-06 MaxDP=4.20D-05 DE=-2.72D-07 OVMax= 9.10D-05

 Cycle  13  Pass 1  IDiag  1:
 RMSU=  1.22D-06    CP:  1.00D+00  6.55D-01  1.06D+00
 E= -420.788555752493     Delta-E=       -0.000000014143 Rises=F Damp=F
 DIIS: error= 9.12D-06 at cycle   4 NSaved=   4.
 NSaved= 4 IEnMin= 4 EnMin= -420.788555752493     IErMin= 3 ErrMin= 8.44D-06
 ErrMax= 9.12D-06  0.00D+00 EMaxC= 1.00D-01 BMatC= 2.06D-08 BMatP= 3.77D-08
 IDIUse=1 WtCom= 1.00D+00 WtEn= 0.00D+00
 Coeff-Com: -0.164D+00-0.412D-01 0.495D+00 0.711D+00
 Coeff:     -0.164D+00-0.412D-01 0.495D+00 0.711D+00
 Gap=     0.140 Goal=   None    Shift=    0.000
 Gap=     0.149 Goal=   None    Shift=    0.000
 RMSDP=1.10D-06 MaxDP=3.89D-05 DE=-1.41D-08 OVMax= 1.36D-04

 Cycle  14  Pass 1  IDiag  1:
 RMSU=  8.86D-07    CP:  1.00D+00  6.79D-01  1.29D+00  8.36D-01
 E= -420.788555764081     Delta-E=       -0.000000011588 Rises=F Damp=F
 DIIS: error= 4.11D-06 at cycle   5 NSaved=   5.
 NSaved= 5 IEnMin= 5 EnMin= -420.788555764081     IErMin= 5 ErrMin= 4.11D-06
 ErrMax= 4.11D-06  0.00D+00 EMaxC= 1.00D-01 BMatC= 5.20D-09 BMatP= 2.06D-08
 IDIUse=1 WtCom= 1.00D+00 WtEn= 0.00D+00
 Coeff-Com: -0.104D+00-0.492D-01-0.322D-01 0.371D+00 0.815D+00
 Coeff:     -0.104D+00-0.492D-01-0.322D-01 0.371D+00 0.815D+00
 Gap=     0.140 Goal=   None    Shift=    0.000
 Gap=     0.149 Goal=   None    Shift=    0.000
 RMSDP=6.83D-07 MaxDP=2.21D-05 DE=-1.16D-08 OVMax= 4.51D-05

 Cycle  15  Pass 1  IDiag  1:
 RMSU=  3.14D-07    CP:  1.00D+00  7.13D-01  1.40D+00  1.21D+00  1.09D+00
 E= -420.788555767026     Delta-E=       -0.000000002945 Rises=F Damp=F
 DIIS: error= 1.67D-06 at cycle   6 NSaved=   6.
 NSaved= 6 IEnMin= 6 EnMin= -420.788555767026     IErMin= 6 ErrMin= 1.67D-06
 ErrMax= 1.67D-06  0.00D+00 EMaxC= 1.00D-01 BMatC= 1.40D-09 BMatP= 5.20D-09
 IDIUse=1 WtCom= 1.00D+00 WtEn= 0.00D+00
 Coeff-Com: -0.156D-01-0.184D-01-0.190D+00 0.326D-01 0.543D+00 0.649D+00
 Coeff:     -0.156D-01-0.184D-01-0.190D+00 0.326D-01 0.543D+00 0.649D+00
 Gap=     0.140 Goal=   None    Shift=    0.000
 Gap=     0.149 Goal=   None    Shift=    0.000
 RMSDP=2.87D-07 MaxDP=1.05D-05 DE=-2.95D-09 OVMax= 3.12D-05

 Cycle  16  Pass 1  IDiag  1:
 RMSU=  9.67D-08    CP:  1.00D+00  7.27D-01  1.45D+00  1.30D+00  1.29D+00
                    CP:  8.32D-01
 E= -420.788555767689     Delta-E=       -0.000000000663 Rises=F Damp=F
 DIIS: error= 3.89D-07 at cycle   7 NSaved=   7.
 NSaved= 7 IEnMin= 7 EnMin= -420.788555767689     IErMin= 7 ErrMin= 3.89D-07
 ErrMax= 3.89D-07  0.00D+00 EMaxC= 1.00D-01 BMatC= 1.05D-10 BMatP= 1.40D-09
 IDIUse=1 WtCom= 1.00D+00 WtEn= 0.00D+00
 Coeff-Com:  0.312D-02-0.493D-02-0.879D-01-0.280D-01 0.195D+00 0.286D+00
 Coeff-Com:  0.636D+00
 Coeff:      0.312D-02-0.493D-02-0.879D-01-0.280D-01 0.195D+00 0.286D+00
 Coeff:      0.636D+00
 Gap=     0.140 Goal=   None    Shift=    0.000
 Gap=     0.149 Goal=   None    Shift=    0.000
 RMSDP=6.64D-08 MaxDP=2.26D-06 DE=-6.63D-10 OVMax= 4.59D-06

 SCF Done:  E(UB3LYP) =  -420.788555768     A.U. after   16 cycles
            NFock= 16  Conv=0.66D-07     -V/T= 2.0081
 <Sx>= 0.0000 <Sy>= 0.0000 <Sz>= 0.5000 <S**2>= 0.7682 S= 0.5090
 <L.S>= 0.000000000000E+00
 KE= 4.174029077162D+02 PE=-1.810198838008D+03 EE= 5.638878965643D+02
 Annihilation of the first spin contaminant:
 S**2 before annihilation     0.7682,   after     0.7501
 Leave Link  502 at Mon Dec 08 16:35:12 2025, MaxMem=   104857600 cpu:              24.0 elap:              23.7
 (Enter D:\Gaussian\G16W\l601.exe)
 Copying SCF densities to generalized density rwf, IOpCl= 1 IROHF=0.

 **********************************************************************

            Population analysis using the SCF density.

 **********************************************************************

 Orbital symmetries:
 Alpha Orbitals:
       Occupied  (A) (A) (A) (A) (A) (A) (A) (A) (A) (A) (A) (A)
                 (A) (A) (A) (A) (A) (A) (A) (A) (A) (A) (A) (A)
                 (A) (A) (A) (A) (A) (A) (A) (A) (A)
       Virtual   (A) (A) (A) (A) (A) (A) (A) (A) (A) (A) (A) (A)
                 (A) (A) (A) (A) (A) (A) (A) (A) (A) (A) (A) (A)
                 (A) (A) (A) (A) (A) (A) (A) (A) (A) (A) (A) (A)
                 (A) (A) (A) (A) (A) (A) (A) (A) (A) (A) (A) (A)
                 (A) (A) (A) (A) (A) (A) (A) (A) (A) (A) (A) (A)
                 (A) (A) (A) (A) (A) (A) (A) (A) (A) (A) (A) (A)
                 (A) (A) (A) (A) (A) (A) (A) (A) (A) (A) (A) (A)
                 (A) (A) (A) (A) (A) (A) (A) (A) (A) (A) (A) (A)
                 (A) (A) (A) (A) (A) (A) (A) (A) (A) (A) (A) (A)
                 (A) (A) (A) (A) (A) (A)
 Beta  Orbitals:
       Occupied  (A) (A) (A) (A) (A) (A) (A) (A) (A) (A) (A) (A)
                 (A) (A) (A) (A) (A) (A) (A) (A) (A) (A) (A) (A)
                 (A) (A) (A) (A) (A) (A) (A) (A)
       Virtual   (A) (A) (A) (A) (A) (A) (A) (A) (A) (A) (A) (A)
                 (A) (A) (A) (A) (A) (A) (A) (A) (A) (A) (A) (A)
                 (A) (A) (A) (A) (A) (A) (A) (A) (A) (A) (A) (A)
                 (A) (A) (A) (A) (A) (A) (A) (A) (A) (A) (A) (A)
                 (A) (A) (A) (A) (A) (A) (A) (A) (A) (A) (A) (A)
                 (A) (A) (A) (A) (A) (A) (A) (A) (A) (A) (A) (A)
                 (A) (A) (A) (A) (A) (A) (A) (A) (A) (A) (A) (A)
                 (A) (A) (A) (A) (A) (A) (A) (A) (A) (A) (A) (A)
                 (A) (A) (A) (A) (A) (A) (A) (A) (A) (A) (A) (A)
                 (A) (A) (A) (A) (A) (A) (A)
 The electronic state is 2-A.
 Alpha  occ. eigenvalues --  -18.99880 -18.91763 -10.05428 -10.04960 -10.01314
 Alpha  occ. eigenvalues --  -10.00633 -10.00033  -9.99750  -9.99066  -0.89238
 Alpha  occ. eigenvalues --   -0.82171  -0.65898  -0.57199  -0.56407  -0.46021
 Alpha  occ. eigenvalues --   -0.42159  -0.41355  -0.34358  -0.30996  -0.29193
 Alpha  occ. eigenvalues --   -0.27102  -0.24455  -0.23992  -0.22417  -0.20687
 Alpha  occ. eigenvalues --   -0.18732  -0.18080  -0.16460  -0.16134  -0.07533
 Alpha  occ. eigenvalues --   -0.05959  -0.04490   0.05342
 Alpha virt. eigenvalues --    0.19357   0.22929   0.26261   0.27568   0.28637
 Alpha virt. eigenvalues --    0.30622   0.33361   0.34814   0.35708   0.40915
 Alpha virt. eigenvalues --    0.42745   0.49414   0.50310   0.51405   0.55171
 Alpha virt. eigenvalues --    0.56517   0.65516   0.67883   0.68085   0.70654
 Alpha virt. eigenvalues --    0.72684   0.73090   0.74685   0.76387   0.78468
 Alpha virt. eigenvalues --    0.79445   0.81864   0.83672   0.84824   0.85428
 Alpha virt. eigenvalues --    0.88107   0.88698   0.89395   0.95574   0.96391
 Alpha virt. eigenvalues --    1.00203   1.00644   1.03150   1.04290   1.10171
 Alpha virt. eigenvalues --    1.11221   1.11264   1.11974   1.14036   1.15290
 Alpha virt. eigenvalues --    1.20807   1.22071   1.23818   1.27207   1.28600
 Alpha virt. eigenvalues --    1.33520   1.37665   1.41767   1.42002   1.43127
 Alpha virt. eigenvalues --    1.53424   1.54932   1.56335   1.56428   1.62623
 Alpha virt. eigenvalues --    1.63050   1.64775   1.66379   1.80663   1.85551
 Alpha virt. eigenvalues --    1.87915   1.88898   1.91643   1.97255   1.99442
 Alpha virt. eigenvalues --    2.00656   2.06551   2.07896   2.08918   2.11324
 Alpha virt. eigenvalues --    2.14381   2.14804   2.18552   2.20935   2.24394
 Alpha virt. eigenvalues --    2.28239   2.29490   2.37291   2.43553   2.44384
 Alpha virt. eigenvalues --    2.50061   2.50499   2.53952   2.60100   2.60653
 Alpha virt. eigenvalues --    2.62923   2.66034   2.77686   2.80251   2.81988
 Alpha virt. eigenvalues --    2.85442   2.90539   2.97683   3.02836   3.04314
 Alpha virt. eigenvalues --    3.13631   3.17308   3.23014   3.43622   3.56323
 Alpha virt. eigenvalues --    4.04784   4.25281   4.27258   4.32587   4.37652
 Alpha virt. eigenvalues --    4.47598   4.55913   4.75558   5.12071
  Beta  occ. eigenvalues --  -18.99877 -18.91225 -10.05432 -10.04734 -10.01433
  Beta  occ. eigenvalues --  -10.00319  -9.99909  -9.99759  -9.98423  -0.89167
  Beta  occ. eigenvalues --   -0.81242  -0.65454  -0.56724  -0.55872  -0.44789
  Beta  occ. eigenvalues --   -0.41845  -0.41055  -0.34098  -0.30812  -0.28857
  Beta  occ. eigenvalues --   -0.26883  -0.23744  -0.23668  -0.22020  -0.20404
  Beta  occ. eigenvalues --   -0.18468  -0.16856  -0.16260  -0.14169  -0.06118
  Beta  occ. eigenvalues --   -0.05483  -0.02011
  Beta virt. eigenvalues --    0.12917   0.20720   0.25153   0.26538   0.27632
  Beta virt. eigenvalues --    0.28852   0.30940   0.33593   0.35041   0.36945
  Beta virt. eigenvalues --    0.41146   0.42934   0.49639   0.50666   0.51557
  Beta virt. eigenvalues --    0.55386   0.56838   0.65936   0.68066   0.69127
  Beta virt. eigenvalues --    0.70861   0.73199   0.74812   0.74879   0.76897
  Beta virt. eigenvalues --    0.78765   0.79684   0.83299   0.84439   0.85548
  Beta virt. eigenvalues --    0.85810   0.88411   0.88903   0.89544   0.95821
  Beta virt. eigenvalues --    0.96756   1.00537   1.01004   1.03296   1.04442
  Beta virt. eigenvalues --    1.10328   1.11649   1.11794   1.12212   1.14150
  Beta virt. eigenvalues --    1.15684   1.21216   1.23608   1.24250   1.27624
  Beta virt. eigenvalues --    1.28769   1.33748   1.38127   1.41996   1.42592
  Beta virt. eigenvalues --    1.43233   1.54317   1.55121   1.56599   1.56879
  Beta virt. eigenvalues --    1.63294   1.63825   1.65100   1.67152   1.81193
  Beta virt. eigenvalues --    1.88088   1.88423   1.89107   1.91898   1.97645
  Beta virt. eigenvalues --    2.00361   2.00956   2.07466   2.08241   2.09250
  Beta virt. eigenvalues --    2.11980   2.15035   2.15337   2.19558   2.21232
  Beta virt. eigenvalues --    2.25079   2.28770   2.30312   2.38506   2.44063
  Beta virt. eigenvalues --    2.44961   2.50699   2.50839   2.54236   2.60856
  Beta virt. eigenvalues --    2.61481   2.63200   2.66849   2.78335   2.80931
  Beta virt. eigenvalues --    2.82232   2.86385   2.90955   2.97926   3.03064
  Beta virt. eigenvalues --    3.04530   3.13824   3.17486   3.23465   3.43753
  Beta virt. eigenvalues --    3.56436   4.05125   4.25623   4.27586   4.33812
  Beta virt. eigenvalues --    4.38153   4.47944   4.56152   4.75885   5.12417
          Condensed to atoms (all electrons):
               1          2          3          4          5          6
     1  C    4.915024   0.451922   0.011258  -0.039341  -0.048645   0.333805
     2  C    0.451922   5.282255   0.450842  -0.038747  -0.043961  -0.025299
     3  C    0.011258   0.450842   4.422631   0.477828  -0.011821  -0.032752
     4  C   -0.039341  -0.038747   0.477828   5.163393   0.445756  -0.011829
     5  C   -0.048645  -0.043961  -0.011821   0.445756   5.235711   0.432760
     6  C    0.333805  -0.025299  -0.032752  -0.011829   0.432760   4.595410
     7  H   -0.046033   0.322988  -0.045926   0.006639  -0.000533   0.005624
     8  H   -0.000303   0.007021  -0.043263   0.332487  -0.051920   0.004186
     9  H    0.007590   0.000145   0.004345  -0.050916   0.319092  -0.034565
    10  O   -0.085153   0.008672  -0.000128   0.006202  -0.081378   0.458183
    11  H   -0.067739   0.008815   0.000076  -0.000289   0.003184  -0.012960
    12  O    0.280704  -0.053855   0.001920   0.000182   0.004979  -0.051240
    13  C    0.009883  -0.078948   0.514885  -0.077990   0.010039   0.000616
    14  H    0.000090  -0.012700  -0.010071   0.006604  -0.000302  -0.000001
    15  H   -0.000296   0.006480  -0.010474  -0.014429   0.000105   0.000024
               7          8          9         10         11         12
     1  C   -0.046033  -0.000303   0.007590  -0.085153  -0.067739   0.280704
     2  C    0.322988   0.007021   0.000145   0.008672   0.008815  -0.053855
     3  C   -0.045926  -0.043263   0.004345  -0.000128   0.000076   0.001920
     4  C    0.006639   0.332487  -0.050916   0.006202  -0.000289   0.000182
     5  C   -0.000533  -0.051920   0.319092  -0.081378   0.003184   0.004979
     6  C    0.005624   0.004186  -0.034565   0.458183  -0.012960  -0.051240
     7  H    0.708329  -0.000190   0.000027  -0.000098  -0.000773  -0.001477
     8  H   -0.000190   0.717027  -0.009048  -0.000092   0.000003   0.000003
     9  H    0.000027  -0.009048   0.706367   0.002664  -0.000117  -0.000050
    10  O   -0.000098  -0.000092   0.002664   8.303040   0.072623  -0.028777
    11  H   -0.000773   0.000003  -0.000117   0.072623   0.400669   0.211828
    12  O   -0.001477   0.000003  -0.000050  -0.028777   0.211828   8.321678
    13  C   -0.013658  -0.015715  -0.000231  -0.000004   0.000005  -0.000080
    14  H    0.008052  -0.000032   0.000004   0.000000   0.000000  -0.000001
    15  H   -0.000023   0.010014  -0.000019   0.000000   0.000000   0.000000
              13         14         15
     1  C    0.009883   0.000090  -0.000296
     2  C   -0.078948  -0.012700   0.006480
     3  C    0.514885  -0.010071  -0.010474
     4  C   -0.077990   0.006604  -0.014429
     5  C    0.010039  -0.000302   0.000105
     6  C    0.000616  -0.000001   0.000024
     7  H   -0.013658   0.008052  -0.000023
     8  H   -0.015715  -0.000032   0.010014
     9  H   -0.000231   0.000004  -0.000019
    10  O   -0.000004   0.000000   0.000000
    11  H    0.000005   0.000000   0.000000
    12  O   -0.000080  -0.000001   0.000000
    13  C    5.501156   0.330775   0.332932
    14  H    0.330775   0.670814  -0.056609
    15  H    0.332932  -0.056609   0.668387
          Atomic-Atomic Spin Densities.
               1          2          3          4          5          6
     1  C   -0.006409  -0.029640  -0.001557  -0.003504   0.001510   0.033716
     2  C   -0.029640   0.102532   0.031922   0.005028  -0.002256  -0.007099
     3  C   -0.001557   0.031922  -0.074895   0.035853  -0.004032  -0.003062
     4  C   -0.003504   0.005028   0.035853   0.284118  -0.059138  -0.012146
     5  C    0.001510  -0.002256  -0.004032  -0.059138   0.000117   0.049767
     6  C    0.033716  -0.007099  -0.003062  -0.012146   0.049767   0.193759
     7  H    0.000282   0.000853   0.000459   0.000083  -0.000039   0.000042
     8  H   -0.000027   0.000002   0.000357   0.001459   0.000557  -0.000008
     9  H   -0.000010  -0.000034  -0.000055  -0.000159   0.001928  -0.000851
    10  O   -0.004242   0.000367   0.000052   0.000615  -0.006005  -0.082812
    11  H    0.001115  -0.000073  -0.000004  -0.000002  -0.000051  -0.000374
    12  O   -0.001002   0.002392  -0.000004   0.000015  -0.000053  -0.003431
    13  C    0.000840  -0.013087  -0.080575  -0.023002   0.001316   0.000343
    14  H   -0.000029   0.000539  -0.002088  -0.000092   0.000009  -0.000001
    15  H    0.000014  -0.000139  -0.002114   0.000465  -0.000022  -0.000001
               7          8          9         10         11         12
     1  C    0.000282  -0.000027  -0.000010  -0.004242   0.001115  -0.001002
     2  C    0.000853   0.000002  -0.000034   0.000367  -0.000073   0.002392
     3  C    0.000459   0.000357  -0.000055   0.000052  -0.000004  -0.000004
     4  C    0.000083   0.001459  -0.000159   0.000615  -0.000002   0.000015
     5  C   -0.000039   0.000557   0.001928  -0.006005  -0.000051  -0.000053
     6  C    0.000042  -0.000008  -0.000851  -0.082812  -0.000374  -0.003431
     7  H   -0.006539   0.000002  -0.000001   0.000001   0.000020   0.000020
     8  H    0.000002  -0.014758   0.000186   0.000001   0.000000   0.000000
     9  H   -0.000001   0.000186  -0.001854  -0.000073   0.000002   0.000000
    10  O    0.000001   0.000001  -0.000073   0.284897  -0.001409   0.001284
    11  H    0.000020   0.000000   0.000002  -0.001409  -0.002938   0.001655
    12  O    0.000020   0.000000   0.000000   0.001284   0.001655   0.000759
    13  C   -0.000080   0.000064  -0.000002  -0.000001   0.000000  -0.000005
    14  H   -0.000157  -0.000008   0.000000   0.000000   0.000000   0.000000
    15  H   -0.000003  -0.000145   0.000000   0.000000   0.000000   0.000000
              13         14         15
     1  C    0.000840  -0.000029   0.000014
     2  C   -0.013087   0.000539  -0.000139
     3  C   -0.080575  -0.002088  -0.002114
     4  C   -0.023002  -0.000092   0.000465
     5  C    0.001316   0.000009  -0.000022
     6  C    0.000343  -0.000001  -0.000001
     7  H   -0.000080  -0.000157  -0.000003
     8  H    0.000064  -0.000008  -0.000145
     9  H   -0.000002   0.000000   0.000000
    10  O   -0.000001   0.000000   0.000000
    11  H    0.000000   0.000000   0.000000
    12  O   -0.000005   0.000000   0.000000
    13  C    0.626907   0.001898   0.001933
    14  H    0.001898  -0.029025   0.001638
    15  H    0.001933   0.001638  -0.028465
 Mulliken charges and spin densities:
               1          2
     1  C    0.277236  -0.008944
     2  C   -0.285628   0.091306
     3  C    0.270650  -0.099743
     4  C   -0.205550   0.229593
     5  C   -0.213065  -0.016394
     6  C    0.338039   0.167841
     7  H    0.057053  -0.005058
     8  H    0.049825  -0.012318
     9  H    0.054712  -0.000923
    10  O   -0.655755   0.192675
    11  H    0.384676  -0.002060
    12  O   -0.685813   0.001631
    13  C   -0.513665   0.516551
    14  H    0.063378  -0.027316
    15  H    0.063907  -0.026840
 Sum of Mulliken charges =  -1.00000   1.00000
 Mulliken charges and spin densities with hydrogens summed into heavy atoms:
               1          2
     1  C    0.277236  -0.008944
     2  C   -0.228575   0.086247
     3  C    0.270650  -0.099743
     4  C   -0.155724   0.217274
     5  C   -0.158353  -0.017316
     6  C    0.338039   0.167841
    10  O   -0.655755   0.192675
    12  O   -0.301137  -0.000429
    13  C   -0.386381   0.462395
 Electronic spatial extent (au):  <R**2>=           1152.1976
 Charge=             -1.0000 electrons
 Dipole moment (field-independent basis, Debye):
    X=             -0.8445    Y=             -0.3852    Z=              0.0006  Tot=              0.9282
 Quadrupole moment (field-independent basis, Debye-Ang):
   XX=            -75.0638   YY=            -61.2015   ZZ=            -56.7300
   XY=             -4.3255   XZ=             -0.0021   YZ=              0.0021
 Traceless Quadrupole moment (field-independent basis, Debye-Ang):
   XX=            -10.7321   YY=              3.1303   ZZ=              7.6018
   XY=             -4.3255   XZ=             -0.0021   YZ=              0.0021
 Octapole moment (field-independent basis, Debye-Ang**2):
  XXX=             31.7810  YYY=              1.7683  ZZZ=              0.0019  XYY=             -5.1245
  XXY=             -8.5125  XXZ=              0.0103  XZZ=             12.6209  YZZ=             -1.5437
  YYZ=             -0.0020  XYZ=              0.0041
 Hexadecapole moment (field-independent basis, Debye-Ang**3):
 XXXX=          -1132.8439 YYYY=           -500.6297 ZZZZ=            -56.1526 XXXY=            -71.7874
 XXXZ=             -0.0247 YYYX=              8.1842 YYYZ=              0.0029 ZZZX=             -0.0018
 ZZZY=             -0.0058 XXYY=           -269.5742 XXZZ=           -188.0720 YYZZ=            -95.8908
 XXYZ=              0.0072 YYXZ=             -0.0040 ZZXY=             -3.4506
 N-N= 4.081194779593D+02 E-N=-1.810198795747D+03  KE= 4.174029077162D+02
                          Isotropic Fermi Contact Couplings
        Atom                 a.u.       MegaHertz       Gauss      10(-4) cm-1
     1  C(13)             -0.00524      -5.89476      -2.10340      -1.96628
     2  C(13)              0.01006      11.30637       4.03439       3.77140
     3  C(13)             -0.02001     -22.49493      -8.02675      -7.50350
     4  C(13)              0.02454      27.59140       9.84530       9.20350
     5  C(13)             -0.00778      -8.74289      -3.11968      -2.91632
     6  C(13)              0.01216      13.67398       4.87922       4.56115
     7  H(1)              -0.00154      -6.87072      -2.45164      -2.29183
     8  H(1)              -0.00360     -16.07680      -5.73660      -5.36264
     9  H(1)              -0.00026      -1.18328      -0.42222      -0.39470
    10  O(17)              0.03288     -19.93438      -7.11308      -6.64939
    11  H(1)              -0.00015      -0.64814      -0.23127      -0.21620
    12  O(17)             -0.00087       0.52616       0.18775       0.17551
    13  C(13)              0.05060      56.88938      20.29954      18.97625
    14  H(1)              -0.00743     -33.19037     -11.84315     -11.07112
    15  H(1)              -0.00735     -32.86598     -11.72740     -10.96291
 --------------------------------------------------------
       Center         ----  Spin Dipole Couplings  ----
                      3XX-RR        3YY-RR        3ZZ-RR
 --------------------------------------------------------
     1   Atom       -0.004310     -0.003965      0.008275
     2   Atom       -0.045628     -0.045028      0.090656
     3   Atom        0.039271      0.020777     -0.060048
     4   Atom       -0.119645     -0.121006      0.240651
     5   Atom        0.000759     -0.010006      0.009246
     6   Atom       -0.081862     -0.103312      0.185173
     7   Atom       -0.004354      0.008331     -0.003978
     8   Atom       -0.000412      0.004811     -0.004399
     9   Atom       -0.001433      0.006013     -0.004580
    10   Atom       -0.405019     -0.392553      0.797572
    11   Atom       -0.000849      0.005717     -0.004869
    12   Atom       -0.005253     -0.002190      0.007443
    13   Atom       -0.256370     -0.250115      0.506485
    14   Atom       -0.028412      0.030409     -0.001998
    15   Atom        0.000415      0.002134     -0.002549
 --------------------------------------------------------
                        XY            XZ            YZ
 --------------------------------------------------------
     1   Atom        0.001779     -0.000016     -0.000030
     2   Atom       -0.000073     -0.000045     -0.000038
     3   Atom        0.007003      0.000010      0.000010
     4   Atom       -0.000088      0.000015     -0.000081
     5   Atom       -0.000274     -0.000030      0.000020
     6   Atom        0.003540      0.000025      0.000008
     7   Atom       -0.000357     -0.000002      0.000003
     8   Atom       -0.014986     -0.000002      0.000001
     9   Atom       -0.001416     -0.000001      0.000002
    10   Atom       -0.004784      0.000318      0.000095
    11   Atom       -0.003785      0.000000     -0.000001
    12   Atom       -0.002692     -0.000010      0.000009
    13   Atom        0.000096      0.000304     -0.000127
    14   Atom        0.018444      0.000010     -0.000010
    15   Atom       -0.033189     -0.000014      0.000020
 --------------------------------------------------------


 ---------------------------------------------------------------------------------
              Anisotropic Spin Dipole Couplings in Principal Axis System
 ---------------------------------------------------------------------------------

       Atom             a.u.   MegaHertz   Gauss  10(-4) cm-1        Axes

              Baa    -0.0059    -0.795    -0.284    -0.265  0.7405 -0.6721 -0.0006
     1 C(13)  Bbb    -0.0024    -0.315    -0.113    -0.105  0.6721  0.7405  0.0031
              Bcc     0.0083     1.110     0.396     0.370 -0.0017 -0.0027  1.0000
 
              Baa    -0.0456    -6.124    -2.185    -2.043  0.9930  0.1183  0.0004
     2 C(13)  Bbb    -0.0450    -6.041    -2.156    -2.015 -0.1183  0.9930  0.0002
              Bcc     0.0907    12.165     4.341     4.058 -0.0003 -0.0003  1.0000
 
              Baa    -0.0600    -8.058    -2.875    -2.688 -0.0001 -0.0001  1.0000
     3 C(13)  Bbb     0.0184     2.472     0.882     0.825 -0.3185  0.9479  0.0001
              Bcc     0.0416     5.585     1.993     1.863  0.9479  0.3185  0.0001
 
              Baa    -0.1210   -16.239    -5.794    -5.417  0.0642  0.9979  0.0002
     4 C(13)  Bbb    -0.1196   -16.054    -5.729    -5.355  0.9979 -0.0642 -0.0001
              Bcc     0.2407    32.293    11.523    10.772  0.0000 -0.0002  1.0000
 
              Baa    -0.0100    -1.344    -0.479    -0.448  0.0254  0.9997 -0.0010
     5 C(13)  Bbb     0.0008     0.103     0.037     0.034  0.9997 -0.0254  0.0036
              Bcc     0.0092     1.241     0.443     0.414 -0.0036  0.0011  1.0000
 
              Baa    -0.1039   -13.940    -4.974    -4.650 -0.1587  0.9873  0.0000
     6 C(13)  Bbb    -0.0813   -10.909    -3.892    -3.639  0.9873  0.1587 -0.0001
              Bcc     0.1852    24.848     8.867     8.289  0.0001  0.0000  1.0000
 
              Baa    -0.0044    -2.328    -0.831    -0.777  0.9996  0.0281  0.0038
     7 H(1)   Bbb    -0.0040    -2.122    -0.757    -0.708 -0.0038 -0.0004  1.0000
              Bcc     0.0083     4.451     1.588     1.485 -0.0281  0.9996  0.0002
 
              Baa    -0.0130    -6.943    -2.477    -2.316  0.7654  0.6436  0.0001
     8 H(1)   Bbb    -0.0044    -2.347    -0.838    -0.783  0.0000 -0.0001  1.0000
              Bcc     0.0174     9.290     3.315     3.099 -0.6436  0.7654  0.0001
 
              Baa    -0.0046    -2.443    -0.872    -0.815  0.0002 -0.0002  1.0000
     9 H(1)   Bbb    -0.0017    -0.904    -0.322    -0.301  0.9835  0.1807 -0.0001
              Bcc     0.0063     3.347     1.194     1.116 -0.1807  0.9835  0.0002
 
              Baa    -0.4066    29.424    10.499     9.815  0.9469  0.3215 -0.0003
    10 O(17)  Bbb    -0.3909    28.287    10.094     9.436 -0.3215  0.9469  0.0000
              Bcc     0.7976   -57.712   -20.593   -19.251  0.0003  0.0001  1.0000
 
              Baa    -0.0049    -2.598    -0.927    -0.866  0.0000  0.0001  1.0000
    11 H(1)   Bbb    -0.0026    -1.375    -0.490    -0.459  0.9097  0.4152  0.0000
              Bcc     0.0074     3.972     1.417     1.325 -0.4152  0.9097 -0.0001
 
              Baa    -0.0068     0.493     0.176     0.165  0.8644  0.5028  0.0003
    12 O(17)  Bbb    -0.0006     0.045     0.016     0.015 -0.5028  0.8644 -0.0016
              Bcc     0.0074    -0.539    -0.192    -0.180 -0.0011  0.0012  1.0000
 
              Baa    -0.2564   -34.403   -12.276   -11.475  0.9999 -0.0153 -0.0004
    13 C(13)  Bbb    -0.2501   -33.563   -11.976   -11.195  0.0153  0.9999  0.0002
              Bcc     0.5065    67.965    24.252    22.671  0.0004 -0.0002  1.0000
 
              Baa    -0.0337   -17.990    -6.419    -6.001  0.9610 -0.2764 -0.0004
    14 H(1)   Bbb    -0.0020    -1.066    -0.380    -0.356  0.0004  0.0001  1.0000
              Bcc     0.0357    19.056     6.799     6.356  0.2764  0.9610 -0.0002
 
              Baa    -0.0319   -17.034    -6.078    -5.682  0.7162  0.6979 -0.0002
    15 H(1)   Bbb    -0.0025    -1.360    -0.485    -0.454  0.0006 -0.0004  1.0000
              Bcc     0.0345    18.394     6.564     6.136 -0.6979  0.7162  0.0006
 

 ---------------------------------------------------------------------------------

 No NMR shielding tensors so no spin-rotation constants.
 Leave Link  601 at Mon Dec 08 16:35:12 2025, MaxMem=   104857600 cpu:               0.0 elap:               0.2
 (Enter D:\Gaussian\G16W\l9999.exe)
 1|1|UNPC-PC-20250526LCFF|SP|UB3LYP|6-31G(d)|C7H6O2(1-,2)|ADMINISTRATOR
 |08-Dec-2025|0||#p b3lyp/6-31g(d) out=wfn scf=conver=7||Generated by M
 ultiwfn (http://sobereva.com/multiwfn)||-1,2|C,0,0.741168,-0.785684,-0
 .000039|C,0,-0.557227,-1.1572,-0.00044|C,0,-1.607032,-0.154495,-0.0001
 08|C,0,-1.218614,1.254512,0.000131|C,0,0.072532,1.639072,0.000071|C,0,
 1.14245,0.645662,0.000072|H,0,-0.824842,-2.207386,-0.000663|H,0,-2.014
 063,1.992432,0.000276|H,0,0.371261,2.680459,0.000074|O,0,2.343411,0.91
 3173,-0.000258|H,0,2.567178,-1.085325,0.000083|O,0,1.769553,-1.64897,0
 .000412|C,0,-2.91844,-0.484059,0.000005|H,0,-3.243047,-1.517896,0.0001
 76|H,0,-3.689219,0.277238,0.000669||Version=EM64W-G16RevA.03|State=2-A
 |HF=-420.7885558|S2=0.76816|S2-1=0.|S2A=0.750146|RMSD=6.642e-008|Dipol
 e=-0.3322415,-0.1515411,0.0002315|Quadrupole=-7.9790204,2.3272769,5.65
 17436,-3.2159118,-0.0015438,0.0015436|PG=C01 [X(C7H6O2)]||@

 Writing a WFN file to "N+1.wfn"


 The hours that make us happy make us wise.
                         -- John Masefield
 Job cpu time:       0 days  0 hours  0 minutes 26.0 seconds.
 Elapsed time:       0 days  0 hours  0 minutes 25.7 seconds.
 File lengths (MBytes):  RWF=     26 Int=      0 D2E=      0 Chk=      3 Scr=      1
 Normal termination of Gaussian 16 at Mon Dec 08 16:35:12 2025.
