 Generated by Multiwfn (http://sobereva.com/multiwfn)
GAUSSIAN             65 MOL ORBITALS    276 PRIMITIVES       15 NUCLEI
  C    1    (CENTRE  1)   1.40060465 -1.48472723 -0.00007367  CHARGE =  6.0
  C    2    (CENTRE  2)  -1.05300621 -2.18679102 -0.00083145  CHARGE =  6.0
  C    3    (CENTRE  3)  -3.03685038 -0.29195343 -0.00020406  CHARGE =  6.0
  C    4    (CENTRE  4)  -2.30284706  2.37068400  0.00024758  CHARGE =  6.0
  C    5    (CENTRE  5)   0.13706518  3.09739737  0.00013420  CHARGE =  6.0
  C    6    (CENTRE  6)   2.15891740  1.22012479  0.00013609  CHARGE =  6.0
  H    7    (CENTRE  7)  -1.55872503 -4.17135500 -0.00125286  CHARGE =  1.0
  H    8    (CENTRE  8)  -3.80602798  3.76515052  0.00052159  CHARGE =  1.0
  H    9    (CENTRE  9)   0.70158094  5.06533366  0.00013987  CHARGE =  1.0
  O   10    (CENTRE 10)   4.42840472  1.72564759 -0.00048752  CHARGE =  8.0
  H   11    (CENTRE 11)   4.85126352 -2.05096624  0.00015688  CHARGE =  1.0
  O   12    (CENTRE 12)   3.34397085 -3.11610111  0.00077860  CHARGE =  8.0
  C   13    (CENTRE 13)  -5.51505226 -0.91473943  0.00000948  CHARGE =  6.0
  H   14    (CENTRE 14)  -6.12847035 -2.86840829  0.00033262  CHARGE =  1.0
  H   15    (CENTRE 15)  -6.97161365  0.52390323  0.00126426  CHARGE =  1.0
CENTRE ASSIGNMENTS    1  1  1  1  1  1  1  1  1  1  1  1  1  1  1  1  1  1  1  1
CENTRE ASSIGNMENTS    1  1  1  1  1  1  1  1  2  2  2  2  2  2  2  2  2  2  2  2
CENTRE ASSIGNMENTS    2  2  2  2  2  2  2  2  2  2  2  2  2  2  2  2  3  3  3  3
CENTRE ASSIGNMENTS    3  3  3  3  3  3  3  3  3  3  3  3  3  3  3  3  3  3  3  3
CENTRE ASSIGNMENTS    3  3  3  3  4  4  4  4  4  4  4  4  4  4  4  4  4  4  4  4
CENTRE ASSIGNMENTS    4  4  4  4  4  4  4  4  4  4  4  4  5  5  5  5  5  5  5  5
CENTRE ASSIGNMENTS    5  5  5  5  5  5  5  5  5  5  5  5  5  5  5  5  5  5  5  5
CENTRE ASSIGNMENTS    6  6  6  6  6  6  6  6  6  6  6  6  6  6  6  6  6  6  6  6
CENTRE ASSIGNMENTS    6  6  6  6  6  6  6  6  7  7  7  7  8  8  8  8  9  9  9  9
CENTRE ASSIGNMENTS   10 10 10 10 10 10 10 10 10 10 10 10 10 10 10 10 10 10 10 10
CENTRE ASSIGNMENTS   10 10 10 10 10 10 10 10 11 11 11 11 12 12 12 12 12 12 12 12
CENTRE ASSIGNMENTS   12 12 12 12 12 12 12 12 12 12 12 12 12 12 12 12 12 12 12 12
CENTRE ASSIGNMENTS   13 13 13 13 13 13 13 13 13 13 13 13 13 13 13 13 13 13 13 13
CENTRE ASSIGNMENTS   13 13 13 13 13 13 13 13 14 14 14 14 15 15 15 15
TYPE ASSIGNMENTS      1  1  1  1  1  1  1  1  1  2  2  2  3  3  3  4  4  4  1  2
TYPE ASSIGNMENTS      3  4  5  6  7  8  9 10  1  1  1  1  1  1  1  1  1  2  2  2
TYPE ASSIGNMENTS      3  3  3  4  4  4  1  2  3  4  5  6  7  8  9 10  1  1  1  1
TYPE ASSIGNMENTS      1  1  1  1  1  2  2  2  3  3  3  4  4  4  1  2  3  4  5  6
TYPE ASSIGNMENTS      7  8  9 10  1  1  1  1  1  1  1  1  1  2  2  2  3  3  3  4
TYPE ASSIGNMENTS      4  4  1  2  3  4  5  6  7  8  9 10  1  1  1  1  1  1  1  1
TYPE ASSIGNMENTS      1  2  2  2  3  3  3  4  4  4  1  2  3  4  5  6  7  8  9 10
TYPE ASSIGNMENTS      1  1  1  1  1  1  1  1  1  2  2  2  3  3  3  4  4  4  1  2
TYPE ASSIGNMENTS      3  4  5  6  7  8  9 10  1  1  1  1  1  1  1  1  1  1  1  1
TYPE ASSIGNMENTS      1  1  1  1  1  1  1  1  1  2  2  2  3  3  3  4  4  4  1  2
TYPE ASSIGNMENTS      3  4  5  6  7  8  9 10  1  1  1  1  1  1  1  1  1  1  1  1
TYPE ASSIGNMENTS      1  2  2  2  3  3  3  4  4  4  1  2  3  4  5  6  7  8  9 10
TYPE ASSIGNMENTS      1  1  1  1  1  1  1  1  1  2  2  2  3  3  3  4  4  4  1  2
TYPE ASSIGNMENTS      3  4  5  6  7  8  9 10  1  1  1  1  1  1  1  1
EXPONENTS  0.3047525D+04 0.4573695D+03 0.1039487D+03 0.2921016D+02 0.9286663D+01
EXPONENTS  0.3163927D+01 0.7868272D+01 0.1881289D+01 0.5442493D+00 0.7868272D+01
EXPONENTS  0.1881289D+01 0.5442493D+00 0.7868272D+01 0.1881289D+01 0.5442493D+00
EXPONENTS  0.7868272D+01 0.1881289D+01 0.5442493D+00 0.1687145D+00 0.1687145D+00
EXPONENTS  0.1687145D+00 0.1687145D+00 0.8000000D+00 0.8000000D+00 0.8000000D+00
EXPONENTS  0.8000000D+00 0.8000000D+00 0.8000000D+00 0.3047525D+04 0.4573695D+03
EXPONENTS  0.1039487D+03 0.2921016D+02 0.9286663D+01 0.3163927D+01 0.7868272D+01
EXPONENTS  0.1881289D+01 0.5442493D+00 0.7868272D+01 0.1881289D+01 0.5442493D+00
EXPONENTS  0.7868272D+01 0.1881289D+01 0.5442493D+00 0.7868272D+01 0.1881289D+01
EXPONENTS  0.5442493D+00 0.1687145D+00 0.1687145D+00 0.1687145D+00 0.1687145D+00
EXPONENTS  0.8000000D+00 0.8000000D+00 0.8000000D+00 0.8000000D+00 0.8000000D+00
EXPONENTS  0.8000000D+00 0.3047525D+04 0.4573695D+03 0.1039487D+03 0.2921016D+02
EXPONENTS  0.9286663D+01 0.3163927D+01 0.7868272D+01 0.1881289D+01 0.5442493D+00
EXPONENTS  0.7868272D+01 0.1881289D+01 0.5442493D+00 0.7868272D+01 0.1881289D+01
EXPONENTS  0.5442493D+00 0.7868272D+01 0.1881289D+01 0.5442493D+00 0.1687145D+00
EXPONENTS  0.1687145D+00 0.1687145D+00 0.1687145D+00 0.8000000D+00 0.8000000D+00
EXPONENTS  0.8000000D+00 0.8000000D+00 0.8000000D+00 0.8000000D+00 0.3047525D+04
EXPONENTS  0.4573695D+03 0.1039487D+03 0.2921016D+02 0.9286663D+01 0.3163927D+01
EXPONENTS  0.7868272D+01 0.1881289D+01 0.5442493D+00 0.7868272D+01 0.1881289D+01
EXPONENTS  0.5442493D+00 0.7868272D+01 0.1881289D+01 0.5442493D+00 0.7868272D+01
EXPONENTS  0.1881289D+01 0.5442493D+00 0.1687145D+00 0.1687145D+00 0.1687145D+00
EXPONENTS  0.1687145D+00 0.8000000D+00 0.8000000D+00 0.8000000D+00 0.8000000D+00
EXPONENTS  0.8000000D+00 0.8000000D+00 0.3047525D+04 0.4573695D+03 0.1039487D+03
EXPONENTS  0.2921016D+02 0.9286663D+01 0.3163927D+01 0.7868272D+01 0.1881289D+01
EXPONENTS  0.5442493D+00 0.7868272D+01 0.1881289D+01 0.5442493D+00 0.7868272D+01
EXPONENTS  0.1881289D+01 0.5442493D+00 0.7868272D+01 0.1881289D+01 0.5442493D+00
EXPONENTS  0.1687145D+00 0.1687145D+00 0.1687145D+00 0.1687145D+00 0.8000000D+00
EXPONENTS  0.8000000D+00 0.8000000D+00 0.8000000D+00 0.8000000D+00 0.8000000D+00
EXPONENTS  0.3047525D+04 0.4573695D+03 0.1039487D+03 0.2921016D+02 0.9286663D+01
EXPONENTS  0.3163927D+01 0.7868272D+01 0.1881289D+01 0.5442493D+00 0.7868272D+01
EXPONENTS  0.1881289D+01 0.5442493D+00 0.7868272D+01 0.1881289D+01 0.5442493D+00
EXPONENTS  0.7868272D+01 0.1881289D+01 0.5442493D+00 0.1687145D+00 0.1687145D+00
EXPONENTS  0.1687145D+00 0.1687145D+00 0.8000000D+00 0.8000000D+00 0.8000000D+00
EXPONENTS  0.8000000D+00 0.8000000D+00 0.8000000D+00 0.1873114D+02 0.2825394D+01
EXPONENTS  0.6401217D+00 0.1612778D+00 0.1873114D+02 0.2825394D+01 0.6401217D+00
EXPONENTS  0.1612778D+00 0.1873114D+02 0.2825394D+01 0.6401217D+00 0.1612778D+00
EXPONENTS  0.5484672D+04 0.8252349D+03 0.1880470D+03 0.5296450D+02 0.1689757D+02
EXPONENTS  0.5799635D+01 0.1553962D+02 0.3599934D+01 0.1013762D+01 0.1553962D+02
EXPONENTS  0.3599934D+01 0.1013762D+01 0.1553962D+02 0.3599934D+01 0.1013762D+01
EXPONENTS  0.1553962D+02 0.3599934D+01 0.1013762D+01 0.2700058D+00 0.2700058D+00
EXPONENTS  0.2700058D+00 0.2700058D+00 0.8000000D+00 0.8000000D+00 0.8000000D+00
EXPONENTS  0.8000000D+00 0.8000000D+00 0.8000000D+00 0.1873114D+02 0.2825394D+01
EXPONENTS  0.6401217D+00 0.1612778D+00 0.5484672D+04 0.8252349D+03 0.1880470D+03
EXPONENTS  0.5296450D+02 0.1689757D+02 0.5799635D+01 0.1553962D+02 0.3599934D+01
EXPONENTS  0.1013762D+01 0.1553962D+02 0.3599934D+01 0.1013762D+01 0.1553962D+02
EXPONENTS  0.3599934D+01 0.1013762D+01 0.1553962D+02 0.3599934D+01 0.1013762D+01
EXPONENTS  0.2700058D+00 0.2700058D+00 0.2700058D+00 0.2700058D+00 0.8000000D+00
EXPONENTS  0.8000000D+00 0.8000000D+00 0.8000000D+00 0.8000000D+00 0.8000000D+00
EXPONENTS  0.3047525D+04 0.4573695D+03 0.1039487D+03 0.2921016D+02 0.9286663D+01
EXPONENTS  0.3163927D+01 0.7868272D+01 0.1881289D+01 0.5442493D+00 0.7868272D+01
EXPONENTS  0.1881289D+01 0.5442493D+00 0.7868272D+01 0.1881289D+01 0.5442493D+00
EXPONENTS  0.7868272D+01 0.1881289D+01 0.5442493D+00 0.1687145D+00 0.1687145D+00
EXPONENTS  0.1687145D+00 0.1687145D+00 0.8000000D+00 0.8000000D+00 0.8000000D+00
EXPONENTS  0.8000000D+00 0.8000000D+00 0.8000000D+00 0.1873114D+02 0.2825394D+01
EXPONENTS  0.6401217D+00 0.1612778D+00 0.1873114D+02 0.2825394D+01 0.6401217D+00
EXPONENTS  0.1612778D+00
MO    1     MO 0.0        OCC NO =    1.0000000  ORB. ENERGY =  -18.998797
 -0.29468417D-04 -0.54363475D-04 -0.87759505D-04 -0.11423680D-03 -0.97478468D-04
 -0.33656973D-04 -0.65012423D-04 -0.29964166D-04  0.84022650D-04  0.39067134D-03
  0.29954201D-03  0.14949245D-03 -0.41068088D-03 -0.31488405D-03 -0.15714921D-03
  0.19384682D-06  0.14862945D-06  0.74176512D-07  0.22902994D-04 -0.54146101D-03
  0.59885442D-03 -0.19180192D-06 -0.15593837D-03 -0.62971617D-04 -0.12021264D-03
  0.11255019D-03 -0.57773031D-07  0.78623787D-07  0.73037781D-05  0.13474044D-04
  0.21751286D-04  0.28313711D-04  0.24160141D-04  0.83419160D-05 -0.60809824D-04
 -0.28027192D-04  0.78591173D-04 -0.93252921D-05 -0.71500425D-05 -0.35683723D-05
  0.20959491D-04  0.16070408D-04  0.80202600D-05  0.10544918D-08  0.80851744D-09
  0.40350687D-09 -0.36555967D-03 -0.14378868D-04 -0.30859857D-03 -0.43266758D-07
 -0.58844271D-04 -0.52778695D-04  0.31006654D-04 -0.10492723D-04  0.77198454D-08
 -0.26776638D-07  0.27006678D-07  0.49822047D-07  0.80428232D-07  0.10469366D-06
  0.89335290D-07  0.30845329D-07  0.11948422D-04  0.55070167D-05 -0.15442250D-04
  0.83558045D-04  0.64067009D-04  0.31973927D-04 -0.29975896D-04 -0.22983616D-04
 -0.11470435D-04 -0.24262793D-07 -0.18603171D-07 -0.92842860D-08  0.30016646D-03
  0.46307544D-04 -0.30223761D-04 -0.36314728D-07  0.26311902D-04  0.35904417D-04
  0.18114242D-04 -0.22397362D-04 -0.91720658D-07  0.38655335D-07  0.78215210D-05
  0.14429179D-04  0.23293169D-04  0.30320785D-04  0.25872781D-04  0.89332494D-05
 -0.30883551D-04 -0.14234201D-04  0.39914184D-04 -0.13467305D-04 -0.10325875D-04
 -0.51533355D-05 -0.41314605D-04 -0.31677419D-04 -0.15809252D-04 -0.19520979D-07
 -0.14967449D-07 -0.74698058D-08 -0.25738149D-03 -0.10750600D-03  0.45858667D-04
  0.24868847D-07 -0.17076615D-04  0.84083233D-05  0.35328140D-04 -0.48895188D-04
 -0.98035680D-08 -0.26963481D-07 -0.34756458D-05 -0.64118878D-05 -0.10350775D-04
 -0.13473634D-04 -0.11497076D-04 -0.39696640D-05  0.23431945D-04  0.10799762D-04
 -0.30283660D-04  0.75605039D-04  0.57969149D-04  0.28930668D-04 -0.71154507D-04
 -0.54556763D-04 -0.27227648D-04 -0.26330146D-08 -0.20188286D-08 -0.10075369D-08
  0.38003089D-03 -0.82467735D-04 -0.17380765D-03 -0.32419693D-08  0.25418329D-04
  0.28817075D-04 -0.46068126D-06 -0.20574159D-04 -0.31246739D-07 -0.23608566D-07
  0.27901932D-04  0.51473617D-04  0.83094377D-04  0.10816419D-03  0.92296699D-04
  0.31867832D-04 -0.12884320D-03 -0.59383713D-04  0.16651813D-03  0.31364649D-04
  0.24048424D-04  0.12001849D-04  0.84394764D-04  0.64708552D-04  0.32294103D-04
  0.23885761D-08  0.18314086D-08  0.91400126D-09 -0.35791608D-03  0.46580950D-03
  0.13741705D-03  0.29073405D-07  0.49298334D-04 -0.52829364D-04  0.78103838D-04
  0.37861986D-04 -0.11425866D-06 -0.89499420D-07 -0.12626655D-04 -0.21417196D-04
 -0.24382721D-04 -0.12400647D-03 -0.38406891D-05 -0.65145356D-05 -0.74165685D-05
 -0.26494577D-04  0.10518861D-04  0.17841978D-04  0.20312462D-04  0.45308701D-04
  0.35276167D-04  0.64926979D-04  0.10506411D-03  0.13810971D-03  0.11845590D-03
  0.40502083D-04 -0.17954679D-03 -0.80113427D-04  0.23657602D-03 -0.10643255D-03
 -0.82000541D-04 -0.36002654D-04  0.70946635D-04  0.54660557D-04  0.23998929D-04
  0.23895454D-06  0.18410159D-06  0.80830514D-07 -0.56680391D-03  0.17503438D-03
 -0.31342960D-04 -0.13746930D-06  0.12179577D-03  0.22716897D-03  0.18862003D-03
 -0.44025659D-04  0.14410336D-06  0.37583587D-07  0.80310465D-04  0.13622175D-03
  0.15508365D-03 -0.21916688D-03  0.82560635D+00  0.15195564D+01  0.24589291D+01
  0.32323311D+01  0.27723516D+01  0.94791411D+00 -0.15756584D-01 -0.70305573D-02
  0.20761330D-01  0.27945264D-03  0.21530319D-03  0.94529697D-04  0.29766870D-02
  0.22933769D-02  0.10069160D-02 -0.17229133D-05 -0.13274119D-05 -0.58280530D-06
  0.40282283D-02 -0.32869932D-03  0.21649704D-03 -0.17129068D-06 -0.92079342D-02
 -0.93214705D-02 -0.92848402D-02 -0.16420884D-03  0.10911226D-06 -0.47884938D-07
  0.42077664D-05  0.77625073D-05  0.12531094D-04  0.16311761D-04  0.13918855D-04
  0.48058461D-05 -0.17843753D-04 -0.82241693D-05  0.23061429D-04 -0.19749290D-04
 -0.15142503D-04 -0.75571703D-05 -0.41152084D-05 -0.31552807D-05 -0.15747062D-05
 -0.61349809D-09 -0.47039142D-09 -0.23475829D-09 -0.64507111D-04 -0.31112474D-04
 -0.31046922D-06  0.10701694D-07 -0.17270200D-04  0.83310189D-05  0.19277238D-04
 -0.11598743D-04  0.20520506D-07  0.45613108D-08  0.25738677D-05  0.43657667D-05
  0.49702711D-05  0.30017610D-05  0.27521359D-05  0.46681433D-05  0.53145162D-05
 -0.58354502D-05
MO    2     MO 0.0        OCC NO =    1.0000000  ORB. ENERGY =  -18.917631
  0.25745815D-04  0.47496002D-04  0.76673274D-04  0.99805821D-04  0.85164488D-04
  0.29405251D-04 -0.11300683D-03 -0.52084746D-04  0.14605106D-03  0.36240704D-06
  0.27787074D-06  0.13867697D-06 -0.82189056D-04 -0.63017355D-04 -0.31450077D-04
  0.52657429D-07  0.40374377D-07  0.20149644D-07 -0.51745158D-03  0.48285211D-03
 -0.37906663D-03  0.32876689D-07  0.97073667D-05  0.28461951D-04  0.68793276D-04
 -0.19996600D-03  0.47858302D-07 -0.15437312D-06 -0.21749068D-05 -0.40122783D-05
 -0.64770613D-05 -0.84312093D-05 -0.71943661D-05 -0.24840417D-05  0.17930872D-04
  0.82643226D-05 -0.23174023D-04  0.12034919D-03  0.92276124D-04  0.46052253D-04
  0.49623348D-04  0.38048036D-04  0.18988637D-04  0.78900811D-07  0.60496137D-07
  0.30191812D-07  0.57718727D-03  0.39325138D-04  0.26584577D-03  0.98454105D-07
  0.37793157D-04  0.20572491D-04  0.11728817D-04 -0.81478106D-05  0.52476084D-07
  0.93535982D-07  0.10874768D-04  0.20061823D-04  0.32386002D-04  0.42156952D-04
  0.35972604D-04  0.12420476D-04 -0.42702492D-04 -0.19681540D-04  0.55189092D-04
  0.57143240D-04  0.43813812D-04  0.21866163D-04  0.24136019D-04  0.18505968D-04
  0.92357752D-05  0.21931181D-07  0.16815439D-07  0.83920825D-08 -0.28095952D-03
 -0.24101407D-03  0.61957378D-05  0.27174158D-07  0.28898929D-04 -0.36823074D-04
  0.49345634D-04  0.63597740D-04  0.44538785D-07 -0.29277841D-07  0.49192864D-06
  0.90751229D-06  0.14650062D-05  0.19070028D-05  0.16272490D-05  0.56184996D-06
  0.49100823D-05  0.22630524D-05 -0.63458353D-05  0.12844081D-03  0.98480264D-04
  0.49148554D-04  0.12353129D-04  0.94715958D-05  0.47269901D-05  0.17850132D-07
  0.13686349D-07  0.68304473D-08  0.47062713D-03  0.17903213D-03 -0.56208017D-04
 -0.26852234D-07  0.30298675D-04  0.19036908D-04  0.25905250D-04  0.74954192D-04
 -0.27144045D-08  0.66970959D-07  0.12069328D-04  0.22265554D-04  0.35943507D-04
  0.46787766D-04  0.39924086D-04  0.13784827D-04 -0.75335371D-04 -0.34722004D-04
  0.97364122D-04 -0.75484185D-04 -0.57876485D-04 -0.28884422D-04 -0.33817675D-05
 -0.25929248D-05 -0.12940512D-05  0.57478759D-08  0.44071067D-08  0.21994551D-08
 -0.65141560D-03  0.20397246D-03  0.39032514D-03 -0.40692878D-07 -0.82117361D-04
 -0.17709135D-04  0.44424718D-04 -0.39785412D-04  0.47617973D-07  0.97110153D-07
 -0.40289053D-04 -0.74325435D-04 -0.11998430D-03 -0.15618391D-03 -0.13327201D-03
 -0.46015622D-04 -0.78375188D-04 -0.36123052D-04  0.10129281D-03  0.12641302D-03
  0.96925486D-04  0.48372611D-04  0.21723281D-04  0.16656034D-04  0.83125284D-05
 -0.31771639D-07 -0.24360478D-07 -0.12157586D-07 -0.22035373D-03 -0.11067505D-02
 -0.26233019D-03  0.16257889D-06 -0.10035730D-02 -0.14993654D-03 -0.19084278D-03
 -0.33431858D-03  0.56471903D-06  0.17390155D-06  0.12886334D-04  0.21857662D-04
  0.24884176D-04  0.64415975D-04  0.40649393D-05  0.68949064D-05  0.78496072D-05
  0.27067130D-04 -0.22861929D-04 -0.38778158D-04 -0.44147562D-04 -0.15285738D-03
  0.82554030D+00  0.15194348D+01  0.24587324D+01  0.32320725D+01  0.27721298D+01
  0.94783827D+00 -0.15637141D-01 -0.69772620D-02  0.20603948D-01 -0.31093286D-02
 -0.23955701D-02 -0.10517843D-02 -0.91006891D-03 -0.70115903D-03 -0.30784658D-03
  0.81461608D-06  0.62761777D-06  0.27555801D-06  0.47032694D-02 -0.65253556D-03
 -0.15204627D-03  0.27194535D-06 -0.89968197D-02 -0.95604859D-02 -0.95021159D-02
  0.25775009D-03 -0.37110542D-06 -0.90594818D-07 -0.11104372D-04 -0.18835117D-04
 -0.21443115D-04 -0.10482917D-03  0.67250220D-04  0.12377630D-03  0.20029343D-03
  0.26329131D-03  0.22582343D-03  0.77212866D-04 -0.17715040D-03 -0.79044162D-04
  0.23341847D-03 -0.18377260D-03 -0.14158688D-03 -0.62164268D-04  0.51776426D-04
  0.39890945D-04  0.17514274D-04 -0.21188433D-06 -0.16324545D-06 -0.71673547D-07
 -0.54467895D-03  0.23612638D-03 -0.82850428D-04  0.14271918D-06  0.16491435D-03
  0.17630872D-03  0.18833906D-03  0.17767537D-03 -0.18324415D-06  0.13354067D-06
  0.18538164D-06  0.34199293D-06  0.55208263D-06  0.71864754D-06  0.61322325D-06
  0.21173125D-06 -0.26657909D-05 -0.12286606D-05  0.34452925D-05 -0.35029206D-04
 -0.26858174D-04 -0.13404111D-04 -0.11871236D-04 -0.91021108D-05 -0.45425912D-05
  0.65281352D-08  0.50053600D-08  0.24980255D-08 -0.13110024D-03 -0.32162274D-04
 -0.23613674D-04 -0.19265897D-08 -0.12431147D-04 -0.51279171D-05  0.17142983D-05
 -0.14038775D-04  0.96693074D-08 -0.19908380D-08  0.75974242D-06  0.12886669D-05
  0.14671018D-05 -0.44606027D-05  0.24653129D-05  0.41816373D-05  0.47606462D-05
  0.10399033D-04
MO    3     MO 0.0        OCC NO =    1.0000000  ORB. ENERGY =  -10.054278
  0.53228235D+00  0.98195700D+00  0.15851831D+01  0.20634374D+01  0.17607348D+01
  0.60793943D+00 -0.19808820D-01 -0.91298672D-02  0.25601101D-01  0.99827333D-03
  0.76541267D-03  0.38199457D-03 -0.98973271D-03 -0.75886426D-03 -0.37872645D-03
  0.37974923D-06  0.29116762D-06  0.14531305D-06 -0.34567053D-02  0.13504921D-02
 -0.10147038D-02  0.36332230D-06 -0.94781777D-02 -0.99372972D-02 -0.10512505D-01
 -0.85897177D-03  0.77621132D-06 -0.48388179D-06  0.35663031D-02  0.65791328D-02
  0.10620760D-01  0.13825074D-01  0.11796961D-01  0.40732071D-02  0.26521055D-03
  0.12223530D-03 -0.34276055D-03 -0.37369374D-03 -0.28652466D-03 -0.14299589D-03
 -0.26170559D-03 -0.20065925D-03 -0.10014303D-03 -0.98530513D-07 -0.75546948D-07
 -0.37703222D-07  0.25236906D-02  0.39973286D-03  0.10448248D-02  0.32677130D-06
 -0.42721156D-03 -0.28575774D-03 -0.41251688D-03  0.10560593D-03 -0.15418826D-06
  0.31683490D-06  0.36604421D-04  0.67528009D-04  0.10901114D-03  0.14190012D-03
  0.12108363D-03  0.41807267D-04 -0.76862788D-04 -0.35425989D-04  0.99338170D-04
 -0.12486504D-03 -0.95738595D-04 -0.47780269D-04  0.40662176D-05  0.31177178D-05
  0.15559597D-05 -0.16707775D-06 -0.12810462D-06 -0.63933184D-07 -0.11356699D-02
 -0.44426730D-03  0.19317089D-03  0.19163819D-06  0.59417130D-05  0.26191902D-04
  0.37835485D-04  0.13690130D-04  0.19997177D-06  0.51707082D-07 -0.66578216D-04
 -0.12282381D-03 -0.19827571D-03 -0.25809606D-03 -0.22023384D-03 -0.76041451D-04
  0.10791939D-03  0.49739947D-04 -0.13947600D-03 -0.38971328D-04 -0.29880742D-04
 -0.14912585D-04  0.82842701D-04  0.63518529D-04  0.31700198D-04 -0.22698376D-07
 -0.17403675D-07 -0.86856537D-08  0.75732217D-03  0.40091235D-03 -0.16531675D-03
 -0.82349234D-07  0.16776803D-05 -0.32118360D-04 -0.12353421D-03  0.45882879D-04
  0.34886906D-07  0.97345558D-07  0.58681983D-04  0.10825680D-03  0.17476004D-03
  0.22748565D-03  0.19411392D-03  0.67022871D-04 -0.37920353D-04 -0.17477456D-04
  0.49008611D-04 -0.11865316D-03 -0.90975717D-04 -0.45403259D-04  0.18135674D-03
  0.13905284D-03  0.69397115D-04 -0.68866501D-07 -0.52802465D-07 -0.26352131D-07
 -0.10299730D-02  0.22024016D-03  0.40737004D-03  0.31977381D-07  0.31963749D-04
  0.69064447D-05 -0.61024882D-05 -0.49122604D-04  0.32017849D-07  0.17481246D-07
  0.16300778D-01  0.30071753D-01  0.48545133D-01  0.63191339D-01  0.53921284D-01
  0.18617724D-01 -0.32781300D-03 -0.15108871D-03  0.42366852D-03  0.10092823D-03
  0.77385365D-04  0.38620721D-04  0.25698468D-03  0.19703955D-03  0.98336546D-04
 -0.57304991D-07 -0.43937832D-07 -0.21928058D-07  0.15253347D-02 -0.90182285D-03
 -0.46573434D-03 -0.89794460D-07 -0.55694143D-03 -0.95058775D-03 -0.67267335D-03
  0.16336079D-03 -0.10108530D-07  0.13739175D-06  0.33973389D-04  0.57625298D-04
  0.65604365D-04  0.31515506D-03  0.19679131D-04  0.33379531D-04  0.38001416D-04
  0.11976414D-03 -0.18278042D-04 -0.31003018D-04 -0.35295840D-04 -0.84311754D-04
 -0.77348550D-04 -0.14236262D-03 -0.23036960D-03 -0.30282728D-03 -0.25973320D-03
 -0.88807193D-04  0.26045218D-03  0.11621326D-03 -0.34317930D-03  0.52480370D-06
  0.40433296D-06  0.17752395D-06 -0.10234212D-03 -0.78849087D-04 -0.34618996D-04
 -0.19363979D-06 -0.14918902D-06 -0.65502014D-07  0.77937133D-03 -0.12856921D-03
  0.62948995D-04  0.17950750D-06 -0.23824629D-03 -0.23330808D-03 -0.27782062D-03
 -0.15430938D-04 -0.20930663D-06  0.43742297D-07  0.64541099D-04  0.10947392D-03
  0.12463219D-03 -0.12295452D-04  0.12424148D-03  0.22867065D-03  0.37003228D-03
  0.48641779D-03  0.41719771D-03  0.14264698D-03 -0.73340554D-03 -0.32724412D-03
  0.96635627D-03  0.16254219D-03  0.12523000D-03  0.54982713D-04 -0.69727293D-04
 -0.53721120D-04 -0.23586465D-04 -0.84414161D-07 -0.65036561D-07 -0.28554553D-07
 -0.17942772D-02  0.57428892D-03 -0.58808305D-03  0.37501322D-06  0.67183723D-04
  0.23620371D-03  0.10630981D-02  0.12536315D-02 -0.78683997D-06  0.81823958D-06
 -0.20445057D-04 -0.37717137D-04 -0.60887155D-04 -0.79256984D-04 -0.67630128D-04
 -0.23351058D-04  0.60314903D-04  0.27799083D-04 -0.77951532D-04  0.39629669D-06
  0.30385517D-06  0.15164503D-06  0.25975171D-04  0.19916114D-04  0.99395366D-05
  0.96537130D-07  0.74018548D-07  0.36940443D-07  0.45107549D-04  0.90826385D-04
 -0.10524931D-03 -0.92491997D-07  0.53831162D-04 -0.54311711D-04 -0.67739526D-04
 -0.35674219D-04 -0.11543178D-06 -0.62559475D-07 -0.19886086D-04 -0.33730565D-04
 -0.38401056D-04 -0.36709998D-04  0.58866663D-05  0.99849001D-05  0.11367456D-04
  0.69263322D-04
MO    4     MO 0.0        OCC NO =    1.0000000  ORB. ENERGY =  -10.049605
 -0.16559514D-01 -0.30549071D-01 -0.49315672D-01 -0.64194352D-01 -0.54777157D-01
 -0.18913236D-01  0.90852334D-03  0.41873758D-03 -0.11741839D-02 -0.86811242D-04
 -0.66561354D-04 -0.33218781D-04 -0.23239955D-03 -0.17818924D-03 -0.88928917D-04
 -0.45205327D-07 -0.34660577D-07 -0.17298057D-07  0.22382647D-02 -0.85457525D-03
  0.10265389D-02 -0.12020783D-06 -0.12942987D-03 -0.29847845D-03 -0.35466542D-04
 -0.24688209D-03 -0.32020205D-08  0.64690479D-07 -0.11048706D-03 -0.20382704D-03
 -0.32904005D-03 -0.42831238D-03 -0.36547973D-03 -0.12619137D-03 -0.79585517D-04
 -0.36680892D-04  0.10285705D-03 -0.14101575D-03 -0.10812193D-03 -0.53960421D-04
 -0.90626208D-04 -0.69486428D-04 -0.34678598D-04 -0.49429907D-07 -0.37899717D-07
 -0.18914615D-07 -0.15387141D-02 -0.13002294D-03 -0.73805442D-03 -0.25131301D-06
  0.13239512D-03 -0.15006560D-04  0.25578273D-04  0.16626501D-04  0.86427646D-07
 -0.30884140D-06 -0.92177545D-04 -0.17004957D-03 -0.27451273D-03 -0.35733401D-03
 -0.30491376D-03 -0.10527939D-03  0.14059053D-03  0.64798046D-04 -0.18170048D-03
 -0.15880167D-03 -0.12175904D-03 -0.60766297D-04 -0.43226547D-04 -0.33143375D-04
 -0.16540867D-04  0.30537908D-07  0.23414531D-07  0.11685492D-07  0.97152706D-03
  0.72593961D-03  0.87213571D-04 -0.82519956D-07 -0.72389748D-04  0.47100156D-04
 -0.14538743D-03 -0.90415187D-04 -0.81735961D-07  0.27289722D-07  0.24965657D-04
  0.46056762D-04  0.74349894D-04  0.96781471D-04  0.82583805D-04  0.28514203D-04
 -0.79373501D-04 -0.36583174D-04  0.10258304D-03 -0.20732890D-03 -0.15896665D-03
 -0.79335499D-04 -0.12033502D-04 -0.92265261D-05 -0.46046832D-05 -0.10505196D-07
 -0.80547182D-08 -0.40198689D-08 -0.15132809D-02 -0.58208244D-03  0.33572725D-03
  0.11693385D-06  0.50665382D-04  0.24509418D-04  0.21613023D-04 -0.53892105D-05
  0.26887679D-07 -0.17087599D-06  0.16669639D-02  0.30752229D-02  0.49643633D-02
  0.64621260D-02  0.55141438D-02  0.19039013D-02  0.23595101D-03  0.10874961D-03
 -0.30494525D-03 -0.71343520D-04 -0.54701686D-04 -0.27299975D-04  0.29758284D-03
  0.22816764D-03  0.11387165D-03  0.24429000D-07  0.18730608D-07  0.93478861D-08
  0.24435168D-02 -0.28214758D-03 -0.11658466D-02  0.28564945D-08 -0.48802820D-03
 -0.29646322D-03 -0.37079068D-03  0.35853228D-03 -0.59640842D-07 -0.72818459D-07
  0.53232375D+00  0.98203338D+00  0.15853064D+01  0.20635978D+01  0.17608718D+01
  0.60798671D+00 -0.20023799D-01 -0.92289507D-02  0.25878941D-01  0.96247687D-03
  0.73796622D-03  0.36829686D-03  0.67065121D-04  0.51421281D-04  0.25662823D-04
 -0.50716778D-06 -0.38886409D-06 -0.19407043D-06 -0.31241579D-02  0.19579934D-02
  0.50398966D-03 -0.17769740D-07 -0.92234849D-02 -0.10305202D-01 -0.10403403D-01
  0.39964105D-03 -0.76554148D-06 -0.25285996D-06 -0.32945803D-04 -0.55882318D-04
 -0.63620044D-04 -0.18053892D-03 -0.20932336D-04 -0.35505204D-04 -0.40421420D-04
 -0.14006357D-03  0.44061626D-04  0.74736858D-04  0.85085271D-04  0.35386050D-03
  0.92407497D-04  0.17007912D-03  0.27522013D-03  0.36178456D-03  0.31030051D-03
  0.10609702D-03 -0.86646159D-03 -0.38661347D-03  0.11416748D-02  0.11821947D-03
  0.91081727D-04  0.39989784D-04  0.58320405D-04  0.44932728D-04  0.19727888D-04
  0.47921792D-06  0.36921157D-06  0.16210377D-06 -0.25860126D-02  0.93786983D-03
  0.19416829D-03 -0.53958787D-06  0.15343487D-03  0.98642569D-03  0.11454247D-02
 -0.43304574D-03  0.88237815D-06  0.17100840D-06  0.22657265D-05  0.38431010D-05
  0.43752346D-05  0.35708205D-04 -0.91696263D-04 -0.16877007D-03 -0.27310184D-03
 -0.35900001D-03 -0.30791222D-03 -0.10528042D-03  0.33967141D-03  0.15156072D-03
 -0.44756084D-03  0.17318549D-03  0.13343008D-03  0.58582994D-04  0.35670657D-04
  0.27482318D-04  0.12066218D-04  0.15809950D-06  0.12180714D-06  0.53479895D-07
  0.97490652D-03 -0.27131903D-03  0.92879615D-04 -0.18799814D-06 -0.25757931D-03
 -0.30117808D-03 -0.37486950D-03 -0.16025584D-03  0.25487650D-06 -0.12647275D-06
  0.63596723D-05  0.11732354D-04  0.18939656D-04  0.24653805D-04  0.21037137D-04
  0.72636177D-05  0.17025283D-05  0.78469373D-06 -0.22003631D-05  0.87658506D-04
  0.67210982D-04  0.33542991D-04  0.39124299D-04  0.29998031D-04  0.14971120D-04
 -0.33601537D-07 -0.25763528D-07 -0.12857806D-07  0.37277682D-03  0.95419137D-04
  0.34442575D-04  0.84081826D-08  0.27121360D-04  0.24501276D-04  0.48063565D-05
  0.16395747D-04  0.15827171D-08 -0.27979528D-09 -0.48119919D-05 -0.81620490D-05
 -0.92922043D-05 -0.19138378D-05 -0.33515269D-05 -0.56848239D-05 -0.64719711D-05
 -0.13998181D-04
MO    5     MO 0.0        OCC NO =    1.0000000  ORB. ENERGY =  -10.013137
 -0.55345589D-04 -0.10210180D-03 -0.16482397D-03 -0.21455184D-03 -0.18307747D-03
 -0.63212251D-04 -0.30035990D-04 -0.13843560D-04  0.38818789D-04  0.13716026D-04
  0.10516579D-04  0.52485100D-05 -0.38437515D-07 -0.29471448D-07 -0.14708318D-07
 -0.10714371D-06 -0.82151001D-07 -0.40999107D-07 -0.67917776D-03  0.31632576D-03
 -0.13713771D-03  0.10467433D-06  0.83542157D-04  0.42922046D-04  0.28969045D-04
  0.32328939D-04 -0.28308462D-07  0.13492850D-06  0.75070494D-02  0.13849040D-01
  0.22356645D-01  0.29101709D-01  0.24832541D-01  0.85740797D-02 -0.78851101D-04
 -0.36342401D-04  0.10190788D-03  0.25819051D-03  0.19796410D-03  0.98797962D-04
 -0.34674670D-03 -0.26586337D-03 -0.13268446D-03 -0.56340036D-07 -0.43197966D-07
 -0.21558813D-07  0.15051175D-02 -0.41695281D-04  0.53969488D-03  0.17785580D-06
 -0.56859192D-03 -0.57475165D-03 -0.38359068D-03  0.37961176D-03  0.19866588D-06
 -0.90924364D-08  0.53222181D+00  0.98184532D+00  0.15850028D+01  0.20632027D+01
  0.17605346D+01  0.60787028D+00 -0.19767626D-01 -0.91108807D-02  0.25547861D-01
  0.11599840D-03  0.88940218D-04  0.44387402D-04 -0.18342561D-04 -0.14063912D-04
 -0.70188780D-05 -0.13851988D-06 -0.10620826D-06 -0.53005364D-07 -0.35243284D-02
 -0.41488676D-03 -0.10348178D-03  0.21690503D-07 -0.98622804D-02 -0.10165689D-01
 -0.10448063D-01  0.94310020D-04 -0.94047566D-07  0.96593526D-07  0.13438057D-01
  0.24790591D-01  0.40019701D-01  0.52093759D-01  0.44451699D-01  0.15348103D-01
 -0.31889763D-03 -0.14697962D-03  0.41214621D-03  0.21047412D-04  0.16137820D-04
  0.80539034D-05  0.39037360D-03  0.29931371D-03  0.14937852D-03  0.61840913D-07
  0.47415690D-07  0.23663752D-07  0.13571822D-02  0.22023132D-03 -0.49824891D-03
 -0.10458751D-06 -0.52554413D-03 -0.84118963D-03 -0.49075228D-03 -0.18999699D-03
 -0.14190795D-07 -0.11532482D-06  0.32056536D-03  0.59138049D-03  0.95467148D-03
  0.12426986D-02  0.10603970D-02  0.36612959D-03 -0.52940866D-04 -0.24400397D-04
  0.68421259D-04  0.45982686D-04  0.35256607D-04  0.17595518D-04  0.26567941D-04
  0.20370612D-04  0.10166363D-04 -0.17129073D-07 -0.13133487D-07 -0.65545305D-08
 -0.71436514D-03  0.69625891D-04  0.34206198D-03  0.11884633D-07  0.66994348D-04
  0.33197024D-04  0.26650163D-04  0.30680608D-04 -0.28887529D-07  0.58942563D-07
  0.28827711D-04  0.53181497D-04  0.85851426D-04  0.11175305D-03  0.95359078D-04
  0.32925198D-04  0.88648790D-04  0.40858146D-04 -0.11457051D-03  0.41886012D-04
  0.32115537D-04  0.16027904D-04  0.61212290D-05  0.46933701D-05  0.23423206D-05
 -0.26891017D-07 -0.20618327D-07 -0.10289990D-07  0.46707218D-03 -0.35127630D-03
 -0.13765304D-04 -0.14832308D-07 -0.48573577D-04 -0.39192930D-04 -0.10045790D-03
 -0.23281115D-04  0.39515863D-08  0.75067199D-07 -0.17596532D-05 -0.29847048D-05
 -0.33979809D-05  0.99046017D-04  0.74972819D-06  0.12716809D-05  0.14477638D-05
  0.10853521D-03 -0.15179749D-04 -0.25747727D-04 -0.29312878D-04 -0.81602457D-04
 -0.24734172D-04 -0.45524080D-04 -0.73666555D-04 -0.96836748D-04 -0.83056316D-04
 -0.28398365D-04  0.83068849D-04  0.37065158D-04 -0.10945391D-03 -0.76587492D-05
 -0.59006534D-05 -0.25907047D-05 -0.12325016D-04 -0.94957607D-05 -0.41691504D-05
 -0.59681717D-07 -0.45981545D-07 -0.20188375D-07  0.28875104D-03 -0.44612449D-04
 -0.16206068D-04  0.59316096D-07 -0.86319335D-04 -0.92027949D-04 -0.74070685D-04
  0.13110385D-04 -0.48788712D-07 -0.95965548D-08  0.57343845D-05  0.97266015D-05
  0.11073392D-04  0.64173986D-05  0.16093576D-05  0.29620771D-05  0.47931998D-05
  0.63007954D-05  0.54041556D-05  0.18477726D-05 -0.10779770D-04 -0.48099123D-05
  0.14203735D-04  0.70677905D-04  0.54453515D-04  0.23908026D-04  0.10806503D-04
  0.83258284D-05  0.36554871D-05  0.12786754D-06  0.98515048D-07  0.43253412D-07