 Generated by Multiwfn (http://sobereva.com/multiwfn)
GAUSSIAN             63 MOL ORBITALS    276 PRIMITIVES       15 NUCLEI
  C    1    (CENTRE  1)   1.40060465 -1.48472723 -0.00007367  CHARGE =  6.0
  C    2    (CENTRE  2)  -1.05300621 -2.18679102 -0.00083145  CHARGE =  6.0
  C    3    (CENTRE  3)  -3.03685038 -0.29195343 -0.00020406  CHARGE =  6.0
  C    4    (CENTRE  4)  -2.30284706  2.37068400  0.00024758  CHARGE =  6.0
  C    5    (CENTRE  5)   0.13706518  3.09739737  0.00013420  CHARGE =  6.0
  C    6    (CENTRE  6)   2.15891740  1.22012479  0.00013609  CHARGE =  6.0
  H    7    (CENTRE  7)  -1.55872503 -4.17135500 -0.00125286  CHARGE =  1.0
  H    8    (CENTRE  8)  -3.80602798  3.76515052  0.00052159  CHARGE =  1.0
  H    9    (CENTRE  9)   0.70158094  5.06533366  0.00013987  CHARGE =  1.0
  O   10    (CENTRE 10)   4.42840472  1.72564759 -0.00048752  CHARGE =  8.0
  H   11    (CENTRE 11)   4.85126352 -2.05096624  0.00015688  CHARGE =  1.0
  O   12    (CENTRE 12)   3.34397085 -3.11610111  0.00077860  CHARGE =  8.0
  C   13    (CENTRE 13)  -5.51505226 -0.91473943  0.00000948  CHARGE =  6.0
  H   14    (CENTRE 14)  -6.12847035 -2.86840829  0.00033262  CHARGE =  1.0
  H   15    (CENTRE 15)  -6.97161365  0.52390323  0.00126426  CHARGE =  1.0
CENTRE ASSIGNMENTS    1  1  1  1  1  1  1  1  1  1  1  1  1  1  1  1  1  1  1  1
CENTRE ASSIGNMENTS    1  1  1  1  1  1  1  1  2  2  2  2  2  2  2  2  2  2  2  2
CENTRE ASSIGNMENTS    2  2  2  2  2  2  2  2  2  2  2  2  2  2  2  2  3  3  3  3
CENTRE ASSIGNMENTS    3  3  3  3  3  3  3  3  3  3  3  3  3  3  3  3  3  3  3  3
CENTRE ASSIGNMENTS    3  3  3  3  4  4  4  4  4  4  4  4  4  4  4  4  4  4  4  4
CENTRE ASSIGNMENTS    4  4  4  4  4  4  4  4  4  4  4  4  5  5  5  5  5  5  5  5
CENTRE ASSIGNMENTS    5  5  5  5  5  5  5  5  5  5  5  5  5  5  5  5  5  5  5  5
CENTRE ASSIGNMENTS    6  6  6  6  6  6  6  6  6  6  6  6  6  6  6  6  6  6  6  6
CENTRE ASSIGNMENTS    6  6  6  6  6  6  6  6  7  7  7  7  8  8  8  8  9  9  9  9
CENTRE ASSIGNMENTS   10 10 10 10 10 10 10 10 10 10 10 10 10 10 10 10 10 10 10 10
CENTRE ASSIGNMENTS   10 10 10 10 10 10 10 10 11 11 11 11 12 12 12 12 12 12 12 12
CENTRE ASSIGNMENTS   12 12 12 12 12 12 12 12 12 12 12 12 12 12 12 12 12 12 12 12
CENTRE ASSIGNMENTS   13 13 13 13 13 13 13 13 13 13 13 13 13 13 13 13 13 13 13 13
CENTRE ASSIGNMENTS   13 13 13 13 13 13 13 13 14 14 14 14 15 15 15 15
TYPE ASSIGNMENTS      1  1  1  1  1  1  1  1  1  2  2  2  3  3  3  4  4  4  1  2
TYPE ASSIGNMENTS      3  4  5  6  7  8  9 10  1  1  1  1  1  1  1  1  1  2  2  2
TYPE ASSIGNMENTS      3  3  3  4  4  4  1  2  3  4  5  6  7  8  9 10  1  1  1  1
TYPE ASSIGNMENTS      1  1  1  1  1  2  2  2  3  3  3  4  4  4  1  2  3  4  5  6
TYPE ASSIGNMENTS      7  8  9 10  1  1  1  1  1  1  1  1  1  2  2  2  3  3  3  4
TYPE ASSIGNMENTS      4  4  1  2  3  4  5  6  7  8  9 10  1  1  1  1  1  1  1  1
TYPE ASSIGNMENTS      1  2  2  2  3  3  3  4  4  4  1  2  3  4  5  6  7  8  9 10
TYPE ASSIGNMENTS      1  1  1  1  1  1  1  1  1  2  2  2  3  3  3  4  4  4  1  2
TYPE ASSIGNMENTS      3  4  5  6  7  8  9 10  1  1  1  1  1  1  1  1  1  1  1  1
TYPE ASSIGNMENTS      1  1  1  1  1  1  1  1  1  2  2  2  3  3  3  4  4  4  1  2
TYPE ASSIGNMENTS      3  4  5  6  7  8  9 10  1  1  1  1  1  1  1  1  1  1  1  1
TYPE ASSIGNMENTS      1  2  2  2  3  3  3  4  4  4  1  2  3  4  5  6  7  8  9 10
TYPE ASSIGNMENTS      1  1  1  1  1  1  1  1  1  2  2  2  3  3  3  4  4  4  1  2
TYPE ASSIGNMENTS      3  4  5  6  7  8  9 10  1  1  1  1  1  1  1  1
EXPONENTS  0.3047525D+04 0.4573695D+03 0.1039487D+03 0.2921016D+02 0.9286663D+01
EXPONENTS  0.3163927D+01 0.7868272D+01 0.1881289D+01 0.5442493D+00 0.7868272D+01
EXPONENTS  0.1881289D+01 0.5442493D+00 0.7868272D+01 0.1881289D+01 0.5442493D+00
EXPONENTS  0.7868272D+01 0.1881289D+01 0.5442493D+00 0.1687145D+00 0.1687145D+00
EXPONENTS  0.1687145D+00 0.1687145D+00 0.8000000D+00 0.8000000D+00 0.8000000D+00
EXPONENTS  0.8000000D+00 0.8000000D+00 0.8000000D+00 0.3047525D+04 0.4573695D+03
EXPONENTS  0.1039487D+03 0.2921016D+02 0.9286663D+01 0.3163927D+01 0.7868272D+01
EXPONENTS  0.1881289D+01 0.5442493D+00 0.7868272D+01 0.1881289D+01 0.5442493D+00
EXPONENTS  0.7868272D+01 0.1881289D+01 0.5442493D+00 0.7868272D+01 0.1881289D+01
EXPONENTS  0.5442493D+00 0.1687145D+00 0.1687145D+00 0.1687145D+00 0.1687145D+00
EXPONENTS  0.8000000D+00 0.8000000D+00 0.8000000D+00 0.8000000D+00 0.8000000D+00
EXPONENTS  0.8000000D+00 0.3047525D+04 0.4573695D+03 0.1039487D+03 0.2921016D+02
EXPONENTS  0.9286663D+01 0.3163927D+01 0.7868272D+01 0.1881289D+01 0.5442493D+00
EXPONENTS  0.7868272D+01 0.1881289D+01 0.5442493D+00 0.7868272D+01 0.1881289D+01
EXPONENTS  0.5442493D+00 0.7868272D+01 0.1881289D+01 0.5442493D+00 0.1687145D+00
EXPONENTS  0.1687145D+00 0.1687145D+00 0.1687145D+00 0.8000000D+00 0.8000000D+00
EXPONENTS  0.8000000D+00 0.8000000D+00 0.8000000D+00 0.8000000D+00 0.3047525D+04
EXPONENTS  0.4573695D+03 0.1039487D+03 0.2921016D+02 0.9286663D+01 0.3163927D+01
EXPONENTS  0.7868272D+01 0.1881289D+01 0.5442493D+00 0.7868272D+01 0.1881289D+01
EXPONENTS  0.5442493D+00 0.7868272D+01 0.1881289D+01 0.5442493D+00 0.7868272D+01
EXPONENTS  0.1881289D+01 0.5442493D+00 0.1687145D+00 0.1687145D+00 0.1687145D+00
EXPONENTS  0.1687145D+00 0.8000000D+00 0.8000000D+00 0.8000000D+00 0.8000000D+00
EXPONENTS  0.8000000D+00 0.8000000D+00 0.3047525D+04 0.4573695D+03 0.1039487D+03
EXPONENTS  0.2921016D+02 0.9286663D+01 0.3163927D+01 0.7868272D+01 0.1881289D+01
EXPONENTS  0.5442493D+00 0.7868272D+01 0.1881289D+01 0.5442493D+00 0.7868272D+01
EXPONENTS  0.1881289D+01 0.5442493D+00 0.7868272D+01 0.1881289D+01 0.5442493D+00
EXPONENTS  0.1687145D+00 0.1687145D+00 0.1687145D+00 0.1687145D+00 0.8000000D+00
EXPONENTS  0.8000000D+00 0.8000000D+00 0.8000000D+00 0.8000000D+00 0.8000000D+00
EXPONENTS  0.3047525D+04 0.4573695D+03 0.1039487D+03 0.2921016D+02 0.9286663D+01
EXPONENTS  0.3163927D+01 0.7868272D+01 0.1881289D+01 0.5442493D+00 0.7868272D+01
EXPONENTS  0.1881289D+01 0.5442493D+00 0.7868272D+01 0.1881289D+01 0.5442493D+00
EXPONENTS  0.7868272D+01 0.1881289D+01 0.5442493D+00 0.1687145D+00 0.1687145D+00
EXPONENTS  0.1687145D+00 0.1687145D+00 0.8000000D+00 0.8000000D+00 0.8000000D+00
EXPONENTS  0.8000000D+00 0.8000000D+00 0.8000000D+00 0.1873114D+02 0.2825394D+01
EXPONENTS  0.6401217D+00 0.1612778D+00 0.1873114D+02 0.2825394D+01 0.6401217D+00
EXPONENTS  0.1612778D+00 0.1873114D+02 0.2825394D+01 0.6401217D+00 0.1612778D+00
EXPONENTS  0.5484672D+04 0.8252349D+03 0.1880470D+03 0.5296450D+02 0.1689757D+02
EXPONENTS  0.5799635D+01 0.1553962D+02 0.3599934D+01 0.1013762D+01 0.1553962D+02
EXPONENTS  0.3599934D+01 0.1013762D+01 0.1553962D+02 0.3599934D+01 0.1013762D+01
EXPONENTS  0.1553962D+02 0.3599934D+01 0.1013762D+01 0.2700058D+00 0.2700058D+00
EXPONENTS  0.2700058D+00 0.2700058D+00 0.8000000D+00 0.8000000D+00 0.8000000D+00
EXPONENTS  0.8000000D+00 0.8000000D+00 0.8000000D+00 0.1873114D+02 0.2825394D+01
EXPONENTS  0.6401217D+00 0.1612778D+00 0.5484672D+04 0.8252349D+03 0.1880470D+03
EXPONENTS  0.5296450D+02 0.1689757D+02 0.5799635D+01 0.1553962D+02 0.3599934D+01
EXPONENTS  0.1013762D+01 0.1553962D+02 0.3599934D+01 0.1013762D+01 0.1553962D+02
EXPONENTS  0.3599934D+01 0.1013762D+01 0.1553962D+02 0.3599934D+01 0.1013762D+01
EXPONENTS  0.2700058D+00 0.2700058D+00 0.2700058D+00 0.2700058D+00 0.8000000D+00
EXPONENTS  0.8000000D+00 0.8000000D+00 0.8000000D+00 0.8000000D+00 0.8000000D+00
EXPONENTS  0.3047525D+04 0.4573695D+03 0.1039487D+03 0.2921016D+02 0.9286663D+01
EXPONENTS  0.3163927D+01 0.7868272D+01 0.1881289D+01 0.5442493D+00 0.7868272D+01
EXPONENTS  0.1881289D+01 0.5442493D+00 0.7868272D+01 0.1881289D+01 0.5442493D+00
EXPONENTS  0.7868272D+01 0.1881289D+01 0.5442493D+00 0.1687145D+00 0.1687145D+00
EXPONENTS  0.1687145D+00 0.1687145D+00 0.8000000D+00 0.8000000D+00 0.8000000D+00
EXPONENTS  0.8000000D+00 0.8000000D+00 0.8000000D+00 0.1873114D+02 0.2825394D+01
EXPONENTS  0.6401217D+00 0.1612778D+00 0.1873114D+02 0.2825394D+01 0.6401217D+00
EXPONENTS  0.1612778D+00
MO    1     MO 0.0        OCC NO =    1.0000000  ORB. ENERGY =  -19.423635
 -0.30156918D-04 -0.55633626D-04 -0.89809922D-04 -0.11690583D-03 -0.99755959D-04
 -0.34443336D-04 -0.72679056D-04 -0.33497711D-04  0.93931077D-04  0.39908900D-03
  0.30599613D-03  0.15271351D-03 -0.42045703D-03 -0.32237978D-03 -0.16089011D-03
  0.19275028D-06  0.14778869D-06  0.73756915D-07  0.34517543D-04 -0.56015077D-03
  0.61622104D-03 -0.19290394D-06 -0.17323565D-03 -0.72765431D-04 -0.12530784D-03
  0.14092608D-03 -0.73905558D-07  0.91324749D-07  0.76467026D-05  0.14106673D-04
  0.22772544D-04  0.29643086D-04  0.25294499D-04  0.87335828D-05 -0.63091285D-04
 -0.29078715D-04  0.81539753D-04 -0.13152618D-04 -0.10084593D-04 -0.50329188D-05
  0.24249638D-04  0.18593084D-04  0.92792522D-05 -0.11481728D-08 -0.88034610D-09
 -0.43935440D-09 -0.38804984D-03 -0.13613128D-04 -0.32384193D-03 -0.47679652D-07
 -0.61500115D-04 -0.53147181D-04  0.31153294D-04 -0.62552041D-05  0.53665180D-08
 -0.32801712D-07 -0.34416636D-06 -0.63491973D-06 -0.10249573D-05 -0.13341899D-05
 -0.11384666D-05 -0.39308517D-06  0.13859630D-04  0.63878910D-05 -0.17912313D-04
  0.85658143D-04  0.65677231D-04  0.32777541D-04 -0.30539926D-04 -0.23416078D-04
 -0.11686264D-04 -0.22999525D-07 -0.17634577D-07 -0.88008899D-08  0.31838792D-03
  0.54141718D-04 -0.32364201D-04 -0.38706830D-07  0.27066797D-04  0.37763193D-04
  0.17167620D-04 -0.24969675D-04 -0.95210126D-07  0.40219759D-07  0.82475634D-05
  0.15215144D-04  0.24561960D-04  0.31972374D-04  0.27282085D-04  0.94198483D-05
 -0.32539145D-04 -0.14997262D-04  0.42053888D-04 -0.14071864D-04 -0.10789413D-04
 -0.53846733D-05 -0.43220698D-04 -0.33138890D-04 -0.16538629D-04 -0.19394148D-07
 -0.14870203D-07 -0.74212733D-08 -0.27017620D-03 -0.11393070D-03  0.50483464D-04
  0.26085718D-07 -0.17332361D-04  0.85851743D-05  0.36903319D-04 -0.50212794D-04
 -0.10474944D-07 -0.28859771D-07 -0.40467392D-05 -0.74654436D-05 -0.12051541D-04
 -0.15687525D-04 -0.13386194D-04 -0.46219310D-05  0.26131840D-04  0.12044141D-04
 -0.33773030D-04  0.78233717D-04  0.59984652D-04  0.29936545D-04 -0.74109083D-04
 -0.56822144D-04 -0.28358232D-04 -0.16799460D-08 -0.12880760D-08 -0.64284021D-09
  0.40512273D-03 -0.82514930D-04 -0.18425096D-03 -0.31530690D-08  0.26733515D-04
  0.29811991D-04 -0.24521359D-05 -0.22920316D-04 -0.30835104D-07 -0.24987094D-07
  0.28605153D-04  0.52770921D-04  0.85188629D-04  0.11089028D-03  0.94622879D-04
  0.32671006D-04 -0.13216307D-03 -0.60913840D-04  0.17080877D-03  0.28749380D-04
  0.22043201D-04  0.11001102D-04  0.93191428D-04  0.71453276D-04  0.35660193D-04
  0.37690375D-08  0.28898589D-08  0.14422421D-08 -0.37643748D-03  0.48667395D-03
  0.13570490D-03  0.28458814D-07  0.50586097D-04 -0.55067810D-04  0.79145653D-04
  0.39300281D-04 -0.11550767D-06 -0.91381836D-07 -0.13630045D-04 -0.23119136D-04
 -0.26320319D-04 -0.12928940D-03 -0.43468974D-05 -0.73731607D-05 -0.83940829D-05
 -0.28788766D-04  0.10716964D-04  0.18177999D-04  0.20695010D-04  0.47657443D-04
  0.28417931D-04  0.52304164D-04  0.84638011D-04  0.11125903D-03  0.95426227D-04
  0.32627848D-04 -0.18389551D-03 -0.82053820D-04  0.24230603D-03 -0.10639514D-03
 -0.81971723D-04 -0.35990002D-04  0.76919402D-04  0.59262253D-04  0.26019321D-04
  0.24108737D-06  0.18574482D-06  0.81551983D-07 -0.58526455D-03  0.17930691D-03
 -0.31234559D-04 -0.14064616D-06  0.12558810D-03  0.23291068D-03  0.19028318D-03
 -0.46602536D-04  0.14692508D-06  0.37972800D-07  0.84182245D-04  0.14278902D-03
  0.16256025D-03 -0.22478699D-03  0.82557347D+00  0.15194959D+01  0.24588312D+01
  0.32322024D+01  0.27722412D+01  0.94787636D+00 -0.15812810D-01 -0.70556448D-02
  0.20835414D-01  0.91855632D-04  0.70769812D-04  0.31071759D-04  0.33083809D-02
  0.25489291D-02  0.11191172D-02 -0.14038137D-05 -0.10815628D-05 -0.47486432D-06
  0.40870199D-02 -0.32895728D-03  0.21014405D-03 -0.18886866D-06 -0.93086535D-02
 -0.94240034D-02 -0.93226522D-02 -0.17138862D-03  0.86455411D-07 -0.61670038D-08
  0.43205837D-05  0.79706334D-05  0.12867074D-04  0.16749107D-04  0.14292043D-04
  0.49346990D-05 -0.18267792D-04 -0.84196085D-05  0.23609461D-04 -0.20288103D-04
 -0.15555630D-04 -0.77633497D-05 -0.39893503D-05 -0.30587808D-05 -0.15265460D-05
 -0.11083555D-08 -0.84981667D-09 -0.42411808D-09 -0.63684386D-04 -0.31162511D-04
  0.71937943D-06  0.11368622D-07 -0.17679263D-04  0.89096309D-05  0.19715979D-04
 -0.11247105D-04  0.21679584D-07  0.52129009D-08  0.26330499D-05  0.44661510D-05
  0.50845550D-05  0.37018048D-05  0.27248133D-05  0.46217990D-05  0.52617548D-05
 -0.61577720D-05
MO    2     MO 0.0        OCC NO =    1.0000000  ORB. ENERGY =  -19.360404
  0.25559787D-04  0.47152815D-04  0.76119265D-04  0.99084665D-04  0.84549124D-04
  0.29192781D-04 -0.11168307D-03 -0.51474627D-04  0.14434023D-03 -0.20381229D-05
 -0.15627033D-05 -0.77989849D-06 -0.83707527D-04 -0.64181623D-04 -0.32031128D-04
  0.53007585D-07  0.40642854D-07  0.20283633D-07 -0.51961707D-03  0.47973478D-03
 -0.37659463D-03  0.32838607D-07  0.87747654D-05  0.30113873D-04  0.67761517D-04
 -0.20302776D-03  0.44452298D-07 -0.14957872D-06 -0.22411350D-05 -0.41344565D-05
 -0.66742947D-05 -0.86879486D-05 -0.74134423D-05 -0.25596835D-05  0.18015976D-04
  0.83035471D-05 -0.23284013D-04  0.12028897D-03  0.92229955D-04  0.46029211D-04
  0.49493639D-04  0.37948583D-04  0.18939003D-04  0.78144540D-07  0.59916277D-07
  0.29902422D-07  0.57595016D-03  0.39918267D-04  0.26455987D-03  0.98471797D-07
  0.38626915D-04  0.19577793D-04  0.11203457D-04 -0.86711865D-05  0.52709577D-07
  0.93383202D-07  0.10880193D-04  0.20071832D-04  0.32402161D-04  0.42177986D-04
  0.35990552D-04  0.12426673D-04 -0.42633027D-04 -0.19649523D-04  0.55099315D-04
  0.57384186D-04  0.43998554D-04  0.21958362D-04  0.24206168D-04  0.18559755D-04
  0.92626183D-05  0.21684678D-07  0.16626436D-07  0.82977567D-08 -0.27939580D-03
 -0.24027315D-03  0.62837376D-05  0.27151350D-07  0.29189638D-04 -0.36662972D-04
  0.49411498D-04  0.63796114D-04  0.44280170D-07 -0.28782879D-07  0.51644298D-06
  0.95273646D-06  0.15380121D-05  0.20020347D-05  0.17083399D-05  0.58984870D-06
  0.45479235D-05  0.20961338D-05 -0.58777779D-05  0.12812485D-03  0.98238007D-04
  0.49027651D-04  0.12384876D-04  0.94959374D-05  0.47391383D-05  0.17544702D-07
  0.13452164D-07  0.67135728D-08  0.46817263D-03  0.17823737D-03 -0.55378875D-04
 -0.26833879D-07  0.30134096D-04  0.18974433D-04  0.25629982D-04  0.76469518D-04
 -0.35544509D-08  0.66157257D-07  0.11919167D-04  0.21988535D-04  0.35496314D-04
  0.46205654D-04  0.39427368D-04  0.13613323D-04 -0.73650971D-04 -0.33945665D-04
  0.95187188D-04 -0.75570392D-04 -0.57942583D-04 -0.28917410D-04 -0.46920970D-05
 -0.35976023D-05 -0.17954557D-05  0.49446379D-08  0.37912347D-08  0.18920918D-08
 -0.64746456D-03  0.20346682D-03  0.38717950D-03 -0.39625790D-07 -0.82918926D-04
 -0.11480844D-04  0.43200145D-04 -0.42876151D-04  0.47653841D-07  0.92773425D-07
 -0.41138333D-04 -0.75892192D-04 -0.12251353D-03 -0.15947621D-03 -0.13608134D-03
 -0.46985617D-04 -0.82162477D-04 -0.37868610D-04  0.10618754D-03  0.86547273D-04
  0.66358959D-04  0.33117772D-04  0.12610284D-04  0.96687662D-05  0.48253920D-05
 -0.17780097D-07 -0.13632651D-07 -0.68036482D-08 -0.20911802D-03 -0.10973191D-02
 -0.26248730D-03  0.15931423D-06 -0.10628243D-02 -0.15478553D-03 -0.18792114D-03
 -0.35640210D-03  0.59884335D-06  0.18775961D-06  0.12812820D-04  0.21732969D-04
  0.24742217D-04  0.64026893D-04  0.40544034D-05  0.68770355D-05  0.78292619D-05
  0.26835492D-04 -0.22916511D-04 -0.38870740D-04 -0.44252963D-04 -0.15146654D-03
  0.82557323D+00  0.15194955D+01  0.24588305D+01  0.32322015D+01  0.27722404D+01
  0.94787608D+00 -0.15588489D-01 -0.69555535D-02  0.20539842D-01 -0.34919122D-02
 -0.26903301D-02 -0.11811998D-02 -0.10603035D-02 -0.81690672D-03 -0.35866605D-03
  0.80918851D-06  0.62343613D-06  0.27372204D-06  0.46550885D-02 -0.63918291D-03
 -0.14604660D-03  0.27219608D-06 -0.88912014D-02 -0.94853828D-02 -0.94685624D-02
  0.27061400D-03 -0.39052586D-06 -0.16302920D-06 -0.11075674D-04 -0.18786439D-04
 -0.21387696D-04 -0.10422005D-03  0.74455037D-04  0.13703701D-03  0.22175176D-03
  0.29149889D-03  0.25001691D-03  0.85485026D-04 -0.17471337D-03 -0.77956764D-04
  0.23020737D-03 -0.18079519D-03 -0.13929295D-03 -0.61157107D-04  0.48505248D-04
  0.37370678D-04  0.16407741D-04 -0.20747134D-06 -0.15984548D-06 -0.70180776D-07
 -0.53779832D-03  0.23380196D-03 -0.81442929D-04  0.14089625D-06  0.16138055D-03
  0.17304173D-03  0.18423810D-03  0.17632746D-03 -0.18357679D-06  0.13213725D-06
  0.14329328D-06  0.26434813D-06  0.42673984D-06  0.55548848D-06  0.47399933D-06
  0.16366058D-06 -0.25288401D-05 -0.11655401D-05  0.32682961D-05 -0.35338818D-04
 -0.27095564D-04 -0.13522586D-04 -0.11828329D-04 -0.90692126D-05 -0.45261727D-05
  0.64946242D-08  0.49796659D-08  0.24852023D-08 -0.13060525D-03 -0.31914283D-04
 -0.23638571D-04 -0.20700576D-08 -0.12562382D-04 -0.52410280D-05  0.15497626D-05
 -0.14032522D-04  0.95137779D-08 -0.19686408D-08  0.71899359D-06  0.12195492D-05
  0.13884137D-05 -0.44416950D-05  0.24708362D-05  0.41910058D-05  0.47713120D-05
  0.10459914D-04
MO    3     MO 0.0        OCC NO =    1.0000000  ORB. ENERGY =  -10.498115
  0.53249766D+00  0.98235420D+00  0.15858243D+01  0.20642720D+01  0.17614470D+01
  0.60818533D+00 -0.19968935D-01 -0.92036641D-02  0.25808035D-01  0.55289517D-03
  0.42392495D-03  0.21156826D-03 -0.71416261D-03 -0.54757459D-03 -0.27327810D-03
  0.41963863D-06  0.32175229D-06  0.16057694D-06 -0.35475120D-02  0.13792357D-02
 -0.10432331D-02  0.35444606D-06 -0.96897627D-02 -0.10154546D-01 -0.10557142D-01
 -0.71535794D-03  0.68438940D-06 -0.33352506D-06  0.32265634D-02  0.59523794D-02
  0.96089860D-02  0.12508045D-01  0.10673137D-01  0.36851778D-02  0.27427656D-03
  0.12641382D-03 -0.35447754D-03 -0.38416302D-03 -0.29455184D-03 -0.14700201D-03
 -0.26505760D-03 -0.20322936D-03 -0.10142569D-03 -0.10578876D-06 -0.81112108D-07
 -0.40480627D-07  0.25775733D-02  0.39773748D-03  0.10596985D-02  0.33553497D-06
 -0.46973251D-03 -0.28943493D-03 -0.40821601D-03  0.68403157D-04 -0.18981459D-06
  0.30473583D-06  0.34588276D-04  0.63808615D-04  0.10300689D-03  0.13408436D-03
  0.11441443D-03  0.39504554D-04 -0.78502098D-04 -0.36181545D-04  0.10145683D-03
 -0.12996231D-03 -0.99646855D-04 -0.49730765D-04  0.28107082D-05  0.21550727D-05
  0.10755323D-05 -0.17003712D-06 -0.13037368D-06 -0.65065604D-07 -0.11627505D-02
 -0.45080114D-03  0.19939923D-03  0.19557987D-06  0.45564433D-05  0.26622705D-04
  0.38356575D-04  0.16632983D-04  0.20784586D-06  0.54948407D-07 -0.45459802D-04
 -0.83864458D-04 -0.13538324D-03 -0.17622875D-03 -0.15037631D-03 -0.51921327D-04
  0.10880637D-03  0.50148757D-04 -0.14062235D-03 -0.36125744D-04 -0.27698929D-04
 -0.13823707D-04  0.88132033D-04  0.67574053D-04  0.33724188D-04 -0.22343914D-07
 -0.17131896D-07 -0.85500167D-08  0.78105783D-03  0.41250081D-03 -0.17059602D-03
 -0.84244004D-07 -0.81471675D-06 -0.35719038D-04 -0.12557192D-03  0.47954016D-04
  0.35289575D-07  0.99980795D-07  0.12637011D-04  0.23312817D-04  0.37634115D-04
  0.48988436D-04  0.41801921D-04  0.14433199D-04 -0.42641681D-04 -0.19653512D-04
  0.55110499D-04 -0.11961302D-03 -0.91711680D-04 -0.45770556D-04  0.18059512D-03
  0.13846888D-03  0.69105676D-04 -0.70811460D-07 -0.54293736D-07 -0.27096380D-07
 -0.10852762D-02  0.22266131D-03  0.43128656D-03  0.32290376D-07  0.39292036D-04
  0.12477360D-04 -0.83088744D-07 -0.50943129D-04  0.32457763D-07  0.17629940D-07
  0.40843131D-02  0.75347601D-02  0.12163439D-01  0.15833184D-01  0.13510484D-01
  0.46648456D-02  0.13143870D-03  0.60579975D-04 -0.16987257D-03  0.84661650D-04
  0.64913183D-04  0.32396228D-04  0.23787405D-03  0.18238673D-03  0.91023761D-04
 -0.44073372D-07 -0.33792666D-07 -0.16864909D-07  0.16079286D-02 -0.94800163D-03
 -0.47608852D-03 -0.88806642D-07 -0.33775620D-03 -0.70139507D-03 -0.43679389D-03
  0.13958238D-03  0.97910457D-08  0.15565444D-06  0.34625862D-04  0.58732016D-04
  0.66864325D-04  0.31375011D-03  0.20415702D-04  0.34628895D-04  0.39423773D-04
  0.12238168D-03 -0.18796033D-04 -0.31881629D-04 -0.36296108D-04 -0.90494902D-04
 -0.78097112D-04 -0.14374038D-03 -0.23259906D-03 -0.30575798D-03 -0.26224684D-03
 -0.89666649D-04  0.27426974D-03  0.12237862D-03 -0.36138572D-03 -0.23347669D-05
 -0.17988121D-05 -0.78977538D-06 -0.11076870D-03 -0.85341312D-04 -0.37469432D-04
 -0.21552247D-06 -0.16604844D-06 -0.72904209D-07  0.82816688D-03 -0.14729786D-03
  0.62295329D-04  0.18984347D-06 -0.23687962D-03 -0.25370082D-03 -0.29311508D-03
 -0.13049349D-04 -0.22292031D-06  0.44354020D-07  0.62098413D-04  0.10533066D-03
  0.11991524D-03 -0.10211670D-04  0.12193565D-03  0.22442669D-03  0.36316474D-03
  0.47739022D-03  0.40945482D-03  0.13999956D-03 -0.71214066D-03 -0.31775577D-03
  0.93833706D-03  0.84958311D-04  0.65455799D-04  0.28738621D-04 -0.82696609D-05
 -0.63713279D-05 -0.27973561D-05 -0.12944394D-06 -0.99729575D-07 -0.43786655D-07
 -0.17664573D-02  0.53797482D-03 -0.55452297D-03  0.36503859D-06  0.13707151D-03
  0.27695105D-03  0.10219516D-02  0.10783975D-02 -0.69033064D-06  0.72674407D-06
 -0.24504312D-04 -0.45205671D-04 -0.72975969D-04 -0.94993028D-04 -0.81057723D-04
 -0.27987284D-04  0.60512569D-04  0.27890188D-04 -0.78206998D-04  0.40001104D-05
  0.30670310D-05  0.15306634D-05  0.24554920D-04  0.18827155D-04  0.93960699D-05
  0.96606016D-07  0.74071366D-07  0.36966803D-07  0.47359692D-04  0.91940562D-04
 -0.10526999D-03 -0.93964410D-07  0.55593736D-04 -0.54347058D-04 -0.67228777D-04
 -0.35656795D-04 -0.11819515D-06 -0.62355759D-07 -0.19919874D-04 -0.33787877D-04
 -0.38466304D-04 -0.36566114D-04  0.57192914D-05  0.97010008D-05  0.11044247D-04
  0.69290426D-04
MO    4     MO 0.0        OCC NO =    1.0000000  ORB. ENERGY =  -10.480441
 -0.43419134D-02 -0.80099824D-02 -0.12930595D-01 -0.16831793D-01 -0.14362599D-01
 -0.49590604D-02  0.43959914D-03  0.20261084D-03 -0.56814195D-03 -0.68193952D-04
 -0.52286797D-04 -0.26094776D-04 -0.28123120D-03 -0.21563025D-03 -0.10761461D-03
 -0.41331710D-07 -0.31690534D-07 -0.15815798D-07  0.21553540D-02 -0.81677967D-03
  0.98467383D-03 -0.10668771D-06 -0.35594457D-03 -0.59133679D-03 -0.27596212D-03
 -0.30539139D-03  0.82276242D-08  0.34939815D-07 -0.21956279D-04 -0.40505047D-04
 -0.65387704D-04 -0.85115363D-04 -0.72629093D-04 -0.25077080D-04 -0.67600006D-04
 -0.31156781D-04  0.87366866D-04 -0.14590001D-03 -0.11186688D-03 -0.55829411D-04
 -0.10423650D-03 -0.79921940D-04 -0.39886649D-04 -0.53361648D-07 -0.40914327D-07
 -0.20419117D-07 -0.14632032D-02 -0.12477016D-03 -0.69442616D-03 -0.24180990D-06
  0.12940452D-03 -0.19151066D-04  0.11000916D-04  0.16782489D-04  0.81762442D-07
 -0.29643448D-06 -0.74627382D-04 -0.13767295D-03 -0.22224683D-03 -0.28929933D-03
 -0.24685964D-03 -0.85234703D-04  0.13626001D-03  0.62802114D-04 -0.17610368D-03
 -0.16729914D-03 -0.12827437D-03 -0.64017900D-04 -0.42059346D-04 -0.32248439D-04
 -0.16094231D-04  0.21955186D-07  0.16833844D-07  0.84012680D-08  0.92350899D-03
  0.70827598D-03  0.95868106D-04 -0.73458204D-07 -0.77057625D-04  0.45401603D-04
 -0.14462772D-03 -0.86151977D-04 -0.72217849D-07  0.25433633D-07  0.33374421D-04
  0.61569289D-04  0.99391923D-04  0.12937875D-03  0.11039912D-03  0.38118164D-04
 -0.76297757D-04 -0.35165567D-04  0.98607920D-04 -0.21025281D-03 -0.16120852D-03
 -0.80454348D-04 -0.89589998D-05 -0.68691928D-05 -0.34282087D-05 -0.12171411D-07
 -0.93322657D-08 -0.46574547D-08 -0.15047839D-02 -0.57466021D-03  0.32371879D-03
  0.11302502D-06  0.49407425D-04  0.23097514D-04  0.20363325D-04 -0.10563197D-04
  0.28497208D-07 -0.16864746D-06  0.92747512D-03  0.17110105D-02  0.27621015D-02
  0.35954354D-02  0.30679915D-02  0.10593038D-02  0.26140785D-03  0.12048264D-03
 -0.33784589D-03 -0.68470428D-04 -0.52498781D-04 -0.26200571D-04  0.30403157D-03
  0.23311212D-03  0.11633929D-03  0.19503570D-07  0.14954101D-07  0.74631444D-08
  0.24013438D-02 -0.29787560D-03 -0.11517290D-02  0.79990861D-08 -0.46304935D-03
 -0.28423195D-03 -0.35454229D-03  0.35610662D-03 -0.61476021D-07 -0.72092217D-07
  0.53258538D+00  0.98251604D+00  0.15860855D+01  0.20646121D+01  0.17617372D+01
  0.60828553D+00 -0.19878274D-01 -0.91618783D-02  0.25690863D-01  0.83034386D-03
  0.63665500D-03  0.31773547D-03 -0.19799405D-03 -0.15180928D-03 -0.75763470D-04
 -0.36126074D-06 -0.27699182D-06 -0.13823833D-06 -0.30557763D-02  0.19328612D-02
  0.51948960D-03 -0.32487480D-07 -0.90766008D-02 -0.10135406D-01 -0.10441210D-01
  0.41256785D-03 -0.79314683D-06 -0.28853797D-06 -0.30588541D-04 -0.51883955D-04
 -0.59068048D-04 -0.16593369D-03 -0.19702024D-04 -0.33418361D-04 -0.38045623D-04
 -0.13506945D-03  0.46359322D-04  0.78634184D-04  0.89522239D-04  0.35201578D-03
  0.87692048D-04  0.16140018D-03  0.26117596D-03  0.34332311D-03  0.29446623D-03
  0.10068301D-03 -0.85214462D-03 -0.38022527D-03  0.11228103D-02  0.96873033D-04
  0.74635449D-04  0.32768982D-04  0.67983474D-04  0.52377602D-04  0.22996588D-04
  0.45313465D-06  0.34911582D-06  0.15328065D-06 -0.25635120D-02  0.92079201D-03
  0.18505802D-03 -0.53037882D-06  0.19834952D-03  0.96163141D-03  0.11445011D-02
 -0.41524943D-03  0.88745130D-06  0.18039338D-06  0.28429431D-05  0.48221696D-05
  0.54898697D-05  0.35317318D-04 -0.88209129D-04 -0.16235189D-03 -0.26271600D-03
 -0.34534753D-03 -0.29620257D-03 -0.10127669D-03  0.32139733D-03  0.14340686D-03
 -0.42348239D-03  0.17514067D-03  0.13493644D-03  0.59244367D-04  0.24680106D-04
  0.19014691D-04  0.83484735D-05  0.15491746D-06  0.11935555D-06  0.52403515D-07
  0.92060066D-03 -0.25211940D-03  0.82822908D-04 -0.17724895D-06 -0.25393818D-03
 -0.28741226D-03 -0.35143036D-03 -0.12910548D-03  0.24038956D-06 -0.10620085D-06
  0.33003348D-05  0.60884733D-05  0.98286838D-05  0.12794026D-04  0.10917165D-04
  0.37694349D-05  0.31296804D-05  0.14424668D-05 -0.40448275D-05  0.89996558D-04
  0.69003652D-04  0.34437659D-04  0.41723525D-04  0.31990952D-04  0.15965727D-04
 -0.30174999D-07 -0.23136275D-07 -0.11546623D-07  0.37368877D-03  0.97686281D-04
  0.28913069D-04  0.48845079D-08  0.29929746D-04  0.22975537D-04  0.34637157D-05
  0.15396974D-04 -0.29673910D-08 -0.45973091D-08 -0.55849258D-05 -0.94730912D-05
 -0.10784780D-04 -0.47833875D-05 -0.28408766D-05 -0.48186644D-05 -0.54858791D-05
 -0.11650548D-04
MO    5     MO 0.0        OCC NO =    1.0000000  ORB. ENERGY =  -10.439892
 -0.12628570D-03 -0.23297246D-03 -0.37608978D-03 -0.48955715D-03 -0.41774000D-03
 -0.14423558D-03  0.44392624D-04  0.20460520D-04 -0.57373433D-04  0.32433307D-05
  0.24867803D-05  0.12410777D-05  0.12834612D-04  0.98407667D-05  0.49112323D-05
 -0.21910071D-07 -0.16799253D-07 -0.83840044D-08  0.57533784D-04 -0.46459017D-04
 -0.34968954D-04 -0.92222127D-08  0.63362062D-04 -0.71100639D-05 -0.27420962D-04
 -0.87176752D-05  0.12599548D-07  0.35692346D-07  0.18480282D-01  0.34092511D-01
  0.55035884D-01  0.71640368D-01  0.61130856D-01  0.21107015D-01 -0.60314715D-03
 -0.27798997D-03  0.77951290D-03  0.22779803D-03  0.17466108D-03  0.87168120D-04
 -0.11470141D-03 -0.87945766D-04 -0.43891101D-04 -0.26055129D-07 -0.19977420D-07
 -0.99701329D-08  0.29192101D-03 -0.17709591D-03  0.78697397D-04 -0.18152916D-08
 -0.54988958D-03 -0.56082916D-03 -0.48667561D-03  0.11276259D-03  0.15313805D-07
 -0.76621012D-07  0.28766201D+00  0.53068025D+00  0.85668246D+00  0.11151460D+01
  0.95155612D+00  0.32854946D+00 -0.10568638D-01 -0.48710755D-02  0.13659004D-01
  0.38235445D-03  0.29316514D-03  0.14630995D-03  0.54593235D-04  0.41858630D-04
  0.20890390D-04 -0.93140463D-07 -0.71414199D-07 -0.35640691D-07 -0.10295048D-02
 -0.22165815D-03 -0.85052099D-04  0.62414701D-07 -0.57748030D-02 -0.58372169D-02
 -0.58365536D-02 -0.13422653D-05 -0.13195291D-06 -0.61437997D-07  0.14232963D-02
  0.26257038D-02  0.42387000D-02  0.55175279D-02  0.47081166D-02  0.16255995D-02
  0.53496430D-04  0.24656455D-04 -0.69139275D-04  0.10717459D-03  0.82174679D-04
  0.41010924D-04  0.20437515D-03  0.15670190D-03  0.78205231D-04  0.60230653D-07
  0.46181044D-07  0.23047578D-07  0.42954859D-03 -0.10693020D-03 -0.19570354D-03
 -0.49014922D-07 -0.15778008D-03 -0.23740510D-03 -0.14996218D-03 -0.38098175D-04
 -0.66827506D-08 -0.12509914D-07  0.40313693D-05  0.74370892D-05  0.12005768D-04
  0.15627943D-04  0.13335352D-04  0.46043765D-05  0.22598875D-04  0.10415801D-04
 -0.29206993D-04 -0.62065723D-05 -0.47588059D-05 -0.23749777D-05 -0.47388135D-05
 -0.36334216D-05 -0.18133320D-05 -0.27207452D-08 -0.20860948D-08 -0.10411075D-08
 -0.26309878D-05 -0.52008826D-04  0.44402973D-04  0.11006005D-07  0.52247192D-04
  0.33566860D-04 -0.16727946D-04  0.63830638D-04 -0.20843777D-07  0.28040247D-07
  0.95246398D-05  0.17571101D-04  0.28365204D-04  0.36923068D-04  0.31506521D-04
  0.10878445D-04  0.34833212D-04  0.16054595D-04 -0.45018761D-04  0.12628544D-04
  0.96827664D-05  0.48323790D-05  0.14576496D-05  0.11176332D-05  0.55777731D-06
  0.13319803D-07  0.10212780D-07  0.50968930D-08  0.93425196D-04 -0.69290846D-04
 -0.20789899D-05 -0.20470173D-08 -0.33385337D-04 -0.76386142D-05 -0.47890941D-04
 -0.17271079D-04  0.15849548D-07  0.66733128D-08 -0.18648446D-04 -0.31631294D-04
 -0.36011111D-04 -0.20814944D-04 -0.17237627D-04 -0.29238277D-04 -0.33286745D-04
 -0.27725053D-04 -0.68414675D-05 -0.11604424D-04 -0.13211226D-04  0.10103332D-05
 -0.12703028D-04 -0.23380353D-04 -0.37833825D-04 -0.49733622D-04 -0.42656238D-04
 -0.14584892D-04  0.42052965D-04  0.18763951D-04 -0.55410199D-04  0.13644510D-04
  0.10512359D-04  0.46154920D-05  0.29989847D-06  0.23105560D-06  0.10144586D-06
 -0.26141265D-07 -0.20140435D-07 -0.88427358D-08  0.10386352D-03 -0.28481723D-04
 -0.10263120D-04  0.18340249D-07 -0.30488306D-04 -0.44215009D-04 -0.56640788D-04
  0.15410443D-04 -0.22978636D-07 -0.92864920D-08  0.13220907D-05  0.22425161D-05
  0.25530253D-05  0.77801522D-05 -0.75992118D-05 -0.13986606D-04 -0.22632969D-04
 -0.29751671D-04 -0.25517836D-04 -0.87249814D-05  0.23551747D-04  0.10508744D-04
 -0.31032461D-04  0.44071691D-04  0.33954862D-04  0.14908013D-04 -0.99751418D-05
 -0.76853090D-05 -0.33742646D-05  0.48573465D-07  0.37423237D-07  0.16430817D-07