 Entering Link 1 = D:\Gaussian\G16W\l1.exe PID=     54700.
  
 Copyright (c) 1988,1990,1992,1993,1995,1998,2003,2009,2016,
            Gaussian, Inc.  All Rights Reserved.
  
 This is part of the Gaussian(R) 16 program.  It is based on
 the Gaussian(R) 09 system (copyright 2009, Gaussian, Inc.),
 the Gaussian(R) 03 system (copyright 2003, Gaussian, Inc.),
 the Gaussian(R) 98 system (copyright 1998, Gaussian, Inc.),
 the Gaussian(R) 94 system (copyright 1995, Gaussian, Inc.),
 the Gaussian 92(TM) system (copyright 1992, Gaussian, Inc.),
 the Gaussian 90(TM) system (copyright 1990, Gaussian, Inc.),
 the Gaussian 88(TM) system (copyright 1988, Gaussian, Inc.),
 the Gaussian 86(TM) system (copyright 1986, Carnegie Mellon
 University), and the Gaussian 82(TM) system (copyright 1983,
 Carnegie Mellon University). Gaussian is a federally registered
 trademark of Gaussian, Inc.
  
 This software contains proprietary and confidential information,
 including trade secrets, belonging to Gaussian, Inc.
  
 This software is provided under written license and may be
 used, copied, transmitted, or stored only in accord with that
 written license.
  
 The following legend is applicable only to US Government
 contracts under FAR:
  
                    RESTRICTED RIGHTS LEGEND
  
 Use, reproduction and disclosure by the US Government is
 subject to restrictions as set forth in subparagraphs (a)
 and (c) of the Commercial Computer Software - Restricted
 Rights clause in FAR 52.227-19.
  
 Gaussian, Inc.
 340 Quinnipiac St., Bldg. 40, Wallingford CT 06492
  
  
 ---------------------------------------------------------------
 Warning -- This program may not be used in any manner that
 competes with the business of Gaussian, Inc. or will provide
 assistance to any competitor of Gaussian, Inc.  The licensee
 of this program is prohibited from giving any competitor of
 Gaussian, Inc. access to this program.  By using this program,
 the user acknowledges that Gaussian, Inc. is engaged in the
 business of creating and licensing software in the field of
 computational chemistry and represents and warrants to the
 licensee that it is not a competitor of Gaussian, Inc. and that
 it will not use this program in any manner prohibited above.
 ---------------------------------------------------------------
  

 Cite this work as:
 Gaussian 16, Revision A.03,
 M. J. Frisch, G. W. Trucks, H. B. Schlegel, G. E. Scuseria, 
 M. A. Robb, J. R. Cheeseman, G. Scalmani, V. Barone, 
 G. A. Petersson, H. Nakatsuji, X. Li, M. Caricato, A. V. Marenich, 
 J. Bloino, B. G. Janesko, R. Gomperts, B. Mennucci, H. P. Hratchian, 
 J. V. Ortiz, A. F. Izmaylov, J. L. Sonnenberg, D. Williams-Young, 
 F. Ding, F. Lipparini, F. Egidi, J. Goings, B. Peng, A. Petrone, 
 T. Henderson, D. Ranasinghe, V. G. Zakrzewski, J. Gao, N. Rega, 
 G. Zheng, W. Liang, M. Hada, M. Ehara, K. Toyota, R. Fukuda, 
 J. Hasegawa, M. Ishida, T. Nakajima, Y. Honda, O. Kitao, H. Nakai, 
 T. Vreven, K. Throssell, J. A. Montgomery, Jr., J. E. Peralta, 
 F. Ogliaro, M. J. Bearpark, J. J. Heyd, E. N. Brothers, K. N. Kudin, 
 V. N. Staroverov, T. A. Keith, R. Kobayashi, J. Normand, 
 K. Raghavachari, A. P. Rendell, J. C. Burant, S. S. Iyengar, 
 J. Tomasi, M. Cossi, J. M. Millam, M. Klene, C. Adamo, R. Cammi, 
 J. W. Ochterski, R. L. Martin, K. Morokuma, O. Farkas, 
 J. B. Foresman, and D. J. Fox, Gaussian, Inc., Wallingford CT, 2016.
 
 ******************************************
 Gaussian 16:  EM64W-G16RevA.03 17-Dec-2016
                08-Dec-2025 
 ******************************************
 %nprocshared=14
 Will use up to   14 processors via shared memory.
 %nprocs=   4
 Will use up to    4 processors via shared memory.
 --------------------------------------
 #p b3lyp/6-31g(d) out=wfn scf=conver=7
 --------------------------------------
 1/38=1,172=1/1;
 2/12=2,17=6,18=5,40=1/2;
 3/5=1,6=6,7=1,11=2,25=1,30=1,74=-5/1,2,3;
 4//1;
 5/5=2,6=7,38=5/2;
 6/7=2,8=2,9=2,10=2,28=1/1;
 99/5=1,6=100,9=1/99;
 Leave Link    1 at Mon Dec 08 16:35:39 2025, MaxMem=           0 cpu:               1.0 elap:               0.2
 (Enter D:\Gaussian\G16W\l101.exe)
 ----------------------------------------------------
 Generated by Multiwfn (http://sobereva.com/multiwfn)
 ----------------------------------------------------
 Symbolic Z-matrix:
 Charge =  1 Multiplicity = 2
 C                     0.74117  -0.78568  -0.00004 
 C                    -0.55723  -1.1572   -0.00044 
 C                    -1.60703  -0.1545   -0.00011 
 C                    -1.21861   1.25451   0.00013 
 C                     0.07253   1.63907   0.00007 
 C                     1.14245   0.64566   0.00007 
 H                    -0.82484  -2.20739  -0.00066 
 H                    -2.01406   1.99243   0.00028 
 H                     0.37126   2.68046   0.00007 
 O                     2.34341   0.91317  -0.00026 
 H                     2.56718  -1.08533   0.00008 
 O                     1.76955  -1.64897   0.00041 
 C                    -2.91844  -0.48406   0.00001 
 H                    -3.24305  -1.5179    0.00018 
 H                    -3.68922   0.27724   0.00067 
 
 ITRead=  0  0  0  0  0  0  0  0  0  0  0  0  0  0  0
 MicOpt= -1 -1 -1 -1 -1 -1 -1 -1 -1 -1 -1 -1 -1 -1 -1
 NAtoms=     15 NQM=       15 NQMF=       0 NMMI=      0 NMMIF=      0
                NMic=       0 NMicF=      0.
                    Isotopes and Nuclear Properties:
 (Nuclear quadrupole moments (NQMom) in fm**2, nuclear magnetic moments (NMagM)
  in nuclear magnetons)

  Atom         1           2           3           4           5           6           7           8           9          10
 IAtWgt=          12          12          12          12          12          12           1           1           1          16
 AtmWgt=  12.0000000  12.0000000  12.0000000  12.0000000  12.0000000  12.0000000   1.0078250   1.0078250   1.0078250  15.9949146
 NucSpn=           0           0           0           0           0           0           1           1           1           0
 AtZEff=   0.0000000   0.0000000   0.0000000   0.0000000   0.0000000   0.0000000   0.0000000   0.0000000   0.0000000   0.0000000
 NQMom=    0.0000000   0.0000000   0.0000000   0.0000000   0.0000000   0.0000000   0.0000000   0.0000000   0.0000000   0.0000000
 NMagM=    0.0000000   0.0000000   0.0000000   0.0000000   0.0000000   0.0000000   2.7928460   2.7928460   2.7928460   0.0000000
 AtZNuc=   6.0000000   6.0000000   6.0000000   6.0000000   6.0000000   6.0000000   1.0000000   1.0000000   1.0000000   8.0000000

  Atom        11          12          13          14          15
 IAtWgt=           1          16          12           1           1
 AtmWgt=   1.0078250  15.9949146  12.0000000   1.0078250   1.0078250
 NucSpn=           1           0           0           1           1
 AtZEff=   0.0000000   0.0000000   0.0000000   0.0000000   0.0000000
 NQMom=    0.0000000   0.0000000   0.0000000   0.0000000   0.0000000
 NMagM=    2.7928460   0.0000000   0.0000000   2.7928460   2.7928460
 AtZNuc=   1.0000000   8.0000000   6.0000000   1.0000000   1.0000000
 Leave Link  101 at Mon Dec 08 16:35:39 2025, MaxMem=   104857600 cpu:               0.0 elap:               0.1
 (Enter D:\Gaussian\G16W\l202.exe)
                          Input orientation:                          
 ---------------------------------------------------------------------
 Center     Atomic      Atomic             Coordinates (Angstroms)
 Number     Number       Type             X           Y           Z
 ---------------------------------------------------------------------
      1          6           0        0.741168   -0.785684   -0.000039
      2          6           0       -0.557227   -1.157200   -0.000440
      3          6           0       -1.607032   -0.154495   -0.000108
      4          6           0       -1.218614    1.254512    0.000131
      5          6           0        0.072532    1.639072    0.000071
      6          6           0        1.142450    0.645662    0.000072
      7          1           0       -0.824842   -2.207386   -0.000663
      8          1           0       -2.014063    1.992432    0.000276
      9          1           0        0.371261    2.680459    0.000074
     10          8           0        2.343411    0.913173   -0.000258
     11          1           0        2.567178   -1.085325    0.000083
     12          8           0        1.769553   -1.648970    0.000412
     13          6           0       -2.918440   -0.484059    0.000005
     14          1           0       -3.243047   -1.517896    0.000176
     15          1           0       -3.689219    0.277238    0.000669
 ---------------------------------------------------------------------
                    Distance matrix (angstroms):
                    1          2          3          4          5
     1  C    0.000000
     2  C    1.350501   0.000000
     3  C    2.431552   1.451726   0.000000
     4  C    2.828983   2.500757   1.461564   0.000000
     5  C    2.515257   2.866310   2.457197   1.347199   0.000000
     6  C    1.486532   2.477744   2.863547   2.438303   1.459996
     7  H    2.115094   1.083747   2.196858   3.484221   3.949749
     8  H    3.912701   3.470238   2.185170   1.085018   2.116304
     9  H    3.485825   3.948382   3.456965   2.135656   1.083386
    10  O    2.335230   3.563726   4.092177   3.578342   2.384077
    11  H    1.850432   3.125232   4.276736   4.450512   3.693995
    12  O    1.342698   2.378181   3.692531   4.166455   3.700149
    13  C    3.672017   2.455289   1.352185   2.431468   3.667915
    14  H    4.050939   2.709932   2.129650   3.432867   4.578156
    15  H    4.556109   3.444849   2.126475   2.656869   4.000670
                    6          7          8          9         10
     6  C    0.000000
     7  H    3.465562   0.000000
     8  H    3.431816   4.364942   0.000000
     9  H    2.176036   5.032066   2.482570   0.000000
    10  O    1.230394   4.446990   4.489140   2.648146   0.000000
    11  H    2.241911   3.572789   5.519090   4.359264   2.010986
    12  O    2.378780   2.653811   5.251244   4.549635   2.625622
    13  C    4.215103   2.711643   2.636457   4.564680   5.444202
    14  H    4.890150   2.514580   3.719248   5.539802   6.092504
    15  H    4.845695   3.791835   2.397507   4.718365   6.066056
                   11         12         13         14         15
    11  H    0.000000
    12  O    0.976679   0.000000
    13  C    5.518471   4.830559   0.000000
    14  H    5.826305   5.014313   1.083600   0.000000
    15  H    6.403053   5.788650   1.083362   1.849750   0.000000
 Stoichiometry    C7H6O2(1+,2)
 Framework group  C1[X(C7H6O2)]
 Deg. of freedom    39
 Full point group                 C1      NOp   1
 Largest Abelian subgroup         C1      NOp   1
 Largest concise Abelian subgroup C1      NOp   1
                         Standard orientation:                         
 ---------------------------------------------------------------------
 Center     Atomic      Atomic             Coordinates (Angstroms)
 Number     Number       Type             X           Y           Z
 ---------------------------------------------------------------------
      1          6           0        0.741168   -0.785684   -0.000039
      2          6           0       -0.557227   -1.157200   -0.000440
      3          6           0       -1.607032   -0.154495   -0.000108
      4          6           0       -1.218614    1.254512    0.000131
      5          6           0        0.072532    1.639072    0.000071
      6          6           0        1.142450    0.645662    0.000072
      7          1           0       -0.824842   -2.207386   -0.000663
      8          1           0       -2.014063    1.992432    0.000276
      9          1           0        0.371261    2.680459    0.000074
     10          8           0        2.343411    0.913173   -0.000258
     11          1           0        2.567178   -1.085325    0.000083
     12          8           0        1.769553   -1.648970    0.000412
     13          6           0       -2.918440   -0.484059    0.000005
     14          1           0       -3.243047   -1.517896    0.000176
     15          1           0       -3.689219    0.277238    0.000669
 ---------------------------------------------------------------------
 Rotational constants (GHZ):           3.1730811           1.4419573           0.9914213
 Leave Link  202 at Mon Dec 08 16:35:39 2025, MaxMem=   104857600 cpu:               0.0 elap:               0.0
 (Enter D:\Gaussian\G16W\l301.exe)
 Standard basis: 6-31G(d) (6D, 7F)
 Ernie: Thresh=  0.10000D-02 Tol=  0.10000D-05 Strict=F.
 There are   147 symmetry adapted cartesian basis functions of A   symmetry.
 There are   147 symmetry adapted basis functions of A   symmetry.
   147 basis functions,   276 primitive gaussians,   147 cartesian basis functions
    32 alpha electrons       31 beta electrons
       nuclear repulsion energy       408.1194779593 Hartrees.
 IExCor=  402 DFT=T Ex+Corr=B3LYP ExCW=0 ScaHFX=  0.200000
 ScaDFX=  0.800000  0.720000  1.000000  0.810000 ScalE2=  1.000000  1.000000
 IRadAn=      5 IRanWt=     -1 IRanGd=            0 ICorTp=0 IEmpDi=  4
 NAtoms=   15 NActive=   15 NUniq=   15 SFac= 1.00D+00 NAtFMM=   60 NAOKFM=F Big=F
 Integral buffers will be    131072 words long.
 Raffenetti 2 integral format.
 Two-electron integral symmetry is turned on.
 Leave Link  301 at Mon Dec 08 16:35:39 2025, MaxMem=   104857600 cpu:               0.0 elap:               0.1
 (Enter D:\Gaussian\G16W\l302.exe)
 NPDir=0 NMtPBC=     1 NCelOv=     1 NCel=       1 NClECP=     1 NCelD=      1
         NCelK=      1 NCelE2=     1 NClLst=     1 CellRange=     0.0.
 One-electron integrals computed using PRISM.
 One-electron integral symmetry used in STVInt
 NBasis=   147 RedAO= T EigKep=  4.77D-04  NBF=   147
 NBsUse=   147 1.00D-06 EigRej= -1.00D+00 NBFU=   147
 Precomputing XC quadrature grid using
 IXCGrd= 4 IRadAn=           5 IRanWt=          -1 IRanGd=           0 AccXCQ= 0.00D+00.
 Generated NRdTot=       0 NPtTot=           0 NUsed=           0 NTot=          32
 NSgBfM=   147   147   147   147   147 MxSgAt=    15 MxSgA2=    15.
 Leave Link  302 at Mon Dec 08 16:35:39 2025, MaxMem=   104857600 cpu:               0.0 elap:               0.3
 (Enter D:\Gaussian\G16W\l303.exe)
 DipDrv:  MaxL=1.
 Leave Link  303 at Mon Dec 08 16:35:39 2025, MaxMem=   104857600 cpu:               0.0 elap:               0.1
 (Enter D:\Gaussian\G16W\l401.exe)
 ExpMin= 1.61D-01 ExpMax= 5.48D+03 ExpMxC= 8.25D+02 IAcc=3 IRadAn=         5 AccDes= 0.00D+00
 Harris functional with IExCor=  402 and IRadAn=       5 diagonalized for initial guess.
 HarFok:  IExCor=  402 AccDes= 0.00D+00 IRadAn=         5 IDoV= 1 UseB2=F ITyADJ=14
 ICtDFT=  3500011 ScaDFX=  1.000000  1.000000  1.000000  1.000000
 FoFCou: FMM=F IPFlag=           0 FMFlag=      100000 FMFlg1=           0
         NFxFlg=           0 DoJE=T BraDBF=F KetDBF=T FulRan=T
         wScrn=  0.000000 ICntrl=       500 IOpCl=  0 I1Cent=   200000004 NGrid=           0
         NMat0=    1 NMatS0=      1 NMatT0=    0 NMatD0=    1 NMtDS0=    0 NMtDT0=    0
 Petite list used in FoFCou.
 Harris En= -420.480939877836    
 JPrj=0 DoOrth=F DoCkMO=F.
 Initial guess <Sx>= 0.0000 <Sy>= 0.0000 <Sz>= 0.5000 <S**2>= 0.7500 S= 0.5000
 Leave Link  401 at Mon Dec 08 16:35:40 2025, MaxMem=   104857600 cpu:               1.0 elap:               0.8
 (Enter D:\Gaussian\G16W\l502.exe)
 Integral symmetry usage will be decided dynamically.
 UHF open shell SCF:
 Using DIIS extrapolation, IDIIS=  1040.
 NGot=   104857600 LenX=   104811816 LenY=   104789766
 Requested convergence on RMS density matrix=1.00D-07 within 128 cycles.
 Requested convergence on MAX density matrix=1.00D-05.
 Requested convergence on             energy=1.00D-05.
 No special actions if energy rises.
 Fock matrices will be formed incrementally for  20 cycles.
 Integral accuracy reduced to 1.0D-05 until final iterations.

 Cycle   1  Pass 0  IDiag  1:
 FoFJK:  IHMeth= 1 ICntrl=       0 DoSepK=F KAlg= 0 I1Cent=           0 FoldK=F
 IRaf= 950000000 NMat=       1 IRICut=       1 DoRegI=T DoRafI=F ISym2E= 0 IDoP0=0 IntGTp=1.
 FoFCou: FMM=F IPFlag=           0 FMFlag=      100000 FMFlg1=           0
         NFxFlg=           0 DoJE=F BraDBF=F KetDBF=F FulRan=T
         wScrn=  0.000000 ICntrl=         0 IOpCl=  1 I1Cent=           0 NGrid=           0
         NMat0=    1 NMatS0=      1 NMatT0=    0 NMatD0=    1 NMtDS0=    0 NMtDT0=    0
 Symmetry not used in FoFCou.
 E= -420.326479171107    
 DIIS: error= 2.67D-02 at cycle   1 NSaved=   1.
 NSaved= 1 IEnMin= 1 EnMin= -420.326479171107     IErMin= 1 ErrMin= 2.67D-02
 ErrMax= 2.67D-02  0.00D+00 EMaxC= 1.00D-01 BMatC= 6.13D-01 BMatP= 6.13D-01
 IDIUse=3 WtCom= 7.33D-01 WtEn= 2.67D-01
 Coeff-Com:  0.100D+01
 Coeff-En:   0.100D+01
 Coeff:      0.100D+01
 Gap=     0.193 Goal=   None    Shift=    0.000
 Gap=     0.020 Goal=   None    Shift=    0.000
 GapD=    0.020 DampG=0.250 DampE=0.500 DampFc=0.2500 IDamp=-1.
 Damping current iteration by 2.50D-01
 RMSDP=7.20D-03 MaxDP=2.25D-01              OVMax= 5.84D-01

 Cycle   2  Pass 0  IDiag  1:
 RMSU=  1.78D-03    CP:  9.92D-01
 E= -420.370047785424     Delta-E=       -0.043568614318 Rises=F Damp=T
 DIIS: error= 1.71D-02 at cycle   2 NSaved=   2.
 NSaved= 2 IEnMin= 2 EnMin= -420.370047785424     IErMin= 2 ErrMin= 1.71D-02
 ErrMax= 1.71D-02  0.00D+00 EMaxC= 1.00D-01 BMatC= 1.39D-01 BMatP= 6.13D-01
 IDIUse=3 WtCom= 8.29D-01 WtEn= 1.71D-01
 Coeff-Com: -0.424D+00 0.142D+01
 Coeff-En:   0.000D+00 0.100D+01
 Coeff:     -0.352D+00 0.135D+01
 Gap=     0.203 Goal=   None    Shift=    0.000
 Gap=     0.097 Goal=   None    Shift=    0.000
 RMSDP=2.59D-03 MaxDP=5.56D-02 DE=-4.36D-02 OVMax= 5.44D-01

 Cycle   3  Pass 0  IDiag  1:
 RMSU=  2.49D-03    CP:  9.70D-01  1.19D+00
 E= -420.430909257405     Delta-E=       -0.060861471980 Rises=F Damp=F
 DIIS: error= 1.61D-02 at cycle   3 NSaved=   3.
 NSaved= 3 IEnMin= 3 EnMin= -420.430909257405     IErMin= 3 ErrMin= 1.61D-02
 ErrMax= 1.61D-02  0.00D+00 EMaxC= 1.00D-01 BMatC= 1.37D-01 BMatP= 1.39D-01
 IDIUse=3 WtCom= 8.39D-01 WtEn= 1.61D-01
 Coeff-Com: -0.367D+00 0.896D+00 0.471D+00
 Coeff-En:   0.000D+00 0.000D+00 0.100D+01
 Coeff:     -0.308D+00 0.752D+00 0.556D+00
 Gap=     0.165 Goal=   None    Shift=    0.000
 Gap=     0.064 Goal=   None    Shift=    0.000
 RMSDP=1.95D-03 MaxDP=7.47D-02 DE=-6.09D-02 OVMax= 2.06D-01

 Cycle   4  Pass 0  IDiag  1:
 RMSU=  1.18D-03    CP:  9.75D-01  1.73D+00  5.14D-01
 E= -420.451243440515     Delta-E=       -0.020334183110 Rises=F Damp=F
 DIIS: error= 9.45D-03 at cycle   4 NSaved=   4.
 NSaved= 4 IEnMin= 4 EnMin= -420.451243440515     IErMin= 4 ErrMin= 9.45D-03
 ErrMax= 9.45D-03  0.00D+00 EMaxC= 1.00D-01 BMatC= 5.39D-02 BMatP= 1.37D-01
 IDIUse=3 WtCom= 9.06D-01 WtEn= 9.45D-02
 Coeff-Com: -0.922D-01 0.231D+00 0.383D+00 0.477D+00
 Coeff-En:   0.000D+00 0.000D+00 0.312D+00 0.688D+00
 Coeff:     -0.835D-01 0.210D+00 0.377D+00 0.497D+00
 Gap=     0.166 Goal=   None    Shift=    0.000
 Gap=     0.085 Goal=   None    Shift=    0.000
 RMSDP=8.54D-04 MaxDP=2.90D-02 DE=-2.03D-02 OVMax= 7.17D-02

 Cycle   5  Pass 0  IDiag  1:
 RMSU=  3.65D-04    CP:  9.74D-01  1.49D+00  6.83D-01  5.92D-01
 E= -420.462347815410     Delta-E=       -0.011104374895 Rises=F Damp=F
 DIIS: error= 2.06D-03 at cycle   5 NSaved=   5.
 NSaved= 5 IEnMin= 5 EnMin= -420.462347815410     IErMin= 5 ErrMin= 2.06D-03
 ErrMax= 2.06D-03  0.00D+00 EMaxC= 1.00D-01 BMatC= 2.81D-03 BMatP= 5.39D-02
 IDIUse=3 WtCom= 9.79D-01 WtEn= 2.06D-02
 Coeff-Com: -0.274D-02 0.133D-01 0.156D+00 0.294D+00 0.539D+00
 Coeff-En:   0.000D+00 0.000D+00 0.000D+00 0.000D+00 0.100D+01
 Coeff:     -0.268D-02 0.130D-01 0.153D+00 0.288D+00 0.549D+00
 Gap=     0.150 Goal=   None    Shift=    0.000
 Gap=     0.069 Goal=   None    Shift=    0.000
 RMSDP=2.14D-04 MaxDP=6.58D-03 DE=-1.11D-02 OVMax= 1.40D-02

 Cycle   6  Pass 0  IDiag  1:
 RMSU=  1.47D-04    CP:  9.74D-01  1.50D+00  6.85D-01  6.46D-01  6.18D-01
 E= -420.462985790428     Delta-E=       -0.000637975018 Rises=F Damp=F
 DIIS: error= 8.93D-04 at cycle   6 NSaved=   6.
 NSaved= 6 IEnMin= 6 EnMin= -420.462985790428     IErMin= 6 ErrMin= 8.93D-04
 ErrMax= 8.93D-04  0.00D+00 EMaxC= 1.00D-01 BMatC= 3.54D-04 BMatP= 2.81D-03
 IDIUse=3 WtCom= 9.91D-01 WtEn= 8.93D-03
 Coeff-Com:  0.234D-02-0.490D-02 0.523D-01 0.105D+00 0.311D+00 0.534D+00
 Coeff-En:   0.000D+00 0.000D+00 0.000D+00 0.000D+00 0.259D-01 0.974D+00
 Coeff:      0.232D-02-0.486D-02 0.518D-01 0.104D+00 0.308D+00 0.538D+00
 Gap=     0.150 Goal=   None    Shift=    0.000
 Gap=     0.071 Goal=   None    Shift=    0.000
 RMSDP=7.87D-05 MaxDP=2.53D-03 DE=-6.38D-04 OVMax= 7.62D-03

 Cycle   7  Pass 0  IDiag  1:
 RMSU=  6.56D-05    CP:  9.74D-01  1.51D+00  6.84D-01  6.48D-01  6.94D-01
                    CP:  7.76D-01
 E= -420.463082396981     Delta-E=       -0.000096606554 Rises=F Damp=F
 DIIS: error= 5.79D-04 at cycle   7 NSaved=   7.
 NSaved= 7 IEnMin= 7 EnMin= -420.463082396981     IErMin= 7 ErrMin= 5.79D-04
 ErrMax= 5.79D-04  0.00D+00 EMaxC= 1.00D-01 BMatC= 6.77D-05 BMatP= 3.54D-04
 IDIUse=3 WtCom= 9.94D-01 WtEn= 5.79D-03
 Coeff-Com:  0.271D-02-0.691D-02-0.116D-01-0.253D-01 0.304D-01 0.303D+00
 Coeff-Com:  0.708D+00
 Coeff-En:   0.000D+00 0.000D+00 0.000D+00 0.000D+00 0.000D+00 0.000D+00
 Coeff-En:   0.100D+01
 Coeff:      0.270D-02-0.687D-02-0.115D-01-0.252D-01 0.303D-01 0.301D+00
 Coeff:      0.710D+00
 Gap=     0.151 Goal=   None    Shift=    0.000
 Gap=     0.072 Goal=   None    Shift=    0.000
 RMSDP=4.76D-05 MaxDP=3.22D-03 DE=-9.66D-05 OVMax= 5.30D-03

 Cycle   8  Pass 0  IDiag  1:
 RMSU=  3.59D-05    CP:  9.74D-01  1.51D+00  6.87D-01  6.55D-01  7.16D-01
                    CP:  9.67D-01  1.04D+00
 E= -420.463116488083     Delta-E=       -0.000034091102 Rises=F Damp=F
 DIIS: error= 2.46D-04 at cycle   8 NSaved=   8.
 NSaved= 8 IEnMin= 8 EnMin= -420.463116488083     IErMin= 8 ErrMin= 2.46D-04
 ErrMax= 2.46D-04  0.00D+00 EMaxC= 1.00D-01 BMatC= 1.82D-05 BMatP= 6.77D-05
 IDIUse=3 WtCom= 9.98D-01 WtEn= 2.46D-03
 Coeff-Com:  0.253D-02-0.478D-02-0.146D-01-0.349D-01-0.471D-01 0.372D-01
 Coeff-Com:  0.339D+00 0.723D+00
 Coeff-En:   0.000D+00 0.000D+00 0.000D+00 0.000D+00 0.000D+00 0.000D+00
 Coeff-En:   0.000D+00 0.100D+01
 Coeff:      0.252D-02-0.477D-02-0.146D-01-0.349D-01-0.469D-01 0.371D-01
 Coeff:      0.338D+00 0.723D+00
 Gap=     0.151 Goal=   None    Shift=    0.000
 Gap=     0.072 Goal=   None    Shift=    0.000
 RMSDP=3.53D-05 MaxDP=1.30D-03 DE=-3.41D-05 OVMax= 5.39D-03

 Cycle   9  Pass 0  IDiag  1:
 RMSU=  2.32D-05    CP:  9.74D-01  1.51D+00  6.87D-01  6.56D-01  7.50D-01
                    CP:  1.04D+00  1.36D+00  1.05D+00
 E= -420.463127530236     Delta-E=       -0.000011042152 Rises=F Damp=F
 DIIS: error= 1.46D-04 at cycle   9 NSaved=   9.
 NSaved= 9 IEnMin= 9 EnMin= -420.463127530236     IErMin= 9 ErrMin= 1.46D-04
 ErrMax= 1.46D-04  0.00D+00 EMaxC= 1.00D-01 BMatC= 1.40D-05 BMatP= 1.82D-05
 IDIUse=3 WtCom= 9.99D-01 WtEn= 1.46D-03
 Coeff-Com:  0.702D-03 0.261D-03-0.407D-02-0.175D-01-0.599D-01-0.130D+00
 Coeff-Com: -0.980D-01 0.644D+00 0.665D+00
 Coeff-En:   0.000D+00 0.000D+00 0.000D+00 0.000D+00 0.000D+00 0.000D+00
 Coeff-En:   0.000D+00 0.000D+00 0.100D+01
 Coeff:      0.701D-03 0.261D-03-0.407D-02-0.175D-01-0.598D-01-0.130D+00
 Coeff:     -0.979D-01 0.643D+00 0.665D+00
 Gap=     0.151 Goal=   None    Shift=    0.000
 Gap=     0.072 Goal=   None    Shift=    0.000
 RMSDP=2.83D-05 MaxDP=1.24D-03 DE=-1.10D-05 OVMax= 3.31D-03

 Cycle  10  Pass 0  IDiag  1:
 RMSU=  1.03D-05    CP:  9.74D-01  1.51D+00  6.88D-01  6.60D-01  7.53D-01
                    CP:  1.11D+00  1.58D+00  1.56D+00  1.07D+00
 E= -420.463135619644     Delta-E=       -0.000008089409 Rises=F Damp=F
 DIIS: error= 8.20D-05 at cycle  10 NSaved=  10.
 NSaved=10 IEnMin=10 EnMin= -420.463135619644     IErMin=10 ErrMin= 8.20D-05
 ErrMax= 8.20D-05  0.00D+00 EMaxC= 1.00D-01 BMatC= 2.06D-06 BMatP= 1.40D-05
 IDIUse=1 WtCom= 1.00D+00 WtEn= 0.00D+00
 Coeff-Com:  0.913D-03-0.644D-03 0.200D-02-0.801D-03-0.154D-01-0.621D-01
 Coeff-Com: -0.126D+00 0.193D+00 0.230D+00 0.779D+00
 Coeff:      0.913D-03-0.644D-03 0.200D-02-0.801D-03-0.154D-01-0.621D-01
 Coeff:     -0.126D+00 0.193D+00 0.230D+00 0.779D+00
 Gap=     0.151 Goal=   None    Shift=    0.000
 Gap=     0.072 Goal=   None    Shift=    0.000
 RMSDP=1.40D-05 MaxDP=4.86D-04 DE=-8.09D-06 OVMax= 2.34D-03

 Cycle  11  Pass 0  IDiag  1:
 RMSU=  6.51D-06    CP:  9.74D-01  1.51D+00  6.87D-01  6.60D-01  7.56D-01
                    CP:  1.15D+00  1.68D+00  1.70D+00  1.35D+00  1.31D+00
 E= -420.463137132686     Delta-E=       -0.000001513042 Rises=F Damp=F
 DIIS: error= 3.93D-05 at cycle  11 NSaved=  11.
 NSaved=11 IEnMin=11 EnMin= -420.463137132686     IErMin=11 ErrMin= 3.93D-05
 ErrMax= 3.93D-05  0.00D+00 EMaxC= 1.00D-01 BMatC= 1.32D-06 BMatP= 2.06D-06
 IDIUse=1 WtCom= 1.00D+00 WtEn= 0.00D+00
 Coeff-Com:  0.587D-03-0.803D-03 0.301D-02 0.468D-02 0.128D-01 0.127D-01
 Coeff-Com: -0.414D-01-0.942D-01-0.200D+00 0.510D+00 0.793D+00
 Coeff:      0.587D-03-0.803D-03 0.301D-02 0.468D-02 0.128D-01 0.127D-01
 Coeff:     -0.414D-01-0.942D-01-0.200D+00 0.510D+00 0.793D+00
 Gap=     0.151 Goal=   None    Shift=    0.000
 Gap=     0.072 Goal=   None    Shift=    0.000
 RMSDP=1.13D-05 MaxDP=4.10D-04 DE=-1.51D-06 OVMax= 1.86D-03

 Cycle  12  Pass 0  IDiag  1:
 RMSU=  2.88D-06    CP:  9.74D-01  1.51D+00  6.88D-01  6.62D-01  7.58D-01
                    CP:  1.16D+00  1.75D+00  1.86D+00  1.57D+00  1.85D+00
                    CP:  1.17D+00
 E= -420.463138033762     Delta-E=       -0.000000901076 Rises=F Damp=F
 DIIS: error= 2.18D-05 at cycle  12 NSaved=  12.
 NSaved=12 IEnMin=12 EnMin= -420.463138033762     IErMin=12 ErrMin= 2.18D-05
 ErrMax= 2.18D-05  0.00D+00 EMaxC= 1.00D-01 BMatC= 3.14D-07 BMatP= 1.32D-06
 IDIUse=1 WtCom= 1.00D+00 WtEn= 0.00D+00
 Coeff-Com:  0.238D-03-0.436D-03 0.124D-02 0.206D-02 0.105D-01 0.204D-01
 Coeff-Com:  0.760D-02-0.706D-01-0.183D+00 0.717D-01 0.298D+00 0.842D+00
 Coeff:      0.238D-03-0.436D-03 0.124D-02 0.206D-02 0.105D-01 0.204D-01
 Coeff:      0.760D-02-0.706D-01-0.183D+00 0.717D-01 0.298D+00 0.842D+00
 Gap=     0.151 Goal=   None    Shift=    0.000
 Gap=     0.072 Goal=   None    Shift=    0.000
 RMSDP=6.07D-06 MaxDP=2.32D-04 DE=-9.01D-07 OVMax= 8.63D-04

 Initial convergence to 1.0D-05 achieved.  Increase integral accuracy.
 Cycle  13  Pass 1  IDiag  1:
 E= -420.463110064687     Delta-E=        0.000027969076 Rises=F Damp=F
 DIIS: error= 1.68D-05 at cycle   1 NSaved=   1.
 NSaved= 1 IEnMin= 1 EnMin= -420.463110064687     IErMin= 1 ErrMin= 1.68D-05
 ErrMax= 1.68D-05  0.00D+00 EMaxC= 1.00D-01 BMatC= 1.29D-07 BMatP= 1.29D-07
 IDIUse=1 WtCom= 1.00D+00 WtEn= 0.00D+00
 Coeff-Com:  0.100D+01
 Coeff:      0.100D+01
 Gap=     0.151 Goal=   None    Shift=    0.000
 Gap=     0.072 Goal=   None    Shift=    0.000
 RMSDP=6.07D-06 MaxDP=2.32D-04 DE= 2.80D-05 OVMax= 3.65D-04

 Cycle  14  Pass 1  IDiag  1:
 RMSU=  4.11D-06    CP:  1.00D+00
 E= -420.463110095233     Delta-E=       -0.000000030547 Rises=F Damp=F
 DIIS: error= 2.55D-05 at cycle   2 NSaved=   2.
 NSaved= 2 IEnMin= 2 EnMin= -420.463110095233     IErMin= 1 ErrMin= 1.68D-05
 ErrMax= 2.55D-05  0.00D+00 EMaxC= 1.00D-01 BMatC= 2.56D-07 BMatP= 1.29D-07
 IDIUse=1 WtCom= 1.00D+00 WtEn= 0.00D+00
 Coeff-Com:  0.606D+00 0.394D+00
 Coeff:      0.606D+00 0.394D+00
 Gap=     0.151 Goal=   None    Shift=    0.000
 Gap=     0.072 Goal=   None    Shift=    0.000
 RMSDP=1.90D-06 MaxDP=8.09D-05 DE=-3.05D-08 OVMax= 1.62D-04

 Cycle  15  Pass 1  IDiag  1:
 RMSU=  1.84D-06    CP:  1.00D+00  8.86D-01
 E= -420.463110160396     Delta-E=       -0.000000065163 Rises=F Damp=F
 DIIS: error= 9.62D-06 at cycle   3 NSaved=   3.
 NSaved= 3 IEnMin= 3 EnMin= -420.463110160396     IErMin= 3 ErrMin= 9.62D-06
 ErrMax= 9.62D-06  0.00D+00 EMaxC= 1.00D-01 BMatC= 3.61D-08 BMatP= 1.29D-07
 IDIUse=1 WtCom= 1.00D+00 WtEn= 0.00D+00
 Coeff-Com:  0.149D-01 0.225D+00 0.760D+00
 Coeff:      0.149D-01 0.225D+00 0.760D+00
 Gap=     0.151 Goal=   None    Shift=    0.000
 Gap=     0.072 Goal=   None    Shift=    0.000
 RMSDP=1.38D-06 MaxDP=6.45D-05 DE=-6.52D-08 OVMax= 1.34D-04

 Cycle  16  Pass 1  IDiag  1:
 RMSU=  1.11D-06    CP:  1.00D+00  1.08D+00  1.12D+00
 E= -420.463110187073     Delta-E=       -0.000000026677 Rises=F Damp=F
 DIIS: error= 7.38D-06 at cycle   4 NSaved=   4.
 NSaved= 4 IEnMin= 4 EnMin= -420.463110187073     IErMin= 4 ErrMin= 7.38D-06
 ErrMax= 7.38D-06  0.00D+00 EMaxC= 1.00D-01 BMatC= 1.31D-08 BMatP= 3.61D-08
 IDIUse=1 WtCom= 1.00D+00 WtEn= 0.00D+00
 Coeff-Com: -0.163D+00 0.506D-01 0.444D+00 0.669D+00
 Coeff:     -0.163D+00 0.506D-01 0.444D+00 0.669D+00
 Gap=     0.151 Goal=   None    Shift=    0.000
 Gap=     0.072 Goal=   None    Shift=    0.000
 RMSDP=1.23D-06 MaxDP=6.22D-05 DE=-2.67D-08 OVMax= 2.24D-04

 Cycle  17  Pass 1  IDiag  1:
 RMSU=  7.98D-07    CP:  1.00D+00  1.22D+00  1.47D+00  1.29D+00
 E= -420.463110203193     Delta-E=       -0.000000016120 Rises=F Damp=F
 DIIS: error= 6.60D-06 at cycle   5 NSaved=   5.
 NSaved= 5 IEnMin= 5 EnMin= -420.463110203193     IErMin= 5 ErrMin= 6.60D-06
 ErrMax= 6.60D-06  0.00D+00 EMaxC= 1.00D-01 BMatC= 1.09D-08 BMatP= 1.31D-08
 IDIUse=1 WtCom= 1.00D+00 WtEn= 0.00D+00
 Coeff-Com: -0.949D-01-0.980D-01-0.395D+00 0.585D+00 0.100D+01
 Coeff:     -0.949D-01-0.980D-01-0.395D+00 0.585D+00 0.100D+01
 Gap=     0.151 Goal=   None    Shift=    0.000
 Gap=     0.072 Goal=   None    Shift=    0.000
 RMSDP=1.55D-06 MaxDP=7.20D-05 DE=-1.61D-08 OVMax= 1.98D-04

 Cycle  18  Pass 1  IDiag  1:
 RMSU=  3.87D-07    CP:  1.00D+00  1.40D+00  1.87D+00  2.23D+00  1.35D+00
 E= -420.463110217705     Delta-E=       -0.000000014512 Rises=F Damp=F
 DIIS: error= 3.22D-06 at cycle   6 NSaved=   6.
 NSaved= 6 IEnMin= 6 EnMin= -420.463110217705     IErMin= 6 ErrMin= 3.22D-06
 ErrMax= 3.22D-06  0.00D+00 EMaxC= 1.00D-01 BMatC= 4.46D-09 BMatP= 1.09D-08
 IDIUse=1 WtCom= 1.00D+00 WtEn= 0.00D+00
 Coeff-Com:  0.745D-02-0.117D+00-0.665D+00 0.218D+00 0.876D+00 0.681D+00
 Coeff:      0.745D-02-0.117D+00-0.665D+00 0.218D+00 0.876D+00 0.681D+00
 Gap=     0.151 Goal=   None    Shift=    0.000
 Gap=     0.072 Goal=   None    Shift=    0.000
 RMSDP=1.16D-06 MaxDP=5.66D-05 DE=-1.45D-08 OVMax= 1.69D-04

 Cycle  19  Pass 1  IDiag  1:
 RMSU=  1.92D-07    CP:  1.00D+00  1.55D+00  2.13D+00  2.89D+00  1.82D+00
                    CP:  7.69D-01
 E= -420.463110222349     Delta-E=       -0.000000004644 Rises=F Damp=F
 DIIS: error= 1.56D-06 at cycle   7 NSaved=   7.
 NSaved= 7 IEnMin= 7 EnMin= -420.463110222349     IErMin= 7 ErrMin= 1.56D-06
 ErrMax= 1.56D-06  0.00D+00 EMaxC= 1.00D-01 BMatC= 7.02D-10 BMatP= 4.46D-09
 IDIUse=1 WtCom= 1.00D+00 WtEn= 0.00D+00
 Coeff-Com:  0.163D-01-0.591D-01-0.368D+00 0.813D-01 0.437D+00 0.429D+00
 Coeff-Com:  0.464D+00
 Coeff:      0.163D-01-0.591D-01-0.368D+00 0.813D-01 0.437D+00 0.429D+00
 Coeff:      0.464D+00
 Gap=     0.151 Goal=   None    Shift=    0.000
 Gap=     0.072 Goal=   None    Shift=    0.000
 RMSDP=1.52D-07 MaxDP=7.34D-06 DE=-4.64D-09 OVMax= 1.98D-05

 Cycle  20  Pass 1  IDiag  1:
 RMSU=  8.71D-08    CP:  1.00D+00  1.56D+00  2.17D+00  2.94D+00  1.87D+00
                    CP:  8.91D-01  6.80D-01
 E= -420.463110222594     Delta-E=       -0.000000000245 Rises=F Damp=F
 DIIS: error= 4.51D-07 at cycle   8 NSaved=   8.
 NSaved= 8 IEnMin= 8 EnMin= -420.463110222594     IErMin= 8 ErrMin= 4.51D-07
 ErrMax= 4.51D-07  0.00D+00 EMaxC= 1.00D-01 BMatC= 8.71D-11 BMatP= 7.02D-10
 IDIUse=1 WtCom= 1.00D+00 WtEn= 0.00D+00
 Coeff-Com:  0.380D-02 0.107D-01 0.491D-01-0.369D-01-0.943D-01-0.312D-01
 Coeff-Com:  0.206D+00 0.893D+00
 Coeff:      0.380D-02 0.107D-01 0.491D-01-0.369D-01-0.943D-01-0.312D-01
 Coeff:      0.206D+00 0.893D+00
 Gap=     0.151 Goal=   None    Shift=    0.000
 Gap=     0.072 Goal=   None    Shift=    0.000
 RMSDP=1.03D-07 MaxDP=5.74D-06 DE=-2.45D-10 OVMax= 1.15D-05

 Cycle  21  Pass 1  IDiag  1:
 RMSU=  4.47D-08    CP:  1.00D+00  1.57D+00  2.18D+00  2.99D+00  1.90D+00
                    CP:  9.17D-01  9.11D-01  1.15D+00
 E= -420.463110222672     Delta-E=       -0.000000000078 Rises=F Damp=F
 DIIS: error= 2.29D-07 at cycle   9 NSaved=   9.
 NSaved= 9 IEnMin= 9 EnMin= -420.463110222672     IErMin= 9 ErrMin= 2.29D-07
 ErrMax= 2.29D-07  0.00D+00 EMaxC= 1.00D-01 BMatC= 2.52D-11 BMatP= 8.71D-11
 IDIUse=1 WtCom= 1.00D+00 WtEn= 0.00D+00
 Coeff-Com: -0.226D-02 0.233D-01 0.133D+00-0.382D-01-0.176D+00-0.137D+00
 Coeff-Com: -0.497D-01 0.422D+00 0.825D+00
 Coeff:     -0.226D-02 0.233D-01 0.133D+00-0.382D-01-0.176D+00-0.137D+00
 Coeff:     -0.497D-01 0.422D+00 0.825D+00
 Gap=     0.151 Goal=   None    Shift=    0.000
 Gap=     0.072 Goal=   None    Shift=    0.000
 RMSDP=4.15D-08 MaxDP=1.47D-06 DE=-7.78D-11 OVMax= 5.01D-06

 SCF Done:  E(UB3LYP) =  -420.463110223     A.U. after   21 cycles
            NFock= 21  Conv=0.41D-07     -V/T= 2.0090
 <Sx>= 0.0000 <Sy>= 0.0000 <Sz>= 0.5000 <S**2>= 0.7676 S= 0.5088
 <L.S>= 0.000000000000E+00
 KE= 4.167261493141D+02 PE=-1.783212891807D+03 EE= 5.379041543111D+02
 Annihilation of the first spin contaminant:
 S**2 before annihilation     0.7676,   after     0.7502
 Leave Link  502 at Mon Dec 08 16:36:17 2025, MaxMem=   104857600 cpu:              37.0 elap:              37.4
 (Enter D:\Gaussian\G16W\l601.exe)
 Copying SCF densities to generalized density rwf, IOpCl= 1 IROHF=0.

 **********************************************************************

            Population analysis using the SCF density.

 **********************************************************************

 Orbital symmetries:
 Alpha Orbitals:
       Occupied  (A) (A) (A) (A) (A) (A) (A) (A) (A) (A) (A) (A)
                 (A) (A) (A) (A) (A) (A) (A) (A) (A) (A) (A) (A)
                 (A) (A) (A) (A) (A) (A) (A) (A)
       Virtual   (A) (A) (A) (A) (A) (A) (A) (A) (A) (A) (A) (A)
                 (A) (A) (A) (A) (A) (A) (A) (A) (A) (A) (A) (A)
                 (A) (A) (A) (A) (A) (A) (A) (A) (A) (A) (A) (A)
                 (A) (A) (A) (A) (A) (A) (A) (A) (A) (A) (A) (A)
                 (A) (A) (A) (A) (A) (A) (A) (A) (A) (A) (A) (A)
                 (A) (A) (A) (A) (A) (A) (A) (A) (A) (A) (A) (A)
                 (A) (A) (A) (A) (A) (A) (A) (A) (A) (A) (A) (A)
                 (A) (A) (A) (A) (A) (A) (A) (A) (A) (A) (A) (A)
                 (A) (A) (A) (A) (A) (A) (A) (A) (A) (A) (A) (A)
                 (A) (A) (A) (A) (A) (A) (A)
 Beta  Orbitals:
       Occupied  (A) (A) (A) (A) (A) (A) (A) (A) (A) (A) (A) (A)
                 (A) (A) (A) (A) (A) (A) (A) (A) (A) (A) (A) (A)
                 (A) (A) (A) (A) (A) (A) (A)
       Virtual   (A) (A) (A) (A) (A) (A) (A) (A) (A) (A) (A) (A)
                 (A) (A) (A) (A) (A) (A) (A) (A) (A) (A) (A) (A)
                 (A) (A) (A) (A) (A) (A) (A) (A) (A) (A) (A) (A)
                 (A) (A) (A) (A) (A) (A) (A) (A) (A) (A) (A) (A)
                 (A) (A) (A) (A) (A) (A) (A) (A) (A) (A) (A) (A)
                 (A) (A) (A) (A) (A) (A) (A) (A) (A) (A) (A) (A)
                 (A) (A) (A) (A) (A) (A) (A) (A) (A) (A) (A) (A)
                 (A) (A) (A) (A) (A) (A) (A) (A) (A) (A) (A) (A)
                 (A) (A) (A) (A) (A) (A) (A) (A) (A) (A) (A) (A)
                 (A) (A) (A) (A) (A) (A) (A) (A)
 The electronic state is 2-A.
 Alpha  occ. eigenvalues --  -19.42364 -19.36040 -10.49811 -10.48044 -10.43989
 Alpha  occ. eigenvalues --  -10.43905 -10.43710 -10.40713 -10.39399  -1.30907
 Alpha  occ. eigenvalues --   -1.24441  -1.08086  -0.99426  -0.97554  -0.87270
 Alpha  occ. eigenvalues --   -0.82444  -0.82047  -0.74961  -0.72071  -0.68993
 Alpha  occ. eigenvalues --   -0.66497  -0.66085  -0.63943  -0.63214  -0.60734
 Alpha  occ. eigenvalues --   -0.59426  -0.58882  -0.57021  -0.56146  -0.47120
 Alpha  occ. eigenvalues --   -0.47116  -0.45809
 Alpha virt. eigenvalues --   -0.30703  -0.20299  -0.17238  -0.09149  -0.07101
 Alpha virt. eigenvalues --   -0.05317  -0.04519  -0.04356  -0.00751   0.00843
 Alpha virt. eigenvalues --    0.02660   0.04392   0.10832   0.11424   0.12679
 Alpha virt. eigenvalues --    0.16339   0.18207   0.26295   0.28601   0.28911
 Alpha virt. eigenvalues --    0.30387   0.33712   0.34374   0.34916   0.38404
 Alpha virt. eigenvalues --    0.38911   0.41429   0.43403   0.45491   0.45813
 Alpha virt. eigenvalues --    0.46196   0.47757   0.49780   0.52049   0.58446
 Alpha virt. eigenvalues --    0.58465   0.62419   0.63546   0.66521   0.68846
 Alpha virt. eigenvalues --    0.71578   0.72460   0.73504   0.73871   0.77033
 Alpha virt. eigenvalues --    0.77367   0.81819   0.83951   0.86132   0.89070
 Alpha virt. eigenvalues --    0.90208   0.95295   0.98455   0.99941   1.04108
 Alpha virt. eigenvalues --    1.05958   1.11005   1.13891   1.16688   1.17356
 Alpha virt. eigenvalues --    1.20612   1.21975   1.25919   1.26640   1.40352
 Alpha virt. eigenvalues --    1.42844   1.46902   1.48581   1.52347   1.57489
 Alpha virt. eigenvalues --    1.58480   1.59838   1.65406   1.66952   1.67653
 Alpha virt. eigenvalues --    1.71335   1.72442   1.74917   1.77139   1.79775
 Alpha virt. eigenvalues --    1.83817   1.88198   1.88963   1.95712   2.02406
 Alpha virt. eigenvalues --    2.02551   2.09049   2.09861   2.13065   2.18404
 Alpha virt. eigenvalues --    2.19169   2.23333   2.23668   2.36421   2.38736
 Alpha virt. eigenvalues --    2.41066   2.43781   2.50085   2.56757   2.61643
 Alpha virt. eigenvalues --    2.63262   2.73085   2.75621   2.82902   3.01980
 Alpha virt. eigenvalues --    3.14794   3.64988   3.84431   3.85543   3.90081
 Alpha virt. eigenvalues --    3.96956   4.06500   4.15015   4.34670   4.71038
  Beta  occ. eigenvalues --  -19.41816 -19.35671 -10.49572 -10.48138 -10.43975
  Beta  occ. eigenvalues --  -10.43401 -10.43390 -10.40753 -10.39367  -1.29876
  Beta  occ. eigenvalues --   -1.23674  -1.07448  -0.98167  -0.97109  -0.86581
  Beta  occ. eigenvalues --   -0.82193  -0.81726  -0.74525  -0.71788  -0.68742
  Beta  occ. eigenvalues --   -0.66151  -0.63919  -0.63622  -0.62905  -0.60483
  Beta  occ. eigenvalues --   -0.59073  -0.56724  -0.55993  -0.55094  -0.46754
  Beta  occ. eigenvalues --   -0.45339
  Beta virt. eigenvalues --   -0.38115  -0.27746  -0.18934  -0.15872  -0.08872
  Beta virt. eigenvalues --   -0.06847  -0.05136  -0.03960  -0.03633  -0.00512
  Beta virt. eigenvalues --    0.00885   0.02871   0.04686   0.10987   0.11855
  Beta virt. eigenvalues --    0.12895   0.16595   0.18367   0.26470   0.28842
  Beta virt. eigenvalues --    0.29832   0.30648   0.34613   0.35071   0.35570
  Beta virt. eigenvalues --    0.39093   0.39181   0.41477   0.44306   0.45975
  Beta virt. eigenvalues --    0.46516   0.46561   0.47827   0.50129   0.52289
  Beta virt. eigenvalues --    0.58656   0.58835   0.62723   0.63810   0.66640
  Beta virt. eigenvalues --    0.69055   0.71956   0.73863   0.74112   0.74198
  Beta virt. eigenvalues --    0.77290   0.77630   0.82185   0.85248   0.86378
  Beta virt. eigenvalues --    0.89382   0.90421   0.95546   0.98852   1.00496
  Beta virt. eigenvalues --    1.04428   1.06049   1.12214   1.15016   1.16792
  Beta virt. eigenvalues --    1.17711   1.21326   1.22233   1.26245   1.26791
  Beta virt. eigenvalues --    1.40957   1.45383   1.47029   1.49593   1.52774
  Beta virt. eigenvalues --    1.57705   1.59472   1.60250   1.66209   1.67323
  Beta virt. eigenvalues --    1.68479   1.71872   1.73797   1.75195   1.77929
  Beta virt. eigenvalues --    1.80220   1.84337   1.88446   1.89506   1.96779
  Beta virt. eigenvalues --    2.02860   2.02899   2.09694   2.10442   2.13450
  Beta virt. eigenvalues --    2.19483   2.19801   2.23997   2.24796   2.36825
  Beta virt. eigenvalues --    2.39188   2.41482   2.44373   2.50233   2.56950
  Beta virt. eigenvalues --    2.62180   2.63471   2.73302   2.75775   2.83288
  Beta virt. eigenvalues --    3.02094   3.14898   3.65586   3.84781   3.85900
  Beta virt. eigenvalues --    3.91314   3.97196   4.06975   4.15317   4.34950
  Beta virt. eigenvalues --    4.71358
          Condensed to atoms (all electrons):
               1          2          3          4          5          6
     1  C    4.815940   0.417075   0.000051  -0.014869  -0.083651   0.281174
     2  C    0.417075   5.143200   0.443903  -0.049563  -0.021762  -0.049100
     3  C    0.000051   0.443903   4.592042   0.425597  -0.020270  -0.019341
     4  C   -0.014869  -0.049563   0.425597   4.985838   0.517698  -0.013410
     5  C   -0.083651  -0.021762  -0.020270   0.517698   5.084703   0.387004
     6  C    0.281174  -0.049100  -0.019341  -0.013410   0.387004   4.589620
     7  H   -0.023022   0.347833  -0.032893   0.003957  -0.000565   0.003765
     8  H   -0.000222   0.004523  -0.041583   0.362121  -0.023600   0.002946
     9  H    0.004588   0.000023   0.003149  -0.028772   0.357006  -0.026674
    10  O   -0.065607   0.007156  -0.000217   0.004910  -0.061682   0.470750
    11  H   -0.040334   0.007297  -0.000040  -0.000218   0.002428  -0.010028
    12  O    0.337218  -0.049714   0.001955  -0.000014   0.004045  -0.045447
    13  C    0.006710  -0.047361   0.497316  -0.053463   0.006736   0.000396
    14  H    0.000167  -0.004284  -0.026317   0.003784  -0.000188   0.000000
    15  H   -0.000173   0.003696  -0.027141  -0.004518   0.000203   0.000010
               7          8          9         10         11         12
     1  C   -0.023022  -0.000222   0.004588  -0.065607  -0.040334   0.337218
     2  C    0.347833   0.004523   0.000023   0.007156   0.007297  -0.049714
     3  C   -0.032893  -0.041583   0.003149  -0.000217  -0.000040   0.001955
     4  C    0.003957   0.362121  -0.028772   0.004910  -0.000218  -0.000014
     5  C   -0.000565  -0.023600   0.357006  -0.061682   0.002428   0.004045
     6  C    0.003765   0.002946  -0.026674   0.470750  -0.010028  -0.045447
     7  H    0.463935  -0.000085   0.000011  -0.000055  -0.000296  -0.001493
     8  H   -0.000085   0.485880  -0.004391  -0.000053   0.000001   0.000002
     9  H    0.000011  -0.004391   0.462159  -0.000312  -0.000033  -0.000030
    10  O   -0.000055  -0.000053  -0.000312   8.029143   0.049130  -0.022366
    11  H   -0.000296   0.000001  -0.000033   0.049130   0.294066   0.223879
    12  O   -0.001493   0.000002  -0.000030  -0.022366   0.223879   8.056155
    13  C   -0.005935  -0.006710  -0.000148  -0.000002   0.000004  -0.000067
    14  H    0.003832   0.000041   0.000002   0.000000   0.000000  -0.000001
    15  H    0.000010   0.004722  -0.000009   0.000000   0.000000   0.000000
              13         14         15
     1  C    0.006710   0.000167  -0.000173
     2  C   -0.047361  -0.004284   0.003696
     3  C    0.497316  -0.026317  -0.027141
     4  C   -0.053463   0.003784  -0.004518
     5  C    0.006736  -0.000188   0.000203
     6  C    0.000396   0.000000   0.000010
     7  H   -0.005935   0.003832   0.000010
     8  H   -0.006710   0.000041   0.004722
     9  H   -0.000148   0.000002  -0.000009
    10  O   -0.000002   0.000000   0.000000
    11  H    0.000004   0.000000   0.000000
    12  O   -0.000067  -0.000001   0.000000
    13  C    5.189850   0.357428   0.359891
    14  H    0.357428   0.441992  -0.023112
    15  H    0.359891  -0.023112   0.435477
          Atomic-Atomic Spin Densities.
               1          2          3          4          5          6
     1  C    0.168104   0.062645  -0.006840   0.000644   0.001709   0.004137
     2  C    0.062645   0.229332  -0.045405   0.000565   0.002435  -0.000123
     3  C   -0.006840  -0.045405  -0.030814   0.003607   0.000240   0.000565
     4  C    0.000644   0.000565   0.003607  -0.035711   0.000141   0.000980
     5  C    0.001709   0.002435   0.000240   0.000141   0.023316   0.007017
     6  C    0.004137  -0.000123   0.000565   0.000980   0.007017  -0.065313
     7  H   -0.000614   0.000306   0.000832  -0.000099   0.000003  -0.000060
     8  H    0.000006   0.000034   0.000189  -0.000073   0.000228  -0.000008
     9  H    0.000009  -0.000015  -0.000008   0.000015   0.000180   0.000052
    10  O   -0.004359  -0.000300   0.000005   0.000010  -0.001677  -0.010149
    11  H    0.000546  -0.000042  -0.000012   0.000006  -0.000026   0.000560
    12  O   -0.057004  -0.008095   0.000224  -0.000009  -0.000112   0.000592
    13  C   -0.001078  -0.012046   0.037057  -0.002042  -0.000629  -0.000030
    14  H   -0.000018  -0.000023  -0.000874   0.000006   0.000009  -0.000001
    15  H    0.000005   0.000032  -0.001058   0.000124  -0.000023   0.000001
               7          8          9         10         11         12
     1  C   -0.000614   0.000006   0.000009  -0.004359   0.000546  -0.057004
     2  C    0.000306   0.000034  -0.000015  -0.000300  -0.000042  -0.008095
     3  C    0.000832   0.000189  -0.000008   0.000005  -0.000012   0.000224
     4  C   -0.000099  -0.000073   0.000015   0.000010   0.000006  -0.000009
     5  C    0.000003   0.000228   0.000180  -0.001677  -0.000026  -0.000112
     6  C   -0.000060  -0.000008   0.000052  -0.010149   0.000560   0.000592
     7  H   -0.009932   0.000000   0.000000   0.000001   0.000007  -0.000061
     8  H    0.000000   0.000691  -0.000021   0.000000   0.000000   0.000000
     9  H    0.000000  -0.000021  -0.001360  -0.000087   0.000001   0.000000
    10  O    0.000001   0.000000  -0.000087   0.164260  -0.000684   0.001877
    11  H    0.000007   0.000000   0.000001  -0.000684  -0.004947  -0.001679
    12  O   -0.000061   0.000000   0.000000   0.001877  -0.001679   0.258930
    13  C    0.000332   0.000254  -0.000002   0.000001   0.000000   0.000009
    14  H   -0.000043  -0.000006   0.000000   0.000000   0.000000   0.000000
    15  H   -0.000006  -0.000037   0.000000   0.000000   0.000000   0.000000
              13         14         15
     1  C   -0.001078  -0.000018   0.000005
     2  C   -0.012046  -0.000023   0.000032
     3  C    0.037057  -0.000874  -0.001058
     4  C   -0.002042   0.000006   0.000124
     5  C   -0.000629   0.000009  -0.000023
     6  C   -0.000030  -0.000001   0.000001
     7  H    0.000332  -0.000043  -0.000006
     8  H    0.000254  -0.000006  -0.000037
     9  H   -0.000002   0.000000   0.000000
    10  O    0.000001   0.000000   0.000000
    11  H    0.000000   0.000000   0.000000
    12  O    0.000009   0.000000   0.000000
    13  C    0.398459  -0.002610  -0.002463
    14  H   -0.002610  -0.015541   0.000716
    15  H   -0.002463   0.000716  -0.016193
 Mulliken charges and spin densities:
               1          2
     1  C    0.364956   0.167890
     2  C   -0.152921   0.229297
     3  C    0.203789  -0.042291
     4  C   -0.139079  -0.031835
     5  C   -0.148105   0.032811
     6  C    0.428335  -0.061781
     7  H    0.241002  -0.009333
     8  H    0.216409   0.001257
     9  H    0.233432  -0.001237
    10  O   -0.410795   0.148899
    11  H    0.474144  -0.006270
    12  O   -0.504123   0.194672
    13  C   -0.304645   0.415210
    14  H    0.246655  -0.018386
    15  H    0.250945  -0.018905
 Sum of Mulliken charges =   1.00000   1.00000
 Mulliken charges and spin densities with hydrogens summed into heavy atoms:
               1          2
     1  C    0.364956   0.167890
     2  C    0.088081   0.219964
     3  C    0.203789  -0.042291
     4  C    0.077331  -0.030578
     5  C    0.085327   0.031574
     6  C    0.428335  -0.061781
    10  O   -0.410795   0.148899
    12  O   -0.029979   0.188402
    13  C    0.192955   0.377920
 Electronic spatial extent (au):  <R**2>=           1092.6854
 Charge=              1.0000 electrons
 Dipole moment (field-independent basis, Debye):
    X=             -4.9348    Y=             -1.0009    Z=              0.0003  Tot=              5.0353
 Quadrupole moment (field-independent basis, Debye-Ang):
   XX=            -24.6789   YY=            -38.7437   ZZ=            -49.5269
   XY=             -1.2972   XZ=             -0.0017   YZ=              0.0027
 Traceless Quadrupole moment (field-independent basis, Debye-Ang):
   XX=             12.9709   YY=             -1.0939   ZZ=            -11.8771
   XY=             -1.2972   XZ=             -0.0017   YZ=              0.0027
 Octapole moment (field-independent basis, Debye-Ang**2):
  XXX=            -39.8487  YYY=              5.3176  ZZZ=              0.0012  XYY=             -9.0581
  XXY=            -18.4469  XXZ=              0.0112  XZZ=              7.8334  YZZ=             -1.9978
  YYZ=             -0.0016  XYZ=              0.0004
 Hexadecapole moment (field-independent basis, Debye-Ang**3):
 XXXX=           -620.6270 YYYY=           -373.6091 ZZZZ=            -45.2449 XXXY=            -31.7210
 XXXZ=             -0.0302 YYYX=             11.4180 YYYZ=              0.0076 ZZZX=             -0.0015
 ZZZY=             -0.0041 XXYY=           -188.6062 XXZZ=           -154.9866 YYZZ=            -83.1221
 XXYZ=              0.0063 YYXZ=             -0.0038 ZZXY=             -0.6965
 N-N= 4.081194779593D+02 E-N=-1.783212893117D+03  KE= 4.167261493141D+02
                          Isotropic Fermi Contact Couplings
        Atom                 a.u.       MegaHertz       Gauss      10(-4) cm-1
     1  C(13)              0.00792       8.90261       3.17667       2.96959
     2  C(13)              0.01964      22.07645       7.87743       7.36391
     3  C(13)             -0.01298     -14.59300      -5.20715      -4.86770
     4  C(13)             -0.00332      -3.73187      -1.33163      -1.24482
     5  C(13)              0.00247       2.77266       0.98935       0.92486
     6  C(13)             -0.01215     -13.65671      -4.87305      -4.55539
     7  H(1)              -0.00361     -16.13217      -5.75636      -5.38111
     8  H(1)               0.00036       1.62683       0.58049       0.54265
     9  H(1)              -0.00045      -1.98962      -0.70995      -0.66367
    10  O(17)              0.01678     -10.17374      -3.63024      -3.39360
    11  H(1)              -0.00312     -13.95026      -4.97780      -4.65331
    12  O(17)              0.03529     -21.39294      -7.63353      -7.13592
    13  C(13)              0.03780      42.49453      15.16311      14.17465
    14  H(1)              -0.00628     -28.06329     -10.01368      -9.36090
    15  H(1)              -0.00652     -29.15645     -10.40375      -9.72554
 --------------------------------------------------------
       Center         ----  Spin Dipole Couplings  ----
                      3XX-RR        3YY-RR        3ZZ-RR
 --------------------------------------------------------
     1   Atom       -0.092420     -0.113942      0.206362
     2   Atom       -0.117242     -0.139128      0.256370
     3   Atom        0.021587     -0.012346     -0.009240
     4   Atom        0.017965      0.018446     -0.036410
     5   Atom       -0.013646     -0.006727      0.020373
     6   Atom        0.038196      0.024096     -0.062292
     7   Atom       -0.006247      0.013736     -0.007489
     8   Atom       -0.001772      0.005271     -0.003498
     9   Atom       -0.001514      0.003711     -0.002197
    10   Atom       -0.271496     -0.269951      0.541447
    11   Atom        0.018562     -0.003759     -0.014803
    12   Atom       -0.402641     -0.417630      0.820271
    13   Atom       -0.212684     -0.216141      0.428824
    14   Atom       -0.017898      0.023163     -0.005265
    15   Atom        0.005803     -0.001335     -0.004469
 --------------------------------------------------------
                        XY            XZ            YZ
 --------------------------------------------------------
     1   Atom       -0.000535     -0.000086      0.000075
     2   Atom        0.003184     -0.000060     -0.000140
     3   Atom        0.000963     -0.000045     -0.000034
     4   Atom        0.002398     -0.000008      0.000011
     5   Atom       -0.000041     -0.000031      0.000039
     6   Atom        0.008941     -0.000010     -0.000030
     7   Atom        0.012265      0.000004      0.000009
     8   Atom        0.003009      0.000001      0.000001
     9   Atom       -0.000008     -0.000001      0.000000
    10   Atom        0.000946      0.000399     -0.000532
    11   Atom        0.029396     -0.000007      0.000005
    12   Atom        0.000015     -0.000320      0.000451
    13   Atom       -0.000813      0.000267     -0.000126
    14   Atom        0.018311      0.000007     -0.000010
    15   Atom       -0.029869     -0.000016      0.000019
 --------------------------------------------------------


 ---------------------------------------------------------------------------------
              Anisotropic Spin Dipole Couplings in Principal Axis System
 ---------------------------------------------------------------------------------

       Atom             a.u.   MegaHertz   Gauss  10(-4) cm-1        Axes

              Baa    -0.1140   -15.292    -5.456    -5.101  0.0249  0.9997 -0.0002
     1 C(13)  Bbb    -0.0924   -12.400    -4.425    -4.136  0.9997 -0.0249  0.0003
              Bcc     0.2064    27.692     9.881     9.237 -0.0003  0.0002  1.0000
 
              Baa    -0.1396   -18.731    -6.684    -6.248 -0.1411  0.9900  0.0003
     2 C(13)  Bbb    -0.1168   -15.672    -5.592    -5.228  0.9900  0.1411  0.0002
              Bcc     0.2564    34.402    12.276    11.475 -0.0002 -0.0004  1.0000
 
              Baa    -0.0124    -1.660    -0.592    -0.554 -0.0283  0.9995  0.0106
     3 C(13)  Bbb    -0.0092    -1.240    -0.442    -0.414  0.0018 -0.0105  0.9999
              Bcc     0.0216     2.900     1.035     0.967  0.9996  0.0283 -0.0015
 
              Baa    -0.0364    -4.886    -1.743    -1.630  0.0001 -0.0002  1.0000
     4 C(13)  Bbb     0.0158     2.120     0.756     0.707  0.7416 -0.6709 -0.0003
              Bcc     0.0206     2.766     0.987     0.923  0.6709  0.7416  0.0001
 
              Baa    -0.0136    -1.831    -0.653    -0.611  1.0000  0.0059  0.0009
     5 C(13)  Bbb    -0.0067    -0.903    -0.322    -0.301 -0.0059  1.0000 -0.0015
              Bcc     0.0204     2.734     0.976     0.912 -0.0009  0.0014  1.0000
 
              Baa    -0.0623    -8.359    -2.983    -2.788  0.0001  0.0003  1.0000
     6 C(13)  Bbb     0.0198     2.652     0.946     0.884 -0.4364  0.8998 -0.0003
              Bcc     0.0425     5.707     2.037     1.904  0.8998  0.4364 -0.0002
 
              Baa    -0.0121    -6.442    -2.299    -2.149  0.9032 -0.4292  0.0001
     7 H(1)   Bbb    -0.0075    -3.996    -1.426    -1.333 -0.0003 -0.0003  1.0000
              Bcc     0.0196    10.438     3.725     3.482  0.4292  0.9032  0.0004
 
              Baa    -0.0035    -1.866    -0.666    -0.623 -0.0006  0.0001  1.0000
     8 H(1)   Bbb    -0.0029    -1.538    -0.549    -0.513  0.9382 -0.3462  0.0006
              Bcc     0.0064     3.405     1.215     1.136  0.3462  0.9382  0.0001
 
              Baa    -0.0022    -1.172    -0.418    -0.391  0.0020 -0.0001  1.0000
     9 H(1)   Bbb    -0.0015    -0.808    -0.288    -0.269  1.0000  0.0016 -0.0020
              Bcc     0.0037     1.980     0.707     0.661 -0.0016  1.0000  0.0001
 
              Baa    -0.2719    19.678     7.022     6.564  0.9035 -0.4287 -0.0007
    10 O(17)  Bbb    -0.2695    19.501     6.958     6.505  0.4287  0.9035  0.0004
              Bcc     0.5414   -39.179   -13.980   -13.069  0.0005 -0.0007  1.0000
 
              Baa    -0.0240   -12.828    -4.577    -4.279 -0.5679  0.8231 -0.0009
    11 H(1)   Bbb    -0.0148    -7.898    -2.818    -2.635 -0.0005  0.0008  1.0000
              Bcc     0.0388    20.726     7.396     6.913  0.8231  0.5679 -0.0001
 
              Baa    -0.4176    30.219    10.783    10.080 -0.0010  1.0000 -0.0004
    12 O(17)  Bbb    -0.4026    29.135    10.396     9.718  1.0000  0.0010  0.0003
              Bcc     0.8203   -59.354   -21.179   -19.798 -0.0003  0.0004  1.0000
 
              Baa    -0.2163   -29.028   -10.358    -9.683  0.2181  0.9759  0.0001
    13 C(13)  Bbb    -0.2125   -28.516   -10.175    -9.512  0.9759 -0.2181 -0.0004
              Bcc     0.4288    57.544    20.533    19.195  0.0004 -0.0002  1.0000
 
              Baa    -0.0249   -13.274    -4.736    -4.428  0.9344 -0.3562 -0.0005
    14 H(1)   Bbb    -0.0053    -2.809    -1.002    -0.937  0.0005  0.0000  1.0000
              Bcc     0.0301    16.083     5.739     5.365  0.3562  0.9344 -0.0002
 
              Baa    -0.0278   -14.858    -5.302    -4.956  0.6638  0.7479 -0.0002
    15 H(1)   Bbb    -0.0045    -2.384    -0.851    -0.795  0.0006 -0.0003  1.0000
              Bcc     0.0323    17.242     6.153     5.751  0.7479 -0.6638 -0.0007
 

 ---------------------------------------------------------------------------------

 No NMR shielding tensors so no spin-rotation constants.
 Leave Link  601 at Mon Dec 08 16:36:18 2025, MaxMem=   104857600 cpu:               1.0 elap:               0.3
 (Enter D:\Gaussian\G16W\l9999.exe)
 1|1|UNPC-PC-20250526LCFF|SP|UB3LYP|6-31G(d)|C7H6O2(1+,2)|ADMINISTRATOR
 |08-Dec-2025|0||#p b3lyp/6-31g(d) out=wfn scf=conver=7||Generated by M
 ultiwfn (http://sobereva.com/multiwfn)||1,2|C,0,0.741168,-0.785684,-0.
 000039|C,0,-0.557227,-1.1572,-0.00044|C,0,-1.607032,-0.154495,-0.00010
 8|C,0,-1.218614,1.254512,0.000131|C,0,0.072532,1.639072,0.000071|C,0,1
 .14245,0.645662,0.000072|H,0,-0.824842,-2.207386,-0.000663|H,0,-2.0140
 63,1.992432,0.000276|H,0,0.371261,2.680459,0.000074|O,0,2.343411,0.913
 173,-0.000258|H,0,2.567178,-1.085325,0.000083|O,0,1.769553,-1.64897,0.
 000412|C,0,-2.91844,-0.484059,0.000005|H,0,-3.243047,-1.517896,0.00017
 6|H,0,-3.689219,0.277238,0.000669||Version=EM64W-G16RevA.03|State=2-A|
 HF=-420.4631102|S2=0.76762|S2-1=0.|S2A=0.75016|RMSD=4.150e-008|Dipole=
 -1.9415141,-0.3937748,0.000128|Quadrupole=9.6435566,-0.8132553,-8.8303
 013,-0.9644577,-0.001299,0.0019742|PG=C01 [X(C7H6O2)]||@

 Writing a WFN file to "N-1.wfn"


 The lyf so short, the craft so long to lerne.
                             -- Chaucer
 Job cpu time:       0 days  0 hours  0 minutes 40.0 seconds.
 Elapsed time:       0 days  0 hours  0 minutes 39.3 seconds.
 File lengths (MBytes):  RWF=     26 Int=      0 D2E=      0 Chk=      3 Scr=      1
 Normal termination of Gaussian 16 at Mon Dec 08 16:36:18 2025.
