 Entering Link 1 = D:\Gaussian\G16W\l1.exe PID=     58988.
  
 Copyright (c) 1988,1990,1992,1993,1995,1998,2003,2009,2016,
            Gaussian, Inc.  All Rights Reserved.
  
 This is part of the Gaussian(R) 16 program.  It is based on
 the Gaussian(R) 09 system (copyright 2009, Gaussian, Inc.),
 the Gaussian(R) 03 system (copyright 2003, Gaussian, Inc.),
 the Gaussian(R) 98 system (copyright 1998, Gaussian, Inc.),
 the Gaussian(R) 94 system (copyright 1995, Gaussian, Inc.),
 the Gaussian 92(TM) system (copyright 1992, Gaussian, Inc.),
 the Gaussian 90(TM) system (copyright 1990, Gaussian, Inc.),
 the Gaussian 88(TM) system (copyright 1988, Gaussian, Inc.),
 the Gaussian 86(TM) system (copyright 1986, Carnegie Mellon
 University), and the Gaussian 82(TM) system (copyright 1983,
 Carnegie Mellon University). Gaussian is a federally registered
 trademark of Gaussian, Inc.
  
 This software contains proprietary and confidential information,
 including trade secrets, belonging to Gaussian, Inc.
  
 This software is provided under written license and may be
 used, copied, transmitted, or stored only in accord with that
 written license.
  
 The following legend is applicable only to US Government
 contracts under FAR:
  
                    RESTRICTED RIGHTS LEGEND
  
 Use, reproduction and disclosure by the US Government is
 subject to restrictions as set forth in subparagraphs (a)
 and (c) of the Commercial Computer Software - Restricted
 Rights clause in FAR 52.227-19.
  
 Gaussian, Inc.
 340 Quinnipiac St., Bldg. 40, Wallingford CT 06492
  
  
 ---------------------------------------------------------------
 Warning -- This program may not be used in any manner that
 competes with the business of Gaussian, Inc. or will provide
 assistance to any competitor of Gaussian, Inc.  The licensee
 of this program is prohibited from giving any competitor of
 Gaussian, Inc. access to this program.  By using this program,
 the user acknowledges that Gaussian, Inc. is engaged in the
 business of creating and licensing software in the field of
 computational chemistry and represents and warrants to the
 licensee that it is not a competitor of Gaussian, Inc. and that
 it will not use this program in any manner prohibited above.
 ---------------------------------------------------------------
  

 Cite this work as:
 Gaussian 16, Revision A.03,
 M. J. Frisch, G. W. Trucks, H. B. Schlegel, G. E. Scuseria, 
 M. A. Robb, J. R. Cheeseman, G. Scalmani, V. Barone, 
 G. A. Petersson, H. Nakatsuji, X. Li, M. Caricato, A. V. Marenich, 
 J. Bloino, B. G. Janesko, R. Gomperts, B. Mennucci, H. P. Hratchian, 
 J. V. Ortiz, A. F. Izmaylov, J. L. Sonnenberg, D. Williams-Young, 
 F. Ding, F. Lipparini, F. Egidi, J. Goings, B. Peng, A. Petrone, 
 T. Henderson, D. Ranasinghe, V. G. Zakrzewski, J. Gao, N. Rega, 
 G. Zheng, W. Liang, M. Hada, M. Ehara, K. Toyota, R. Fukuda, 
 J. Hasegawa, M. Ishida, T. Nakajima, Y. Honda, O. Kitao, H. Nakai, 
 T. Vreven, K. Throssell, J. A. Montgomery, Jr., J. E. Peralta, 
 F. Ogliaro, M. J. Bearpark, J. J. Heyd, E. N. Brothers, K. N. Kudin, 
 V. N. Staroverov, T. A. Keith, R. Kobayashi, J. Normand, 
 K. Raghavachari, A. P. Rendell, J. C. Burant, S. S. Iyengar, 
 J. Tomasi, M. Cossi, J. M. Millam, M. Klene, C. Adamo, R. Cammi, 
 J. W. Ochterski, R. L. Martin, K. Morokuma, O. Farkas, 
 J. B. Foresman, and D. J. Fox, Gaussian, Inc., Wallingford CT, 2016.
 
 ******************************************
 Gaussian 16:  EM64W-G16RevA.03 17-Dec-2016
                08-Dec-2025 
 ******************************************
 %nprocshared=14
 Will use up to   14 processors via shared memory.
 %nprocs=   4
 Will use up to    4 processors via shared memory.
 --------------------------------------
 #p b3lyp/6-31g(d) out=wfn scf=conver=7
 --------------------------------------
 1/38=1,172=1/1;
 2/12=2,17=6,18=5,40=1/2;
 3/5=1,6=6,7=1,11=2,25=1,30=1,74=-5/1,2,3;
 4//1;
 5/5=2,6=7,38=5/2;
 6/7=2,8=2,9=2,10=2,28=1/1;
 99/5=1,6=100,9=1/99;
 Leave Link    1 at Mon Dec 08 16:34:08 2025, MaxMem=           0 cpu:               0.0 elap:               0.2
 (Enter D:\Gaussian\G16W\l101.exe)
 ----------------------------------------------------
 Generated by Multiwfn (http://sobereva.com/multiwfn)
 ----------------------------------------------------
 Symbolic Z-matrix:
 Charge =  0 Multiplicity = 1
 C                     0.74117  -0.78568  -0.00004 
 C                    -0.55723  -1.1572   -0.00044 
 C                    -1.60703  -0.1545   -0.00011 
 C                    -1.21861   1.25451   0.00013 
 C                     0.07253   1.63907   0.00007 
 C                     1.14245   0.64566   0.00007 
 H                    -0.82484  -2.20739  -0.00066 
 H                    -2.01406   1.99243   0.00028 
 H                     0.37126   2.68046   0.00007 
 O                     2.34341   0.91317  -0.00026 
 H                     2.56718  -1.08533   0.00008 
 O                     1.76955  -1.64897   0.00041 
 C                    -2.91844  -0.48406   0.00001 
 H                    -3.24305  -1.5179    0.00018 
 H                    -3.68922   0.27724   0.00067 
 
 ITRead=  0  0  0  0  0  0  0  0  0  0  0  0  0  0  0
 MicOpt= -1 -1 -1 -1 -1 -1 -1 -1 -1 -1 -1 -1 -1 -1 -1
 NAtoms=     15 NQM=       15 NQMF=       0 NMMI=      0 NMMIF=      0
                NMic=       0 NMicF=      0.
                    Isotopes and Nuclear Properties:
 (Nuclear quadrupole moments (NQMom) in fm**2, nuclear magnetic moments (NMagM)
  in nuclear magnetons)

  Atom         1           2           3           4           5           6           7           8           9          10
 IAtWgt=          12          12          12          12          12          12           1           1           1          16
 AtmWgt=  12.0000000  12.0000000  12.0000000  12.0000000  12.0000000  12.0000000   1.0078250   1.0078250   1.0078250  15.9949146
 NucSpn=           0           0           0           0           0           0           1           1           1           0
 AtZEff=   0.0000000   0.0000000   0.0000000   0.0000000   0.0000000   0.0000000   0.0000000   0.0000000   0.0000000   0.0000000
 NQMom=    0.0000000   0.0000000   0.0000000   0.0000000   0.0000000   0.0000000   0.0000000   0.0000000   0.0000000   0.0000000
 NMagM=    0.0000000   0.0000000   0.0000000   0.0000000   0.0000000   0.0000000   2.7928460   2.7928460   2.7928460   0.0000000
 AtZNuc=   6.0000000   6.0000000   6.0000000   6.0000000   6.0000000   6.0000000   1.0000000   1.0000000   1.0000000   8.0000000

  Atom        11          12          13          14          15
 IAtWgt=           1          16          12           1           1
 AtmWgt=   1.0078250  15.9949146  12.0000000   1.0078250   1.0078250
 NucSpn=           1           0           0           1           1
 AtZEff=   0.0000000   0.0000000   0.0000000   0.0000000   0.0000000
 NQMom=    0.0000000   0.0000000   0.0000000   0.0000000   0.0000000
 NMagM=    2.7928460   0.0000000   0.0000000   2.7928460   2.7928460
 AtZNuc=   1.0000000   8.0000000   6.0000000   1.0000000   1.0000000
 Leave Link  101 at Mon Dec 08 16:34:08 2025, MaxMem=   104857600 cpu:               0.0 elap:               0.1
 (Enter D:\Gaussian\G16W\l202.exe)
                          Input orientation:                          
 ---------------------------------------------------------------------
 Center     Atomic      Atomic             Coordinates (Angstroms)
 Number     Number       Type             X           Y           Z
 ---------------------------------------------------------------------
      1          6           0        0.741168   -0.785684   -0.000039
      2          6           0       -0.557227   -1.157200   -0.000440
      3          6           0       -1.607032   -0.154495   -0.000108
      4          6           0       -1.218614    1.254512    0.000131
      5          6           0        0.072532    1.639072    0.000071
      6          6           0        1.142450    0.645662    0.000072
      7          1           0       -0.824842   -2.207386   -0.000663
      8          1           0       -2.014063    1.992432    0.000276
      9          1           0        0.371261    2.680459    0.000074
     10          8           0        2.343411    0.913173   -0.000258
     11          1           0        2.567178   -1.085325    0.000083
     12          8           0        1.769553   -1.648970    0.000412
     13          6           0       -2.918440   -0.484059    0.000005
     14          1           0       -3.243047   -1.517896    0.000176
     15          1           0       -3.689219    0.277238    0.000669
 ---------------------------------------------------------------------
                    Distance matrix (angstroms):
                    1          2          3          4          5
     1  C    0.000000
     2  C    1.350501   0.000000
     3  C    2.431552   1.451726   0.000000
     4  C    2.828983   2.500757   1.461564   0.000000
     5  C    2.515257   2.866310   2.457197   1.347199   0.000000
     6  C    1.486532   2.477744   2.863547   2.438303   1.459996
     7  H    2.115094   1.083747   2.196858   3.484221   3.949749
     8  H    3.912701   3.470238   2.185170   1.085018   2.116304
     9  H    3.485825   3.948382   3.456965   2.135656   1.083386
    10  O    2.335230   3.563726   4.092177   3.578342   2.384077
    11  H    1.850432   3.125232   4.276736   4.450512   3.693995
    12  O    1.342698   2.378181   3.692531   4.166455   3.700149
    13  C    3.672017   2.455289   1.352185   2.431468   3.667915
    14  H    4.050939   2.709932   2.129650   3.432867   4.578156
    15  H    4.556109   3.444849   2.126475   2.656869   4.000670
                    6          7          8          9         10
     6  C    0.000000
     7  H    3.465562   0.000000
     8  H    3.431816   4.364942   0.000000
     9  H    2.176036   5.032066   2.482570   0.000000
    10  O    1.230394   4.446990   4.489140   2.648146   0.000000
    11  H    2.241911   3.572789   5.519090   4.359264   2.010986
    12  O    2.378780   2.653811   5.251244   4.549635   2.625622
    13  C    4.215103   2.711643   2.636457   4.564680   5.444202
    14  H    4.890150   2.514580   3.719248   5.539802   6.092504
    15  H    4.845695   3.791835   2.397507   4.718365   6.066056
                   11         12         13         14         15
    11  H    0.000000
    12  O    0.976679   0.000000
    13  C    5.518471   4.830559   0.000000
    14  H    5.826305   5.014313   1.083600   0.000000
    15  H    6.403053   5.788650   1.083362   1.849750   0.000000
 Stoichiometry    C7H6O2
 Framework group  C1[X(C7H6O2)]
 Deg. of freedom    39
 Full point group                 C1      NOp   1
 Largest Abelian subgroup         C1      NOp   1
 Largest concise Abelian subgroup C1      NOp   1
                         Standard orientation:                         
 ---------------------------------------------------------------------
 Center     Atomic      Atomic             Coordinates (Angstroms)
 Number     Number       Type             X           Y           Z
 ---------------------------------------------------------------------
      1          6           0        0.741168   -0.785684   -0.000039
      2          6           0       -0.557227   -1.157200   -0.000440
      3          6           0       -1.607032   -0.154495   -0.000108
      4          6           0       -1.218614    1.254512    0.000131
      5          6           0        0.072532    1.639072    0.000071
      6          6           0        1.142450    0.645662    0.000072
      7          1           0       -0.824842   -2.207386   -0.000663
      8          1           0       -2.014063    1.992432    0.000276
      9          1           0        0.371261    2.680459    0.000074
     10          8           0        2.343411    0.913173   -0.000258
     11          1           0        2.567178   -1.085325    0.000083
     12          8           0        1.769553   -1.648970    0.000412
     13          6           0       -2.918440   -0.484059    0.000005
     14          1           0       -3.243047   -1.517896    0.000176
     15          1           0       -3.689219    0.277238    0.000669
 ---------------------------------------------------------------------
 Rotational constants (GHZ):           3.1730811           1.4419573           0.9914213
 Leave Link  202 at Mon Dec 08 16:34:08 2025, MaxMem=   104857600 cpu:               0.0 elap:               0.1
 (Enter D:\Gaussian\G16W\l301.exe)
 Standard basis: 6-31G(d) (6D, 7F)
 Ernie: Thresh=  0.10000D-02 Tol=  0.10000D-05 Strict=F.
 There are   147 symmetry adapted cartesian basis functions of A   symmetry.
 There are   147 symmetry adapted basis functions of A   symmetry.
   147 basis functions,   276 primitive gaussians,   147 cartesian basis functions
    32 alpha electrons       32 beta electrons
       nuclear repulsion energy       408.1194779593 Hartrees.
 IExCor=  402 DFT=T Ex+Corr=B3LYP ExCW=0 ScaHFX=  0.200000
 ScaDFX=  0.800000  0.720000  1.000000  0.810000 ScalE2=  1.000000  1.000000
 IRadAn=      5 IRanWt=     -1 IRanGd=            0 ICorTp=0 IEmpDi=  4
 NAtoms=   15 NActive=   15 NUniq=   15 SFac= 1.00D+00 NAtFMM=   60 NAOKFM=F Big=F
 Integral buffers will be    131072 words long.
 Raffenetti 2 integral format.
 Two-electron integral symmetry is turned on.
 Leave Link  301 at Mon Dec 08 16:34:08 2025, MaxMem=   104857600 cpu:               0.0 elap:               0.1
 (Enter D:\Gaussian\G16W\l302.exe)
 NPDir=0 NMtPBC=     1 NCelOv=     1 NCel=       1 NClECP=     1 NCelD=      1
         NCelK=      1 NCelE2=     1 NClLst=     1 CellRange=     0.0.
 One-electron integrals computed using PRISM.
 One-electron integral symmetry used in STVInt
 NBasis=   147 RedAO= T EigKep=  4.77D-04  NBF=   147
 NBsUse=   147 1.00D-06 EigRej= -1.00D+00 NBFU=   147
 Precomputing XC quadrature grid using
 IXCGrd= 4 IRadAn=           5 IRanWt=          -1 IRanGd=           0 AccXCQ= 0.00D+00.
 Generated NRdTot=       0 NPtTot=           0 NUsed=           0 NTot=          32
 NSgBfM=   147   147   147   147   147 MxSgAt=    15 MxSgA2=    15.
 Leave Link  302 at Mon Dec 08 16:34:08 2025, MaxMem=   104857600 cpu:               0.0 elap:               0.2
 (Enter D:\Gaussian\G16W\l303.exe)
 DipDrv:  MaxL=1.
 Leave Link  303 at Mon Dec 08 16:34:08 2025, MaxMem=   104857600 cpu:               0.0 elap:               0.1
 (Enter D:\Gaussian\G16W\l401.exe)
 ExpMin= 1.61D-01 ExpMax= 5.48D+03 ExpMxC= 8.25D+02 IAcc=3 IRadAn=         5 AccDes= 0.00D+00
 Harris functional with IExCor=  402 and IRadAn=       5 diagonalized for initial guess.
 HarFok:  IExCor=  402 AccDes= 0.00D+00 IRadAn=         5 IDoV= 1 UseB2=F ITyADJ=14
 ICtDFT=  3500011 ScaDFX=  1.000000  1.000000  1.000000  1.000000
 FoFCou: FMM=F IPFlag=           0 FMFlag=      100000 FMFlg1=           0
         NFxFlg=           0 DoJE=T BraDBF=F KetDBF=T FulRan=T
         wScrn=  0.000000 ICntrl=       500 IOpCl=  0 I1Cent=   200000004 NGrid=           0
         NMat0=    1 NMatS0=      1 NMatT0=    0 NMatD0=    1 NMtDS0=    0 NMtDT0=    0
 Petite list used in FoFCou.
 Harris En= -420.784186393670    
 JPrj=0 DoOrth=F DoCkMO=F.
 Leave Link  401 at Mon Dec 08 16:34:09 2025, MaxMem=   104857600 cpu:               1.0 elap:               0.9
 (Enter D:\Gaussian\G16W\l502.exe)
 Keep R1 ints in memory in canonical form, NReq=63056551.
 FoFCou: FMM=F IPFlag=           0 FMFlag=           0 FMFlg1=           0
         NFxFlg=           0 DoJE=F BraDBF=F KetDBF=F FulRan=T
         wScrn=  0.000000 ICntrl=       600 IOpCl=  0 I1Cent=           0 NGrid=           0
         NMat0=    1 NMatS0=  10878 NMatT0=    0 NMatD0=    1 NMtDS0=    0 NMtDT0=    0
 Symmetry not used in FoFCou.
 Two-electron integral symmetry not used.
 Closed shell SCF:
 Using DIIS extrapolation, IDIIS=  1040.
 NGot=   104857600 LenX=    45640935 LenY=    45618885
 Requested convergence on RMS density matrix=1.00D-07 within 128 cycles.
 Requested convergence on MAX density matrix=1.00D-05.
 Requested convergence on             energy=1.00D-05.
 No special actions if energy rises.
 Integral accuracy reduced to 1.0D-05 until final iterations.

 Cycle   1  Pass 0  IDiag  1:
 E= -420.572618847841    
 DIIS: error= 3.60D-02 at cycle   1 NSaved=   1.
 NSaved= 1 IEnMin= 1 EnMin= -420.572618847841     IErMin= 1 ErrMin= 3.60D-02
 ErrMax= 3.60D-02  0.00D+00 EMaxC= 1.00D-01 BMatC= 2.14D-01 BMatP= 2.14D-01
 IDIUse=3 WtCom= 6.40D-01 WtEn= 3.60D-01
 Coeff-Com:  0.100D+01
 Coeff-En:   0.100D+01
 Coeff:      0.100D+01
 Gap=     0.123 Goal=   None    Shift=    0.000
 GapD=    0.123 DampG=1.000 DampE=0.500 DampFc=0.5000 IDamp=-1.
 Damping current iteration by 5.00D-01
 RMSDP=6.92D-03 MaxDP=1.60D-01              OVMax= 1.73D-01

 Cycle   2  Pass 0  IDiag  1:
 E= -420.650265942619     Delta-E=       -0.077647094778 Rises=F Damp=T
 DIIS: error= 9.30D-03 at cycle   2 NSaved=   2.
 NSaved= 2 IEnMin= 2 EnMin= -420.650265942619     IErMin= 2 ErrMin= 9.30D-03
 ErrMax= 9.30D-03  0.00D+00 EMaxC= 1.00D-01 BMatC= 2.24D-02 BMatP= 2.14D-01
 IDIUse=3 WtCom= 9.07D-01 WtEn= 9.30D-02
 Coeff-Com:  0.132D+00 0.868D+00
 Coeff-En:   0.185D+00 0.815D+00
 Coeff:      0.137D+00 0.863D+00
 Gap=     0.125 Goal=   None    Shift=    0.000
 RMSDP=2.18D-03 MaxDP=4.62D-02 DE=-7.76D-02 OVMax= 1.55D-01

 Cycle   3  Pass 0  IDiag  1:
 E= -420.743741761986     Delta-E=       -0.093475819366 Rises=F Damp=F
 DIIS: error= 1.45D-02 at cycle   3 NSaved=   3.
 NSaved= 3 IEnMin= 3 EnMin= -420.743741761986     IErMin= 2 ErrMin= 9.30D-03
 ErrMax= 1.45D-02  0.00D+00 EMaxC= 1.00D-01 BMatC= 2.73D-02 BMatP= 2.24D-02
 IDIUse=2 WtCom= 0.00D+00 WtEn= 1.00D+00
 Coeff-En:   0.000D+00 0.000D+00 0.100D+01
 Coeff:      0.000D+00 0.000D+00 0.100D+01
 Gap=     0.139 Goal=   None    Shift=    0.000
 RMSDP=3.47D-03 MaxDP=1.15D-01 DE=-9.35D-02 OVMax= 1.47D-01

 Cycle   4  Pass 0  IDiag  1:
 E= -420.645217730120     Delta-E=        0.098524031865 Rises=F Damp=F
 DIIS: error= 3.49D-02 at cycle   4 NSaved=   4.
 NSaved= 4 IEnMin= 3 EnMin= -420.743741761986     IErMin= 2 ErrMin= 9.30D-03
 ErrMax= 3.49D-02  0.00D+00 EMaxC= 1.00D-01 BMatC= 1.51D-01 BMatP= 2.24D-02
 IDIUse=2 WtCom= 0.00D+00 WtEn= 1.00D+00
 Coeff-En:   0.000D+00 0.000D+00 0.785D+00 0.215D+00
 Coeff:      0.000D+00 0.000D+00 0.785D+00 0.215D+00
 Gap=     0.167 Goal=   None    Shift=    0.000
 RMSDP=1.92D-03 MaxDP=6.59D-02 DE= 9.85D-02 OVMax= 6.85D-02

 Cycle   5  Pass 0  IDiag  1:
 E= -420.759147935406     Delta-E=       -0.113930205286 Rises=F Damp=F
 DIIS: error= 7.79D-03 at cycle   5 NSaved=   5.
 NSaved= 5 IEnMin= 5 EnMin= -420.759147935406     IErMin= 5 ErrMin= 7.79D-03
 ErrMax= 7.79D-03  0.00D+00 EMaxC= 1.00D-01 BMatC= 9.57D-03 BMatP= 2.24D-02
 IDIUse=3 WtCom= 9.22D-01 WtEn= 7.79D-02
 Coeff-Com:  0.127D-01-0.476D-03 0.411D+00 0.470D-01 0.530D+00
 Coeff-En:   0.000D+00 0.000D+00 0.305D+00 0.000D+00 0.695D+00
 Coeff:      0.117D-01-0.439D-03 0.403D+00 0.433D-01 0.543D+00
 Gap=     0.132 Goal=   None    Shift=    0.000
 RMSDP=6.79D-04 MaxDP=1.52D-02 DE=-1.14D-01 OVMax= 3.00D-02

 Cycle   6  Pass 0  IDiag  1:
 E= -420.767195239717     Delta-E=       -0.008047304311 Rises=F Damp=F
 DIIS: error= 1.78D-03 at cycle   6 NSaved=   6.
 NSaved= 6 IEnMin= 6 EnMin= -420.767195239717     IErMin= 6 ErrMin= 1.78D-03
 ErrMax= 1.78D-03  0.00D+00 EMaxC= 1.00D-01 BMatC= 2.41D-04 BMatP= 9.57D-03
 IDIUse=3 WtCom= 9.82D-01 WtEn= 1.78D-02
 Coeff-Com:  0.236D-02-0.284D-02 0.196D+00-0.148D-01 0.407D+00 0.412D+00
 Coeff-En:   0.000D+00 0.000D+00 0.000D+00 0.000D+00 0.000D+00 0.100D+01
 Coeff:      0.231D-02-0.279D-02 0.193D+00-0.145D-01 0.400D+00 0.422D+00
 Gap=     0.132 Goal=   None    Shift=    0.000
 RMSDP=1.31D-04 MaxDP=4.47D-03 DE=-8.05D-03 OVMax= 1.26D-02

 Cycle   7  Pass 0  IDiag  1:
 E= -420.767478608153     Delta-E=       -0.000283368436 Rises=F Damp=F
 DIIS: error= 2.91D-04 at cycle   7 NSaved=   7.
 NSaved= 7 IEnMin= 7 EnMin= -420.767478608153     IErMin= 7 ErrMin= 2.91D-04
 ErrMax= 2.91D-04  0.00D+00 EMaxC= 1.00D-01 BMatC= 1.44D-05 BMatP= 2.41D-04
 IDIUse=3 WtCom= 9.97D-01 WtEn= 2.91D-03
 Coeff-Com: -0.788D-03 0.135D-02 0.582D-01-0.197D-01 0.175D+00 0.254D+00
 Coeff-Com:  0.531D+00
 Coeff-En:   0.000D+00 0.000D+00 0.000D+00 0.000D+00 0.000D+00 0.789D-02
 Coeff-En:   0.992D+00
 Coeff:     -0.786D-03 0.135D-02 0.581D-01-0.197D-01 0.175D+00 0.254D+00
 Coeff:      0.533D+00
 Gap=     0.132 Goal=   None    Shift=    0.000
 RMSDP=2.61D-05 MaxDP=1.17D-03 DE=-2.83D-04 OVMax= 2.09D-03

 Cycle   8  Pass 0  IDiag  1:
 E= -420.767492507688     Delta-E=       -0.000013899535 Rises=F Damp=F
 DIIS: error= 8.54D-05 at cycle   8 NSaved=   8.
 NSaved= 8 IEnMin= 8 EnMin= -420.767492507688     IErMin= 8 ErrMin= 8.54D-05
 ErrMax= 8.54D-05  0.00D+00 EMaxC= 1.00D-01 BMatC= 6.46D-07 BMatP= 1.44D-05
 IDIUse=1 WtCom= 1.00D+00 WtEn= 0.00D+00
 Coeff-Com: -0.431D-03 0.802D-03 0.236D-01-0.102D-01 0.767D-01 0.107D+00
 Coeff-Com:  0.273D+00 0.529D+00
 Coeff:     -0.431D-03 0.802D-03 0.236D-01-0.102D-01 0.767D-01 0.107D+00
 Coeff:      0.273D+00 0.529D+00
 Gap=     0.132 Goal=   None    Shift=    0.000
 RMSDP=6.84D-06 MaxDP=2.21D-04 DE=-1.39D-05 OVMax= 4.95D-04

 Initial convergence to 1.0D-05 achieved.  Increase integral accuracy.
 Cycle   9  Pass 1  IDiag  1:
 E= -420.767463337824     Delta-E=        0.000029169864 Rises=F Damp=F
 DIIS: error= 2.73D-05 at cycle   1 NSaved=   1.
 NSaved= 1 IEnMin= 1 EnMin= -420.767463337824     IErMin= 1 ErrMin= 2.73D-05
 ErrMax= 2.73D-05  0.00D+00 EMaxC= 1.00D-01 BMatC= 1.06D-07 BMatP= 1.06D-07
 IDIUse=1 WtCom= 1.00D+00 WtEn= 0.00D+00
 Coeff-Com:  0.100D+01
 Coeff:      0.100D+01
 Gap=     0.132 Goal=   None    Shift=    0.000
 RMSDP=6.84D-06 MaxDP=2.21D-04 DE= 2.92D-05 OVMax= 3.26D-04

 Cycle  10  Pass 1  IDiag  1:
 E= -420.767463043998     Delta-E=        0.000000293826 Rises=F Damp=F
 DIIS: error= 5.23D-05 at cycle   2 NSaved=   2.
 NSaved= 2 IEnMin= 1 EnMin= -420.767463337824     IErMin= 1 ErrMin= 2.73D-05
 ErrMax= 5.23D-05  0.00D+00 EMaxC= 1.00D-01 BMatC= 4.39D-07 BMatP= 1.06D-07
 IDIUse=1 WtCom= 1.00D+00 WtEn= 0.00D+00
 Coeff-Com:  0.674D+00 0.326D+00
 Coeff:      0.674D+00 0.326D+00
 Gap=     0.132 Goal=   None    Shift=    0.000
 RMSDP=4.39D-06 MaxDP=1.16D-04 DE= 2.94D-07 OVMax= 2.14D-04

 Cycle  11  Pass 1  IDiag  1:
 E= -420.767463434990     Delta-E=       -0.000000390991 Rises=F Damp=F
 DIIS: error= 8.20D-06 at cycle   3 NSaved=   3.
 NSaved= 3 IEnMin= 3 EnMin= -420.767463434990     IErMin= 3 ErrMin= 8.20D-06
 ErrMax= 8.20D-06  0.00D+00 EMaxC= 1.00D-01 BMatC= 6.26D-09 BMatP= 1.06D-07
 IDIUse=1 WtCom= 1.00D+00 WtEn= 0.00D+00
 Coeff-Com:  0.352D+00 0.181D+00 0.467D+00
 Coeff:      0.352D+00 0.181D+00 0.467D+00
 Gap=     0.132 Goal=   None    Shift=    0.000
 RMSDP=8.29D-07 MaxDP=2.83D-05 DE=-3.91D-07 OVMax= 6.40D-05

 Cycle  12  Pass 1  IDiag  1:
 E= -420.767463438755     Delta-E=       -0.000000003765 Rises=F Damp=F
 DIIS: error= 5.33D-06 at cycle   4 NSaved=   4.
 NSaved= 4 IEnMin= 4 EnMin= -420.767463438755     IErMin= 4 ErrMin= 5.33D-06
 ErrMax= 5.33D-06  0.00D+00 EMaxC= 1.00D-01 BMatC= 1.76D-09 BMatP= 6.26D-09
 IDIUse=1 WtCom= 1.00D+00 WtEn= 0.00D+00
 Coeff-Com:  0.564D-01 0.322D-01 0.345D+00 0.566D+00
 Coeff:      0.564D-01 0.322D-01 0.345D+00 0.566D+00
 Gap=     0.132 Goal=   None    Shift=    0.000
 RMSDP=3.94D-07 MaxDP=1.36D-05 DE=-3.76D-09 OVMax= 3.41D-05

 Cycle  13  Pass 1  IDiag  1:
 E= -420.767463440370     Delta-E=       -0.000000001615 Rises=F Damp=F
 DIIS: error= 1.37D-06 at cycle   5 NSaved=   5.
 NSaved= 5 IEnMin= 5 EnMin= -420.767463440370     IErMin= 5 ErrMin= 1.37D-06
 ErrMax= 1.37D-06  0.00D+00 EMaxC= 1.00D-01 BMatC= 2.61D-10 BMatP= 1.76D-09
 IDIUse=1 WtCom= 1.00D+00 WtEn= 0.00D+00
 Coeff-Com:  0.100D-02 0.317D-02 0.177D+00 0.387D+00 0.431D+00
 Coeff:      0.100D-02 0.317D-02 0.177D+00 0.387D+00 0.431D+00
 Gap=     0.132 Goal=   None    Shift=    0.000
 RMSDP=1.31D-07 MaxDP=5.04D-06 DE=-1.62D-09 OVMax= 1.18D-05

 Cycle  14  Pass 1  IDiag  1:
 E= -420.767463440669     Delta-E=       -0.000000000299 Rises=F Damp=F
 DIIS: error= 3.91D-07 at cycle   6 NSaved=   6.
 NSaved= 6 IEnMin= 6 EnMin= -420.767463440669     IErMin= 6 ErrMin= 3.91D-07
 ErrMax= 3.91D-07  0.00D+00 EMaxC= 1.00D-01 BMatC= 1.90D-11 BMatP= 2.61D-10
 IDIUse=1 WtCom= 1.00D+00 WtEn= 0.00D+00
 Coeff-Com: -0.636D-02-0.143D-02 0.681D-01 0.182D+00 0.257D+00 0.501D+00
 Coeff:     -0.636D-02-0.143D-02 0.681D-01 0.182D+00 0.257D+00 0.501D+00
 Gap=     0.132 Goal=   None    Shift=    0.000
 RMSDP=3.41D-08 MaxDP=7.75D-07 DE=-2.99D-10 OVMax= 1.59D-06

 SCF Done:  E(RB3LYP) =  -420.767463441     A.U. after   14 cycles
            NFock= 14  Conv=0.34D-07     -V/T= 2.0090
 KE= 4.170192692975D+02 PE=-1.796860848107D+03 EE= 5.509546374097D+02
 Leave Link  502 at Mon Dec 08 16:34:20 2025, MaxMem=   104857600 cpu:              11.0 elap:              10.9
 (Enter D:\Gaussian\G16W\l601.exe)
 Copying SCF densities to generalized density rwf, IOpCl= 0 IROHF=0.

 **********************************************************************

            Population analysis using the SCF density.

 **********************************************************************

 Orbital symmetries:
       Occupied  (A) (A) (A) (A) (A) (A) (A) (A) (A) (A) (A) (A)
                 (A) (A) (A) (A) (A) (A) (A) (A) (A) (A) (A) (A)
                 (A) (A) (A) (A) (A) (A) (A) (A)
       Virtual   (A) (A) (A) (A) (A) (A) (A) (A) (A) (A) (A) (A)
                 (A) (A) (A) (A) (A) (A) (A) (A) (A) (A) (A) (A)
                 (A) (A) (A) (A) (A) (A) (A) (A) (A) (A) (A) (A)
                 (A) (A) (A) (A) (A) (A) (A) (A) (A) (A) (A) (A)
                 (A) (A) (A) (A) (A) (A) (A) (A) (A) (A) (A) (A)
                 (A) (A) (A) (A) (A) (A) (A) (A) (A) (A) (A) (A)
                 (A) (A) (A) (A) (A) (A) (A) (A) (A) (A) (A) (A)
                 (A) (A) (A) (A) (A) (A) (A) (A) (A) (A) (A) (A)
                 (A) (A) (A) (A) (A) (A) (A) (A) (A) (A) (A) (A)
                 (A) (A) (A) (A) (A) (A) (A)
 The electronic state is 1-A.
 Alpha  occ. eigenvalues --  -19.17881 -19.14606 -10.27817 -10.25621 -10.22479
 Alpha  occ. eigenvalues --  -10.22304 -10.21556 -10.20694 -10.19839  -1.07805
 Alpha  occ. eigenvalues --   -1.03236  -0.86621  -0.77895  -0.76296  -0.66403
 Alpha  occ. eigenvalues --   -0.61977  -0.60651  -0.53997  -0.50852  -0.49204
 Alpha  occ. eigenvalues --   -0.46594  -0.43722  -0.43515  -0.42865  -0.40775
 Alpha  occ. eigenvalues --   -0.38392  -0.36934  -0.35953  -0.35771  -0.26839
 Alpha  occ. eigenvalues --   -0.26787  -0.22721
 Alpha virt. eigenvalues --   -0.09512   0.00476   0.03624   0.09109   0.10828
 Alpha virt. eigenvalues --    0.11890   0.13636   0.16166   0.16613   0.17669
 Alpha virt. eigenvalues --    0.21791   0.24053   0.29950   0.31329   0.32423
 Alpha virt. eigenvalues --    0.35846   0.37442   0.45882   0.48256   0.49005
 Alpha virt. eigenvalues --    0.50499   0.53792   0.54029   0.55517   0.57759
 Alpha virt. eigenvalues --    0.59313   0.60044   0.63081   0.64958   0.65568
 Alpha virt. eigenvalues --    0.66167   0.67654   0.69549   0.71731   0.77185
 Alpha virt. eigenvalues --    0.77651   0.81284   0.82021   0.85105   0.85992
 Alpha virt. eigenvalues --    0.91392   0.92366   0.92804   0.93790   0.96239
 Alpha virt. eigenvalues --    0.96513   1.01638   1.03697   1.04898   1.08365
 Alpha virt. eigenvalues --    1.10003   1.14585   1.18243   1.21352   1.23772
 Alpha virt. eigenvalues --    1.24644   1.32984   1.36076   1.36823   1.37234
 Alpha virt. eigenvalues --    1.41965   1.42323   1.45645   1.45872   1.60960
 Alpha virt. eigenvalues --    1.65379   1.67698   1.70892   1.72642   1.77412
 Alpha virt. eigenvalues --    1.79428   1.81201   1.86303   1.87620   1.89293
 Alpha virt. eigenvalues --    1.91422   1.94870   1.95058   1.98150   2.01014
 Alpha virt. eigenvalues --    2.03793   2.07912   2.09072   2.16948   2.23486
 Alpha virt. eigenvalues --    2.23899   2.30011   2.30388   2.33843   2.39984
 Alpha virt. eigenvalues --    2.40417   2.44848   2.45942   2.57405   2.59678
 Alpha virt. eigenvalues --    2.62137   2.64902   2.70091   2.77563   2.82849
 Alpha virt. eigenvalues --    2.84227   2.93735   2.96483   3.03099   3.23076
 Alpha virt. eigenvalues --    3.35681   3.85980   4.04607   4.06936   4.12088
 Alpha virt. eigenvalues --    4.17436   4.27429   4.35619   4.55251   4.91939
          Condensed to atoms (all electrons):
               1          2          3          4          5          6
     1  C    4.804144   0.494897   0.007324  -0.024574  -0.066630   0.306226
     2  C    0.494897   5.182863   0.430174  -0.048636  -0.027046  -0.037426
     3  C    0.007324   0.430174   4.494576   0.428950  -0.018084  -0.023913
     4  C   -0.024574  -0.048636   0.428950   5.039573   0.501819  -0.008669
     5  C   -0.066630  -0.027046  -0.018084   0.501819   5.162154   0.375596
     6  C    0.306226  -0.037426  -0.023913  -0.008669   0.375596   4.581667
     7  H   -0.028937   0.343281  -0.043102   0.005379  -0.000578   0.005129
     8  H   -0.000252   0.005290  -0.041188   0.353337  -0.036037   0.003334
     9  H    0.005687   0.000001   0.003475  -0.037082   0.346123  -0.029884
    10  O   -0.075111   0.007327  -0.000183   0.005190  -0.069658   0.486818
    11  H   -0.049981   0.007870  -0.000016  -0.000250   0.002690  -0.013532
    12  O    0.310953  -0.055141   0.002029   0.000062   0.004607  -0.049553
    13  C    0.007001  -0.062020   0.564243  -0.056494   0.007462   0.000296
    14  H    0.000129  -0.007283  -0.019214   0.004951  -0.000242   0.000002
    15  H   -0.000215   0.004694  -0.021836  -0.008389   0.000186   0.000012
               7          8          9         10         11         12
     1  C   -0.028937  -0.000252   0.005687  -0.075111  -0.049981   0.310953
     2  C    0.343281   0.005290   0.000001   0.007327   0.007870  -0.055141
     3  C   -0.043102  -0.041188   0.003475  -0.000183  -0.000016   0.002029
     4  C    0.005379   0.353337  -0.037082   0.005190  -0.000250   0.000062
     5  C   -0.000578  -0.036037   0.346123  -0.069658   0.002690   0.004607
     6  C    0.005129   0.003334  -0.029884   0.486818  -0.013532  -0.049553
     7  H    0.580188  -0.000128   0.000017  -0.000073  -0.000462  -0.001345
     8  H   -0.000128   0.577168  -0.006024  -0.000068   0.000001   0.000002
     9  H    0.000017  -0.006024   0.560617   0.001349  -0.000060  -0.000038
    10  O   -0.000073  -0.000068   0.001349   8.136793   0.053938  -0.023711
    11  H   -0.000462   0.000001  -0.000060   0.053938   0.347291   0.228228
    12  O   -0.001345   0.000002  -0.000038  -0.023711   0.228228   8.217800
    13  C   -0.009365  -0.009985  -0.000183  -0.000001   0.000005  -0.000065
    14  H    0.005456   0.000007   0.000003   0.000000   0.000000  -0.000001
    15  H    0.000014   0.006935  -0.000013   0.000000   0.000000   0.000000
              13         14         15
     1  C    0.007001   0.000129  -0.000215
     2  C   -0.062020  -0.007283   0.004694
     3  C    0.564243  -0.019214  -0.021836
     4  C   -0.056494   0.004951  -0.008389
     5  C    0.007462  -0.000242   0.000186
     6  C    0.000296   0.000002   0.000012
     7  H   -0.009365   0.005456   0.000014
     8  H   -0.009985   0.000007   0.006935
     9  H   -0.000183   0.000003  -0.000013
    10  O   -0.000001   0.000000   0.000000
    11  H    0.000005   0.000000   0.000000
    12  O   -0.000065  -0.000001   0.000000
    13  C    5.271349   0.351771   0.353193
    14  H    0.351771   0.536257  -0.037474
    15  H    0.353193  -0.037474   0.540941
 Mulliken charges:
               1
     1  C    0.309340
     2  C   -0.238845
     3  C    0.236765
     4  C   -0.155169
     5  C   -0.182361
     6  C    0.403896
     7  H    0.144526
     8  H    0.147607
     9  H    0.156013
    10  O   -0.522608
    11  H    0.424278
    12  O   -0.633825
    13  C   -0.417206
    14  H    0.165638
    15  H    0.161952
 Sum of Mulliken charges =   0.00000
 Mulliken charges with hydrogens summed into heavy atoms:
               1
     1  C    0.309340
     2  C   -0.094319
     3  C    0.236765
     4  C   -0.007561
     5  C   -0.026348
     6  C    0.403896
    10  O   -0.522608
    12  O   -0.209547
    13  C   -0.089616
 Electronic spatial extent (au):  <R**2>=           1121.6154
 Charge=              0.0000 electrons
 Dipole moment (field-independent basis, Debye):
    X=             -3.3720    Y=              0.4597    Z=              0.0005  Tot=              3.4032
 Quadrupole moment (field-independent basis, Debye-Ang):
   XX=            -48.7998   YY=            -50.0182   ZZ=            -53.0432
   XY=             -1.8562   XZ=             -0.0021   YZ=              0.0025
 Traceless Quadrupole moment (field-independent basis, Debye-Ang):
   XX=              1.8205   YY=              0.6022   ZZ=             -2.4228
   XY=             -1.8562   XZ=             -0.0021   YZ=              0.0025
 Octapole moment (field-independent basis, Debye-Ang**2):
  XXX=             -8.3543  YYY=              6.8424  ZZZ=              0.0018  XYY=             -9.1260
  XXY=            -11.5146  XXZ=              0.0103  XZZ=              9.9046  YZZ=             -0.8593
  YYZ=             -0.0018  XYZ=              0.0025
 Hexadecapole moment (field-independent basis, Debye-Ang**3):
 XXXX=           -859.0451 YYYY=           -435.0424 ZZZZ=            -50.4821 XXXY=            -44.9283
 XXXZ=             -0.0289 YYYX=             12.3243 YYYZ=              0.0055 ZZZX=             -0.0020
 ZZZY=             -0.0049 XXYY=           -227.7829 XXZZ=           -170.3345 YYZZ=            -89.4293
 XXYZ=              0.0075 YYXZ=             -0.0045 ZZXY=             -1.4917
 N-N= 4.081194779593D+02 E-N=-1.796860813227D+03  KE= 4.170192692975D+02
 No NMR shielding tensors so no spin-rotation constants.
 Leave Link  601 at Mon Dec 08 16:34:20 2025, MaxMem=   104857600 cpu:               0.0 elap:               0.2
 (Enter D:\Gaussian\G16W\l9999.exe)
 1|1|UNPC-PC-20250526LCFF|SP|RB3LYP|6-31G(d)|C7H6O2|ADMINISTRATOR|08-De
 c-2025|0||#p b3lyp/6-31g(d) out=wfn scf=conver=7||Generated by Multiwf
 n (http://sobereva.com/multiwfn)||0,1|C,0,0.741168,-0.785684,-0.000039
 |C,0,-0.557227,-1.1572,-0.00044|C,0,-1.607032,-0.154495,-0.000108|C,0,
 -1.218614,1.254512,0.000131|C,0,0.072532,1.639072,0.000071|C,0,1.14245
 ,0.645662,0.000072|H,0,-0.824842,-2.207386,-0.000663|H,0,-2.014063,1.9
 92432,0.000276|H,0,0.371261,2.680459,0.000074|O,0,2.343411,0.913173,-0
 .000258|H,0,2.567178,-1.085325,0.000083|O,0,1.769553,-1.64897,0.000412
 |C,0,-2.91844,-0.484059,0.000005|H,0,-3.243047,-1.517896,0.000176|H,0,
 -3.689219,0.277238,0.000669||Version=EM64W-G16RevA.03|State=1-A|HF=-42
 0.7674634|RMSD=3.407e-008|Dipole=-1.3266536,0.1808457,0.0002051|Quadru
 pole=1.3535329,0.4477474,-1.8012803,-1.3800365,-0.0015861,0.0018633|PG
 =C01 [X(C7H6O2)]||@

 Writing a WFN file to "N.wfn"


 Other things may change us, but we start and end with family.
 -- Anthony Brandt
 Job cpu time:       0 days  0 hours  0 minutes 12.0 seconds.
 Elapsed time:       0 days  0 hours  0 minutes 12.7 seconds.
 File lengths (MBytes):  RWF=     15 Int=      0 D2E=      0 Chk=      2 Scr=      1
 Normal termination of Gaussian 16 at Mon Dec 08 16:34:20 2025.
