 Generated by Multiwfn (http://sobereva.com/multiwfn)
GAUSSIAN             32 MOL ORBITALS    276 PRIMITIVES       15 NUCLEI
  C    1    (CENTRE  1)   1.40060465 -1.48472723 -0.00007367  CHARGE =  6.0
  C    2    (CENTRE  2)  -1.05300621 -2.18679102 -0.00083145  CHARGE =  6.0
  C    3    (CENTRE  3)  -3.03685038 -0.29195343 -0.00020406  CHARGE =  6.0
  C    4    (CENTRE  4)  -2.30284706  2.37068400  0.00024758  CHARGE =  6.0
  C    5    (CENTRE  5)   0.13706518  3.09739737  0.00013420  CHARGE =  6.0
  C    6    (CENTRE  6)   2.15891740  1.22012479  0.00013609  CHARGE =  6.0
  H    7    (CENTRE  7)  -1.55872503 -4.17135500 -0.00125286  CHARGE =  1.0
  H    8    (CENTRE  8)  -3.80602798  3.76515052  0.00052159  CHARGE =  1.0
  H    9    (CENTRE  9)   0.70158094  5.06533366  0.00013987  CHARGE =  1.0
  O   10    (CENTRE 10)   4.42840472  1.72564759 -0.00048752  CHARGE =  8.0
  H   11    (CENTRE 11)   4.85126352 -2.05096624  0.00015688  CHARGE =  1.0
  O   12    (CENTRE 12)   3.34397085 -3.11610111  0.00077860  CHARGE =  8.0
  C   13    (CENTRE 13)  -5.51505226 -0.91473943  0.00000948  CHARGE =  6.0
  H   14    (CENTRE 14)  -6.12847035 -2.86840829  0.00033262  CHARGE =  1.0
  H   15    (CENTRE 15)  -6.97161365  0.52390323  0.00126426  CHARGE =  1.0
CENTRE ASSIGNMENTS    1  1  1  1  1  1  1  1  1  1  1  1  1  1  1  1  1  1  1  1
CENTRE ASSIGNMENTS    1  1  1  1  1  1  1  1  2  2  2  2  2  2  2  2  2  2  2  2
CENTRE ASSIGNMENTS    2  2  2  2  2  2  2  2  2  2  2  2  2  2  2  2  3  3  3  3
CENTRE ASSIGNMENTS    3  3  3  3  3  3  3  3  3  3  3  3  3  3  3  3  3  3  3  3
CENTRE ASSIGNMENTS    3  3  3  3  4  4  4  4  4  4  4  4  4  4  4  4  4  4  4  4
CENTRE ASSIGNMENTS    4  4  4  4  4  4  4  4  4  4  4  4  5  5  5  5  5  5  5  5
CENTRE ASSIGNMENTS    5  5  5  5  5  5  5  5  5  5  5  5  5  5  5  5  5  5  5  5
CENTRE ASSIGNMENTS    6  6  6  6  6  6  6  6  6  6  6  6  6  6  6  6  6  6  6  6
CENTRE ASSIGNMENTS    6  6  6  6  6  6  6  6  7  7  7  7  8  8  8  8  9  9  9  9
CENTRE ASSIGNMENTS   10 10 10 10 10 10 10 10 10 10 10 10 10 10 10 10 10 10 10 10
CENTRE ASSIGNMENTS   10 10 10 10 10 10 10 10 11 11 11 11 12 12 12 12 12 12 12 12
CENTRE ASSIGNMENTS   12 12 12 12 12 12 12 12 12 12 12 12 12 12 12 12 12 12 12 12
CENTRE ASSIGNMENTS   13 13 13 13 13 13 13 13 13 13 13 13 13 13 13 13 13 13 13 13
CENTRE ASSIGNMENTS   13 13 13 13 13 13 13 13 14 14 14 14 15 15 15 15
TYPE ASSIGNMENTS      1  1  1  1  1  1  1  1  1  2  2  2  3  3  3  4  4  4  1  2
TYPE ASSIGNMENTS      3  4  5  6  7  8  9 10  1  1  1  1  1  1  1  1  1  2  2  2
TYPE ASSIGNMENTS      3  3  3  4  4  4  1  2  3  4  5  6  7  8  9 10  1  1  1  1
TYPE ASSIGNMENTS      1  1  1  1  1  2  2  2  3  3  3  4  4  4  1  2  3  4  5  6
TYPE ASSIGNMENTS      7  8  9 10  1  1  1  1  1  1  1  1  1  2  2  2  3  3  3  4
TYPE ASSIGNMENTS      4  4  1  2  3  4  5  6  7  8  9 10  1  1  1  1  1  1  1  1
TYPE ASSIGNMENTS      1  2  2  2  3  3  3  4  4  4  1  2  3  4  5  6  7  8  9 10
TYPE ASSIGNMENTS      1  1  1  1  1  1  1  1  1  2  2  2  3  3  3  4  4  4  1  2
TYPE ASSIGNMENTS      3  4  5  6  7  8  9 10  1  1  1  1  1  1  1  1  1  1  1  1
TYPE ASSIGNMENTS      1  1  1  1  1  1  1  1  1  2  2  2  3  3  3  4  4  4  1  2
TYPE ASSIGNMENTS      3  4  5  6  7  8  9 10  1  1  1  1  1  1  1  1  1  1  1  1
TYPE ASSIGNMENTS      1  2  2  2  3  3  3  4  4  4  1  2  3  4  5  6  7  8  9 10
TYPE ASSIGNMENTS      1  1  1  1  1  1  1  1  1  2  2  2  3  3  3  4  4  4  1  2
TYPE ASSIGNMENTS      3  4  5  6  7  8  9 10  1  1  1  1  1  1  1  1
EXPONENTS  0.3047525D+04 0.4573695D+03 0.1039487D+03 0.2921016D+02 0.9286663D+01
EXPONENTS  0.3163927D+01 0.7868272D+01 0.1881289D+01 0.5442493D+00 0.7868272D+01
EXPONENTS  0.1881289D+01 0.5442493D+00 0.7868272D+01 0.1881289D+01 0.5442493D+00
EXPONENTS  0.7868272D+01 0.1881289D+01 0.5442493D+00 0.1687145D+00 0.1687145D+00
EXPONENTS  0.1687145D+00 0.1687145D+00 0.8000000D+00 0.8000000D+00 0.8000000D+00
EXPONENTS  0.8000000D+00 0.8000000D+00 0.8000000D+00 0.3047525D+04 0.4573695D+03
EXPONENTS  0.1039487D+03 0.2921016D+02 0.9286663D+01 0.3163927D+01 0.7868272D+01
EXPONENTS  0.1881289D+01 0.5442493D+00 0.7868272D+01 0.1881289D+01 0.5442493D+00
EXPONENTS  0.7868272D+01 0.1881289D+01 0.5442493D+00 0.7868272D+01 0.1881289D+01
EXPONENTS  0.5442493D+00 0.1687145D+00 0.1687145D+00 0.1687145D+00 0.1687145D+00
EXPONENTS  0.8000000D+00 0.8000000D+00 0.8000000D+00 0.8000000D+00 0.8000000D+00
EXPONENTS  0.8000000D+00 0.3047525D+04 0.4573695D+03 0.1039487D+03 0.2921016D+02
EXPONENTS  0.9286663D+01 0.3163927D+01 0.7868272D+01 0.1881289D+01 0.5442493D+00
EXPONENTS  0.7868272D+01 0.1881289D+01 0.5442493D+00 0.7868272D+01 0.1881289D+01
EXPONENTS  0.5442493D+00 0.7868272D+01 0.1881289D+01 0.5442493D+00 0.1687145D+00
EXPONENTS  0.1687145D+00 0.1687145D+00 0.1687145D+00 0.8000000D+00 0.8000000D+00
EXPONENTS  0.8000000D+00 0.8000000D+00 0.8000000D+00 0.8000000D+00 0.3047525D+04
EXPONENTS  0.4573695D+03 0.1039487D+03 0.2921016D+02 0.9286663D+01 0.3163927D+01
EXPONENTS  0.7868272D+01 0.1881289D+01 0.5442493D+00 0.7868272D+01 0.1881289D+01
EXPONENTS  0.5442493D+00 0.7868272D+01 0.1881289D+01 0.5442493D+00 0.7868272D+01
EXPONENTS  0.1881289D+01 0.5442493D+00 0.1687145D+00 0.1687145D+00 0.1687145D+00
EXPONENTS  0.1687145D+00 0.8000000D+00 0.8000000D+00 0.8000000D+00 0.8000000D+00
EXPONENTS  0.8000000D+00 0.8000000D+00 0.3047525D+04 0.4573695D+03 0.1039487D+03
EXPONENTS  0.2921016D+02 0.9286663D+01 0.3163927D+01 0.7868272D+01 0.1881289D+01
EXPONENTS  0.5442493D+00 0.7868272D+01 0.1881289D+01 0.5442493D+00 0.7868272D+01
EXPONENTS  0.1881289D+01 0.5442493D+00 0.7868272D+01 0.1881289D+01 0.5442493D+00
EXPONENTS  0.1687145D+00 0.1687145D+00 0.1687145D+00 0.1687145D+00 0.8000000D+00
EXPONENTS  0.8000000D+00 0.8000000D+00 0.8000000D+00 0.8000000D+00 0.8000000D+00
EXPONENTS  0.3047525D+04 0.4573695D+03 0.1039487D+03 0.2921016D+02 0.9286663D+01
EXPONENTS  0.3163927D+01 0.7868272D+01 0.1881289D+01 0.5442493D+00 0.7868272D+01
EXPONENTS  0.1881289D+01 0.5442493D+00 0.7868272D+01 0.1881289D+01 0.5442493D+00
EXPONENTS  0.7868272D+01 0.1881289D+01 0.5442493D+00 0.1687145D+00 0.1687145D+00
EXPONENTS  0.1687145D+00 0.1687145D+00 0.8000000D+00 0.8000000D+00 0.8000000D+00
EXPONENTS  0.8000000D+00 0.8000000D+00 0.8000000D+00 0.1873114D+02 0.2825394D+01
EXPONENTS  0.6401217D+00 0.1612778D+00 0.1873114D+02 0.2825394D+01 0.6401217D+00
EXPONENTS  0.1612778D+00 0.1873114D+02 0.2825394D+01 0.6401217D+00 0.1612778D+00
EXPONENTS  0.5484672D+04 0.8252349D+03 0.1880470D+03 0.5296450D+02 0.1689757D+02
EXPONENTS  0.5799635D+01 0.1553962D+02 0.3599934D+01 0.1013762D+01 0.1553962D+02
EXPONENTS  0.3599934D+01 0.1013762D+01 0.1553962D+02 0.3599934D+01 0.1013762D+01
EXPONENTS  0.1553962D+02 0.3599934D+01 0.1013762D+01 0.2700058D+00 0.2700058D+00
EXPONENTS  0.2700058D+00 0.2700058D+00 0.8000000D+00 0.8000000D+00 0.8000000D+00
EXPONENTS  0.8000000D+00 0.8000000D+00 0.8000000D+00 0.1873114D+02 0.2825394D+01
EXPONENTS  0.6401217D+00 0.1612778D+00 0.5484672D+04 0.8252349D+03 0.1880470D+03
EXPONENTS  0.5296450D+02 0.1689757D+02 0.5799635D+01 0.1553962D+02 0.3599934D+01
EXPONENTS  0.1013762D+01 0.1553962D+02 0.3599934D+01 0.1013762D+01 0.1553962D+02
EXPONENTS  0.3599934D+01 0.1013762D+01 0.1553962D+02 0.3599934D+01 0.1013762D+01
EXPONENTS  0.2700058D+00 0.2700058D+00 0.2700058D+00 0.2700058D+00 0.8000000D+00
EXPONENTS  0.8000000D+00 0.8000000D+00 0.8000000D+00 0.8000000D+00 0.8000000D+00
EXPONENTS  0.3047525D+04 0.4573695D+03 0.1039487D+03 0.2921016D+02 0.9286663D+01
EXPONENTS  0.3163927D+01 0.7868272D+01 0.1881289D+01 0.5442493D+00 0.7868272D+01
EXPONENTS  0.1881289D+01 0.5442493D+00 0.7868272D+01 0.1881289D+01 0.5442493D+00
EXPONENTS  0.7868272D+01 0.1881289D+01 0.5442493D+00 0.1687145D+00 0.1687145D+00
EXPONENTS  0.1687145D+00 0.1687145D+00 0.8000000D+00 0.8000000D+00 0.8000000D+00
EXPONENTS  0.8000000D+00 0.8000000D+00 0.8000000D+00 0.1873114D+02 0.2825394D+01
EXPONENTS  0.6401217D+00 0.1612778D+00 0.1873114D+02 0.2825394D+01 0.6401217D+00
EXPONENTS  0.1612778D+00
MO    1     MO 0.0        OCC NO =    2.0000000  ORB. ENERGY =  -19.178807
 -0.29629039D-04 -0.54659792D-04 -0.88237853D-04 -0.11485947D-03 -0.98009791D-04
 -0.33840425D-04 -0.69528232D-04 -0.32045499D-04  0.89858923D-04  0.38656329D-03
  0.29639221D-03  0.14792049D-03 -0.40780134D-03 -0.31267620D-03 -0.15604734D-03
  0.19159064D-06  0.14689955D-06  0.73313172D-07  0.27282395D-04 -0.53690552D-03
  0.59947436D-03 -0.18978835D-06 -0.16991739D-03 -0.70635631D-04 -0.12151015D-03
  0.13289109D-03 -0.67866699D-07  0.87222762D-07  0.72223105D-05  0.13323753D-04
  0.21508668D-04  0.27997895D-04  0.23890655D-04  0.82488689D-05 -0.60284201D-04
 -0.27784933D-04  0.77911852D-04 -0.88369714D-05 -0.67756292D-05 -0.33815138D-05
  0.22198394D-04  0.17020320D-04  0.84943327D-05  0.12675265D-08  0.97185891D-09
  0.48502571D-09 -0.36265698D-03 -0.13179049D-04 -0.30816381D-03 -0.43126580D-07
 -0.58571406D-04 -0.50922661D-04  0.29804131D-04 -0.65406405D-05  0.80198084D-08
 -0.26100615D-07 -0.99456878D-08 -0.18347852D-07 -0.29619122D-07 -0.38555296D-07
 -0.32899304D-07 -0.11359339D-07  0.12023404D-04  0.55415761D-05 -0.15539158D-04
  0.83433335D-04  0.63971390D-04  0.31926207D-04 -0.29968332D-04 -0.22977816D-04
 -0.11467541D-04 -0.23963749D-07 -0.18373883D-07 -0.91698553D-08  0.30065921D-03
  0.46908473D-04 -0.29747160D-04 -0.36364370D-07  0.25670208D-04  0.36468479D-04
  0.17915302D-04 -0.22665708D-04 -0.91609544D-07  0.39079314D-07  0.78814441D-05
  0.14539725D-04  0.23471625D-04  0.30553082D-04  0.26071000D-04  0.90016898D-05
 -0.31143493D-04 -0.14354007D-04  0.40250135D-04 -0.13679253D-04 -0.10488384D-04
 -0.52344385D-05 -0.41594433D-04 -0.31891973D-04 -0.15916330D-04 -0.19542860D-07
 -0.14984226D-07 -0.74781788D-08 -0.25897878D-03 -0.10811519D-03  0.46718657D-04
  0.25043547D-07 -0.17147825D-04  0.83774178D-05  0.35508219D-04 -0.49106467D-04
 -0.97207148D-08 -0.27161635D-07 -0.36467750D-05 -0.67275877D-05 -0.10860413D-04
 -0.14137030D-04 -0.12063153D-04 -0.41651170D-05  0.24082917D-04  0.11099794D-04
 -0.31124982D-04  0.75800676D-04  0.58119151D-04  0.29005529D-04 -0.70935813D-04
 -0.54389082D-04 -0.27143964D-04 -0.21079439D-08 -0.16162377D-08 -0.80661588D-09
  0.38276584D-03 -0.82133028D-04 -0.17525387D-03 -0.33777911D-08  0.25752679D-04
  0.28544269D-04 -0.12587348D-05 -0.21406549D-04 -0.30982235D-07 -0.23569374D-07
  0.27824537D-04  0.51330838D-04  0.82863888D-04  0.10786416D-03  0.92040684D-04
  0.31779436D-04 -0.12874081D-03 -0.59336519D-04  0.16638579D-03  0.29999298D-04
  0.23001559D-04  0.11479390D-04  0.87291336D-04  0.66929460D-04  0.33402491D-04
  0.24185212D-08  0.18543687D-08  0.92545993D-09 -0.36280935D-03  0.46609574D-03
  0.13741134D-03  0.29155070D-07  0.49438194D-04 -0.54741823D-04  0.77411791D-04
  0.39251587D-04 -0.11253319D-06 -0.89252130D-07 -0.12754068D-04 -0.21633314D-04
 -0.24628763D-04 -0.12388091D-03 -0.39152873D-05 -0.66410683D-05 -0.75606215D-05
 -0.26807103D-04  0.10553518D-04  0.17900765D-04  0.20379388D-04  0.45706249D-04
  0.71043064D-05  0.13075716D-04  0.21158977D-04  0.27814068D-04  0.23855964D-04
  0.81567593D-05 -0.17759517D-03 -0.79242617D-04  0.23400451D-03 -0.10450673D-03
 -0.80516799D-04 -0.35351212D-04  0.73164001D-04  0.56368919D-04  0.24748992D-04
  0.23637189D-06  0.18211180D-06  0.79956888D-07 -0.56398602D-03  0.17398720D-03
 -0.31675973D-04 -0.13685726D-06  0.12068867D-03  0.22534136D-03  0.18614196D-03
 -0.43785981D-04  0.14408261D-06  0.36710461D-07  0.81086815D-04  0.13753859D-03
  0.15658282D-03 -0.21911016D-03  0.82561136D+00  0.15195656D+01  0.24589440D+01
  0.32323507D+01  0.27723685D+01  0.94791986D+00 -0.15757239D-01 -0.70308494D-02
  0.20762192D-01  0.17844297D-03  0.13748069D-03  0.60361427D-04  0.31847756D-02
  0.24536979D-02  0.10773056D-02 -0.17403500D-05 -0.13408459D-05 -0.58870356D-06
  0.40126339D-02 -0.32466648D-03  0.20658456D-03 -0.17012134D-06 -0.91909500D-02
 -0.93061326D-02 -0.92726764D-02 -0.16969555D-03  0.11520929D-06 -0.50808671D-07
  0.41773764D-05  0.77064437D-05  0.12440590D-04  0.16193951D-04  0.13818328D-04
  0.47711366D-05 -0.17707999D-04 -0.81616005D-05  0.22885980D-04 -0.19710949D-04
 -0.15113105D-04 -0.75424988D-05 -0.38199035D-05 -0.29288597D-05 -0.14617063D-05
 -0.42401480D-09 -0.32510765D-09 -0.16225150D-09 -0.63855039D-04 -0.30691939D-04
 -0.52594985D-06  0.10604157D-07 -0.17017323D-04  0.82670721D-05  0.19118240D-04
 -0.11396617D-04  0.20603705D-07  0.43998510D-08  0.24944466D-05  0.42310536D-05
  0.48169050D-05  0.29676474D-05  0.27780386D-05  0.47120793D-05  0.53645358D-05
 -0.56264294D-05
MO    2     MO 0.0        OCC NO =    2.0000000  ORB. ENERGY =  -19.146061
  0.24848829D-04  0.45841238D-04  0.74001972D-04  0.96328580D-04  0.82197352D-04
  0.28380770D-04 -0.10883541D-03 -0.50162143D-04  0.14065989D-03  0.16737382D-05
  0.12833163D-05  0.64046476D-06 -0.79894488D-04 -0.61258026D-04 -0.30572048D-04
  0.51732974D-07  0.39665563D-07  0.19795896D-07 -0.49783902D-03  0.46131960D-03
 -0.36841465D-03  0.30752910D-07  0.88488183D-05  0.29396709D-04  0.66092223D-04
 -0.19996994D-03  0.46433722D-07 -0.14671588D-06 -0.18424683D-05 -0.33989942D-05
 -0.54870306D-05 -0.71424835D-05 -0.60946941D-05 -0.21043514D-05  0.16028650D-04
  0.73875903D-05 -0.20715574D-04  0.11644781D-03  0.89284795D-04  0.44559370D-04
  0.47918341D-04  0.36740745D-04  0.18336207D-04  0.76504395D-07  0.58658718D-07
  0.29274811D-07  0.55015596D-03  0.35417968D-04  0.25517154D-03  0.93933535D-07
  0.36959745D-04  0.19092716D-04  0.12259982D-04 -0.90815421D-05  0.50219589D-07
  0.88797445D-07  0.10502391D-04  0.19374861D-04  0.31277032D-04  0.40713403D-04
  0.34740820D-04  0.11995170D-04 -0.41128519D-04 -0.18956097D-04  0.53154874D-04
  0.55611582D-04  0.42639434D-04  0.21280066D-04  0.23302247D-04  0.17866685D-04
  0.89167282D-05  0.21395277D-07  0.16404541D-07  0.81870157D-08 -0.26928862D-03
 -0.23180086D-03  0.64117217D-05  0.26422281D-07  0.28627104D-04 -0.35853495D-04
  0.47909795D-04  0.61812473D-04  0.43028247D-07 -0.28898060D-07  0.67600765D-06
  0.12471021D-05  0.20132095D-05  0.26206006D-05  0.22361632D-05  0.77209342D-06
  0.37005585D-05  0.17055840D-05 -0.47826357D-05  0.12476051D-03  0.95658448D-04
  0.47740270D-04  0.12408750D-04  0.95142423D-05  0.47482737D-05  0.17661477D-07
  0.13541700D-07  0.67582574D-08  0.45090510D-03  0.17139192D-03 -0.53383441D-04
 -0.25898280D-07  0.29076759D-04  0.18643876D-04  0.25663004D-04  0.74800207D-04
 -0.30277893D-08  0.64640862D-07  0.11604805D-04  0.21408600D-04  0.34560118D-04
  0.44987005D-04  0.38387493D-04  0.13254279D-04 -0.72031123D-04 -0.33199079D-04
  0.93093683D-04 -0.72471578D-04 -0.55566609D-04 -0.27731632D-04 -0.44482022D-05
 -0.34105993D-05 -0.17021281D-05  0.56689149D-08  0.43465644D-08  0.21692403D-08
 -0.62724395D-03  0.19589684D-03  0.37581369D-03 -0.38933354D-07 -0.81652282D-04
 -0.11773425D-04  0.42306399D-04 -0.40484992D-04  0.47659300D-07  0.90770038D-07
 -0.39850099D-04 -0.73515651D-04 -0.11867705D-03 -0.15448226D-03 -0.13181999D-03
 -0.45514276D-04 -0.78381692D-04 -0.36126050D-04  0.10130122D-03  0.89331391D-04
  0.68493644D-04  0.34183129D-04  0.13610662D-04  0.10435793D-04  0.52081919D-05
 -0.20096543D-07 -0.15408754D-07 -0.76900484D-08 -0.21007919D-03 -0.10701176D-02
 -0.25545924D-03  0.15668465D-06 -0.10294754D-02 -0.15152404D-03 -0.18143967D-03
 -0.34606814D-03  0.57923925D-06  0.17555176D-06  0.12544647D-04  0.21278095D-04
  0.24224359D-04  0.61715044D-04  0.39456716D-05  0.66926059D-05  0.76192953D-05
  0.25604264D-04 -0.22041773D-04 -0.37387018D-04 -0.42563799D-04 -0.14700410D-03
  0.82559840D+00  0.15195418D+01  0.24589054D+01  0.32323000D+01  0.27723250D+01
  0.94790498D+00 -0.15556585D-01 -0.69413178D-02  0.20497804D-01 -0.33237827D-02
 -0.25607954D-02 -0.11243271D-02 -0.91792210D-03 -0.70720949D-03 -0.31050306D-03
  0.82814432D-06  0.63804055D-06  0.28013417D-06  0.45904758D-02 -0.63014924D-03
 -0.14891669D-03  0.26472004D-06 -0.88240623D-02 -0.94049287D-02 -0.94330539D-02
  0.26670035D-03 -0.42316015D-06 -0.10502206D-06 -0.11312095D-04 -0.19187455D-04
 -0.21844239D-04 -0.10399200D-03  0.92474178D-04  0.17020185D-03  0.27541872D-03
  0.36204562D-03  0.31052443D-03  0.10617358D-03 -0.16952712D-03 -0.75642669D-04
  0.22337381D-03 -0.17923570D-03 -0.13809145D-03 -0.60629584D-04  0.49672557D-04
  0.38270027D-04  0.16802603D-04 -0.20337634D-06 -0.15669051D-06 -0.68795573D-07
 -0.51973740D-03  0.23046322D-03 -0.78299985D-04  0.13713096D-06  0.15528445D-03
  0.16732271D-03  0.17906573D-03  0.17434528D-03 -0.18125457D-06  0.12899394D-06
  0.22329928D-06  0.41194357D-06  0.66500465D-06  0.86563846D-06  0.73865086D-06
  0.25503839D-06 -0.27477041D-05 -0.12664143D-05  0.35511579D-05 -0.33787760D-04
 -0.25906312D-04 -0.12929065D-04 -0.11657842D-04 -0.89384941D-05 -0.44609350D-05
  0.56203280D-08  0.43093110D-08  0.21506482D-08 -0.12647910D-03 -0.31296931D-04
 -0.22718549D-04 -0.17515335D-08 -0.12345798D-04 -0.49159619D-05  0.20110215D-05
 -0.13777161D-04  0.93886172D-08 -0.19868397D-08  0.78655450D-06  0.13341453D-05
  0.15188773D-05 -0.43968872D-05  0.23710789D-05  0.40217986D-05  0.45786755D-05
  0.98556035D-05
MO    3     MO 0.0        OCC NO =    2.0000000  ORB. ENERGY =  -10.278172
  0.32577518D-02  0.60099160D-02  0.97018679D-02  0.12628949D-01  0.10776305D-01
  0.37207993D-02  0.16725358D-03  0.77087024D-04 -0.21616006D-03 -0.46491641D-04
 -0.35646841D-04 -0.17790272D-04 -0.27083067D-03 -0.20765578D-03 -0.10363479D-03
 -0.31022150D-07 -0.23785817D-07 -0.11870790D-07  0.20959473D-02 -0.81901443D-03
  0.97410096D-03 -0.10719136D-06 -0.48230775D-03 -0.67831330D-03 -0.42638400D-03
 -0.28265155D-03  0.25115701D-07  0.44048696D-07  0.36509716D-04  0.67353296D-04
  0.10872910D-03  0.14153299D-03  0.12077035D-03  0.41699101D-04 -0.69252232D-04
 -0.31918290D-04  0.89502218D-04 -0.15602045D-03 -0.11962658D-03 -0.59702050D-04
 -0.10280309D-03 -0.78822889D-04 -0.39338146D-04 -0.56422921D-07 -0.43261517D-07
 -0.21590529D-07 -0.14525479D-02 -0.12220469D-03 -0.69328817D-03 -0.24109433D-06
  0.11517821D-03 -0.25003489D-04  0.10198959D-04  0.20539489D-04  0.75693753D-07
 -0.29642394D-06 -0.66448574D-04 -0.12258464D-03 -0.19788963D-03 -0.25759349D-03
 -0.21980499D-03 -0.75893382D-04  0.13559991D-03  0.62497876D-04 -0.17525057D-03
 -0.16571156D-03 -0.12705712D-03 -0.63410406D-04 -0.45370232D-04 -0.34787016D-04
 -0.17361159D-04  0.20589272D-07  0.15786548D-07  0.78785937D-08  0.91656779D-03
  0.70517333D-03  0.93330360D-04 -0.73349847D-07 -0.74429047D-04  0.45006842D-04
 -0.14414819D-03 -0.91578525D-04 -0.73680534D-07  0.26418799D-07  0.35379029D-04
  0.65267401D-04  0.10536182D-03  0.13714979D-03  0.11703016D-03  0.40407702D-04
 -0.71557764D-04 -0.32980908D-04  0.92481908D-04 -0.20878614D-03 -0.16008397D-03
 -0.79893120D-04 -0.49650816D-05 -0.38069096D-05 -0.18999147D-05 -0.12159984D-07
 -0.93235046D-08 -0.46530823D-08 -0.14707905D-02 -0.55992216D-03  0.32264859D-03
  0.11113920D-06  0.53232289D-04  0.25002572D-04  0.14482003D-04 -0.79396609D-06
  0.26711662D-07 -0.16724180D-06  0.11461618D-02  0.21144448D-02  0.34133695D-02
  0.44431929D-02  0.37913845D-02  0.13090740D-02  0.24688559D-03  0.11378934D-03
 -0.31907719D-03 -0.88170696D-04 -0.67603697D-04 -0.33738983D-04  0.31420271D-03
  0.24091071D-03  0.12023133D-03  0.19305995D-07  0.14802613D-07  0.73875412D-08
  0.24032104D-02 -0.27023888D-03 -0.11424022D-02  0.76937303D-08 -0.49678957D-03
 -0.30240869D-03 -0.36172146D-03  0.39082389D-03 -0.60805839D-07 -0.72034287D-07
  0.53258953D+00  0.98252368D+00  0.15860979D+01  0.20646281D+01  0.17617509D+01
  0.60829026D+00 -0.19883816D-01 -0.91644327D-02  0.25698026D-01  0.86104078D-03
  0.66019146D-03  0.32948181D-03  0.12846453D-03  0.98498452D-04  0.49157631D-04
 -0.38671868D-06 -0.29651135D-06 -0.14797995D-06 -0.30424458D-02  0.19341253D-02
  0.46950704D-03 -0.32353024D-07 -0.90722973D-02 -0.10169118D-01 -0.10422601D-01
  0.38921722D-03 -0.79546794D-06 -0.25551538D-06 -0.30920521D-04 -0.52447055D-04
 -0.59709119D-04 -0.16661544D-03 -0.19574968D-04 -0.33202851D-04 -0.37800272D-04
 -0.13188290D-03  0.42870299D-04  0.72716140D-04  0.82784756D-04  0.34634135D-03
  0.87154909D-04  0.16041156D-03  0.25957618D-03  0.34122016D-03  0.29266255D-03
  0.10006629D-03 -0.85164799D-03 -0.38000367D-03  0.11221559D-02  0.12657093D-03
  0.97516075D-04  0.42814809D-04  0.53330476D-04  0.41088257D-04  0.18039958D-04
  0.44539219D-06  0.34315067D-06  0.15066163D-06 -0.25617125D-02  0.92620730D-03
  0.19925329D-03 -0.53107856D-06  0.16499366D-03  0.96725994D-03  0.11444819D-02
 -0.41957135D-03  0.89964169D-06  0.18101646D-06  0.42920367D-05  0.72801067D-05
  0.82881441D-05  0.34211420D-04 -0.87152653D-04 -0.16040741D-03 -0.25956946D-03
 -0.34121132D-03 -0.29265497D-03 -0.10006370D-03  0.31282494D-03  0.13958188D-03
 -0.41218716D-03  0.17484408D-03  0.13470794D-03  0.59144040D-04  0.35828590D-04
  0.27603997D-04  0.12119642D-04  0.15770007D-06  0.12149941D-06  0.53344783D-07
  0.91288096D-03 -0.24806621D-03  0.74318502D-04 -0.17576112D-06 -0.25583463D-03
 -0.29115346D-03 -0.33276436D-03 -0.11573790D-03  0.22572095D-06 -0.97690668D-07
  0.16382070D-05  0.30221721D-05  0.48787228D-05  0.63506475D-05  0.54190190D-05
  0.18710570D-05  0.40590700D-05  0.18708216D-05 -0.52459791D-05  0.89309761D-04
  0.68477060D-04  0.34174852D-04  0.39126522D-04  0.29999736D-04  0.14971971D-04
 -0.30180327D-07 -0.23140360D-07 -0.11548662D-07  0.37370806D-03  0.98044712D-04
  0.31671335D-04  0.51127919D-08  0.30065882D-04  0.22624154D-04  0.22449225D-05
  0.15472596D-04 -0.41644918D-08 -0.23825933D-08 -0.52936572D-05 -0.89790446D-05
 -0.10222325D-04 -0.30690594D-05 -0.33228352D-05 -0.56361575D-05 -0.64165661D-05
 -0.12254624D-04
MO    4     MO 0.0        OCC NO =    2.0000000  ORB. ENERGY =  -10.256214
  0.53253188D+00  0.98241734D+00  0.15859262D+01  0.20644047D+01  0.17615603D+01
  0.60822442D+00 -0.19826573D-01 -0.91380494D-02  0.25624044D-01  0.92255328D-03
  0.70735534D-03  0.35301989D-03 -0.62131682D-03 -0.47638633D-03 -0.23775016D-03
  0.35429299D-06  0.27164939D-06  0.13557209D-06 -0.35463338D-02  0.13657098D-02
 -0.10911921D-02  0.36139290D-06 -0.95018059D-02 -0.99089144D-02 -0.10510437D-01
 -0.77943729D-03  0.76687277D-06 -0.42354399D-06  0.33606666D-02  0.61997737D-02
  0.10008357D-01  0.13027907D-01  0.11116737D-01  0.38383421D-02  0.27958327D-03
  0.12885967D-03 -0.36133598D-03 -0.35379486D-03 -0.27126746D-03 -0.13538147D-03
 -0.26256338D-03 -0.20131695D-03 -0.10047127D-03 -0.87976085D-07 -0.67454482D-07
 -0.33664514D-07  0.25803450D-02  0.38228295D-03  0.10908092D-02  0.33555750D-06
 -0.41150251D-03 -0.28247338D-03 -0.40661085D-03  0.96960696D-04 -0.15358503D-06
  0.32985191D-06  0.48780532D-04  0.89990557D-04  0.14527266D-03  0.18910184D-03
  0.16136094D-03  0.55714056D-04 -0.84011956D-04 -0.38721034D-04  0.10857782D-03
 -0.12282135D-03 -0.94171621D-04 -0.46998239D-04  0.39625592D-05  0.30382390D-05
  0.15162942D-05 -0.17156519D-06 -0.13154531D-06 -0.65650327D-07 -0.11886686D-02
 -0.47866234D-03  0.20838615D-03  0.20330104D-06  0.65531328D-05  0.21601550D-04
  0.43962893D-04  0.25057788D-04  0.21058158D-06  0.44721708D-07 -0.75200688D-04
 -0.13873059D-03 -0.22395418D-03 -0.29152180D-03 -0.24875608D-03 -0.85889497D-04
  0.11053188D-03  0.50944041D-04 -0.14285241D-03 -0.37090042D-04 -0.28438291D-04
 -0.14192701D-04  0.84499349D-04  0.64788741D-04  0.32334123D-04 -0.20673181D-07
 -0.15850884D-07 -0.79107019D-08  0.79773118D-03  0.42477583D-03 -0.17299141D-03
 -0.87173564D-07 -0.30882272D-05 -0.34085442D-04 -0.12480564D-03  0.45024101D-04
  0.34924412D-07  0.10383569D-06 -0.10541776D-04 -0.19447517D-04 -0.31394323D-04
 -0.40866081D-04 -0.34871101D-04 -0.12040153D-04 -0.42361208D-04 -0.19524242D-04
  0.54748012D-04 -0.11474048D-03 -0.87975725D-04 -0.43906052D-04  0.17683268D-03
  0.13558408D-03  0.67665959D-04 -0.70671965D-07 -0.54186780D-07 -0.27043001D-07
 -0.11118627D-02  0.22864806D-03  0.44065205D-03  0.32539186D-07  0.51836704D-04
  0.18839633D-04  0.18736511D-05 -0.60270945D-04  0.34138466D-07  0.19097883D-07
 -0.35172248D-02 -0.64885930D-02 -0.10474601D-01 -0.13634818D-01 -0.11634615D-01
 -0.40171530D-02  0.40727005D-03  0.18771039D-03 -0.52635954D-03  0.69126743D-04
  0.53002002D-04  0.26451714D-04  0.27163654D-03  0.20827367D-03  0.10394316D-03
 -0.32131518D-07 -0.24636410D-07 -0.12295295D-07  0.16636246D-02 -0.96584934D-03
 -0.49078170D-03 -0.89601797D-07 -0.22062551D-03 -0.61853901D-03 -0.28886984D-03
  0.11304732D-03  0.14428951D-07  0.13711908D-06  0.37920125D-04  0.64319709D-04
  0.73225716D-04  0.32584206D-03  0.20969015D-04  0.35567418D-04  0.40492248D-04
  0.12564243D-03 -0.18950339D-04 -0.32143362D-04 -0.36594082D-04 -0.92772452D-04
 -0.80303361D-04 -0.14780105D-03 -0.23917000D-03 -0.31439566D-03 -0.26965533D-03
 -0.92199738D-04  0.29126061D-03  0.12995992D-03 -0.38377338D-03 -0.15229846D-05
 -0.11733776D-05 -0.51517595D-06 -0.99631237D-04 -0.76760497D-04 -0.33701993D-04
 -0.21359214D-06 -0.16456123D-06 -0.72251242D-07  0.86366156D-03 -0.16259282D-03
  0.55876841D-04  0.19590251D-06 -0.23734023D-03 -0.26639458D-03 -0.32145320D-03
 -0.34464400D-05 -0.24433279D-06  0.44809406D-07  0.62922659D-04  0.10672874D-03
  0.12150690D-03 -0.12292325D-04  0.12694583D-03  0.23364810D-03  0.37808672D-03
  0.49700558D-03  0.42627880D-03  0.14575196D-03 -0.73376215D-03 -0.32740324D-03
  0.96682616D-03  0.12061684D-03  0.92928774D-04  0.40800737D-04 -0.55070955D-04
 -0.42429202D-04 -0.18628705D-04 -0.10498859D-06 -0.80888047D-07 -0.35514210D-07
 -0.18185884D-02  0.57174322D-03 -0.56782310D-03  0.37654620D-06  0.11374935D-03
  0.26931567D-03  0.10582252D-02  0.11660883D-02 -0.75198382D-06  0.77999033D-06
 -0.27793708D-04 -0.51273965D-04 -0.82772077D-04 -0.10774465D-03 -0.91938706D-04
 -0.31744226D-04  0.60148539D-04  0.27722407D-04 -0.77736522D-04 -0.41289864D-06
 -0.31658449D-06 -0.15799785D-06  0.24262993D-04  0.18603324D-04  0.92843624D-05
  0.95352116D-07  0.73109955D-07  0.36486991D-07  0.32353382D-04  0.88070518D-04
 -0.11167993D-03 -0.94799196D-07  0.54221257D-04 -0.55912074D-04 -0.67103793D-04
 -0.39605895D-04 -0.11831955D-06 -0.66488687D-07 -0.20044461D-04 -0.33999199D-04
 -0.38706886D-04 -0.39801603D-04  0.64226118D-05  0.10893965D-04  0.12402394D-04
  0.71428136D-04
MO    5     MO 0.0        OCC NO =    2.0000000  ORB. ENERGY =  -10.224794
 -0.31788384D-04 -0.58643361D-04 -0.94668568D-04 -0.12323035D-03 -0.10515268D-03
 -0.36306693D-04 -0.25402976D-04 -0.11708209D-04  0.32831039D-04  0.15067316D-04
  0.11552662D-04  0.57655882D-05 -0.26809787D-05 -0.20556044D-05 -0.10258907D-05
 -0.10412826D-06 -0.79838948D-07 -0.39845231D-07 -0.64597227D-03  0.29372625D-03
 -0.11860105D-03  0.98849485D-07  0.79526720D-04  0.38715890D-04  0.22388921D-04
  0.33203504D-04 -0.31440342D-07  0.13119786D-06  0.35079619D-02  0.64715047D-02
  0.10447015D-01  0.13598910D-01  0.11603974D-01  0.40065734D-02  0.70261794D-04
  0.32383596D-04 -0.90806985D-04  0.24630501D-03  0.18885106D-03  0.94249914D-04
 -0.33834651D-03 -0.25942265D-03 -0.12947008D-03 -0.58676022D-07 -0.44989052D-07
 -0.22452690D-07  0.14549531D-02 -0.40322160D-04  0.51510345D-03  0.16934959D-06
 -0.46597901D-03 -0.47584318D-03 -0.30201545D-03  0.35087489D-03  0.18529458D-06
 -0.62315426D-08  0.52954439D+00  0.97690599D+00  0.15770292D+01  0.20528234D+01
  0.17516779D+01  0.60481229D+00 -0.19738183D-01 -0.90973103D-02  0.25509808D-01
  0.14662702D-03  0.11242430D-03  0.56107603D-04  0.84889028D-04  0.65087523D-04
  0.32483235D-04 -0.15218214D-06 -0.11668362D-06 -0.58233302D-07 -0.33869438D-02
 -0.38896128D-03 -0.97778945D-04  0.23683521D-07 -0.99442458D-02 -0.10255306D-01
 -0.10472235D-01  0.10466949D-03 -0.11302778D-06  0.72608844D-07  0.51263531D-01
  0.94571205D-01  0.15266725D+00  0.19872740D+00  0.16957445D+00  0.58549981D-01
 -0.17308940D-02 -0.79776746D-03  0.22370232D-02  0.39576351D-04  0.30344636D-04
  0.15144100D-04  0.36178727D-03  0.27739553D-03  0.13843981D-03  0.54514252D-07
  0.41798070D-07  0.20860167D-07  0.11056890D-02  0.17544253D-03 -0.46084854D-03
 -0.94350994D-07 -0.12406889D-02 -0.15812810D-02 -0.12483809D-02 -0.18220209D-03
 -0.20308685D-07 -0.11518768D-06  0.11262762D-02  0.20777596D-02  0.33541482D-02
  0.43661044D-02  0.37256048D-02  0.12863618D-02 -0.57522246D-04 -0.26511951D-04
  0.74342277D-04  0.79269706D-04  0.60778983D-04  0.30332972D-04  0.44375268D-04
  0.34024141D-04  0.16980431D-04 -0.16536972D-07 -0.12679501D-07 -0.63279598D-08
 -0.58044974D-03  0.42537874D-04  0.29383254D-03  0.10134490D-07  0.22391085D-04
 -0.14326291D-05 -0.10084662D-04  0.29372840D-04 -0.24618380D-07  0.57369703D-07
  0.21038974D-05  0.38812798D-05  0.62655891D-05  0.81559353D-05  0.69594744D-05
  0.24029393D-05  0.86628548D-04  0.39927018D-04 -0.11195953D-03  0.44130765D-04
  0.33836672D-04  0.16886871D-04  0.25048871D-05  0.19205885D-05  0.95850827D-06
 -0.25637649D-07 -0.19657323D-07 -0.98103821D-08  0.41194726D-03 -0.32402290D-03
 -0.16259313D-04 -0.10086545D-07 -0.47346704D-04 -0.37335842D-04 -0.96811369D-04
 -0.28199974D-04  0.42875684D-08  0.73508918D-07 -0.13277251D-05 -0.22520731D-05
 -0.25639057D-05  0.92011618D-04 -0.72779153D-05 -0.12344722D-04 -0.14054029D-04
  0.11717634D-03 -0.14291714D-04 -0.24241451D-04 -0.27598036D-04 -0.67729854D-04
 -0.24996336D-04 -0.46006601D-04 -0.74447365D-04 -0.97863145D-04 -0.83936651D-04
 -0.28699367D-04  0.84085705D-04  0.37518878D-04 -0.11079375D-03 -0.32529353D-05
 -0.25062113D-05 -0.11003618D-05 -0.16165303D-04 -0.12454494D-04 -0.54681938D-05
 -0.54029931D-07 -0.41627149D-07 -0.18276561D-07  0.28401461D-03 -0.48549196D-04
 -0.12848346D-04  0.54510652D-07 -0.82408683D-04 -0.95358879D-04 -0.77935621D-04
  0.89191907D-05 -0.45682462D-07 -0.54742526D-08  0.52813983D-05  0.89582511D-05
  0.10198652D-04  0.69697327D-05 -0.66851773D-06 -0.12304295D-05 -0.19910672D-05
 -0.26173135D-05 -0.22448546D-05 -0.76755392D-06 -0.28434406D-05 -0.12687377D-05
  0.37465993D-05  0.73395045D-04  0.56546925D-04  0.24827146D-04  0.10770146D-04
  0.82978165D-05  0.36431884D-05  0.12800977D-06  0.98624624D-07  0.43301522D-07