 Entering Link 1 = D:\Gaussian\G16W\l1.exe PID=     58160.
  
 Copyright (c) 1988,1990,1992,1993,1995,1998,2003,2009,2016,
            Gaussian, Inc.  All Rights Reserved.
  
 This is part of the Gaussian(R) 16 program.  It is based on
 the Gaussian(R) 09 system (copyright 2009, Gaussian, Inc.),
 the Gaussian(R) 03 system (copyright 2003, Gaussian, Inc.),
 the Gaussian(R) 98 system (copyright 1998, Gaussian, Inc.),
 the Gaussian(R) 94 system (copyright 1995, Gaussian, Inc.),
 the Gaussian 92(TM) system (copyright 1992, Gaussian, Inc.),
 the Gaussian 90(TM) system (copyright 1990, Gaussian, Inc.),
 the Gaussian 88(TM) system (copyright 1988, Gaussian, Inc.),
 the Gaussian 86(TM) system (copyright 1986, Carnegie Mellon
 University), and the Gaussian 82(TM) system (copyright 1983,
 Carnegie Mellon University). Gaussian is a federally registered
 trademark of Gaussian, Inc.
  
 This software contains proprietary and confidential information,
 including trade secrets, belonging to Gaussian, Inc.
  
 This software is provided under written license and may be
 used, copied, transmitted, or stored only in accord with that
 written license.
  
 The following legend is applicable only to US Government
 contracts under FAR:
  
                    RESTRICTED RIGHTS LEGEND
  
 Use, reproduction and disclosure by the US Government is
 subject to restrictions as set forth in subparagraphs (a)
 and (c) of the Commercial Computer Software - Restricted
 Rights clause in FAR 52.227-19.
  
 Gaussian, Inc.
 340 Quinnipiac St., Bldg. 40, Wallingford CT 06492
  
  
 ---------------------------------------------------------------
 Warning -- This program may not be used in any manner that
 competes with the business of Gaussian, Inc. or will provide
 assistance to any competitor of Gaussian, Inc.  The licensee
 of this program is prohibited from giving any competitor of
 Gaussian, Inc. access to this program.  By using this program,
 the user acknowledges that Gaussian, Inc. is engaged in the
 business of creating and licensing software in the field of
 computational chemistry and represents and warrants to the
 licensee that it is not a competitor of Gaussian, Inc. and that
 it will not use this program in any manner prohibited above.
 ---------------------------------------------------------------
  

 Cite this work as:
 Gaussian 16, Revision A.03,
 M. J. Frisch, G. W. Trucks, H. B. Schlegel, G. E. Scuseria, 
 M. A. Robb, J. R. Cheeseman, G. Scalmani, V. Barone, 
 G. A. Petersson, H. Nakatsuji, X. Li, M. Caricato, A. V. Marenich, 
 J. Bloino, B. G. Janesko, R. Gomperts, B. Mennucci, H. P. Hratchian, 
 J. V. Ortiz, A. F. Izmaylov, J. L. Sonnenberg, D. Williams-Young, 
 F. Ding, F. Lipparini, F. Egidi, J. Goings, B. Peng, A. Petrone, 
 T. Henderson, D. Ranasinghe, V. G. Zakrzewski, J. Gao, N. Rega, 
 G. Zheng, W. Liang, M. Hada, M. Ehara, K. Toyota, R. Fukuda, 
 J. Hasegawa, M. Ishida, T. Nakajima, Y. Honda, O. Kitao, H. Nakai, 
 T. Vreven, K. Throssell, J. A. Montgomery, Jr., J. E. Peralta, 
 F. Ogliaro, M. J. Bearpark, J. J. Heyd, E. N. Brothers, K. N. Kudin, 
 V. N. Staroverov, T. A. Keith, R. Kobayashi, J. Normand, 
 K. Raghavachari, A. P. Rendell, J. C. Burant, S. S. Iyengar, 
 J. Tomasi, M. Cossi, J. M. Millam, M. Klene, C. Adamo, R. Cammi, 
 J. W. Ochterski, R. L. Martin, K. Morokuma, O. Farkas, 
 J. B. Foresman, and D. J. Fox, Gaussian, Inc., Wallingford CT, 2016.
 
 ******************************************
 Gaussian 16:  EM64W-G16RevA.03 17-Dec-2016
                08-Dec-2025 
 ******************************************
 %nprocshared=14
 Will use up to   14 processors via shared memory.
 %mem=58371MB
 %chk=F:\2025-12\sjk\SJY\PR8\PR8.chk
 ---------------------------------------------------------
 # rb3lyp/6-311g(d,p) geom=connectivity temperature=823.15
 ---------------------------------------------------------
 1/38=1,57=2,112=823150,172=1/1;
 2/12=2,17=6,18=5,40=1/2;
 3/5=4,6=6,7=101,11=2,25=1,30=1,74=-5,116=1/1,2,3;
 4//1;
 5/5=2,38=5/2;
 6/7=2,8=2,9=2,10=2,28=1/1;
 99/5=1,9=1/99;
 -------------------
 Title Card Required
 -------------------
 Symbolic Z-matrix:
 Charge =  0 Multiplicity = 1
 C                     0.74117  -0.78568  -0.00004 
 C                    -0.55723  -1.1572   -0.00044 
 C                    -1.60703  -0.1545   -0.00011 
 C                    -1.21861   1.25451   0.00013 
 C                     0.07253   1.63907   0.00007 
 C                     1.14245   0.64566   0.00007 
 H                    -0.82484  -2.20739  -0.00066 
 H                    -2.01406   1.99243   0.00028 
 H                     0.37126   2.68046   0.00007 
 O                     2.34341   0.91317  -0.00026 
 H                     2.56718  -1.08533   0.00008 
 O                     1.76955  -1.64897   0.00041 
 C                    -2.91844  -0.48406   0.00001 
 H                    -3.24305  -1.5179    0.00018 
 H                    -3.68922   0.27724   0.00067 
 
                          Input orientation:                          
 ---------------------------------------------------------------------
 Center     Atomic      Atomic             Coordinates (Angstroms)
 Number     Number       Type             X           Y           Z
 ---------------------------------------------------------------------
      1          6           0        0.741168   -0.785684   -0.000039
      2          6           0       -0.557227   -1.157200   -0.000440
      3          6           0       -1.607032   -0.154495   -0.000108
      4          6           0       -1.218614    1.254512    0.000131
      5          6           0        0.072532    1.639072    0.000071
      6          6           0        1.142450    0.645662    0.000072
      7          1           0       -0.824842   -2.207386   -0.000663
      8          1           0       -2.014063    1.992432    0.000276
      9          1           0        0.371261    2.680459    0.000074
     10          8           0        2.343411    0.913173   -0.000258
     11          1           0        2.567178   -1.085325    0.000083
     12          8           0        1.769553   -1.648970    0.000412
     13          6           0       -2.918440   -0.484059    0.000005
     14          1           0       -3.243047   -1.517896    0.000176
     15          1           0       -3.689219    0.277238    0.000669
 ---------------------------------------------------------------------
                    Distance matrix (angstroms):
                    1          2          3          4          5
     1  C    0.000000
     2  C    1.350501   0.000000
     3  C    2.431552   1.451726   0.000000
     4  C    2.828983   2.500757   1.461564   0.000000
     5  C    2.515257   2.866310   2.457197   1.347199   0.000000
     6  C    1.486532   2.477744   2.863547   2.438303   1.459996
     7  H    2.115094   1.083747   2.196858   3.484221   3.949749
     8  H    3.912701   3.470238   2.185170   1.085018   2.116304
     9  H    3.485825   3.948382   3.456965   2.135656   1.083386
    10  O    2.335230   3.563726   4.092177   3.578342   2.384077
    11  H    1.850432   3.125232   4.276736   4.450512   3.693995
    12  O    1.342698   2.378181   3.692531   4.166455   3.700149
    13  C    3.672017   2.455289   1.352185   2.431468   3.667915
    14  H    4.050939   2.709932   2.129650   3.432867   4.578156
    15  H    4.556109   3.444849   2.126475   2.656869   4.000670
                    6          7          8          9         10
     6  C    0.000000
     7  H    3.465562   0.000000
     8  H    3.431816   4.364942   0.000000
     9  H    2.176036   5.032066   2.482570   0.000000
    10  O    1.230394   4.446990   4.489140   2.648146   0.000000
    11  H    2.241911   3.572789   5.519090   4.359264   2.010986
    12  O    2.378780   2.653811   5.251244   4.549635   2.625622
    13  C    4.215103   2.711643   2.636457   4.564680   5.444202
    14  H    4.890150   2.514580   3.719248   5.539802   6.092504
    15  H    4.845695   3.791835   2.397507   4.718365   6.066056
                   11         12         13         14         15
    11  H    0.000000
    12  O    0.976679   0.000000
    13  C    5.518471   4.830559   0.000000
    14  H    5.826305   5.014313   1.083600   0.000000
    15  H    6.403053   5.788650   1.083362   1.849750   0.000000
 Stoichiometry    C7H6O2
 Framework group  C1[X(C7H6O2)]
 Deg. of freedom    39
 Full point group                 C1      NOp   1
 Largest Abelian subgroup         C1      NOp   1
 Largest concise Abelian subgroup C1      NOp   1
                         Standard orientation:                         
 ---------------------------------------------------------------------
 Center     Atomic      Atomic             Coordinates (Angstroms)
 Number     Number       Type             X           Y           Z
 ---------------------------------------------------------------------
      1          6           0        0.741168   -0.785684   -0.000039
      2          6           0       -0.557227   -1.157200   -0.000440
      3          6           0       -1.607032   -0.154495   -0.000108
      4          6           0       -1.218614    1.254512    0.000131
      5          6           0        0.072532    1.639072    0.000071
      6          6           0        1.142450    0.645662    0.000072
      7          1           0       -0.824842   -2.207386   -0.000663
      8          1           0       -2.014063    1.992432    0.000276
      9          1           0        0.371261    2.680459    0.000074
     10          8           0        2.343411    0.913173   -0.000258
     11          1           0        2.567178   -1.085325    0.000083
     12          8           0        1.769553   -1.648970    0.000412
     13          6           0       -2.918440   -0.484059    0.000005
     14          1           0       -3.243047   -1.517896    0.000176
     15          1           0       -3.689219    0.277238    0.000669
 ---------------------------------------------------------------------
 Rotational constants (GHZ):           3.1730811           1.4419573           0.9914213
 Standard basis: 6-311G(d,p) (5D, 7F)
 There are   207 symmetry adapted cartesian basis functions of A   symmetry.
 There are   198 symmetry adapted basis functions of A   symmetry.
   198 basis functions,   336 primitive gaussians,   207 cartesian basis functions
    32 alpha electrons       32 beta electrons
       nuclear repulsion energy       408.1194779593 Hartrees.
 NAtoms=   15 NActive=   15 NUniq=   15 SFac= 1.00D+00 NAtFMM=   60 NAOKFM=F Big=F
 Integral buffers will be    131072 words long.
 Raffenetti 2 integral format.
 Two-electron integral symmetry is turned on.
 One-electron integrals computed using PRISM.
 NBasis=   198 RedAO= T EigKep=  2.45D-04  NBF=   198
 NBsUse=   198 1.00D-06 EigRej= -1.00D+00 NBFU=   198
 ExpMin= 1.03D-01 ExpMax= 8.59D+03 ExpMxC= 1.30D+03 IAcc=3 IRadAn=         5 AccDes= 0.00D+00
 Harris functional with IExCor=  402 and IRadAn=       5 diagonalized for initial guess.
 HarFok:  IExCor=  402 AccDes= 0.00D+00 IRadAn=         5 IDoV= 1 UseB2=F ITyADJ=14
 ICtDFT=  3500011 ScaDFX=  1.000000  1.000000  1.000000  1.000000
 FoFCou: FMM=F IPFlag=           0 FMFlag=      100000 FMFlg1=           0
         NFxFlg=           0 DoJE=T BraDBF=F KetDBF=T FulRan=T
         wScrn=  0.000000 ICntrl=       500 IOpCl=  0 I1Cent=   200000004 NGrid=           0
         NMat0=    1 NMatS0=      1 NMatT0=    0 NMatD0=    1 NMtDS0=    0 NMtDT0=    0
 Petite list used in FoFCou.
 Requested convergence on RMS density matrix=1.00D-08 within 128 cycles.
 Requested convergence on MAX density matrix=1.00D-06.
 Requested convergence on             energy=1.00D-06.
 No special actions if energy rises.
 Integral accuracy reduced to 1.0D-05 until final iterations.
 Initial convergence to 1.0D-05 achieved.  Increase integral accuracy.
 SCF Done:  E(RB3LYP) =  -420.884129045     A.U. after   15 cycles
            NFock= 15  Conv=0.51D-08     -V/T= 2.0036

 **********************************************************************

            Population analysis using the SCF density.

 **********************************************************************

 Orbital symmetries:
       Occupied  (A) (A) (A) (A) (A) (A) (A) (A) (A) (A) (A) (A)
                 (A) (A) (A) (A) (A) (A) (A) (A) (A) (A) (A) (A)
                 (A) (A) (A) (A) (A) (A) (A) (A)
       Virtual   (A) (A) (A) (A) (A) (A) (A) (A) (A) (A) (A) (A)
                 (A) (A) (A) (A) (A) (A) (A) (A) (A) (A) (A) (A)
                 (A) (A) (A) (A) (A) (A) (A) (A) (A) (A) (A) (A)
                 (A) (A) (A) (A) (A) (A) (A) (A) (A) (A) (A) (A)
                 (A) (A) (A) (A) (A) (A) (A) (A) (A) (A) (A) (A)
                 (A) (A) (A) (A) (A) (A) (A) (A) (A) (A) (A) (A)
                 (A) (A) (A) (A) (A) (A) (A) (A) (A) (A) (A) (A)
                 (A) (A) (A) (A) (A) (A) (A) (A) (A) (A) (A) (A)
                 (A) (A) (A) (A) (A) (A) (A) (A) (A) (A) (A) (A)
                 (A) (A) (A) (A) (A) (A) (A) (A) (A) (A) (A) (A)
                 (A) (A) (A) (A) (A) (A) (A) (A) (A) (A) (A) (A)
                 (A) (A) (A) (A) (A) (A) (A) (A) (A) (A) (A) (A)
                 (A) (A) (A) (A) (A) (A) (A) (A) (A) (A) (A) (A)
                 (A) (A) (A) (A) (A) (A) (A) (A) (A) (A)
 The electronic state is 1-A.
 Alpha  occ. eigenvalues --  -19.15231 -19.11869 -10.26709 -10.24614 -10.21396
 Alpha  occ. eigenvalues --  -10.21057 -10.20181 -10.19499 -10.18646  -1.08535
 Alpha  occ. eigenvalues --   -1.04008  -0.87365  -0.78604  -0.77027  -0.67041
 Alpha  occ. eigenvalues --   -0.62670  -0.61365  -0.54740  -0.51720  -0.49910
 Alpha  occ. eigenvalues --   -0.47262  -0.44621  -0.44229  -0.43559  -0.41657
 Alpha  occ. eigenvalues --   -0.39102  -0.37852  -0.36750  -0.36643  -0.27722
 Alpha  occ. eigenvalues --   -0.27715  -0.23687
 Alpha virt. eigenvalues --   -0.10446  -0.00797   0.02312   0.04100   0.05990
 Alpha virt. eigenvalues --    0.07086   0.08066   0.10780   0.12840   0.14503
 Alpha virt. eigenvalues --    0.18147   0.20519   0.25192   0.26299   0.27412
 Alpha virt. eigenvalues --    0.28623   0.32106   0.34630   0.35803   0.36205
 Alpha virt. eigenvalues --    0.37826   0.38571   0.38984   0.40807   0.41018
 Alpha virt. eigenvalues --    0.42772   0.43543   0.46848   0.48748   0.49141
 Alpha virt. eigenvalues --    0.50800   0.51434   0.54887   0.56698   0.57071
 Alpha virt. eigenvalues --    0.59519   0.60915   0.61671   0.61744   0.63991
 Alpha virt. eigenvalues --    0.67644   0.71510   0.72957   0.74959   0.76517
 Alpha virt. eigenvalues --    0.77848   0.80550   0.82442   0.83627   0.87044
 Alpha virt. eigenvalues --    0.89446   0.91341   0.92148   0.94522   0.94672
 Alpha virt. eigenvalues --    0.97473   0.99060   0.99078   1.02991   1.04793
 Alpha virt. eigenvalues --    1.07464   1.10768   1.11282   1.17003   1.20457
 Alpha virt. eigenvalues --    1.20660   1.33051   1.36864   1.37363   1.38911
 Alpha virt. eigenvalues --    1.41316   1.44664   1.47494   1.47816   1.52284
 Alpha virt. eigenvalues --    1.52543   1.55062   1.57496   1.58625   1.62134
 Alpha virt. eigenvalues --    1.62381   1.64595   1.65231   1.68962   1.74464
 Alpha virt. eigenvalues --    1.75662   1.77847   1.78276   1.80453   1.85629
 Alpha virt. eigenvalues --    1.88420   1.89620   1.90674   1.91647   1.96363
 Alpha virt. eigenvalues --    2.01817   2.05252   2.05709   2.07011   2.08753
 Alpha virt. eigenvalues --    2.14756   2.20693   2.22429   2.24954   2.28654
 Alpha virt. eigenvalues --    2.30584   2.37056   2.43569   2.48816   2.49189
 Alpha virt. eigenvalues --    2.52645   2.55214   2.57052   2.59985   2.61186
 Alpha virt. eigenvalues --    2.63036   2.64777   2.65382   2.65733   2.68012
 Alpha virt. eigenvalues --    2.71851   2.79993   2.82179   2.86140   2.90875
 Alpha virt. eigenvalues --    2.93802   2.96362   2.99557   3.04197   3.09600
 Alpha virt. eigenvalues --    3.09875   3.14543   3.16016   3.21843   3.30037
 Alpha virt. eigenvalues --    3.31911   3.37578   3.43262   3.46428   3.52328
 Alpha virt. eigenvalues --    3.56468   3.58597   3.63623   3.74165   3.82585
 Alpha virt. eigenvalues --    3.97030   3.99176   4.05367   4.08779   4.31657
 Alpha virt. eigenvalues --    4.72402   4.78481   4.89999   5.05871   5.34568
 Alpha virt. eigenvalues --    5.62198   5.70297  23.49679  23.73157  23.77061
 Alpha virt. eigenvalues --   23.85355  24.14671  24.15442  24.20398  49.89354
 Alpha virt. eigenvalues --   49.97361
          Condensed to atoms (all electrons):
               1          2          3          4          5          6
     1  C    5.121378   0.456765  -0.017918  -0.025784  -0.042526   0.188133
     2  C    0.456765   4.995661   0.403762  -0.061362  -0.023104  -0.008428
     3  C   -0.017918   0.403762   4.956268   0.392933  -0.033947  -0.039856
     4  C   -0.025784  -0.061362   0.392933   4.935612   0.476832  -0.015759
     5  C   -0.042526  -0.023104  -0.033947   0.476832   5.132616   0.304591
     6  C    0.188133  -0.008428  -0.039856  -0.015759   0.304591   4.868539
     7  H   -0.026259   0.395989  -0.042975   0.007677  -0.002608   0.010058
     8  H   -0.002143   0.007163  -0.046709   0.408253  -0.026189   0.007395
     9  H    0.011084  -0.002210   0.008290  -0.034674   0.397144  -0.039111
    10  O   -0.103803   0.009465  -0.001006   0.007261  -0.076256   0.615541
    11  H   -0.064802   0.009043  -0.000160  -0.000947   0.006015  -0.018730
    12  O    0.385218  -0.061037   0.003293  -0.000455   0.005606  -0.072418
    13  C    0.006106  -0.066041   0.585664  -0.057569   0.004501  -0.000644
    14  H    0.000823  -0.008635  -0.033287   0.006725  -0.000457  -0.000044
    15  H   -0.000509   0.006530  -0.036336  -0.009710   0.000888  -0.000009
               7          8          9         10         11         12
     1  C   -0.026259  -0.002143   0.011084  -0.103803  -0.064802   0.385218
     2  C    0.395989   0.007163  -0.002210   0.009465   0.009043  -0.061037
     3  C   -0.042975  -0.046709   0.008290  -0.001006  -0.000160   0.003293
     4  C    0.007677   0.408253  -0.034674   0.007261  -0.000947  -0.000455
     5  C   -0.002608  -0.026189   0.397144  -0.076256   0.006015   0.005606
     6  C    0.010058   0.007395  -0.039111   0.615541  -0.018730  -0.072418
     7  H    0.560515  -0.000306   0.000103  -0.000209  -0.001077   0.003133
     8  H   -0.000306   0.562110  -0.010410  -0.000176   0.000018   0.000012
     9  H    0.000103  -0.010410   0.547013   0.007866  -0.000236  -0.000110
    10  O   -0.000209  -0.000176   0.007866   7.859423   0.050999  -0.016113
    11  H   -0.001077   0.000018  -0.000236   0.050999   0.445014   0.320428
    12  O    0.003133   0.000012  -0.000110  -0.016113   0.320428   7.770106
    13  C   -0.007784  -0.007552  -0.000196  -0.000004   0.000034  -0.000079
    14  H    0.002968  -0.000094   0.000019   0.000000   0.000001  -0.000013
    15  H   -0.000049   0.003571  -0.000038   0.000000  -0.000001   0.000002
              13         14         15
     1  C    0.006106   0.000823  -0.000509
     2  C   -0.066041  -0.008635   0.006530
     3  C    0.585664  -0.033287  -0.036336
     4  C   -0.057569   0.006725  -0.009710
     5  C    0.004501  -0.000457   0.000888
     6  C   -0.000644  -0.000044  -0.000009
     7  H   -0.007784   0.002968  -0.000049
     8  H   -0.007552  -0.000094   0.003571
     9  H   -0.000196   0.000019  -0.000038
    10  O   -0.000004   0.000000   0.000000
    11  H    0.000034   0.000001  -0.000001
    12  O   -0.000079  -0.000013   0.000002
    13  C    4.858644   0.407666   0.409157
    14  H    0.407666   0.542101  -0.036890
    15  H    0.409157  -0.036890   0.547058
 Mulliken charges:
               1
     1  C    0.114238
     2  C   -0.053563
     3  C   -0.098014
     4  C   -0.029035
     5  C   -0.123104
     6  C    0.200743
     7  H    0.100823
     8  H    0.105057
     9  H    0.115467
    10  O   -0.352988
    11  H    0.254399
    12  O   -0.337573
    13  C   -0.131903
    14  H    0.119116
    15  H    0.116336
 Sum of Mulliken charges =   0.00000
 Mulliken charges with hydrogens summed into heavy atoms:
               1
     1  C    0.114238
     2  C    0.047260
     3  C   -0.098014
     4  C    0.076022
     5  C   -0.007636
     6  C    0.200743
    10  O   -0.352988
    12  O   -0.083174
    13  C    0.103550
 Electronic spatial extent (au):  <R**2>=           1123.5201
 Charge=              0.0000 electrons
 Dipole moment (field-independent basis, Debye):
    X=             -3.4104    Y=              0.4058    Z=              0.0006  Tot=              3.4344
 Quadrupole moment (field-independent basis, Debye-Ang):
   XX=            -49.5547   YY=            -50.6114   ZZ=            -54.2570
   XY=             -1.9184   XZ=             -0.0022   YZ=              0.0025
 Traceless Quadrupole moment (field-independent basis, Debye-Ang):
   XX=              1.9197   YY=              0.8630   ZZ=             -2.7827
   XY=             -1.9184   XZ=             -0.0022   YZ=              0.0025
 Octapole moment (field-independent basis, Debye-Ang**2):
  XXX=             -9.4356  YYY=              6.5622  ZZZ=              0.0022  XYY=             -9.4960
  XXY=            -11.8335  XXZ=              0.0110  XZZ=             10.6542  YZZ=             -1.0415
  YYZ=             -0.0018  XYZ=              0.0023
 Hexadecapole moment (field-independent basis, Debye-Ang**3):
 XXXX=           -873.0170 YYYY=           -441.1859 ZZZZ=            -55.9723 XXXY=            -46.0800
 XXXZ=             -0.0315 YYYX=             12.2255 YYYZ=              0.0059 ZZZX=             -0.0022
 ZZZY=             -0.0055 XXYY=           -231.3739 XXZZ=           -175.1434 YYZZ=            -92.6035
 XXYZ=              0.0080 YYXZ=             -0.0047 ZZXY=             -1.7596
 N-N= 4.081194779593D+02 E-N=-1.799300643023D+03  KE= 4.193764835321D+02
 1|1|UNPC-PC-20250526LCFF|SP|RB3LYP|6-311G(d,p)|C7H6O2|ADMINISTRATOR|08
 -Dec-2025|0||# rb3lyp/6-311g(d,p) geom=connectivity temperature=823.15
 ||Title Card Required||0,1|C,0,0.741168,-0.785684,-0.000039|C,0,-0.557
 227,-1.1572,-0.00044|C,0,-1.607032,-0.154495,-0.000108|C,0,-1.218614,1
 .254512,0.000131|C,0,0.072532,1.639072,0.000071|C,0,1.14245,0.645662,0
 .000072|H,0,-0.824842,-2.207386,-0.000663|H,0,-2.014063,1.992432,0.000
 276|H,0,0.371261,2.680459,0.000074|O,0,2.343411,0.913173,-0.000258|H,0
 ,2.567178,-1.085325,0.000083|O,0,1.769553,-1.64897,0.000412|C,0,-2.918
 44,-0.484059,0.000005|H,0,-3.243047,-1.517896,0.000176|H,0,-3.689219,0
 .277238,0.000669||Version=EM64W-G16RevA.03|State=1-A|HF=-420.884129|RM
 SD=5.074e-009|Dipole=-1.3417375,0.1596462,0.0002186|Quadrupole=1.42724
 4,0.641598,-2.068842,-1.4263073,-0.0016539,0.001887|PG=C01 [X(C7H6O2)]
 ||@


 We find comfort among those who agree with us -- growth among those who don't.
 -- Frank A. Clark
 Job cpu time:       0 days  0 hours  0 minutes 14.0 seconds.
 Elapsed time:       0 days  0 hours  0 minutes 14.1 seconds.
 File lengths (MBytes):  RWF=     24 Int=      0 D2E=      0 Chk=      3 Scr=      1
 Normal termination of Gaussian 16 at Mon Dec 08 16:32:23 2025.
