Title Card Required                                                     
SP        RB3LYP                                                      6-311G(d,p)         
Number of atoms                            I               15
Info1-9                                    I   N=           9
          41          40           0           0           0         110
           1          18        -502
Full Title                                 C   N=           2
Title Card Required     
Route                                      C   N=           5
# rb3lyp/6-311g(d,p) geom=connectivity temperature=823.15   
Charge                                     I                0
Multiplicity                               I                1
Number of electrons                        I               64
Number of alpha electrons                  I               32
Number of beta electrons                   I               32
Number of basis functions                  I              198
Number of independent functions            I              198
Number of point charges in /Mol/           I                0
Number of translation vectors              I                0
Atomic numbers                             I   N=          15
           6           6           6           6           6           6
           1           1           1           8           1           8
           6           1           1
Nuclear charges                            R   N=          15
  6.00000000E+00  6.00000000E+00  6.00000000E+00  6.00000000E+00  6.00000000E+00
  6.00000000E+00  1.00000000E+00  1.00000000E+00  1.00000000E+00  8.00000000E+00
  1.00000000E+00  8.00000000E+00  6.00000000E+00  1.00000000E+00  1.00000000E+00
Current cartesian coordinates              R   N=          45
  1.40060453E+00 -1.48472758E+00 -7.36993189E-05 -1.05300642E+00 -2.18679107E+00
 -8.31479495E-04 -3.03685035E+00 -2.91953238E-01 -2.04090421E-04 -2.30284671E+00
  2.37068410E+00  2.47554122E-04  1.37065615E-01  3.09739718E+00  1.34170555E-04
  2.15891761E+00  1.22012435E+00  1.36060281E-04 -1.55872548E+00 -4.17135499E+00
 -1.25288842E-03 -3.80602747E+00  3.76515080E+00  5.21564410E-04  7.01581611E-01
  5.06533340E+00  1.39839733E-04  4.42840499E+00  1.72564687E+00 -4.87549340E-04
  4.85126333E+00 -2.05096701E+00  1.56847268E-04  3.34397053E+00 -3.11610169E+00
  7.78567163E-04 -5.51505231E+00 -9.14738938E-01  9.44863062E-06 -6.12847064E+00
 -2.86840773E+00  3.32591798E-04 -6.97161352E+00  5.23903891E-01  1.26422678E-03
Number of symbols in /Mol/                 I                0
Force Field                                I                0
Atom Types                                 C   N=          15
                                                            
                                                            
                                                            
Int Atom Types                             I   N=          15
           0           0           0           0           0           0
           0           0           0           0           0           0
           0           0           0
MM charges                                 R   N=          15
  0.00000000E+00  0.00000000E+00  0.00000000E+00  0.00000000E+00  0.00000000E+00
  0.00000000E+00  0.00000000E+00  0.00000000E+00  0.00000000E+00  0.00000000E+00
  0.00000000E+00  0.00000000E+00  0.00000000E+00  0.00000000E+00  0.00000000E+00
Integer atomic weights                     I   N=          15
          12          12          12          12          12          12
           1           1           1          16           1          16
          12           1           1
Real atomic weights                        R   N=          15
  1.20000000E+01  1.20000000E+01  1.20000000E+01  1.20000000E+01  1.20000000E+01
  1.20000000E+01  1.00782504E+00  1.00782504E+00  1.00782504E+00  1.59949146E+01
  1.00782504E+00  1.59949146E+01  1.20000000E+01  1.00782504E+00  1.00782504E+00
Atom fragment info                         I   N=          15
           0           0           0           0           0           0
           0           0           0           0           0           0
           0           0           0
Atom residue num                           I   N=          15
           0           0           0           0           0           0
           0           0           0           0           0           0
           0           0           0
Nuclear spins                              I   N=          15
           0           0           0           0           0           0
           1           1           1           0           1           0
           0           1           1
Nuclear ZEff                               R   N=          15
 -3.60000000E+00 -3.60000000E+00 -3.60000000E+00 -3.60000000E+00 -3.60000000E+00
 -3.60000000E+00 -1.00000000E+00 -1.00000000E+00 -1.00000000E+00 -5.60000000E+00
 -1.00000000E+00 -5.60000000E+00 -3.60000000E+00 -1.00000000E+00 -1.00000000E+00
Nuclear ZNuc                               R   N=          15
  6.00000000E+00  6.00000000E+00  6.00000000E+00  6.00000000E+00  6.00000000E+00
  6.00000000E+00  1.00000000E+00  1.00000000E+00  1.00000000E+00  8.00000000E+00
  1.00000000E+00  8.00000000E+00  6.00000000E+00  1.00000000E+00  1.00000000E+00
Nuclear QMom                               R   N=          15
  0.00000000E+00  0.00000000E+00  0.00000000E+00  0.00000000E+00  0.00000000E+00
  0.00000000E+00  0.00000000E+00  0.00000000E+00  0.00000000E+00  0.00000000E+00
  0.00000000E+00  0.00000000E+00  0.00000000E+00  0.00000000E+00  0.00000000E+00
Nuclear GFac                               R   N=          15
  0.00000000E+00  0.00000000E+00  0.00000000E+00  0.00000000E+00  0.00000000E+00
  0.00000000E+00  2.79284600E+00  2.79284600E+00  2.79284600E+00  0.00000000E+00
  2.79284600E+00  0.00000000E+00  0.00000000E+00  2.79284600E+00  2.79284600E+00
MicOpt                                     I   N=          15
          -1          -1          -1          -1          -1          -1
          -1          -1          -1          -1          -1          -1
          -1          -1          -1
Number of residues                         I                0
Number of secondary structures             I                0
SymInf integers                            I   N=          26
           1           1           1           1           1           0
           0           0           0           0           0           0
           0           0           0           0           0           0
           0           0           0           0           0           0
           0           0
RotTr to input orientation                 R   N=          12
  1.00000000E+00 -1.20679232E-07  0.00000000E+00  1.20679232E-07  1.00000000E+00
  0.00000000E+00  0.00000000E+00  0.00000000E+00  1.00000000E+00  5.90539413E-08
 -1.77161824E-07 -2.95269707E-08
Number of contracted shells                I               69
Number of primitive shells                 I              144
Pure/Cartesian d shells                    I                0
Pure/Cartesian f shells                    I                0
Highest angular momentum                   I                2
Largest degree of contraction              I                6
Shell types                                I   N=          69
           0          -1          -1          -1          -2           0
          -1          -1          -1          -2           0          -1
          -1          -1          -2           0          -1          -1
          -1          -2           0          -1          -1          -1
          -2           0          -1          -1          -1          -2
           0           0           0           1           0           0
           0           1           0           0           0           1
           0          -1          -1          -1          -2           0
           0           0           1           0          -1          -1
          -1          -2           0          -1          -1          -1
          -2           0           0           0           1           0
           0           0           1
Number of primitives per shell             I   N=          69
           6           3           1           1           1           6
           3           1           1           1           6           3
           1           1           1           6           3           1
           1           1           6           3           1           1
           1           6           3           1           1           1
           3           1           1           1           3           1
           1           1           3           1           1           1
           6           3           1           1           1           3
           1           1           1           6           3           1
           1           1           6           3           1           1
           1           3           1           1           1           3
           1           1           1
Shell to atom map                          I   N=          69
           1           1           1           1           1           2
           2           2           2           2           3           3
           3           3           3           4           4           4
           4           4           5           5           5           5
           5           6           6           6           6           6
           7           7           7           7           8           8
           8           8           9           9           9           9
          10          10          10          10          10          11
          11          11          11          12          12          12
          12          12          13          13          13          13
          13          14          14          14          14          15
          15          15          15
Primitive exponents                        R   N=         144
  4.56324000E+03  6.82024000E+02  1.54973000E+02  4.44553000E+01  1.30290000E+01
  1.82773000E+00  2.09642000E+01  4.80331000E+00  1.45933000E+00  4.83456000E-01
  1.45585000E-01  6.26000000E-01  4.56324000E+03  6.82024000E+02  1.54973000E+02
  4.44553000E+01  1.30290000E+01  1.82773000E+00  2.09642000E+01  4.80331000E+00
  1.45933000E+00  4.83456000E-01  1.45585000E-01  6.26000000E-01  4.56324000E+03
  6.82024000E+02  1.54973000E+02  4.44553000E+01  1.30290000E+01  1.82773000E+00
  2.09642000E+01  4.80331000E+00  1.45933000E+00  4.83456000E-01  1.45585000E-01
  6.26000000E-01  4.56324000E+03  6.82024000E+02  1.54973000E+02  4.44553000E+01
  1.30290000E+01  1.82773000E+00  2.09642000E+01  4.80331000E+00  1.45933000E+00
  4.83456000E-01  1.45585000E-01  6.26000000E-01  4.56324000E+03  6.82024000E+02
  1.54973000E+02  4.44553000E+01  1.30290000E+01  1.82773000E+00  2.09642000E+01
  4.80331000E+00  1.45933000E+00  4.83456000E-01  1.45585000E-01  6.26000000E-01
  4.56324000E+03  6.82024000E+02  1.54973000E+02  4.44553000E+01  1.30290000E+01
  1.82773000E+00  2.09642000E+01  4.80331000E+00  1.45933000E+00  4.83456000E-01
  1.45585000E-01  6.26000000E-01  3.38650000E+01  5.09479000E+00  1.15879000E+00
  3.25840000E-01  1.02741000E-01  7.50000000E-01  3.38650000E+01  5.09479000E+00
  1.15879000E+00  3.25840000E-01  1.02741000E-01  7.50000000E-01  3.38650000E+01
  5.09479000E+00  1.15879000E+00  3.25840000E-01  1.02741000E-01  7.50000000E-01
  8.58850000E+03  1.29723000E+03  2.99296000E+02  8.73771000E+01  2.56789000E+01
  3.74004000E+00  4.21175000E+01  9.62837000E+00  2.85332000E+00  9.05661000E-01
  2.55611000E-01  1.29200000E+00  3.38650000E+01  5.09479000E+00  1.15879000E+00
  3.25840000E-01  1.02741000E-01  7.50000000E-01  8.58850000E+03  1.29723000E+03
  2.99296000E+02  8.73771000E+01  2.56789000E+01  3.74004000E+00  4.21175000E+01
  9.62837000E+00  2.85332000E+00  9.05661000E-01  2.55611000E-01  1.29200000E+00
  4.56324000E+03  6.82024000E+02  1.54973000E+02  4.44553000E+01  1.30290000E+01
  1.82773000E+00  2.09642000E+01  4.80331000E+00  1.45933000E+00  4.83456000E-01
  1.45585000E-01  6.26000000E-01  3.38650000E+01  5.09479000E+00  1.15879000E+00
  3.25840000E-01  1.02741000E-01  7.50000000E-01  3.38650000E+01  5.09479000E+00
  1.15879000E+00  3.25840000E-01  1.02741000E-01  7.50000000E-01
Contraction coefficients                   R   N=         144
  1.96665025E-03  1.52306019E-02  7.61269097E-02  2.60801033E-01  6.16462078E-01
  2.21006028E-01  1.14660081E-01  9.19999648E-01 -3.03068213E-03  1.00000000E+00
  1.00000000E+00  1.00000000E+00  1.96665025E-03  1.52306019E-02  7.61269097E-02
  2.60801033E-01  6.16462078E-01  2.21006028E-01  1.14660081E-01  9.19999648E-01
 -3.03068213E-03  1.00000000E+00  1.00000000E+00  1.00000000E+00  1.96665025E-03
  1.52306019E-02  7.61269097E-02  2.60801033E-01  6.16462078E-01  2.21006028E-01
  1.14660081E-01  9.19999648E-01 -3.03068213E-03  1.00000000E+00  1.00000000E+00
  1.00000000E+00  1.96665025E-03  1.52306019E-02  7.61269097E-02  2.60801033E-01
  6.16462078E-01  2.21006028E-01  1.14660081E-01  9.19999648E-01 -3.03068213E-03
  1.00000000E+00  1.00000000E+00  1.00000000E+00  1.96665025E-03  1.52306019E-02
  7.61269097E-02  2.60801033E-01  6.16462078E-01  2.21006028E-01  1.14660081E-01
  9.19999648E-01 -3.03068213E-03  1.00000000E+00  1.00000000E+00  1.00000000E+00
  1.96665025E-03  1.52306019E-02  7.61269097E-02  2.60801033E-01  6.16462078E-01
  2.21006028E-01  1.14660081E-01  9.19999648E-01 -3.03068213E-03  1.00000000E+00
  1.00000000E+00  1.00000000E+00  2.54938145E-02  1.90373109E-01  8.52161486E-01
  1.00000000E+00  1.00000000E+00  1.00000000E+00  2.54938145E-02  1.90373109E-01
  8.52161486E-01  1.00000000E+00  1.00000000E+00  1.00000000E+00  2.54938145E-02
  1.90373109E-01  8.52161486E-01  1.00000000E+00  1.00000000E+00  1.00000000E+00
  1.89515008E-03  1.43859006E-02  7.07320031E-02  2.40001011E-01  5.94797026E-01
  2.80802012E-01  1.13889012E-01  9.20811101E-01 -3.27447036E-03  1.00000000E+00
  1.00000000E+00  1.00000000E+00  2.54938145E-02  1.90373109E-01  8.52161486E-01
  1.00000000E+00  1.00000000E+00  1.00000000E+00  1.89515008E-03  1.43859006E-02
  7.07320031E-02  2.40001011E-01  5.94797026E-01  2.80802012E-01  1.13889012E-01
  9.20811101E-01 -3.27447036E-03  1.00000000E+00  1.00000000E+00  1.00000000E+00
  1.96665025E-03  1.52306019E-02  7.61269097E-02  2.60801033E-01  6.16462078E-01
  2.21006028E-01  1.14660081E-01  9.19999648E-01 -3.03068213E-03  1.00000000E+00
  1.00000000E+00  1.00000000E+00  2.54938145E-02  1.90373109E-01  8.52161486E-01
  1.00000000E+00  1.00000000E+00  1.00000000E+00  2.54938145E-02  1.90373109E-01
  8.52161486E-01  1.00000000E+00  1.00000000E+00  1.00000000E+00
P(S=P) Contraction coefficients            R   N=         144
  0.00000000E+00  0.00000000E+00  0.00000000E+00  0.00000000E+00  0.00000000E+00
  0.00000000E+00  4.02486927E-02  2.37593957E-01  8.15853851E-01  1.00000000E+00
  1.00000000E+00  0.00000000E+00  0.00000000E+00  0.00000000E+00  0.00000000E+00
  0.00000000E+00  0.00000000E+00  0.00000000E+00  4.02486927E-02  2.37593957E-01
  8.15853851E-01  1.00000000E+00  1.00000000E+00  0.00000000E+00  0.00000000E+00
  0.00000000E+00  0.00000000E+00  0.00000000E+00  0.00000000E+00  0.00000000E+00
  4.02486927E-02  2.37593957E-01  8.15853851E-01  1.00000000E+00  1.00000000E+00
  0.00000000E+00  0.00000000E+00  0.00000000E+00  0.00000000E+00  0.00000000E+00
  0.00000000E+00  0.00000000E+00  4.02486927E-02  2.37593957E-01  8.15853851E-01
  1.00000000E+00  1.00000000E+00  0.00000000E+00  0.00000000E+00  0.00000000E+00
  0.00000000E+00  0.00000000E+00  0.00000000E+00  0.00000000E+00  4.02486927E-02
  2.37593957E-01  8.15853851E-01  1.00000000E+00  1.00000000E+00  0.00000000E+00
  0.00000000E+00  0.00000000E+00  0.00000000E+00  0.00000000E+00  0.00000000E+00
  0.00000000E+00  4.02486927E-02  2.37593957E-01  8.15853851E-01  1.00000000E+00
  1.00000000E+00  0.00000000E+00  0.00000000E+00  0.00000000E+00  0.00000000E+00
  0.00000000E+00  0.00000000E+00  0.00000000E+00  0.00000000E+00  0.00000000E+00
  0.00000000E+00  0.00000000E+00  0.00000000E+00  0.00000000E+00  0.00000000E+00
  0.00000000E+00  0.00000000E+00  0.00000000E+00  0.00000000E+00  0.00000000E+00
  0.00000000E+00  0.00000000E+00  0.00000000E+00  0.00000000E+00  0.00000000E+00
  0.00000000E+00  3.65113974E-02  2.37152983E-01  8.19701941E-01  1.00000000E+00
  1.00000000E+00  0.00000000E+00  0.00000000E+00  0.00000000E+00  0.00000000E+00
  0.00000000E+00  0.00000000E+00  0.00000000E+00  0.00000000E+00  0.00000000E+00
  0.00000000E+00  0.00000000E+00  0.00000000E+00  0.00000000E+00  3.65113974E-02
  2.37152983E-01  8.19701941E-01  1.00000000E+00  1.00000000E+00  0.00000000E+00
  0.00000000E+00  0.00000000E+00  0.00000000E+00  0.00000000E+00  0.00000000E+00
  0.00000000E+00  4.02486927E-02  2.37593957E-01  8.15853851E-01  1.00000000E+00
  1.00000000E+00  0.00000000E+00  0.00000000E+00  0.00000000E+00  0.00000000E+00
  0.00000000E+00  0.00000000E+00  0.00000000E+00  0.00000000E+00  0.00000000E+00
  0.00000000E+00  0.00000000E+00  0.00000000E+00  0.00000000E+00
Coordinates of each shell                  R   N=         207
  1.40060465E+00 -1.48472723E+00 -7.36697919E-05  1.40060465E+00 -1.48472723E+00
 -7.36697919E-05  1.40060465E+00 -1.48472723E+00 -7.36697919E-05  1.40060465E+00
 -1.48472723E+00 -7.36697919E-05  1.40060465E+00 -1.48472723E+00 -7.36697919E-05
 -1.05300621E+00 -2.18679102E+00 -8.31449968E-04 -1.05300621E+00 -2.18679102E+00
 -8.31449968E-04 -1.05300621E+00 -2.18679102E+00 -8.31449968E-04 -1.05300621E+00
 -2.18679102E+00 -8.31449968E-04 -1.05300621E+00 -2.18679102E+00 -8.31449968E-04
 -3.03685038E+00 -2.91953427E-01 -2.04060894E-04 -3.03685038E+00 -2.91953427E-01
 -2.04060894E-04 -3.03685038E+00 -2.91953427E-01 -2.04060894E-04 -3.03685038E+00
 -2.91953427E-01 -2.04060894E-04 -3.03685038E+00 -2.91953427E-01 -2.04060894E-04
 -2.30284706E+00  2.37068400E+00  2.47583649E-04 -2.30284706E+00  2.37068400E+00
  2.47583649E-04 -2.30284706E+00  2.37068400E+00  2.47583649E-04 -2.30284706E+00
  2.37068400E+00  2.47583649E-04 -2.30284706E+00  2.37068400E+00  2.47583649E-04
  1.37065182E-01  3.09739737E+00  1.34200082E-04  1.37065182E-01  3.09739737E+00
  1.34200082E-04  1.37065182E-01  3.09739737E+00  1.34200082E-04  1.37065182E-01
  3.09739737E+00  1.34200082E-04  1.37065182E-01  3.09739737E+00  1.34200082E-04
  2.15891740E+00  1.22012479E+00  1.36089808E-04  2.15891740E+00  1.22012479E+00
  1.36089808E-04  2.15891740E+00  1.22012479E+00  1.36089808E-04  2.15891740E+00
  1.22012479E+00  1.36089808E-04  2.15891740E+00  1.22012479E+00  1.36089808E-04
 -1.55872503E+00 -4.17135500E+00 -1.25285889E-03 -1.55872503E+00 -4.17135500E+00
 -1.25285889E-03 -1.55872503E+00 -4.17135500E+00 -1.25285889E-03 -1.55872503E+00
 -4.17135500E+00 -1.25285889E-03 -3.80602798E+00  3.76515052E+00  5.21593937E-04
 -3.80602798E+00  3.76515052E+00  5.21593937E-04 -3.80602798E+00  3.76515052E+00
  5.21593937E-04 -3.80602798E+00  3.76515052E+00  5.21593937E-04  7.01580940E-01
  5.06533366E+00  1.39869260E-04  7.01580940E-01  5.06533366E+00  1.39869260E-04
  7.01580940E-01  5.06533366E+00  1.39869260E-04  7.01580940E-01  5.06533366E+00
  1.39869260E-04  4.42840472E+00  1.72564759E+00 -4.87519813E-04  4.42840472E+00
  1.72564759E+00 -4.87519813E-04  4.42840472E+00  1.72564759E+00 -4.87519813E-04
  4.42840472E+00  1.72564759E+00 -4.87519813E-04  4.42840472E+00  1.72564759E+00
 -4.87519813E-04  4.85126352E+00 -2.05096624E+00  1.56876795E-04  4.85126352E+00
 -2.05096624E+00  1.56876795E-04  4.85126352E+00 -2.05096624E+00  1.56876795E-04
  4.85126352E+00 -2.05096624E+00  1.56876795E-04  3.34397085E+00 -3.11610111E+00
  7.78596690E-04  3.34397085E+00 -3.11610111E+00  7.78596690E-04  3.34397085E+00
 -3.11610111E+00  7.78596690E-04  3.34397085E+00 -3.11610111E+00  7.78596690E-04
  3.34397085E+00 -3.11610111E+00  7.78596690E-04 -5.51505226E+00 -9.14739427E-01
  9.47815759E-06 -5.51505226E+00 -9.14739427E-01  9.47815759E-06 -5.51505226E+00
 -9.14739427E-01  9.47815759E-06 -5.51505226E+00 -9.14739427E-01  9.47815759E-06
 -5.51505226E+00 -9.14739427E-01  9.47815759E-06 -6.12847035E+00 -2.86840829E+00
  3.32621325E-04 -6.12847035E+00 -2.86840829E+00  3.32621325E-04 -6.12847035E+00
 -2.86840829E+00  3.32621325E-04 -6.12847035E+00 -2.86840829E+00  3.32621325E-04
 -6.97161365E+00  5.23903227E-01  1.26425630E-03 -6.97161365E+00  5.23903227E-01
  1.26425630E-03 -6.97161365E+00  5.23903227E-01  1.26425630E-03 -6.97161365E+00
  5.23903227E-01  1.26425630E-03
Num ILSW                                   I              100
ILSW                                       I   N=         100
           0           0           0           0           2           0
           0           0           0           0         402          -1
           5           0           0           0           0           0
           0           0           1           0           0           0
           1           0           0           0           0           0
           0           0      100000           0          -1           0
           0           0           0           0           0           0
           0           0           0           1           0           0
           0 -2000000000           1           0           0           0
           0           0           4          52           0           0
           0           0           5           0           0           0
           0           0           0           0           0           1
           0           0           0           0           0           0
           0           0           0           0           0           0
           0           0           0           0           0           0
           0           0           0           0           0           0
           0           0           0           0
Num RLSW                                   I               52
RLSW                                       R   N=          52
  8.00000000E-01  7.20000000E-01  1.00000000E+00  8.10000000E-01  2.00000000E-01
  0.00000000E+00  0.00000000E+00  1.00000000E+00  0.00000000E+00  0.00000000E+00
  0.00000000E+00  0.00000000E+00  1.00000000E+00  0.00000000E+00  0.00000000E+00
  0.00000000E+00  0.00000000E+00  1.00000000E+00  0.00000000E+00  0.00000000E+00
  0.00000000E+00  0.00000000E+00  1.00000000E+00  0.00000000E+00  0.00000000E+00
  0.00000000E+00  0.00000000E+00  1.00000000E+00  0.00000000E+00  0.00000000E+00
  0.00000000E+00  0.00000000E+00  1.00000000E+00  0.00000000E+00  0.00000000E+00
  0.00000000E+00  0.00000000E+00  0.00000000E+00  1.00000000E+00  1.00000000E+00
  0.00000000E+00  1.00000000E+00  0.00000000E+00  0.00000000E+00  0.00000000E+00
  0.00000000E+00  0.00000000E+00  0.00000000E+00  0.00000000E+00  0.00000000E+00
  0.00000000E+00  0.00000000E+00
MxBond                                     I                3
NBond                                      I   N=          15
           3           3           3           3           3           3
           1           1           1           1           1           2
           3           1           1
IBond                                      I   N=          45
           2           6          12           1           3           7
           2           4          13           3           5           8
           4           6           9           1           5          10
           2           0           0           4           0           0
           5           0           0           6           0           0
          12           0           0           1          11           0
           3          14          15          13           0           0
          13           0           0
RBond                                      R   N=          45
  2.00000000E+00  1.00000000E+00  1.50000000E+00  2.00000000E+00  1.00000000E+00
  1.00000000E+00  1.00000000E+00  1.00000000E+00  2.00000000E+00  1.00000000E+00
  2.00000000E+00  1.00000000E+00  2.00000000E+00  1.00000000E+00  1.00000000E+00
  1.00000000E+00  1.00000000E+00  2.00000000E+00  1.00000000E+00  0.00000000E+00
  0.00000000E+00  1.00000000E+00  0.00000000E+00  0.00000000E+00  1.00000000E+00
  0.00000000E+00  0.00000000E+00  2.00000000E+00  0.00000000E+00  0.00000000E+00
  1.00000000E+00  0.00000000E+00  0.00000000E+00  1.50000000E+00  1.00000000E+00
  0.00000000E+00  2.00000000E+00  1.00000000E+00  1.00000000E+00  1.00000000E+00
  0.00000000E+00  0.00000000E+00  1.00000000E+00  0.00000000E+00  0.00000000E+00
Virial Ratio                               R      2.003594969132701E+00
SCF Energy                                 R     -4.208841290454071E+02
Total Energy                               R     -4.208841290454071E+02
RMS Density                                R      5.074492684226396E-09
Job Status                                 I                1
Nuclear derivative order                   I                0
External E-field                           R   N=          35
  0.00000000E+00  0.00000000E+00  0.00000000E+00  0.00000000E+00  0.00000000E+00
  0.00000000E+00  0.00000000E+00  0.00000000E+00  0.00000000E+00  0.00000000E+00
  0.00000000E+00  0.00000000E+00  0.00000000E+00  0.00000000E+00  0.00000000E+00
  0.00000000E+00  0.00000000E+00  0.00000000E+00  0.00000000E+00  0.00000000E+00
  0.00000000E+00  0.00000000E+00  0.00000000E+00  0.00000000E+00  0.00000000E+00
  0.00000000E+00  0.00000000E+00  0.00000000E+00  0.00000000E+00  0.00000000E+00
  0.00000000E+00  0.00000000E+00  0.00000000E+00  0.00000000E+00  0.00000000E+00
IOpCl                                      I                0
IROHF                                      I                0
Alpha Orbital Energies                     R   N=         198
 -1.91523114E+01 -1.91186908E+01 -1.02670933E+01 -1.02461382E+01 -1.02139584E+01
 -1.02105703E+01 -1.02018082E+01 -1.01949895E+01 -1.01864610E+01 -1.08534771E+00
 -1.04007693E+00 -8.73645129E-01 -7.86042226E-01 -7.70273074E-01 -6.70406108E-01
 -6.26699714E-01 -6.13651215E-01 -5.47399372E-01 -5.17196973E-01 -4.99101777E-01
 -4.72617815E-01 -4.46210364E-01 -4.42285182E-01 -4.35589308E-01 -4.16574740E-01
 -3.91024721E-01 -3.78521759E-01 -3.67497135E-01 -3.66431476E-01 -2.77223490E-01
 -2.77147702E-01 -2.36867885E-01 -1.04456995E-01 -7.97123801E-03  2.31174493E-02
  4.09979840E-02  5.99013222E-02  7.08638536E-02  8.06610858E-02  1.07796803E-01
  1.28398352E-01  1.45029984E-01  1.81465728E-01  2.05191757E-01  2.51923675E-01
  2.62994328E-01  2.74123756E-01  2.86232333E-01  3.21063014E-01  3.46303950E-01
  3.58031239E-01  3.62046141E-01  3.78263309E-01  3.85711547E-01  3.89844049E-01
  4.08069885E-01  4.10176536E-01  4.27715418E-01  4.35433217E-01  4.68483219E-01
  4.87477877E-01  4.91411708E-01  5.07997183E-01  5.14337428E-01  5.48865455E-01
  5.66978782E-01  5.70714924E-01  5.95194662E-01  6.09150776E-01  6.16705297E-01
  6.17442034E-01  6.39913191E-01  6.76442480E-01  7.15098687E-01  7.29572173E-01
  7.49585099E-01  7.65165388E-01  7.78475520E-01  8.05498526E-01  8.24418545E-01
  8.36267592E-01  8.70435771E-01  8.94464617E-01  9.13411209E-01  9.21484213E-01
  9.45216274E-01  9.46717126E-01  9.74730203E-01  9.90600097E-01  9.90776073E-01
  1.02991464E+00  1.04793102E+00  1.07463676E+00  1.10767577E+00  1.11282106E+00
  1.17002716E+00  1.20457193E+00  1.20659891E+00  1.33050646E+00  1.36864279E+00
  1.37362674E+00  1.38911451E+00  1.41316329E+00  1.44664072E+00  1.47493791E+00
  1.47816456E+00  1.52283600E+00  1.52542783E+00  1.55061884E+00  1.57496473E+00
  1.58624661E+00  1.62134300E+00  1.62380796E+00  1.64595410E+00  1.65230566E+00
  1.68962134E+00  1.74464166E+00  1.75662293E+00  1.77847496E+00  1.78275598E+00
  1.80453213E+00  1.85629317E+00  1.88420145E+00  1.89619771E+00  1.90673725E+00
  1.91646727E+00  1.96363067E+00  2.01817080E+00  2.05252029E+00  2.05709494E+00
  2.07011127E+00  2.08752905E+00  2.14755624E+00  2.20693363E+00  2.22429139E+00
  2.24953837E+00  2.28654123E+00  2.30584374E+00  2.37055981E+00  2.43568883E+00
  2.48816480E+00  2.49189278E+00  2.52645108E+00  2.55214189E+00  2.57051962E+00
  2.59984911E+00  2.61185626E+00  2.63036079E+00  2.64777359E+00  2.65381749E+00
  2.65733132E+00  2.68011766E+00  2.71850901E+00  2.79992641E+00  2.82179188E+00
  2.86139838E+00  2.90874786E+00  2.93801567E+00  2.96362334E+00  2.99556711E+00
  3.04197137E+00  3.09600081E+00  3.09874662E+00  3.14543346E+00  3.16016338E+00
  3.21842628E+00  3.30036774E+00  3.31910680E+00  3.37578484E+00  3.43262218E+00
  3.46428021E+00  3.52327619E+00  3.56467941E+00  3.58596563E+00  3.63623424E+00
  3.74164760E+00  3.82584898E+00  3.97029648E+00  3.99176147E+00  4.05367009E+00
  4.08779492E+00  4.31657101E+00  4.72401607E+00  4.78481231E+00  4.89998936E+00
  5.05871145E+00  5.34567637E+00  5.62197633E+00  5.70297111E+00  2.34967889E+01
  2.37315727E+01  2.37706124E+01  2.38535544E+01  2.41467086E+01  2.41544197E+01
  2.42039787E+01  4.98935400E+01  4.99736104E+01
Alpha MO coefficients                      R   N=       39204
  2.00034582E-05 -9.89331956E-05  2.29120835E-04 -2.15865495E-04  9.53061221E-08
  1.07817640E-03 -3.47428035E-04  2.89884706E-04 -9.53448038E-08  7.15157277E-05
  7.41345571E-03 -6.32143289E-03  2.24450798E-06 -1.64857665E-05  1.35195301E-08
  1.50837242E-07 -4.14611094E-05  4.47831985E-04 -8.40811156E-06  3.55344528E-05
  9.88132058E-07 -6.38775836E-05 -1.38510213E-08 -2.83566882E-04 -1.31012589E-04
  2.13464073E-04  5.33219247E-09  5.12755307E-03 -1.03765333E-03  3.89942410E-03
  4.06957271E-07 -3.74685471E-05 -1.84582853E-07  6.99777422E-08 -2.45596092E-04
  3.72800751E-05 -2.99525231E-06  1.49773058E-05  8.66968826E-05 -3.53432993E-06
 -1.10734354E-08 -4.25792903E-05 -4.61125832E-04  3.50203456E-05  1.99680598E-08
 -4.40355132E-03  1.30145415E-03  2.15891674E-03  9.41241206E-07 -6.20203233E-06