 Generated by Multiwfn (http://sobereva.com/multiwfn)
GAUSSIAN             37 MOL ORBITALS    316 PRIMITIVES       19 NUCLEI
  C    1    (CENTRE  1)  -3.57990860 -0.06660204  0.14220738  CHARGE =  6.0
  C    2    (CENTRE  2)  -1.75489401 -2.03222500  0.02967419  CHARGE =  6.0
  C    3    (CENTRE  3)   0.73761123 -1.57247889 -0.42865432  CHARGE =  6.0
  C    4    (CENTRE  4)   1.72702991  1.06762359 -0.91479203  CHARGE =  6.0
  C    5    (CENTRE  5)  -0.28233880  3.05423005 -0.65065556  CHARGE =  6.0
  C    6    (CENTRE  6)  -2.74839919  2.45522057 -0.19080961  CHARGE =  6.0
  H    7    (CENTRE  7)   0.28346196  5.00681988 -0.91551391  CHARGE =  1.0
  O    8    (CENTRE  8)   5.75694848  0.10309278  1.02180686  CHARGE =  8.0
  O    9    (CENTRE  9)   2.41395728 -3.49905257 -0.58204717  CHARGE =  8.0
  H   10    (CENTRE 10)  -2.31767688 -3.98291943  0.31795947  CHARGE =  1.0
  C   11    (CENTRE 11)   4.06085106  1.60685913  0.72798090  CHARGE =  6.0
  H   12    (CENTRE 12)   4.12555693  3.48608217  1.64979309  CHARGE =  1.0
  H   13    (CENTRE 13)   4.09840615 -2.82379841 -0.28036562  CHARGE =  1.0
  H   14    (CENTRE 14)   2.52005915  1.08317425 -2.86146694  CHARGE =  1.0
  H   15    (CENTRE 15)  -4.12851740  3.96838079 -0.06434914  CHARGE =  1.0
  C   16    (CENTRE 16)  -6.30403944 -0.68027016  0.65885472  CHARGE =  6.0
  H   17    (CENTRE 17)  -7.06856577 -1.98429656 -0.75763107  CHARGE =  1.0
  H   18    (CENTRE 18)  -6.54009635 -1.59829914  2.50175154  CHARGE =  1.0
  H   19    (CENTRE 19)  -7.47534671  1.01839128  0.64891098  CHARGE =  1.0
CENTRE ASSIGNMENTS    1  1  1  1  1  1  1  1  1  1  1  1  1  1  1  1  1  1  1  1
CENTRE ASSIGNMENTS    1  1  1  1  1  1  1  1  2  2  2  2  2  2  2  2  2  2  2  2
CENTRE ASSIGNMENTS    2  2  2  2  2  2  2  2  2  2  2  2  2  2  2  2  3  3  3  3
CENTRE ASSIGNMENTS    3  3  3  3  3  3  3  3  3  3  3  3  3  3  3  3  3  3  3  3
CENTRE ASSIGNMENTS    3  3  3  3  4  4  4  4  4  4  4  4  4  4  4  4  4  4  4  4
CENTRE ASSIGNMENTS    4  4  4  4  4  4  4  4  4  4  4  4  5  5  5  5  5  5  5  5
CENTRE ASSIGNMENTS    5  5  5  5  5  5  5  5  5  5  5  5  5  5  5  5  5  5  5  5
CENTRE ASSIGNMENTS    6  6  6  6  6  6  6  6  6  6  6  6  6  6  6  6  6  6  6  6
CENTRE ASSIGNMENTS    6  6  6  6  6  6  6  6  7  7  7  7  8  8  8  8  8  8  8  8
CENTRE ASSIGNMENTS    8  8  8  8  8  8  8  8  8  8  8  8  8  8  8  8  8  8  8  8
CENTRE ASSIGNMENTS    9  9  9  9  9  9  9  9  9  9  9  9  9  9  9  9  9  9  9  9
CENTRE ASSIGNMENTS    9  9  9  9  9  9  9  9 10 10 10 10 11 11 11 11 11 11 11 11
CENTRE ASSIGNMENTS   11 11 11 11 11 11 11 11 11 11 11 11 11 11 11 11 11 11 11 11
CENTRE ASSIGNMENTS   12 12 12 12 13 13 13 13 14 14 14 14 15 15 15 15 16 16 16 16
CENTRE ASSIGNMENTS   16 16 16 16 16 16 16 16 16 16 16 16 16 16 16 16 16 16 16 16
CENTRE ASSIGNMENTS   16 16 16 16 17 17 17 17 18 18 18 18 19 19 19 19
TYPE ASSIGNMENTS      1  1  1  1  1  1  1  1  1  2  2  2  3  3  3  4  4  4  1  2
TYPE ASSIGNMENTS      3  4  5  6  7  8  9 10  1  1  1  1  1  1  1  1  1  2  2  2
TYPE ASSIGNMENTS      3  3  3  4  4  4  1  2  3  4  5  6  7  8  9 10  1  1  1  1
TYPE ASSIGNMENTS      1  1  1  1  1  2  2  2  3  3  3  4  4  4  1  2  3  4  5  6
TYPE ASSIGNMENTS      7  8  9 10  1  1  1  1  1  1  1  1  1  2  2  2  3  3  3  4
TYPE ASSIGNMENTS      4  4  1  2  3  4  5  6  7  8  9 10  1  1  1  1  1  1  1  1
TYPE ASSIGNMENTS      1  2  2  2  3  3  3  4  4  4  1  2  3  4  5  6  7  8  9 10
TYPE ASSIGNMENTS      1  1  1  1  1  1  1  1  1  2  2  2  3  3  3  4  4  4  1  2
TYPE ASSIGNMENTS      3  4  5  6  7  8  9 10  1  1  1  1  1  1  1  1  1  1  1  1
TYPE ASSIGNMENTS      1  2  2  2  3  3  3  4  4  4  1  2  3  4  5  6  7  8  9 10
TYPE ASSIGNMENTS      1  1  1  1  1  1  1  1  1  2  2  2  3  3  3  4  4  4  1  2
TYPE ASSIGNMENTS      3  4  5  6  7  8  9 10  1  1  1  1  1  1  1  1  1  1  1  1
TYPE ASSIGNMENTS      1  2  2  2  3  3  3  4  4  4  1  2  3  4  5  6  7  8  9 10
TYPE ASSIGNMENTS      1  1  1  1  1  1  1  1  1  1  1  1  1  1  1  1  1  1  1  1
TYPE ASSIGNMENTS      1  1  1  1  1  2  2  2  3  3  3  4  4  4  1  2  3  4  5  6
TYPE ASSIGNMENTS      7  8  9 10  1  1  1  1  1  1  1  1  1  1  1  1
EXPONENTS  0.3047525D+04 0.4573695D+03 0.1039487D+03 0.2921016D+02 0.9286663D+01
EXPONENTS  0.3163927D+01 0.7868272D+01 0.1881289D+01 0.5442493D+00 0.7868272D+01
EXPONENTS  0.1881289D+01 0.5442493D+00 0.7868272D+01 0.1881289D+01 0.5442493D+00
EXPONENTS  0.7868272D+01 0.1881289D+01 0.5442493D+00 0.1687145D+00 0.1687145D+00
EXPONENTS  0.1687145D+00 0.1687145D+00 0.8000000D+00 0.8000000D+00 0.8000000D+00
EXPONENTS  0.8000000D+00 0.8000000D+00 0.8000000D+00 0.3047525D+04 0.4573695D+03
EXPONENTS  0.1039487D+03 0.2921016D+02 0.9286663D+01 0.3163927D+01 0.7868272D+01
EXPONENTS  0.1881289D+01 0.5442493D+00 0.7868272D+01 0.1881289D+01 0.5442493D+00
EXPONENTS  0.7868272D+01 0.1881289D+01 0.5442493D+00 0.7868272D+01 0.1881289D+01
EXPONENTS  0.5442493D+00 0.1687145D+00 0.1687145D+00 0.1687145D+00 0.1687145D+00
EXPONENTS  0.8000000D+00 0.8000000D+00 0.8000000D+00 0.8000000D+00 0.8000000D+00
EXPONENTS  0.8000000D+00 0.3047525D+04 0.4573695D+03 0.1039487D+03 0.2921016D+02
EXPONENTS  0.9286663D+01 0.3163927D+01 0.7868272D+01 0.1881289D+01 0.5442493D+00
EXPONENTS  0.7868272D+01 0.1881289D+01 0.5442493D+00 0.7868272D+01 0.1881289D+01
EXPONENTS  0.5442493D+00 0.7868272D+01 0.1881289D+01 0.5442493D+00 0.1687145D+00
EXPONENTS  0.1687145D+00 0.1687145D+00 0.1687145D+00 0.8000000D+00 0.8000000D+00
EXPONENTS  0.8000000D+00 0.8000000D+00 0.8000000D+00 0.8000000D+00 0.3047525D+04
EXPONENTS  0.4573695D+03 0.1039487D+03 0.2921016D+02 0.9286663D+01 0.3163927D+01
EXPONENTS  0.7868272D+01 0.1881289D+01 0.5442493D+00 0.7868272D+01 0.1881289D+01
EXPONENTS  0.5442493D+00 0.7868272D+01 0.1881289D+01 0.5442493D+00 0.7868272D+01
EXPONENTS  0.1881289D+01 0.5442493D+00 0.1687145D+00 0.1687145D+00 0.1687145D+00
EXPONENTS  0.1687145D+00 0.8000000D+00 0.8000000D+00 0.8000000D+00 0.8000000D+00
EXPONENTS  0.8000000D+00 0.8000000D+00 0.3047525D+04 0.4573695D+03 0.1039487D+03
EXPONENTS  0.2921016D+02 0.9286663D+01 0.3163927D+01 0.7868272D+01 0.1881289D+01
EXPONENTS  0.5442493D+00 0.7868272D+01 0.1881289D+01 0.5442493D+00 0.7868272D+01
EXPONENTS  0.1881289D+01 0.5442493D+00 0.7868272D+01 0.1881289D+01 0.5442493D+00
EXPONENTS  0.1687145D+00 0.1687145D+00 0.1687145D+00 0.1687145D+00 0.8000000D+00
EXPONENTS  0.8000000D+00 0.8000000D+00 0.8000000D+00 0.8000000D+00 0.8000000D+00
EXPONENTS  0.3047525D+04 0.4573695D+03 0.1039487D+03 0.2921016D+02 0.9286663D+01
EXPONENTS  0.3163927D+01 0.7868272D+01 0.1881289D+01 0.5442493D+00 0.7868272D+01
EXPONENTS  0.1881289D+01 0.5442493D+00 0.7868272D+01 0.1881289D+01 0.5442493D+00
EXPONENTS  0.7868272D+01 0.1881289D+01 0.5442493D+00 0.1687145D+00 0.1687145D+00
EXPONENTS  0.1687145D+00 0.1687145D+00 0.8000000D+00 0.8000000D+00 0.8000000D+00
EXPONENTS  0.8000000D+00 0.8000000D+00 0.8000000D+00 0.1873114D+02 0.2825394D+01
EXPONENTS  0.6401217D+00 0.1612778D+00 0.5484672D+04 0.8252349D+03 0.1880470D+03
EXPONENTS  0.5296450D+02 0.1689757D+02 0.5799635D+01 0.1553962D+02 0.3599934D+01
EXPONENTS  0.1013762D+01 0.1553962D+02 0.3599934D+01 0.1013762D+01 0.1553962D+02
EXPONENTS  0.3599934D+01 0.1013762D+01 0.1553962D+02 0.3599934D+01 0.1013762D+01
EXPONENTS  0.2700058D+00 0.2700058D+00 0.2700058D+00 0.2700058D+00 0.8000000D+00
EXPONENTS  0.8000000D+00 0.8000000D+00 0.8000000D+00 0.8000000D+00 0.8000000D+00
EXPONENTS  0.5484672D+04 0.8252349D+03 0.1880470D+03 0.5296450D+02 0.1689757D+02
EXPONENTS  0.5799635D+01 0.1553962D+02 0.3599934D+01 0.1013762D+01 0.1553962D+02
EXPONENTS  0.3599934D+01 0.1013762D+01 0.1553962D+02 0.3599934D+01 0.1013762D+01
EXPONENTS  0.1553962D+02 0.3599934D+01 0.1013762D+01 0.2700058D+00 0.2700058D+00
EXPONENTS  0.2700058D+00 0.2700058D+00 0.8000000D+00 0.8000000D+00 0.8000000D+00
EXPONENTS  0.8000000D+00 0.8000000D+00 0.8000000D+00 0.1873114D+02 0.2825394D+01
EXPONENTS  0.6401217D+00 0.1612778D+00 0.3047525D+04 0.4573695D+03 0.1039487D+03
EXPONENTS  0.2921016D+02 0.9286663D+01 0.3163927D+01 0.7868272D+01 0.1881289D+01
EXPONENTS  0.5442493D+00 0.7868272D+01 0.1881289D+01 0.5442493D+00 0.7868272D+01
EXPONENTS  0.1881289D+01 0.5442493D+00 0.7868272D+01 0.1881289D+01 0.5442493D+00
EXPONENTS  0.1687145D+00 0.1687145D+00 0.1687145D+00 0.1687145D+00 0.8000000D+00
EXPONENTS  0.8000000D+00 0.8000000D+00 0.8000000D+00 0.8000000D+00 0.8000000D+00
EXPONENTS  0.1873114D+02 0.2825394D+01 0.6401217D+00 0.1612778D+00 0.1873114D+02
EXPONENTS  0.2825394D+01 0.6401217D+00 0.1612778D+00 0.1873114D+02 0.2825394D+01
EXPONENTS  0.6401217D+00 0.1612778D+00 0.1873114D+02 0.2825394D+01 0.6401217D+00
EXPONENTS  0.1612778D+00 0.3047525D+04 0.4573695D+03 0.1039487D+03 0.2921016D+02
EXPONENTS  0.9286663D+01 0.3163927D+01 0.7868272D+01 0.1881289D+01 0.5442493D+00
EXPONENTS  0.7868272D+01 0.1881289D+01 0.5442493D+00 0.7868272D+01 0.1881289D+01
EXPONENTS  0.5442493D+00 0.7868272D+01 0.1881289D+01 0.5442493D+00 0.1687145D+00
EXPONENTS  0.1687145D+00 0.1687145D+00 0.1687145D+00 0.8000000D+00 0.8000000D+00
EXPONENTS  0.8000000D+00 0.8000000D+00 0.8000000D+00 0.8000000D+00 0.1873114D+02
EXPONENTS  0.2825394D+01 0.6401217D+00 0.1612778D+00 0.1873114D+02 0.2825394D+01
EXPONENTS  0.6401217D+00 0.1612778D+00 0.1873114D+02 0.2825394D+01 0.6401217D+00
EXPONENTS  0.1612778D+00
MO    1     MO 0.0        OCC NO =    2.0000000  ORB. ENERGY =  -19.004541
 -0.20642018D-05 -0.38080493D-05 -0.61473724D-05 -0.80020522D-05 -0.68281657D-05
 -0.23576015D-05  0.91873246D-05  0.42344295D-05 -0.11873782D-04 -0.23025947D-04
 -0.17654835D-04 -0.88110002D-05 -0.15559818D-05 -0.11930282D-05 -0.59540467D-06
  0.95695316D-05  0.73373098D-05  0.36618318D-05  0.16317417D-04  0.51593968D-04
 -0.41684770D-05 -0.12281385D-04  0.39830950D-05  0.56874857D-06 -0.70096149D-05
 -0.14832668D-04 -0.22374577D-05 -0.16951999D-04  0.43676119D-05  0.80573911D-05
  0.13007128D-04  0.16931415D-04  0.14447607D-04  0.49884116D-05 -0.22225920D-04
 -0.10243906D-04  0.28724982D-04 -0.19178716D-04 -0.14705023D-04 -0.73388372D-05
 -0.66582238D-05 -0.51051037D-05 -0.25478045D-05  0.98053687D-05  0.75181348D-05
  0.37520762D-05 -0.16323086D-03 -0.55560168D-04 -0.14253208D-04  0.24877815D-05
 -0.33736476D-04  0.94537363D-06  0.17508997D-04  0.59025113D-05 -0.71310472D-06
 -0.15088118D-05 -0.30408994D-05 -0.56098656D-05 -0.90560625D-05 -0.11788303D-04
 -0.10058980D-04 -0.34731240D-05  0.32416985D-04  0.14940959D-04 -0.41896008D-04
  0.55942726D-04  0.42893334D-04  0.21406780D-04 -0.36932279D-04 -0.28317329D-04
 -0.14132332D-04 -0.21090970D-04 -0.16171218D-04 -0.80705710D-05  0.11057810D-03
 -0.64643560D-04 -0.77086683D-04  0.42164316D-04  0.82347677D-04  0.30052617D-04
 -0.13968383D-04 -0.49503461D-04  0.37544910D-04  0.28548080D-04 -0.78841678D-05
 -0.14544750D-04 -0.23479736D-04 -0.30563640D-04 -0.26080010D-04 -0.90048006D-05
  0.24678743D-04  0.11374410D-04 -0.31895034D-04 -0.20866684D-04 -0.15999249D-04
 -0.79847468D-05  0.31425785D-04  0.24095299D-04  0.12025243D-04  0.22916768D-04
  0.17571124D-04  0.87692223D-05  0.15850009D-03  0.69598355D-04 -0.74083166D-04
  0.78515042D-05 -0.25264618D-04 -0.38705237D-05 -0.28084171D-05  0.39225009D-04
  0.16345706D-04  0.62560632D-05  0.10711316D-04  0.19760287D-04  0.31899230D-04
  0.41523319D-04  0.35431924D-04  0.12233792D-04 -0.28700650D-04 -0.13228103D-04
  0.37092982D-04  0.85926011D-04  0.65882615D-04  0.32880042D-04 -0.69075721D-05
 -0.52962881D-05 -0.26432190D-05  0.32391429D-04  0.24835693D-04  0.12394752D-04
  0.52549831D-04 -0.12127066D-03 -0.29790705D-04 -0.21067512D-04  0.40641723D-04
  0.36254314D-04  0.52344292D-04  0.47768953D-04 -0.86919052D-04  0.37547188D-04
  0.17947920D-05  0.33110408D-05  0.53450465D-05  0.69576624D-05  0.59369859D-05
  0.20498986D-05 -0.11143135D-04 -0.51358605D-05  0.14401489D-04 -0.24574239D-04
 -0.18841968D-04 -0.94034623D-05  0.98820656D-05  0.75769411D-05  0.37814247D-05
 -0.13145641D-04 -0.10079244D-04 -0.50302490D-05 -0.13348179D-03 -0.58848860D-04
 -0.11383714D-04  0.29327606D-04 -0.23004131D-04  0.26388601D-07  0.14092144D-05
 -0.87070695D-05  0.37913885D-04  0.14200244D-05  0.15415188D-04  0.26147077D-04
  0.29767523D-04  0.18386545D-04  0.82564908D+00  0.15196351D+01  0.24590564D+01
  0.32324984D+01  0.27724951D+01  0.94796316D+00 -0.15805782D-01 -0.70525094D-02
  0.20826155D-01 -0.25421566D-02 -0.19585946D-02 -0.85992852D-03  0.22902251D-02
  0.17644950D-02  0.77470833D-03 -0.40457991D-03 -0.31170701D-03 -0.13685617D-03
  0.38954709D-02 -0.39741802D-03  0.22674201D-03 -0.10956047D-03 -0.88768795D-02
 -0.89779857D-02 -0.92438741D-02 -0.53157098D-03  0.19429642D-03 -0.69701591D-04
 -0.17842418D-04 -0.32839573D-04 -0.53140628D-04 -0.69854844D-04 -0.59914093D-04
 -0.20485646D-04  0.55353857D-04  0.24698783D-04 -0.72935837D-04 -0.14355351D-03
 -0.11060024D-03 -0.48559463D-04  0.67196655D-04  0.51771400D-04  0.22730433D-04
  0.55597177D-04  0.42834628D-04  0.18806709D-04  0.13260933D-03  0.15740189D-03
 -0.33212196D-05 -0.99835343D-05 -0.45546851D-05 -0.93588360D-04 -0.64953311D-04
  0.14042860D-03  0.49632331D-04 -0.28378559D-04  0.26879251D-05  0.45592296D-05
  0.51905218D-05 -0.82981305D-06  0.83963931D-05  0.15489706D-04  0.25005188D-04
  0.32549325D-04  0.27774398D-04  0.95898321D-05 -0.20484859D-03 -0.94414526D-04
  0.26474819D-03 -0.17929924D-04 -0.13747529D-04 -0.68609803D-05  0.15705100D-04
  0.12041674D-04  0.60096394D-05 -0.94562973D-05 -0.72504890D-05 -0.36185022D-05
 -0.68772191D-03 -0.29794817D-03  0.36773088D-03  0.11580207D-05 -0.50136833D-03
 -0.46667008D-03 -0.53420290D-04  0.90666669D-03 -0.17039799D-03  0.11124861D-03
 -0.83029535D-05 -0.14083381D-04 -0.16033431D-04 -0.77364298D-04 -0.31090026D-04
 -0.52734568D-04 -0.60036442D-04 -0.16692615D-03 -0.13768585D-04 -0.23354126D-04
 -0.26587848D-04  0.68588958D-05  0.19623423D-05  0.33285040D-05  0.37893842D-05
 -0.52228191D-05  0.85853973D-06  0.15838382D-05  0.25568059D-05  0.33282016D-05
  0.28399604D-05  0.98057009D-06 -0.11206491D-05 -0.51650615D-06  0.14483372D-05
  0.19728007D-04  0.15126185D-04  0.75490263D-05  0.36936711D-06  0.28320727D-06
  0.14134028D-06  0.11202149D-05  0.85890976D-06  0.42865617D-06  0.28099126D-04
  0.39428023D-05  0.83055501D-05 -0.30981691D-05  0.51271630D-05  0.45516369D-05
  0.61818993D-05  0.59298487D-05  0.33858343D-05 -0.27797248D-05  0.46611252D-06
  0.79061505D-06  0.90008729D-06 -0.18908777D-05 -0.46157120D-06 -0.78291212D-06
 -0.89131778D-06  0.33318098D-05 -0.64754527D-06 -0.10983593D-05 -0.12504433D-05
 -0.75974191D-05
MO    2     MO 0.0        OCC NO =    2.0000000  ORB. ENERGY =  -18.982247
  0.51942227D-05  0.95823267D-05  0.15468846D-04  0.20135842D-04  0.17181950D-04
  0.59325145D-05 -0.95433352D-05 -0.43985145D-05  0.12333894D-04  0.90605793D-04
  0.69470775D-04  0.34670786D-04 -0.37504459D-04 -0.28756040D-04 -0.14351279D-04
 -0.10060722D-04 -0.77139234D-05 -0.38497884D-05  0.12560658D-03 -0.32733946D-04
  0.23320102D-04  0.59313298D-05  0.21451513D-04  0.33934457D-04  0.36633983D-04
  0.17869163D-05  0.68311086D-05 -0.17456323D-05  0.23462508D-05  0.43283746D-05
  0.69873386D-05  0.90954387D-05  0.77611543D-05  0.26797401D-05 -0.46330599D-04
 -0.21353731D-04  0.59878089D-04  0.30698636D-04  0.23537767D-04  0.11746996D-04
  0.20869557D-04  0.16001453D-04  0.79858464D-05 -0.62957780D-05 -0.48272033D-05
 -0.24091128D-05 -0.65620400D-04 -0.33970075D-04 -0.16968956D-03  0.14856726D-04
 -0.86998773D-04 -0.58424851D-04  0.18616825D-04 -0.15161595D-04  0.28598077D-04
  0.56576044D-05 -0.16476084D-04 -0.30395158D-04 -0.49067210D-04 -0.63870928D-04
 -0.54501179D-04 -0.18817947D-04 -0.91273923D-04 -0.42068067D-04  0.11796325D-03
  0.30971320D-03  0.23746844D-03  0.11851339D-03 -0.47967579D-03 -0.36778497D-03
 -0.18355048D-03 -0.32581917D-04 -0.24981748D-04 -0.12467643D-04 -0.21300622D-03
 -0.28615977D-03  0.47389796D-03  0.25902862D-04 -0.53223047D-04 -0.42436765D-05
 -0.66866272D-04  0.51861175D-04 -0.26061857D-05  0.27590958D-05  0.20211430D-04
  0.37286141D-04  0.60191393D-04  0.78351309D-04  0.66857314D-04  0.23084224D-04
 -0.99498942D-04 -0.45858971D-04  0.12859334D-03  0.66684308D-05  0.51129298D-05
  0.25517103D-05  0.58396436D-04  0.44774683D-04  0.22345705D-04  0.22482975D-04
  0.17238520D-04  0.86032294D-05 -0.35551558D-03  0.13626393D-03  0.76679109D-05
 -0.64502442D-04 -0.27905351D-04 -0.14237871D-04  0.68295174D-04 -0.46205067D-04
  0.31636770D-04  0.40818536D-04  0.23962506D-05  0.44206145D-05  0.71362424D-05
  0.92892672D-05  0.79265486D-05  0.27368467D-05 -0.17445537D-05 -0.80406318D-06
  0.22546771D-05  0.21903061D-04  0.16793878D-04  0.83813221D-05 -0.70921444D-04
 -0.54378065D-04 -0.27138466D-04  0.36405659D-05  0.27913550D-05  0.13930818D-05
  0.10600965D-03  0.57846666D-04 -0.23906136D-04 -0.24266820D-05  0.32674370D-04
  0.47462146D-05  0.23280501D-04 -0.42338674D-04  0.15871747D-04  0.21263621D-05
  0.49720886D-05  0.91725325D-05  0.14807312D-04  0.19274720D-04  0.16447153D-04
  0.56788069D-05 -0.17260269D-04 -0.79552421D-05  0.22307329D-04  0.25234153D-04
  0.19347948D-04  0.96559820D-05 -0.38086335D-04 -0.29202186D-04 -0.14573937D-04
  0.32901209D-05  0.25226560D-05  0.12589822D-05 -0.28865473D-04  0.10113417D-04
  0.46310657D-04 -0.84015590D-05 -0.48791335D-06  0.17557222D-05  0.30463309D-04
 -0.40814345D-04  0.10621633D-04  0.12962473D-04 -0.35077771D-05 -0.59498539D-05
 -0.67736983D-05 -0.16626785D-04 -0.47207508D-05 -0.86887015D-05 -0.14059959D-04
 -0.18482210D-04 -0.15852084D-04 -0.54200967D-05  0.17552171D-04  0.78317444D-05
 -0.23127246D-04 -0.25939753D-04 -0.19985181D-04 -0.87745711D-05  0.50622475D-04
  0.39001888D-04  0.17123930D-04  0.41465565D-04  0.31946982D-04  0.14026446D-04
  0.78639520D-05  0.29960215D-04 -0.72946928D-04 -0.20713638D-04 -0.74804591D-04
 -0.73201538D-05 -0.18407171D-04  0.93669237D-04 -0.72656336D-05  0.32958208D-04
  0.82562050D+00  0.15195825D+01  0.24589713D+01  0.32323866D+01  0.27723992D+01
  0.94793036D+00 -0.15811329D-01 -0.70549842D-02  0.20833463D-01  0.84248098D-03
  0.64908618D-03  0.28498379D-03  0.26935274D-02  0.20752177D-02  0.91113234D-03
  0.48162644D-03  0.37106721D-03  0.16291849D-03  0.38251267D-02 -0.20601942D-03
  0.22431608D-03  0.29031238D-04 -0.92072556D-02 -0.92549476D-02 -0.92510025D-02
 -0.10652767D-03 -0.14994826D-04  0.11293413D-05 -0.24644314D-05 -0.41801422D-05
 -0.47589441D-05 -0.10034548D-03  0.16323169D-05  0.30113060D-05  0.48611816D-05
  0.63278141D-05  0.53995352D-05  0.18643297D-05  0.11715850D-04  0.53998247D-05
 -0.15141672D-04  0.29915883D-04  0.22937602D-04  0.11447471D-04 -0.51343772D-04
 -0.39367148D-04 -0.19646966D-04 -0.58241832D-05 -0.44656143D-05 -0.22286545D-05
  0.65722868D-04 -0.51351272D-05 -0.29358138D-04  0.17529752D-04  0.72669826D-04
  0.68253207D-04 -0.25519572D-04 -0.28764548D-04  0.32199360D-04 -0.59851685D-05
 -0.25346638D-05 -0.42992695D-05 -0.48945664D-05 -0.14129322D-06  0.85048227D-04
  0.14425789D-03  0.16423251D-03 -0.26350121D-03  0.17159761D-05  0.29106203D-05
  0.33136383D-05 -0.82310689D-05 -0.25194833D-05 -0.42735205D-05 -0.48652520D-05
 -0.11571721D-04  0.52967649D-05  0.97714970D-05  0.15774226D-04  0.20533355D-04
  0.17521149D-04  0.60496318D-05 -0.19572334D-04 -0.90208709D-05  0.25295464D-04
 -0.13511415D-04 -0.10359696D-04 -0.51702143D-05 -0.87816511D-05 -0.67332131D-05
 -0.33603452D-05  0.13882412D-05  0.10644153D-05  0.53121782D-06 -0.75400954D-04
 -0.21156680D-04 -0.96229590D-05  0.45776132D-05 -0.10229806D-05  0.12222161D-04
  0.18471728D-04 -0.20601613D-04  0.75780512D-05  0.35923872D-05  0.28811346D-05
  0.48869496D-05  0.55636193D-05  0.32176704D-05  0.23596782D-05  0.40024608D-05
  0.45566601D-05  0.37073204D-05  0.30468009D-05  0.51679510D-05  0.58835296D-05
  0.64454202D-05
MO    3     MO 0.0        OCC NO =    2.0000000  ORB. ENERGY =  -10.115625
 -0.12203541D-04 -0.22513149D-04 -0.36343204D-04 -0.47308053D-04 -0.40368047D-04
 -0.13938117D-04  0.48137177D-04  0.22186381D-04 -0.62212927D-04  0.24837707D-04
  0.19043978D-04  0.95042799D-05  0.12767719D-04  0.97894769D-05  0.48856351D-05
 -0.52038875D-05 -0.39900108D-05 -0.19912951D-05  0.42265046D-03  0.18249366D-03
  0.11690346D-04 -0.12313413D-04  0.18780977D-04  0.18748778D-04 -0.29885694D-04
  0.58147086D-05 -0.86073405D-05  0.17139355D-05  0.12222493D-04  0.22548113D-04
  0.36399645D-04  0.47381523D-04  0.40430739D-04  0.13959763D-04 -0.30628686D-04
 -0.14116734D-04  0.39584795D-04  0.30935408D-04  0.23719309D-04  0.11837597D-04
  0.53222011D-04  0.40807262D-04  0.20365684D-04  0.26578374D-04  0.20378611D-04
  0.10170355D-04 -0.11524880D-03  0.87971491D-04 -0.23929105D-03 -0.18529749D-04
  0.47259401D-04 -0.82156616D-05  0.44962167D-04  0.68039299D-06 -0.23514742D-04
 -0.31916723D-04 -0.62543410D-04 -0.11538038D-03 -0.18625971D-03 -0.24245479D-03
 -0.20688711D-03 -0.71433149D-04  0.14902045D-03  0.68683387D-04 -0.19259539D-03
 -0.13359052D-03 -0.10242874D-03 -0.51119119D-04 -0.10814333D-03 -0.82917447D-04
 -0.41381618D-04 -0.65300791D-04 -0.50068505D-04 -0.24987693D-04  0.50977957D-03
  0.16997846D-03  0.36901745D-03 -0.36923997D-04 -0.10885869D-03 -0.21276603D-04
 -0.16454685D-03  0.99991813D-04  0.37306970D-04 -0.65248397D-04  0.63528470D-03
  0.11719762D-02  0.18919330D-02  0.24627346D-02  0.21014559D-02  0.72558223D-03
 -0.15871398D-03 -0.73151128D-04  0.20512340D-03 -0.10050092D-03 -0.77057730D-04
 -0.38457208D-04 -0.94803822D-04 -0.72689557D-04 -0.36277184D-04 -0.18340768D-03
 -0.14062538D-03 -0.70181918D-04 -0.29747301D-03  0.27735461D-03  0.30585218D-03
  0.67495312D-04 -0.28140527D-03 -0.17609842D-03 -0.10650017D-03 -0.81864226D-04
 -0.28563086D-03  0.29085558D-04 -0.52712756D-04 -0.97244743D-04 -0.15698317D-03
 -0.20434544D-03 -0.17436833D-03 -0.60205195D-04  0.14769375D-03  0.68071915D-04
 -0.19088075D-03 -0.12827490D-03 -0.98353059D-04 -0.49085069D-04  0.87939647D-04
  0.67426543D-04  0.33650571D-04 -0.10032122D-03 -0.76919945D-04 -0.38388443D-04
  0.39131602D-03  0.19077931D-04 -0.21420057D-03  0.73362820D-04 -0.40940005D-04
 -0.73029041D-04 -0.16344176D-03 -0.93514026D-04  0.11291781D-03  0.16491847D-04
  0.16215340D-04  0.29914137D-04  0.48290692D-04  0.62860133D-04  0.53638665D-04
  0.18520142D-04 -0.52085560D-04 -0.24006187D-04  0.67315854D-04  0.35196972D-04
  0.26986806D-04  0.13468307D-04 -0.36365669D-04 -0.27882888D-04 -0.13915515D-04
  0.49600237D-04  0.38030316D-04  0.18979793D-04 -0.32219363D-03 -0.13501906D-03
  0.17408601D-03 -0.31415909D-04  0.16767468D-04 -0.76188102D-06  0.58986947D-04
  0.91182624D-05 -0.40266465D-04  0.35894064D-04  0.39816074D-06  0.67535598D-06
  0.76886891D-06  0.55630286D-04 -0.12695677D-03 -0.23366822D-03 -0.37811929D-03
 -0.49704839D-03 -0.42631552D-03 -0.14576452D-03 -0.25588673D-03 -0.11417616D-03
  0.33716373D-03  0.25839239D-03  0.19907741D-03  0.87405704D-04 -0.24977075D-03
 -0.19243490D-03 -0.84489286D-04  0.68073196D-04  0.52446727D-04  0.23026938D-04
 -0.82682533D-03  0.46003628D-03 -0.41693464D-03  0.57965885D-04 -0.11922985D-03
 -0.56455990D-04  0.44576789D-03  0.95126746D-03 -0.21236787D-03  0.13297617D-04
 -0.46027564D-05 -0.84715289D-05 -0.13708533D-04 -0.18020250D-04 -0.15455864D-04
 -0.52846224D-05  0.28878941D-05  0.12885727D-05 -0.38051726D-05  0.29973449D-04
  0.23092926D-04  0.10139038D-04 -0.24436620D-04 -0.18827098D-04 -0.82661103D-05
 -0.52481650D-04 -0.40434282D-04 -0.17752828D-04  0.50246189D-05 -0.77334120D-04
 -0.62415789D-04  0.12998133D-04  0.22582460D-04 -0.68377524D-04 -0.37342651D-04
 -0.52442606D-04 -0.17163287D-04  0.96485043D-05 -0.19983596D-04 -0.33895960D-04
 -0.38589353D-04 -0.75064826D-04  0.53250346D+00  0.98236491D+00  0.15858416D+01
  0.20642945D+01  0.17614662D+01  0.60819197D+00 -0.19572606D-01 -0.90209963D-02
  0.25295815D-01  0.12914887D-02  0.99023161D-03  0.49419497D-03 -0.11549203D-02
 -0.88551963D-03 -0.44193636D-03  0.62101062D-03  0.47615155D-03  0.23763300D-03
 -0.15151086D-02  0.35641443D-03 -0.28157357D-03  0.69861750D-04 -0.99074754D-02
 -0.10009421D-01 -0.10727430D-01 -0.14450994D-02  0.42406783D-03 -0.57856948D-04
 -0.65022840D-04 -0.11029104D-03 -0.12556245D-03  0.41809062D-03  0.17502639D-04
  0.29687789D-04  0.33798499D-04  0.14938376D-04 -0.28164081D-05 -0.47771612D-05
 -0.54386292D-05  0.65933426D-04 -0.13991247D-04 -0.23731802D-04 -0.27017818D-04
 -0.73217022D-04 -0.24237223D-06 -0.44712944D-06 -0.72180555D-06 -0.93957635D-06
 -0.80174221D-06 -0.27682232D-06  0.50551910D-06  0.23299329D-06 -0.65333750D-06
 -0.71343988D-05 -0.54702045D-05 -0.27300154D-05  0.15403517D-04  0.11810440D-04
  0.58942372D-05 -0.13276555D-04 -0.10179621D-04 -0.50803441D-05  0.48358458D-04
  0.18994700D-04 -0.44375629D-05 -0.18306575D-05 -0.10905795D-04  0.40678972D-05
  0.20353518D-05 -0.58520670D-05 -0.68362136D-05 -0.40069045D-05 -0.10020306D-05
 -0.16996336D-05 -0.19349728D-05  0.60040801D-06 -0.23517074D-05 -0.39889408D-05
 -0.45412681D-05 -0.15720508D-05  0.32387639D-06  0.54935565D-06  0.62542200D-06
  0.96419420D-05
MO    4     MO 0.0        OCC NO =    2.0000000  ORB. ENERGY =  -10.036663
  0.17367337D-04  0.32039345D-04  0.51721437D-04  0.67325943D-04  0.57449349D-04
  0.19835880D-04 -0.66325095D-04 -0.30569176D-04  0.85719159D-04 -0.12191176D-03
 -0.93474206D-04 -0.46650180D-04  0.32000958D-04  0.24536305D-04  0.12245336D-04
  0.33267103D-05  0.25507104D-05  0.12729833D-05 -0.10058621D-02 -0.38532121D-03
  0.61655435D-04  0.57892238D-04  0.12098638D-04  0.25717786D-04  0.25382535D-04
 -0.36657359D-04  0.39027237D-05  0.13631902D-04  0.33252530D-02  0.61344425D-02
  0.99028923D-02  0.12890623D-01  0.10999592D-01  0.37978949D-02  0.23018775D-03
  0.10609332D-03 -0.29749675D-03 -0.40264066D-03 -0.30871932D-03 -0.15407258D-03
 -0.21620891D-03 -0.16577528D-03 -0.82733484D-04  0.64285668D-04  0.49290173D-04
  0.24599251D-04  0.19583148D-02  0.39293475D-03  0.81085591D-03 -0.13360133D-03
 -0.36018640D-03 -0.29573124D-03 -0.37845501D-03  0.14705328D-03 -0.18546080D-04
 -0.25834023D-04  0.53250235D+00  0.98236286D+00  0.15858382D+01  0.20642902D+01
  0.17614626D+01  0.60819069D+00 -0.19689384D-01 -0.90748189D-02  0.25446739D-01
  0.12071297D-02  0.92555048D-03  0.46191456D-03 -0.67419759D-03 -0.51693195D-03
 -0.25798527D-03 -0.74504409D-04 -0.57125255D-04 -0.28509506D-04 -0.30389043D-02
  0.82014049D-03 -0.92337114D-03 -0.59390339D-04 -0.96935252D-02 -0.97431378D-02
 -0.10386701D-01 -0.82843555D-03 -0.22493265D-03  0.49691216D-04  0.64315142D-02
  0.11864888D-01  0.19153608D-01  0.24932306D-01  0.21274782D-01  0.73456710D-02
 -0.10688301D-03 -0.49262282D-04  0.13813658D-03  0.11704535D-03  0.89742954D-04
  0.44788024D-04  0.14063995D-03  0.10783379D-03  0.53816620D-04 -0.12914109D-03
 -0.99017197D-04 -0.49416521D-04  0.11216576D-02 -0.69344597D-03 -0.20370973D-03
  0.11872909D-03 -0.23838128D-03 -0.66351953D-03 -0.33441240D-03 -0.19673908D-06
 -0.19599355D-03  0.14632723D-03  0.36546315D-04  0.67420815D-04  0.10883810D-03
  0.14167487D-03  0.12089142D-03  0.41740902D-04 -0.34611139D-04 -0.15952242D-04
  0.44731752D-04 -0.49199834D-04 -0.37723312D-04 -0.18826576D-04  0.16734229D-03
  0.12830746D-03  0.64034413D-04 -0.40919106D-04 -0.31374175D-04 -0.15657912D-04
 -0.80193854D-03  0.53576498D-04  0.26078113D-03  0.12826527D-05 -0.34273165D-05
  0.54893539D-04 -0.15487374D-06  0.26945989D-04 -0.14038644D-04 -0.70353234D-04
 -0.63950394D-04 -0.11797599D-03 -0.19044983D-03 -0.24790909D-03 -0.21154128D-03
 -0.73040119D-04  0.10642528D-03  0.49051315D-04 -0.13754501D-03 -0.11061813D-03
 -0.84814970D-04 -0.42328614D-04  0.67511075D-04  0.51763211D-04  0.25833470D-04
  0.33830379D-05  0.25938989D-05  0.12945373D-05  0.61850817D-03  0.27152503D-03
 -0.24067115D-03 -0.32621907D-04 -0.22341148D-04 -0.17615205D-04 -0.12335883D-03
  0.60348787D-04 -0.57384099D-04 -0.43883759D-04 -0.20345640D-05 -0.34510056D-05
 -0.39288479D-05 -0.16228245D-04  0.28427029D-04  0.52320908D-04  0.84665106D-04
  0.11129465D-03  0.95456776D-04  0.32638293D-04 -0.11215473D-03 -0.50043224D-04
  0.14777831D-03  0.69047201D-05  0.53197146D-05  0.23356413D-05  0.93005362D-04
  0.71655617D-04  0.31460676D-04 -0.74651055D-04 -0.57514614D-04 -0.25252013D-04
 -0.35221240D-03  0.10150275D-03 -0.42199017D-04  0.63127736D-04  0.57443014D-04
  0.14191520D-03  0.72888042D-04 -0.13723521D-04 -0.13255718D-05  0.52524399D-04
  0.62040407D-04  0.11418747D-03  0.18477688D-03  0.24289438D-03  0.20832910D-03
  0.71231256D-04 -0.50027382D-03 -0.22322120D-03  0.65917520D-03  0.14355751D-03
  0.11060332D-03  0.48560816D-04 -0.14930072D-03 -0.11502816D-03 -0.50503557D-04
  0.40465538D-04  0.31176516D-04  0.13688170D-04 -0.11502753D-02  0.40602768D-03
 -0.49618974D-03 -0.59879511D-04  0.39547580D-04 -0.13039261D-03  0.76590277D-03
  0.12071532D-02  0.11243604D-03 -0.14496303D-03  0.29971927D-04  0.50838061D-04
  0.57877335D-04  0.26577413D-03 -0.24255326D-04 -0.44746341D-04 -0.72234468D-04
 -0.94027815D-04 -0.80234105D-04 -0.27702908D-04  0.11639871D-03  0.53648061D-04
 -0.15043476D-03  0.19767214D-03  0.15156246D-03  0.75640288D-04  0.11720940D-03
  0.89868734D-04  0.44850797D-04  0.20183626D-04  0.15475524D-04  0.77233713D-05
  0.45397403D-03 -0.33988073D-04 -0.19178626D-03 -0.14363863D-03 -0.16348150D-03
 -0.91174636D-04 -0.11968088D-03  0.20868001D-04  0.16610836D-03  0.17934144D-04
  0.10570860D-04  0.17930180D-04  0.20412876D-04  0.73727255D-04  0.39482392D-04
  0.66969609D-04  0.76242533D-04 -0.36266678D-04 -0.23686685D-04 -0.40177101D-04
 -0.45740209D-04  0.12852465D-03  0.19934272D-04  0.33812298D-04  0.38494106D-04
  0.11551455D-03 -0.45975704D-04 -0.84816197D-04 -0.13691964D-03 -0.17822869D-03
 -0.15208286D-03 -0.52510558D-04  0.59128648D-04  0.27252340D-04 -0.76418406D-04
 -0.23163236D-04 -0.17760100D-04 -0.88635347D-05  0.13115091D-04  0.10055820D-04
  0.50185589D-05  0.41539025D-05  0.31849490D-05  0.15895127D-05  0.37270012D-04
  0.34678748D-04 -0.50086897D-04 -0.97846464D-06  0.16026770D-04 -0.84194143D-04
 -0.44539119D-04 -0.35948415D-04 -0.18402206D-04  0.19554483D-04 -0.11008092D-04
 -0.18671808D-04 -0.21257193D-04 -0.15371424D-04 -0.93428215D-05 -0.15847194D-04