 Entering Link 1 = D:\Gaussian\G16W\l1.exe PID=     40764.
  
 Copyright (c) 1988,1990,1992,1993,1995,1998,2003,2009,2016,
            Gaussian, Inc.  All Rights Reserved.
  
 This is part of the Gaussian(R) 16 program.  It is based on
 the Gaussian(R) 09 system (copyright 2009, Gaussian, Inc.),
 the Gaussian(R) 03 system (copyright 2003, Gaussian, Inc.),
 the Gaussian(R) 98 system (copyright 1998, Gaussian, Inc.),
 the Gaussian(R) 94 system (copyright 1995, Gaussian, Inc.),
 the Gaussian 92(TM) system (copyright 1992, Gaussian, Inc.),
 the Gaussian 90(TM) system (copyright 1990, Gaussian, Inc.),
 the Gaussian 88(TM) system (copyright 1988, Gaussian, Inc.),
 the Gaussian 86(TM) system (copyright 1986, Carnegie Mellon
 University), and the Gaussian 82(TM) system (copyright 1983,
 Carnegie Mellon University). Gaussian is a federally registered
 trademark of Gaussian, Inc.
  
 This software contains proprietary and confidential information,
 including trade secrets, belonging to Gaussian, Inc.
  
 This software is provided under written license and may be
 used, copied, transmitted, or stored only in accord with that
 written license.
  
 The following legend is applicable only to US Government
 contracts under FAR:
  
                    RESTRICTED RIGHTS LEGEND
  
 Use, reproduction and disclosure by the US Government is
 subject to restrictions as set forth in subparagraphs (a)
 and (c) of the Commercial Computer Software - Restricted
 Rights clause in FAR 52.227-19.
  
 Gaussian, Inc.
 340 Quinnipiac St., Bldg. 40, Wallingford CT 06492
  
  
 ---------------------------------------------------------------
 Warning -- This program may not be used in any manner that
 competes with the business of Gaussian, Inc. or will provide
 assistance to any competitor of Gaussian, Inc.  The licensee
 of this program is prohibited from giving any competitor of
 Gaussian, Inc. access to this program.  By using this program,
 the user acknowledges that Gaussian, Inc. is engaged in the
 business of creating and licensing software in the field of
 computational chemistry and represents and warrants to the
 licensee that it is not a competitor of Gaussian, Inc. and that
 it will not use this program in any manner prohibited above.
 ---------------------------------------------------------------
  

 Cite this work as:
 Gaussian 16, Revision A.03,
 M. J. Frisch, G. W. Trucks, H. B. Schlegel, G. E. Scuseria, 
 M. A. Robb, J. R. Cheeseman, G. Scalmani, V. Barone, 
 G. A. Petersson, H. Nakatsuji, X. Li, M. Caricato, A. V. Marenich, 
 J. Bloino, B. G. Janesko, R. Gomperts, B. Mennucci, H. P. Hratchian, 
 J. V. Ortiz, A. F. Izmaylov, J. L. Sonnenberg, D. Williams-Young, 
 F. Ding, F. Lipparini, F. Egidi, J. Goings, B. Peng, A. Petrone, 
 T. Henderson, D. Ranasinghe, V. G. Zakrzewski, J. Gao, N. Rega, 
 G. Zheng, W. Liang, M. Hada, M. Ehara, K. Toyota, R. Fukuda, 
 J. Hasegawa, M. Ishida, T. Nakajima, Y. Honda, O. Kitao, H. Nakai, 
 T. Vreven, K. Throssell, J. A. Montgomery, Jr., J. E. Peralta, 
 F. Ogliaro, M. J. Bearpark, J. J. Heyd, E. N. Brothers, K. N. Kudin, 
 V. N. Staroverov, T. A. Keith, R. Kobayashi, J. Normand, 
 K. Raghavachari, A. P. Rendell, J. C. Burant, S. S. Iyengar, 
 J. Tomasi, M. Cossi, J. M. Millam, M. Klene, C. Adamo, R. Cammi, 
 J. W. Ochterski, R. L. Martin, K. Morokuma, O. Farkas, 
 J. B. Foresman, and D. J. Fox, Gaussian, Inc., Wallingford CT, 2016.
 
 ******************************************
 Gaussian 16:  EM64W-G16RevA.03 17-Dec-2016
                03-Dec-2025 
 ******************************************
 %nprocs=   4
 Will use up to    4 processors via shared memory.
 ------------------------------------
 #P B3LYP/6-31G* SCF=conver=7 out=wfn
 ------------------------------------
 1/38=1,172=1/1;
 2/12=2,17=6,18=5,40=1/2;
 3/5=1,6=6,7=1,11=2,25=1,30=1,74=-5/1,2,3;
 4//1;
 5/5=2,6=7,38=5/2;
 6/7=2,8=2,9=2,10=2,28=1/1;
 99/5=1,6=100,9=1/99;
 Leave Link    1 at Wed Dec 03 17:25:01 2025, MaxMem=           0 cpu:               0.0 elap:               0.1
 (Enter D:\Gaussian\G16W\l101.exe)
 ----------------------------------------------------
 Generated by Multiwfn (http://sobereva.com/multiwfn)
 ----------------------------------------------------
 Symbolic Z-matrix:
 Charge = -1 Multiplicity = 1
 C                    -1.89441  -0.03524   0.07525 
 C                    -0.92865  -1.07541   0.0157 
 C                     0.39033  -0.83212  -0.22683 
 C                     0.91391   0.56496  -0.48409 
 C                    -0.14941   1.61623  -0.34431 
 C                    -1.45439   1.29925  -0.10097 
 H                     0.15      2.6495   -0.48447 
 O                     3.04645   0.05455   0.54072 
 O                     1.27741  -1.85162  -0.30801 
 H                    -1.22646  -2.10767   0.16826 
 C                     2.14891   0.85031   0.38523 
 H                     2.18315   1.84476   0.87303 
 H                     2.16878  -1.49429  -0.14836 
 H                     1.33356   0.57319  -1.51422 
 H                    -2.18472   2.09998  -0.03405 
 C                    -3.33595  -0.35998   0.34865 
 H                    -3.74052  -1.05004  -0.40092 
 H                    -3.46087  -0.84578   1.32387 
 H                    -3.95578   0.53891   0.34339 
 
 ITRead=  0  0  0  0  0  0  0  0  0  0  0  0  0  0  0  0  0  0  0
 MicOpt= -1 -1 -1 -1 -1 -1 -1 -1 -1 -1 -1 -1 -1 -1 -1 -1 -1 -1 -1
 NAtoms=     19 NQM=       19 NQMF=       0 NMMI=      0 NMMIF=      0
                NMic=       0 NMicF=      0.
                    Isotopes and Nuclear Properties:
 (Nuclear quadrupole moments (NQMom) in fm**2, nuclear magnetic moments (NMagM)
  in nuclear magnetons)

  Atom         1           2           3           4           5           6           7           8           9          10
 IAtWgt=          12          12          12          12          12          12           1          16          16           1
 AtmWgt=  12.0000000  12.0000000  12.0000000  12.0000000  12.0000000  12.0000000   1.0078250  15.9949146  15.9949146   1.0078250
 NucSpn=           0           0           0           0           0           0           1           0           0           1
 AtZEff=   0.0000000   0.0000000   0.0000000   0.0000000   0.0000000   0.0000000   0.0000000   0.0000000   0.0000000   0.0000000
 NQMom=    0.0000000   0.0000000   0.0000000   0.0000000   0.0000000   0.0000000   0.0000000   0.0000000   0.0000000   0.0000000
 NMagM=    0.0000000   0.0000000   0.0000000   0.0000000   0.0000000   0.0000000   2.7928460   0.0000000   0.0000000   2.7928460
 AtZNuc=   6.0000000   6.0000000   6.0000000   6.0000000   6.0000000   6.0000000   1.0000000   8.0000000   8.0000000   1.0000000

  Atom        11          12          13          14          15          16          17          18          19
 IAtWgt=          12           1           1           1           1          12           1           1           1
 AtmWgt=  12.0000000   1.0078250   1.0078250   1.0078250   1.0078250  12.0000000   1.0078250   1.0078250   1.0078250
 NucSpn=           0           1           1           1           1           0           1           1           1
 AtZEff=   0.0000000   0.0000000   0.0000000   0.0000000   0.0000000   0.0000000   0.0000000   0.0000000   0.0000000
 NQMom=    0.0000000   0.0000000   0.0000000   0.0000000   0.0000000   0.0000000   0.0000000   0.0000000   0.0000000
 NMagM=    0.0000000   2.7928460   2.7928460   2.7928460   2.7928460   0.0000000   2.7928460   2.7928460   2.7928460
 AtZNuc=   6.0000000   1.0000000   1.0000000   1.0000000   1.0000000   6.0000000   1.0000000   1.0000000   1.0000000
 Leave Link  101 at Wed Dec 03 17:25:01 2025, MaxMem=   104857600 cpu:               0.0 elap:               0.1
 (Enter D:\Gaussian\G16W\l202.exe)
                          Input orientation:                          
 ---------------------------------------------------------------------
 Center     Atomic      Atomic             Coordinates (Angstroms)
 Number     Number       Type             X           Y           Z
 ---------------------------------------------------------------------
      1          6           0       -1.894406   -0.035244    0.075253
      2          6           0       -0.928650   -1.075407    0.015703
      3          6           0        0.390327   -0.832120   -0.226834
      4          6           0        0.913905    0.564962   -0.484087
      5          6           0       -0.149407    1.616229   -0.344312
      6          6           0       -1.454390    1.299247   -0.100972
      7          1           0        0.150002    2.649495   -0.484469
      8          8           0        3.046446    0.054554    0.540717
      9          8           0        1.277411   -1.851619   -0.308006
     10          1           0       -1.226462   -2.107670    0.168257
     11          6           0        2.148910    0.850313    0.385231
     12          1           0        2.183151    1.844755    0.873033
     13          1           0        2.168783   -1.494290   -0.148363
     14          1           0        1.333558    0.573191   -1.514223
     15          1           0       -2.184717    2.099977   -0.034052
     16          6           0       -3.335954   -0.359983    0.348651
     17          1           0       -3.740524   -1.050044   -0.400921
     18          1           0       -3.460870   -0.845783    1.323870
     19          1           0       -3.955783    0.538910    0.343389
 ---------------------------------------------------------------------
                    Distance matrix (angstroms):
                    1          2          3          4          5
     1  C    0.000000
     2  C    1.420623   0.000000
     3  C    2.438498   1.362979   0.000000
     4  C    2.925700   2.517064   1.513985   0.000000
     5  C    2.438938   2.825196   2.509886   1.501776   0.000000
     6  C    1.416169   2.434953   2.821621   2.508939   1.364798
     7  H    3.420631   3.910058   3.499396   2.220096   1.084863
     8  O    4.963541   4.165794   2.903497   2.420428   3.665458
     9  O    3.675123   2.360932   1.353841   2.450103   3.750080
    10  H    2.179392   1.085141   2.096934   3.485640   3.910268
    11  C    4.150747   3.649154   2.509545   1.537002   2.530044
    12  H    4.560408   4.352662   3.404348   2.256243   2.641019
    13  H    4.322999   3.129932   1.899351   2.434738   3.884293
    14  H    3.649161   3.190005   2.126489   1.112365   2.157731
    15  H    2.157637   3.415149   3.907072   3.487157   2.114890
    16  C    1.502752   2.533337   3.799903   4.428349   3.813095
    17  H    2.159795   2.842684   4.140257   4.927359   4.473068
    18  H    2.160978   2.859400   4.151697   4.939389   4.450856
    19  H    2.156577   3.446292   4.592771   4.939560   4.015227
                    6          7          8          9         10
     6  C    0.000000
     7  H    2.131740   0.000000
     8  O    4.713656   4.021705   0.000000
     9  O    4.175351   4.643513   2.735564   0.000000
    10  H    3.425130   4.995130   4.803299   2.561595   0.000000
    11  C    3.663565   2.826494   1.209537   2.922418   4.493315
    12  H    3.804993   2.573735   2.015076   3.984771   5.267242
    13  H    4.575312   4.621623   1.908937   0.973506   3.464704
    14  H    3.208908   2.602352   2.725023   2.708840   4.070805
    15  H    1.085829   2.440442   5.646165   5.260845   4.320124
    16  C    2.548625   4.680057   6.398731   4.892782   2.745343
    17  H    3.291739   5.369335   6.940445   5.082404   2.786224
    18  H    3.264551   5.340923   6.615822   5.111363   2.814317
    19  H    2.651893   4.690137   7.021734   5.790100   3.805818
                   11         12         13         14         15
    11  C    0.000000
    12  H    1.108169   0.000000
    13  H    2.404637   3.491802   0.000000
    14  H    2.085551   2.835079   2.614890   0.000000
    15  H    4.529656   4.468357   5.646661   4.110990   0.000000
    16  C    5.616929   5.966269   5.642323   5.113263   2.742847
    17  H    6.238175   6.715113   5.931362   5.442485   3.532387
    18  H    5.935269   6.268750   5.855000   5.749330   3.485688
    19  H    6.112773   6.298592   6.471942   5.606160   2.390830
                   16         17         18         19
    16  C    0.000000
    17  H    1.096230   0.000000
    18  H    1.096658   1.759214   0.000000
    19  H    1.091890   1.767798   1.767387   0.000000
 Stoichiometry    C8H9O2(1-)
 Framework group  C1[X(C8H9O2)]
 Deg. of freedom    51
 Full point group                 C1      NOp   1
 Largest Abelian subgroup         C1      NOp   1
 Largest concise Abelian subgroup C1      NOp   1
                         Standard orientation:                         
 ---------------------------------------------------------------------
 Center     Atomic      Atomic             Coordinates (Angstroms)
 Number     Number       Type             X           Y           Z
 ---------------------------------------------------------------------
      1          6           0       -1.894406   -0.035244    0.075253
      2          6           0       -0.928650   -1.075407    0.015703
      3          6           0        0.390327   -0.832120   -0.226834
      4          6           0        0.913905    0.564962   -0.484087
      5          6           0       -0.149407    1.616229   -0.344312
      6          6           0       -1.454390    1.299247   -0.100972
      7          1           0        0.150002    2.649495   -0.484469
      8          8           0        3.046446    0.054554    0.540717
      9          8           0        1.277411   -1.851619   -0.308006
     10          1           0       -1.226462   -2.107670    0.168257
     11          6           0        2.148910    0.850313    0.385231
     12          1           0        2.183151    1.844755    0.873033
     13          1           0        2.168783   -1.494290   -0.148363
     14          1           0        1.333558    0.573191   -1.514223
     15          1           0       -2.184717    2.099977   -0.034052
     16          6           0       -3.335954   -0.359983    0.348651
     17          1           0       -3.740524   -1.050045   -0.400921
     18          1           0       -3.460870   -0.845783    1.323870
     19          1           0       -3.955783    0.538909    0.343389
 ---------------------------------------------------------------------
 Rotational constants (GHZ):           2.7078576           0.9473931           0.7427511
 Leave Link  202 at Wed Dec 03 17:25:01 2025, MaxMem=   104857600 cpu:               0.0 elap:               0.1
 (Enter D:\Gaussian\G16W\l301.exe)
 Standard basis: 6-31G(d) (6D, 7F)
 Ernie: Thresh=  0.10000D-02 Tol=  0.10000D-05 Strict=F.
 There are   168 symmetry adapted cartesian basis functions of A   symmetry.
 There are   168 symmetry adapted basis functions of A   symmetry.
   168 basis functions,   316 primitive gaussians,   168 cartesian basis functions
    37 alpha electrons       37 beta electrons
       nuclear repulsion energy       502.8281553473 Hartrees.
 IExCor=  402 DFT=T Ex+Corr=B3LYP ExCW=0 ScaHFX=  0.200000
 ScaDFX=  0.800000  0.720000  1.000000  0.810000 ScalE2=  1.000000  1.000000
 IRadAn=      5 IRanWt=     -1 IRanGd=            0 ICorTp=0 IEmpDi=  4
 NAtoms=   19 NActive=   19 NUniq=   19 SFac= 1.00D+00 NAtFMM=   60 NAOKFM=F Big=F
 Integral buffers will be    131072 words long.
 Raffenetti 2 integral format.
 Two-electron integral symmetry is turned on.
 Leave Link  301 at Wed Dec 03 17:25:01 2025, MaxMem=   104857600 cpu:               0.0 elap:               0.1
 (Enter D:\Gaussian\G16W\l302.exe)
 NPDir=0 NMtPBC=     1 NCelOv=     1 NCel=       1 NClECP=     1 NCelD=      1
         NCelK=      1 NCelE2=     1 NClLst=     1 CellRange=     0.0.
 One-electron integrals computed using PRISM.
 One-electron integral symmetry used in STVInt
 NBasis=   168 RedAO= T EigKep=  6.37D-04  NBF=   168
 NBsUse=   168 1.00D-06 EigRej= -1.00D+00 NBFU=   168
 Precomputing XC quadrature grid using
 IXCGrd= 4 IRadAn=           5 IRanWt=          -1 IRanGd=           0 AccXCQ= 0.00D+00.
 Generated NRdTot=       0 NPtTot=           0 NUsed=           0 NTot=          32
 NSgBfM=   168   168   168   168   168 MxSgAt=    19 MxSgA2=    19.
 Leave Link  302 at Wed Dec 03 17:25:02 2025, MaxMem=   104857600 cpu:               1.0 elap:               0.3
 (Enter D:\Gaussian\G16W\l303.exe)
 DipDrv:  MaxL=1.
 Leave Link  303 at Wed Dec 03 17:25:02 2025, MaxMem=   104857600 cpu:               0.0 elap:               0.1
 (Enter D:\Gaussian\G16W\l401.exe)
 ExpMin= 1.61D-01 ExpMax= 5.48D+03 ExpMxC= 8.25D+02 IAcc=3 IRadAn=         5 AccDes= 0.00D+00
 Harris functional with IExCor=  402 and IRadAn=       5 diagonalized for initial guess.
 HarFok:  IExCor=  402 AccDes= 0.00D+00 IRadAn=         5 IDoV= 1 UseB2=F ITyADJ=14
 ICtDFT=  3500011 ScaDFX=  1.000000  1.000000  1.000000  1.000000
 FoFCou: FMM=F IPFlag=           0 FMFlag=      100000 FMFlg1=           0
         NFxFlg=           0 DoJE=T BraDBF=F KetDBF=T FulRan=T
         wScrn=  0.000000 ICntrl=       500 IOpCl=  0 I1Cent=   200000004 NGrid=           0
         NMat0=    1 NMatS0=      1 NMatT0=    0 NMatD0=    1 NMtDS0=    0 NMtDT0=    0
 Petite list used in FoFCou.
 Harris En= -460.890632130936    
 JPrj=0 DoOrth=F DoCkMO=F.
 Leave Link  401 at Wed Dec 03 17:25:03 2025, MaxMem=   104857600 cpu:               1.0 elap:               1.1
 (Enter D:\Gaussian\G16W\l502.exe)
 Keep R1 ints in memory in canonical form, NReq=104755543.
 FoFCou: FMM=F IPFlag=           0 FMFlag=           0 FMFlg1=           0
         NFxFlg=           0 DoJE=F BraDBF=F KetDBF=F FulRan=T
         wScrn=  0.000000 ICntrl=       600 IOpCl=  0 I1Cent=           0 NGrid=           0
         NMat0=    1 NMatS0=  14196 NMatT0=    0 NMatD0=    1 NMtDS0=    0 NMtDT0=    0
 Symmetry not used in FoFCou.
 Two-electron integral symmetry not used.
 Closed shell SCF:
 Using DIIS extrapolation, IDIIS=  1040.
 NGot=   104857600 LenX=     4027843 LenY=     3999178
 Requested convergence on RMS density matrix=1.00D-07 within 128 cycles.
 Requested convergence on MAX density matrix=1.00D-05.
 Requested convergence on             energy=1.00D-05.
 No special actions if energy rises.
 Integral accuracy reduced to 1.0D-05 until final iterations.

 Cycle   1  Pass 0  IDiag  1:
 CalDSu:  requested number of processors reduced to:   3 ShMem   1 Linda.
 E= -460.234591519897    
 DIIS: error= 3.71D-02 at cycle   1 NSaved=   1.
 NSaved= 1 IEnMin= 1 EnMin= -460.234591519897     IErMin= 1 ErrMin= 3.71D-02
 ErrMax= 3.71D-02  0.00D+00 EMaxC= 1.00D-01 BMatC= 3.85D-01 BMatP= 3.85D-01
 IDIUse=3 WtCom= 6.29D-01 WtEn= 3.71D-01
 Coeff-Com:  0.100D+01
 Coeff-En:   0.100D+01
 Coeff:      0.100D+01
 Gap=    -0.099 Goal=   None    Shift=    0.000
 GapD=   -0.099 DampG=0.250 DampE=0.500 DampFc=0.2500 IDamp=-1.
 Damping current iteration by 2.50D-01
 RMSDP=1.50D-02 MaxDP=3.23D-01              OVMax= 9.69D-01

 Cycle   2  Pass 0  IDiag  1:
 CalDSu:  requested number of processors reduced to:   3 ShMem   1 Linda.
 E= -460.353638646941     Delta-E=       -0.119047127044 Rises=F Damp=T
 DIIS: error= 1.63D-02 at cycle   2 NSaved=   2.
 NSaved= 2 IEnMin= 2 EnMin= -460.353638646941     IErMin= 2 ErrMin= 1.63D-02
 ErrMax= 1.63D-02  0.00D+00 EMaxC= 1.00D-01 BMatC= 8.93D-02 BMatP= 3.85D-01
 IDIUse=3 WtCom= 8.37D-01 WtEn= 1.63D-01
 Coeff-Com: -0.437D+00 0.144D+01
 Coeff-En:   0.878D-01 0.912D+00
 Coeff:     -0.351D+00 0.135D+01
 Gap=    -0.153 Goal=   None    Shift=    0.000
 RMSDP=5.99D-03 MaxDP=1.64D-01 DE=-1.19D-01 OVMax= 6.62D-01

 Cycle   3  Pass 0  IDiag  1:
 CalDSu:  requested number of processors reduced to:   3 ShMem   1 Linda.
 E= -460.407470127146     Delta-E=       -0.053831480205 Rises=F Damp=F
 DIIS: error= 2.99D-02 at cycle   3 NSaved=   3.
 NSaved= 3 IEnMin= 3 EnMin= -460.407470127146     IErMin= 2 ErrMin= 1.63D-02
 ErrMax= 2.99D-02  0.00D+00 EMaxC= 1.00D-01 BMatC= 2.17D-01 BMatP= 8.93D-02
 IDIUse=2 WtCom= 0.00D+00 WtEn= 1.00D+00
 Coeff-En:   0.000D+00 0.417D+00 0.583D+00
 Coeff:      0.000D+00 0.417D+00 0.583D+00
 Gap=     0.254 Goal=   None    Shift=    0.000
 RMSDP=1.03D-02 MaxDP=2.39D-01 DE=-5.38D-02 OVMax= 9.79D-01

 Cycle   4  Pass 0  IDiag  1:
 CalDSu:  requested number of processors reduced to:   3 ShMem   1 Linda.
 E= -459.541173921230     Delta-E=        0.866296205916 Rises=F Damp=F
 DIIS: error= 3.80D-02 at cycle   4 NSaved=   4.
 NSaved= 4 IEnMin= 3 EnMin= -460.407470127146     IErMin= 2 ErrMin= 1.63D-02
 ErrMax= 3.80D-02  0.00D+00 EMaxC= 1.00D-01 BMatC= 6.95D-01 BMatP= 8.93D-02
 IDIUse=2 WtCom= 0.00D+00 WtEn= 1.00D+00
 Coeff-En:   0.000D+00 0.000D+00 0.737D+00 0.263D+00
 Coeff:      0.000D+00 0.000D+00 0.737D+00 0.263D+00
 Gap=    -0.039 Goal=   None    Shift=    0.000
 RMSDP=8.50D-03 MaxDP=2.20D-01 DE= 8.66D-01 OVMax= 9.57D-01

 Cycle   5  Pass 0  IDiag  1:
 CalDSu:  requested number of processors reduced to:   3 ShMem   1 Linda.
 E= -460.601021765247     Delta-E=       -1.059847844018 Rises=F Damp=F
 DIIS: error= 1.48D-02 at cycle   5 NSaved=   5.
 NSaved= 5 IEnMin= 5 EnMin= -460.601021765247     IErMin= 5 ErrMin= 1.48D-02
 ErrMax= 1.48D-02  0.00D+00 EMaxC= 1.00D-01 BMatC= 5.56D-02 BMatP= 8.93D-02
 IDIUse=3 WtCom= 8.52D-01 WtEn= 1.48D-01
 Coeff-Com: -0.356D+00 0.724D+00 0.283D+00-0.817D-02 0.357D+00
 Coeff-En:   0.000D+00 0.000D+00 0.667D-01 0.000D+00 0.933D+00
 Coeff:     -0.303D+00 0.617D+00 0.251D+00-0.696D-02 0.442D+00
 Gap=     0.066 Goal=   None    Shift=    0.000
 RMSDP=1.77D-03 MaxDP=5.59D-02 DE=-1.06D+00 OVMax= 7.63D-02

 Cycle   6  Pass 0  IDiag  1:
 CalDSu:  requested number of processors reduced to:   3 ShMem   1 Linda.
 E= -460.631903530200     Delta-E=       -0.030881764953 Rises=F Damp=F
 DIIS: error= 1.03D-02 at cycle   6 NSaved=   6.
 NSaved= 6 IEnMin= 6 EnMin= -460.631903530200     IErMin= 6 ErrMin= 1.03D-02
 ErrMax= 1.03D-02  0.00D+00 EMaxC= 1.00D-01 BMatC= 1.39D-02 BMatP= 5.56D-02
 IDIUse=3 WtCom= 8.97D-01 WtEn= 1.03D-01
 Coeff-Com: -0.194D+00 0.286D+00-0.592D-02-0.150D-01 0.306D+00 0.623D+00
 Coeff-En:   0.000D+00 0.000D+00 0.000D+00 0.000D+00 0.228D+00 0.772D+00
 Coeff:     -0.174D+00 0.256D+00-0.531D-02-0.135D-01 0.298D+00 0.638D+00
 Gap=     0.051 Goal=   None    Shift=    0.000
 RMSDP=1.18D-03 MaxDP=2.21D-02 DE=-3.09D-02 OVMax= 8.92D-02

 Cycle   7  Pass 0  IDiag  1:
 CalDSu:  requested number of processors reduced to:   3 ShMem   1 Linda.
 E= -460.647416560798     Delta-E=       -0.015513030598 Rises=F Damp=F
 DIIS: error= 9.53D-04 at cycle   7 NSaved=   7.
 NSaved= 7 IEnMin= 7 EnMin= -460.647416560798     IErMin= 7 ErrMin= 9.53D-04
 ErrMax= 9.53D-04  0.00D+00 EMaxC= 1.00D-01 BMatC= 3.25D-04 BMatP= 1.39D-02
 IDIUse=3 WtCom= 9.90D-01 WtEn= 9.53D-03
 Coeff-Com: -0.432D-01 0.612D-01-0.335D-01-0.337D-02 0.626D-01 0.278D+00
 Coeff-Com:  0.678D+00
 Coeff-En:   0.000D+00 0.000D+00 0.000D+00 0.000D+00 0.000D+00 0.000D+00
 Coeff-En:   0.100D+01
 Coeff:     -0.428D-01 0.606D-01-0.331D-01-0.334D-02 0.620D-01 0.276D+00
 Coeff:      0.681D+00
 Gap=     0.055 Goal=   None    Shift=    0.000
 RMSDP=2.30D-04 MaxDP=4.48D-03 DE=-1.55D-02 OVMax= 1.92D-02

 Cycle   8  Pass 0  IDiag  1:
 CalDSu:  requested number of processors reduced to:   3 ShMem   1 Linda.
 E= -460.647677421792     Delta-E=       -0.000260860994 Rises=F Damp=F
 DIIS: error= 4.62D-04 at cycle   8 NSaved=   8.
 NSaved= 8 IEnMin= 8 EnMin= -460.647677421792     IErMin= 8 ErrMin= 4.62D-04
 ErrMax= 4.62D-04  0.00D+00 EMaxC= 1.00D-01 BMatC= 1.04D-04 BMatP= 3.25D-04
 IDIUse=3 WtCom= 9.95D-01 WtEn= 4.62D-03
 Coeff-Com:  0.113D-01-0.139D-01-0.155D-01 0.986D-03-0.245D-01 0.458D-01
 Coeff-Com:  0.447D+00 0.548D+00
 Coeff-En:   0.000D+00 0.000D+00 0.000D+00 0.000D+00 0.000D+00 0.000D+00
 Coeff-En:   0.191D+00 0.809D+00
 Coeff:      0.112D-01-0.138D-01-0.154D-01 0.982D-03-0.244D-01 0.456D-01
 Coeff:      0.446D+00 0.550D+00
 Gap=     0.056 Goal=   None    Shift=    0.000
 RMSDP=1.37D-04 MaxDP=3.87D-03 DE=-2.61D-04 OVMax= 1.30D-02

 Cycle   9  Pass 0  IDiag  1:
 CalDSu:  requested number of processors reduced to:   3 ShMem   1 Linda.
 E= -460.647772973574     Delta-E=       -0.000095551782 Rises=F Damp=F
 DIIS: error= 3.64D-04 at cycle   9 NSaved=   9.
 NSaved= 9 IEnMin= 9 EnMin= -460.647772973574     IErMin= 9 ErrMin= 3.64D-04
 ErrMax= 3.64D-04  0.00D+00 EMaxC= 1.00D-01 BMatC= 3.21D-05 BMatP= 1.04D-04
 IDIUse=3 WtCom= 9.96D-01 WtEn= 3.64D-03
 Coeff-Com:  0.255D-02-0.265D-02 0.208D-02-0.568D-03 0.147D-02 0.157D-01
 Coeff-Com:  0.110D+00 0.256D+00 0.616D+00
 Coeff-En:   0.000D+00 0.000D+00 0.000D+00 0.000D+00 0.000D+00 0.000D+00
 Coeff-En:   0.000D+00 0.992D-01 0.901D+00
 Coeff:      0.254D-02-0.264D-02 0.207D-02-0.565D-03 0.146D-02 0.157D-01
 Coeff:      0.109D+00 0.256D+00 0.617D+00
 Gap=     0.057 Goal=   None    Shift=    0.000
 RMSDP=4.91D-05 MaxDP=1.06D-03 DE=-9.56D-05 OVMax= 1.77D-03

 Cycle  10  Pass 0  IDiag  1:
 CalDSu:  requested number of processors reduced to:   3 ShMem   1 Linda.
 E= -460.647803492414     Delta-E=       -0.000030518840 Rises=F Damp=F
 DIIS: error= 1.47D-04 at cycle  10 NSaved=  10.
 NSaved=10 IEnMin=10 EnMin= -460.647803492414     IErMin=10 ErrMin= 1.47D-04
 ErrMax= 1.47D-04  0.00D+00 EMaxC= 1.00D-01 BMatC= 6.78D-06 BMatP= 3.21D-05
 IDIUse=3 WtCom= 9.99D-01 WtEn= 1.47D-03
 Coeff-Com:  0.144D-02-0.251D-02 0.367D-02-0.399D-03 0.606D-02 0.955D-02
 Coeff-Com:  0.137D-01 0.802D-01 0.300D+00 0.588D+00
 Coeff-En:   0.000D+00 0.000D+00 0.000D+00 0.000D+00 0.000D+00 0.000D+00
 Coeff-En:   0.000D+00 0.000D+00 0.000D+00 0.100D+01
 Coeff:      0.144D-02-0.250D-02 0.366D-02-0.398D-03 0.605D-02 0.954D-02
 Coeff:      0.137D-01 0.801D-01 0.300D+00 0.588D+00
 Gap=     0.058 Goal=   None    Shift=    0.000
 RMSDP=2.02D-05 MaxDP=4.30D-04 DE=-3.05D-05 OVMax= 1.22D-03

 Cycle  11  Pass 0  IDiag  1:
 CalDSu:  requested number of processors reduced to:   3 ShMem   1 Linda.
 E= -460.647809366549     Delta-E=       -0.000005874134 Rises=F Damp=F
 DIIS: error= 1.19D-04 at cycle  11 NSaved=  11.
 NSaved=11 IEnMin=11 EnMin= -460.647809366549     IErMin=11 ErrMin= 1.19D-04
 ErrMax= 1.19D-04  0.00D+00 EMaxC= 1.00D-01 BMatC= 2.32D-06 BMatP= 6.78D-06
 IDIUse=3 WtCom= 9.99D-01 WtEn= 1.19D-03
 Coeff-Com: -0.685D-03 0.767D-03 0.141D-02-0.301D-03 0.431D-02 0.749D-02
 Coeff-Com: -0.138D-01-0.347D-01-0.121D+00 0.168D+00 0.989D+00
 Coeff-En:   0.000D+00 0.000D+00 0.000D+00 0.000D+00 0.000D+00 0.000D+00
 Coeff-En:   0.000D+00 0.000D+00 0.000D+00 0.000D+00 0.100D+01
 Coeff:     -0.684D-03 0.766D-03 0.141D-02-0.301D-03 0.430D-02 0.749D-02
 Coeff:     -0.138D-01-0.347D-01-0.121D+00 0.168D+00 0.989D+00
 Gap=     0.058 Goal=   None    Shift=    0.000
 RMSDP=1.99D-05 MaxDP=5.08D-04 DE=-5.87D-06 OVMax= 5.35D-04

 Cycle  12  Pass 0  IDiag  1:
 CalDSu:  requested number of processors reduced to:   3 ShMem   1 Linda.
 E= -460.647812170571     Delta-E=       -0.000002804022 Rises=F Damp=F
 DIIS: error= 2.03D-05 at cycle  12 NSaved=  12.
 NSaved=12 IEnMin=12 EnMin= -460.647812170571     IErMin=12 ErrMin= 2.03D-05
 ErrMax= 2.03D-05  0.00D+00 EMaxC= 1.00D-01 BMatC= 1.57D-07 BMatP= 2.32D-06
 IDIUse=1 WtCom= 1.00D+00 WtEn= 0.00D+00
 Coeff-Com:  0.211D-03-0.497D-03-0.233D-03 0.159D-04 0.424D-03 0.299D-02
 Coeff-Com: -0.430D-02-0.279D-01-0.135D+00-0.277D-01 0.608D+00 0.583D+00
 Coeff:      0.211D-03-0.497D-03-0.233D-03 0.159D-04 0.424D-03 0.299D-02
 Coeff:     -0.430D-02-0.279D-01-0.135D+00-0.277D-01 0.608D+00 0.583D+00
 Gap=     0.058 Goal=   None    Shift=    0.000
 RMSDP=4.87D-06 MaxDP=9.84D-05 DE=-2.80D-06 OVMax= 2.95D-04

 Initial convergence to 1.0D-05 achieved.  Increase integral accuracy.
 Cycle  13  Pass 1  IDiag  1:
 CalDSu:  requested number of processors reduced to:   3 ShMem   1 Linda.
 E= -460.647814785369     Delta-E=       -0.000002614798 Rises=F Damp=F
 DIIS: error= 7.91D-06 at cycle   1 NSaved=   1.
 NSaved= 1 IEnMin= 1 EnMin= -460.647814785369     IErMin= 1 ErrMin= 7.91D-06
 ErrMax= 7.91D-06  0.00D+00 EMaxC= 1.00D-01 BMatC= 1.53D-08 BMatP= 1.53D-08
 IDIUse=1 WtCom= 1.00D+00 WtEn= 0.00D+00
 Coeff-Com:  0.100D+01
 Coeff:      0.100D+01
 Gap=     0.058 Goal=   None    Shift=    0.000
 RMSDP=4.87D-06 MaxDP=9.84D-05 DE=-2.61D-06 OVMax= 1.26D-04

 Cycle  14  Pass 1  IDiag  1:
 CalDSu:  requested number of processors reduced to:   3 ShMem   1 Linda.
 E= -460.647814755863     Delta-E=        0.000000029506 Rises=F Damp=F
 DIIS: error= 1.81D-05 at cycle   2 NSaved=   2.
 NSaved= 2 IEnMin= 1 EnMin= -460.647814785369     IErMin= 1 ErrMin= 7.91D-06
 ErrMax= 1.81D-05  0.00D+00 EMaxC= 1.00D-01 BMatC= 5.16D-08 BMatP= 1.53D-08
 IDIUse=1 WtCom= 1.00D+00 WtEn= 0.00D+00
 Coeff-Com:  0.655D+00 0.345D+00
 Coeff:      0.655D+00 0.345D+00
 Gap=     0.058 Goal=   None    Shift=    0.000
 RMSDP=1.47D-06 MaxDP=3.91D-05 DE= 2.95D-08 OVMax= 7.12D-05

 Cycle  15  Pass 1  IDiag  1:
 CalDSu:  requested number of processors reduced to:   3 ShMem   1 Linda.
 E= -460.647814802076     Delta-E=       -0.000000046213 Rises=F Damp=F
 DIIS: error= 1.85D-06 at cycle   3 NSaved=   3.
 NSaved= 3 IEnMin= 3 EnMin= -460.647814802076     IErMin= 3 ErrMin= 1.85D-06
 ErrMax= 1.85D-06  0.00D+00 EMaxC= 1.00D-01 BMatC= 8.46D-10 BMatP= 1.53D-08
 IDIUse=1 WtCom= 1.00D+00 WtEn= 0.00D+00
 Coeff-Com:  0.230D+00 0.153D+00 0.617D+00
 Coeff:      0.230D+00 0.153D+00 0.617D+00
 Gap=     0.058 Goal=   None    Shift=    0.000
 RMSDP=3.38D-07 MaxDP=6.42D-06 DE=-4.62D-08 OVMax= 1.35D-05

 Cycle  16  Pass 1  IDiag  1:
 CalDSu:  requested number of processors reduced to:   3 ShMem   1 Linda.
 E= -460.647814802648     Delta-E=       -0.000000000571 Rises=F Damp=F
 DIIS: error= 8.43D-07 at cycle   4 NSaved=   4.
 NSaved= 4 IEnMin= 4 EnMin= -460.647814802648     IErMin= 4 ErrMin= 8.43D-07
 ErrMax= 8.43D-07  0.00D+00 EMaxC= 1.00D-01 BMatC= 2.39D-10 BMatP= 8.46D-10
 IDIUse=1 WtCom= 1.00D+00 WtEn= 0.00D+00
 Coeff-Com:  0.186D-01 0.249D-01 0.360D+00 0.596D+00
 Coeff:      0.186D-01 0.249D-01 0.360D+00 0.596D+00
 Gap=     0.058 Goal=   None    Shift=    0.000
 RMSDP=2.13D-07 MaxDP=4.90D-06 DE=-5.71D-10 OVMax= 1.99D-05

 Cycle  17  Pass 1  IDiag  1:
 CalDSu:  requested number of processors reduced to:   3 ShMem   1 Linda.
 E= -460.647814802901     Delta-E=       -0.000000000253 Rises=F Damp=F
 DIIS: error= 3.84D-07 at cycle   5 NSaved=   5.
 NSaved= 5 IEnMin= 5 EnMin= -460.647814802901     IErMin= 5 ErrMin= 3.84D-07
 ErrMax= 3.84D-07  0.00D+00 EMaxC= 1.00D-01 BMatC= 4.05D-11 BMatP= 2.39D-10
 IDIUse=1 WtCom= 1.00D+00 WtEn= 0.00D+00
 Coeff-Com: -0.162D-01-0.328D-02 0.153D+00 0.384D+00 0.482D+00
 Coeff:     -0.162D-01-0.328D-02 0.153D+00 0.384D+00 0.482D+00
 Gap=     0.058 Goal=   None    Shift=    0.000
 RMSDP=7.41D-08 MaxDP=1.30D-06 DE=-2.53D-10 OVMax= 3.84D-06

 SCF Done:  E(RB3LYP) =  -460.647814803     A.U. after   17 cycles
            NFock= 17  Conv=0.74D-07     -V/T= 2.0084
 KE= 4.568218713833D+02 PE=-2.092491091057D+03 EE= 6.721932495234D+02
 Leave Link  502 at Wed Dec 03 17:25:23 2025, MaxMem=   104857600 cpu:              20.0 elap:              19.7
 (Enter D:\Gaussian\G16W\l601.exe)
 Copying SCF densities to generalized density rwf, IOpCl= 0 IROHF=0.

 **********************************************************************

            Population analysis using the SCF density.

 **********************************************************************

 Orbital symmetries:
       Occupied  (A) (A) (A) (A) (A) (A) (A) (A) (A) (A) (A) (A)
                 (A) (A) (A) (A) (A) (A) (A) (A) (A) (A) (A) (A)
                 (A) (A) (A) (A) (A) (A) (A) (A) (A) (A) (A) (A)
                 (A)
       Virtual   (A) (A) (A) (A) (A) (A) (A) (A) (A) (A) (A) (A)
                 (A) (A) (A) (A) (A) (A) (A) (A) (A) (A) (A) (A)
                 (A) (A) (A) (A) (A) (A) (A) (A) (A) (A) (A) (A)
                 (A) (A) (A) (A) (A) (A) (A) (A) (A) (A) (A) (A)
                 (A) (A) (A) (A) (A) (A) (A) (A) (A) (A) (A) (A)
                 (A) (A) (A) (A) (A) (A) (A) (A) (A) (A) (A) (A)
                 (A) (A) (A) (A) (A) (A) (A) (A) (A) (A) (A) (A)
                 (A) (A) (A) (A) (A) (A) (A) (A) (A) (A) (A) (A)
                 (A) (A) (A) (A) (A) (A) (A) (A) (A) (A) (A) (A)
                 (A) (A) (A) (A) (A) (A) (A) (A) (A) (A) (A) (A)
                 (A) (A) (A) (A) (A) (A) (A) (A) (A) (A) (A)
 The electronic state is 1-A.
 Alpha  occ. eigenvalues --  -19.00454 -18.98225 -10.11562 -10.03666 -10.02699
 Alpha  occ. eigenvalues --  -10.01696  -9.98851  -9.98342  -9.96824  -9.96332
 Alpha  occ. eigenvalues --   -0.90744  -0.86675  -0.64434  -0.58885  -0.54122
 Alpha  occ. eigenvalues --   -0.52546  -0.43809  -0.41968  -0.40196  -0.33107
 Alpha  occ. eigenvalues --   -0.32457  -0.30151  -0.28883  -0.27179  -0.25440
 Alpha  occ. eigenvalues --   -0.24639  -0.24047  -0.22137  -0.20589  -0.19431
 Alpha  occ. eigenvalues --   -0.17336  -0.16780  -0.13942  -0.11293  -0.09703
 Alpha  occ. eigenvalues --   -0.03965   0.07038
 Alpha virt. eigenvalues --    0.12874   0.21119   0.25788   0.26818   0.27899
 Alpha virt. eigenvalues --    0.28308   0.29085   0.31162   0.32353   0.33007
 Alpha virt. eigenvalues --    0.35326   0.36369   0.40884   0.41419   0.45049
 Alpha virt. eigenvalues --    0.45911   0.46627   0.49883   0.53263   0.56361
 Alpha virt. eigenvalues --    0.61736   0.66131   0.67415   0.70671   0.72385
 Alpha virt. eigenvalues --    0.73811   0.75919   0.78021   0.78265   0.79099
 Alpha virt. eigenvalues --    0.80304   0.81413   0.82347   0.84193   0.85291
 Alpha virt. eigenvalues --    0.86260   0.89059   0.90522   0.91596   0.93612
 Alpha virt. eigenvalues --    0.95019   0.97882   0.98159   1.00715   1.02673
 Alpha virt. eigenvalues --    1.03213   1.03831   1.04092   1.05012   1.07389
 Alpha virt. eigenvalues --    1.08372   1.10551   1.11909   1.12673   1.14943
 Alpha virt. eigenvalues --    1.18412   1.20420   1.21988   1.23641   1.26179
 Alpha virt. eigenvalues --    1.33300   1.34199   1.36992   1.38013   1.46408
 Alpha virt. eigenvalues --    1.51233   1.55535   1.58692   1.59256   1.61950
 Alpha virt. eigenvalues --    1.63953   1.67432   1.70826   1.72660   1.78439
 Alpha virt. eigenvalues --    1.79202   1.87066   1.89526   1.92359   1.95037
 Alpha virt. eigenvalues --    1.96569   2.00365   2.04123   2.05488   2.06181
 Alpha virt. eigenvalues --    2.09083   2.10689   2.12914   2.15562   2.18873
 Alpha virt. eigenvalues --    2.21168   2.21764   2.23015   2.27323   2.30218
 Alpha virt. eigenvalues --    2.32078   2.34562   2.40673   2.44384   2.48911
 Alpha virt. eigenvalues --    2.51128   2.54294   2.56233   2.57883   2.61610
 Alpha virt. eigenvalues --    2.64978   2.69598   2.71133   2.73129   2.76547
 Alpha virt. eigenvalues --    2.82198   2.86595   2.92052   2.95301   3.00709
 Alpha virt. eigenvalues --    3.05176   3.07106   3.13539   3.16678   3.31680
 Alpha virt. eigenvalues --    3.52025   4.11522   4.16640   4.29504   4.31078
 Alpha virt. eigenvalues --    4.37925   4.41482   4.50301   4.59462   4.70527
 Alpha virt. eigenvalues --    4.96668
          Condensed to atoms (all electrons):
               1          2          3          4          5          6
     1  C    4.836124   0.456995  -0.004432  -0.050000  -0.029116   0.555755
     2  C    0.456995   5.033948   0.624607  -0.048509  -0.040143  -0.027434
     3  C   -0.004432   0.624607   4.705805   0.352107   0.005233  -0.038046
     4  C   -0.050000  -0.048509   0.352107   5.348759   0.304837  -0.010802
     5  C   -0.029116  -0.040143   0.005233   0.304837   5.252389   0.561469
     6  C    0.555755  -0.027434  -0.038046  -0.010802   0.561469   4.857631
     7  H    0.004265   0.001491   0.002333  -0.058049   0.327413  -0.033133
     8  O    0.000000   0.000294  -0.003575  -0.069291   0.002980  -0.000023
     9  O    0.002169  -0.041024   0.227500  -0.052527   0.002575   0.000620
    10  H   -0.063326   0.325478  -0.057610   0.009745  -0.000603   0.008378
    11  C    0.000442   0.000877  -0.006472   0.337913  -0.047395   0.000484
    12  H   -0.000264   0.000064   0.004955  -0.106060   0.022848  -0.000072
    13  H    0.000007   0.004277  -0.033089  -0.016073   0.000781  -0.000096
    14  H    0.005870  -0.006024  -0.072523   0.256278  -0.052435  -0.003634
    15  H   -0.050460   0.009231  -0.000128   0.007584  -0.068640   0.328989
    16  C    0.354309  -0.078924   0.008133   0.000176   0.010068  -0.059249
    17  H   -0.044074  -0.001078  -0.000011   0.000042  -0.000131   0.001135
    18  H   -0.045716   0.000256   0.000313  -0.000025   0.000089  -0.000345
    19  H   -0.023983   0.003767  -0.000166   0.000025  -0.000195  -0.004407
               7          8          9         10         11         12
     1  C    0.004265   0.000000   0.002169  -0.063326   0.000442  -0.000264
     2  C    0.001491   0.000294  -0.041024   0.325478   0.000877   0.000064
     3  C    0.002333  -0.003575   0.227500  -0.057610  -0.006472   0.004955
     4  C   -0.058049  -0.069291  -0.052527   0.009745   0.337913  -0.106060
     5  C    0.327413   0.002980   0.002575  -0.000603  -0.047395   0.022848
     6  C   -0.033133  -0.000023   0.000620   0.008378   0.000484  -0.000072
     7  H    0.742697  -0.000001  -0.000075   0.000022  -0.003501   0.005419
     8  O   -0.000001   8.068491  -0.018871  -0.000003   0.478420  -0.058129
     9  O   -0.000075  -0.018871   8.351010  -0.001568  -0.002801  -0.000441
    10  H    0.000022  -0.000003  -0.001568   0.746891  -0.000085   0.000008
    11  C   -0.003501   0.478420  -0.002801  -0.000085   4.865111   0.277785
    12  H    0.005419  -0.058129  -0.000441   0.000008   0.277785   0.778702
    13  H    0.000001   0.060874   0.224427  -0.000230  -0.006784   0.001668
    14  H    0.000317   0.004626   0.005886  -0.000333  -0.126307   0.015372
    15  H   -0.009601   0.000001   0.000002  -0.000182  -0.000009  -0.000012
    16  C   -0.000290   0.000000  -0.000071  -0.013591  -0.000004  -0.000002
    17  H    0.000005   0.000000   0.000000   0.003802   0.000000   0.000000
    18  H    0.000004   0.000000  -0.000004   0.001819   0.000001   0.000001
    19  H   -0.000015   0.000000   0.000000   0.000056   0.000000   0.000000
              13         14         15         16         17         18
     1  C    0.000007   0.005870  -0.050460   0.354309  -0.044074  -0.045716
     2  C    0.004277  -0.006024   0.009231  -0.078924  -0.001078   0.000256
     3  C   -0.033089  -0.072523  -0.000128   0.008133  -0.000011   0.000313
     4  C   -0.016073   0.256278   0.007584   0.000176   0.000042  -0.000025
     5  C    0.000781  -0.052435  -0.068640   0.010068  -0.000131   0.000089
     6  C   -0.000096  -0.003634   0.328989  -0.059249   0.001135  -0.000345
     7  H    0.000001   0.000317  -0.009601  -0.000290   0.000005   0.000004
     8  O    0.060874   0.004626   0.000001   0.000000   0.000000   0.000000
     9  O    0.224427   0.005886   0.000002  -0.000071   0.000000  -0.000004
    10  H   -0.000230  -0.000333  -0.000182  -0.013591   0.003802   0.001819
    11  C   -0.006784  -0.126307  -0.000009  -0.000004   0.000000   0.000001
    12  H    0.001668   0.015372  -0.000012  -0.000002   0.000000   0.000001
    13  H    0.361003   0.001924  -0.000001   0.000006   0.000000   0.000000
    14  H    0.001924   0.920677  -0.000267   0.000030  -0.000020   0.000008
    15  H   -0.000001  -0.000267   0.763803  -0.017300   0.000229   0.000045
    16  C    0.000006   0.000030  -0.017300   5.288944   0.335891   0.337251
    17  H    0.000000  -0.000020   0.000229   0.335891   0.717962  -0.070430
    18  H    0.000000   0.000008   0.000045   0.337251  -0.070430   0.722361
    19  H    0.000000  -0.000001   0.010196   0.347559  -0.033394  -0.035745
              19
     1  C   -0.023983
     2  C    0.003767
     3  C   -0.000166
     4  C    0.000025
     5  C   -0.000195
     6  C   -0.004407
     7  H   -0.000015
     8  O    0.000000
     9  O    0.000000
    10  H    0.000056
    11  C    0.000000
    12  H    0.000000
    13  H    0.000000
    14  H   -0.000001
    15  H    0.010196
    16  C    0.347559
    17  H   -0.033394
    18  H   -0.035745
    19  H    0.638827
 Mulliken charges:
               1
     1  C    0.095434
     2  C   -0.218149
     3  C    0.285065
     4  C   -0.206132
     5  C   -0.252023
     6  C   -0.137220
     7  H    0.020698
     8  O   -0.465793
     9  O   -0.696808
    10  H    0.041333
    11  C    0.232327
    12  H    0.058157
    13  H    0.401305
    14  H    0.050557
    15  H    0.026520
    16  C   -0.512939
    17  H    0.090074
    18  H    0.090118
    19  H    0.097474
 Sum of Mulliken charges =  -1.00000
 Mulliken charges with hydrogens summed into heavy atoms:
               1
     1  C    0.095434
     2  C   -0.176816
     3  C    0.285065
     4  C   -0.155575
     5  C   -0.231325
     6  C   -0.110700
     8  O   -0.465793
     9  O   -0.295503
    11  C    0.290484
    16  C   -0.235272
 Electronic spatial extent (au):  <R**2>=           1570.2338
 Charge=             -1.0000 electrons
 Dipole moment (field-independent basis, Debye):
    X=              0.6669    Y=              0.8659    Z=              0.1522  Tot=              1.1035
 Quadrupole moment (field-independent basis, Debye-Ang):
   XX=            -82.4412   YY=            -69.9502   ZZ=            -65.5058
   XY=              2.1112   XZ=             -1.4690   YZ=             -0.1821
 Traceless Quadrupole moment (field-independent basis, Debye-Ang):
   XX=             -9.8088   YY=              2.6822   ZZ=              7.1266
   XY=              2.1112   XZ=             -1.4690   YZ=             -0.1821
 Octapole moment (field-independent basis, Debye-Ang**2):
  XXX=             19.7509  YYY=             -3.8077  ZZZ=              3.5738  XYY=              7.5869
  XXY=              1.1881  XXZ=            -10.6977  XZZ=              9.2023  YZZ=             -4.6724
  YYZ=              3.6950  XYZ=             -1.3564
 Hexadecapole moment (field-independent basis, Debye-Ang**3):
 XXXX=          -1717.6410 YYYY=           -568.2987 ZZZZ=           -130.4953 XXXY=            -39.9373
 XXXZ=            -15.7800 YYYX=              2.6136 YYYZ=             -1.2556 ZZZX=              8.3013
 ZZZY=              5.1399 XXYY=           -326.8607 XXZZ=           -279.6712 YYZZ=           -116.8999
 XXYZ=              3.6093 YYXZ=              4.6703 ZZXY=             -2.3062
 N-N= 5.028281553473D+02 E-N=-2.092491068110D+03  KE= 4.568218713833D+02
 No NMR shielding tensors so no spin-rotation constants.
 Leave Link  601 at Wed Dec 03 17:25:23 2025, MaxMem=   104857600 cpu:               0.0 elap:               0.2
 (Enter D:\Gaussian\G16W\l9999.exe)
 1|1|UNPC-PC-20250526LCFF|SP|RB3LYP|6-31G(d)|C8H9O2(1-)|ADMINISTRATOR|0
 3-Dec-2025|0||#P B3LYP/6-31G* SCF=conver=7 out=wfn||Generated by Multi
 wfn (http://sobereva.com/multiwfn)||-1,1|C,0,-1.894406,-0.035244,0.075
 253|C,0,-0.92865,-1.075407,0.015703|C,0,0.390327,-0.83212,-0.226834|C,
 0,0.913905,0.564962,-0.484087|C,0,-0.149407,1.616229,-0.344312|C,0,-1.
 45439,1.299247,-0.100972|H,0,0.150002,2.649495,-0.484469|O,0,3.046446,
 0.054554,0.540717|O,0,1.277411,-1.851619,-0.308006|H,0,-1.226462,-2.10
 767,0.168257|C,0,2.14891,0.850313,0.385231|H,0,2.183151,1.844755,0.873
 033|H,0,2.168783,-1.49429,-0.148363|H,0,1.333558,0.573191,-1.514223|H,
 0,-2.184717,2.099977,-0.034052|C,0,-3.335954,-0.359983,0.348651|H,0,-3
 .740524,-1.050044,-0.400921|H,0,-3.46087,-0.845783,1.32387|H,0,-3.9557
 83,0.53891,0.343389||Version=EM64W-G16RevA.03|State=1-A|HF=-460.647814
 8|RMSD=7.414e-008|Dipole=0.2623775,0.3406892,0.0598639|Quadrupole=-7.2
 925678,1.9941327,5.2984351,1.5696085,-1.0921584,-0.1354146|PG=C01 [X(C
 8H9O2)]||@

 Writing a WFN file to "N+1.wfn"


 FROM AN ANONYMOUS WRITER, ON PERSPECTIVE:

 MAN, DESPITE HIS ARTISTIC PRETENSIONS, HIS SOPHISTICATION AND MANY 
 ACCOMPLISHMENTS, OWES THE FACT OF HIS EXISTENCE TO A SIX-INCH LAYER OF 
 TOPSOIL AND THE FACT THAT IT RAINS.
 Job cpu time:       0 days  0 hours  0 minutes 22.0 seconds.
 Elapsed time:       0 days  0 hours  0 minutes 21.8 seconds.
 File lengths (MBytes):  RWF=     15 Int=      0 D2E=      0 Chk=      3 Scr=      1
 Normal termination of Gaussian 16 at Wed Dec 03 17:25:23 2025.
