 Generated by Multiwfn (http://sobereva.com/multiwfn)
GAUSSIAN             36 MOL ORBITALS    316 PRIMITIVES       19 NUCLEI
  C    1    (CENTRE  1)  -3.57990860 -0.06660204  0.14220738  CHARGE =  6.0
  C    2    (CENTRE  2)  -1.75489401 -2.03222500  0.02967419  CHARGE =  6.0
  C    3    (CENTRE  3)   0.73761123 -1.57247889 -0.42865432  CHARGE =  6.0
  C    4    (CENTRE  4)   1.72702991  1.06762359 -0.91479203  CHARGE =  6.0
  C    5    (CENTRE  5)  -0.28233880  3.05423005 -0.65065556  CHARGE =  6.0
  C    6    (CENTRE  6)  -2.74839919  2.45522057 -0.19080961  CHARGE =  6.0
  H    7    (CENTRE  7)   0.28346196  5.00681988 -0.91551391  CHARGE =  1.0
  O    8    (CENTRE  8)   5.75694848  0.10309278  1.02180686  CHARGE =  8.0
  O    9    (CENTRE  9)   2.41395728 -3.49905257 -0.58204717  CHARGE =  8.0
  H   10    (CENTRE 10)  -2.31767688 -3.98291943  0.31795947  CHARGE =  1.0
  C   11    (CENTRE 11)   4.06085106  1.60685913  0.72798090  CHARGE =  6.0
  H   12    (CENTRE 12)   4.12555693  3.48608217  1.64979309  CHARGE =  1.0
  H   13    (CENTRE 13)   4.09840615 -2.82379841 -0.28036562  CHARGE =  1.0
  H   14    (CENTRE 14)   2.52005915  1.08317425 -2.86146694  CHARGE =  1.0
  H   15    (CENTRE 15)  -4.12851740  3.96838079 -0.06434914  CHARGE =  1.0
  C   16    (CENTRE 16)  -6.30403944 -0.68027016  0.65885472  CHARGE =  6.0
  H   17    (CENTRE 17)  -7.06856577 -1.98429656 -0.75763107  CHARGE =  1.0
  H   18    (CENTRE 18)  -6.54009635 -1.59829914  2.50175154  CHARGE =  1.0
  H   19    (CENTRE 19)  -7.47534671  1.01839128  0.64891098  CHARGE =  1.0
CENTRE ASSIGNMENTS    1  1  1  1  1  1  1  1  1  1  1  1  1  1  1  1  1  1  1  1
CENTRE ASSIGNMENTS    1  1  1  1  1  1  1  1  2  2  2  2  2  2  2  2  2  2  2  2
CENTRE ASSIGNMENTS    2  2  2  2  2  2  2  2  2  2  2  2  2  2  2  2  3  3  3  3
CENTRE ASSIGNMENTS    3  3  3  3  3  3  3  3  3  3  3  3  3  3  3  3  3  3  3  3
CENTRE ASSIGNMENTS    3  3  3  3  4  4  4  4  4  4  4  4  4  4  4  4  4  4  4  4
CENTRE ASSIGNMENTS    4  4  4  4  4  4  4  4  4  4  4  4  5  5  5  5  5  5  5  5
CENTRE ASSIGNMENTS    5  5  5  5  5  5  5  5  5  5  5  5  5  5  5  5  5  5  5  5
CENTRE ASSIGNMENTS    6  6  6  6  6  6  6  6  6  6  6  6  6  6  6  6  6  6  6  6
CENTRE ASSIGNMENTS    6  6  6  6  6  6  6  6  7  7  7  7  8  8  8  8  8  8  8  8
CENTRE ASSIGNMENTS    8  8  8  8  8  8  8  8  8  8  8  8  8  8  8  8  8  8  8  8
CENTRE ASSIGNMENTS    9  9  9  9  9  9  9  9  9  9  9  9  9  9  9  9  9  9  9  9
CENTRE ASSIGNMENTS    9  9  9  9  9  9  9  9 10 10 10 10 11 11 11 11 11 11 11 11
CENTRE ASSIGNMENTS   11 11 11 11 11 11 11 11 11 11 11 11 11 11 11 11 11 11 11 11
CENTRE ASSIGNMENTS   12 12 12 12 13 13 13 13 14 14 14 14 15 15 15 15 16 16 16 16
CENTRE ASSIGNMENTS   16 16 16 16 16 16 16 16 16 16 16 16 16 16 16 16 16 16 16 16
CENTRE ASSIGNMENTS   16 16 16 16 17 17 17 17 18 18 18 18 19 19 19 19
TYPE ASSIGNMENTS      1  1  1  1  1  1  1  1  1  2  2  2  3  3  3  4  4  4  1  2
TYPE ASSIGNMENTS      3  4  5  6  7  8  9 10  1  1  1  1  1  1  1  1  1  2  2  2
TYPE ASSIGNMENTS      3  3  3  4  4  4  1  2  3  4  5  6  7  8  9 10  1  1  1  1
TYPE ASSIGNMENTS      1  1  1  1  1  2  2  2  3  3  3  4  4  4  1  2  3  4  5  6
TYPE ASSIGNMENTS      7  8  9 10  1  1  1  1  1  1  1  1  1  2  2  2  3  3  3  4
TYPE ASSIGNMENTS      4  4  1  2  3  4  5  6  7  8  9 10  1  1  1  1  1  1  1  1
TYPE ASSIGNMENTS      1  2  2  2  3  3  3  4  4  4  1  2  3  4  5  6  7  8  9 10
TYPE ASSIGNMENTS      1  1  1  1  1  1  1  1  1  2  2  2  3  3  3  4  4  4  1  2
TYPE ASSIGNMENTS      3  4  5  6  7  8  9 10  1  1  1  1  1  1  1  1  1  1  1  1
TYPE ASSIGNMENTS      1  2  2  2  3  3  3  4  4  4  1  2  3  4  5  6  7  8  9 10
TYPE ASSIGNMENTS      1  1  1  1  1  1  1  1  1  2  2  2  3  3  3  4  4  4  1  2
TYPE ASSIGNMENTS      3  4  5  6  7  8  9 10  1  1  1  1  1  1  1  1  1  1  1  1
TYPE ASSIGNMENTS      1  2  2  2  3  3  3  4  4  4  1  2  3  4  5  6  7  8  9 10
TYPE ASSIGNMENTS      1  1  1  1  1  1  1  1  1  1  1  1  1  1  1  1  1  1  1  1
TYPE ASSIGNMENTS      1  1  1  1  1  2  2  2  3  3  3  4  4  4  1  2  3  4  5  6
TYPE ASSIGNMENTS      7  8  9 10  1  1  1  1  1  1  1  1  1  1  1  1
EXPONENTS  0.3047525D+04 0.4573695D+03 0.1039487D+03 0.2921016D+02 0.9286663D+01
EXPONENTS  0.3163927D+01 0.7868272D+01 0.1881289D+01 0.5442493D+00 0.7868272D+01
EXPONENTS  0.1881289D+01 0.5442493D+00 0.7868272D+01 0.1881289D+01 0.5442493D+00
EXPONENTS  0.7868272D+01 0.1881289D+01 0.5442493D+00 0.1687145D+00 0.1687145D+00
EXPONENTS  0.1687145D+00 0.1687145D+00 0.8000000D+00 0.8000000D+00 0.8000000D+00
EXPONENTS  0.8000000D+00 0.8000000D+00 0.8000000D+00 0.3047525D+04 0.4573695D+03
EXPONENTS  0.1039487D+03 0.2921016D+02 0.9286663D+01 0.3163927D+01 0.7868272D+01
EXPONENTS  0.1881289D+01 0.5442493D+00 0.7868272D+01 0.1881289D+01 0.5442493D+00
EXPONENTS  0.7868272D+01 0.1881289D+01 0.5442493D+00 0.7868272D+01 0.1881289D+01
EXPONENTS  0.5442493D+00 0.1687145D+00 0.1687145D+00 0.1687145D+00 0.1687145D+00
EXPONENTS  0.8000000D+00 0.8000000D+00 0.8000000D+00 0.8000000D+00 0.8000000D+00
EXPONENTS  0.8000000D+00 0.3047525D+04 0.4573695D+03 0.1039487D+03 0.2921016D+02
EXPONENTS  0.9286663D+01 0.3163927D+01 0.7868272D+01 0.1881289D+01 0.5442493D+00
EXPONENTS  0.7868272D+01 0.1881289D+01 0.5442493D+00 0.7868272D+01 0.1881289D+01
EXPONENTS  0.5442493D+00 0.7868272D+01 0.1881289D+01 0.5442493D+00 0.1687145D+00
EXPONENTS  0.1687145D+00 0.1687145D+00 0.1687145D+00 0.8000000D+00 0.8000000D+00
EXPONENTS  0.8000000D+00 0.8000000D+00 0.8000000D+00 0.8000000D+00 0.3047525D+04
EXPONENTS  0.4573695D+03 0.1039487D+03 0.2921016D+02 0.9286663D+01 0.3163927D+01
EXPONENTS  0.7868272D+01 0.1881289D+01 0.5442493D+00 0.7868272D+01 0.1881289D+01
EXPONENTS  0.5442493D+00 0.7868272D+01 0.1881289D+01 0.5442493D+00 0.7868272D+01
EXPONENTS  0.1881289D+01 0.5442493D+00 0.1687145D+00 0.1687145D+00 0.1687145D+00
EXPONENTS  0.1687145D+00 0.8000000D+00 0.8000000D+00 0.8000000D+00 0.8000000D+00
EXPONENTS  0.8000000D+00 0.8000000D+00 0.3047525D+04 0.4573695D+03 0.1039487D+03
EXPONENTS  0.2921016D+02 0.9286663D+01 0.3163927D+01 0.7868272D+01 0.1881289D+01
EXPONENTS  0.5442493D+00 0.7868272D+01 0.1881289D+01 0.5442493D+00 0.7868272D+01
EXPONENTS  0.1881289D+01 0.5442493D+00 0.7868272D+01 0.1881289D+01 0.5442493D+00
EXPONENTS  0.1687145D+00 0.1687145D+00 0.1687145D+00 0.1687145D+00 0.8000000D+00
EXPONENTS  0.8000000D+00 0.8000000D+00 0.8000000D+00 0.8000000D+00 0.8000000D+00
EXPONENTS  0.3047525D+04 0.4573695D+03 0.1039487D+03 0.2921016D+02 0.9286663D+01
EXPONENTS  0.3163927D+01 0.7868272D+01 0.1881289D+01 0.5442493D+00 0.7868272D+01
EXPONENTS  0.1881289D+01 0.5442493D+00 0.7868272D+01 0.1881289D+01 0.5442493D+00
EXPONENTS  0.7868272D+01 0.1881289D+01 0.5442493D+00 0.1687145D+00 0.1687145D+00
EXPONENTS  0.1687145D+00 0.1687145D+00 0.8000000D+00 0.8000000D+00 0.8000000D+00
EXPONENTS  0.8000000D+00 0.8000000D+00 0.8000000D+00 0.1873114D+02 0.2825394D+01
EXPONENTS  0.6401217D+00 0.1612778D+00 0.5484672D+04 0.8252349D+03 0.1880470D+03
EXPONENTS  0.5296450D+02 0.1689757D+02 0.5799635D+01 0.1553962D+02 0.3599934D+01
EXPONENTS  0.1013762D+01 0.1553962D+02 0.3599934D+01 0.1013762D+01 0.1553962D+02
EXPONENTS  0.3599934D+01 0.1013762D+01 0.1553962D+02 0.3599934D+01 0.1013762D+01
EXPONENTS  0.2700058D+00 0.2700058D+00 0.2700058D+00 0.2700058D+00 0.8000000D+00
EXPONENTS  0.8000000D+00 0.8000000D+00 0.8000000D+00 0.8000000D+00 0.8000000D+00
EXPONENTS  0.5484672D+04 0.8252349D+03 0.1880470D+03 0.5296450D+02 0.1689757D+02
EXPONENTS  0.5799635D+01 0.1553962D+02 0.3599934D+01 0.1013762D+01 0.1553962D+02
EXPONENTS  0.3599934D+01 0.1013762D+01 0.1553962D+02 0.3599934D+01 0.1013762D+01
EXPONENTS  0.1553962D+02 0.3599934D+01 0.1013762D+01 0.2700058D+00 0.2700058D+00
EXPONENTS  0.2700058D+00 0.2700058D+00 0.8000000D+00 0.8000000D+00 0.8000000D+00
EXPONENTS  0.8000000D+00 0.8000000D+00 0.8000000D+00 0.1873114D+02 0.2825394D+01
EXPONENTS  0.6401217D+00 0.1612778D+00 0.3047525D+04 0.4573695D+03 0.1039487D+03
EXPONENTS  0.2921016D+02 0.9286663D+01 0.3163927D+01 0.7868272D+01 0.1881289D+01
EXPONENTS  0.5442493D+00 0.7868272D+01 0.1881289D+01 0.5442493D+00 0.7868272D+01
EXPONENTS  0.1881289D+01 0.5442493D+00 0.7868272D+01 0.1881289D+01 0.5442493D+00
EXPONENTS  0.1687145D+00 0.1687145D+00 0.1687145D+00 0.1687145D+00 0.8000000D+00
EXPONENTS  0.8000000D+00 0.8000000D+00 0.8000000D+00 0.8000000D+00 0.8000000D+00
EXPONENTS  0.1873114D+02 0.2825394D+01 0.6401217D+00 0.1612778D+00 0.1873114D+02
EXPONENTS  0.2825394D+01 0.6401217D+00 0.1612778D+00 0.1873114D+02 0.2825394D+01
EXPONENTS  0.6401217D+00 0.1612778D+00 0.1873114D+02 0.2825394D+01 0.6401217D+00
EXPONENTS  0.1612778D+00 0.3047525D+04 0.4573695D+03 0.1039487D+03 0.2921016D+02
EXPONENTS  0.9286663D+01 0.3163927D+01 0.7868272D+01 0.1881289D+01 0.5442493D+00
EXPONENTS  0.7868272D+01 0.1881289D+01 0.5442493D+00 0.7868272D+01 0.1881289D+01
EXPONENTS  0.5442493D+00 0.7868272D+01 0.1881289D+01 0.5442493D+00 0.1687145D+00
EXPONENTS  0.1687145D+00 0.1687145D+00 0.1687145D+00 0.8000000D+00 0.8000000D+00
EXPONENTS  0.8000000D+00 0.8000000D+00 0.8000000D+00 0.8000000D+00 0.1873114D+02
EXPONENTS  0.2825394D+01 0.6401217D+00 0.1612778D+00 0.1873114D+02 0.2825394D+01
EXPONENTS  0.6401217D+00 0.1612778D+00 0.1873114D+02 0.2825394D+01 0.6401217D+00
EXPONENTS  0.1612778D+00
MO    1     MO 0.0        OCC NO =    2.0000000  ORB. ENERGY =  -19.378756
  0.51286877D-05  0.94614274D-05  0.15273677D-04  0.19881790D-04  0.16965167D-04
  0.58576646D-05 -0.93791483D-05 -0.43228409D-05  0.12121697D-04  0.90141156D-04
  0.69114521D-04  0.34492990D-04 -0.37470300D-04 -0.28729849D-04 -0.14338208D-04
 -0.10129253D-04 -0.77664684D-05 -0.38760120D-05  0.12656578D-03 -0.31310788D-04
  0.23385813D-04  0.56170154D-05  0.20707344D-04  0.35039861D-04  0.36080092D-04
  0.91359663D-06  0.69085439D-05 -0.18020493D-05  0.21386106D-05  0.39453189D-05
  0.63689680D-05  0.82905040D-05  0.70743021D-05  0.24425865D-05 -0.45326772D-04
 -0.20891068D-04  0.58580735D-04  0.29962085D-04  0.22973027D-04  0.11465150D-04
  0.22878074D-04  0.17541456D-04  0.87544158D-05 -0.60769173D-05 -0.46593947D-05
 -0.23253645D-05 -0.63531735D-04 -0.32378550D-04 -0.16901691D-03  0.14730558D-04
 -0.87282912D-04 -0.56401413D-04  0.16371088D-04 -0.80980560D-05  0.27884307D-04
  0.39876596D-05 -0.16658720D-04 -0.30732086D-04 -0.49611116D-04 -0.64578933D-04
 -0.55105320D-04 -0.19026543D-04 -0.99509619D-04 -0.45863892D-04  0.12860714D-03
  0.30429413D-03  0.23331344D-03  0.11643976D-03 -0.47605472D-03 -0.36500857D-03
 -0.18216486D-03 -0.31120680D-04 -0.23861363D-04 -0.11908493D-04 -0.20372092D-03
 -0.28021753D-03  0.47082389D-03  0.24406908D-04 -0.72124839D-04 -0.23961295D-04
 -0.68571085D-04  0.86401599D-04  0.51682851D-06 -0.13972002D-05  0.19706533D-04
  0.36354706D-04  0.58687768D-04  0.76394036D-04  0.65187169D-04  0.22507563D-04
 -0.98506807D-04 -0.45401697D-04  0.12731110D-03  0.51958821D-05  0.39838728D-05
  0.19882318D-05  0.62700403D-04  0.48074692D-04  0.23992641D-04  0.21768507D-04
  0.16690711D-04  0.83298344D-05 -0.35521078D-03  0.13860866D-03  0.73729399D-05
 -0.63670032D-04 -0.28270762D-04 -0.19001691D-04  0.65636578D-04 -0.43329669D-04
  0.31466964D-04  0.39833767D-04  0.20534304D-05  0.37881780D-05  0.61152939D-05
  0.79602957D-05  0.67925347D-05  0.23452990D-05 -0.58612116D-06 -0.27014271D-06
  0.75750835D-06  0.21706977D-04  0.16643533D-04  0.83062894D-05 -0.69856329D-04
 -0.53561402D-04 -0.26730894D-04  0.35154537D-05  0.26954269D-05  0.13452069D-05
  0.11012206D-03  0.57758415D-04 -0.26370060D-04 -0.24533895D-05  0.32475275D-04
  0.41541811D-05  0.21686173D-04 -0.43582960D-04  0.15272375D-04  0.28047084D-05
  0.50347548D-05  0.92881394D-05  0.14993937D-04  0.19517651D-04  0.16654447D-04
  0.57503803D-05 -0.17549630D-04 -0.80886085D-05  0.22681302D-04  0.24799887D-04
  0.19014981D-04  0.94898080D-05 -0.38240103D-04 -0.29320085D-04 -0.14632777D-04
  0.33614871D-05  0.25773751D-05  0.12862908D-05 -0.31280989D-04  0.90052723D-05
  0.47425080D-04 -0.82341691D-05 -0.55345204D-06  0.16603760D-05  0.30550150D-04
 -0.40854118D-04  0.10753743D-04  0.13088276D-04 -0.34293706D-05 -0.58168616D-05
 -0.66222914D-05 -0.15717149D-04 -0.11103122D-04 -0.20435672D-04 -0.33068774D-04
 -0.43469829D-04 -0.37283820D-04 -0.12747971D-04  0.19180409D-04  0.85582613D-05
 -0.25272660D-04 -0.23083338D-04 -0.17784467D-04 -0.78083391D-05  0.54174718D-04
  0.41738700D-04  0.18325537D-04  0.42845481D-04  0.33010133D-04  0.14493227D-04
  0.10809932D-04  0.28980793D-04 -0.74579077D-04 -0.21531349D-04 -0.77404654D-04
 -0.10197540D-04 -0.21425302D-04  0.95131944D-04 -0.66135197D-05  0.33797479D-04
  0.82563022D+00  0.15196004D+01  0.24590002D+01  0.32324246D+01  0.27724318D+01
  0.94794152D+00 -0.15806702D-01 -0.70529197D-02  0.20827366D-01  0.63242643D-03
  0.48725047D-03  0.21392920D-03  0.30667315D-02  0.23627513D-02  0.10373751D-02
  0.42496934D-03  0.32741596D-03  0.14375324D-03  0.38009348D-02 -0.19430465D-03
  0.20724340D-03  0.31625622D-04 -0.91802844D-02 -0.92294168D-02 -0.92345607D-02
 -0.11281941D-03 -0.17021494D-04  0.17395466D-05 -0.26645732D-05 -0.45196205D-05
 -0.51454282D-05 -0.99998936D-04  0.18071465D-05  0.33338324D-05  0.53818392D-05
  0.70055555D-05  0.59778532D-05  0.20640091D-05  0.10964459D-04  0.50535090D-05
 -0.14170567D-04  0.30551617D-04  0.23425042D-04  0.11690738D-04 -0.49971706D-04
 -0.38315134D-04 -0.19121937D-04 -0.43890108D-05 -0.33652151D-05 -0.16794782D-05
  0.62703170D-04 -0.37846566D-05 -0.28739916D-04  0.18286006D-04  0.73751093D-04
  0.67182641D-04 -0.25522760D-04 -0.31159533D-04  0.31922327D-04 -0.75371374D-05
 -0.24183386D-05 -0.41019600D-05 -0.46699365D-05 -0.22814249D-06  0.86280324D-04
  0.14634776D-03  0.16661175D-03 -0.26730665D-03  0.14697717D-05  0.24930110D-05
  0.28382049D-05 -0.87976907D-05 -0.26346164D-05 -0.44688081D-05 -0.50875801D-05
 -0.12019876D-04  0.51954922D-05  0.95846687D-05  0.15472627D-04  0.20140763D-04
  0.17186150D-04  0.59339645D-05 -0.19189365D-04 -0.88443610D-05  0.24800511D-04
 -0.13445705D-04 -0.10309313D-04 -0.51450700D-05 -0.83078786D-05 -0.63699544D-05
 -0.31790537D-05  0.13543269D-05  0.10384119D-05  0.51824033D-06 -0.73966374D-04
 -0.20576728D-04 -0.97045389D-05  0.45016777D-05 -0.82874897D-06  0.11874889D-04
  0.18182988D-04 -0.20219740D-04  0.73886042D-05  0.35692762D-05  0.27961869D-05
  0.47428623D-05  0.53995811D-05  0.31685508D-05  0.22961478D-05  0.38947012D-05
  0.44339796D-05  0.36329686D-05  0.30364311D-05  0.51503619D-05  0.58635050D-05
  0.65423866D-05
MO    2     MO 0.0        OCC NO =    2.0000000  ORB. ENERGY =  -19.356757
 -0.19438152D-05 -0.35859594D-05 -0.57888504D-05 -0.75353632D-05 -0.64299391D-05
 -0.22201034D-05  0.86210531D-05  0.39734355D-05 -0.11141928D-04 -0.22805693D-04
 -0.17485959D-04 -0.87267188D-05 -0.10823520D-05 -0.82987887D-06 -0.41416772D-06
  0.94931139D-05  0.72787177D-05  0.36325902D-05  0.12956649D-04  0.49026034D-04
 -0.39541864D-05 -0.11882418D-04  0.36534250D-05  0.53814835D-06 -0.66674418D-05
 -0.14223575D-04 -0.20244204D-05 -0.17010091D-04  0.40598019D-05  0.74895418D-05
  0.12090443D-04  0.15738164D-04  0.13429404D-04  0.46368504D-05 -0.20912068D-04
 -0.96383529D-05  0.27026948D-04 -0.18366018D-04 -0.14081897D-04 -0.70278538D-05
 -0.71326187D-05 -0.54688396D-05 -0.27293343D-05  0.95335528D-05  0.73097236D-05
  0.36480644D-05 -0.15458331D-03 -0.53376277D-04 -0.11345288D-04  0.19663052D-05
 -0.32677665D-04  0.73216961D-06  0.16212714D-04  0.61106377D-05 -0.14292129D-05
 -0.15296050D-05 -0.27132259D-05 -0.50053719D-05 -0.80802223D-05 -0.10518049D-04
 -0.89750699D-05 -0.30988760D-05  0.30769363D-04  0.14181571D-04 -0.39766607D-04
  0.53544247D-04  0.41054333D-04  0.20488989D-04 -0.35708168D-04 -0.27378758D-04
 -0.13663919D-04 -0.21468075D-04 -0.16460359D-04 -0.82148725D-05  0.10293158D-03
 -0.60960641D-04 -0.77667525D-04  0.41456956D-04  0.80133721D-04  0.30520458D-04
 -0.12914074D-04 -0.49972497D-04  0.37230813D-04  0.29076546D-04 -0.80315051D-05
 -0.14816559D-04 -0.23918520D-04 -0.31134806D-04 -0.26567386D-04 -0.91730801D-05
  0.24636433D-04  0.11354910D-04 -0.31840352D-04 -0.25662818D-04 -0.19676621D-04
 -0.98200130D-05  0.32460019D-04  0.24888284D-04  0.12420998D-04  0.21082008D-04
  0.16164346D-04  0.80671417D-05  0.15370269D-03  0.66464710D-04 -0.74968428D-04
  0.64458310D-05 -0.28483315D-04 -0.39766514D-05 -0.46009904D-05  0.42100694D-04
  0.15534435D-04  0.84355578D-05  0.10737941D-04  0.19809404D-04  0.31978520D-04
  0.41626531D-04  0.35519994D-04  0.12264200D-04 -0.28798172D-04 -0.13273051D-04
  0.37219021D-04  0.86338878D-04  0.66199175D-04  0.33038028D-04 -0.72138472D-05
 -0.55311205D-05 -0.27604168D-05  0.32507146D-04  0.24924418D-04  0.12439031D-04
  0.50836488D-04 -0.12011418D-03 -0.29235785D-04 -0.21332947D-04  0.40380867D-04
  0.36922953D-04  0.52343543D-04  0.46630936D-04 -0.87623474D-04  0.37234518D-04
  0.17270107D-05  0.31859975D-05  0.51431879D-05  0.66949024D-05  0.57127724D-05
  0.19724830D-05 -0.10868787D-04 -0.50094141D-05  0.14046920D-04 -0.24876045D-04
 -0.19073374D-04 -0.95189502D-05  0.94679004D-05  0.72593855D-05  0.36229421D-05
 -0.13299296D-04 -0.10197056D-04 -0.50890458D-05 -0.13066232D-03 -0.57517149D-04
 -0.11858684D-04  0.29261294D-04 -0.22915795D-04  0.76466317D-07  0.11633522D-05
 -0.85974737D-05  0.37941901D-04  0.10717201D-05  0.15430908D-04  0.26173740D-04
  0.29797878D-04  0.18010879D-04  0.82566463D+00  0.15196637D+01  0.24591027D+01
  0.32325593D+01  0.27725473D+01  0.94798102D+00 -0.15792459D-01 -0.70465646D-02
  0.20808600D-01 -0.29222453D-02 -0.22514325D-02 -0.98850013D-03  0.23486237D-02
  0.18094880D-02  0.79446268D-03 -0.61188302D-03 -0.47142288D-03 -0.20698004D-03
  0.38694003D-02 -0.38369558D-03  0.22903502D-03 -0.10010360D-03 -0.88302570D-02
 -0.89310045D-02 -0.92141069D-02 -0.56071994D-03  0.19925154D-03 -0.70201209D-04
 -0.11626142D-04 -0.21398307D-04 -0.34626500D-04 -0.45517504D-04 -0.39040099D-04
 -0.13348473D-04  0.53250107D-04  0.23760094D-04 -0.70163875D-04 -0.14115167D-03
 -0.10874975D-03 -0.47746998D-04  0.64683699D-04  0.49835303D-04  0.21880382D-04
  0.55440595D-04  0.42713989D-04  0.18753742D-04  0.12754184D-03  0.15436150D-03
 -0.36603941D-05 -0.98149779D-05 -0.46184535D-05 -0.91620973D-04 -0.63389743D-04
  0.13715845D-03  0.48760219D-04 -0.27668015D-04  0.27746390D-05  0.47063129D-05
  0.53579708D-05  0.82274340D-07  0.72389889D-05  0.13354521D-04  0.21558338D-04
  0.28062550D-04  0.23945825D-04  0.82679179D-05 -0.20865743D-03 -0.96170017D-04
  0.26967077D-03 -0.42857441D-04 -0.32860368D-04 -0.16399626D-04  0.40219593D-04
  0.30837833D-04  0.15390240D-04 -0.13974999D-04 -0.10715143D-04 -0.53476073D-05
 -0.67574273D-03 -0.30039849D-03  0.36296601D-03 -0.28841496D-05 -0.53123858D-03
 -0.49430286D-03 -0.54473808D-04  0.96110617D-03 -0.17556359D-03  0.12133186D-03
 -0.79002641D-05 -0.13400343D-04 -0.15255817D-04 -0.75455972D-04 -0.30159070D-04
 -0.51155491D-04 -0.58238719D-04 -0.16338849D-03 -0.13591754D-04 -0.23054188D-04
 -0.26246378D-04  0.59773676D-05  0.19893217D-05  0.33742661D-05  0.38414827D-05
 -0.48748628D-05  0.81179620D-06  0.14976055D-05  0.24175996D-05  0.31469963D-05
  0.26853377D-05  0.92718257D-06 -0.10187993D-05 -0.46956369D-06  0.13167056D-05
  0.19176352D-04  0.14703211D-04  0.73379326D-05  0.53813373D-06  0.41260681D-06
  0.20591972D-06  0.12604747D-05  0.96645208D-06  0.48232732D-06  0.27252434D-04
  0.38352616D-05  0.78550371D-05 -0.30711302D-05  0.50624199D-05  0.41645590D-05
  0.59912664D-05  0.56754056D-05  0.33695316D-05 -0.26060928D-05  0.42650468D-06
  0.72343266D-06  0.82360251D-06 -0.19723784D-05 -0.47681648D-06 -0.80877099D-06
 -0.92075719D-06  0.32594460D-05 -0.59753232D-06 -0.10135279D-05 -0.11538657D-05
 -0.73546875D-05
MO    3     MO 0.0        OCC NO =    2.0000000  ORB. ENERGY =  -10.485233
  0.39807733D-04  0.73437495D-04  0.11855089D-03  0.15431803D-03  0.13167985D-03
  0.45465889D-04 -0.62641549D-04 -0.28871433D-04  0.80958511D-04 -0.13326233D-03
 -0.10217710D-03 -0.50993535D-04  0.28236800D-04  0.21650187D-04  0.10804961D-04
  0.60580868D-05  0.46449567D-05  0.23181589D-05 -0.10085537D-02 -0.37099656D-03
  0.68836427D-04  0.55531387D-04  0.12226733D-04  0.30983185D-04  0.22694096D-04
 -0.38687023D-04  0.34234947D-05  0.10432793D-04  0.16800882D-02  0.30994348D-02
  0.50034487D-02  0.65130036D-02  0.55575577D-02  0.19188911D-02  0.28308379D-03
  0.13047306D-03 -0.36586008D-03 -0.44545089D-03 -0.34154349D-03 -0.17045414D-03
 -0.22372210D-03 -0.17153591D-03 -0.85608443D-04  0.76585544D-04  0.58720937D-04
  0.29305863D-04  0.19851431D-02  0.38696793D-03  0.80805001D-03 -0.13506749D-03
 -0.40896989D-03 -0.26892240D-03 -0.35142123D-03  0.11296588D-03  0.17073898D-04
 -0.18721466D-04  0.53257922D+00  0.98250467D+00  0.15860672D+01  0.20645882D+01
  0.17617168D+01  0.60827849D+00 -0.19562251D-01 -0.90162234D-02  0.25282432D-01
  0.78327504D-03  0.60056562D-03  0.29972433D-03 -0.49748551D-03 -0.38144033D-03
 -0.19036546D-03 -0.12385328D-03 -0.94962841D-04 -0.47393113D-04 -0.30672796D-02
  0.84912694D-03 -0.93231189D-03 -0.55039649D-04 -0.95634863D-02 -0.96723314D-02
 -0.10319694D-01 -0.74396377D-03 -0.24849072D-03  0.40573680D-04  0.97116945D-03
  0.17916180D-02  0.28922270D-02  0.37648202D-02  0.32125279D-02  0.11092087D-02
  0.10165442D-03  0.46852431D-04 -0.13137911D-03  0.11624670D-03  0.89130599D-04
  0.44482416D-04  0.13585848D-03  0.10416767D-03  0.51986967D-04 -0.12790165D-03
 -0.98066872D-04 -0.48942242D-04  0.11764399D-02 -0.70120587D-03 -0.19897426D-03
  0.12142074D-03 -0.13774226D-03 -0.56534996D-03 -0.23423780D-03 -0.30170405D-05
 -0.19520162D-03  0.14315644D-03  0.53080478D-05  0.97923117D-05  0.15807827D-04
  0.20577094D-04  0.17558472D-04  0.60625184D-05 -0.34862534D-04 -0.16068110D-04
  0.45056658D-04 -0.49575062D-04 -0.38011013D-04 -0.18970160D-04  0.16965052D-03
  0.13007726D-03  0.64917667D-04 -0.39595015D-04 -0.30358946D-04 -0.15151242D-04
 -0.81641780D-03  0.43807249D-04  0.26513429D-03  0.25084729D-05  0.51069009D-06
  0.59436825D-04  0.21998011D-06  0.27726272D-04 -0.15263981D-04 -0.70019405D-04
 -0.46208782D-04 -0.85246180D-04 -0.13761377D-03 -0.17913224D-03 -0.15285386D-03
 -0.52776765D-04  0.10534150D-03  0.48551803D-04 -0.13614432D-03 -0.10976405D-03
 -0.84160112D-04 -0.42001794D-04  0.75627315D-04  0.57986228D-04  0.28939192D-04
  0.36131323D-05  0.27703207D-05  0.13825842D-05  0.60631148D-03  0.26849253D-03
 -0.24034765D-03 -0.32523572D-04 -0.24387469D-04 -0.22467555D-04 -0.12496979D-03
  0.59982607D-04 -0.57187505D-04 -0.42846383D-04 -0.12920737D-05 -0.21916015D-05
 -0.24950609D-05 -0.15526693D-04  0.29570197D-04  0.54424948D-04  0.88069839D-04
  0.11577027D-03  0.99295486D-04  0.33950813D-04 -0.11383715D-03 -0.50793915D-04
  0.14999511D-03 -0.30445621D-05 -0.23456710D-05 -0.10298759D-05  0.88103236D-04
  0.67878794D-04  0.29802447D-04 -0.73574599D-04 -0.56685262D-04 -0.24887883D-04
 -0.34896390D-03  0.10078974D-03 -0.40216381D-04  0.62784356D-04  0.60509351D-04
  0.14417939D-03  0.81099493D-04 -0.16077348D-04 -0.45255137D-05  0.49677666D-04
  0.60944040D-04  0.11216957D-03  0.18151153D-03  0.23860199D-03  0.20464754D-03
  0.69972469D-04 -0.48851371D-03 -0.21797387D-03  0.64367975D-03  0.11698546D-03
  0.90130989D-04  0.39572359D-04 -0.10727338D-03 -0.82648356D-04 -0.36287080D-04
  0.46062384D-04  0.35488583D-04  0.15581400D-04 -0.11438144D-02  0.38128156D-03
 -0.47769381D-03 -0.59122400D-04  0.65950947D-04 -0.85184967D-04  0.75246810D-03
  0.10840787D-02  0.98739839D-04 -0.12636754D-03  0.29794602D-04  0.50537284D-04
  0.57534912D-04  0.25888794D-03 -0.94066170D-03 -0.17353372D-02 -0.28013722D-02
 -0.36465543D-02 -0.31116114D-02 -0.10743646D-02  0.14474944D-03  0.66714886D-04
 -0.18707550D-03  0.19463113D-03  0.14923080D-03  0.74476630D-04  0.11091435D-03
  0.85042085D-04  0.42441961D-04  0.16149284D-04  0.12382247D-04  0.61796089D-05
  0.44081490D-03 -0.30380479D-04 -0.18409920D-03 -0.14104473D-03 -0.14339801D-03
 -0.71565164D-04 -0.90650690D-04  0.23575541D-04  0.16686687D-03  0.20016558D-04
  0.10374957D-04  0.17597890D-04  0.20034576D-04  0.70423097D-04  0.40113189D-04
  0.68039560D-04  0.77460634D-04 -0.34603640D-04 -0.23461184D-04 -0.39794609D-04
 -0.45304755D-04  0.12417839D-03  0.20335913D-04  0.34493557D-04  0.39269695D-04
  0.11503217D-03 -0.21371395D-04 -0.39426050D-04 -0.63645869D-04 -0.82848011D-04
 -0.70694358D-04 -0.24409063D-04  0.59134706D-04  0.27255132D-04 -0.76426236D-04
 -0.16234522D-04 -0.12447602D-04 -0.62122258D-05  0.12027546D-04  0.92219591D-05
  0.46024039D-05  0.28183875D-05  0.21609607D-05  0.10784709D-05  0.49708594D-04
  0.37907038D-04 -0.48162604D-04 -0.18561458D-05  0.17388420D-04 -0.84352402D-04
 -0.44187243D-04 -0.34599500D-04 -0.19244873D-04  0.18877914D-04 -0.11077873D-04
 -0.18790169D-04 -0.21391943D-04 -0.15661004D-04 -0.96299073D-05 -0.16334145D-04
 -0.18595847D-04 -0.17197257D-04 -0.24771294D-06 -0.42016804D-06 -0.47834646D-06
  0.19310023D-04
MO    4     MO 0.0        OCC NO =    2.0000000  ORB. ENERGY =  -10.482801
 -0.16552466D-04 -0.30536068D-04 -0.49294681D-04 -0.64167028D-04 -0.54753841D-04
 -0.18905186D-04  0.56071358D-04  0.25843238D-04 -0.72467136D-04  0.28673041D-04
  0.21984669D-04  0.10971891D-04  0.13355774D-04  0.10240360D-04  0.51106575D-05
 -0.92017926D-05 -0.70553509D-05 -0.35211146D-05  0.49547922D-03  0.21274838D-03
  0.15324386D-04 -0.14205905D-04  0.21420851D-04  0.21604032D-04 -0.34416577D-04
  0.56584569D-05 -0.95424828D-05 -0.13401625D-05  0.18556208D-04  0.34232581D-04
  0.55262000D-04  0.71934704D-04  0.61382013D-04  0.21193734D-04 -0.36051043D-04
 -0.16615893D-04  0.46592698D-04  0.32209319D-04  0.24696063D-04  0.12325066D-04
  0.60554069D-04  0.46429019D-04  0.23171334D-04  0.30993865D-04  0.23764130D-04
  0.11859966D-04 -0.14330598D-03  0.98907472D-04 -0.28191957D-03 -0.22447475D-04
  0.52194449D-04 -0.11090265D-04  0.52004795D-04 -0.38422752D-05 -0.28461371D-04
 -0.33675671D-04  0.85634857D-03  0.15797959D-02  0.25502804D-02  0.33197073D-02
  0.28327123D-02  0.97806747D-03  0.13441047D-03  0.61949662D-04 -0.17371332D-03
 -0.14724885D-03 -0.11290108D-03 -0.56345552D-04 -0.12340545D-03 -0.94619470D-04
 -0.47221747D-04 -0.68689053D-04 -0.52666409D-04 -0.26284229D-04  0.56197853D-03
  0.17905544D-03  0.43011332D-03 -0.30661404D-04 -0.13305803D-03 -0.47952903D-04
 -0.20389749D-03  0.11809475D-03  0.55074953D-04 -0.59609261D-04  0.95905040D-03
  0.17692607D-02  0.28561354D-02  0.37178396D-02  0.31724393D-02  0.10953671D-02
 -0.23589126D-03 -0.10872206D-03  0.30486802D-03 -0.14910136D-03 -0.11432147D-03
 -0.57054424D-04 -0.10006837D-03 -0.76726079D-04 -0.38291691D-04 -0.21597815D-03
 -0.16559835D-03 -0.82645180D-04 -0.41144580D-03  0.31615815D-03  0.30508079D-03
  0.47164504D-04 -0.38070864D-03 -0.17914039D-03 -0.13446549D-03 -0.14143062D-03
 -0.44322172D-03 -0.13828552D-04 -0.73239371D-04 -0.13511234D-03 -0.21811321D-03
 -0.28391859D-03 -0.24226825D-03 -0.83649403D-04  0.16203055D-03  0.74679732D-04
 -0.20940976D-03 -0.13006442D-03 -0.99725150D-04 -0.49769839D-04  0.93434752D-04
  0.71639842D-04  0.35753302D-04 -0.10115725D-03 -0.77560961D-04 -0.38708355D-04
  0.46632773D-03  0.29155125D-04 -0.25690053D-03  0.80235586D-04 -0.38737826D-04
 -0.71100344D-04 -0.17682532D-03 -0.10147010D-03  0.11773413D-03  0.14829144D-04
  0.20336372D-04  0.37516635D-04  0.60563481D-04  0.78835658D-04  0.67270610D-04
  0.23226925D-04 -0.60364876D-04 -0.27822116D-04  0.78016117D-04  0.36597656D-04
  0.28060761D-04  0.14004287D-04 -0.43010158D-04 -0.32977461D-04 -0.16458064D-04
  0.52156682D-04  0.39990436D-04  0.19958030D-04 -0.37277291D-03 -0.15452122D-03
  0.20619099D-03 -0.33670068D-04  0.16373207D-04 -0.73871074D-06  0.66603810D-04
  0.10845362D-04 -0.39877584D-04  0.38678916D-04  0.29429505D-06  0.49918010D-06
  0.56829890D-06  0.70611810D-04 -0.13732154D-03 -0.25274495D-03 -0.40898903D-03
 -0.53762753D-03 -0.46112001D-03 -0.15766476D-03 -0.20795079D-03 -0.92787239D-04
  0.27400196D-03  0.12718756D-03  0.97991157D-04  0.43023396D-04 -0.97284134D-04
 -0.74952181D-04 -0.32908045D-04  0.10523889D-03  0.81080891D-04  0.35598878D-04
 -0.67429848D-03  0.37583276D-03 -0.35791739D-03  0.31712137D-04 -0.63785007D-04
 -0.77882555D-05  0.36117068D-03  0.67207760D-03 -0.23356939D-03  0.16383481D-04
 -0.65799293D-05 -0.12110582D-04 -0.19597208D-04 -0.25761079D-04 -0.22095128D-04
 -0.75546994D-05  0.10028990D-04  0.44749159D-05 -0.13214487D-04  0.56747885D-04
  0.43721186D-04  0.19195956D-04 -0.29534419D-04 -0.22754678D-04 -0.99905293D-05
 -0.50287778D-04 -0.38744022D-04 -0.17010713D-04  0.25220946D-04 -0.10172027D-03
 -0.62171809D-04  0.10707954D-04  0.24227424D-04 -0.77034348D-04 -0.46391267D-04
 -0.62906328D-04 -0.13903314D-04  0.95902339D-05 -0.23472403D-04 -0.39813639D-04
 -0.45326421D-04 -0.88870268D-04  0.53250586D+00  0.98236933D+00  0.15858487D+01
  0.20643038D+01  0.17614742D+01  0.60819470D+00 -0.19491564D-01 -0.89836442D-02
  0.25191076D-01  0.49024766D-03  0.37589081D-03  0.18759586D-03 -0.11574226D-02
 -0.88743827D-03 -0.44289390D-03 -0.19303540D-03 -0.14800730D-03 -0.73866016D-04
 -0.15646308D-02  0.36513947D-03 -0.21485033D-03  0.12820736D-03 -0.98932458D-02
 -0.10025926D-01 -0.10663398D-01 -0.12460564D-02  0.40490204D-03 -0.13537678D-05
 -0.54817557D-04 -0.92980952D-04 -0.10585553D-03  0.36545433D-03  0.18204876D-04
  0.30878915D-04  0.35154554D-04  0.29491041D-04 -0.21143870D-05 -0.35864005D-05
 -0.40829902D-05  0.74890617D-04 -0.16505389D-04 -0.27996264D-04 -0.31872757D-04
 -0.85674526D-04 -0.34171130D-06 -0.63039063D-06 -0.10176459D-05 -0.13246726D-05
 -0.11303456D-05 -0.39028116D-06  0.58092537D-06  0.26774797D-06 -0.75079326D-06
 -0.81854018D-05 -0.62760469D-05 -0.31321873D-05  0.17715905D-04  0.13583432D-04
  0.67790846D-05 -0.13390355D-04 -0.10266875D-04 -0.51238902D-05  0.56087336D-04
  0.21967628D-04 -0.53384088D-05 -0.32888308D-05 -0.12578813D-04  0.47145602D-05
  0.21512293D-05 -0.70204021D-05 -0.81045028D-05 -0.42505042D-05 -0.12034169D-05
 -0.20412228D-05 -0.23238600D-05 -0.17867974D-06 -0.26266928D-05 -0.44553681D-05