 Entering Link 1 = D:\Gaussian\G16W\l1.exe PID=     35580.
  
 Copyright (c) 1988,1990,1992,1993,1995,1998,2003,2009,2016,
            Gaussian, Inc.  All Rights Reserved.
  
 This is part of the Gaussian(R) 16 program.  It is based on
 the Gaussian(R) 09 system (copyright 2009, Gaussian, Inc.),
 the Gaussian(R) 03 system (copyright 2003, Gaussian, Inc.),
 the Gaussian(R) 98 system (copyright 1998, Gaussian, Inc.),
 the Gaussian(R) 94 system (copyright 1995, Gaussian, Inc.),
 the Gaussian 92(TM) system (copyright 1992, Gaussian, Inc.),
 the Gaussian 90(TM) system (copyright 1990, Gaussian, Inc.),
 the Gaussian 88(TM) system (copyright 1988, Gaussian, Inc.),
 the Gaussian 86(TM) system (copyright 1986, Carnegie Mellon
 University), and the Gaussian 82(TM) system (copyright 1983,
 Carnegie Mellon University). Gaussian is a federally registered
 trademark of Gaussian, Inc.
  
 This software contains proprietary and confidential information,
 including trade secrets, belonging to Gaussian, Inc.
  
 This software is provided under written license and may be
 used, copied, transmitted, or stored only in accord with that
 written license.
  
 The following legend is applicable only to US Government
 contracts under FAR:
  
                    RESTRICTED RIGHTS LEGEND
  
 Use, reproduction and disclosure by the US Government is
 subject to restrictions as set forth in subparagraphs (a)
 and (c) of the Commercial Computer Software - Restricted
 Rights clause in FAR 52.227-19.
  
 Gaussian, Inc.
 340 Quinnipiac St., Bldg. 40, Wallingford CT 06492
  
  
 ---------------------------------------------------------------
 Warning -- This program may not be used in any manner that
 competes with the business of Gaussian, Inc. or will provide
 assistance to any competitor of Gaussian, Inc.  The licensee
 of this program is prohibited from giving any competitor of
 Gaussian, Inc. access to this program.  By using this program,
 the user acknowledges that Gaussian, Inc. is engaged in the
 business of creating and licensing software in the field of
 computational chemistry and represents and warrants to the
 licensee that it is not a competitor of Gaussian, Inc. and that
 it will not use this program in any manner prohibited above.
 ---------------------------------------------------------------
  

 Cite this work as:
 Gaussian 16, Revision A.03,
 M. J. Frisch, G. W. Trucks, H. B. Schlegel, G. E. Scuseria, 
 M. A. Robb, J. R. Cheeseman, G. Scalmani, V. Barone, 
 G. A. Petersson, H. Nakatsuji, X. Li, M. Caricato, A. V. Marenich, 
 J. Bloino, B. G. Janesko, R. Gomperts, B. Mennucci, H. P. Hratchian, 
 J. V. Ortiz, A. F. Izmaylov, J. L. Sonnenberg, D. Williams-Young, 
 F. Ding, F. Lipparini, F. Egidi, J. Goings, B. Peng, A. Petrone, 
 T. Henderson, D. Ranasinghe, V. G. Zakrzewski, J. Gao, N. Rega, 
 G. Zheng, W. Liang, M. Hada, M. Ehara, K. Toyota, R. Fukuda, 
 J. Hasegawa, M. Ishida, T. Nakajima, Y. Honda, O. Kitao, H. Nakai, 
 T. Vreven, K. Throssell, J. A. Montgomery, Jr., J. E. Peralta, 
 F. Ogliaro, M. J. Bearpark, J. J. Heyd, E. N. Brothers, K. N. Kudin, 
 V. N. Staroverov, T. A. Keith, R. Kobayashi, J. Normand, 
 K. Raghavachari, A. P. Rendell, J. C. Burant, S. S. Iyengar, 
 J. Tomasi, M. Cossi, J. M. Millam, M. Klene, C. Adamo, R. Cammi, 
 J. W. Ochterski, R. L. Martin, K. Morokuma, O. Farkas, 
 J. B. Foresman, and D. J. Fox, Gaussian, Inc., Wallingford CT, 2016.
 
 ******************************************
 Gaussian 16:  EM64W-G16RevA.03 17-Dec-2016
                03-Dec-2025 
 ******************************************
 %nprocs=   4
 Will use up to    4 processors via shared memory.
 ------------------------------------
 #P B3LYP/6-31G* SCF=conver=7 out=wfn
 ------------------------------------
 1/38=1,172=1/1;
 2/12=2,17=6,18=5,40=1/2;
 3/5=1,6=6,7=1,11=2,25=1,30=1,74=-5/1,2,3;
 4//1;
 5/5=2,6=7,38=5/2;
 6/7=2,8=2,9=2,10=2,28=1/1;
 99/5=1,6=100,9=1/99;
 Leave Link    1 at Wed Dec 03 17:25:34 2025, MaxMem=           0 cpu:               1.0 elap:               0.1
 (Enter D:\Gaussian\G16W\l101.exe)
 ----------------------------------------------------
 Generated by Multiwfn (http://sobereva.com/multiwfn)
 ----------------------------------------------------
 Symbolic Z-matrix:
 Charge =  1 Multiplicity = 1
 C                    -1.89441  -0.03524   0.07525 
 C                    -0.92865  -1.07541   0.0157 
 C                     0.39033  -0.83212  -0.22683 
 C                     0.91391   0.56496  -0.48409 
 C                    -0.14941   1.61623  -0.34431 
 C                    -1.45439   1.29925  -0.10097 
 H                     0.15      2.6495   -0.48447 
 O                     3.04645   0.05455   0.54072 
 O                     1.27741  -1.85162  -0.30801 
 H                    -1.22646  -2.10767   0.16826 
 C                     2.14891   0.85031   0.38523 
 H                     2.18315   1.84476   0.87303 
 H                     2.16878  -1.49429  -0.14836 
 H                     1.33356   0.57319  -1.51422 
 H                    -2.18472   2.09998  -0.03405 
 C                    -3.33595  -0.35998   0.34865 
 H                    -3.74052  -1.05004  -0.40092 
 H                    -3.46087  -0.84578   1.32387 
 H                    -3.95578   0.53891   0.34339 
 
 ITRead=  0  0  0  0  0  0  0  0  0  0  0  0  0  0  0  0  0  0  0
 MicOpt= -1 -1 -1 -1 -1 -1 -1 -1 -1 -1 -1 -1 -1 -1 -1 -1 -1 -1 -1
 NAtoms=     19 NQM=       19 NQMF=       0 NMMI=      0 NMMIF=      0
                NMic=       0 NMicF=      0.
                    Isotopes and Nuclear Properties:
 (Nuclear quadrupole moments (NQMom) in fm**2, nuclear magnetic moments (NMagM)
  in nuclear magnetons)

  Atom         1           2           3           4           5           6           7           8           9          10
 IAtWgt=          12          12          12          12          12          12           1          16          16           1
 AtmWgt=  12.0000000  12.0000000  12.0000000  12.0000000  12.0000000  12.0000000   1.0078250  15.9949146  15.9949146   1.0078250
 NucSpn=           0           0           0           0           0           0           1           0           0           1
 AtZEff=   0.0000000   0.0000000   0.0000000   0.0000000   0.0000000   0.0000000   0.0000000   0.0000000   0.0000000   0.0000000
 NQMom=    0.0000000   0.0000000   0.0000000   0.0000000   0.0000000   0.0000000   0.0000000   0.0000000   0.0000000   0.0000000
 NMagM=    0.0000000   0.0000000   0.0000000   0.0000000   0.0000000   0.0000000   2.7928460   0.0000000   0.0000000   2.7928460
 AtZNuc=   6.0000000   6.0000000   6.0000000   6.0000000   6.0000000   6.0000000   1.0000000   8.0000000   8.0000000   1.0000000

  Atom        11          12          13          14          15          16          17          18          19
 IAtWgt=          12           1           1           1           1          12           1           1           1
 AtmWgt=  12.0000000   1.0078250   1.0078250   1.0078250   1.0078250  12.0000000   1.0078250   1.0078250   1.0078250
 NucSpn=           0           1           1           1           1           0           1           1           1
 AtZEff=   0.0000000   0.0000000   0.0000000   0.0000000   0.0000000   0.0000000   0.0000000   0.0000000   0.0000000
 NQMom=    0.0000000   0.0000000   0.0000000   0.0000000   0.0000000   0.0000000   0.0000000   0.0000000   0.0000000
 NMagM=    0.0000000   2.7928460   2.7928460   2.7928460   2.7928460   0.0000000   2.7928460   2.7928460   2.7928460
 AtZNuc=   6.0000000   1.0000000   1.0000000   1.0000000   1.0000000   6.0000000   1.0000000   1.0000000   1.0000000
 Leave Link  101 at Wed Dec 03 17:25:34 2025, MaxMem=   104857600 cpu:               0.0 elap:               0.1
 (Enter D:\Gaussian\G16W\l202.exe)
                          Input orientation:                          
 ---------------------------------------------------------------------
 Center     Atomic      Atomic             Coordinates (Angstroms)
 Number     Number       Type             X           Y           Z
 ---------------------------------------------------------------------
      1          6           0       -1.894406   -0.035244    0.075253
      2          6           0       -0.928650   -1.075407    0.015703
      3          6           0        0.390327   -0.832120   -0.226834
      4          6           0        0.913905    0.564962   -0.484087
      5          6           0       -0.149407    1.616229   -0.344312
      6          6           0       -1.454390    1.299247   -0.100972
      7          1           0        0.150002    2.649495   -0.484469
      8          8           0        3.046446    0.054554    0.540717
      9          8           0        1.277411   -1.851619   -0.308006
     10          1           0       -1.226462   -2.107670    0.168257
     11          6           0        2.148910    0.850313    0.385231
     12          1           0        2.183151    1.844755    0.873033
     13          1           0        2.168783   -1.494290   -0.148363
     14          1           0        1.333558    0.573191   -1.514223
     15          1           0       -2.184717    2.099977   -0.034052
     16          6           0       -3.335954   -0.359983    0.348651
     17          1           0       -3.740524   -1.050044   -0.400921
     18          1           0       -3.460870   -0.845783    1.323870
     19          1           0       -3.955783    0.538910    0.343389
 ---------------------------------------------------------------------
                    Distance matrix (angstroms):
                    1          2          3          4          5
     1  C    0.000000
     2  C    1.420623   0.000000
     3  C    2.438498   1.362979   0.000000
     4  C    2.925700   2.517064   1.513985   0.000000
     5  C    2.438938   2.825196   2.509886   1.501776   0.000000
     6  C    1.416169   2.434953   2.821621   2.508939   1.364798
     7  H    3.420631   3.910058   3.499396   2.220096   1.084863
     8  O    4.963541   4.165794   2.903497   2.420428   3.665458
     9  O    3.675123   2.360932   1.353841   2.450103   3.750080
    10  H    2.179392   1.085141   2.096934   3.485640   3.910268
    11  C    4.150747   3.649154   2.509545   1.537002   2.530044
    12  H    4.560408   4.352662   3.404348   2.256243   2.641019
    13  H    4.322999   3.129932   1.899351   2.434738   3.884293
    14  H    3.649161   3.190005   2.126489   1.112365   2.157731
    15  H    2.157637   3.415149   3.907072   3.487157   2.114890
    16  C    1.502752   2.533337   3.799903   4.428349   3.813095
    17  H    2.159795   2.842684   4.140257   4.927359   4.473068
    18  H    2.160978   2.859400   4.151697   4.939389   4.450856
    19  H    2.156577   3.446292   4.592771   4.939560   4.015227
                    6          7          8          9         10
     6  C    0.000000
     7  H    2.131740   0.000000
     8  O    4.713656   4.021705   0.000000
     9  O    4.175351   4.643513   2.735564   0.000000
    10  H    3.425130   4.995130   4.803299   2.561595   0.000000
    11  C    3.663565   2.826494   1.209537   2.922418   4.493315
    12  H    3.804993   2.573735   2.015076   3.984771   5.267242
    13  H    4.575312   4.621623   1.908937   0.973506   3.464704
    14  H    3.208908   2.602352   2.725023   2.708840   4.070805
    15  H    1.085829   2.440442   5.646165   5.260845   4.320124
    16  C    2.548625   4.680057   6.398731   4.892782   2.745343
    17  H    3.291739   5.369335   6.940445   5.082404   2.786224
    18  H    3.264551   5.340923   6.615822   5.111363   2.814317
    19  H    2.651893   4.690137   7.021734   5.790100   3.805818
                   11         12         13         14         15
    11  C    0.000000
    12  H    1.108169   0.000000
    13  H    2.404637   3.491802   0.000000
    14  H    2.085551   2.835079   2.614890   0.000000
    15  H    4.529656   4.468357   5.646661   4.110990   0.000000
    16  C    5.616929   5.966269   5.642323   5.113263   2.742847
    17  H    6.238175   6.715113   5.931362   5.442485   3.532387
    18  H    5.935269   6.268750   5.855000   5.749330   3.485688
    19  H    6.112773   6.298592   6.471942   5.606160   2.390830
                   16         17         18         19
    16  C    0.000000
    17  H    1.096230   0.000000
    18  H    1.096658   1.759214   0.000000
    19  H    1.091890   1.767798   1.767387   0.000000
 Stoichiometry    C8H9O2(1+)
 Framework group  C1[X(C8H9O2)]
 Deg. of freedom    51
 Full point group                 C1      NOp   1
 Largest Abelian subgroup         C1      NOp   1
 Largest concise Abelian subgroup C1      NOp   1
                         Standard orientation:                         
 ---------------------------------------------------------------------
 Center     Atomic      Atomic             Coordinates (Angstroms)
 Number     Number       Type             X           Y           Z
 ---------------------------------------------------------------------
      1          6           0       -1.894406   -0.035244    0.075253
      2          6           0       -0.928650   -1.075407    0.015703
      3          6           0        0.390327   -0.832120   -0.226834
      4          6           0        0.913905    0.564962   -0.484087
      5          6           0       -0.149407    1.616229   -0.344312
      6          6           0       -1.454390    1.299247   -0.100972
      7          1           0        0.150002    2.649495   -0.484469
      8          8           0        3.046446    0.054554    0.540717
      9          8           0        1.277411   -1.851619   -0.308006
     10          1           0       -1.226462   -2.107670    0.168257
     11          6           0        2.148910    0.850313    0.385231
     12          1           0        2.183151    1.844755    0.873033
     13          1           0        2.168783   -1.494290   -0.148363
     14          1           0        1.333558    0.573191   -1.514223
     15          1           0       -2.184717    2.099977   -0.034052
     16          6           0       -3.335954   -0.359983    0.348651
     17          1           0       -3.740524   -1.050045   -0.400921
     18          1           0       -3.460870   -0.845783    1.323870
     19          1           0       -3.955783    0.538909    0.343389
 ---------------------------------------------------------------------
 Rotational constants (GHZ):           2.7078576           0.9473931           0.7427511
 Leave Link  202 at Wed Dec 03 17:25:34 2025, MaxMem=   104857600 cpu:               0.0 elap:               0.1
 (Enter D:\Gaussian\G16W\l301.exe)
 Standard basis: 6-31G(d) (6D, 7F)
 Ernie: Thresh=  0.10000D-02 Tol=  0.10000D-05 Strict=F.
 There are   168 symmetry adapted cartesian basis functions of A   symmetry.
 There are   168 symmetry adapted basis functions of A   symmetry.
   168 basis functions,   316 primitive gaussians,   168 cartesian basis functions
    36 alpha electrons       36 beta electrons
       nuclear repulsion energy       502.8281553473 Hartrees.
 IExCor=  402 DFT=T Ex+Corr=B3LYP ExCW=0 ScaHFX=  0.200000
 ScaDFX=  0.800000  0.720000  1.000000  0.810000 ScalE2=  1.000000  1.000000
 IRadAn=      5 IRanWt=     -1 IRanGd=            0 ICorTp=0 IEmpDi=  4
 NAtoms=   19 NActive=   19 NUniq=   19 SFac= 1.00D+00 NAtFMM=   60 NAOKFM=F Big=F
 Integral buffers will be    131072 words long.
 Raffenetti 2 integral format.
 Two-electron integral symmetry is turned on.
 Leave Link  301 at Wed Dec 03 17:25:34 2025, MaxMem=   104857600 cpu:               0.0 elap:               0.1
 (Enter D:\Gaussian\G16W\l302.exe)
 NPDir=0 NMtPBC=     1 NCelOv=     1 NCel=       1 NClECP=     1 NCelD=      1
         NCelK=      1 NCelE2=     1 NClLst=     1 CellRange=     0.0.
 One-electron integrals computed using PRISM.
 One-electron integral symmetry used in STVInt
 NBasis=   168 RedAO= T EigKep=  6.37D-04  NBF=   168
 NBsUse=   168 1.00D-06 EigRej= -1.00D+00 NBFU=   168
 Precomputing XC quadrature grid using
 IXCGrd= 4 IRadAn=           5 IRanWt=          -1 IRanGd=           0 AccXCQ= 0.00D+00.
 Generated NRdTot=       0 NPtTot=           0 NUsed=           0 NTot=          32
 NSgBfM=   168   168   168   168   168 MxSgAt=    19 MxSgA2=    19.
 Leave Link  302 at Wed Dec 03 17:25:34 2025, MaxMem=   104857600 cpu:               0.0 elap:               0.4
 (Enter D:\Gaussian\G16W\l303.exe)
 DipDrv:  MaxL=1.
 Leave Link  303 at Wed Dec 03 17:25:34 2025, MaxMem=   104857600 cpu:               0.0 elap:               0.1
 (Enter D:\Gaussian\G16W\l401.exe)
 ExpMin= 1.61D-01 ExpMax= 5.48D+03 ExpMxC= 8.25D+02 IAcc=3 IRadAn=         5 AccDes= 0.00D+00
 Harris functional with IExCor=  402 and IRadAn=       5 diagonalized for initial guess.
 HarFok:  IExCor=  402 AccDes= 0.00D+00 IRadAn=         5 IDoV= 1 UseB2=F ITyADJ=14
 ICtDFT=  3500011 ScaDFX=  1.000000  1.000000  1.000000  1.000000
 FoFCou: FMM=F IPFlag=           0 FMFlag=      100000 FMFlg1=           0
         NFxFlg=           0 DoJE=T BraDBF=F KetDBF=T FulRan=T
         wScrn=  0.000000 ICntrl=       500 IOpCl=  0 I1Cent=   200000004 NGrid=           0
         NMat0=    1 NMatS0=      1 NMatT0=    0 NMatD0=    1 NMtDS0=    0 NMtDT0=    0
 Petite list used in FoFCou.
 Harris En= -460.454632128478    
 JPrj=0 DoOrth=F DoCkMO=F.
 Leave Link  401 at Wed Dec 03 17:25:35 2025, MaxMem=   104857600 cpu:               1.0 elap:               1.1
 (Enter D:\Gaussian\G16W\l502.exe)
 Keep R1 ints in memory in canonical form, NReq=104755543.
 FoFCou: FMM=F IPFlag=           0 FMFlag=           0 FMFlg1=           0
         NFxFlg=           0 DoJE=F BraDBF=F KetDBF=F FulRan=T
         wScrn=  0.000000 ICntrl=       600 IOpCl=  0 I1Cent=           0 NGrid=           0
         NMat0=    1 NMatS0=  14196 NMatT0=    0 NMatD0=    1 NMtDS0=    0 NMtDT0=    0
 Symmetry not used in FoFCou.
 Two-electron integral symmetry not used.
 Closed shell SCF:
 Using DIIS extrapolation, IDIIS=  1040.
 NGot=   104857600 LenX=     4027843 LenY=     3999178
 Requested convergence on RMS density matrix=1.00D-07 within 128 cycles.
 Requested convergence on MAX density matrix=1.00D-05.
 Requested convergence on             energy=1.00D-05.
 No special actions if energy rises.
 Integral accuracy reduced to 1.0D-05 until final iterations.

 Cycle   1  Pass 0  IDiag  1:
 CalDSu:  requested number of processors reduced to:   3 ShMem   1 Linda.
 E= -460.233030242658    
 DIIS: error= 2.68D-02 at cycle   1 NSaved=   1.
 NSaved= 1 IEnMin= 1 EnMin= -460.233030242658     IErMin= 1 ErrMin= 2.68D-02
 ErrMax= 2.68D-02  0.00D+00 EMaxC= 1.00D-01 BMatC= 2.18D-01 BMatP= 2.18D-01
 IDIUse=3 WtCom= 7.32D-01 WtEn= 2.68D-01
 Coeff-Com:  0.100D+01
 Coeff-En:   0.100D+01
 Coeff:      0.100D+01
 Gap=     0.115 Goal=   None    Shift=    0.000
 GapD=    0.115 DampG=1.000 DampE=0.500 DampFc=0.5000 IDamp=-1.
 Damping current iteration by 5.00D-01
 RMSDP=5.72D-03 MaxDP=1.62D-01              OVMax= 2.47D-01

 Cycle   2  Pass 0  IDiag  1:
 CalDSu:  requested number of processors reduced to:   3 ShMem   1 Linda.
 E= -460.285688789305     Delta-E=       -0.052658546647 Rises=F Damp=T
 DIIS: error= 1.82D-02 at cycle   2 NSaved=   2.
 NSaved= 2 IEnMin= 2 EnMin= -460.285688789305     IErMin= 2 ErrMin= 1.82D-02
 ErrMax= 1.82D-02  0.00D+00 EMaxC= 1.00D-01 BMatC= 3.96D-02 BMatP= 2.18D-01
 IDIUse=3 WtCom= 8.18D-01 WtEn= 1.82D-01
 Coeff-Com:  0.219D+00 0.781D+00
 Coeff-En:   0.340D+00 0.660D+00
 Coeff:      0.241D+00 0.759D+00
 Gap=     0.186 Goal=   None    Shift=    0.000
 RMSDP=2.08D-03 MaxDP=5.79D-02 DE=-5.27D-02 OVMax= 1.60D-01

 Cycle   3  Pass 0  IDiag  1:
 CalDSu:  requested number of processors reduced to:   3 ShMem   1 Linda.
 E= -460.393446251376     Delta-E=       -0.107757462071 Rises=F Damp=F
 DIIS: error= 2.03D-02 at cycle   3 NSaved=   3.
 NSaved= 3 IEnMin= 3 EnMin= -460.393446251376     IErMin= 2 ErrMin= 1.82D-02
 ErrMax= 2.03D-02  0.00D+00 EMaxC= 1.00D-01 BMatC= 3.70D-02 BMatP= 3.96D-02
 IDIUse=3 WtCom= 7.97D-01 WtEn= 2.03D-01
 Coeff-Com:  0.538D-01 0.481D+00 0.465D+00
 Coeff-En:   0.000D+00 0.000D+00 0.100D+01
 Coeff:      0.429D-01 0.384D+00 0.573D+00
 Gap=     0.147 Goal=   None    Shift=    0.000
 RMSDP=1.55D-03 MaxDP=5.36D-02 DE=-1.08D-01 OVMax= 8.80D-02

 Cycle   4  Pass 0  IDiag  1:
 CalDSu:  requested number of processors reduced to:   3 ShMem   1 Linda.
 E= -460.414163504033     Delta-E=       -0.020717252657 Rises=F Damp=F
 DIIS: error= 1.36D-02 at cycle   4 NSaved=   4.
 NSaved= 4 IEnMin= 4 EnMin= -460.414163504033     IErMin= 4 ErrMin= 1.36D-02
 ErrMax= 1.36D-02  0.00D+00 EMaxC= 1.00D-01 BMatC= 1.45D-02 BMatP= 3.70D-02
 IDIUse=3 WtCom= 8.64D-01 WtEn= 1.36D-01
 Coeff-Com:  0.186D-01 0.658D-01 0.378D+00 0.538D+00
 Coeff-En:   0.000D+00 0.000D+00 0.314D+00 0.686D+00
 Coeff:      0.161D-01 0.569D-01 0.369D+00 0.558D+00
 Gap=     0.161 Goal=   None    Shift=    0.000
 RMSDP=6.59D-04 MaxDP=2.42D-02 DE=-2.07D-02 OVMax= 2.79D-02

 Cycle   5  Pass 0  IDiag  1:
 CalDSu:  requested number of processors reduced to:   3 ShMem   1 Linda.
 E= -460.425649309110     Delta-E=       -0.011485805076 Rises=F Damp=F
 DIIS: error= 1.37D-03 at cycle   5 NSaved=   5.
 NSaved= 5 IEnMin= 5 EnMin= -460.425649309110     IErMin= 5 ErrMin= 1.37D-03
 ErrMax= 1.37D-03  0.00D+00 EMaxC= 1.00D-01 BMatC= 5.35D-04 BMatP= 1.45D-02
 IDIUse=3 WtCom= 9.86D-01 WtEn= 1.37D-02
 Coeff-Com:  0.666D-02 0.290D-02 0.183D+00 0.331D+00 0.477D+00
 Coeff-En:   0.000D+00 0.000D+00 0.000D+00 0.000D+00 0.100D+01
 Coeff:      0.657D-02 0.286D-02 0.180D+00 0.327D+00 0.484D+00
 Gap=     0.144 Goal=   None    Shift=    0.000
 RMSDP=1.43D-04 MaxDP=5.06D-03 DE=-1.15D-02 OVMax= 1.00D-02

 Cycle   6  Pass 0  IDiag  1:
 CalDSu:  requested number of processors reduced to:   3 ShMem   1 Linda.
 E= -460.426103487439     Delta-E=       -0.000454178329 Rises=F Damp=F
 DIIS: error= 3.50D-04 at cycle   6 NSaved=   6.
 NSaved= 6 IEnMin= 6 EnMin= -460.426103487439     IErMin= 6 ErrMin= 3.50D-04
 ErrMax= 3.50D-04  0.00D+00 EMaxC= 1.00D-01 BMatC= 3.10D-05 BMatP= 5.35D-04
 IDIUse=3 WtCom= 9.97D-01 WtEn= 3.50D-03
 Coeff-Com:  0.168D-02-0.491D-02 0.519D-01 0.105D+00 0.253D+00 0.593D+00
 Coeff-En:   0.000D+00 0.000D+00 0.000D+00 0.000D+00 0.000D+00 0.100D+01
 Coeff:      0.168D-02-0.490D-02 0.518D-01 0.104D+00 0.253D+00 0.594D+00
 Gap=     0.144 Goal=   None    Shift=    0.000
 RMSDP=3.88D-05 MaxDP=1.03D-03 DE=-4.54D-04 OVMax= 3.30D-03

 Cycle   7  Pass 0  IDiag  1:
 CalDSu:  requested number of processors reduced to:   3 ShMem   1 Linda.
 E= -460.426130652563     Delta-E=       -0.000027165124 Rises=F Damp=F
 DIIS: error= 8.62D-05 at cycle   7 NSaved=   7.
 NSaved= 7 IEnMin= 7 EnMin= -460.426130652563     IErMin= 7 ErrMin= 8.62D-05
 ErrMax= 8.62D-05  0.00D+00 EMaxC= 1.00D-01 BMatC= 2.64D-06 BMatP= 3.10D-05
 IDIUse=1 WtCom= 1.00D+00 WtEn= 0.00D+00
 Coeff-Com:  0.455D-03-0.260D-02 0.154D-01 0.327D-01 0.105D+00 0.321D+00
 Coeff-Com:  0.529D+00
 Coeff:      0.455D-03-0.260D-02 0.154D-01 0.327D-01 0.105D+00 0.321D+00
 Coeff:      0.529D+00
 Gap=     0.144 Goal=   None    Shift=    0.000
 RMSDP=1.25D-05 MaxDP=3.99D-04 DE=-2.72D-05 OVMax= 1.14D-03

 Cycle   8  Pass 0  IDiag  1:
 CalDSu:  requested number of processors reduced to:   3 ShMem   1 Linda.
 E= -460.426133195768     Delta-E=       -0.000002543205 Rises=F Damp=F
 DIIS: error= 3.21D-05 at cycle   8 NSaved=   8.
 NSaved= 8 IEnMin= 8 EnMin= -460.426133195768     IErMin= 8 ErrMin= 3.21D-05
 ErrMax= 3.21D-05  0.00D+00 EMaxC= 1.00D-01 BMatC= 2.61D-07 BMatP= 2.64D-06
 IDIUse=1 WtCom= 1.00D+00 WtEn= 0.00D+00
 Coeff-Com:  0.129D-03-0.105D-02 0.374D-02 0.810D-02 0.352D-01 0.120D+00
 Coeff-Com:  0.285D+00 0.549D+00
 Coeff:      0.129D-03-0.105D-02 0.374D-02 0.810D-02 0.352D-01 0.120D+00
 Coeff:      0.285D+00 0.549D+00
 Gap=     0.144 Goal=   None    Shift=    0.000
 RMSDP=4.14D-06 MaxDP=1.20D-04 DE=-2.54D-06 OVMax= 4.06D-04

 Initial convergence to 1.0D-05 achieved.  Increase integral accuracy.
 Cycle   9  Pass 1  IDiag  1:
 CalDSu:  requested number of processors reduced to:   3 ShMem   1 Linda.
 E= -460.426136480389     Delta-E=       -0.000003284621 Rises=F Damp=F
 DIIS: error= 1.27D-05 at cycle   1 NSaved=   1.
 NSaved= 1 IEnMin= 1 EnMin= -460.426136480389     IErMin= 1 ErrMin= 1.27D-05
 ErrMax= 1.27D-05  0.00D+00 EMaxC= 1.00D-01 BMatC= 4.93D-08 BMatP= 4.93D-08
 IDIUse=1 WtCom= 1.00D+00 WtEn= 0.00D+00
 Coeff-Com:  0.100D+01
 Coeff:      0.100D+01
 Gap=     0.144 Goal=   None    Shift=    0.000
 RMSDP=4.14D-06 MaxDP=1.20D-04 DE=-3.28D-06 OVMax= 3.77D-04

 Cycle  10  Pass 1  IDiag  1:
 CalDSu:  requested number of processors reduced to:   3 ShMem   1 Linda.
 E= -460.426136343549     Delta-E=        0.000000136840 Rises=F Damp=F
 DIIS: error= 2.61D-05 at cycle   2 NSaved=   2.
 NSaved= 2 IEnMin= 1 EnMin= -460.426136480389     IErMin= 1 ErrMin= 1.27D-05
 ErrMax= 2.61D-05  0.00D+00 EMaxC= 1.00D-01 BMatC= 2.01D-07 BMatP= 4.93D-08
 IDIUse=1 WtCom= 1.00D+00 WtEn= 0.00D+00
 Coeff-Com:  0.672D+00 0.328D+00
 Coeff:      0.672D+00 0.328D+00
 Gap=     0.144 Goal=   None    Shift=    0.000
 RMSDP=2.57D-06 MaxDP=1.04D-04 DE= 1.37D-07 OVMax= 2.50D-04

 Cycle  11  Pass 1  IDiag  1:
 CalDSu:  requested number of processors reduced to:   3 ShMem   1 Linda.
 E= -460.426136528009     Delta-E=       -0.000000184460 Rises=F Damp=F
 DIIS: error= 1.67D-06 at cycle   3 NSaved=   3.
 NSaved= 3 IEnMin= 3 EnMin= -460.426136528009     IErMin= 3 ErrMin= 1.67D-06
 ErrMax= 1.67D-06  0.00D+00 EMaxC= 1.00D-01 BMatC= 1.11D-09 BMatP= 4.93D-08
 IDIUse=1 WtCom= 1.00D+00 WtEn= 0.00D+00
 Coeff-Com:  0.267D+00 0.143D+00 0.590D+00
 Coeff:      0.267D+00 0.143D+00 0.590D+00
 Gap=     0.144 Goal=   None    Shift=    0.000
 RMSDP=2.86D-07 MaxDP=8.42D-06 DE=-1.84D-07 OVMax= 1.40D-05

 Cycle  12  Pass 1  IDiag  1:
 CalDSu:  requested number of processors reduced to:   3 ShMem   1 Linda.
 E= -460.426136528933     Delta-E=       -0.000000000924 Rises=F Damp=F
 DIIS: error= 9.69D-07 at cycle   4 NSaved=   4.
 NSaved= 4 IEnMin= 4 EnMin= -460.426136528933     IErMin= 4 ErrMin= 9.69D-07
 ErrMax= 9.69D-07  0.00D+00 EMaxC= 1.00D-01 BMatC= 2.02D-10 BMatP= 1.11D-09
 IDIUse=1 WtCom= 1.00D+00 WtEn= 0.00D+00
 Coeff-Com:  0.317D-01 0.202D-01 0.305D+00 0.644D+00
 Coeff:      0.317D-01 0.202D-01 0.305D+00 0.644D+00
 Gap=     0.144 Goal=   None    Shift=    0.000
 RMSDP=1.17D-07 MaxDP=4.15D-06 DE=-9.24D-10 OVMax= 8.68D-06

 Cycle  13  Pass 1  IDiag  1:
 CalDSu:  requested number of processors reduced to:   3 ShMem   1 Linda.
 E= -460.426136529070     Delta-E=       -0.000000000137 Rises=F Damp=F
 DIIS: error= 5.19D-07 at cycle   5 NSaved=   5.
 NSaved= 5 IEnMin= 5 EnMin= -460.426136529070     IErMin= 5 ErrMin= 5.19D-07
 ErrMax= 5.19D-07  0.00D+00 EMaxC= 1.00D-01 BMatC= 6.41D-11 BMatP= 2.02D-10
 IDIUse=1 WtCom= 1.00D+00 WtEn= 0.00D+00
 Coeff-Com: -0.152D-01-0.609D-02 0.128D+00 0.437D+00 0.457D+00
 Coeff:     -0.152D-01-0.609D-02 0.128D+00 0.437D+00 0.457D+00
 Gap=     0.144 Goal=   None    Shift=    0.000
 RMSDP=5.28D-08 MaxDP=1.95D-06 DE=-1.37D-10 OVMax= 3.39D-06

 SCF Done:  E(RB3LYP) =  -460.426136529     A.U. after   13 cycles
            NFock= 13  Conv=0.53D-07     -V/T= 2.0096
 KE= 4.560283927375D+02 PE=-2.063618816918D+03 EE= 6.443361323043D+02
 Leave Link  502 at Wed Dec 03 17:25:52 2025, MaxMem=   104857600 cpu:              17.0 elap:              16.6
 (Enter D:\Gaussian\G16W\l601.exe)
 Copying SCF densities to generalized density rwf, IOpCl= 0 IROHF=0.

 **********************************************************************

            Population analysis using the SCF density.

 **********************************************************************

 Orbital symmetries:
       Occupied  (A) (A) (A) (A) (A) (A) (A) (A) (A) (A) (A) (A)
                 (A) (A) (A) (A) (A) (A) (A) (A) (A) (A) (A) (A)
                 (A) (A) (A) (A) (A) (A) (A) (A) (A) (A) (A) (A)
       Virtual   (A) (A) (A) (A) (A) (A) (A) (A) (A) (A) (A) (A)
                 (A) (A) (A) (A) (A) (A) (A) (A) (A) (A) (A) (A)
                 (A) (A) (A) (A) (A) (A) (A) (A) (A) (A) (A) (A)
                 (A) (A) (A) (A) (A) (A) (A) (A) (A) (A) (A) (A)
                 (A) (A) (A) (A) (A) (A) (A) (A) (A) (A) (A) (A)
                 (A) (A) (A) (A) (A) (A) (A) (A) (A) (A) (A) (A)
                 (A) (A) (A) (A) (A) (A) (A) (A) (A) (A) (A) (A)
                 (A) (A) (A) (A) (A) (A) (A) (A) (A) (A) (A) (A)
                 (A) (A) (A) (A) (A) (A) (A) (A) (A) (A) (A) (A)
                 (A) (A) (A) (A) (A) (A) (A) (A) (A) (A) (A) (A)
                 (A) (A) (A) (A) (A) (A) (A) (A) (A) (A) (A) (A)
 The electronic state is 1-A.
 Alpha  occ. eigenvalues --  -19.37876 -19.35676 -10.48523 -10.48280 -10.43689
 Alpha  occ. eigenvalues --  -10.42357 -10.41677 -10.39053 -10.38427 -10.35457
 Alpha  occ. eigenvalues --   -1.26710  -1.24534  -1.06263  -0.98879  -0.95176
 Alpha  occ. eigenvalues --   -0.90165  -0.81718  -0.80588  -0.79066  -0.72061
 Alpha  occ. eigenvalues --   -0.70569  -0.68334  -0.66544  -0.64880  -0.63402
 Alpha  occ. eigenvalues --   -0.61544  -0.59530  -0.58950  -0.57355  -0.57019
 Alpha  occ. eigenvalues --   -0.55789  -0.54870  -0.53112  -0.50458  -0.45479
 Alpha  occ. eigenvalues --   -0.43905
 Alpha virt. eigenvalues --   -0.29491  -0.22149  -0.18821  -0.10275  -0.07223
 Alpha virt. eigenvalues --   -0.05689  -0.05064  -0.03277  -0.01251  -0.00662
 Alpha virt. eigenvalues --   -0.00158   0.01265   0.03216   0.03608   0.04894
 Alpha virt. eigenvalues --    0.07298   0.09187   0.11209   0.13031   0.16010
 Alpha virt. eigenvalues --    0.17578   0.25143   0.28208   0.30066   0.32365
 Alpha virt. eigenvalues --    0.35742   0.36339   0.37587   0.39526   0.40133
 Alpha virt. eigenvalues --    0.41327   0.42119   0.42812   0.46202   0.47679
 Alpha virt. eigenvalues --    0.48315   0.48970   0.52006   0.53015   0.54718
 Alpha virt. eigenvalues --    0.56912   0.57555   0.61243   0.64575   0.65318
 Alpha virt. eigenvalues --    0.66292   0.67838   0.68391   0.68894   0.71319
 Alpha virt. eigenvalues --    0.71803   0.74588   0.75328   0.76741   0.77489
 Alpha virt. eigenvalues --    0.80198   0.81471   0.83964   0.85918   0.87766
 Alpha virt. eigenvalues --    0.89985   0.95937   0.98943   0.99349   1.00739
 Alpha virt. eigenvalues --    1.09887   1.11485   1.16674   1.19403   1.19950
 Alpha virt. eigenvalues --    1.24044   1.25774   1.27564   1.31233   1.35368
 Alpha virt. eigenvalues --    1.40559   1.43283   1.49258   1.51385   1.54419
 Alpha virt. eigenvalues --    1.56085   1.60083   1.61669   1.65275   1.67164
 Alpha virt. eigenvalues --    1.68104   1.70985   1.72311   1.73356   1.75845
 Alpha virt. eigenvalues --    1.79845   1.81275   1.82556   1.84849   1.88818
 Alpha virt. eigenvalues --    1.90558   1.93315   1.94704   2.02150   2.04711
 Alpha virt. eigenvalues --    2.09093   2.14756   2.15599   2.17114   2.19113
 Alpha virt. eigenvalues --    2.22608   2.25854   2.29944   2.32571   2.33032
 Alpha virt. eigenvalues --    2.39551   2.41050   2.45863   2.51670   2.55107
 Alpha virt. eigenvalues --    2.60546   2.64219   2.69646   2.75570   2.80972
 Alpha virt. eigenvalues --    2.90604   3.10584   3.77796   3.79332   3.88342
 Alpha virt. eigenvalues --    3.92002   3.97329   4.04624   4.11701   4.18220
 Alpha virt. eigenvalues --    4.29848   4.55584
          Condensed to atoms (all electrons):
               1          2          3          4          5          6
     1  C    4.656385   0.482306   0.012860  -0.031470  -0.010757   0.482556
     2  C    0.482306   5.047777   0.532217  -0.068017  -0.030676  -0.048253
     3  C    0.012860   0.532217   4.516569   0.322523  -0.029896  -0.024338
     4  C   -0.031470  -0.068017   0.322523   5.590623   0.285447  -0.031977
     5  C   -0.010757  -0.030676  -0.029896   0.285447   5.000551   0.575720
     6  C    0.482556  -0.048253  -0.024338  -0.031977   0.575720   4.875414
     7  H    0.003003   0.000572   0.001894  -0.041900   0.359365  -0.018793
     8  O   -0.000009   0.000529  -0.000063  -0.065752   0.002400  -0.000021
     9  O    0.001915  -0.045576   0.319686  -0.045966   0.003104   0.000258
    10  H   -0.041177   0.361067  -0.035789   0.006407  -0.000554   0.005326
    11  C   -0.000099   0.002186  -0.015356   0.200292  -0.017469   0.000791
    12  H   -0.000008  -0.000001   0.002042  -0.100591   0.002525   0.000567
    13  H   -0.000096   0.004359  -0.020863  -0.015566   0.000773  -0.000033
    14  H    0.000423  -0.000735  -0.015139   0.342982  -0.020893  -0.001090
    15  H   -0.037463   0.005945  -0.000239   0.004863  -0.040620   0.367595
    16  C    0.361227  -0.059706   0.005157   0.000056   0.007309  -0.050654
    17  H   -0.020679  -0.003408  -0.000029  -0.000013  -0.000182   0.001322
    18  H   -0.020031  -0.003408  -0.000143   0.000016  -0.000251   0.001294
    19  H   -0.031201   0.003838  -0.000154   0.000009   0.000268  -0.002495
               7          8          9         10         11         12
     1  C    0.003003  -0.000009   0.001915  -0.041177  -0.000099  -0.000008
     2  C    0.000572   0.000529  -0.045576   0.361067   0.002186  -0.000001
     3  C    0.001894  -0.000063   0.319686  -0.035789  -0.015356   0.002042
     4  C   -0.041900  -0.065752  -0.045966   0.006407   0.200292  -0.100591
     5  C    0.359365   0.002400   0.003104  -0.000554  -0.017469   0.002525
     6  C   -0.018793  -0.000021   0.000258   0.005326   0.000791   0.000567
     7  H    0.473604   0.000019  -0.000041   0.000010  -0.000858   0.002700
     8  O    0.000019   7.898310  -0.018145   0.000002   0.508128  -0.040650
     9  O   -0.000041  -0.018145   8.129266  -0.001669  -0.002613  -0.000176
    10  H    0.000010   0.000002  -0.001669   0.492244  -0.000036   0.000005
    11  C   -0.000858   0.508128  -0.002613  -0.000036   4.698060   0.381071
    12  H    0.002700  -0.040650  -0.000176   0.000005   0.381071   0.541915
    13  H    0.000004   0.060026   0.216146  -0.000029  -0.004845   0.001354
    14  H    0.000007  -0.003192  -0.002132  -0.000104  -0.025208   0.001648
    15  H   -0.004571   0.000000   0.000001  -0.000073  -0.000012   0.000003
    16  C   -0.000137   0.000000  -0.000046  -0.006086  -0.000001  -0.000001
    17  H    0.000002   0.000000   0.000001   0.001317   0.000000   0.000000
    18  H    0.000002   0.000000   0.000001   0.001223   0.000001   0.000000
    19  H   -0.000004   0.000000   0.000000   0.000069   0.000000   0.000000
              13         14         15         16         17         18
     1  C   -0.000096   0.000423  -0.037463   0.361227  -0.020679  -0.020031
     2  C    0.004359  -0.000735   0.005945  -0.059706  -0.003408  -0.003408
     3  C   -0.020863  -0.015139  -0.000239   0.005157  -0.000029  -0.000143
     4  C   -0.015566   0.342982   0.004863   0.000056  -0.000013   0.000016
     5  C    0.000773  -0.020893  -0.040620   0.007309  -0.000182  -0.000251
     6  C   -0.000033  -0.001090   0.367595  -0.050654   0.001322   0.001294
     7  H    0.000004   0.000007  -0.004571  -0.000137   0.000002   0.000002
     8  O    0.060026  -0.003192   0.000000   0.000000   0.000000   0.000000
     9  O    0.216146  -0.002132   0.000001  -0.000046   0.000001   0.000001
    10  H   -0.000029  -0.000104  -0.000073  -0.006086   0.001317   0.001223
    11  C   -0.004845  -0.025208  -0.000012  -0.000001   0.000000   0.000001
    12  H    0.001354   0.001648   0.000003  -0.000001   0.000000   0.000000
    13  H    0.292484   0.001097   0.000000   0.000003   0.000000   0.000000
    14  H    0.001097   0.424414  -0.000104   0.000010   0.000002  -0.000001
    15  H    0.000000  -0.000104   0.497878  -0.007207   0.000079   0.000100
    16  C    0.000003   0.000010  -0.007207   5.205663   0.362806   0.361827
    17  H    0.000000   0.000002   0.000079   0.362806   0.465353  -0.018663
    18  H    0.000000  -0.000001   0.000100   0.361827  -0.018663   0.464889
    19  H    0.000000   0.000000   0.005138   0.371628  -0.022173  -0.021981
              19
     1  C   -0.031201
     2  C    0.003838
     3  C   -0.000154
     4  C    0.000009
     5  C    0.000268
     6  C   -0.002495
     7  H   -0.000004
     8  O    0.000000
     9  O    0.000000
    10  H    0.000069
    11  C    0.000000
    12  H    0.000000
    13  H    0.000000
    14  H    0.000000
    15  H    0.005138
    16  C    0.371628
    17  H   -0.022173
    18  H   -0.021981
    19  H    0.486469
 Mulliken charges:
               1
     1  C    0.192316
     2  C   -0.181016
     3  C    0.429061
     4  C   -0.351967
     5  C   -0.086165
     6  C   -0.133188
     7  H    0.225122
     8  O   -0.341583
     9  O   -0.554015
    10  H    0.217849
    11  C    0.275968
    12  H    0.207595
    13  H    0.465187
    14  H    0.298014
    15  H    0.208687
    16  C   -0.551849
    17  H    0.234267
    18  H    0.235126
    19  H    0.210590
 Sum of Mulliken charges =   1.00000
 Mulliken charges with hydrogens summed into heavy atoms:
               1
     1  C    0.192316
     2  C    0.036833
     3  C    0.429061
     4  C   -0.053952
     5  C    0.138957
     6  C    0.075498
     8  O   -0.341583
     9  O   -0.088828
    11  C    0.483563
    16  C    0.128135
 Electronic spatial extent (au):  <R**2>=           1508.1262
 Charge=              1.0000 electrons
 Dipole moment (field-independent basis, Debye):
    X=             -2.6388    Y=              2.6602    Z=             -0.6375  Tot=              3.8009
 Quadrupole moment (field-independent basis, Debye-Ang):
   XX=            -35.2395   YY=            -45.0185   ZZ=            -54.1024
   XY=              4.0071   XZ=             -3.7964   YZ=             -0.9853
 Traceless Quadrupole moment (field-independent basis, Debye-Ang):
   XX=              9.5473   YY=             -0.2317   ZZ=             -9.3156
   XY=              4.0071   XZ=             -3.7964   YZ=             -0.9853
 Octapole moment (field-independent basis, Debye-Ang**2):
  XXX=            -42.6240  YYY=             12.1636  ZZZ=             -0.1002  XYY=              3.4932
  XXY=             -3.0092  XXZ=             -0.3843  XZZ=              7.3334  YZZ=             -1.4506
  YYZ=              1.3824  XYZ=              2.0148
 Hexadecapole moment (field-independent basis, Debye-Ang**3):
 XXXX=          -1162.7731 YYYY=           -419.1628 ZZZZ=            -98.7861 XXXY=              1.8561
 XXXZ=            -34.2141 YYYX=              3.3378 YYYZ=             -4.4572 ZZZX=             -5.1415
 ZZZY=              0.1546 XXYY=           -244.3437 XXZZ=           -225.9364 YYZZ=            -95.2568
 XXYZ=              3.6072 YYXZ=              4.4750 ZZXY=              6.5031
 N-N= 5.028281553473D+02 E-N=-2.063618782306D+03  KE= 4.560283927375D+02
 No NMR shielding tensors so no spin-rotation constants.
 Leave Link  601 at Wed Dec 03 17:25:52 2025, MaxMem=   104857600 cpu:               0.0 elap:               0.2
 (Enter D:\Gaussian\G16W\l9999.exe)
 1|1|UNPC-PC-20250526LCFF|SP|RB3LYP|6-31G(d)|C8H9O2(1+)|ADMINISTRATOR|0
 3-Dec-2025|0||#P B3LYP/6-31G* SCF=conver=7 out=wfn||Generated by Multi
 wfn (http://sobereva.com/multiwfn)||1,1|C,0,-1.894406,-0.035244,0.0752
 53|C,0,-0.92865,-1.075407,0.015703|C,0,0.390327,-0.83212,-0.226834|C,0
 ,0.913905,0.564962,-0.484087|C,0,-0.149407,1.616229,-0.344312|C,0,-1.4
 5439,1.299247,-0.100972|H,0,0.150002,2.649495,-0.484469|O,0,3.046446,0
 .054554,0.540717|O,0,1.277411,-1.851619,-0.308006|H,0,-1.226462,-2.107
 67,0.168257|C,0,2.14891,0.850313,0.385231|H,0,2.183151,1.844755,0.8730
 33|H,0,2.168783,-1.49429,-0.148363|H,0,1.333558,0.573191,-1.514223|H,0
 ,-2.184717,2.099977,-0.034052|C,0,-3.335954,-0.359983,0.348651|H,0,-3.
 740524,-1.050044,-0.400921|H,0,-3.46087,-0.845783,1.32387|H,0,-3.95578
 3,0.53891,0.343389||Version=EM64W-G16RevA.03|State=1-A|HF=-460.4261365
 |RMSD=5.280e-008|Dipole=-1.0381966,1.0466072,-0.2508262|Quadrupole=7.0
 982072,-0.1722748,-6.9259324,2.9791566,-2.8225568,-0.7325354|PG=C01 [X
 (C8H9O2)]||@

 Writing a WFN file to "N-1.wfn"


 IF I AM NOT FOR MYSELF, WHO WILL BE?
 BUT IF I AM ONLY FOR MYSELF, WHAT AM I?
 THOUGH A SEEKER SINCE MY BIRTH,
 HERE IS ALL I'VE LEARNED ON EARTH,
 THIS IS THE GIST OF WHAT I KNOW:
 GIVE ADVICE AND BUY A FOE.

 PRESSED FOR RULES AND VERITIES,
 ALL I RECOLLECT ARE THESE:
 FEED A COLD TO STARVE A FEVER,
 ARGUE WITH NO TRUE-BELIEVER.
 THINK-TOO-LONG IS NEVER-ACT,
 SCRATCH A MYTH AND FIND A FACT.

 STITCH IN TIME SAVES TWENTY STITCHES,
 GIVE THE RICH TO PLEASE THEM, RICHES.
 GIVE TO LOVE YOU HEARTH AND HALL,
 BUT DO NOT GIVE ADVICE AT ALL.

                                  -- HILLEL
 Job cpu time:       0 days  0 hours  0 minutes 19.0 seconds.
 Elapsed time:       0 days  0 hours  0 minutes 18.7 seconds.
 File lengths (MBytes):  RWF=     15 Int=      0 D2E=      0 Chk=      3 Scr=      1
 Normal termination of Gaussian 16 at Wed Dec 03 17:25:52 2025.
