 Entering Link 1 = D:\Gaussian\G16W\l1.exe PID=     42892.
  
 Copyright (c) 1988,1990,1992,1993,1995,1998,2003,2009,2016,
            Gaussian, Inc.  All Rights Reserved.
  
 This is part of the Gaussian(R) 16 program.  It is based on
 the Gaussian(R) 09 system (copyright 2009, Gaussian, Inc.),
 the Gaussian(R) 03 system (copyright 2003, Gaussian, Inc.),
 the Gaussian(R) 98 system (copyright 1998, Gaussian, Inc.),
 the Gaussian(R) 94 system (copyright 1995, Gaussian, Inc.),
 the Gaussian 92(TM) system (copyright 1992, Gaussian, Inc.),
 the Gaussian 90(TM) system (copyright 1990, Gaussian, Inc.),
 the Gaussian 88(TM) system (copyright 1988, Gaussian, Inc.),
 the Gaussian 86(TM) system (copyright 1986, Carnegie Mellon
 University), and the Gaussian 82(TM) system (copyright 1983,
 Carnegie Mellon University). Gaussian is a federally registered
 trademark of Gaussian, Inc.
  
 This software contains proprietary and confidential information,
 including trade secrets, belonging to Gaussian, Inc.
  
 This software is provided under written license and may be
 used, copied, transmitted, or stored only in accord with that
 written license.
  
 The following legend is applicable only to US Government
 contracts under FAR:
  
                    RESTRICTED RIGHTS LEGEND
  
 Use, reproduction and disclosure by the US Government is
 subject to restrictions as set forth in subparagraphs (a)
 and (c) of the Commercial Computer Software - Restricted
 Rights clause in FAR 52.227-19.
  
 Gaussian, Inc.
 340 Quinnipiac St., Bldg. 40, Wallingford CT 06492
  
  
 ---------------------------------------------------------------
 Warning -- This program may not be used in any manner that
 competes with the business of Gaussian, Inc. or will provide
 assistance to any competitor of Gaussian, Inc.  The licensee
 of this program is prohibited from giving any competitor of
 Gaussian, Inc. access to this program.  By using this program,
 the user acknowledges that Gaussian, Inc. is engaged in the
 business of creating and licensing software in the field of
 computational chemistry and represents and warrants to the
 licensee that it is not a competitor of Gaussian, Inc. and that
 it will not use this program in any manner prohibited above.
 ---------------------------------------------------------------
  

 Cite this work as:
 Gaussian 16, Revision A.03,
 M. J. Frisch, G. W. Trucks, H. B. Schlegel, G. E. Scuseria, 
 M. A. Robb, J. R. Cheeseman, G. Scalmani, V. Barone, 
 G. A. Petersson, H. Nakatsuji, X. Li, M. Caricato, A. V. Marenich, 
 J. Bloino, B. G. Janesko, R. Gomperts, B. Mennucci, H. P. Hratchian, 
 J. V. Ortiz, A. F. Izmaylov, J. L. Sonnenberg, D. Williams-Young, 
 F. Ding, F. Lipparini, F. Egidi, J. Goings, B. Peng, A. Petrone, 
 T. Henderson, D. Ranasinghe, V. G. Zakrzewski, J. Gao, N. Rega, 
 G. Zheng, W. Liang, M. Hada, M. Ehara, K. Toyota, R. Fukuda, 
 J. Hasegawa, M. Ishida, T. Nakajima, Y. Honda, O. Kitao, H. Nakai, 
 T. Vreven, K. Throssell, J. A. Montgomery, Jr., J. E. Peralta, 
 F. Ogliaro, M. J. Bearpark, J. J. Heyd, E. N. Brothers, K. N. Kudin, 
 V. N. Staroverov, T. A. Keith, R. Kobayashi, J. Normand, 
 K. Raghavachari, A. P. Rendell, J. C. Burant, S. S. Iyengar, 
 J. Tomasi, M. Cossi, J. M. Millam, M. Klene, C. Adamo, R. Cammi, 
 J. W. Ochterski, R. L. Martin, K. Morokuma, O. Farkas, 
 J. B. Foresman, and D. J. Fox, Gaussian, Inc., Wallingford CT, 2016.
 
 ******************************************
 Gaussian 16:  EM64W-G16RevA.03 17-Dec-2016
                03-Dec-2025 
 ******************************************
 %nprocs=   4
 Will use up to    4 processors via shared memory.
 ------------------------------------
 #P B3LYP/6-31G* SCF=conver=7 out=wfn
 ------------------------------------
 1/38=1,172=1/1;
 2/12=2,17=6,18=5,40=1/2;
 3/5=1,6=6,7=1,11=2,25=1,30=1,74=-5/1,2,3;
 4//1;
 5/5=2,6=7,38=5/2;
 6/7=2,8=2,9=2,10=2,28=1/1;
 99/5=1,6=100,9=1/99;
 Leave Link    1 at Wed Dec 03 17:24:10 2025, MaxMem=           0 cpu:               0.0 elap:               0.1
 (Enter D:\Gaussian\G16W\l101.exe)
 ----------------------------------------------------
 Generated by Multiwfn (http://sobereva.com/multiwfn)
 ----------------------------------------------------
 Symbolic Z-matrix:
 Charge =  0 Multiplicity = 2
 C                    -1.89441  -0.03524   0.07525 
 C                    -0.92865  -1.07541   0.0157 
 C                     0.39033  -0.83212  -0.22683 
 C                     0.91391   0.56496  -0.48409 
 C                    -0.14941   1.61623  -0.34431 
 C                    -1.45439   1.29925  -0.10097 
 H                     0.15      2.6495   -0.48447 
 O                     3.04645   0.05455   0.54072 
 O                     1.27741  -1.85162  -0.30801 
 H                    -1.22646  -2.10767   0.16826 
 C                     2.14891   0.85031   0.38523 
 H                     2.18315   1.84476   0.87303 
 H                     2.16878  -1.49429  -0.14836 
 H                     1.33356   0.57319  -1.51422 
 H                    -2.18472   2.09998  -0.03405 
 C                    -3.33595  -0.35998   0.34865 
 H                    -3.74052  -1.05004  -0.40092 
 H                    -3.46087  -0.84578   1.32387 
 H                    -3.95578   0.53891   0.34339 
 
 ITRead=  0  0  0  0  0  0  0  0  0  0  0  0  0  0  0  0  0  0  0
 MicOpt= -1 -1 -1 -1 -1 -1 -1 -1 -1 -1 -1 -1 -1 -1 -1 -1 -1 -1 -1
 NAtoms=     19 NQM=       19 NQMF=       0 NMMI=      0 NMMIF=      0
                NMic=       0 NMicF=      0.
                    Isotopes and Nuclear Properties:
 (Nuclear quadrupole moments (NQMom) in fm**2, nuclear magnetic moments (NMagM)
  in nuclear magnetons)

  Atom         1           2           3           4           5           6           7           8           9          10
 IAtWgt=          12          12          12          12          12          12           1          16          16           1
 AtmWgt=  12.0000000  12.0000000  12.0000000  12.0000000  12.0000000  12.0000000   1.0078250  15.9949146  15.9949146   1.0078250
 NucSpn=           0           0           0           0           0           0           1           0           0           1
 AtZEff=   0.0000000   0.0000000   0.0000000   0.0000000   0.0000000   0.0000000   0.0000000   0.0000000   0.0000000   0.0000000
 NQMom=    0.0000000   0.0000000   0.0000000   0.0000000   0.0000000   0.0000000   0.0000000   0.0000000   0.0000000   0.0000000
 NMagM=    0.0000000   0.0000000   0.0000000   0.0000000   0.0000000   0.0000000   2.7928460   0.0000000   0.0000000   2.7928460
 AtZNuc=   6.0000000   6.0000000   6.0000000   6.0000000   6.0000000   6.0000000   1.0000000   8.0000000   8.0000000   1.0000000

  Atom        11          12          13          14          15          16          17          18          19
 IAtWgt=          12           1           1           1           1          12           1           1           1
 AtmWgt=  12.0000000   1.0078250   1.0078250   1.0078250   1.0078250  12.0000000   1.0078250   1.0078250   1.0078250
 NucSpn=           0           1           1           1           1           0           1           1           1
 AtZEff=   0.0000000   0.0000000   0.0000000   0.0000000   0.0000000   0.0000000   0.0000000   0.0000000   0.0000000
 NQMom=    0.0000000   0.0000000   0.0000000   0.0000000   0.0000000   0.0000000   0.0000000   0.0000000   0.0000000
 NMagM=    0.0000000   2.7928460   2.7928460   2.7928460   2.7928460   0.0000000   2.7928460   2.7928460   2.7928460
 AtZNuc=   6.0000000   1.0000000   1.0000000   1.0000000   1.0000000   6.0000000   1.0000000   1.0000000   1.0000000
 Leave Link  101 at Wed Dec 03 17:24:11 2025, MaxMem=   104857600 cpu:               1.0 elap:               0.1
 (Enter D:\Gaussian\G16W\l202.exe)
                          Input orientation:                          
 ---------------------------------------------------------------------
 Center     Atomic      Atomic             Coordinates (Angstroms)
 Number     Number       Type             X           Y           Z
 ---------------------------------------------------------------------
      1          6           0       -1.894406   -0.035244    0.075253
      2          6           0       -0.928650   -1.075407    0.015703
      3          6           0        0.390327   -0.832120   -0.226834
      4          6           0        0.913905    0.564962   -0.484087
      5          6           0       -0.149407    1.616229   -0.344312
      6          6           0       -1.454390    1.299247   -0.100972
      7          1           0        0.150002    2.649495   -0.484469
      8          8           0        3.046446    0.054554    0.540717
      9          8           0        1.277411   -1.851619   -0.308006
     10          1           0       -1.226462   -2.107670    0.168257
     11          6           0        2.148910    0.850313    0.385231
     12          1           0        2.183151    1.844755    0.873033
     13          1           0        2.168783   -1.494290   -0.148363
     14          1           0        1.333558    0.573191   -1.514223
     15          1           0       -2.184717    2.099977   -0.034052
     16          6           0       -3.335954   -0.359983    0.348651
     17          1           0       -3.740524   -1.050044   -0.400921
     18          1           0       -3.460870   -0.845783    1.323870
     19          1           0       -3.955783    0.538910    0.343389
 ---------------------------------------------------------------------
                    Distance matrix (angstroms):
                    1          2          3          4          5
     1  C    0.000000
     2  C    1.420623   0.000000
     3  C    2.438498   1.362979   0.000000
     4  C    2.925700   2.517064   1.513985   0.000000
     5  C    2.438938   2.825196   2.509886   1.501776   0.000000
     6  C    1.416169   2.434953   2.821621   2.508939   1.364798
     7  H    3.420631   3.910058   3.499396   2.220096   1.084863
     8  O    4.963541   4.165794   2.903497   2.420428   3.665458
     9  O    3.675123   2.360932   1.353841   2.450103   3.750080
    10  H    2.179392   1.085141   2.096934   3.485640   3.910268
    11  C    4.150747   3.649154   2.509545   1.537002   2.530044
    12  H    4.560408   4.352662   3.404348   2.256243   2.641019
    13  H    4.322999   3.129932   1.899351   2.434738   3.884293
    14  H    3.649161   3.190005   2.126489   1.112365   2.157731
    15  H    2.157637   3.415149   3.907072   3.487157   2.114890
    16  C    1.502752   2.533337   3.799903   4.428349   3.813095
    17  H    2.159795   2.842684   4.140257   4.927359   4.473068
    18  H    2.160978   2.859400   4.151697   4.939389   4.450856
    19  H    2.156577   3.446292   4.592771   4.939560   4.015227
                    6          7          8          9         10
     6  C    0.000000
     7  H    2.131740   0.000000
     8  O    4.713656   4.021705   0.000000
     9  O    4.175351   4.643513   2.735564   0.000000
    10  H    3.425130   4.995130   4.803299   2.561595   0.000000
    11  C    3.663565   2.826494   1.209537   2.922418   4.493315
    12  H    3.804993   2.573735   2.015076   3.984771   5.267242
    13  H    4.575312   4.621623   1.908937   0.973506   3.464704
    14  H    3.208908   2.602352   2.725023   2.708840   4.070805
    15  H    1.085829   2.440442   5.646165   5.260845   4.320124
    16  C    2.548625   4.680057   6.398731   4.892782   2.745343
    17  H    3.291739   5.369335   6.940445   5.082404   2.786224
    18  H    3.264551   5.340923   6.615822   5.111363   2.814317
    19  H    2.651893   4.690137   7.021734   5.790100   3.805818
                   11         12         13         14         15
    11  C    0.000000
    12  H    1.108169   0.000000
    13  H    2.404637   3.491802   0.000000
    14  H    2.085551   2.835079   2.614890   0.000000
    15  H    4.529656   4.468357   5.646661   4.110990   0.000000
    16  C    5.616929   5.966269   5.642323   5.113263   2.742847
    17  H    6.238175   6.715113   5.931362   5.442485   3.532387
    18  H    5.935269   6.268750   5.855000   5.749330   3.485688
    19  H    6.112773   6.298592   6.471942   5.606160   2.390830
                   16         17         18         19
    16  C    0.000000
    17  H    1.096230   0.000000
    18  H    1.096658   1.759214   0.000000
    19  H    1.091890   1.767798   1.767387   0.000000
 Stoichiometry    C8H9O2(2)
 Framework group  C1[X(C8H9O2)]
 Deg. of freedom    51
 Full point group                 C1      NOp   1
 Largest Abelian subgroup         C1      NOp   1
 Largest concise Abelian subgroup C1      NOp   1
                         Standard orientation:                         
 ---------------------------------------------------------------------
 Center     Atomic      Atomic             Coordinates (Angstroms)
 Number     Number       Type             X           Y           Z
 ---------------------------------------------------------------------
      1          6           0       -1.894406   -0.035244    0.075253
      2          6           0       -0.928650   -1.075407    0.015703
      3          6           0        0.390327   -0.832120   -0.226834
      4          6           0        0.913905    0.564962   -0.484087
      5          6           0       -0.149407    1.616229   -0.344312
      6          6           0       -1.454390    1.299247   -0.100972
      7          1           0        0.150002    2.649495   -0.484469
      8          8           0        3.046446    0.054554    0.540717
      9          8           0        1.277411   -1.851619   -0.308006
     10          1           0       -1.226462   -2.107670    0.168257
     11          6           0        2.148910    0.850313    0.385231
     12          1           0        2.183151    1.844755    0.873033
     13          1           0        2.168783   -1.494290   -0.148363
     14          1           0        1.333558    0.573191   -1.514223
     15          1           0       -2.184717    2.099977   -0.034052
     16          6           0       -3.335954   -0.359983    0.348651
     17          1           0       -3.740524   -1.050045   -0.400921
     18          1           0       -3.460870   -0.845783    1.323870
     19          1           0       -3.955783    0.538909    0.343389
 ---------------------------------------------------------------------
 Rotational constants (GHZ):           2.7078576           0.9473931           0.7427511
 Leave Link  202 at Wed Dec 03 17:24:11 2025, MaxMem=   104857600 cpu:               0.0 elap:               0.1
 (Enter D:\Gaussian\G16W\l301.exe)
 Standard basis: 6-31G(d) (6D, 7F)
 Ernie: Thresh=  0.10000D-02 Tol=  0.10000D-05 Strict=F.
 There are   168 symmetry adapted cartesian basis functions of A   symmetry.
 There are   168 symmetry adapted basis functions of A   symmetry.
   168 basis functions,   316 primitive gaussians,   168 cartesian basis functions
    37 alpha electrons       36 beta electrons
       nuclear repulsion energy       502.8281553473 Hartrees.
 IExCor=  402 DFT=T Ex+Corr=B3LYP ExCW=0 ScaHFX=  0.200000
 ScaDFX=  0.800000  0.720000  1.000000  0.810000 ScalE2=  1.000000  1.000000
 IRadAn=      5 IRanWt=     -1 IRanGd=            0 ICorTp=0 IEmpDi=  4
 NAtoms=   19 NActive=   19 NUniq=   19 SFac= 1.00D+00 NAtFMM=   60 NAOKFM=F Big=F
 Integral buffers will be    131072 words long.
 Raffenetti 2 integral format.
 Two-electron integral symmetry is turned on.
 Leave Link  301 at Wed Dec 03 17:24:11 2025, MaxMem=   104857600 cpu:               0.0 elap:               0.1
 (Enter D:\Gaussian\G16W\l302.exe)
 NPDir=0 NMtPBC=     1 NCelOv=     1 NCel=       1 NClECP=     1 NCelD=      1
         NCelK=      1 NCelE2=     1 NClLst=     1 CellRange=     0.0.
 One-electron integrals computed using PRISM.
 One-electron integral symmetry used in STVInt
 NBasis=   168 RedAO= T EigKep=  6.37D-04  NBF=   168
 NBsUse=   168 1.00D-06 EigRej= -1.00D+00 NBFU=   168
 Precomputing XC quadrature grid using
 IXCGrd= 4 IRadAn=           5 IRanWt=          -1 IRanGd=           0 AccXCQ= 0.00D+00.
 Generated NRdTot=       0 NPtTot=           0 NUsed=           0 NTot=          32
 NSgBfM=   168   168   168   168   168 MxSgAt=    19 MxSgA2=    19.
 Leave Link  302 at Wed Dec 03 17:24:11 2025, MaxMem=   104857600 cpu:               0.0 elap:               0.4
 (Enter D:\Gaussian\G16W\l303.exe)
 DipDrv:  MaxL=1.
 Leave Link  303 at Wed Dec 03 17:24:11 2025, MaxMem=   104857600 cpu:               0.0 elap:               0.1
 (Enter D:\Gaussian\G16W\l401.exe)
 ExpMin= 1.61D-01 ExpMax= 5.48D+03 ExpMxC= 8.25D+02 IAcc=3 IRadAn=         5 AccDes= 0.00D+00
 Harris functional with IExCor=  402 and IRadAn=       5 diagonalized for initial guess.
 HarFok:  IExCor=  402 AccDes= 0.00D+00 IRadAn=         5 IDoV= 1 UseB2=F ITyADJ=14
 ICtDFT=  3500011 ScaDFX=  1.000000  1.000000  1.000000  1.000000
 FoFCou: FMM=F IPFlag=           0 FMFlag=      100000 FMFlg1=           0
         NFxFlg=           0 DoJE=T BraDBF=F KetDBF=T FulRan=T
         wScrn=  0.000000 ICntrl=       500 IOpCl=  0 I1Cent=   200000004 NGrid=           0
         NMat0=    1 NMatS0=      1 NMatT0=    0 NMatD0=    1 NMtDS0=    0 NMtDT0=    0
 Petite list used in FoFCou.
 Harris En= -460.672632129707    
 JPrj=0 DoOrth=F DoCkMO=F.
 Initial guess <Sx>= 0.0000 <Sy>= 0.0000 <Sz>= 0.5000 <S**2>= 0.7500 S= 0.5000
 Leave Link  401 at Wed Dec 03 17:24:12 2025, MaxMem=   104857600 cpu:               1.0 elap:               1.2
 (Enter D:\Gaussian\G16W\l502.exe)
 Integral symmetry usage will be decided dynamically.
 UHF open shell SCF:
 Using DIIS extrapolation, IDIIS=  1040.
 NGot=   104857600 LenX=   104798149 LenY=   104769484
 Requested convergence on RMS density matrix=1.00D-07 within 128 cycles.
 Requested convergence on MAX density matrix=1.00D-05.
 Requested convergence on             energy=1.00D-05.
 No special actions if energy rises.
 Fock matrices will be formed incrementally for  20 cycles.
 Integral accuracy reduced to 1.0D-05 until final iterations.

 Cycle   1  Pass 0  IDiag  1:
 FoFJK:  IHMeth= 1 ICntrl=       0 DoSepK=F KAlg= 0 I1Cent=           0 FoldK=F
 IRaf= 930000000 NMat=       1 IRICut=       1 DoRegI=T DoRafI=F ISym2E= 0 IDoP0=0 IntGTp=1.
 FoFCou: FMM=F IPFlag=           0 FMFlag=      100000 FMFlg1=           0
         NFxFlg=           0 DoJE=F BraDBF=F KetDBF=F FulRan=T
         wScrn=  0.000000 ICntrl=         0 IOpCl=  1 I1Cent=           0 NGrid=           0
         NMat0=    1 NMatS0=      1 NMatT0=    0 NMatD0=    1 NMtDS0=    0 NMtDT0=    0
 Symmetry not used in FoFCou.
 E= -460.381068135516    
 DIIS: error= 3.29D-02 at cycle   1 NSaved=   1.
 NSaved= 1 IEnMin= 1 EnMin= -460.381068135516     IErMin= 1 ErrMin= 3.29D-02
 ErrMax= 3.29D-02  0.00D+00 EMaxC= 1.00D-01 BMatC= 1.09D+00 BMatP= 1.09D+00
 IDIUse=3 WtCom= 6.71D-01 WtEn= 3.29D-01
 Coeff-Com:  0.100D+01
 Coeff-En:   0.100D+01
 Coeff:      0.100D+01
 Gap=     0.010 Goal=   None    Shift=    0.000
 Gap=     0.139 Goal=   None    Shift=    0.000
 GapD=    0.010 DampG=0.250 DampE=0.500 DampFc=0.2500 IDamp=-1.
 Damping current iteration by 2.50D-01
 RMSDP=7.71D-03 MaxDP=1.92D-01              OVMax= 3.43D-01

 Cycle   2  Pass 0  IDiag  1:
 RMSU=  1.92D-03    CP:  9.92D-01
 E= -460.476858106461     Delta-E=       -0.095789970944 Rises=F Damp=T
 DIIS: error= 1.61D-02 at cycle   2 NSaved=   2.
 NSaved= 2 IEnMin= 2 EnMin= -460.476858106461     IErMin= 2 ErrMin= 1.61D-02
 ErrMax= 1.61D-02  0.00D+00 EMaxC= 1.00D-01 BMatC= 2.54D-01 BMatP= 1.09D+00
 IDIUse=3 WtCom= 8.39D-01 WtEn= 1.61D-01
 Coeff-Com: -0.693D+00 0.169D+01
 Coeff-En:   0.000D+00 0.100D+01
 Coeff:     -0.581D+00 0.158D+01
 Gap=     0.086 Goal=   None    Shift=    0.000
 Gap=     0.159 Goal=   None    Shift=    0.000
 RMSDP=2.42D-03 MaxDP=4.70D-02 DE=-9.58D-02 OVMax= 2.82D-01

 Cycle   3  Pass 0  IDiag  1:
 RMSU=  2.16D-03    CP:  9.74D-01  1.50D+00
 E= -460.623750646937     Delta-E=       -0.146892540476 Rises=F Damp=F
 DIIS: error= 1.38D-02 at cycle   3 NSaved=   3.
 NSaved= 3 IEnMin= 3 EnMin= -460.623750646937     IErMin= 3 ErrMin= 1.38D-02
 ErrMax= 1.38D-02  0.00D+00 EMaxC= 1.00D-01 BMatC= 1.08D-01 BMatP= 2.54D-01
 IDIUse=3 WtCom= 8.62D-01 WtEn= 1.38D-01
 Coeff-Com: -0.411D+00 0.942D+00 0.469D+00
 Coeff-En:   0.000D+00 0.000D+00 0.100D+01
 Coeff:     -0.355D+00 0.812D+00 0.542D+00
 Gap=     0.100 Goal=   None    Shift=    0.000
 Gap=     0.159 Goal=   None    Shift=    0.000
 RMSDP=1.40D-03 MaxDP=3.44D-02 DE=-1.47D-01 OVMax= 6.51D-02

 Cycle   4  Pass 0  IDiag  1:
 RMSU=  9.86D-04    CP:  9.79D-01  1.54D+00  5.47D-01
 E= -460.643149270889     Delta-E=       -0.019398623953 Rises=F Damp=F
 DIIS: error= 8.30D-03 at cycle   4 NSaved=   4.
 NSaved= 4 IEnMin= 4 EnMin= -460.643149270889     IErMin= 4 ErrMin= 8.30D-03
 ErrMax= 8.30D-03  0.00D+00 EMaxC= 1.00D-01 BMatC= 3.02D-02 BMatP= 1.08D-01
 IDIUse=3 WtCom= 9.17D-01 WtEn= 8.30D-02
 Coeff-Com: -0.440D-01 0.122D+00 0.342D+00 0.580D+00
 Coeff-En:   0.000D+00 0.000D+00 0.237D+00 0.763D+00
 Coeff:     -0.404D-01 0.112D+00 0.333D+00 0.595D+00
 Gap=     0.095 Goal=   None    Shift=    0.000
 Gap=     0.159 Goal=   None    Shift=    0.000
 RMSDP=5.49D-04 MaxDP=1.54D-02 DE=-1.94D-02 OVMax= 2.93D-02

 Cycle   5  Pass 0  IDiag  1:
 RMSU=  2.87D-04    CP:  9.78D-01  1.51D+00  6.80D-01  6.30D-01
 E= -460.649618609822     Delta-E=       -0.006469338933 Rises=F Damp=F
 DIIS: error= 1.41D-03 at cycle   5 NSaved=   5.
 NSaved= 5 IEnMin= 5 EnMin= -460.649618609822     IErMin= 5 ErrMin= 1.41D-03
 ErrMax= 1.41D-03  0.00D+00 EMaxC= 1.00D-01 BMatC= 1.62D-03 BMatP= 3.02D-02
 IDIUse=3 WtCom= 9.86D-01 WtEn= 1.41D-02
 Coeff-Com:  0.518D-02-0.104D-02 0.146D+00 0.325D+00 0.525D+00
 Coeff-En:   0.000D+00 0.000D+00 0.000D+00 0.000D+00 0.100D+01
 Coeff:      0.511D-02-0.102D-02 0.144D+00 0.320D+00 0.532D+00
 Gap=     0.101 Goal=   None    Shift=    0.000
 Gap=     0.160 Goal=   None    Shift=    0.000
 RMSDP=1.56D-04 MaxDP=5.87D-03 DE=-6.47D-03 OVMax= 9.60D-03

 Cycle   6  Pass 0  IDiag  1:
 RMSU=  1.27D-04    CP:  9.78D-01  1.51D+00  6.88D-01  6.79D-01  7.37D-01
 E= -460.650028109038     Delta-E=       -0.000409499215 Rises=F Damp=F
 DIIS: error= 3.58D-04 at cycle   6 NSaved=   6.
 NSaved= 6 IEnMin= 6 EnMin= -460.650028109038     IErMin= 6 ErrMin= 3.58D-04
 ErrMax= 3.58D-04  0.00D+00 EMaxC= 1.00D-01 BMatC= 1.60D-04 BMatP= 1.62D-03
 IDIUse=3 WtCom= 9.96D-01 WtEn= 3.58D-03
 Coeff-Com:  0.912D-02-0.180D-01 0.159D-01 0.529D-01 0.226D+00 0.714D+00
 Coeff-En:   0.000D+00 0.000D+00 0.000D+00 0.000D+00 0.000D+00 0.100D+01
 Coeff:      0.909D-02-0.180D-01 0.159D-01 0.527D-01 0.225D+00 0.715D+00
 Gap=     0.102 Goal=   None    Shift=    0.000
 Gap=     0.161 Goal=   None    Shift=    0.000
 RMSDP=7.87D-05 MaxDP=4.31D-03 DE=-4.09D-04 OVMax= 7.11D-03

 Cycle   7  Pass 0  IDiag  1:
 RMSU=  6.36D-05    CP:  9.77D-01  1.51D+00  6.91D-01  6.98D-01  8.81D-01
                    CP:  9.97D-01
 E= -460.650111173604     Delta-E=       -0.000083064566 Rises=F Damp=F
 DIIS: error= 2.08D-04 at cycle   7 NSaved=   7.
 NSaved= 7 IEnMin= 7 EnMin= -460.650111173604     IErMin= 7 ErrMin= 2.08D-04
 ErrMax= 2.08D-04  0.00D+00 EMaxC= 1.00D-01 BMatC= 6.60D-05 BMatP= 1.60D-04
 IDIUse=3 WtCom= 9.98D-01 WtEn= 2.08D-03
 Coeff-Com:  0.263D-02-0.815D-02-0.352D-01-0.723D-01-0.569D-01 0.400D+00
 Coeff-Com:  0.770D+00
 Coeff-En:   0.000D+00 0.000D+00 0.000D+00 0.000D+00 0.000D+00 0.000D+00
 Coeff-En:   0.100D+01
 Coeff:      0.263D-02-0.813D-02-0.351D-01-0.721D-01-0.568D-01 0.399D+00
 Coeff:      0.771D+00
 Gap=     0.102 Goal=   None    Shift=    0.000
 Gap=     0.162 Goal=   None    Shift=    0.000
 RMSDP=5.57D-05 MaxDP=2.29D-03 DE=-8.31D-05 OVMax= 6.29D-03

 Cycle   8  Pass 0  IDiag  1:
 RMSU=  3.02D-05    CP:  9.77D-01  1.50D+00  6.97D-01  7.09D-01  9.56D-01
                    CP:  1.29D+00  1.07D+00
 E= -460.650152282591     Delta-E=       -0.000041108988 Rises=F Damp=F
 DIIS: error= 1.25D-04 at cycle   8 NSaved=   8.
 NSaved= 8 IEnMin= 8 EnMin= -460.650152282591     IErMin= 8 ErrMin= 1.25D-04
 ErrMax= 1.25D-04  0.00D+00 EMaxC= 1.00D-01 BMatC= 1.76D-05 BMatP= 6.60D-05
 IDIUse=3 WtCom= 9.99D-01 WtEn= 1.25D-03
 Coeff-Com: -0.179D-02 0.186D-02-0.266D-01-0.619D-01-0.126D+00-0.189D-01
 Coeff-Com:  0.443D+00 0.790D+00
 Coeff-En:   0.000D+00 0.000D+00 0.000D+00 0.000D+00 0.000D+00 0.000D+00
 Coeff-En:   0.000D+00 0.100D+01
 Coeff:     -0.179D-02 0.186D-02-0.266D-01-0.619D-01-0.126D+00-0.189D-01
 Coeff:      0.443D+00 0.790D+00
 Gap=     0.102 Goal=   None    Shift=    0.000
 Gap=     0.163 Goal=   None    Shift=    0.000
 RMSDP=3.79D-05 MaxDP=1.82D-03 DE=-4.11D-05 OVMax= 4.34D-03

 Cycle   9  Pass 0  IDiag  1:
 RMSU=  1.45D-05    CP:  9.77D-01  1.51D+00  6.96D-01  7.16D-01  1.02D+00
                    CP:  1.47D+00  1.34D+00  9.32D-01
 E= -460.650163865733     Delta-E=       -0.000011583142 Rises=F Damp=F
 DIIS: error= 7.24D-05 at cycle   9 NSaved=   9.
 NSaved= 9 IEnMin= 9 EnMin= -460.650163865733     IErMin= 9 ErrMin= 7.24D-05
 ErrMax= 7.24D-05  0.00D+00 EMaxC= 1.00D-01 BMatC= 5.41D-06 BMatP= 1.76D-05
 IDIUse=1 WtCom= 1.00D+00 WtEn= 0.00D+00
 Coeff-Com: -0.195D-02 0.321D-02-0.104D-01-0.262D-01-0.699D-01-0.798D-01
 Coeff-Com:  0.135D+00 0.489D+00 0.561D+00
 Coeff:     -0.195D-02 0.321D-02-0.104D-01-0.262D-01-0.699D-01-0.798D-01
 Coeff:      0.135D+00 0.489D+00 0.561D+00
 Gap=     0.102 Goal=   None    Shift=    0.000
 Gap=     0.163 Goal=   None    Shift=    0.000
 RMSDP=1.23D-05 MaxDP=5.12D-04 DE=-1.16D-05 OVMax= 1.39D-03

 Cycle  10  Pass 0  IDiag  1:
 RMSU=  5.61D-06    CP:  9.77D-01  1.50D+00  6.97D-01  7.19D-01  1.03D+00
                    CP:  1.51D+00  1.44D+00  1.08D+00  7.52D-01
 E= -460.650165722387     Delta-E=       -0.000001856655 Rises=F Damp=F
 DIIS: error= 1.87D-05 at cycle  10 NSaved=  10.
 NSaved=10 IEnMin=10 EnMin= -460.650165722387     IErMin=10 ErrMin= 1.87D-05
 ErrMax= 1.87D-05  0.00D+00 EMaxC= 1.00D-01 BMatC= 3.36D-07 BMatP= 5.41D-06
 IDIUse=1 WtCom= 1.00D+00 WtEn= 0.00D+00
 Coeff-Com: -0.401D-03 0.767D-03-0.287D-03-0.991D-03-0.899D-02-0.267D-01
 Coeff-Com: -0.123D-01 0.716D-01 0.219D+00 0.758D+00
 Coeff:     -0.401D-03 0.767D-03-0.287D-03-0.991D-03-0.899D-02-0.267D-01
 Coeff:     -0.123D-01 0.716D-01 0.219D+00 0.758D+00
 Gap=     0.102 Goal=   None    Shift=    0.000
 Gap=     0.163 Goal=   None    Shift=    0.000
 RMSDP=3.96D-06 MaxDP=1.42D-04 DE=-1.86D-06 OVMax= 3.52D-04

 Initial convergence to 1.0D-05 achieved.  Increase integral accuracy.
 Cycle  11  Pass 1  IDiag  1:
 E= -460.650169643124     Delta-E=       -0.000003920736 Rises=F Damp=F
 DIIS: error= 1.14D-05 at cycle   1 NSaved=   1.
 NSaved= 1 IEnMin= 1 EnMin= -460.650169643124     IErMin= 1 ErrMin= 1.14D-05
 ErrMax= 1.14D-05  0.00D+00 EMaxC= 1.00D-01 BMatC= 1.26D-07 BMatP= 1.26D-07
 IDIUse=1 WtCom= 1.00D+00 WtEn= 0.00D+00
 Coeff-Com:  0.100D+01
 Coeff:      0.100D+01
 Gap=     0.102 Goal=   None    Shift=    0.000
 Gap=     0.163 Goal=   None    Shift=    0.000
 RMSDP=3.96D-06 MaxDP=1.42D-04 DE=-3.92D-06 OVMax= 1.36D-04

 Cycle  12  Pass 1  IDiag  1:
 RMSU=  4.70D-06    CP:  1.00D+00
 E= -460.650169647659     Delta-E=       -0.000000004535 Rises=F Damp=F
 DIIS: error= 9.93D-06 at cycle   2 NSaved=   2.
 NSaved= 2 IEnMin= 2 EnMin= -460.650169647659     IErMin= 2 ErrMin= 9.93D-06
 ErrMax= 9.93D-06  0.00D+00 EMaxC= 1.00D-01 BMatC= 1.60D-07 BMatP= 1.26D-07
 IDIUse=1 WtCom= 1.00D+00 WtEn= 0.00D+00
 Coeff-Com:  0.537D+00 0.463D+00
 Coeff:      0.537D+00 0.463D+00
 Gap=     0.102 Goal=   None    Shift=    0.000
 Gap=     0.163 Goal=   None    Shift=    0.000
 RMSDP=1.52D-06 MaxDP=5.43D-05 DE=-4.54D-09 OVMax= 1.06D-04

 Cycle  13  Pass 1  IDiag  1:
 RMSU=  1.46D-06    CP:  1.00D+00  9.11D-01
 E= -460.650169682548     Delta-E=       -0.000000034889 Rises=F Damp=F
 DIIS: error= 4.51D-06 at cycle   3 NSaved=   3.
 NSaved= 3 IEnMin= 3 EnMin= -460.650169682548     IErMin= 3 ErrMin= 4.51D-06
 ErrMax= 4.51D-06  0.00D+00 EMaxC= 1.00D-01 BMatC= 1.62D-08 BMatP= 1.26D-07
 IDIUse=1 WtCom= 1.00D+00 WtEn= 0.00D+00
 Coeff-Com:  0.307D-01 0.228D+00 0.741D+00
 Coeff:      0.307D-01 0.228D+00 0.741D+00
 Gap=     0.102 Goal=   None    Shift=    0.000
 Gap=     0.163 Goal=   None    Shift=    0.000
 RMSDP=5.20D-07 MaxDP=1.83D-05 DE=-3.49D-08 OVMax= 4.34D-05

 Cycle  14  Pass 1  IDiag  1:
 RMSU=  4.43D-07    CP:  1.00D+00  9.53D-01  8.72D-01
 E= -460.650169687301     Delta-E=       -0.000000004753 Rises=F Damp=F
 DIIS: error= 2.38D-06 at cycle   4 NSaved=   4.
 NSaved= 4 IEnMin= 4 EnMin= -460.650169687301     IErMin= 4 ErrMin= 2.38D-06
 ErrMax= 2.38D-06  0.00D+00 EMaxC= 1.00D-01 BMatC= 3.45D-09 BMatP= 1.62D-08
 IDIUse=1 WtCom= 1.00D+00 WtEn= 0.00D+00
 Coeff-Com: -0.429D-01 0.745D-01 0.411D+00 0.557D+00
 Coeff:     -0.429D-01 0.745D-01 0.411D+00 0.557D+00
 Gap=     0.102 Goal=   None    Shift=    0.000
 Gap=     0.163 Goal=   None    Shift=    0.000
 RMSDP=2.52D-07 MaxDP=1.22D-05 DE=-4.75D-09 OVMax= 2.09D-05

 Cycle  15  Pass 1  IDiag  1:
 RMSU=  2.39D-07    CP:  1.00D+00  9.63D-01  9.16D-01  1.01D+00
 E= -460.650169688415     Delta-E=       -0.000000001114 Rises=F Damp=F
 DIIS: error= 1.22D-06 at cycle   5 NSaved=   5.
 NSaved= 5 IEnMin= 5 EnMin= -460.650169688415     IErMin= 5 ErrMin= 1.22D-06
 ErrMax= 1.22D-06  0.00D+00 EMaxC= 1.00D-01 BMatC= 5.47D-10 BMatP= 3.45D-09
 IDIUse=1 WtCom= 1.00D+00 WtEn= 0.00D+00
 Coeff-Com: -0.232D-01-0.238D-01-0.864D-02 0.235D+00 0.821D+00
 Coeff:     -0.232D-01-0.238D-01-0.864D-02 0.235D+00 0.821D+00
 Gap=     0.102 Goal=   None    Shift=    0.000
 Gap=     0.163 Goal=   None    Shift=    0.000
 RMSDP=1.74D-07 MaxDP=5.70D-06 DE=-1.11D-09 OVMax= 1.68D-05

 Cycle  16  Pass 1  IDiag  1:
 RMSU=  1.24D-07    CP:  1.00D+00  9.67D-01  9.53D-01  1.24D+00  1.17D+00
 E= -460.650169688745     Delta-E=       -0.000000000330 Rises=F Damp=F
 DIIS: error= 9.65D-07 at cycle   6 NSaved=   6.
 NSaved= 6 IEnMin= 6 EnMin= -460.650169688745     IErMin= 6 ErrMin= 9.65D-07
 ErrMax= 9.65D-07  0.00D+00 EMaxC= 1.00D-01 BMatC= 3.33D-10 BMatP= 5.47D-10
 IDIUse=1 WtCom= 1.00D+00 WtEn= 0.00D+00
 Coeff-Com: -0.500D-03-0.486D-01-0.173D+00-0.577D-01 0.611D+00 0.669D+00
 Coeff:     -0.500D-03-0.486D-01-0.173D+00-0.577D-01 0.611D+00 0.669D+00
 Gap=     0.102 Goal=   None    Shift=    0.000
 Gap=     0.163 Goal=   None    Shift=    0.000
 RMSDP=1.18D-07 MaxDP=5.41D-06 DE=-3.30D-10 OVMax= 9.96D-06

 Cycle  17  Pass 1  IDiag  1:
 RMSU=  4.76D-08    CP:  1.00D+00  9.72D-01  9.67D-01  1.41D+00  1.46D+00
                    CP:  8.53D-01
 E= -460.650169688890     Delta-E=       -0.000000000144 Rises=F Damp=F
 DIIS: error= 3.38D-07 at cycle   7 NSaved=   7.
 NSaved= 7 IEnMin= 7 EnMin= -460.650169688890     IErMin= 7 ErrMin= 3.38D-07
 ErrMax= 3.38D-07  0.00D+00 EMaxC= 1.00D-01 BMatC= 3.85D-11 BMatP= 3.33D-10
 IDIUse=1 WtCom= 1.00D+00 WtEn= 0.00D+00
 Coeff-Com:  0.238D-02-0.242D-01-0.944D-01-0.593D-01 0.234D+00 0.365D+00
 Coeff-Com:  0.576D+00
 Coeff:      0.238D-02-0.242D-01-0.944D-01-0.593D-01 0.234D+00 0.365D+00
 Coeff:      0.576D+00
 Gap=     0.102 Goal=   None    Shift=    0.000
 Gap=     0.163 Goal=   None    Shift=    0.000
 RMSDP=3.54D-08 MaxDP=1.73D-06 DE=-1.44D-10 OVMax= 3.22D-06

 SCF Done:  E(UB3LYP) =  -460.650169689     A.U. after   17 cycles
            NFock= 17  Conv=0.35D-07     -V/T= 2.0091
 <Sx>= 0.0000 <Sy>= 0.0000 <Sz>= 0.5000 <S**2>= 0.7815 S= 0.5156
 <L.S>= 0.000000000000E+00
 KE= 4.564805050160D+02 PE=-2.078300432120D+03 EE= 6.583416020681D+02
 Annihilation of the first spin contaminant:
 S**2 before annihilation     0.7815,   after     0.7506
 Leave Link  502 at Wed Dec 03 17:24:47 2025, MaxMem=   104857600 cpu:              35.0 elap:              34.4
 (Enter D:\Gaussian\G16W\l601.exe)
 Copying SCF densities to generalized density rwf, IOpCl= 1 IROHF=0.

 **********************************************************************

            Population analysis using the SCF density.

 **********************************************************************

 Orbital symmetries:
 Alpha Orbitals:
       Occupied  (A) (A) (A) (A) (A) (A) (A) (A) (A) (A) (A) (A)
                 (A) (A) (A) (A) (A) (A) (A) (A) (A) (A) (A) (A)
                 (A) (A) (A) (A) (A) (A) (A) (A) (A) (A) (A) (A)
                 (A)
       Virtual   (A) (A) (A) (A) (A) (A) (A) (A) (A) (A) (A) (A)
                 (A) (A) (A) (A) (A) (A) (A) (A) (A) (A) (A) (A)
                 (A) (A) (A) (A) (A) (A) (A) (A) (A) (A) (A) (A)
                 (A) (A) (A) (A) (A) (A) (A) (A) (A) (A) (A) (A)
                 (A) (A) (A) (A) (A) (A) (A) (A) (A) (A) (A) (A)
                 (A) (A) (A) (A) (A) (A) (A) (A) (A) (A) (A) (A)
                 (A) (A) (A) (A) (A) (A) (A) (A) (A) (A) (A) (A)
                 (A) (A) (A) (A) (A) (A) (A) (A) (A) (A) (A) (A)
                 (A) (A) (A) (A) (A) (A) (A) (A) (A) (A) (A) (A)
                 (A) (A) (A) (A) (A) (A) (A) (A) (A) (A) (A) (A)
                 (A) (A) (A) (A) (A) (A) (A) (A) (A) (A) (A)
 Beta  Orbitals:
       Occupied  (A) (A) (A) (A) (A) (A) (A) (A) (A) (A) (A) (A)
                 (A) (A) (A) (A) (A) (A) (A) (A) (A) (A) (A) (A)
                 (A) (A) (A) (A) (A) (A) (A) (A) (A) (A) (A) (A)
       Virtual   (A) (A) (A) (A) (A) (A) (A) (A) (A) (A) (A) (A)
                 (A) (A) (A) (A) (A) (A) (A) (A) (A) (A) (A) (A)
                 (A) (A) (A) (A) (A) (A) (A) (A) (A) (A) (A) (A)
                 (A) (A) (A) (A) (A) (A) (A) (A) (A) (A) (A) (A)
                 (A) (A) (A) (A) (A) (A) (A) (A) (A) (A) (A) (A)
                 (A) (A) (A) (A) (A) (A) (A) (A) (A) (A) (A) (A)
                 (A) (A) (A) (A) (A) (A) (A) (A) (A) (A) (A) (A)
                 (A) (A) (A) (A) (A) (A) (A) (A) (A) (A) (A) (A)
                 (A) (A) (A) (A) (A) (A) (A) (A) (A) (A) (A) (A)
                 (A) (A) (A) (A) (A) (A) (A) (A) (A) (A) (A) (A)
                 (A) (A) (A) (A) (A) (A) (A) (A) (A) (A) (A) (A)
 The electronic state is 2-A.
 Alpha  occ. eigenvalues --  -19.18289 -19.17130 -10.30425 -10.25462 -10.22373
 Alpha  occ. eigenvalues --  -10.19620 -10.19325 -10.18604 -10.18155 -10.17604
 Alpha  occ. eigenvalues --   -1.08466  -1.05539  -0.85363  -0.78873  -0.74391
 Alpha  occ. eigenvalues --   -0.71167  -0.62730  -0.61146  -0.59807  -0.52517
 Alpha  occ. eigenvalues --   -0.51406  -0.48630  -0.47777  -0.46162  -0.44653
 Alpha  occ. eigenvalues --   -0.42594  -0.41976  -0.39968  -0.39233  -0.38522
 Alpha  occ. eigenvalues --   -0.36447  -0.36248  -0.33451  -0.31365  -0.28098
 Alpha  occ. eigenvalues --   -0.24430  -0.15215
 Alpha virt. eigenvalues --   -0.04977   0.00758   0.08279   0.10072   0.11136
 Alpha virt. eigenvalues --    0.11898   0.12332   0.14969   0.16140   0.16584
 Alpha virt. eigenvalues --    0.18620   0.19181   0.22090   0.23094   0.25838
 Alpha virt. eigenvalues --    0.27412   0.28750   0.31207   0.34755   0.37162
 Alpha virt. eigenvalues --    0.43582   0.47041   0.48701   0.51686   0.53990
 Alpha virt. eigenvalues --    0.55081   0.56847   0.58383   0.58720   0.60238
 Alpha virt. eigenvalues --    0.61655   0.62252   0.64167   0.66145   0.66436
 Alpha virt. eigenvalues --    0.67583   0.70474   0.71367   0.73236   0.75039
 Alpha virt. eigenvalues --    0.76091   0.79501   0.81861   0.82867   0.84422
 Alpha virt. eigenvalues --    0.85172   0.85565   0.86878   0.88209   0.89497
 Alpha virt. eigenvalues --    0.91317   0.92863   0.94443   0.96121   0.96486
 Alpha virt. eigenvalues --    0.99944   1.02429   1.03953   1.05246   1.08140
 Alpha virt. eigenvalues --    1.14910   1.16447   1.18160   1.19656   1.28582
 Alpha virt. eigenvalues --    1.30940   1.36239   1.39116   1.39578   1.43123
 Alpha virt. eigenvalues --    1.44823   1.46982   1.50957   1.53753   1.59561
 Alpha virt. eigenvalues --    1.60988   1.68366   1.70403   1.73987   1.74961
 Alpha virt. eigenvalues --    1.78177   1.81273   1.84739   1.86561   1.87078
 Alpha virt. eigenvalues --    1.90253   1.91715   1.93263   1.95939   1.99307
 Alpha virt. eigenvalues --    2.00864   2.02122   2.03701   2.07615   2.10436
 Alpha virt. eigenvalues --    2.12652   2.14253   2.21327   2.24593   2.28998
 Alpha virt. eigenvalues --    2.32980   2.35154   2.36596   2.38016   2.42088
 Alpha virt. eigenvalues --    2.45333   2.49734   2.52005   2.53182   2.57596
 Alpha virt. eigenvalues --    2.61508   2.66129   2.71841   2.75423   2.80654
 Alpha virt. eigenvalues --    2.84947   2.88214   2.95017   2.98262   3.11422
 Alpha virt. eigenvalues --    3.31547   3.94614   3.98283   4.09183   4.11405
 Alpha virt. eigenvalues --    4.17752   4.23475   4.30652   4.38824   4.50136
 Alpha virt. eigenvalues --    4.76194
  Beta  occ. eigenvalues --  -19.18283 -19.16954 -10.30299 -10.24989 -10.22461
  Beta  occ. eigenvalues --  -10.18908 -10.18842 -10.18734 -10.18205 -10.17811
  Beta  occ. eigenvalues --   -1.08385  -1.05140  -0.84650  -0.78169  -0.73897
  Beta  occ. eigenvalues --   -0.70934  -0.62072  -0.60644  -0.59485  -0.52048
  Beta  occ. eigenvalues --   -0.51112  -0.48263  -0.47285  -0.45908  -0.44300
  Beta  occ. eigenvalues --   -0.42450  -0.41105  -0.39752  -0.38930  -0.37692
  Beta  occ. eigenvalues --   -0.35989  -0.35787  -0.33118  -0.29933  -0.27689
  Beta  occ. eigenvalues --   -0.22943
  Beta virt. eigenvalues --   -0.06661  -0.04629   0.02475   0.09593   0.10314
  Beta virt. eigenvalues --    0.11416   0.12174   0.12604   0.15299   0.16136
  Beta virt. eigenvalues --    0.16908   0.18867   0.19891   0.22613   0.23878
  Beta virt. eigenvalues --    0.26465   0.27732   0.29150   0.31633   0.35101
  Beta virt. eigenvalues --    0.37296   0.43777   0.47905   0.49127   0.52305
  Beta virt. eigenvalues --    0.54440   0.55573   0.57433   0.58964   0.59517
  Beta virt. eigenvalues --    0.60535   0.61778   0.62553   0.64457   0.66296
  Beta virt. eigenvalues --    0.66854   0.67641   0.71141   0.72326   0.73634
  Beta virt. eigenvalues --    0.75729   0.76847   0.79845   0.82042   0.83167
  Beta virt. eigenvalues --    0.84762   0.85295   0.86217   0.86812   0.88650
  Beta virt. eigenvalues --    0.89936   0.91380   0.93103   0.94822   0.96389
  Beta virt. eigenvalues --    0.96878   1.00441   1.02840   1.04290   1.05728
  Beta virt. eigenvalues --    1.08314   1.15126   1.16658   1.18531   1.19771
  Beta virt. eigenvalues --    1.28883   1.31856   1.36613   1.40075   1.40367
  Beta virt. eigenvalues --    1.43617   1.45285   1.47908   1.51406   1.54090
  Beta virt. eigenvalues --    1.59811   1.61171   1.68811   1.70803   1.74294
  Beta virt. eigenvalues --    1.75202   1.78445   1.81729   1.85144   1.87140
  Beta virt. eigenvalues --    1.87466   1.90544   1.91994   1.93730   1.96029
  Beta virt. eigenvalues --    1.99973   2.01722   2.02522   2.04261   2.08361
  Beta virt. eigenvalues --    2.11019   2.13337   2.15368   2.21977   2.25099
  Beta virt. eigenvalues --    2.29813   2.33044   2.35397   2.37204   2.38959
  Beta virt. eigenvalues --    2.42776   2.45883   2.50728   2.52677   2.53742
  Beta virt. eigenvalues --    2.57946   2.62348   2.66626   2.72224   2.75676
  Beta virt. eigenvalues --    2.81365   2.85180   2.88429   2.95490   2.98512
  Beta virt. eigenvalues --    3.11642   3.31777   3.94679   3.98627   4.09742
  Beta virt. eigenvalues --    4.11845   4.18070   4.23536   4.31116   4.39454
  Beta virt. eigenvalues --    4.50673   4.76699
          Condensed to atoms (all electrons):
               1          2          3          4          5          6
     1  C    4.755498   0.460691   0.003188  -0.039596  -0.020669   0.520070
     2  C    0.460691   5.032956   0.593677  -0.059739  -0.033747  -0.038378
     3  C    0.003188   0.593677   4.602079   0.326401  -0.012216  -0.031087
     4  C   -0.039596  -0.059739   0.326401   5.479733   0.285669  -0.022118
     5  C   -0.020669  -0.033747  -0.012216   0.285669   5.120907   0.569670
     6  C    0.520070  -0.038378  -0.031087  -0.022118   0.569670   4.861562
     7  H    0.003568   0.000954   0.002069  -0.050300   0.351569  -0.024562
     8  O   -0.000010   0.000415  -0.000056  -0.067330   0.002954  -0.000028
     9  O    0.002120  -0.043366   0.274455  -0.049592   0.002864   0.000425
    10  H   -0.052381   0.350957  -0.044133   0.008101  -0.000579   0.006730
    11  C    0.000428   0.001104  -0.019453   0.272504  -0.034062   0.000658
    12  H   -0.000106   0.000041   0.003409  -0.103394   0.009675   0.000393
    13  H   -0.000064   0.004427  -0.027203  -0.015576   0.000794  -0.000062
    14  H    0.002521  -0.003322  -0.033346   0.321085  -0.031728  -0.002195
    15  H   -0.043366   0.007347  -0.000204   0.006094  -0.053324   0.356890
    16  C    0.357179  -0.066830   0.006573   0.000115   0.008776  -0.055530
    17  H   -0.030189  -0.001946  -0.000014   0.000008  -0.000175   0.001261
    18  H   -0.030668  -0.001541   0.000009  -0.000004  -0.000139   0.000677
    19  H   -0.029374   0.003777  -0.000161   0.000016   0.000094  -0.003094
               7          8          9         10         11         12
     1  C    0.003568  -0.000010   0.002120  -0.052381   0.000428  -0.000106
     2  C    0.000954   0.000415  -0.043366   0.350957   0.001104   0.000041
     3  C    0.002069  -0.000056   0.274455  -0.044133  -0.019453   0.003409
     4  C   -0.050300  -0.067330  -0.049592   0.008101   0.272504  -0.103394
     5  C    0.351569   0.002954   0.002864  -0.000579  -0.034062   0.009675
     6  C   -0.024562  -0.000028   0.000425   0.006730   0.000658   0.000393
     7  H    0.593587   0.000011  -0.000056   0.000015  -0.002235   0.004017
     8  O    0.000011   7.973399  -0.019088  -0.000001   0.500111  -0.048795
     9  O   -0.000056  -0.019088   8.248192  -0.001603  -0.001499  -0.000291
    10  H    0.000015  -0.000001  -0.001603   0.607407  -0.000058   0.000007
    11  C   -0.002235   0.500111  -0.001499  -0.000058   4.738538   0.347111
    12  H    0.004017  -0.048795  -0.000291   0.000007   0.347111   0.642062
    13  H    0.000003   0.058670   0.223549  -0.000119  -0.005858   0.001481
    14  H    0.000626  -0.000132   0.001439  -0.000168  -0.059831   0.006047
    15  H   -0.006653   0.000001   0.000002  -0.000120  -0.000016   0.000000
    16  C   -0.000204   0.000000  -0.000059  -0.009108  -0.000002  -0.000001
    17  H    0.000003   0.000000   0.000000   0.002084   0.000000   0.000000
    18  H    0.000003   0.000000  -0.000001   0.001728   0.000000   0.000000
    19  H   -0.000009   0.000000   0.000000   0.000066   0.000000   0.000000
              13         14         15         16         17         18
     1  C   -0.000064   0.002521  -0.043366   0.357179  -0.030189  -0.030668
     2  C    0.004427  -0.003322   0.007347  -0.066830  -0.001946  -0.001541
     3  C   -0.027203  -0.033346  -0.000204   0.006573  -0.000014   0.000009
     4  C   -0.015576   0.321085   0.006094   0.000115   0.000008  -0.000004
     5  C    0.000794  -0.031728  -0.053324   0.008776  -0.000175  -0.000139
     6  C   -0.000062  -0.002195   0.356890  -0.055530   0.001261   0.000677
     7  H    0.000003   0.000626  -0.006653  -0.000204   0.000003   0.000003
     8  O    0.058670  -0.000132   0.000001   0.000000   0.000000   0.000000
     9  O    0.223549   0.001439   0.000002  -0.000059   0.000000  -0.000001
    10  H   -0.000119  -0.000168  -0.000120  -0.009108   0.002084   0.001728
    11  C   -0.005858  -0.059831  -0.000016  -0.000002   0.000000   0.000000
    12  H    0.001481   0.006047   0.000000  -0.000001   0.000000   0.000000
    13  H    0.327405   0.001647  -0.000001   0.000004   0.000000   0.000000
    14  H    0.001647   0.609391  -0.000163   0.000014  -0.000004   0.000001
    15  H   -0.000001  -0.000163   0.616026  -0.011283   0.000114   0.000106
    16  C    0.000004   0.000014  -0.011283   5.211552   0.361778   0.361639
    17  H    0.000000  -0.000004   0.000114   0.361778   0.569726  -0.036679
    18  H    0.000000   0.000001   0.000106   0.361639  -0.036679   0.571055
    19  H    0.000000   0.000000   0.007247   0.364331  -0.027787  -0.028174
              19
     1  C   -0.029374
     2  C    0.003777
     3  C   -0.000161
     4  C    0.000016
     5  C    0.000094
     6  C   -0.003094
     7  H   -0.000009
     8  O    0.000000
     9  O    0.000000
    10  H    0.000066
    11  C    0.000000
    12  H    0.000000
    13  H    0.000000
    14  H    0.000000
    15  H    0.007247
    16  C    0.364331
    17  H   -0.027787
    18  H   -0.028174
    19  H    0.560327
          Atomic-Atomic Spin Densities.
               1          2          3          4          5          6
     1  C    0.594994  -0.033661  -0.018677  -0.001348  -0.023308   0.027656
     2  C   -0.033661  -0.178660   0.031621   0.001356   0.002625   0.000074
     3  C   -0.018677   0.031621   0.361035   0.002997   0.011877  -0.001012
     4  C   -0.001348   0.001356   0.002997  -0.060038  -0.012566   0.000615
     5  C   -0.023308   0.002625   0.011877  -0.012566   0.521511  -0.030250
     6  C    0.027656   0.000074  -0.001012   0.000615  -0.030250  -0.197582
     7  H    0.000100  -0.000102   0.000068   0.000307   0.000935  -0.000160
     8  O   -0.000001  -0.000008   0.000544   0.000635   0.000403  -0.000009
     9  O    0.000420  -0.001545  -0.049110   0.000335  -0.000142  -0.000015
    10  H   -0.001072   0.002070  -0.000573   0.000053  -0.000035  -0.000094
    11  C    0.000204   0.000101  -0.007189   0.014847  -0.018318   0.000748
    12  H   -0.000069   0.000012   0.001064  -0.001864   0.007772  -0.000238
    13  H   -0.000007  -0.000094  -0.000534   0.000120   0.000006   0.000000
    14  H    0.001597  -0.001515  -0.021762  -0.011787  -0.013406  -0.000338
    15  H   -0.001611  -0.000017  -0.000016   0.000045  -0.000751   0.002159
    16  C    0.001434   0.001743  -0.000227  -0.000032  -0.000141  -0.000617
    17  H   -0.012995   0.000787   0.000063   0.000024   0.000024   0.000073
    18  H   -0.014435   0.001106   0.000222  -0.000021   0.000135  -0.000544
    19  H   -0.001229  -0.000068  -0.000002   0.000001   0.000008   0.000524
               7          8          9         10         11         12
     1  C    0.000100  -0.000001   0.000420  -0.001072   0.000204  -0.000069
     2  C   -0.000102  -0.000008  -0.001545   0.002070   0.000101   0.000012
     3  C    0.000068   0.000544  -0.049110  -0.000573  -0.007189   0.001064
     4  C    0.000307   0.000635   0.000335   0.000053   0.014847  -0.001864
     5  C    0.000935   0.000403  -0.000142  -0.000035  -0.018318   0.007772
     6  C   -0.000160  -0.000009  -0.000015  -0.000094   0.000748  -0.000238
     7  H   -0.023688   0.000001   0.000001  -0.000001   0.000006  -0.000004
     8  O    0.000001   0.004044  -0.000116   0.000000  -0.007833   0.000431
     9  O    0.000001  -0.000116   0.096745   0.000021   0.000381  -0.000050
    10  H   -0.000001   0.000000   0.000021   0.005444   0.000006   0.000000
    11  C    0.000006  -0.007833   0.000381   0.000006   0.101627  -0.018026
    12  H   -0.000004   0.000431  -0.000050   0.000000  -0.018026   0.017304
    13  H    0.000000  -0.000128   0.000026  -0.000002   0.000170  -0.000002
    14  H    0.000314   0.002584   0.003294  -0.000024  -0.031247   0.003043
    15  H    0.000172   0.000000   0.000000   0.000000   0.000004  -0.000002
    16  C    0.000004   0.000000   0.000001   0.000416   0.000000   0.000000
    17  H    0.000000   0.000000  -0.000001   0.000112   0.000000   0.000000
    18  H    0.000000   0.000000  -0.000002  -0.000167  -0.000001   0.000000
    19  H    0.000000   0.000000   0.000000   0.000002   0.000000   0.000000
              13         14         15         16         17         18
     1  C   -0.000007   0.001597  -0.001611   0.001434  -0.012995  -0.014435
     2  C   -0.000094  -0.001515  -0.000017   0.001743   0.000787   0.001106
     3  C   -0.000534  -0.021762  -0.000016  -0.000227   0.000063   0.000222
     4  C    0.000120  -0.011787   0.000045  -0.000032   0.000024  -0.000021
     5  C    0.000006  -0.013406  -0.000751  -0.000141   0.000024   0.000135
     6  C    0.000000  -0.000338   0.002159  -0.000617   0.000073  -0.000544
     7  H    0.000000   0.000314   0.000172   0.000004   0.000000   0.000000
     8  O   -0.000128   0.002584   0.000000   0.000000   0.000000   0.000000
     9  O    0.000026   0.003294   0.000000   0.000001  -0.000001  -0.000002
    10  H   -0.000002  -0.000024   0.000000   0.000416   0.000112  -0.000167
    11  C    0.000170  -0.031247   0.000004   0.000000   0.000000  -0.000001
    12  H   -0.000002   0.003043  -0.000002   0.000000   0.000000   0.000000
    13  H   -0.000439  -0.000116   0.000000   0.000000   0.000000   0.000000
    14  H   -0.000116   0.141460  -0.000015   0.000003  -0.000006   0.000002
    15  H    0.000000  -0.000015   0.006716   0.000430   0.000017  -0.000031
    16  C    0.000000   0.000003   0.000430  -0.054477   0.002453   0.003316
    17  H    0.000000  -0.000006   0.000017   0.002453   0.045457  -0.012160
    18  H    0.000000   0.000002  -0.000031   0.003316  -0.012160   0.048929
    19  H    0.000000   0.000000  -0.000030   0.002078  -0.000074  -0.000704
              19
     1  C   -0.001229
     2  C   -0.000068
     3  C   -0.000002
     4  C    0.000001
     5  C    0.000008
     6  C    0.000524
     7  H    0.000000
     8  O    0.000000
     9  O    0.000000
    10  H    0.000002
    11  C    0.000000
    12  H    0.000000
    13  H    0.000000
    14  H    0.000000
    15  H   -0.000030
    16  C    0.002078
    17  H   -0.000074
    18  H   -0.000704
    19  H    0.000554
 Mulliken charges and spin densities:
               1          2
     1  C    0.141161   0.517991
     2  C   -0.207475  -0.174175
     3  C    0.356013   0.310388
     4  C   -0.292077  -0.066322
     5  C   -0.166333   0.446377
     6  C   -0.141281  -0.199008
     7  H    0.127596  -0.022048
     8  O   -0.400121   0.000545
     9  O   -0.637492   0.050243
    10  H    0.131177   0.006154
    11  C    0.262560   0.035480
    12  H    0.138346   0.009370
    13  H    0.430903  -0.001000
    14  H    0.188116   0.072079
    15  H    0.121304   0.007068
    16  C   -0.528945  -0.043617
    17  H    0.161819   0.023773
    18  H    0.161988   0.025645
    19  H    0.152741   0.001058
 Sum of Mulliken charges =   0.00000   1.00000
 Mulliken charges and spin densities with hydrogens summed into heavy atoms:
               1          2
     1  C    0.141161   0.517991
     2  C   -0.076298  -0.168021
     3  C    0.356013   0.310388
     4  C   -0.103961   0.005756
     5  C   -0.038737   0.424329
     6  C   -0.019977  -0.191940
     8  O   -0.400121   0.000545
     9  O   -0.206589   0.049242
    11  C    0.400906   0.044850
    16  C   -0.052397   0.006859
 Electronic spatial extent (au):  <R**2>=           1538.6209
 Charge=              0.0000 electrons
 Dipole moment (field-independent basis, Debye):
    X=             -0.7880    Y=              2.1046    Z=             -0.2488  Tot=              2.2610
 Quadrupole moment (field-independent basis, Debye-Ang):
   XX=            -58.5095   YY=            -57.4680   ZZ=            -59.3993
   XY=              3.4350   XZ=             -2.6265   YZ=             -0.6334
 Traceless Quadrupole moment (field-independent basis, Debye-Ang):
   XX=             -0.0505   YY=              0.9909   ZZ=             -0.9404
   XY=              3.4350   XZ=             -2.6265   YZ=             -0.6334
 Octapole moment (field-independent basis, Debye-Ang**2):
  XXX=             -9.8729  YYY=              5.4841  ZZZ=              1.4803  XYY=              5.3386
  XXY=             -0.2535  XXZ=             -5.6574  XZZ=              8.6217  YZZ=             -2.6247
  YYZ=              2.7838  XYZ=              0.2636
 Hexadecapole moment (field-independent basis, Debye-Ang**3):
 XXXX=          -1437.1707 YYYY=           -492.2069 ZZZZ=           -112.5734 XXXY=            -17.3745
 XXXZ=            -24.6986 YYYX=              4.5520 YYYZ=             -2.9465 ZZZX=              1.0163
 ZZZY=              2.3704 XXYY=           -284.4208 XXZZ=           -251.0810 YYZZ=           -105.5611
 XXYZ=              3.4101 YYXZ=              4.8548 ZZXY=              2.7111
 N-N= 5.028281553473D+02 E-N=-2.078300432158D+03  KE= 4.564805050160D+02
                          Isotropic Fermi Contact Couplings
        Atom                 a.u.       MegaHertz       Gauss      10(-4) cm-1
     1  C(13)              0.05860      65.87250      23.50495      21.97270
     2  C(13)             -0.02892     -32.51009     -11.60041     -10.84420
     3  C(13)              0.03561      40.03635      14.28597      13.35469
     4  C(13)             -0.02439     -27.41536      -9.78248      -9.14478
     5  C(13)              0.04786      53.79851      19.19665      17.94525
     6  C(13)             -0.03197     -35.93643     -12.82301     -11.98710
     7  H(1)              -0.00672     -30.01965     -10.71176     -10.01348
     8  O(17)              0.00042      -0.25697      -0.09169      -0.08572
     9  O(17)              0.01375      -8.33485      -2.97408      -2.78021
    10  H(1)               0.00183       8.15999       2.91169       2.72188
    11  C(13)              0.06264      70.42268      25.12857      23.49048
    12  H(1)               0.00114       5.10293       1.82085       1.70215
    13  H(1)               0.00008       0.34436       0.12288       0.11487
    14  H(1)               0.03256     145.53397      51.93014      48.54491
    15  H(1)               0.00210       9.38155       3.34757       3.12935
    16  C(13)             -0.01577     -17.73055      -6.32670      -5.91427
    17  H(1)               0.01148      51.32217      18.31302      17.11923
    18  H(1)               0.01242      55.53446      19.81608      18.52430
    19  H(1)               0.00037       1.63680       0.58405       0.54598
 --------------------------------------------------------
       Center         ----  Spin Dipole Couplings  ----
                      3XX-RR        3YY-RR        3ZZ-RR
 --------------------------------------------------------
     1   Atom       -0.247552     -0.273892      0.521444
     2   Atom        0.068274      0.055047     -0.123321
     3   Atom       -0.173190     -0.175316      0.348506
     4   Atom        0.001700      0.003201     -0.004901
     5   Atom       -0.208794     -0.212135      0.420929
     6   Atom        0.067109      0.068058     -0.135167
     7   Atom       -0.025022      0.028630     -0.003608
     8   Atom       -0.000874     -0.021842      0.022715
     9   Atom       -0.142640     -0.148443      0.291082
    10   Atom        0.006857     -0.000726     -0.006131
    11   Atom        0.017099     -0.029238      0.012139
    12   Atom        0.003040     -0.000642     -0.002398
    13   Atom        0.015010     -0.006233     -0.008777
    14   Atom        0.000860     -0.000295     -0.000565
    15   Atom        0.001394      0.005062     -0.006457
    16   Atom        0.005139     -0.006854      0.001715
    17   Atom        0.005332     -0.001322     -0.004010
    18   Atom        0.003324     -0.002547     -0.000777
    19   Atom        0.008000     -0.004450     -0.003550
 --------------------------------------------------------
                        XY            XZ            YZ
 --------------------------------------------------------
     1   Atom        0.015051      0.130949      0.070645
     2   Atom       -0.008690     -0.029626     -0.016986
     3   Atom        0.002123      0.081345      0.031015
     4   Atom       -0.001032      0.000710     -0.000973
     5   Atom        0.008100      0.115675      0.038202
     6   Atom        0.009817     -0.036746     -0.018088
     7   Atom        0.015137      0.003467     -0.004340
     8   Atom       -0.012016      0.041698      0.019187
     9   Atom        0.003521      0.014494      0.021137
    10   Atom       -0.001863     -0.001934     -0.000157
    11   Atom        0.002112      0.039144     -0.001341
    12   Atom        0.002971      0.004301      0.003842
    13   Atom        0.003480     -0.000240     -0.001055
    14   Atom       -0.001112     -0.005609     -0.000817
    15   Atom        0.004679     -0.001663     -0.001689
    16   Atom        0.003872     -0.000964     -0.000054
    17   Atom        0.005914      0.001238      0.001251
    18   Atom        0.004385     -0.004772     -0.003186
    19   Atom       -0.002696     -0.001669      0.000536
 --------------------------------------------------------


 ---------------------------------------------------------------------------------
              Anisotropic Spin Dipole Couplings in Principal Axis System
 ---------------------------------------------------------------------------------

       Atom             a.u.   MegaHertz   Gauss  10(-4) cm-1        Axes

              Baa    -0.2811   -37.725   -13.461   -12.584 -0.2771  0.9600 -0.0393
     1 C(13)  Bbb    -0.2683   -36.007   -12.848   -12.011  0.9469  0.2659 -0.1808
              Bcc     0.5495    73.732    26.309    24.594  0.1631  0.0873  0.9827
 
              Baa    -0.1296   -17.387    -6.204    -5.800  0.1516  0.0976  0.9836
     2 C(13)  Bbb     0.0548     7.353     2.624     2.453  0.3007  0.9434 -0.1400
              Bcc     0.0748    10.034     3.580     3.347  0.9416 -0.3169 -0.1136
 
              Baa    -0.1863   -24.999    -8.920    -8.339  0.9499  0.2685 -0.1601
     3 C(13)  Bbb    -0.1764   -23.669    -8.446    -7.895 -0.2742  0.9616 -0.0143
              Bcc     0.3627    48.668    17.366    16.234  0.1501  0.0575  0.9870
 
              Baa    -0.0051    -0.680    -0.243    -0.227 -0.0879  0.1055  0.9905
     4 C(13)  Bbb     0.0012     0.158     0.057     0.053  0.8846  0.4655  0.0289
              Bcc     0.0039     0.522     0.186     0.174 -0.4581  0.8787 -0.1343
 
              Baa    -0.2295   -30.794   -10.988   -10.272  0.9818 -0.0849 -0.1696
     5 C(13)  Bbb    -0.2143   -28.763   -10.264    -9.594  0.0734  0.9946 -0.0732
              Bcc     0.4438    59.557    21.252    19.866  0.1749  0.0594  0.9828
 
              Baa    -0.1429   -19.172    -6.841    -6.395  0.1684  0.0764  0.9827
     6 C(13)  Bbb     0.0585     7.849     2.801     2.618 -0.6467  0.7610  0.0516
              Bcc     0.0844    11.323     4.040     3.777  0.7440  0.6442 -0.1776
 
              Baa    -0.0298   -15.880    -5.666    -5.297  0.9510 -0.2591 -0.1690
     7 H(1)   Bbb    -0.0031    -1.680    -0.599    -0.560  0.1867  0.0451  0.9814
              Bcc     0.0329    17.559     6.266     5.857  0.2466  0.9648 -0.0912
 
              Baa    -0.0492     3.558     1.270     1.187  0.5953  0.6203 -0.5108
     8 O(17)  Bbb    -0.0060     0.433     0.154     0.144 -0.5583  0.7765  0.2921
              Bcc     0.0552    -3.991    -1.424    -1.331  0.5778  0.1113  0.8085
 
              Baa    -0.1505    10.892     3.887     3.633 -0.3560  0.9339 -0.0330
     9 O(17)  Bbb    -0.1421    10.279     3.668     3.429  0.9339  0.3543 -0.0485
              Bcc     0.2926   -21.172    -7.555    -7.062  0.0336  0.0481  0.9983
 
              Baa    -0.0064    -3.439    -1.227    -1.147  0.1540  0.0772  0.9850
    10 H(1)   Bbb    -0.0011    -0.584    -0.208    -0.195  0.2019  0.9735 -0.1078
              Bcc     0.0075     4.023     1.436     1.342  0.9672 -0.2155 -0.1344
 
              Baa    -0.0303    -4.063    -1.450    -1.355 -0.2737  0.9196  0.2817
    11 C(13)  Bbb    -0.0236    -3.163    -1.129    -1.055 -0.6271 -0.3927  0.6727
              Bcc     0.0538     7.226     2.578     2.410  0.7293  0.0075  0.6842
 
              Baa    -0.0059    -3.122    -1.114    -1.041 -0.2468 -0.4801  0.8418
    12 H(1)   Bbb    -0.0020    -1.060    -0.378    -0.353 -0.6352  0.7362  0.2336
              Bcc     0.0078     4.181     1.492     1.395  0.7319  0.4770  0.4866
 
              Baa    -0.0092    -4.910    -1.752    -1.638 -0.0457  0.3817  0.9231
    13 H(1)   Bbb    -0.0064    -3.399    -1.213    -1.134 -0.1525  0.9106 -0.3841
              Bcc     0.0156     8.309     2.965     2.772  0.9872  0.1584 -0.0166
 
              Baa    -0.0058    -3.113    -1.111    -1.038  0.6468  0.2368  0.7250
    14 H(1)   Bbb     0.0000     0.010     0.004     0.003 -0.1195  0.9703 -0.2103
              Bcc     0.0058     3.103     1.107     1.035  0.7533 -0.0494 -0.6558
 
              Baa    -0.0069    -3.656    -1.305    -1.219  0.1536  0.0793  0.9849
    15 H(1)   Bbb    -0.0018    -0.941    -0.336    -0.314  0.8128 -0.5770 -0.0803
              Bcc     0.0086     4.597     1.640     1.533  0.5620  0.8129 -0.1531
 
              Baa    -0.0080    -1.074    -0.383    -0.358 -0.2841  0.9585 -0.0228
    16 C(13)  Bbb     0.0015     0.206     0.073     0.069  0.1799  0.0767  0.9807
              Bcc     0.0065     0.868     0.310     0.289  0.9418  0.2745 -0.1942
 
              Baa    -0.0050    -2.686    -0.959    -0.896 -0.3885  0.7827 -0.4862
    17 H(1)   Bbb    -0.0040    -2.123    -0.757    -0.708 -0.3466  0.3648  0.8642
              Bcc     0.0090     4.809     1.716     1.604  0.8538  0.5043  0.1296
 
              Baa    -0.0051    -2.735    -0.976    -0.912 -0.2463  0.8907  0.3821
    18 H(1)   Bbb    -0.0039    -2.070    -0.739    -0.690  0.6119 -0.1628  0.7740
              Bcc     0.0090     4.805     1.715     1.603  0.7516  0.4245 -0.5049
 
              Baa    -0.0050    -2.687    -0.959    -0.896  0.1825  0.9724 -0.1455
    19 H(1)   Bbb    -0.0038    -2.011    -0.717    -0.671  0.1654  0.1156  0.9794
              Bcc     0.0088     4.698     1.676     1.567  0.9692 -0.2028 -0.1397
 

 ---------------------------------------------------------------------------------

 No NMR shielding tensors so no spin-rotation constants.
 Leave Link  601 at Wed Dec 03 17:24:47 2025, MaxMem=   104857600 cpu:               0.0 elap:               0.2
 (Enter D:\Gaussian\G16W\l9999.exe)
 1|1|UNPC-PC-20250526LCFF|SP|UB3LYP|6-31G(d)|C8H9O2(2)|ADMINISTRATOR|03
 -Dec-2025|0||#P B3LYP/6-31G* SCF=conver=7 out=wfn||Generated by Multiw
 fn (http://sobereva.com/multiwfn)||0,2|C,0,-1.894406,-0.035244,0.07525
 3|C,0,-0.92865,-1.075407,0.015703|C,0,0.390327,-0.83212,-0.226834|C,0,
 0.913905,0.564962,-0.484087|C,0,-0.149407,1.616229,-0.344312|C,0,-1.45
 439,1.299247,-0.100972|H,0,0.150002,2.649495,-0.484469|O,0,3.046446,0.
 054554,0.540717|O,0,1.277411,-1.851619,-0.308006|H,0,-1.226462,-2.1076
 7,0.168257|C,0,2.14891,0.850313,0.385231|H,0,2.183151,1.844755,0.87303
 3|H,0,2.168783,-1.49429,-0.148363|H,0,1.333558,0.573191,-1.514223|H,0,
 -2.184717,2.099977,-0.034052|C,0,-3.335954,-0.359983,0.348651|H,0,-3.7
 40524,-1.050044,-0.400921|H,0,-3.46087,-0.845783,1.32387|H,0,-3.955783
 ,0.53891,0.343389||Version=EM64W-G16RevA.03|State=2-A|HF=-460.6501697|
 S2=0.781522|S2-1=0.|S2A=0.750577|RMSD=3.537e-008|Dipole=-0.3100274,0.8
 279987,-0.0978764|Quadrupole=-0.0375644,0.7367292,-0.6991648,2.553871,
 -1.9527496,-0.4709296|PG=C01 [X(C8H9O2)]||@

 Writing a WFN file to "N.wfn"


 I LOVE THOSE WHO LONG FOR THE IMPOSSIBLE.

                                 -- GOETHE
 Job cpu time:       0 days  0 hours  0 minutes 37.0 seconds.
 Elapsed time:       0 days  0 hours  0 minutes 36.7 seconds.
 File lengths (MBytes):  RWF=     32 Int=      0 D2E=      0 Chk=      3 Scr=      1
 Normal termination of Gaussian 16 at Wed Dec 03 17:24:47 2025.
