 Generated by Multiwfn (http://sobereva.com/multiwfn)
GAUSSIAN             73 MOL ORBITALS    316 PRIMITIVES       19 NUCLEI
  C    1    (CENTRE  1)  -3.57990860 -0.06660204  0.14220738  CHARGE =  6.0
  C    2    (CENTRE  2)  -1.75489401 -2.03222500  0.02967419  CHARGE =  6.0
  C    3    (CENTRE  3)   0.73761123 -1.57247889 -0.42865432  CHARGE =  6.0
  C    4    (CENTRE  4)   1.72702991  1.06762359 -0.91479203  CHARGE =  6.0
  C    5    (CENTRE  5)  -0.28233880  3.05423005 -0.65065556  CHARGE =  6.0
  C    6    (CENTRE  6)  -2.74839919  2.45522057 -0.19080961  CHARGE =  6.0
  H    7    (CENTRE  7)   0.28346196  5.00681988 -0.91551391  CHARGE =  1.0
  O    8    (CENTRE  8)   5.75694848  0.10309278  1.02180686  CHARGE =  8.0
  O    9    (CENTRE  9)   2.41395728 -3.49905257 -0.58204717  CHARGE =  8.0
  H   10    (CENTRE 10)  -2.31767688 -3.98291943  0.31795947  CHARGE =  1.0
  C   11    (CENTRE 11)   4.06085106  1.60685913  0.72798090  CHARGE =  6.0
  H   12    (CENTRE 12)   4.12555693  3.48608217  1.64979309  CHARGE =  1.0
  H   13    (CENTRE 13)   4.09840615 -2.82379841 -0.28036562  CHARGE =  1.0
  H   14    (CENTRE 14)   2.52005915  1.08317425 -2.86146694  CHARGE =  1.0
  H   15    (CENTRE 15)  -4.12851740  3.96838079 -0.06434914  CHARGE =  1.0
  C   16    (CENTRE 16)  -6.30403944 -0.68027016  0.65885472  CHARGE =  6.0
  H   17    (CENTRE 17)  -7.06856577 -1.98429656 -0.75763107  CHARGE =  1.0
  H   18    (CENTRE 18)  -6.54009635 -1.59829914  2.50175154  CHARGE =  1.0
  H   19    (CENTRE 19)  -7.47534671  1.01839128  0.64891098  CHARGE =  1.0
CENTRE ASSIGNMENTS    1  1  1  1  1  1  1  1  1  1  1  1  1  1  1  1  1  1  1  1
CENTRE ASSIGNMENTS    1  1  1  1  1  1  1  1  2  2  2  2  2  2  2  2  2  2  2  2
CENTRE ASSIGNMENTS    2  2  2  2  2  2  2  2  2  2  2  2  2  2  2  2  3  3  3  3
CENTRE ASSIGNMENTS    3  3  3  3  3  3  3  3  3  3  3  3  3  3  3  3  3  3  3  3
CENTRE ASSIGNMENTS    3  3  3  3  4  4  4  4  4  4  4  4  4  4  4  4  4  4  4  4
CENTRE ASSIGNMENTS    4  4  4  4  4  4  4  4  4  4  4  4  5  5  5  5  5  5  5  5
CENTRE ASSIGNMENTS    5  5  5  5  5  5  5  5  5  5  5  5  5  5  5  5  5  5  5  5
CENTRE ASSIGNMENTS    6  6  6  6  6  6  6  6  6  6  6  6  6  6  6  6  6  6  6  6
CENTRE ASSIGNMENTS    6  6  6  6  6  6  6  6  7  7  7  7  8  8  8  8  8  8  8  8
CENTRE ASSIGNMENTS    8  8  8  8  8  8  8  8  8  8  8  8  8  8  8  8  8  8  8  8
CENTRE ASSIGNMENTS    9  9  9  9  9  9  9  9  9  9  9  9  9  9  9  9  9  9  9  9
CENTRE ASSIGNMENTS    9  9  9  9  9  9  9  9 10 10 10 10 11 11 11 11 11 11 11 11
CENTRE ASSIGNMENTS   11 11 11 11 11 11 11 11 11 11 11 11 11 11 11 11 11 11 11 11
CENTRE ASSIGNMENTS   12 12 12 12 13 13 13 13 14 14 14 14 15 15 15 15 16 16 16 16
CENTRE ASSIGNMENTS   16 16 16 16 16 16 16 16 16 16 16 16 16 16 16 16 16 16 16 16
CENTRE ASSIGNMENTS   16 16 16 16 17 17 17 17 18 18 18 18 19 19 19 19
TYPE ASSIGNMENTS      1  1  1  1  1  1  1  1  1  2  2  2  3  3  3  4  4  4  1  2
TYPE ASSIGNMENTS      3  4  5  6  7  8  9 10  1  1  1  1  1  1  1  1  1  2  2  2
TYPE ASSIGNMENTS      3  3  3  4  4  4  1  2  3  4  5  6  7  8  9 10  1  1  1  1
TYPE ASSIGNMENTS      1  1  1  1  1  2  2  2  3  3  3  4  4  4  1  2  3  4  5  6
TYPE ASSIGNMENTS      7  8  9 10  1  1  1  1  1  1  1  1  1  2  2  2  3  3  3  4
TYPE ASSIGNMENTS      4  4  1  2  3  4  5  6  7  8  9 10  1  1  1  1  1  1  1  1
TYPE ASSIGNMENTS      1  2  2  2  3  3  3  4  4  4  1  2  3  4  5  6  7  8  9 10
TYPE ASSIGNMENTS      1  1  1  1  1  1  1  1  1  2  2  2  3  3  3  4  4  4  1  2
TYPE ASSIGNMENTS      3  4  5  6  7  8  9 10  1  1  1  1  1  1  1  1  1  1  1  1
TYPE ASSIGNMENTS      1  2  2  2  3  3  3  4  4  4  1  2  3  4  5  6  7  8  9 10
TYPE ASSIGNMENTS      1  1  1  1  1  1  1  1  1  2  2  2  3  3  3  4  4  4  1  2
TYPE ASSIGNMENTS      3  4  5  6  7  8  9 10  1  1  1  1  1  1  1  1  1  1  1  1
TYPE ASSIGNMENTS      1  2  2  2  3  3  3  4  4  4  1  2  3  4  5  6  7  8  9 10
TYPE ASSIGNMENTS      1  1  1  1  1  1  1  1  1  1  1  1  1  1  1  1  1  1  1  1
TYPE ASSIGNMENTS      1  1  1  1  1  2  2  2  3  3  3  4  4  4  1  2  3  4  5  6
TYPE ASSIGNMENTS      7  8  9 10  1  1  1  1  1  1  1  1  1  1  1  1
EXPONENTS  0.3047525D+04 0.4573695D+03 0.1039487D+03 0.2921016D+02 0.9286663D+01
EXPONENTS  0.3163927D+01 0.7868272D+01 0.1881289D+01 0.5442493D+00 0.7868272D+01
EXPONENTS  0.1881289D+01 0.5442493D+00 0.7868272D+01 0.1881289D+01 0.5442493D+00
EXPONENTS  0.7868272D+01 0.1881289D+01 0.5442493D+00 0.1687145D+00 0.1687145D+00
EXPONENTS  0.1687145D+00 0.1687145D+00 0.8000000D+00 0.8000000D+00 0.8000000D+00
EXPONENTS  0.8000000D+00 0.8000000D+00 0.8000000D+00 0.3047525D+04 0.4573695D+03
EXPONENTS  0.1039487D+03 0.2921016D+02 0.9286663D+01 0.3163927D+01 0.7868272D+01
EXPONENTS  0.1881289D+01 0.5442493D+00 0.7868272D+01 0.1881289D+01 0.5442493D+00
EXPONENTS  0.7868272D+01 0.1881289D+01 0.5442493D+00 0.7868272D+01 0.1881289D+01
EXPONENTS  0.5442493D+00 0.1687145D+00 0.1687145D+00 0.1687145D+00 0.1687145D+00
EXPONENTS  0.8000000D+00 0.8000000D+00 0.8000000D+00 0.8000000D+00 0.8000000D+00
EXPONENTS  0.8000000D+00 0.3047525D+04 0.4573695D+03 0.1039487D+03 0.2921016D+02
EXPONENTS  0.9286663D+01 0.3163927D+01 0.7868272D+01 0.1881289D+01 0.5442493D+00
EXPONENTS  0.7868272D+01 0.1881289D+01 0.5442493D+00 0.7868272D+01 0.1881289D+01
EXPONENTS  0.5442493D+00 0.7868272D+01 0.1881289D+01 0.5442493D+00 0.1687145D+00
EXPONENTS  0.1687145D+00 0.1687145D+00 0.1687145D+00 0.8000000D+00 0.8000000D+00
EXPONENTS  0.8000000D+00 0.8000000D+00 0.8000000D+00 0.8000000D+00 0.3047525D+04
EXPONENTS  0.4573695D+03 0.1039487D+03 0.2921016D+02 0.9286663D+01 0.3163927D+01
EXPONENTS  0.7868272D+01 0.1881289D+01 0.5442493D+00 0.7868272D+01 0.1881289D+01
EXPONENTS  0.5442493D+00 0.7868272D+01 0.1881289D+01 0.5442493D+00 0.7868272D+01
EXPONENTS  0.1881289D+01 0.5442493D+00 0.1687145D+00 0.1687145D+00 0.1687145D+00
EXPONENTS  0.1687145D+00 0.8000000D+00 0.8000000D+00 0.8000000D+00 0.8000000D+00
EXPONENTS  0.8000000D+00 0.8000000D+00 0.3047525D+04 0.4573695D+03 0.1039487D+03
EXPONENTS  0.2921016D+02 0.9286663D+01 0.3163927D+01 0.7868272D+01 0.1881289D+01
EXPONENTS  0.5442493D+00 0.7868272D+01 0.1881289D+01 0.5442493D+00 0.7868272D+01
EXPONENTS  0.1881289D+01 0.5442493D+00 0.7868272D+01 0.1881289D+01 0.5442493D+00
EXPONENTS  0.1687145D+00 0.1687145D+00 0.1687145D+00 0.1687145D+00 0.8000000D+00
EXPONENTS  0.8000000D+00 0.8000000D+00 0.8000000D+00 0.8000000D+00 0.8000000D+00
EXPONENTS  0.3047525D+04 0.4573695D+03 0.1039487D+03 0.2921016D+02 0.9286663D+01
EXPONENTS  0.3163927D+01 0.7868272D+01 0.1881289D+01 0.5442493D+00 0.7868272D+01
EXPONENTS  0.1881289D+01 0.5442493D+00 0.7868272D+01 0.1881289D+01 0.5442493D+00
EXPONENTS  0.7868272D+01 0.1881289D+01 0.5442493D+00 0.1687145D+00 0.1687145D+00
EXPONENTS  0.1687145D+00 0.1687145D+00 0.8000000D+00 0.8000000D+00 0.8000000D+00
EXPONENTS  0.8000000D+00 0.8000000D+00 0.8000000D+00 0.1873114D+02 0.2825394D+01
EXPONENTS  0.6401217D+00 0.1612778D+00 0.5484672D+04 0.8252349D+03 0.1880470D+03
EXPONENTS  0.5296450D+02 0.1689757D+02 0.5799635D+01 0.1553962D+02 0.3599934D+01
EXPONENTS  0.1013762D+01 0.1553962D+02 0.3599934D+01 0.1013762D+01 0.1553962D+02
EXPONENTS  0.3599934D+01 0.1013762D+01 0.1553962D+02 0.3599934D+01 0.1013762D+01
EXPONENTS  0.2700058D+00 0.2700058D+00 0.2700058D+00 0.2700058D+00 0.8000000D+00
EXPONENTS  0.8000000D+00 0.8000000D+00 0.8000000D+00 0.8000000D+00 0.8000000D+00
EXPONENTS  0.5484672D+04 0.8252349D+03 0.1880470D+03 0.5296450D+02 0.1689757D+02
EXPONENTS  0.5799635D+01 0.1553962D+02 0.3599934D+01 0.1013762D+01 0.1553962D+02
EXPONENTS  0.3599934D+01 0.1013762D+01 0.1553962D+02 0.3599934D+01 0.1013762D+01
EXPONENTS  0.1553962D+02 0.3599934D+01 0.1013762D+01 0.2700058D+00 0.2700058D+00
EXPONENTS  0.2700058D+00 0.2700058D+00 0.8000000D+00 0.8000000D+00 0.8000000D+00
EXPONENTS  0.8000000D+00 0.8000000D+00 0.8000000D+00 0.1873114D+02 0.2825394D+01
EXPONENTS  0.6401217D+00 0.1612778D+00 0.3047525D+04 0.4573695D+03 0.1039487D+03
EXPONENTS  0.2921016D+02 0.9286663D+01 0.3163927D+01 0.7868272D+01 0.1881289D+01
EXPONENTS  0.5442493D+00 0.7868272D+01 0.1881289D+01 0.5442493D+00 0.7868272D+01
EXPONENTS  0.1881289D+01 0.5442493D+00 0.7868272D+01 0.1881289D+01 0.5442493D+00
EXPONENTS  0.1687145D+00 0.1687145D+00 0.1687145D+00 0.1687145D+00 0.8000000D+00
EXPONENTS  0.8000000D+00 0.8000000D+00 0.8000000D+00 0.8000000D+00 0.8000000D+00
EXPONENTS  0.1873114D+02 0.2825394D+01 0.6401217D+00 0.1612778D+00 0.1873114D+02
EXPONENTS  0.2825394D+01 0.6401217D+00 0.1612778D+00 0.1873114D+02 0.2825394D+01
EXPONENTS  0.6401217D+00 0.1612778D+00 0.1873114D+02 0.2825394D+01 0.6401217D+00
EXPONENTS  0.1612778D+00 0.3047525D+04 0.4573695D+03 0.1039487D+03 0.2921016D+02
EXPONENTS  0.9286663D+01 0.3163927D+01 0.7868272D+01 0.1881289D+01 0.5442493D+00
EXPONENTS  0.7868272D+01 0.1881289D+01 0.5442493D+00 0.7868272D+01 0.1881289D+01
EXPONENTS  0.5442493D+00 0.7868272D+01 0.1881289D+01 0.5442493D+00 0.1687145D+00
EXPONENTS  0.1687145D+00 0.1687145D+00 0.1687145D+00 0.8000000D+00 0.8000000D+00
EXPONENTS  0.8000000D+00 0.8000000D+00 0.8000000D+00 0.8000000D+00 0.1873114D+02
EXPONENTS  0.2825394D+01 0.6401217D+00 0.1612778D+00 0.1873114D+02 0.2825394D+01
EXPONENTS  0.6401217D+00 0.1612778D+00 0.1873114D+02 0.2825394D+01 0.6401217D+00
EXPONENTS  0.1612778D+00
MO    1     MO 0.0        OCC NO =    1.0000000  ORB. ENERGY =  -19.182892
 -0.20050346D-05 -0.36988974D-05 -0.59711673D-05 -0.77726856D-05 -0.66324467D-05
 -0.22900245D-05  0.89079978D-05  0.41056881D-05 -0.11512778D-04 -0.22984912D-04
 -0.17623373D-04 -0.87952981D-05 -0.13546507D-05 -0.10386603D-05 -0.51836427D-06
  0.93559771D-05  0.71735698D-05  0.35801141D-05  0.14512009D-04  0.50316470D-04
 -0.40208537D-05 -0.12107717D-04  0.38215533D-05  0.54823269D-06 -0.68431911D-05
 -0.14541322D-04 -0.21775647D-05 -0.16986423D-04  0.42205604D-05  0.77861098D-05
  0.12569195D-04  0.16361358D-04  0.13961176D-04  0.48204586D-05 -0.21607411D-04
 -0.99588359D-05  0.27925615D-04 -0.18776480D-04 -0.14396614D-04 -0.71849194D-05
 -0.68956388D-05 -0.52871385D-05 -0.26386526D-05  0.97378421D-05  0.74663597D-05
  0.37262368D-05 -0.15915044D-03 -0.54654558D-04 -0.12703395D-04  0.22397382D-05
 -0.33270306D-04  0.85388002D-06  0.16887320D-04  0.60276465D-05 -0.10056042D-05
 -0.15573958D-05 -0.28736958D-05 -0.53014076D-05 -0.85581156D-05 -0.11140124D-04
 -0.95058877D-05 -0.32821546D-05  0.31648822D-04  0.14586913D-04 -0.40903227D-04
  0.54981003D-04  0.42155946D-04  0.21038771D-04 -0.36373415D-04 -0.27888827D-04
 -0.13918479D-04 -0.20718318D-04 -0.15885492D-04 -0.79279739D-05  0.10685715D-03
 -0.62939542D-04 -0.77769148D-04  0.41913899D-04  0.81448725D-04  0.30327105D-04
 -0.13399813D-04 -0.49883296D-04  0.37576721D-04  0.28858812D-04 -0.79933538D-05
 -0.14746177D-04 -0.23804902D-04 -0.30986909D-04 -0.26441186D-04 -0.91295060D-05
  0.24899707D-04  0.11476252D-04 -0.32180610D-04 -0.22988632D-04 -0.17626225D-04
 -0.87967217D-05  0.31973236D-04  0.24515050D-04  0.12234728D-04  0.21879189D-04
  0.16775575D-04  0.83721874D-05  0.15695127D-03  0.68046153D-04 -0.74734812D-04
  0.73809719D-05 -0.26710419D-04 -0.38892489D-05 -0.36470719D-05  0.40620886D-04
  0.16063072D-04  0.74013565D-05  0.10728289D-04  0.19791597D-04  0.31949775D-04
  0.41589114D-04  0.35488066D-04  0.12253176D-04 -0.28789356D-04 -0.13268988D-04
  0.37207627D-04  0.86126710D-04  0.66036499D-04  0.32956841D-04 -0.70271004D-05
 -0.53879349D-05 -0.26889571D-05  0.32657266D-04  0.25039521D-04  0.12496476D-04
  0.51574106D-04 -0.12068442D-03 -0.29422059D-04 -0.21225450D-04  0.40452374D-04
  0.36524042D-04  0.52374311D-04  0.47268249D-04 -0.87312579D-04  0.37425599D-04
  0.17582522D-05  0.32436320D-05  0.52362278D-05  0.68160128D-05  0.58161161D-05
  0.20081651D-05 -0.10992408D-04 -0.50663910D-05  0.14206689D-04 -0.24704028D-04
 -0.18941482D-04 -0.94531271D-05  0.97081590D-05  0.74436006D-05  0.37148784D-05
 -0.13247310D-04 -0.10157197D-04 -0.50691530D-05 -0.13201452D-03 -0.58146752D-04
 -0.11652860D-04  0.29290660D-04 -0.22941901D-04  0.46385580D-07  0.12763133D-05
 -0.86436750D-05  0.37917720D-04  0.12736119D-05  0.15417391D-04  0.26150814D-04
  0.29771777D-04  0.18169040D-04  0.82565618D+00  0.15196481D+01  0.24590775D+01
  0.32325263D+01  0.27725190D+01  0.94797133D+00 -0.15800279D-01 -0.70500536D-02
  0.20818903D-01 -0.27261632D-02 -0.21003618D-02 -0.92217195D-03  0.23423936D-02
  0.18046880D-02  0.79235524D-03 -0.51403484D-03 -0.39603613D-03 -0.17388119D-03
  0.38836534D-02 -0.39130292D-03  0.22700538D-03 -0.10490830D-03 -0.88543911D-02
 -0.89570155D-02 -0.92296743D-02 -0.54822935D-03  0.20256997D-03 -0.67198457D-04
 -0.24457109D-04 -0.45014136D-04 -0.72841369D-04 -0.95752018D-04 -0.82125950D-04
 -0.28080257D-04  0.54577120D-04  0.24352205D-04 -0.71912386D-04 -0.14276407D-03
 -0.10999202D-03 -0.48292422D-04  0.65992811D-04  0.50843903D-04  0.22323212D-04
  0.54707754D-04  0.42149375D-04  0.18505846D-04  0.13021280D-03  0.15632798D-03
 -0.35081620D-05 -0.99689254D-05 -0.44499004D-05 -0.92640132D-04 -0.64209000D-04
  0.13918067D-03  0.49197881D-04 -0.28165981D-04  0.27447342D-05  0.46555887D-05
  0.53002231D-05 -0.34409920D-06  0.78207579D-05  0.14427771D-04  0.23290896D-04
  0.30317827D-04  0.25870256D-04  0.89323778D-05 -0.20677586D-03 -0.95302806D-04
  0.26723902D-03 -0.30816911D-04 -0.23628453D-04 -0.11792254D-04  0.29202962D-04
  0.22390979D-04  0.11174668D-04 -0.11534173D-04 -0.88436723D-05 -0.44136123D-05
 -0.68194915D-03 -0.29896153D-03  0.36584029D-03 -0.67002415D-06 -0.51743576D-03
 -0.48159244D-03 -0.53939517D-04  0.93563342D-03 -0.17359467D-03  0.11538935D-03
 -0.81491372D-05 -0.13822479D-04 -0.15736404D-04 -0.76724157D-04 -0.30720827D-04
 -0.52108338D-04 -0.59323501D-04 -0.16557410D-03 -0.13669970D-04 -0.23186856D-04
 -0.26397416D-04  0.65245807D-05  0.19805164D-05  0.33593307D-05  0.38244792D-05
 -0.50338257D-05  0.83730263D-06  0.15446598D-05  0.24935599D-05  0.32458741D-05
  0.27697103D-05  0.95631440D-06 -0.10736112D-05 -0.49482641D-06  0.13875449D-05
  0.19487347D-04  0.14941662D-04  0.74569363D-05  0.43434019D-06  0.33302451D-06
  0.16620257D-06  0.11952439D-05  0.91643721D-06  0.45736640D-06  0.27699240D-04
  0.38919303D-05  0.80969286D-05 -0.30803052D-05  0.51082113D-05  0.43667597D-05
  0.60973176D-05  0.58038365D-05  0.33780367D-05 -0.27084008D-05  0.44634546D-06
  0.75708637D-06  0.86191608D-06 -0.19326861D-05 -0.46523919D-06 -0.78913372D-06
 -0.89840085D-06  0.33016714D-05 -0.62570905D-06 -0.10613210D-05 -0.12082764D-05
 -0.74871093D-05
MO    2     MO 0.0        OCC NO =    1.0000000  ORB. ENERGY =  -19.171304
  0.51400684D-05  0.94824226D-05  0.15307570D-04  0.19925908D-04  0.17002813D-04
  0.58706629D-05 -0.92137279D-05 -0.42465988D-05  0.11907906D-04  0.91316281D-04
  0.70015532D-04  0.34942658D-04 -0.37755510D-04 -0.28948530D-04 -0.14447345D-04
 -0.10133687D-04 -0.77698683D-05 -0.38777089D-05  0.12938897D-03 -0.31305875D-04
  0.22665790D-04  0.57548757D-05  0.21484500D-04  0.34693670D-04  0.36514351D-04
  0.97888728D-06  0.68755044D-05 -0.17856403D-05  0.22687591D-05  0.41854175D-05
  0.67565615D-05  0.87950356D-05  0.75048198D-05  0.25912339D-05 -0.46309588D-04
 -0.21344047D-04  0.59850935D-04  0.29698281D-04  0.22770758D-04  0.11364204D-04
  0.22382059D-04  0.17161143D-04  0.85646130D-05 -0.61336544D-05 -0.47028972D-05
 -0.23470753D-05 -0.66529962D-04 -0.32335218D-04 -0.17258521D-03  0.14884953D-04
 -0.88090503D-04 -0.58335981D-04  0.17670350D-04 -0.12537040D-04  0.28592574D-04
  0.50481615D-05 -0.16533094D-04 -0.30500331D-04 -0.49236991D-04 -0.64091932D-04
 -0.54689762D-04 -0.18883061D-04 -0.96232239D-04 -0.44353351D-04  0.12437143D-03
  0.31125389D-03  0.23864974D-03  0.11910294D-03 -0.48439362D-03 -0.37140230D-03
 -0.18535578D-03 -0.32904713D-04 -0.25229247D-04 -0.12591163D-04 -0.21106686D-03
 -0.28612394D-03  0.47769291D-03  0.25350257D-04 -0.59716151D-04 -0.10922876D-04
 -0.69216623D-04  0.66530167D-04 -0.25431780D-05  0.17117628D-05  0.20100727D-04
  0.37081917D-04  0.59861712D-04  0.77922162D-04  0.66491122D-04  0.22957787D-04
 -0.99814196D-04 -0.46004272D-04  0.12900078D-03  0.57894372D-05  0.44389732D-05
  0.22153588D-05  0.61826969D-04  0.47404998D-04  0.23658416D-04  0.22320300D-04
  0.17113790D-04  0.85409807D-05 -0.35903990D-03  0.13940503D-03  0.71086099D-05
 -0.64804847D-04 -0.28944732D-04 -0.16826398D-04  0.67515657D-04 -0.45656479D-04
  0.32276386D-04  0.40779813D-04  0.22412176D-05  0.41346088D-05  0.66745406D-05
  0.86882687D-05  0.74137154D-05  0.25597778D-05 -0.10996598D-05 -0.50683219D-06
  0.14212104D-05  0.22005303D-04  0.16872271D-04  0.84204455D-05 -0.71394455D-04
 -0.54740740D-04 -0.27319466D-04  0.37030788D-05  0.28392859D-05  0.14170027D-05
  0.11010545D-03  0.58462782D-04 -0.25570829D-04 -0.25096088D-05  0.32961072D-04
  0.47552049D-05  0.22663921D-04 -0.43490631D-04  0.15687557D-04  0.24910057D-05
  0.50464316D-05  0.93096808D-05  0.15028711D-04  0.19562917D-04  0.16693072D-04
  0.57637167D-05 -0.17543919D-04 -0.80859763D-05  0.22673921D-04  0.25413604D-04
  0.19485540D-04  0.97246500D-05 -0.38480061D-04 -0.29504070D-04 -0.14724599D-04
  0.33213906D-05  0.25466317D-05  0.12709477D-05 -0.30401164D-04  0.91786529D-05
  0.47398619D-04 -0.83133788D-05 -0.47031018D-06  0.17434026D-05  0.30734238D-04
 -0.41131716D-04  0.10780836D-04  0.13134932D-04 -0.35402149D-05 -0.60048744D-05
 -0.68363373D-05 -0.16345544D-04  0.16712799D-05  0.30760472D-05  0.49776251D-05
  0.65432275D-05  0.56120882D-05  0.19188683D-05  0.18541821D-04  0.82733246D-05
 -0.24431238D-04 -0.24083747D-04 -0.18555229D-04 -0.81467450D-05  0.53051272D-04
  0.40873145D-04  0.17945512D-04  0.42581527D-04  0.32806771D-04  0.14403940D-04
  0.98878790D-05  0.29557876D-04 -0.74254849D-04 -0.21299522D-04 -0.76948334D-04
 -0.91654811D-05 -0.20565747D-04  0.95189107D-04 -0.69245553D-05  0.33541065D-04
  0.82560981D+00  0.15195628D+01  0.24589394D+01  0.32323447D+01  0.27723633D+01
  0.94791809D+00 -0.15835778D-01 -0.70658932D-02  0.20865677D-01  0.75218600D-03
  0.57951876D-03  0.25443995D-03  0.28822152D-02  0.22205915D-02  0.97495926D-03
  0.45918902D-03  0.35378038D-03  0.15532864D-03  0.38366125D-02 -0.20192998D-03
  0.21737417D-03  0.30284173D-04 -0.92379724D-02 -0.92871493D-02 -0.92579749D-02
 -0.10508379D-03 -0.14247269D-04  0.36956225D-05 -0.27702505D-05 -0.46988691D-05
 -0.53494964D-05 -0.10151806D-03  0.16871629D-05  0.31124860D-05  0.50245175D-05
  0.65404289D-05  0.55809599D-05  0.19269713D-05  0.11457450D-04  0.52807281D-05
 -0.14807713D-04  0.30368129D-04  0.23284355D-04  0.11620525D-04 -0.50734746D-04
 -0.38900186D-04 -0.19413919D-04 -0.51773478D-05 -0.39696619D-05 -0.19811395D-05
  0.64480433D-04 -0.46110400D-05 -0.29154617D-04  0.18187612D-04  0.73833537D-04
  0.68101878D-04 -0.26101211D-04 -0.30161098D-04  0.32322755D-04 -0.71078023D-05
 -0.24976449D-05 -0.42364785D-05 -0.48230810D-05 -0.25615033D-06  0.86556461D-04
  0.14681614D-03  0.16714499D-03 -0.26713218D-03  0.15602922D-05  0.26465509D-05
  0.30130046D-05 -0.86896339D-05 -0.26550493D-05 -0.45034662D-05 -0.51270371D-05
 -0.12052126D-04  0.52726003D-05  0.97269181D-05  0.15702262D-04  0.20439679D-04
  0.17441215D-04  0.60220325D-05 -0.19507047D-04 -0.89907801D-05  0.25211086D-04
 -0.13766850D-04 -0.10555548D-04 -0.52679581D-05 -0.84325469D-05 -0.64655421D-05
 -0.32267586D-05  0.13904703D-05  0.10661244D-05  0.53207080D-06 -0.75089226D-04
 -0.20989145D-04 -0.96545208D-05  0.45545665D-05 -0.11376702D-05  0.12222369D-04
  0.18359010D-04 -0.20355534D-04  0.75478690D-05  0.35338755D-05  0.28497303D-05
  0.48336819D-05  0.55029760D-05  0.32267972D-05  0.23314882D-05  0.39546452D-05
  0.45022238D-05  0.37115007D-05  0.30613327D-05  0.51925997D-05  0.59115912D-05
  0.65588002D-05
MO    3     MO 0.0        OCC NO =    1.0000000  ORB. ENERGY =  -10.304248
 -0.13105119D-04 -0.24176386D-04 -0.39028183D-04 -0.50803098D-04 -0.43350376D-04
 -0.14967843D-04  0.51327500D-04  0.23656798D-04 -0.66336130D-04  0.27495037D-04
  0.21081450D-04  0.10521121D-04  0.12646052D-04  0.96961904D-05  0.48390786D-05
 -0.56988934D-05 -0.43695500D-05 -0.21807117D-05  0.45363171D-03  0.19397940D-03
  0.13147895D-04 -0.12952969D-04  0.19860726D-04  0.19893569D-04 -0.31711363D-04
  0.56270385D-05 -0.87605048D-05  0.66772257D-06  0.13058997D-04  0.24091299D-04
  0.38890827D-04  0.50624301D-04  0.43197808D-04  0.14915165D-04 -0.32795534D-04
 -0.15115431D-04  0.42385248D-04  0.31126221D-04  0.23865612D-04  0.11910613D-04
  0.56786798D-04  0.43540515D-04  0.21729768D-04  0.28058465D-04  0.21513451D-04
  0.10736720D-04 -0.12711836D-03  0.92865965D-04 -0.25805955D-03 -0.19908874D-04
  0.49762726D-04 -0.94399679D-05  0.47811150D-04 -0.19204520D-05 -0.25457025D-04
 -0.32267813D-04 -0.86322505D-04 -0.15924817D-03 -0.25707592D-03 -0.33463646D-03
 -0.28554590D-03 -0.98592136D-04  0.15718583D-03  0.72446805D-04 -0.20314840D-03
 -0.13963738D-03 -0.10706509D-03 -0.53432981D-04 -0.11458082D-03 -0.87853308D-04
 -0.43844958D-04 -0.68404860D-04 -0.52448508D-04 -0.26175481D-04  0.52969359D-03
  0.17139231D-03  0.39671790D-03 -0.34780015D-04 -0.11108870D-03 -0.24702040D-04
 -0.17203332D-03  0.10781372D-03  0.44982590D-04 -0.65294101D-04  0.70867462D-03
  0.13073663D-02  0.21104946D-02  0.27472368D-02  0.23442222D-02  0.80940358D-03
 -0.19313111D-03 -0.89013951D-04  0.24960441D-03 -0.12981665D-03 -0.99535170D-04
 -0.49675026D-04 -0.99603417D-04 -0.76369582D-04 -0.38113774D-04 -0.20197708D-03
 -0.15486321D-03 -0.77287596D-04 -0.34672138D-03  0.29488640D-03  0.30409501D-03
  0.59430281D-04 -0.33532454D-03 -0.17663563D-03 -0.12089214D-03 -0.11573730D-03
 -0.36492250D-03  0.44944508D-05 -0.60443800D-04 -0.11150701D-03 -0.18000689D-03
 -0.23431548D-03 -0.19994182D-03 -0.69035107D-04  0.15310496D-03  0.70565935D-04
 -0.19787425D-03 -0.13060472D-03 -0.10013942D-03 -0.49976587D-04  0.89214523D-04
  0.68404038D-04  0.34138409D-04 -0.10234876D-03 -0.78474541D-04 -0.39164296D-04
  0.41871057D-03  0.27501977D-04 -0.23137030D-03  0.75149933D-04 -0.39750128D-04
 -0.69914062D-04 -0.16842788D-03 -0.97727885D-04  0.11530464D-03  0.17432444D-04
  0.17479073D-04  0.32245477D-04  0.52054197D-04  0.67759098D-04  0.57818961D-04
  0.19963498D-04 -0.54702796D-04 -0.25212468D-04  0.70698393D-04  0.36213383D-04
  0.27766125D-04  0.13857242D-04 -0.39184839D-04 -0.30044449D-04 -0.14994286D-04
  0.50994644D-04  0.39099458D-04  0.19513370D-04 -0.33720966D-03 -0.14016879D-03
  0.18791497D-03 -0.32786482D-04  0.17201115D-04 -0.11111289D-05  0.61297309D-04
  0.10147096D-04 -0.40329133D-04  0.36779887D-04 -0.76761288D-07 -0.13020167D-06
 -0.14823000D-06  0.61958020D-04 -0.13202405D-03 -0.24299473D-03 -0.39321134D-03
 -0.51688731D-03 -0.44333124D-03 -0.15158248D-03 -0.23289737D-03 -0.10391835D-03
  0.30687229D-03  0.17454074D-03  0.13447423D-03  0.59041429D-04 -0.17137876D-03
 -0.13203809D-03 -0.57971835D-04  0.86167113D-04  0.66387115D-04  0.29147519D-04
 -0.75051196D-03  0.41619467D-03 -0.38604242D-03  0.43963323D-04 -0.76968511D-04
 -0.38092254D-04  0.40117618D-03  0.80381844D-03 -0.22810373D-03  0.19106743D-04
 -0.58092955D-05 -0.10692205D-04 -0.17302006D-04 -0.22743971D-04 -0.19507372D-04
 -0.66699017D-05  0.77056283D-05  0.34382363D-05 -0.10153158D-04  0.43180936D-04
  0.33268584D-04  0.14606700D-04 -0.26052699D-04 -0.20072200D-04 -0.88127771D-05
 -0.49396911D-04 -0.38057657D-04 -0.16709361D-04  0.18647719D-04 -0.89349671D-04
 -0.60732187D-04  0.12341421D-04  0.22418347D-04 -0.72703683D-04 -0.42726824D-04
 -0.58345153D-04 -0.16151654D-04  0.99390501D-05 -0.21572909D-04 -0.36591737D-04
 -0.41658399D-04 -0.81254123D-04  0.53250218D+00  0.98236255D+00  0.15858377D+01
  0.20642895D+01  0.17614620D+01  0.60819050D+00 -0.19544021D-01 -0.90078212D-02
  0.25258871D-01  0.91771573D-03  0.70364621D-03  0.35116878D-03 -0.10718334D-02
 -0.82181388D-03 -0.41014272D-03  0.11250208D-03  0.86259463D-04  0.43049518D-04
 -0.15435229D-02  0.35864766D-03 -0.25449728D-03  0.10295874D-03 -0.98997228D-02
 -0.10044421D-01 -0.10698195D-01 -0.13345284D-02  0.44193332D-03 -0.27549496D-04
 -0.59446448D-04 -0.10083243D-03 -0.11479415D-03  0.39492888D-03  0.17569063D-04
  0.29800456D-04  0.33926766D-04  0.21593775D-04 -0.26425106D-05 -0.44821981D-05
 -0.51028241D-05  0.72006180D-04 -0.15114030D-04 -0.25636256D-04 -0.29185971D-04
 -0.78055457D-04 -0.30951995D-06 -0.57100387D-06 -0.92177729D-06 -0.11998801D-05
 -0.10238599D-05 -0.35351422D-06  0.55401095D-06  0.25534314D-06 -0.71600882D-06
 -0.81869504D-05 -0.62772343D-05 -0.31327798D-05  0.16157387D-04  0.12388459D-04
  0.61827095D-05 -0.13322572D-04 -0.10214903D-04 -0.50979526D-05  0.50757565D-04
  0.20100298D-04 -0.48205294D-05 -0.23616117D-05 -0.11784874D-04  0.43592110D-05
  0.17660149D-05 -0.63107593D-05 -0.73303243D-05 -0.41481341D-05 -0.10414579D-05
 -0.17665098D-05 -0.20111089D-05  0.35878922D-06 -0.24533371D-05 -0.41613240D-05
 -0.47375203D-05 -0.13562562D-05  0.29435838D-06  0.49928753D-06  0.56842121D-06
  0.10579995D-04
MO    4     MO 0.0        OCC NO =    1.0000000  ORB. ENERGY =  -10.254622
  0.96221513D-05  0.17750990D-04  0.28655602D-04  0.37301080D-04  0.31829079D-04
  0.10989816D-04 -0.69029370D-04 -0.31815574D-04  0.89214189D-04 -0.12586587D-03
 -0.96505968D-04 -0.48163241D-04  0.33374686D-04  0.25589592D-04  0.12771000D-04
  0.40541001D-05  0.31084268D-05  0.15513228D-05 -0.10243207D-02 -0.39268876D-03
  0.63544402D-04  0.59467985D-04  0.82613642D-05  0.22715332D-04  0.26045731D-04
 -0.31815605D-04  0.49650902D-05  0.11763063D-04  0.22262739D-02  0.41070405D-02
  0.66300369D-02  0.86303381D-02  0.73642831D-02  0.25427100D-02  0.27137296D-03
  0.12507555D-03 -0.35072490D-03 -0.37710468D-03 -0.28913995D-03 -0.14430110D-03
 -0.21097107D-03 -0.16175923D-03 -0.80729194D-04  0.63539894D-04  0.48718360D-04
  0.24313876D-04  0.19930876D-02  0.39621742D-03  0.81983234D-03 -0.13747857D-03
 -0.32635113D-03 -0.27046781D-03 -0.36386542D-03  0.14035849D-03 -0.20044396D-04
 -0.26003793D-04  0.53250847D+00  0.98237414D+00  0.15858565D+01  0.20643139D+01
  0.17614828D+01  0.60819768D+00 -0.19893131D-01 -0.91687257D-02  0.25710064D-01
  0.10272920D-02  0.78766234D-03  0.39309871D-03 -0.50178279D-03 -0.38473522D-03
 -0.19200984D-03 -0.14982238D-03 -0.11487430D-03 -0.57330326D-04 -0.31104025D-02
  0.82350111D-03 -0.93261195D-03 -0.51580896D-04 -0.99863786D-02 -0.10047128D-01
 -0.10408916D-01 -0.75427843D-03 -0.13971353D-03  0.79920714D-04  0.19708858D-02
  0.36358995D-02  0.58694692D-02  0.76403049D-02  0.65194860D-02  0.22510218D-02
  0.69866221D-04  0.32201278D-04 -0.90295743D-04  0.10961819D-03  0.84048273D-04
  0.41945979D-04  0.12401059D-03  0.95083457D-04  0.47453309D-04 -0.12675310D-03
 -0.97186237D-04 -0.48502744D-04  0.11859570D-02 -0.70119819D-03 -0.21351275D-03
  0.12316853D-03 -0.15321687D-03 -0.56033784D-03 -0.25599209D-03  0.71668373D-05
 -0.20064756D-03  0.13240416D-03  0.27956129D-04  0.51573599D-04  0.83255779D-04
  0.10837429D-03  0.92475975D-04  0.31929732D-04 -0.37672767D-04 -0.17363344D-04
  0.48688629D-04 -0.49515137D-04 -0.37965067D-04 -0.18947229D-04  0.16864486D-03
  0.12930618D-03  0.64532849D-04 -0.39743666D-04 -0.30472922D-04 -0.15208124D-04
 -0.82340909D-03  0.54244582D-04  0.27065028D-03  0.28992888D-07 -0.33038500D-05
  0.55243365D-04  0.19581403D-05  0.27080544D-04 -0.13288301D-04 -0.68936118D-04
 -0.54915102D-04 -0.10130764D-03 -0.16354194D-03 -0.21288302D-03 -0.18165346D-03
 -0.62720576D-04  0.10767900D-03  0.49629154D-04 -0.13916533D-03 -0.11025648D-03
 -0.84537673D-04 -0.42190224D-04  0.69417652D-04  0.53225053D-04  0.26563032D-04
  0.39588814D-05  0.30354191D-05  0.15148869D-05  0.63196186D-03  0.27759336D-03
 -0.24620974D-03 -0.33451698D-04 -0.22267684D-04 -0.18448454D-04 -0.12517387D-03
  0.62057782D-04 -0.57921302D-04 -0.43731847D-04 -0.22225042D-05 -0.37697877D-05
 -0.42917701D-05 -0.18550259D-04  0.29255513D-04  0.53845762D-04  0.87132607D-04
  0.11453825D-03  0.98238792D-04  0.33589511D-04 -0.11436663D-03 -0.51030168D-04
  0.15069277D-03  0.10451730D-05  0.80524946D-06  0.35354789D-06  0.88871088D-04
  0.68470382D-04  0.30062186D-04 -0.78103921D-04 -0.60174861D-04 -0.26420005D-04
 -0.35318038D-03  0.10135094D-03 -0.41495509D-04  0.63979232D-04  0.61342381D-04
  0.14440233D-03  0.78937293D-04 -0.13834146D-04 -0.48385034D-05  0.50054280D-04
  0.57950843D-04  0.10666049D-03  0.17259680D-03  0.22688332D-03  0.19459651D-03
  0.66535851D-04 -0.47878606D-03 -0.21363341D-03  0.63086232D-03  0.10372558D-03
  0.79914967D-04  0.35086975D-04 -0.98111961D-04 -0.75589977D-04 -0.33188071D-04
  0.49426398D-04  0.38080375D-04  0.16719336D-04 -0.11060587D-02  0.37912421D-03
 -0.46597074D-03 -0.59274417D-04  0.57723487D-04 -0.94722858D-04  0.72759527D-03
  0.10964905D-02  0.97737901D-04 -0.12917079D-03  0.30047594D-04  0.50966406D-04
  0.58023452D-04  0.26585110D-03  0.35351111D-05  0.65215897D-05  0.10527868D-04
  0.13704156D-04  0.11693781D-04  0.40375816D-05  0.11364423D-03  0.52378523D-04
 -0.14687484D-03  0.19959522D-03  0.15303695D-03  0.76376164D-04  0.11501409D-03
  0.88185509D-04  0.44010749D-04  0.18501551D-04  0.14185816D-04  0.70797164D-05
  0.44398834D-03 -0.30678958D-04 -0.18721472D-03 -0.14206385D-03 -0.16331689D-03
 -0.90883057D-04 -0.11539105D-03  0.19703355D-04  0.16836828D-03  0.17098614D-04
  0.10535322D-04  0.17869901D-04  0.20344251D-04  0.72215039D-04  0.37772995D-04
  0.64070149D-04  0.72941600D-04 -0.32676275D-04 -0.24592694D-04 -0.41713864D-04
 -0.47489760D-04  0.12567413D-03  0.20485136D-04  0.34746667D-04  0.39557852D-04
  0.11787384D-03 -0.24545864D-04 -0.45282326D-04 -0.73099715D-04 -0.95154109D-04
 -0.81195173D-04 -0.28034742D-04  0.59071334D-04  0.27225924D-04 -0.76344333D-04
 -0.22928119D-04 -0.17579827D-04 -0.87735659D-05  0.13146805D-04  0.10080136D-04
  0.50306943D-05  0.38497780D-05  0.29517656D-05  0.14731379D-05  0.36913492D-04
  0.34918173D-04 -0.50858565D-04 -0.10185023D-05  0.16408047D-04 -0.85667746D-04
 -0.45212994D-04 -0.36087361D-04 -0.19017783D-04  0.19314552D-04 -0.11038115D-04
 -0.18722733D-04 -0.21315170D-04 -0.15750321D-04 -0.95515739D-05 -0.16201277D-04