 Entering Link 1 = D:\Gaussian\G16W\l1.exe PID=     34600.
  
 Copyright (c) 1988,1990,1992,1993,1995,1998,2003,2009,2016,
            Gaussian, Inc.  All Rights Reserved.
  
 This is part of the Gaussian(R) 16 program.  It is based on
 the Gaussian(R) 09 system (copyright 2009, Gaussian, Inc.),
 the Gaussian(R) 03 system (copyright 2003, Gaussian, Inc.),
 the Gaussian(R) 98 system (copyright 1998, Gaussian, Inc.),
 the Gaussian(R) 94 system (copyright 1995, Gaussian, Inc.),
 the Gaussian 92(TM) system (copyright 1992, Gaussian, Inc.),
 the Gaussian 90(TM) system (copyright 1990, Gaussian, Inc.),
 the Gaussian 88(TM) system (copyright 1988, Gaussian, Inc.),
 the Gaussian 86(TM) system (copyright 1986, Carnegie Mellon
 University), and the Gaussian 82(TM) system (copyright 1983,
 Carnegie Mellon University). Gaussian is a federally registered
 trademark of Gaussian, Inc.
  
 This software contains proprietary and confidential information,
 including trade secrets, belonging to Gaussian, Inc.
  
 This software is provided under written license and may be
 used, copied, transmitted, or stored only in accord with that
 written license.
  
 The following legend is applicable only to US Government
 contracts under FAR:
  
                    RESTRICTED RIGHTS LEGEND
  
 Use, reproduction and disclosure by the US Government is
 subject to restrictions as set forth in subparagraphs (a)
 and (c) of the Commercial Computer Software - Restricted
 Rights clause in FAR 52.227-19.
  
 Gaussian, Inc.
 340 Quinnipiac St., Bldg. 40, Wallingford CT 06492
  
  
 ---------------------------------------------------------------
 Warning -- This program may not be used in any manner that
 competes with the business of Gaussian, Inc. or will provide
 assistance to any competitor of Gaussian, Inc.  The licensee
 of this program is prohibited from giving any competitor of
 Gaussian, Inc. access to this program.  By using this program,
 the user acknowledges that Gaussian, Inc. is engaged in the
 business of creating and licensing software in the field of
 computational chemistry and represents and warrants to the
 licensee that it is not a competitor of Gaussian, Inc. and that
 it will not use this program in any manner prohibited above.
 ---------------------------------------------------------------
  

 Cite this work as:
 Gaussian 16, Revision A.03,
 M. J. Frisch, G. W. Trucks, H. B. Schlegel, G. E. Scuseria, 
 M. A. Robb, J. R. Cheeseman, G. Scalmani, V. Barone, 
 G. A. Petersson, H. Nakatsuji, X. Li, M. Caricato, A. V. Marenich, 
 J. Bloino, B. G. Janesko, R. Gomperts, B. Mennucci, H. P. Hratchian, 
 J. V. Ortiz, A. F. Izmaylov, J. L. Sonnenberg, D. Williams-Young, 
 F. Ding, F. Lipparini, F. Egidi, J. Goings, B. Peng, A. Petrone, 
 T. Henderson, D. Ranasinghe, V. G. Zakrzewski, J. Gao, N. Rega, 
 G. Zheng, W. Liang, M. Hada, M. Ehara, K. Toyota, R. Fukuda, 
 J. Hasegawa, M. Ishida, T. Nakajima, Y. Honda, O. Kitao, H. Nakai, 
 T. Vreven, K. Throssell, J. A. Montgomery, Jr., J. E. Peralta, 
 F. Ogliaro, M. J. Bearpark, J. J. Heyd, E. N. Brothers, K. N. Kudin, 
 V. N. Staroverov, T. A. Keith, R. Kobayashi, J. Normand, 
 K. Raghavachari, A. P. Rendell, J. C. Burant, S. S. Iyengar, 
 J. Tomasi, M. Cossi, J. M. Millam, M. Klene, C. Adamo, R. Cammi, 
 J. W. Ochterski, R. L. Martin, K. Morokuma, O. Farkas, 
 J. B. Foresman, and D. J. Fox, Gaussian, Inc., Wallingford CT, 2016.
 
 ******************************************
 Gaussian 16:  EM64W-G16RevA.03 17-Dec-2016
                02-Dec-2025 
 ******************************************
 %nprocshared=14
 Will use up to   14 processors via shared memory.
 %mem=80GB
 %chk=SR-17.chk
 ---------------------------------------------------------
 # ub3lyp/6-311g(d,p) geom=connectivity temperature=823.15
 ---------------------------------------------------------
 1/38=1,57=2,112=823150,172=1/1;
 2/12=2,17=6,18=5,40=1/2;
 3/5=4,6=6,7=101,11=2,25=1,30=1,74=-5,116=2/1,2,3;
 4//1;
 5/5=2,38=5/2;
 6/7=2,8=2,9=2,10=2,28=1/1;
 99/5=1,9=1/99;
 -------------------
 Title Card Required
 -------------------
 Symbolic Z-matrix:
 Charge =  0 Multiplicity = 2
 C                    -1.89441  -0.03524   0.07525 
 C                    -0.92865  -1.07541   0.0157 
 C                     0.39033  -0.83212  -0.22683 
 C                     0.91391   0.56496  -0.48409 
 C                    -0.14941   1.61623  -0.34431 
 C                    -1.45439   1.29925  -0.10097 
 H                     0.15      2.6495   -0.48447 
 O                     3.04645   0.05455   0.54072 
 O                     1.27741  -1.85162  -0.30801 
 H                    -1.22646  -2.10767   0.16826 
 C                     2.14891   0.85031   0.38523 
 H                     2.18315   1.84476   0.87303 
 H                     2.16878  -1.49429  -0.14836 
 H                     1.33356   0.57319  -1.51422 
 H                    -2.18472   2.09998  -0.03405 
 C                    -3.33595  -0.35998   0.34865 
 H                    -3.74052  -1.05004  -0.40092 
 H                    -3.46087  -0.84578   1.32387 
 H                    -3.95578   0.53891   0.34339 
 
                          Input orientation:                          
 ---------------------------------------------------------------------
 Center     Atomic      Atomic             Coordinates (Angstroms)
 Number     Number       Type             X           Y           Z
 ---------------------------------------------------------------------
      1          6           0       -1.894406   -0.035244    0.075253
      2          6           0       -0.928650   -1.075407    0.015703
      3          6           0        0.390327   -0.832120   -0.226834
      4          6           0        0.913905    0.564962   -0.484087
      5          6           0       -0.149407    1.616229   -0.344312
      6          6           0       -1.454390    1.299247   -0.100972
      7          1           0        0.150002    2.649495   -0.484469
      8          8           0        3.046446    0.054554    0.540717
      9          8           0        1.277411   -1.851619   -0.308006
     10          1           0       -1.226462   -2.107670    0.168257
     11          6           0        2.148910    0.850313    0.385231
     12          1           0        2.183151    1.844755    0.873033
     13          1           0        2.168783   -1.494290   -0.148363
     14          1           0        1.333558    0.573191   -1.514223
     15          1           0       -2.184717    2.099977   -0.034052
     16          6           0       -3.335954   -0.359983    0.348651
     17          1           0       -3.740524   -1.050044   -0.400921
     18          1           0       -3.460870   -0.845783    1.323870
     19          1           0       -3.955783    0.538910    0.343389
 ---------------------------------------------------------------------
                    Distance matrix (angstroms):
                    1          2          3          4          5
     1  C    0.000000
     2  C    1.420623   0.000000
     3  C    2.438498   1.362979   0.000000
     4  C    2.925700   2.517064   1.513985   0.000000
     5  C    2.438938   2.825196   2.509886   1.501776   0.000000
     6  C    1.416169   2.434953   2.821621   2.508939   1.364798
     7  H    3.420631   3.910058   3.499396   2.220096   1.084863
     8  O    4.963541   4.165794   2.903497   2.420428   3.665458
     9  O    3.675123   2.360932   1.353841   2.450103   3.750080
    10  H    2.179392   1.085141   2.096934   3.485640   3.910268
    11  C    4.150747   3.649154   2.509545   1.537002   2.530044
    12  H    4.560408   4.352662   3.404348   2.256243   2.641019
    13  H    4.322999   3.129932   1.899351   2.434738   3.884293
    14  H    3.649161   3.190005   2.126489   1.112365   2.157731
    15  H    2.157637   3.415149   3.907072   3.487157   2.114890
    16  C    1.502752   2.533337   3.799903   4.428349   3.813095
    17  H    2.159795   2.842684   4.140257   4.927359   4.473068
    18  H    2.160978   2.859400   4.151697   4.939389   4.450856
    19  H    2.156577   3.446292   4.592771   4.939560   4.015227
                    6          7          8          9         10
     6  C    0.000000
     7  H    2.131740   0.000000
     8  O    4.713656   4.021705   0.000000
     9  O    4.175351   4.643513   2.735564   0.000000
    10  H    3.425130   4.995130   4.803299   2.561595   0.000000
    11  C    3.663565   2.826494   1.209537   2.922418   4.493315
    12  H    3.804993   2.573735   2.015076   3.984771   5.267242
    13  H    4.575312   4.621623   1.908937   0.973506   3.464704
    14  H    3.208908   2.602352   2.725023   2.708840   4.070805
    15  H    1.085829   2.440442   5.646165   5.260845   4.320124
    16  C    2.548625   4.680057   6.398731   4.892782   2.745343
    17  H    3.291739   5.369335   6.940445   5.082404   2.786224
    18  H    3.264551   5.340923   6.615822   5.111363   2.814317
    19  H    2.651893   4.690137   7.021734   5.790100   3.805818
                   11         12         13         14         15
    11  C    0.000000
    12  H    1.108169   0.000000
    13  H    2.404637   3.491802   0.000000
    14  H    2.085551   2.835079   2.614890   0.000000
    15  H    4.529656   4.468357   5.646661   4.110990   0.000000
    16  C    5.616929   5.966269   5.642323   5.113263   2.742847
    17  H    6.238175   6.715113   5.931362   5.442485   3.532387
    18  H    5.935269   6.268750   5.855000   5.749330   3.485688
    19  H    6.112773   6.298592   6.471942   5.606160   2.390830
                   16         17         18         19
    16  C    0.000000
    17  H    1.096230   0.000000
    18  H    1.096658   1.759214   0.000000
    19  H    1.091890   1.767798   1.767387   0.000000
 Stoichiometry    C8H9O2(2)
 Framework group  C1[X(C8H9O2)]
 Deg. of freedom    51
 Full point group                 C1      NOp   1
 Largest Abelian subgroup         C1      NOp   1
 Largest concise Abelian subgroup C1      NOp   1
                         Standard orientation:                         
 ---------------------------------------------------------------------
 Center     Atomic      Atomic             Coordinates (Angstroms)
 Number     Number       Type             X           Y           Z
 ---------------------------------------------------------------------
      1          6           0       -1.894406   -0.035244    0.075253
      2          6           0       -0.928650   -1.075407    0.015703
      3          6           0        0.390327   -0.832120   -0.226834
      4          6           0        0.913905    0.564962   -0.484087
      5          6           0       -0.149407    1.616229   -0.344312
      6          6           0       -1.454390    1.299247   -0.100972
      7          1           0        0.150002    2.649495   -0.484469
      8          8           0        3.046446    0.054554    0.540717
      9          8           0        1.277411   -1.851619   -0.308006
     10          1           0       -1.226462   -2.107670    0.168257
     11          6           0        2.148910    0.850313    0.385231
     12          1           0        2.183151    1.844755    0.873033
     13          1           0        2.168783   -1.494290   -0.148363
     14          1           0        1.333558    0.573191   -1.514223
     15          1           0       -2.184717    2.099977   -0.034052
     16          6           0       -3.335954   -0.359983    0.348651
     17          1           0       -3.740524   -1.050045   -0.400921
     18          1           0       -3.460870   -0.845783    1.323870
     19          1           0       -3.955783    0.538909    0.343389
 ---------------------------------------------------------------------
 Rotational constants (GHZ):           2.7078576           0.9473931           0.7427511
 Standard basis: 6-311G(d,p) (5D, 7F)
 There are   244 symmetry adapted cartesian basis functions of A   symmetry.
 There are   234 symmetry adapted basis functions of A   symmetry.
   234 basis functions,   392 primitive gaussians,   244 cartesian basis functions
    37 alpha electrons       36 beta electrons
       nuclear repulsion energy       502.8281553473 Hartrees.
 NAtoms=   19 NActive=   19 NUniq=   19 SFac= 1.00D+00 NAtFMM=   60 NAOKFM=F Big=F
 Integral buffers will be    131072 words long.
 Raffenetti 2 integral format.
 Two-electron integral symmetry is turned on.
 One-electron integrals computed using PRISM.
 NBasis=   234 RedAO= T EigKep=  2.58D-04  NBF=   234
 NBsUse=   234 1.00D-06 EigRej= -1.00D+00 NBFU=   234
 ExpMin= 1.03D-01 ExpMax= 8.59D+03 ExpMxC= 1.30D+03 IAcc=3 IRadAn=         5 AccDes= 0.00D+00
 Harris functional with IExCor=  402 and IRadAn=       5 diagonalized for initial guess.
 HarFok:  IExCor=  402 AccDes= 0.00D+00 IRadAn=         5 IDoV= 1 UseB2=F ITyADJ=14
 ICtDFT=  3500011 ScaDFX=  1.000000  1.000000  1.000000  1.000000
 FoFCou: FMM=F IPFlag=           0 FMFlag=      100000 FMFlg1=           0
         NFxFlg=           0 DoJE=T BraDBF=F KetDBF=T FulRan=T
         wScrn=  0.000000 ICntrl=       500 IOpCl=  0 I1Cent=   200000004 NGrid=           0
         NMat0=    1 NMatS0=      1 NMatT0=    0 NMatD0=    1 NMtDS0=    0 NMtDT0=    0
 Petite list used in FoFCou.
 Initial guess <Sx>= 0.0000 <Sy>= 0.0000 <Sz>= 0.5000 <S**2>= 0.7500 S= 0.5000
 Requested convergence on RMS density matrix=1.00D-08 within 128 cycles.
 Requested convergence on MAX density matrix=1.00D-06.
 Requested convergence on             energy=1.00D-06.
 No special actions if energy rises.
 Integral accuracy reduced to 1.0D-05 until final iterations.
 Initial convergence to 1.0D-05 achieved.  Increase integral accuracy.
 SCF Done:  E(UB3LYP) =  -460.778708589     A.U. after   19 cycles
            NFock= 19  Conv=0.45D-08     -V/T= 2.0038
 <Sx>= 0.0000 <Sy>= 0.0000 <Sz>= 0.5000 <S**2>= 0.7796 S= 0.5147
 <L.S>= 0.000000000000E+00
 Annihilation of the first spin contaminant:
 S**2 before annihilation     0.7796,   after     0.7505

 **********************************************************************

            Population analysis using the SCF density.

 **********************************************************************

 Orbital symmetries:
 Alpha Orbitals:
       Occupied  (A) (A) (A) (A) (A) (A) (A) (A) (A) (A) (A) (A)
                 (A) (A) (A) (A) (A) (A) (A) (A) (A) (A) (A) (A)
                 (A) (A) (A) (A) (A) (A) (A) (A) (A) (A) (A) (A)
                 (A)
       Virtual   (A) (A) (A) (A) (A) (A) (A) (A) (A) (A) (A) (A)
                 (A) (A) (A) (A) (A) (A) (A) (A) (A) (A) (A) (A)
                 (A) (A) (A) (A) (A) (A) (A) (A) (A) (A) (A) (A)
                 (A) (A) (A) (A) (A) (A) (A) (A) (A) (A) (A) (A)
                 (A) (A) (A) (A) (A) (A) (A) (A) (A) (A) (A) (A)
                 (A) (A) (A) (A) (A) (A) (A) (A) (A) (A) (A) (A)
                 (A) (A) (A) (A) (A) (A) (A) (A) (A) (A) (A) (A)
                 (A) (A) (A) (A) (A) (A) (A) (A) (A) (A) (A) (A)
                 (A) (A) (A) (A) (A) (A) (A) (A) (A) (A) (A) (A)
                 (A) (A) (A) (A) (A) (A) (A) (A) (A) (A) (A) (A)
                 (A) (A) (A) (A) (A) (A) (A) (A) (A) (A) (A) (A)
                 (A) (A) (A) (A) (A) (A) (A) (A) (A) (A) (A) (A)
                 (A) (A) (A) (A) (A) (A) (A) (A) (A) (A) (A) (A)
                 (A) (A) (A) (A) (A) (A) (A) (A) (A) (A) (A) (A)
                 (A) (A) (A) (A) (A) (A) (A) (A) (A) (A) (A) (A)
                 (A) (A) (A) (A) (A) (A) (A) (A) (A) (A) (A) (A)
                 (A) (A) (A) (A) (A)
 Beta  Orbitals:
       Occupied  (A) (A) (A) (A) (A) (A) (A) (A) (A) (A) (A) (A)
                 (A) (A) (A) (A) (A) (A) (A) (A) (A) (A) (A) (A)
                 (A) (A) (A) (A) (A) (A) (A) (A) (A) (A) (A) (A)
       Virtual   (A) (A) (A) (A) (A) (A) (A) (A) (A) (A) (A) (A)
                 (A) (A) (A) (A) (A) (A) (A) (A) (A) (A) (A) (A)
                 (A) (A) (A) (A) (A) (A) (A) (A) (A) (A) (A) (A)
                 (A) (A) (A) (A) (A) (A) (A) (A) (A) (A) (A) (A)
                 (A) (A) (A) (A) (A) (A) (A) (A) (A) (A) (A) (A)
                 (A) (A) (A) (A) (A) (A) (A) (A) (A) (A) (A) (A)
                 (A) (A) (A) (A) (A) (A) (A) (A) (A) (A) (A) (A)
                 (A) (A) (A) (A) (A) (A) (A) (A) (A) (A) (A) (A)
                 (A) (A) (A) (A) (A) (A) (A) (A) (A) (A) (A) (A)
                 (A) (A) (A) (A) (A) (A) (A) (A) (A) (A) (A) (A)
                 (A) (A) (A) (A) (A) (A) (A) (A) (A) (A) (A) (A)
                 (A) (A) (A) (A) (A) (A) (A) (A) (A) (A) (A) (A)
                 (A) (A) (A) (A) (A) (A) (A) (A) (A) (A) (A) (A)
                 (A) (A) (A) (A) (A) (A) (A) (A) (A) (A) (A) (A)
                 (A) (A) (A) (A) (A) (A) (A) (A) (A) (A) (A) (A)
                 (A) (A) (A) (A) (A) (A) (A) (A) (A) (A) (A) (A)
                 (A) (A) (A) (A) (A) (A)
 The electronic state is 2-A.
 Alpha  occ. eigenvalues --  -19.15345 -19.14538 -10.28996 -10.24469 -10.21403
 Alpha  occ. eigenvalues --  -10.18558 -10.18118 -10.17385 -10.16912 -10.16432
 Alpha  occ. eigenvalues --   -1.09072  -1.06256  -0.86140  -0.79548  -0.75151
 Alpha  occ. eigenvalues --   -0.71808  -0.63350  -0.61766  -0.60498  -0.53235
 Alpha  occ. eigenvalues --   -0.52108  -0.49418  -0.48579  -0.46937  -0.45388
 Alpha  occ. eigenvalues --   -0.43320  -0.42574  -0.40708  -0.39944  -0.39307
 Alpha  occ. eigenvalues --   -0.37274  -0.37043  -0.34240  -0.32229  -0.28824
 Alpha  occ. eigenvalues --   -0.25378  -0.16135
 Alpha virt. eigenvalues --   -0.05956  -0.00599   0.04302   0.05429   0.06223
 Alpha virt. eigenvalues --    0.07108   0.08436   0.08975   0.10336   0.11730
 Alpha virt. eigenvalues --    0.13806   0.14090   0.19386   0.19692   0.21453
 Alpha virt. eigenvalues --    0.22830   0.24767   0.26664   0.27710   0.30405
 Alpha virt. eigenvalues --    0.30843   0.34069   0.34992   0.35618   0.38106
 Alpha virt. eigenvalues --    0.38233   0.39355   0.42066   0.43000   0.43877
 Alpha virt. eigenvalues --    0.45593   0.46689   0.47616   0.48603   0.48833
 Alpha virt. eigenvalues --    0.49541   0.51396   0.53218   0.54724   0.55414
 Alpha virt. eigenvalues --    0.56455   0.56894   0.58421   0.60332   0.60537
 Alpha virt. eigenvalues --    0.61653   0.62098   0.62762   0.63844   0.64733
 Alpha virt. eigenvalues --    0.65362   0.67754   0.70642   0.74772   0.76410
 Alpha virt. eigenvalues --    0.78567   0.80003   0.82110   0.83474   0.85314
 Alpha virt. eigenvalues --    0.88620   0.89725   0.91728   0.96473   0.97105
 Alpha virt. eigenvalues --    0.97743   1.01857   1.04894   1.06254   1.07789
 Alpha virt. eigenvalues --    1.12008   1.14775   1.18517   1.20139   1.23931
 Alpha virt. eigenvalues --    1.29084   1.33158   1.33844   1.36341   1.36595
 Alpha virt. eigenvalues --    1.40501   1.41211   1.43643   1.44486   1.45254
 Alpha virt. eigenvalues --    1.47870   1.49518   1.50683   1.51639   1.54678
 Alpha virt. eigenvalues --    1.55009   1.56188   1.56987   1.59010   1.59855
 Alpha virt. eigenvalues --    1.62453   1.64618   1.66762   1.67127   1.69337
 Alpha virt. eigenvalues --    1.71823   1.74995   1.77036   1.77102   1.80496
 Alpha virt. eigenvalues --    1.82360   1.84234   1.85424   1.88216   1.89751
 Alpha virt. eigenvalues --    1.93808   1.94586   1.98162   1.98905   2.00809
 Alpha virt. eigenvalues --    2.03211   2.04973   2.07744   2.11718   2.15035
 Alpha virt. eigenvalues --    2.17704   2.20925   2.24223   2.26218   2.31345
 Alpha virt. eigenvalues --    2.33254   2.35199   2.36756   2.37982   2.43405
 Alpha virt. eigenvalues --    2.45557   2.47257   2.48424   2.52376   2.54165
 Alpha virt. eigenvalues --    2.55533   2.56109   2.56459   2.59065   2.60576
 Alpha virt. eigenvalues --    2.61873   2.63543   2.67243   2.70566   2.71999
 Alpha virt. eigenvalues --    2.74962   2.80889   2.84078   2.85138   2.87553
 Alpha virt. eigenvalues --    2.88181   2.90589   2.92425   2.94788   2.99511
 Alpha virt. eigenvalues --    3.02505   3.05919   3.12684   3.16833   3.19470
 Alpha virt. eigenvalues --    3.26905   3.29838   3.30117   3.37224   3.41456
 Alpha virt. eigenvalues --    3.43361   3.46905   3.51225   3.57594   3.60072
 Alpha virt. eigenvalues --    3.77106   3.77573   3.81397   3.84512   3.86295
 Alpha virt. eigenvalues --    3.99568   4.05096   4.11397   4.20297   4.33140
 Alpha virt. eigenvalues --    4.72113   4.82942   4.87364   5.01922   5.29323
 Alpha virt. eigenvalues --    5.55775   5.74964  23.51590  23.76447  23.77771
 Alpha virt. eigenvalues --   23.85323  23.90425  23.96763  24.13611  24.19039
 Alpha virt. eigenvalues --   49.89980  49.92920
  Beta  occ. eigenvalues --  -19.15340 -19.14355 -10.28866 -10.23995 -10.21486
  Beta  occ. eigenvalues --  -10.17827 -10.17623 -10.17520 -10.16960 -10.16635
  Beta  occ. eigenvalues --   -1.08989  -1.05870  -0.85433  -0.78844  -0.74654
  Beta  occ. eigenvalues --   -0.71566  -0.62670  -0.61296  -0.60174  -0.52762
  Beta  occ. eigenvalues --   -0.51830  -0.49078  -0.48057  -0.46692  -0.45023
  Beta  occ. eigenvalues --   -0.43175  -0.41679  -0.40448  -0.39651  -0.38499
  Beta  occ. eigenvalues --   -0.36811  -0.36636  -0.33911  -0.30816  -0.28432
  Beta  occ. eigenvalues --   -0.23921
  Beta virt. eigenvalues --   -0.07765  -0.05627   0.01036   0.04519   0.05653
  Beta virt. eigenvalues --    0.06624   0.07573   0.08580   0.09533   0.10402
  Beta virt. eigenvalues --    0.11905   0.14057   0.14710   0.19897   0.20265
  Beta virt. eigenvalues --    0.21757   0.23371   0.25151   0.26812   0.28058
  Beta virt. eigenvalues --    0.30806   0.31053   0.34268   0.35275   0.36436
  Beta virt. eigenvalues --    0.38313   0.38473   0.39784   0.42589   0.43553
  Beta virt. eigenvalues --    0.44312   0.45909   0.46882   0.48175   0.48647
  Beta virt. eigenvalues --    0.48982   0.49866   0.52382   0.53600   0.55206
  Beta virt. eigenvalues --    0.55897   0.57026   0.57443   0.58730   0.60656
  Beta virt. eigenvalues --    0.60729   0.61783   0.62234   0.63164   0.63956
  Beta virt. eigenvalues --    0.65434   0.65651   0.68150   0.71066   0.74971
  Beta virt. eigenvalues --    0.76726   0.78772   0.80562   0.82462   0.83761
  Beta virt. eigenvalues --    0.85524   0.88813   0.89962   0.91914   0.96906
  Beta virt. eigenvalues --    0.97393   0.98117   1.02235   1.05279   1.06833
  Beta virt. eigenvalues --    1.08558   1.12187   1.15045   1.19208   1.20682
  Beta virt. eigenvalues --    1.24118   1.29466   1.33282   1.34580   1.36626
  Beta virt. eigenvalues --    1.37005   1.40866   1.41650   1.43788   1.44834
  Beta virt. eigenvalues --    1.45538   1.48083   1.49830   1.51254   1.51929
  Beta virt. eigenvalues --    1.54966   1.55418   1.56626   1.57501   1.59446
  Beta virt. eigenvalues --    1.60272   1.62800   1.64964   1.67020   1.68011
  Beta virt. eigenvalues --    1.69747   1.72278   1.75479   1.77372   1.77466
  Beta virt. eigenvalues --    1.80843   1.82803   1.84706   1.86061   1.88680
  Beta virt. eigenvalues --    1.89972   1.94514   1.95255   1.98798   1.99538
  Beta virt. eigenvalues --    2.01270   2.03520   2.05469   2.08159   2.11997
  Beta virt. eigenvalues --    2.15489   2.18218   2.21291   2.24306   2.26628
  Beta virt. eigenvalues --    2.31717   2.33552   2.35508   2.37139   2.38313
  Beta virt. eigenvalues --    2.43700   2.46045   2.47554   2.48682   2.52683
  Beta virt. eigenvalues --    2.54427   2.55921   2.56626   2.56757   2.59257
  Beta virt. eigenvalues --    2.61154   2.62283   2.63572   2.67361   2.70986
  Beta virt. eigenvalues --    2.72686   2.75610   2.81079   2.84744   2.86285
  Beta virt. eigenvalues --    2.88480   2.88698   2.90831   2.92897   2.95058
  Beta virt. eigenvalues --    3.00219   3.03414   3.06230   3.13106   3.17131
  Beta virt. eigenvalues --    3.20246   3.27185   3.30039   3.30252   3.37423
  Beta virt. eigenvalues --    3.41721   3.43551   3.47105   3.51436   3.57741
  Beta virt. eigenvalues --    3.60183   3.77229   3.77811   3.81498   3.84755
  Beta virt. eigenvalues --    3.86623   3.99832   4.05356   4.11871   4.20676
  Beta virt. eigenvalues --    4.33827   4.72787   4.83493   4.87578   5.01981
  Beta virt. eigenvalues --    5.29548   5.55847   5.75171  23.51917  23.76656
  Beta virt. eigenvalues --   23.78000  23.85333  23.90666  23.97177  24.13652
  Beta virt. eigenvalues --   24.19165  49.90082  49.93002
          Condensed to atoms (all electrons):
               1          2          3          4          5          6
     1  C    5.163992   0.445748  -0.047890  -0.035113  -0.058123   0.497294
     2  C    0.445748   4.871477   0.586310  -0.048243  -0.027767  -0.064212
     3  C   -0.047890   0.586310   4.872274   0.278660  -0.013127  -0.025156
     4  C   -0.035113  -0.048243   0.278660   5.536969   0.210920  -0.041972
     5  C   -0.058123  -0.027767  -0.013127   0.210920   5.170893   0.563125
     6  C    0.497294  -0.064212  -0.025156  -0.041972   0.563125   4.761481
     7  H    0.007538   0.000028   0.003836  -0.049515   0.403470  -0.022431
     8  O    0.000034   0.000387  -0.000977  -0.079735   0.005440  -0.000169
     9  O    0.003041  -0.054006   0.330818  -0.049506   0.004853   0.000108
    10  H   -0.045108   0.411323  -0.045997   0.011519  -0.001870   0.008402
    11  C   -0.001446   0.005038  -0.044743   0.280179  -0.069402   0.006532
    12  H   -0.000037  -0.000361   0.006519  -0.113448   0.016756  -0.000148
    13  H   -0.000308   0.004443  -0.043885  -0.015206   0.001521  -0.000096
    14  H    0.004051  -0.007239  -0.035357   0.355712  -0.020060  -0.004243
    15  H   -0.045769   0.008811  -0.001027   0.008945  -0.041933   0.415500
    16  C    0.366719  -0.056690   0.005733  -0.000283   0.007539  -0.058032
    17  H   -0.042143  -0.003916   0.000226   0.000012  -0.000306   0.002258
    18  H   -0.041600  -0.003068   0.000434  -0.000076  -0.000104   0.001063
    19  H   -0.035593   0.006993  -0.000383   0.000029   0.000551  -0.007654
               7          8          9         10         11         12
     1  C    0.007538   0.000034   0.003041  -0.045108  -0.001446  -0.000037
     2  C    0.000028   0.000387  -0.054006   0.411323   0.005038  -0.000361
     3  C    0.003836  -0.000977   0.330818  -0.045997  -0.044743   0.006519
     4  C   -0.049515  -0.079735  -0.049506   0.011519   0.280179  -0.113448
     5  C    0.403470   0.005440   0.004853  -0.001870  -0.069402   0.016756
     6  C   -0.022431  -0.000169   0.000108   0.008402   0.006532  -0.000148
     7  H    0.564168   0.000102  -0.000145   0.000084  -0.003142   0.004386
     8  O    0.000102   7.837857  -0.017532   0.000012   0.542729  -0.038426
     9  O   -0.000145  -0.017532   7.801428   0.004843  -0.003874  -0.000544
    10  H    0.000084   0.000012   0.004843   0.569455  -0.000073   0.000048
    11  C   -0.003142   0.542729  -0.003874  -0.000073   4.740435   0.393425
    12  H    0.004386  -0.038426  -0.000544   0.000048   0.393425   0.619214
    13  H    0.000045   0.054830   0.324184  -0.000150  -0.010162   0.003010
    14  H   -0.000014   0.002318   0.005073  -0.000351  -0.069045   0.008758
    15  H   -0.009722   0.000003   0.000010  -0.000259  -0.000037  -0.000025
    16  C   -0.000347   0.000000  -0.000087  -0.006984   0.000000  -0.000004
    17  H    0.000021   0.000000  -0.000004   0.001117   0.000002  -0.000002
    18  H    0.000019   0.000000  -0.000011   0.000943  -0.000006   0.000005
    19  H   -0.000030   0.000000   0.000002   0.000082   0.000000   0.000001
              13         14         15         16         17         18
     1  C   -0.000308   0.004051  -0.045769   0.366719  -0.042143  -0.041600
     2  C    0.004443  -0.007239   0.008811  -0.056690  -0.003916  -0.003068
     3  C   -0.043885  -0.035357  -0.001027   0.005733   0.000226   0.000434
     4  C   -0.015206   0.355712   0.008945  -0.000283   0.000012  -0.000076
     5  C    0.001521  -0.020060  -0.041933   0.007539  -0.000306  -0.000104
     6  C   -0.000096  -0.004243   0.415500  -0.058032   0.002258   0.001063
     7  H    0.000045  -0.000014  -0.009722  -0.000347   0.000021   0.000019
     8  O    0.054830   0.002318   0.000003   0.000000   0.000000   0.000000
     9  O    0.324184   0.005073   0.000010  -0.000087  -0.000004  -0.000011
    10  H   -0.000150  -0.000351  -0.000259  -0.006984   0.001117   0.000943
    11  C   -0.010162  -0.069045  -0.000037   0.000000   0.000002  -0.000006
    12  H    0.003010   0.008758  -0.000025  -0.000004  -0.000002   0.000005
    13  H    0.428110   0.002606  -0.000007   0.000023   0.000000   0.000000
    14  H    0.002606   0.588493  -0.000300   0.000062  -0.000064   0.000032
    15  H   -0.000007  -0.000300   0.587776  -0.009509   0.000014   0.000066
    16  C    0.000023   0.000062  -0.009509   4.798047   0.402049   0.399344
    17  H    0.000000  -0.000064   0.000014   0.402049   0.582594  -0.036546
    18  H    0.000000   0.000032   0.000066   0.399344  -0.036546   0.584952
    19  H   -0.000001  -0.000003   0.004323   0.407161  -0.027091  -0.027388
              19
     1  C   -0.035593
     2  C    0.006993
     3  C   -0.000383
     4  C    0.000029
     5  C    0.000551
     6  C   -0.007654
     7  H   -0.000030
     8  O    0.000000
     9  O    0.000002
    10  H    0.000082
    11  C    0.000000
    12  H    0.000001
    13  H   -0.000001
    14  H   -0.000003
    15  H    0.004323
    16  C    0.407161
    17  H   -0.027091
    18  H   -0.027388
    19  H    0.574806
          Atomic-Atomic Spin Densities.
               1          2          3          4          5          6
     1  C    0.614129  -0.040912  -0.026190  -0.001247  -0.031219   0.028943
     2  C   -0.040912  -0.162935   0.034307   0.001878   0.003284   0.002291
     3  C   -0.026190   0.034307   0.361963   0.001179   0.014741  -0.001060
     4  C   -0.001247   0.001878   0.001179  -0.056259  -0.023982   0.004031
     5  C   -0.031219   0.003284   0.014741  -0.023982   0.532324  -0.036201
     6  C    0.028943   0.002291  -0.001060   0.004031  -0.036201  -0.182606
     7  H   -0.000260  -0.000169  -0.000036   0.000549   0.004910  -0.000941
     8  O   -0.000005  -0.000041   0.000265   0.001571   0.000715  -0.000024
     9  O    0.000609  -0.001294  -0.052127   0.001749  -0.000265  -0.000012
    10  H   -0.000570   0.000589  -0.000180   0.000094  -0.000057  -0.000069
    11  C    0.000379   0.000402  -0.005906   0.015771  -0.024259   0.001389
    12  H   -0.000250   0.000004   0.001549  -0.003752   0.011522  -0.000716
    13  H   -0.000020  -0.000143  -0.000863  -0.000182   0.000114  -0.000015
    14  H    0.003396  -0.003193  -0.027264  -0.006199  -0.009733  -0.001467
    15  H   -0.000399   0.000114  -0.000023   0.000053  -0.000629   0.000417
    16  C   -0.009646   0.003135  -0.000396  -0.000050  -0.000099  -0.000302
    17  H   -0.015278   0.001300   0.000052   0.000115   0.000004   0.000313
    18  H   -0.015858   0.001095   0.000675  -0.000119   0.000484  -0.001156
    19  H   -0.000980  -0.000089  -0.000002   0.000004   0.000018   0.000450
               7          8          9         10         11         12
     1  C   -0.000260  -0.000005   0.000609  -0.000570   0.000379  -0.000250
     2  C   -0.000169  -0.000041  -0.001294   0.000589   0.000402   0.000004
     3  C   -0.000036   0.000265  -0.052127  -0.000180  -0.005906   0.001549
     4  C    0.000549   0.001571   0.001749   0.000094   0.015771  -0.003752
     5  C    0.004910   0.000715  -0.000265  -0.000057  -0.024259   0.011522
     6  C   -0.000941  -0.000024  -0.000012  -0.000069   0.001389  -0.000716
     7  H   -0.028740   0.000001   0.000005  -0.000004   0.000195  -0.000019
     8  O    0.000001   0.004691  -0.000060  -0.000002  -0.010824   0.000876
     9  O    0.000005  -0.000060   0.094875  -0.000028   0.000371  -0.000114
    10  H   -0.000004  -0.000002  -0.000028   0.006482   0.000010  -0.000002
    11  C    0.000195  -0.010824   0.000371   0.000010   0.115446  -0.020015
    12  H   -0.000019   0.000876  -0.000114  -0.000002  -0.020015   0.016509
    13  H    0.000000  -0.000193   0.001185  -0.000010   0.000045   0.000077
    14  H    0.000177   0.003717   0.004496  -0.000050  -0.039937   0.005862
    15  H    0.000398   0.000000   0.000000   0.000001  -0.000001  -0.000004
    16  C    0.000014   0.000000   0.000002   0.000367   0.000001   0.000000
    17  H   -0.000001   0.000000  -0.000003   0.000088   0.000006  -0.000002
    18  H    0.000001   0.000000  -0.000011  -0.000196  -0.000012   0.000007
    19  H   -0.000001   0.000000   0.000000   0.000002   0.000000   0.000000
              13         14         15         16         17         18
     1  C   -0.000020   0.003396  -0.000399  -0.009646  -0.015278  -0.015858
     2  C   -0.000143  -0.003193   0.000114   0.003135   0.001300   0.001095
     3  C   -0.000863  -0.027264  -0.000023  -0.000396   0.000052   0.000675
     4  C   -0.000182  -0.006199   0.000053  -0.000050   0.000115  -0.000119
     5  C    0.000114  -0.009733  -0.000629  -0.000099   0.000004   0.000484
     6  C   -0.000015  -0.001467   0.000417  -0.000302   0.000313  -0.001156
     7  H    0.000000   0.000177   0.000398   0.000014  -0.000001   0.000001
     8  O   -0.000193   0.003717   0.000000   0.000000   0.000000   0.000000
     9  O    0.001185   0.004496   0.000000   0.000002  -0.000003  -0.000011
    10  H   -0.000010  -0.000050   0.000001   0.000367   0.000088  -0.000196
    11  C    0.000045  -0.039937  -0.000001   0.000001   0.000006  -0.000012
    12  H    0.000077   0.005862  -0.000004   0.000000  -0.000002   0.000007
    13  H    0.000054   0.000236   0.000000  -0.000001  -0.000002   0.000002
    14  H    0.000236   0.142690  -0.000020  -0.000001  -0.000082   0.000045
    15  H    0.000000  -0.000020   0.007730   0.000179  -0.000003  -0.000032
    16  C   -0.000001  -0.000001   0.000179  -0.047056   0.004430   0.004422
    17  H   -0.000002  -0.000082  -0.000003   0.004430   0.046871  -0.014392
    18  H    0.000002   0.000045  -0.000032   0.004422  -0.014392   0.051435
    19  H    0.000000  -0.000002  -0.000030   0.001810   0.000056  -0.000745
              19
     1  C   -0.000980
     2  C   -0.000089
     3  C   -0.000002
     4  C    0.000004
     5  C    0.000018
     6  C    0.000450
     7  H   -0.000001
     8  O    0.000000
     9  O    0.000000
    10  H    0.000002
    11  C    0.000000
    12  H    0.000000
    13  H    0.000000
    14  H   -0.000002
    15  H   -0.000030
    16  C    0.001810
    17  H    0.000056
    18  H   -0.000745
    19  H    0.000595
 Mulliken charges and spin densities:
               1          2
     1  C   -0.135287   0.504621
     2  C   -0.075056  -0.160377
     3  C    0.173733   0.300685
     4  C   -0.249849  -0.064796
     5  C   -0.152375   0.441672
     6  C   -0.031650  -0.186733
     7  H    0.101652  -0.023922
     8  O   -0.306874   0.000689
     9  O   -0.348648   0.049378
    10  H    0.092963   0.006465
    11  C    0.233590   0.033061
    12  H    0.100875   0.011530
    13  H    0.251044   0.000285
    14  H    0.169571   0.072671
    15  H    0.083138   0.007753
    16  C   -0.254741  -0.043189
    17  H    0.121780   0.023473
    18  H    0.121940   0.025647
    19  H    0.104195   0.001087
 Sum of Mulliken charges =   0.00000   1.00000
 Mulliken charges and spin densities with hydrogens summed into heavy atoms:
               1          2
     1  C   -0.135287   0.504621
     2  C    0.017907  -0.153911
     3  C    0.173733   0.300685
     4  C   -0.080278   0.007875
     5  C   -0.050723   0.417750
     6  C    0.051488  -0.178981
     8  O   -0.306874   0.000689
     9  O   -0.097605   0.049663
    11  C    0.334464   0.044591
    16  C    0.093174   0.007018
 Electronic spatial extent (au):  <R**2>=           1540.8944
 Charge=              0.0000 electrons
 Dipole moment (field-independent basis, Debye):
    X=             -0.8816    Y=              2.0950    Z=             -0.2620  Tot=              2.2879
 Quadrupole moment (field-independent basis, Debye-Ang):
   XX=            -59.5665   YY=            -58.2194   ZZ=            -60.6488
   XY=              3.5812   XZ=             -2.7198   YZ=             -0.6407
 Traceless Quadrupole moment (field-independent basis, Debye-Ang):
   XX=             -0.0883   YY=              1.2588   ZZ=             -1.1705
   XY=              3.5812   XZ=             -2.7198   YZ=             -0.6407
 Octapole moment (field-independent basis, Debye-Ang**2):
  XXX=            -11.3037  YYY=              5.4755  ZZZ=              1.4936  XYY=              5.3725
  XXY=              0.1186  XXZ=             -5.4968  XZZ=              9.2630  YZZ=             -2.9378
  YYZ=              2.8502  XYZ=              0.3594
 Hexadecapole moment (field-independent basis, Debye-Ang**3):
 XXXX=          -1464.4708 YYYY=           -500.4512 ZZZZ=           -119.3935 XXXY=            -17.1740
 XXXZ=            -25.9172 YYYX=              4.8305 YYYZ=             -3.0461 ZZZX=              0.9970
 ZZZY=              2.6108 XXYY=           -289.5515 XXZZ=           -257.3086 YYZZ=           -109.1290
 XXYZ=              3.7272 YYXZ=              5.1163 ZZXY=              3.1301
 N-N= 5.028281553473D+02 E-N=-2.080945471234D+03  KE= 4.590338936969D+02
                          Isotropic Fermi Contact Couplings
        Atom                 a.u.       MegaHertz       Gauss      10(-4) cm-1
     1  C(13)              0.03531      39.69855      14.16543      13.24201
     2  C(13)             -0.02708     -30.44484     -10.86348     -10.15531
     3  C(13)              0.02268      25.50143       9.09955       8.50636
     4  C(13)             -0.02609     -29.32995     -10.46565      -9.78342
     5  C(13)              0.02755      30.97016      11.05092      10.33053
     6  C(13)             -0.02988     -33.59284     -11.98676     -11.20536
     7  H(1)              -0.00590     -26.35005      -9.40235      -8.78943
     8  O(17)              0.00007      -0.04124      -0.01471      -0.01375
     9  O(17)              0.00855      -5.18439      -1.84992      -1.72933
    10  H(1)               0.00158       7.05818       2.51853       2.35436
    11  C(13)              0.07250      81.50839      29.08422      27.18827
    12  H(1)               0.00095       4.24548       1.51489       1.41614
    13  H(1)               0.00011       0.49161       0.17542       0.16398
    14  H(1)               0.03152     140.87209      50.26666      46.98987
    15  H(1)               0.00178       7.96678       2.84275       2.65743
    16  C(13)             -0.01689     -18.99149      -6.77664      -6.33488
    17  H(1)               0.01122      50.13712      17.89017      16.72394
    18  H(1)               0.01213      54.23326      19.35177      18.09027
    19  H(1)               0.00035       1.57151       0.56075       0.52420
 --------------------------------------------------------
       Center         ----  Spin Dipole Couplings  ----
                      3XX-RR        3YY-RR        3ZZ-RR
 --------------------------------------------------------
     1   Atom       -0.265467     -0.292904      0.558371
     2   Atom        0.069794      0.057057     -0.126851
     3   Atom       -0.182072     -0.184462      0.366534
     4   Atom        0.001489      0.003563     -0.005052
     5   Atom       -0.221915     -0.225856      0.447770
     6   Atom        0.068185      0.069553     -0.137737
     7   Atom       -0.025942      0.028108     -0.002166
     8   Atom       -0.001161     -0.023933      0.025094
     9   Atom       -0.153834     -0.159877      0.313711
    10   Atom        0.006994     -0.000716     -0.006279
    11   Atom        0.016942     -0.029979      0.013037
    12   Atom        0.002869     -0.000552     -0.002317
    13   Atom        0.014596     -0.006316     -0.008280
    14   Atom        0.001019      0.000253     -0.001272
    15   Atom        0.001281      0.005396     -0.006677
    16   Atom        0.005850     -0.007500      0.001650
    17   Atom        0.005246     -0.001167     -0.004079
    18   Atom        0.003481     -0.002326     -0.001155
    19   Atom        0.007791     -0.004307     -0.003484
 --------------------------------------------------------
                        XY            XZ            YZ
 --------------------------------------------------------
     1   Atom        0.015818      0.140369      0.076697
     2   Atom       -0.009248     -0.030556     -0.017221
     3   Atom        0.002199      0.085748      0.031212
     4   Atom       -0.001551     -0.000344     -0.000956
     5   Atom        0.008022      0.122585      0.038541
     6   Atom        0.010062     -0.037511     -0.018593
     7   Atom        0.015679      0.004008     -0.004133
     8   Atom       -0.013489      0.044458      0.019716
     9   Atom        0.004202      0.017860      0.023182
    10   Atom       -0.001893     -0.001956     -0.000168
    11   Atom        0.000756      0.040249     -0.002293
    12   Atom        0.002959      0.004170      0.003991
    13   Atom        0.003288     -0.000454     -0.001310
    14   Atom       -0.001203     -0.005045     -0.000786
    15   Atom        0.004681     -0.001647     -0.001725
    16   Atom        0.004319     -0.001143     -0.000104
    17   Atom        0.005413      0.000943      0.001122
    18   Atom        0.004024     -0.004434     -0.002977
    19   Atom       -0.002581     -0.001626      0.000531
 --------------------------------------------------------


 ---------------------------------------------------------------------------------
              Anisotropic Spin Dipole Couplings in Principal Axis System
 ---------------------------------------------------------------------------------

       Atom             a.u.   MegaHertz   Gauss  10(-4) cm-1        Axes

              Baa    -0.3006   -40.342   -14.395   -13.457 -0.2592  0.9648 -0.0438
     1 C(13)  Bbb    -0.2879   -38.639   -13.787   -12.889  0.9520  0.2475 -0.1803
              Bcc     0.5886    78.982    28.183    26.345  0.1631  0.0884  0.9826
 
              Baa    -0.1333   -17.884    -6.381    -5.965  0.1524  0.0964  0.9836
     2 C(13)  Bbb     0.0565     7.577     2.704     2.528  0.3238  0.9354 -0.1419
              Bcc     0.0768    10.307     3.678     3.438  0.9338 -0.3401 -0.1113
 
              Baa    -0.1958   -26.278    -9.377    -8.765  0.9541  0.2535 -0.1595
     3 C(13)  Bbb    -0.1855   -24.894    -8.883    -8.304 -0.2591  0.9658 -0.0144
              Bcc     0.3813    51.173    18.260    17.069  0.1504  0.0550  0.9871
 
              Baa    -0.0052    -0.697    -0.249    -0.233  0.0792  0.1220  0.9894
     4 C(13)  Bbb     0.0008     0.101     0.036     0.034  0.8859  0.4465 -0.1259
              Bcc     0.0044     0.596     0.213     0.199 -0.4571  0.8864 -0.0727
 
              Baa    -0.2437   -32.707   -11.671   -10.910  0.9826 -0.0743 -0.1701
     5 C(13)  Bbb    -0.2280   -30.594   -10.917   -10.205  0.0635  0.9956 -0.0683
              Bcc     0.4717    63.301    22.587    21.115  0.1744  0.0563  0.9831
 
              Baa    -0.1456   -19.543    -6.973    -6.519  0.1688  0.0770  0.9826
     6 C(13)  Bbb     0.0596     7.993     2.852     2.666 -0.6526  0.7559  0.0528
              Bcc     0.0861    11.550     4.121     3.853  0.7387  0.6501 -0.1778
 
              Baa    -0.0310   -16.547    -5.904    -5.519  0.9496 -0.2637 -0.1697
     7 H(1)   Bbb    -0.0016    -0.837    -0.299    -0.279  0.1861  0.0384  0.9818
              Bcc     0.0326    17.383     6.203     5.798  0.2524  0.9638 -0.0855
 
              Baa    -0.0526     3.804     1.357     1.269  0.5975  0.6262 -0.5009
     8 O(17)  Bbb    -0.0065     0.471     0.168     0.157 -0.5575  0.7734  0.3018
              Bcc     0.0591    -4.276    -1.526    -1.426  0.5764  0.0990  0.8112
 
              Baa    -0.1624    11.752     4.193     3.920 -0.3882  0.9211 -0.0303
     9 O(17)  Bbb    -0.1531    11.080     3.954     3.696  0.9208  0.3863 -0.0544
              Bcc     0.3155   -22.832    -8.147    -7.616  0.0384  0.0490  0.9981
 
              Baa    -0.0066    -3.519    -1.256    -1.174  0.1526  0.0773  0.9853
    10 H(1)   Bbb    -0.0011    -0.581    -0.207    -0.194  0.2019  0.9735 -0.1076
              Bcc     0.0077     4.100     1.463     1.368  0.9675 -0.2154 -0.1329
 
              Baa    -0.0308    -4.140    -1.477    -1.381 -0.2445  0.9305  0.2728
    11 C(13)  Bbb    -0.0244    -3.281    -1.171    -1.094 -0.6453 -0.3662  0.6705
              Bcc     0.0553     7.421     2.648     2.475  0.7238 -0.0121  0.6900
 
              Baa    -0.0059    -3.124    -1.115    -1.042 -0.2294 -0.5004  0.8349
    12 H(1)   Bbb    -0.0019    -1.014    -0.362    -0.338 -0.6572  0.7123  0.2463
              Bcc     0.0078     4.138     1.477     1.380  0.7180  0.4922  0.4922
 
              Baa    -0.0090    -4.797    -1.712    -1.600 -0.0515  0.4896  0.8704
    13 H(1)   Bbb    -0.0061    -3.270    -1.167    -1.091 -0.1470  0.8584 -0.4915
              Bcc     0.0151     8.067     2.878     2.691  0.9878  0.1532 -0.0277
 
              Baa    -0.0056    -2.997    -1.070    -1.000  0.6151  0.2271  0.7551
    14 H(1)   Bbb     0.0005     0.282     0.101     0.094 -0.0663  0.9691 -0.2375
              Bcc     0.0051     2.716     0.969     0.906  0.7857 -0.0960 -0.6111
 
              Baa    -0.0071    -3.770    -1.345    -1.258  0.1494  0.0802  0.9855
    15 H(1)   Bbb    -0.0017    -0.928    -0.331    -0.310  0.8246 -0.5601 -0.0794
              Bcc     0.0088     4.699     1.677     1.567  0.5456  0.8245 -0.1499
 
              Baa    -0.0088    -1.178    -0.420    -0.393 -0.2846  0.9584 -0.0216
    16 C(13)  Bbb     0.0014     0.192     0.069     0.064  0.1799  0.0755  0.9808
              Bcc     0.0073     0.986     0.352     0.329  0.9416  0.2752 -0.1939
 
              Baa    -0.0047    -2.532    -0.903    -0.845  0.2904 -0.6572  0.6955
    17 H(1)   Bbb    -0.0037    -1.993    -0.711    -0.665 -0.4166  0.5676  0.7102
              Bcc     0.0085     4.525     1.615     1.509  0.8615  0.4960  0.1090
 
              Baa    -0.0048    -2.566    -0.916    -0.856 -0.1183  0.8353  0.5370
    18 H(1)   Bbb    -0.0037    -1.954    -0.697    -0.652  0.6293 -0.3553  0.6912
              Bcc     0.0085     4.520     1.613     1.508  0.7681  0.4196 -0.4836
 
              Baa    -0.0049    -2.597    -0.927    -0.866  0.1766  0.9703 -0.1652
    19 H(1)   Bbb    -0.0037    -1.970    -0.703    -0.657  0.1687  0.1355  0.9763
              Bcc     0.0086     4.566     1.629     1.523  0.9697 -0.2003 -0.1398
 

 ---------------------------------------------------------------------------------

 1|1|UNPC-PC-20250526LCFF|SP|UB3LYP|6-311G(d,p)|C8H9O2(2)|ADMINISTRATOR
 |02-Dec-2025|0||# ub3lyp/6-311g(d,p) geom=connectivity temperature=823
 .15||Title Card Required||0,2|C,0,-1.894406,-0.035244,0.075253|C,0,-0.
 92865,-1.075407,0.015703|C,0,0.390327,-0.83212,-0.226834|C,0,0.913905,
 0.564962,-0.484087|C,0,-0.149407,1.616229,-0.344312|C,0,-1.45439,1.299
 247,-0.100972|H,0,0.150002,2.649495,-0.484469|O,0,3.046446,0.054554,0.
 540717|O,0,1.277411,-1.851619,-0.308006|H,0,-1.226462,-2.10767,0.16825
 7|C,0,2.14891,0.850313,0.385231|H,0,2.183151,1.844755,0.873033|H,0,2.1
 68783,-1.49429,-0.148363|H,0,1.333558,0.573191,-1.514223|H,0,-2.184717
 ,2.099977,-0.034052|C,0,-3.335954,-0.359983,0.348651|H,0,-3.740524,-1.
 050044,-0.400921|H,0,-3.46087,-0.845783,1.32387|H,0,-3.955783,0.53891,
 0.343389||Version=EM64W-G16RevA.03|State=2-A|HF=-460.7787086|S2=0.7795
 86|S2-1=0.|S2A=0.750516|RMSD=4.462e-009|Dipole=-0.3468372,0.824221,-0.
 1030795|Quadrupole=-0.0656408,0.9359138,-0.870273,2.6625556,-2.0221363
 ,-0.4763739|PG=C01 [X(C8H9O2)]||@


 LAWS OF PROGRAMMING DEFINITION:  A WORKING PROGRAM
                                  IS ONE THAT HAS
                                  ONLY UNOBSERVED
                                  BUGS.
 Job cpu time:       0 days  0 hours  0 minutes 42.0 seconds.
 Elapsed time:       0 days  0 hours  0 minutes 41.0 seconds.
 File lengths (MBytes):  RWF=     57 Int=      0 D2E=      0 Chk=      5 Scr=      1
 Normal termination of Gaussian 16 at Tue Dec 02 12:10:01 2025.
