 Generated by Multiwfn (http://sobereva.com/multiwfn)
GAUSSIAN             37 MOL ORBITALS    316 PRIMITIVES       19 NUCLEI
  C    1    (CENTRE  1)   3.47578443 -0.05877184  0.03344637  CHARGE =  6.0
  C    2    (CENTRE  2)   1.82560151  2.04921547  0.07566852  CHARGE =  6.0
  C    3    (CENTRE  3)  -0.73817286  1.74250491  0.01591727  CHARGE =  6.0
  C    4    (CENTRE  4)  -1.89501551 -0.79460001  0.08200477  CHARGE =  6.0
  C    5    (CENTRE  5)  -0.13993956 -2.90889899 -0.22771945  CHARGE =  6.0
  C    6    (CENTRE  6)   2.41450143 -2.50806874 -0.18626831  CHARGE =  6.0
  H    7    (CENTRE  7)  -0.93123560 -4.78857569 -0.40600755  CHARGE =  1.0
  O    8    (CENTRE  8)  -4.36505006 -0.86804086 -1.31307420  CHARGE =  8.0
  O    9    (CENTRE  9)  -2.33590263  3.74375673 -0.11247640  CHARGE =  8.0
  H   10    (CENTRE 10)   2.57498341  3.95683554  0.06344388  CHARGE =  1.0
  C   11    (CENTRE 11)  -4.37835179 -1.15353880  1.36312003  CHARGE =  6.0
  H   12    (CENTRE 12)  -4.85454733 -3.03218743  2.05017720  CHARGE =  1.0
  H   13    (CENTRE 13)  -3.88816514  3.11213251 -0.85900325  CHARGE =  1.0
  H   14    (CENTRE 14)  -5.19087383  0.40456860  2.43275226  CHARGE =  1.0
  H   15    (CENTRE 15)   3.67787245 -4.11653347 -0.33789049  CHARGE =  1.0
  C   16    (CENTRE 16)   6.28831289  0.32439707  0.15558126  CHARGE =  6.0
  H   17    (CENTRE 17)   6.90577308  1.81989242 -1.13358235  CHARGE =  1.0
  H   18    (CENTRE 18)   6.88985986  0.88614283  2.05846743  CHARGE =  1.0
  H   19    (CENTRE 19)   7.30763146 -1.40143671 -0.33445496  CHARGE =  1.0
CENTRE ASSIGNMENTS    1  1  1  1  1  1  1  1  1  1  1  1  1  1  1  1  1  1  1  1
CENTRE ASSIGNMENTS    1  1  1  1  1  1  1  1  2  2  2  2  2  2  2  2  2  2  2  2
CENTRE ASSIGNMENTS    2  2  2  2  2  2  2  2  2  2  2  2  2  2  2  2  3  3  3  3
CENTRE ASSIGNMENTS    3  3  3  3  3  3  3  3  3  3  3  3  3  3  3  3  3  3  3  3
CENTRE ASSIGNMENTS    3  3  3  3  4  4  4  4  4  4  4  4  4  4  4  4  4  4  4  4
CENTRE ASSIGNMENTS    4  4  4  4  4  4  4  4  4  4  4  4  5  5  5  5  5  5  5  5
CENTRE ASSIGNMENTS    5  5  5  5  5  5  5  5  5  5  5  5  5  5  5  5  5  5  5  5
CENTRE ASSIGNMENTS    6  6  6  6  6  6  6  6  6  6  6  6  6  6  6  6  6  6  6  6
CENTRE ASSIGNMENTS    6  6  6  6  6  6  6  6  7  7  7  7  8  8  8  8  8  8  8  8
CENTRE ASSIGNMENTS    8  8  8  8  8  8  8  8  8  8  8  8  8  8  8  8  8  8  8  8
CENTRE ASSIGNMENTS    9  9  9  9  9  9  9  9  9  9  9  9  9  9  9  9  9  9  9  9
CENTRE ASSIGNMENTS    9  9  9  9  9  9  9  9 10 10 10 10 11 11 11 11 11 11 11 11
CENTRE ASSIGNMENTS   11 11 11 11 11 11 11 11 11 11 11 11 11 11 11 11 11 11 11 11
CENTRE ASSIGNMENTS   12 12 12 12 13 13 13 13 14 14 14 14 15 15 15 15 16 16 16 16
CENTRE ASSIGNMENTS   16 16 16 16 16 16 16 16 16 16 16 16 16 16 16 16 16 16 16 16
CENTRE ASSIGNMENTS   16 16 16 16 17 17 17 17 18 18 18 18 19 19 19 19
TYPE ASSIGNMENTS      1  1  1  1  1  1  1  1  1  2  2  2  3  3  3  4  4  4  1  2
TYPE ASSIGNMENTS      3  4  5  6  7  8  9 10  1  1  1  1  1  1  1  1  1  2  2  2
TYPE ASSIGNMENTS      3  3  3  4  4  4  1  2  3  4  5  6  7  8  9 10  1  1  1  1
TYPE ASSIGNMENTS      1  1  1  1  1  2  2  2  3  3  3  4  4  4  1  2  3  4  5  6
TYPE ASSIGNMENTS      7  8  9 10  1  1  1  1  1  1  1  1  1  2  2  2  3  3  3  4
TYPE ASSIGNMENTS      4  4  1  2  3  4  5  6  7  8  9 10  1  1  1  1  1  1  1  1
TYPE ASSIGNMENTS      1  2  2  2  3  3  3  4  4  4  1  2  3  4  5  6  7  8  9 10
TYPE ASSIGNMENTS      1  1  1  1  1  1  1  1  1  2  2  2  3  3  3  4  4  4  1  2
TYPE ASSIGNMENTS      3  4  5  6  7  8  9 10  1  1  1  1  1  1  1  1  1  1  1  1
TYPE ASSIGNMENTS      1  2  2  2  3  3  3  4  4  4  1  2  3  4  5  6  7  8  9 10
TYPE ASSIGNMENTS      1  1  1  1  1  1  1  1  1  2  2  2  3  3  3  4  4  4  1  2
TYPE ASSIGNMENTS      3  4  5  6  7  8  9 10  1  1  1  1  1  1  1  1  1  1  1  1
TYPE ASSIGNMENTS      1  2  2  2  3  3  3  4  4  4  1  2  3  4  5  6  7  8  9 10
TYPE ASSIGNMENTS      1  1  1  1  1  1  1  1  1  1  1  1  1  1  1  1  1  1  1  1
TYPE ASSIGNMENTS      1  1  1  1  1  2  2  2  3  3  3  4  4  4  1  2  3  4  5  6
TYPE ASSIGNMENTS      7  8  9 10  1  1  1  1  1  1  1  1  1  1  1  1
EXPONENTS  0.3047525D+04 0.4573695D+03 0.1039487D+03 0.2921016D+02 0.9286663D+01
EXPONENTS  0.3163927D+01 0.7868272D+01 0.1881289D+01 0.5442493D+00 0.7868272D+01
EXPONENTS  0.1881289D+01 0.5442493D+00 0.7868272D+01 0.1881289D+01 0.5442493D+00
EXPONENTS  0.7868272D+01 0.1881289D+01 0.5442493D+00 0.1687145D+00 0.1687145D+00
EXPONENTS  0.1687145D+00 0.1687145D+00 0.8000000D+00 0.8000000D+00 0.8000000D+00
EXPONENTS  0.8000000D+00 0.8000000D+00 0.8000000D+00 0.3047525D+04 0.4573695D+03
EXPONENTS  0.1039487D+03 0.2921016D+02 0.9286663D+01 0.3163927D+01 0.7868272D+01
EXPONENTS  0.1881289D+01 0.5442493D+00 0.7868272D+01 0.1881289D+01 0.5442493D+00
EXPONENTS  0.7868272D+01 0.1881289D+01 0.5442493D+00 0.7868272D+01 0.1881289D+01
EXPONENTS  0.5442493D+00 0.1687145D+00 0.1687145D+00 0.1687145D+00 0.1687145D+00
EXPONENTS  0.8000000D+00 0.8000000D+00 0.8000000D+00 0.8000000D+00 0.8000000D+00
EXPONENTS  0.8000000D+00 0.3047525D+04 0.4573695D+03 0.1039487D+03 0.2921016D+02
EXPONENTS  0.9286663D+01 0.3163927D+01 0.7868272D+01 0.1881289D+01 0.5442493D+00
EXPONENTS  0.7868272D+01 0.1881289D+01 0.5442493D+00 0.7868272D+01 0.1881289D+01
EXPONENTS  0.5442493D+00 0.7868272D+01 0.1881289D+01 0.5442493D+00 0.1687145D+00
EXPONENTS  0.1687145D+00 0.1687145D+00 0.1687145D+00 0.8000000D+00 0.8000000D+00
EXPONENTS  0.8000000D+00 0.8000000D+00 0.8000000D+00 0.8000000D+00 0.3047525D+04
EXPONENTS  0.4573695D+03 0.1039487D+03 0.2921016D+02 0.9286663D+01 0.3163927D+01
EXPONENTS  0.7868272D+01 0.1881289D+01 0.5442493D+00 0.7868272D+01 0.1881289D+01
EXPONENTS  0.5442493D+00 0.7868272D+01 0.1881289D+01 0.5442493D+00 0.7868272D+01
EXPONENTS  0.1881289D+01 0.5442493D+00 0.1687145D+00 0.1687145D+00 0.1687145D+00
EXPONENTS  0.1687145D+00 0.8000000D+00 0.8000000D+00 0.8000000D+00 0.8000000D+00
EXPONENTS  0.8000000D+00 0.8000000D+00 0.3047525D+04 0.4573695D+03 0.1039487D+03
EXPONENTS  0.2921016D+02 0.9286663D+01 0.3163927D+01 0.7868272D+01 0.1881289D+01
EXPONENTS  0.5442493D+00 0.7868272D+01 0.1881289D+01 0.5442493D+00 0.7868272D+01
EXPONENTS  0.1881289D+01 0.5442493D+00 0.7868272D+01 0.1881289D+01 0.5442493D+00
EXPONENTS  0.1687145D+00 0.1687145D+00 0.1687145D+00 0.1687145D+00 0.8000000D+00
EXPONENTS  0.8000000D+00 0.8000000D+00 0.8000000D+00 0.8000000D+00 0.8000000D+00
EXPONENTS  0.3047525D+04 0.4573695D+03 0.1039487D+03 0.2921016D+02 0.9286663D+01
EXPONENTS  0.3163927D+01 0.7868272D+01 0.1881289D+01 0.5442493D+00 0.7868272D+01
EXPONENTS  0.1881289D+01 0.5442493D+00 0.7868272D+01 0.1881289D+01 0.5442493D+00
EXPONENTS  0.7868272D+01 0.1881289D+01 0.5442493D+00 0.1687145D+00 0.1687145D+00
EXPONENTS  0.1687145D+00 0.1687145D+00 0.8000000D+00 0.8000000D+00 0.8000000D+00
EXPONENTS  0.8000000D+00 0.8000000D+00 0.8000000D+00 0.1873114D+02 0.2825394D+01
EXPONENTS  0.6401217D+00 0.1612778D+00 0.5484672D+04 0.8252349D+03 0.1880470D+03
EXPONENTS  0.5296450D+02 0.1689757D+02 0.5799635D+01 0.1553962D+02 0.3599934D+01
EXPONENTS  0.1013762D+01 0.1553962D+02 0.3599934D+01 0.1013762D+01 0.1553962D+02
EXPONENTS  0.3599934D+01 0.1013762D+01 0.1553962D+02 0.3599934D+01 0.1013762D+01
EXPONENTS  0.2700058D+00 0.2700058D+00 0.2700058D+00 0.2700058D+00 0.8000000D+00
EXPONENTS  0.8000000D+00 0.8000000D+00 0.8000000D+00 0.8000000D+00 0.8000000D+00
EXPONENTS  0.5484672D+04 0.8252349D+03 0.1880470D+03 0.5296450D+02 0.1689757D+02
EXPONENTS  0.5799635D+01 0.1553962D+02 0.3599934D+01 0.1013762D+01 0.1553962D+02
EXPONENTS  0.3599934D+01 0.1013762D+01 0.1553962D+02 0.3599934D+01 0.1013762D+01
EXPONENTS  0.1553962D+02 0.3599934D+01 0.1013762D+01 0.2700058D+00 0.2700058D+00
EXPONENTS  0.2700058D+00 0.2700058D+00 0.8000000D+00 0.8000000D+00 0.8000000D+00
EXPONENTS  0.8000000D+00 0.8000000D+00 0.8000000D+00 0.1873114D+02 0.2825394D+01
EXPONENTS  0.6401217D+00 0.1612778D+00 0.3047525D+04 0.4573695D+03 0.1039487D+03
EXPONENTS  0.2921016D+02 0.9286663D+01 0.3163927D+01 0.7868272D+01 0.1881289D+01
EXPONENTS  0.5442493D+00 0.7868272D+01 0.1881289D+01 0.5442493D+00 0.7868272D+01
EXPONENTS  0.1881289D+01 0.5442493D+00 0.7868272D+01 0.1881289D+01 0.5442493D+00
EXPONENTS  0.1687145D+00 0.1687145D+00 0.1687145D+00 0.1687145D+00 0.8000000D+00
EXPONENTS  0.8000000D+00 0.8000000D+00 0.8000000D+00 0.8000000D+00 0.8000000D+00
EXPONENTS  0.1873114D+02 0.2825394D+01 0.6401217D+00 0.1612778D+00 0.1873114D+02
EXPONENTS  0.2825394D+01 0.6401217D+00 0.1612778D+00 0.1873114D+02 0.2825394D+01
EXPONENTS  0.6401217D+00 0.1612778D+00 0.1873114D+02 0.2825394D+01 0.6401217D+00
EXPONENTS  0.1612778D+00 0.3047525D+04 0.4573695D+03 0.1039487D+03 0.2921016D+02
EXPONENTS  0.9286663D+01 0.3163927D+01 0.7868272D+01 0.1881289D+01 0.5442493D+00
EXPONENTS  0.7868272D+01 0.1881289D+01 0.5442493D+00 0.7868272D+01 0.1881289D+01
EXPONENTS  0.5442493D+00 0.7868272D+01 0.1881289D+01 0.5442493D+00 0.1687145D+00
EXPONENTS  0.1687145D+00 0.1687145D+00 0.1687145D+00 0.8000000D+00 0.8000000D+00
EXPONENTS  0.8000000D+00 0.8000000D+00 0.8000000D+00 0.8000000D+00 0.1873114D+02
EXPONENTS  0.2825394D+01 0.6401217D+00 0.1612778D+00 0.1873114D+02 0.2825394D+01
EXPONENTS  0.6401217D+00 0.1612778D+00 0.1873114D+02 0.2825394D+01 0.6401217D+00
EXPONENTS  0.1612778D+00
MO    1     MO 0.0        OCC NO =    2.0000000  ORB. ENERGY =  -18.988862
  0.18200079D-05  0.33575592D-05  0.54201415D-05  0.70554138D-05  0.60203974D-05
  0.20786985D-05  0.44155833D-05  0.20351383D-05 -0.57067403D-05 -0.80538249D-04
 -0.61751621D-04 -0.30818387D-04  0.44377828D-04  0.34026103D-04  0.16981410D-04
 -0.85710223D-06 -0.65717162D-06 -0.32797470D-06  0.25330978D-03 -0.44707068D-04
  0.24818538D-04  0.34478161D-07  0.21168024D-04  0.35355816D-04  0.26614299D-04
 -0.13809063D-04 -0.60381338D-06  0.49313552D-05  0.75250845D-05  0.13882311D-04
  0.22410355D-04  0.29171624D-04  0.24892199D-04  0.85946782D-05 -0.63583099D-04
 -0.29305392D-04  0.82175378D-04 -0.11682162D-04 -0.89571407D-05 -0.44702410D-05
 -0.21795211D-04 -0.16711185D-04 -0.83400527D-05 -0.84346621D-05 -0.64671639D-05
 -0.32275680D-05 -0.26982666D-03  0.47698247D-04  0.27930356D-03  0.75908705D-05
 -0.77794151D-04 -0.53299265D-04  0.38536409D-04 -0.20704157D-04 -0.17414530D-04
 -0.76082366D-05 -0.29417929D-04 -0.54270335D-04 -0.87609148D-04 -0.11404108D-03
 -0.97311460D-04 -0.33599309D-04 -0.44712062D-04 -0.20607748D-04  0.57786278D-04
 -0.30404182D-03 -0.23311998D-03 -0.11634321D-03  0.47747611D-03  0.36609840D-03
  0.18270876D-03  0.47409606D-05  0.36350679D-05  0.18141536D-05  0.61596779D-04
  0.31972124D-03 -0.65794567D-03  0.73120379D-05 -0.74293707D-04 -0.12087909D-04
 -0.11323829D-03  0.96612334D-04  0.51751989D-05  0.17826106D-04  0.58418540D-05
  0.10777080D-04  0.17397548D-04  0.22646439D-04  0.19324247D-04  0.66721982D-05
 -0.57978640D-04 -0.26722302D-04  0.74932124D-04  0.60556969D-04  0.46431243D-04
  0.23172444D-04 -0.70522356D-05 -0.54072070D-05 -0.26985752D-05 -0.26201480D-04
 -0.20089633D-04 -0.10026135D-04 -0.32951787D-03 -0.37643334D-03 -0.15811495D-03
  0.33450589D-04 -0.32261583D-04 -0.13336571D-03  0.50912522D-04 -0.51633818D-04
  0.31606912D-04  0.58811486D-05  0.16508658D-06  0.30455250D-06  0.49164216D-06
  0.63997202D-06  0.54608928D-06  0.18855151D-06  0.58036936D-05  0.26749171D-05
 -0.75007467D-05 -0.42162172D-04 -0.32327279D-04 -0.16133578D-04  0.67585232D-04
  0.51820069D-04  0.25861846D-04  0.35145940D-05  0.26947678D-05  0.13448780D-05
  0.22738277D-03  0.95888860D-04  0.10053339D-03  0.10075857D-04  0.10269922D-04
  0.21891529D-04  0.19467492D-04 -0.27556781D-04  0.69747829D-05  0.16920000D-04
  0.77355805D-05  0.14270636D-04  0.23037231D-04  0.29987629D-04  0.25588498D-04
  0.88350936D-05 -0.29860921D-04 -0.13762871D-04  0.38592527D-04 -0.78717044D-05
 -0.60355237D-05 -0.30121493D-05  0.30697459D-04  0.23536864D-04  0.11746545D-04
 -0.23412830D-05 -0.17951473D-05 -0.89590431D-06 -0.20714672D-03  0.79263589D-04
 -0.49121932D-04 -0.18353979D-05 -0.14444453D-04  0.88408955D-05  0.39513875D-04
 -0.37312462D-04 -0.77101330D-05  0.20638313D-05  0.82399634D-05  0.13976537D-04
  0.15911794D-04  0.33723299D-04  0.83075990D-05  0.15290417D-04  0.24742781D-04
  0.32525078D-04  0.27896571D-04  0.95383113D-05  0.86076963D-06  0.38407373D-06
 -0.11341749D-05  0.22086486D-04  0.17016447D-04  0.74711366D-05 -0.71832572D-04
 -0.55343124D-04 -0.24298612D-04  0.51597861D-04  0.39753370D-04  0.17453871D-04
 -0.59695016D-04 -0.45774848D-04  0.57482457D-04 -0.41633692D-04 -0.28625439D-04
  0.33362313D-05 -0.51251675D-04  0.57170896D-04 -0.74992919D-04 -0.42338839D-05
  0.82562545D+00  0.15195916D+01  0.24589860D+01  0.32324059D+01  0.27724158D+01
  0.94793604D+00 -0.15809448D-01 -0.70541450D-02  0.20830985D-01 -0.91392003D-03
 -0.70412611D-03 -0.30914929D-03 -0.27373284D-02 -0.21089639D-02 -0.92594876D-03
 -0.91468981D-03 -0.70471919D-03 -0.30940968D-03  0.38532180D-02  0.26980034D-03
 -0.23641347D-03  0.30269071D-04 -0.91866168D-02 -0.92304167D-02 -0.92218964D-02
 -0.14474645D-03 -0.98131980D-05 -0.37286067D-04 -0.91003632D-05 -0.15435938D-04
 -0.17573270D-04 -0.12523661D-03 -0.15386170D-05 -0.28384479D-05 -0.45821349D-05
 -0.59645782D-05 -0.50895854D-05 -0.17573115D-05  0.10980364D-04  0.50608396D-05
 -0.14191122D-04 -0.46405940D-04 -0.35581131D-04 -0.17757478D-04  0.55100277D-05
  0.42247397D-05  0.21084412D-05 -0.22892825D-04 -0.17552766D-04 -0.87600605D-05
 -0.15254369D-03 -0.55641557D-04  0.24679738D-04  0.43770384D-04 -0.15751781D-04
  0.68956911D-05  0.22648863D-04  0.56981223D-04  0.52238398D-04 -0.23252966D-05
  0.47556443D-05  0.80664728D-05  0.91833942D-05  0.48539920D-05  0.85293819D-04
  0.14467446D-03  0.16470676D-03 -0.20363986D-03  0.49550398D-05  0.84046853D-05
  0.95684372D-05 -0.22578631D-04 -0.22343955D-05 -0.37899577D-05 -0.43147328D-05
 -0.24272315D-04  0.59841694D-05  0.11039624D-04  0.17821376D-04  0.23198137D-04
  0.19795012D-04  0.68347420D-05 -0.21023438D-04 -0.96896835D-05  0.27170884D-04
  0.57292060D-05  0.43927918D-05  0.21923110D-05  0.15491305D-05  0.11877750D-05
  0.59278298D-06  0.11828276D-05  0.90691717D-06  0.45261523D-06 -0.54258683D-04
  0.19253842D-04 -0.19166513D-05  0.23888948D-06 -0.43837212D-05  0.21378830D-04
  0.21898433D-04 -0.41461637D-05 -0.26400939D-05  0.44079411D-06  0.22374212D-05
  0.37950898D-05  0.43205756D-05  0.60147354D-05  0.27548796D-05  0.46727972D-05
  0.53198144D-05  0.44540339D-05  0.29982665D-05  0.50856274D-05  0.57898070D-05
 -0.19694774D-06
MO    2     MO 0.0        OCC NO =    2.0000000  ORB. ENERGY =  -18.963921
 -0.25780186D-05 -0.47559410D-05 -0.76775634D-05 -0.99939063D-05 -0.85278183D-05
 -0.29444507D-05  0.10421245D-04  0.48031423D-05 -0.13468512D-04  0.12264757D-04
  0.94038380D-05  0.46931742D-05  0.21718000D-07  0.16651985D-07  0.83105075D-08
  0.90012485D-05  0.69015864D-05  0.34443753D-05  0.76728212D-04 -0.57443624D-04
 -0.56377557D-05 -0.23990470D-05 -0.34875204D-06  0.20697686D-05 -0.95436875D-05
 -0.52385982D-05 -0.95626530D-06 -0.88822476D-06  0.41000908D-05  0.75638670D-05
  0.12210427D-04  0.15894347D-04  0.13562675D-04  0.46828659D-05 -0.20273820D-04
 -0.93441849D-05  0.26202070D-04  0.12284226D-04  0.94187656D-05  0.47006242D-05
  0.44059660D-05  0.33782153D-05  0.16859662D-05  0.26392274D-04  0.20235922D-04
  0.10099143D-04 -0.15854936D-03  0.46399607D-04  0.40174971D-04 -0.31457147D-06
 -0.64331775D-05 -0.49707992D-05  0.10222780D-04 -0.82799243D-05 -0.18562137D-04
  0.82270684D-05  0.20335762D-05  0.37515509D-05  0.60561664D-05  0.78833293D-05
  0.67268591D-05  0.23226228D-05 -0.17042803D-04 -0.78550124D-05  0.22026275D-04
 -0.75952405D-04 -0.58235487D-04 -0.29063589D-04 -0.13990983D-04 -0.10727399D-04
 -0.53537238D-05 -0.10126693D-04 -0.77645059D-05 -0.38750326D-05  0.14908350D-03
  0.73822855D-04 -0.48388082D-06 -0.13563748D-04 -0.35571351D-05  0.22152545D-04
  0.19096964D-05 -0.94397045D-04 -0.62679550D-04  0.30001113D-04  0.11807482D-04
  0.21782498D-04  0.35163706D-04  0.45772697D-04  0.39057925D-04  0.13485763D-04
 -0.52544600D-04 -0.24217758D-04  0.67909122D-04 -0.24637855D-03 -0.18890744D-03
 -0.94278053D-04 -0.13241202D-04 -0.10152514D-04 -0.50668161D-05 -0.20956993D-03
 -0.16068493D-03 -0.80193042D-04 -0.30375047D-03  0.82164282D-05  0.19603070D-04
  0.10610943D-03  0.32118560D-03  0.92863932D-04  0.19605172D-03  0.35957047D-04
  0.28379573D-03  0.46926416D-05  0.62780802D-06  0.11581832D-05  0.18696668D-05
  0.24337507D-05  0.20767238D-05  0.71704284D-06 -0.34589058D-05 -0.15942065D-05
  0.44703215D-05 -0.67068323D-04 -0.51423736D-04 -0.25664048D-04  0.30094709D-04
  0.23074714D-04  0.11515899D-04 -0.29883568D-04 -0.22912825D-04 -0.11435105D-04
  0.14780317D-03  0.28406985D-04  0.59282449D-04 -0.14185330D-05  0.24690715D-04
  0.70944812D-05 -0.39338314D-06  0.31022680D-04 -0.28056827D-04 -0.66216942D-04
  0.31241558D-05  0.57634575D-05  0.93040074D-05  0.12111053D-04  0.10334384D-04
  0.35682143D-05 -0.16001354D-04 -0.73750093D-05  0.20680296D-04  0.19649170D-04
  0.15065737D-04  0.75188588D-05 -0.65554041D-05 -0.50262681D-05 -0.25084601D-05
  0.27984993D-04  0.21457117D-04  0.10708605D-04 -0.11949710D-03  0.44367838D-04
 -0.35201878D-04 -0.90306953D-05 -0.19578621D-04  0.30073213D-05  0.67648586D-05
  0.66201249D-05 -0.28079573D-05 -0.14805467D-04  0.81391539D-05  0.13805546D-04
  0.15717126D-04  0.15918703D-04  0.82574915D+00  0.15198192D+01  0.24593544D+01
  0.32328902D+01  0.27728311D+01  0.94807806D+00 -0.16092785D-01 -0.71805695D-02
  0.21204318D-01  0.93465244D-03  0.72009931D-03  0.31616239D-03 -0.10047292D-03
 -0.77408971D-04 -0.33986708D-04  0.27771468D-02  0.21396419D-02  0.93941805D-03
  0.29474459D-02  0.80588372D-04  0.23095458D-04  0.69308612D-04 -0.88200493D-02
 -0.87429067D-02 -0.89190342D-02  0.40319424D-05 -0.11595201D-03  0.22910055D-04
 -0.28911888D-04 -0.53213308D-04 -0.86109177D-04 -0.11319292D-03 -0.97084913D-04
 -0.33194981D-04  0.49239888D-04  0.21970742D-04 -0.64879896D-04  0.10952579D-03
  0.84383714D-04  0.37048996D-04 -0.62003335D-04 -0.47770227D-04 -0.20973703D-04
 -0.19328329D-04 -0.14891435D-04 -0.65381422D-05  0.13667792D-03 -0.90463688D-04
  0.85790018D-06 -0.13140206D-04 -0.50448342D-04 -0.94432722D-04 -0.45517502D-04
  0.85798033D-04  0.30845923D-04 -0.96215872D-05 -0.15350798D-06 -0.26037859D-06
 -0.29643182D-06 -0.11873888D-04 -0.13302188D-05 -0.24539940D-05 -0.39615072D-05
 -0.51567054D-05 -0.44002260D-05 -0.15192923D-05 -0.11157441D-03 -0.51424544D-04
  0.14419979D-03 -0.47517540D-04 -0.36433436D-04 -0.18182838D-04  0.12977166D-04
  0.99500676D-05  0.49657811D-05 -0.39123587D-03 -0.29997485D-03 -0.14970848D-03
 -0.26842979D-03  0.24199504D-04 -0.77427326D-05  0.10520706D-03 -0.64709430D-05
 -0.15769771D-04  0.20173505D-03 -0.15897218D-04  0.83079204D-04 -0.17310349D-04
  0.16507256D-04  0.27999431D-04  0.31876362D-04  0.13670018D-04 -0.10599407D-04
 -0.17978600D-04 -0.20468001D-04 -0.10414276D-03  0.11200505D-04  0.18998176D-04
  0.21628752D-04  0.22626794D-04 -0.16627535D-05 -0.28203446D-05 -0.32108626D-05
 -0.14374264D-04  0.44619419D-06  0.82314115D-06  0.13288050D-05  0.17297093D-05
  0.14759641D-05  0.50961494D-06 -0.56999871D-06 -0.26271189D-06  0.73667155D-06
 -0.11248069D-04 -0.86243058D-05 -0.43041331D-05  0.18240442D-05  0.13985614D-05
  0.69798016D-06 -0.48751864D-05 -0.37379837D-05 -0.18655158D-05  0.23922782D-04
 -0.55474618D-05 -0.41334778D-05  0.15866526D-05  0.23854130D-05  0.13132206D-05
  0.45196090D-05  0.15684639D-05 -0.41771361D-06  0.30500272D-05  0.47933779D-06
  0.81304761D-06  0.92562597D-06  0.86138723D-06 -0.70879805D-06 -0.12022557D-05
 -0.13687256D-05 -0.80032011D-06 -0.34173359D-06 -0.57964485D-06 -0.65990518D-06
 -0.32763983D-05
MO    3     MO 0.0        OCC NO =    2.0000000  ORB. ENERGY =  -10.058022
 -0.25077660D-04 -0.46263387D-04 -0.74683451D-04 -0.97215662D-04 -0.82954301D-04
 -0.28642127D-04  0.50810045D-04  0.23418303D-04 -0.65667367D-04 -0.23597850D-04
 -0.18093334D-04 -0.90298419D-05 -0.17914024D-04 -0.13735338D-04 -0.68548961D-05
 -0.15983544D-05 -0.12255168D-05 -0.61161875D-06  0.50124677D-03 -0.14904480D-03
  0.26242159D-04 -0.20518584D-04 -0.19098059D-04  0.14278370D-05 -0.53925902D-04
  0.31061237D-05  0.91978876D-05  0.13910316D-04  0.16306862D-04  0.30082977D-04
  0.48563252D-04  0.63214925D-04  0.53941410D-04  0.18624673D-04  0.24137701D-04
  0.11125044D-04 -0.31195786D-04 -0.50842982D-04 -0.38983174D-04 -0.19455336D-04
 -0.65493454D-04 -0.50216227D-04 -0.25061417D-04 -0.26774865D-04 -0.20529268D-04
 -0.10245543D-04  0.37713070D-03 -0.30885474D-03  0.28523123D-03  0.15311554D-04
  0.13993559D-03  0.25430416D-04 -0.35576552D-05 -0.96475547D-05 -0.18278756D-05
 -0.32902884D-04  0.30134147D-02  0.55591617D-02  0.89742107D-02  0.11681756D-01
  0.99680634D-02  0.34417328D-02  0.56540439D-04  0.26059437D-04 -0.73073381D-04
  0.25262591D-03  0.19369752D-03  0.96668639D-04  0.35193966D-03  0.26984501D-03
  0.13467157D-03  0.38789876D-04  0.29741617D-04  0.14843151D-04  0.98352130D-03
 -0.88600199D-03 -0.62256853D-03 -0.39781552D-04 -0.25620054D-03 -0.51946736D-03
 -0.25495290D-03 -0.47726996D-04  0.53796257D-04 -0.66117649D-06  0.53267478D+00
  0.98268097D+00  0.15863518D+01  0.20649587D+01  0.17620330D+01  0.60838764D+00
 -0.20089459D-01 -0.92592133D-02  0.25963801D-01 -0.18109956D-02 -0.13885565D-02
 -0.69298703D-03  0.10848387D-03  0.83178549D-04  0.41511925D-04 -0.35312952D-03
 -0.27075732D-03 -0.13512688D-03 -0.51764085D-02  0.90196580D-03 -0.34753903D-03
  0.47711430D-04 -0.94503707D-02 -0.94451735D-02 -0.95849839D-02 -0.12307872D-03
 -0.23667366D-03  0.43280943D-04  0.89855776D-03  0.16576636D-02  0.26759830D-02
  0.34833348D-02  0.29723359D-02  0.10262762D-02  0.11882900D-03  0.54768177D-04
 -0.15357569D-03  0.27501884D-03  0.21086700D-03  0.10523741D-03 -0.31747963D-03
 -0.24342324D-03 -0.12148526D-03  0.18317137D-04  0.14044419D-04  0.70091495D-05
  0.67475357D-03 -0.41550790D-03  0.20993293D-03 -0.31005777D-04 -0.28084109D-03
 -0.44946736D-03 -0.20817734D-03  0.22028526D-03  0.10414291D-03 -0.10317914D-03
  0.14132546D-04  0.26071788D-04  0.42087950D-04  0.54786005D-04  0.46748998D-04
  0.16141305D-04 -0.12872634D-04 -0.59329852D-05  0.16636710D-04 -0.40845436D-04
 -0.31317690D-04 -0.15629722D-04  0.61333565D-04  0.47026687D-04  0.23469613D-04
 -0.29002147D-04 -0.22237007D-04 -0.11097825D-04 -0.30525625D-04 -0.65973696D-05
 -0.23873358D-03  0.74393657D-05  0.10349178D-03  0.24094698D-04  0.31277909D-04
  0.16932944D-04 -0.31525904D-04  0.15341865D-04 -0.36866481D-04 -0.62532530D-04
 -0.71191075D-04 -0.70007288D-04 -0.12167417D-03 -0.22394543D-03 -0.36238598D-03
 -0.47636652D-03 -0.40857680D-03 -0.13969935D-03  0.28533712D-03  0.12731687D-03
 -0.37596842D-03 -0.42137074D-03 -0.32464344D-03 -0.14253595D-03  0.52332087D-04
  0.40319052D-04  0.17702235D-04  0.39254866D-03  0.30243758D-03  0.13278639D-03
  0.12868987D-02  0.61628783D-03  0.50036030D-04 -0.10987300D-03 -0.48896209D-03
 -0.23327536D-03 -0.61694959D-03  0.13411222D-04 -0.46957496D-03  0.43443069D-04
  0.10925171D-04  0.20108146D-04  0.32538777D-04  0.42773133D-04  0.36686267D-04
  0.12543658D-04 -0.19317082D-04 -0.86192444D-05  0.25452744D-04 -0.82677172D-04
 -0.63698304D-04 -0.27966986D-04  0.82858277D-04  0.63837835D-04  0.28028248D-04
  0.18325985D-04  0.14119183D-04  0.61990819D-05 -0.29130528D-03  0.88592754D-04
  0.15950897D-03  0.28141771D-05  0.17689513D-03  0.51819230D-04 -0.10922785D-03
  0.26200051D-05  0.19465496D-04 -0.14917350D-04 -0.35077685D-04 -0.59498392D-04
 -0.67736817D-04 -0.77300613D-04  0.82631288D-02  0.15243859D-01  0.24608315D-01
  0.32032715D-01  0.27333573D-01  0.94376260D-02 -0.19501798D-03 -0.89883607D-04
  0.25204302D-03  0.18141424D-03  0.13909694D-03  0.69419119D-04  0.36744125D-04
  0.28173065D-04  0.14060334D-04 -0.12937872D-03 -0.99199399D-04 -0.49507453D-04
  0.16082126D-02  0.43822271D-03  0.15617368D-03 -0.21167901D-03 -0.54963404D-03
 -0.14471596D-03 -0.35572076D-03 -0.19582581D-04  0.35151584D-03  0.67620407D-04
 -0.47931602D-04 -0.81301069D-04 -0.92558393D-04 -0.89449673D-05  0.22416415D-04
  0.38022482D-04  0.43287252D-04 -0.31991488D-05 -0.65069876D-04 -0.11037083D-03
 -0.12565328D-03 -0.96404204D-04 -0.24008436D-04 -0.40722852D-04 -0.46361528D-04
 -0.68759016D-04 -0.96608119D-05 -0.17822312D-04 -0.28770737D-04 -0.37450951D-04
 -0.31956964D-04 -0.11033972D-04  0.16009842D-04  0.73789214D-05 -0.20691266D-04
  0.40217147D-04  0.30835957D-04  0.15389304D-04 -0.31722653D-04 -0.24322918D-04
 -0.12138841D-04 -0.75836455D-05 -0.58146584D-05 -0.29019221D-05  0.38021485D-04
 -0.27446508D-04  0.17967280D-04  0.11303122D-04 -0.14707974D-04 -0.49310064D-05
 -0.26056435D-04  0.13217512D-06 -0.22562834D-05 -0.50821335D-05 -0.49142422D-05
 -0.83354850D-05 -0.94896550D-05  0.56528922D-05 -0.25738198D-05 -0.43656856D-05
 -0.49701787D-05 -0.90376155D-05  0.46747755D-06  0.79293041D-06  0.90272325D-06
  0.27822318D-04
MO    4     MO 0.0        OCC NO =    2.0000000  ORB. ENERGY =  -10.049023
  0.10432372D-04  0.19245690D-04  0.31068510D-04  0.40441969D-04  0.34509206D-04
  0.11915199D-04 -0.28331198D-04 -0.13057823D-04  0.36615499D-04 -0.34404271D-04
 -0.26379013D-04 -0.13164976D-04 -0.86117424D-05 -0.66029379D-05 -0.32953288D-05
  0.26036210D-04  0.19962914D-04  0.99628933D-05 -0.21036520D-03  0.16336024D-03
  0.34727529D-04 -0.15416175D-06  0.11618468D-05 -0.10946853D-04  0.16922891D-04
  0.62168951D-05 -0.87499385D-05 -0.52488102D-05 -0.18477015D-04 -0.34086485D-04
 -0.55026155D-04 -0.71627704D-04 -0.61120050D-04 -0.21103284D-04  0.75203925D-04
  0.34661420D-04 -0.97194240D-04 -0.58366752D-04 -0.44751924D-04 -0.22334346D-04
 -0.31687225D-04 -0.24295755D-04 -0.12125284D-04  0.28196020D-04  0.21618919D-04
  0.10789356D-04  0.59962498D-03 -0.22225973D-03 -0.10916977D-03 -0.10198646D-04
  0.79440142D-04  0.40434371D-05 -0.57970480D-04  0.22722644D-04 -0.37810311D-05
  0.23777827D-04 -0.14486489D-03 -0.26724743D-03 -0.43142021D-03 -0.56158093D-03
 -0.47919802D-03 -0.16545556D-03  0.19982809D-04  0.92100584D-05 -0.25825965D-04
  0.20911338D-03  0.16033487D-03  0.80018339D-04  0.79554279D-04  0.60997175D-04
  0.30441865D-04 -0.30846413D-04 -0.23651073D-04 -0.11803543D-04 -0.32044990D-03
 -0.39960609D-03 -0.29358780D-04 -0.32721454D-04 -0.87567496D-04  0.43677722D-04
 -0.48825253D-04  0.31480712D-04 -0.58967022D-04  0.69107948D-04 -0.83862306D-02
 -0.15470958D-01 -0.24974923D-01 -0.32509929D-01 -0.27740781D-01 -0.95782251D-02
  0.39089687D-03  0.18016401D-03 -0.50519869D-03  0.49819754D-04  0.38198627D-04
  0.19063792D-04  0.67698490D-04  0.51906909D-04  0.25905185D-04 -0.30551015D-03
 -0.23424581D-03 -0.11690507D-03  0.90614445D-03 -0.87139663D-04 -0.17962821D-03
  0.19410479D-03 -0.22140043D-03  0.32003281D-05 -0.14301220D-04 -0.13115661D-03
  0.34279416D-03  0.48756307D-04 -0.36524243D-04 -0.67380096D-04 -0.10877237D-03
 -0.14158930D-03 -0.12081841D-03 -0.41715693D-04 -0.35135458D-05 -0.16193900D-05
  0.45409387D-05  0.17679412D-03  0.13555452D-03  0.67651204D-04 -0.27616023D-04
 -0.21174215D-04 -0.10567417D-04 -0.50325093D-04 -0.38586090D-04 -0.19257163D-04
 -0.41530008D-03 -0.14706688D-03 -0.15573755D-03 -0.41052894D-04 -0.10717204D-03
  0.30186393D-04 -0.51141287D-04 -0.46069837D-04 -0.33968201D-04 -0.11073101D-03
 -0.15459697D-04 -0.28520122D-04 -0.46040320D-04 -0.59930817D-04 -0.51139075D-04
 -0.17657094D-04  0.60282205D-04  0.27784013D-04 -0.77909273D-04 -0.46221114D-04
 -0.35439419D-04 -0.17686754D-04  0.59392421D-05  0.45538341D-05  0.22726824D-05
  0.33813000D-04  0.25925664D-04  0.12938723D-04  0.42368345D-03 -0.16156915D-03
  0.10116544D-03  0.47106934D-05  0.68622341D-04  0.81301648D-06 -0.49713565D-04
  0.39936066D-05 -0.10299348D-05 -0.15032295D-04 -0.18233578D-04 -0.30927600D-04
 -0.35209979D-04 -0.67923489D-04 -0.50026641D-04 -0.92075726D-04 -0.14899590D-03
 -0.19585929D-03 -0.16798737D-03 -0.57437736D-04 -0.29943300D-05 -0.13360642D-05
  0.39454155D-05  0.50263683D-03  0.38725458D-03  0.17002562D-03  0.16018605D-03
  0.12341472D-03  0.54185709D-04 -0.33199906D-03 -0.25578738D-03 -0.11230444D-03
  0.40986787D-03 -0.24473666D-03 -0.37120195D-04 -0.70368807D-05  0.23008816D-04
  0.13275114D-03 -0.74462692D-03  0.28280849D-05 -0.18663969D-03  0.17824348D-03
  0.12562113D-04  0.23120993D-04  0.37414131D-04  0.49181923D-04  0.42183049D-04
  0.14423101D-04 -0.50434218D-04 -0.22503650D-04  0.66453579D-04 -0.27367311D-04
 -0.21085038D-04 -0.92574674D-05  0.10433274D-03  0.80382755D-04  0.35292359D-04
 -0.91733799D-04 -0.70675947D-04 -0.31030547D-04 -0.20342250D-03  0.55570040D-04
  0.54401575D-04  0.29790938D-04  0.90126298D-04  0.16753603D-04 -0.93727964D-05
 -0.32549286D-04 -0.20511498D-04 -0.37630626D-04 -0.38463438D-05 -0.65241270D-05
 -0.74274880D-05  0.38578925D-04  0.53246935D+00  0.98230199D+00  0.15857400D+01
  0.20641623D+01  0.17613534D+01  0.60815301D+00 -0.19800955D-01 -0.91262422D-02
  0.25590936D-01 -0.49613542D-04 -0.38040517D-04 -0.18984884D-04  0.17045009D-03
  0.13069031D-03  0.65223626D-04 -0.13441036D-02 -0.10305734D-02 -0.51432834D-03
 -0.27601021D-02 -0.19387489D-03 -0.60311661D-05  0.17160986D-03 -0.10294728D-01
 -0.10102501D-01 -0.98804574D-02  0.33425651D-04 -0.39899482D-03 -0.98086497D-04
 -0.38741419D-04 -0.65712779D-04 -0.74811676D-04  0.44075105D-03  0.51567435D-05
  0.87468130D-05  0.99579374D-05  0.42874682D-04 -0.41377217D-04 -0.70183592D-04
 -0.79901539D-04  0.40307768D-03  0.23502562D-05  0.39864793D-05  0.45384658D-05
  0.48630591D-04 -0.14271737D-04 -0.26328568D-04 -0.42502473D-04 -0.55325591D-04
 -0.47209427D-04 -0.16300281D-04  0.14385598D-04  0.66303089D-05 -0.18592078D-04
  0.48393421D-04  0.37105006D-04  0.18517998D-04 -0.10499374D-04 -0.80502537D-05
 -0.40176408D-05 -0.15272076D-04 -0.11709659D-04 -0.58439406D-05 -0.46883330D-04
  0.51440001D-05  0.12692550D-04  0.13088419D-04 -0.14604787D-04 -0.20353011D-04
 -0.24866176D-04  0.10229157D-05 -0.89321999D-07  0.15817861D-05 -0.13091942D-05
 -0.22206412D-05 -0.25281215D-05  0.41262069D-05 -0.26905019D-05 -0.45636005D-05