 Entering Link 1 = D:\Gaussian\G16W\l1.exe PID=     42364.
  
 Copyright (c) 1988,1990,1992,1993,1995,1998,2003,2009,2016,
            Gaussian, Inc.  All Rights Reserved.
  
 This is part of the Gaussian(R) 16 program.  It is based on
 the Gaussian(R) 09 system (copyright 2009, Gaussian, Inc.),
 the Gaussian(R) 03 system (copyright 2003, Gaussian, Inc.),
 the Gaussian(R) 98 system (copyright 1998, Gaussian, Inc.),
 the Gaussian(R) 94 system (copyright 1995, Gaussian, Inc.),
 the Gaussian 92(TM) system (copyright 1992, Gaussian, Inc.),
 the Gaussian 90(TM) system (copyright 1990, Gaussian, Inc.),
 the Gaussian 88(TM) system (copyright 1988, Gaussian, Inc.),
 the Gaussian 86(TM) system (copyright 1986, Carnegie Mellon
 University), and the Gaussian 82(TM) system (copyright 1983,
 Carnegie Mellon University). Gaussian is a federally registered
 trademark of Gaussian, Inc.
  
 This software contains proprietary and confidential information,
 including trade secrets, belonging to Gaussian, Inc.
  
 This software is provided under written license and may be
 used, copied, transmitted, or stored only in accord with that
 written license.
  
 The following legend is applicable only to US Government
 contracts under FAR:
  
                    RESTRICTED RIGHTS LEGEND
  
 Use, reproduction and disclosure by the US Government is
 subject to restrictions as set forth in subparagraphs (a)
 and (c) of the Commercial Computer Software - Restricted
 Rights clause in FAR 52.227-19.
  
 Gaussian, Inc.
 340 Quinnipiac St., Bldg. 40, Wallingford CT 06492
  
  
 ---------------------------------------------------------------
 Warning -- This program may not be used in any manner that
 competes with the business of Gaussian, Inc. or will provide
 assistance to any competitor of Gaussian, Inc.  The licensee
 of this program is prohibited from giving any competitor of
 Gaussian, Inc. access to this program.  By using this program,
 the user acknowledges that Gaussian, Inc. is engaged in the
 business of creating and licensing software in the field of
 computational chemistry and represents and warrants to the
 licensee that it is not a competitor of Gaussian, Inc. and that
 it will not use this program in any manner prohibited above.
 ---------------------------------------------------------------
  

 Cite this work as:
 Gaussian 16, Revision A.03,
 M. J. Frisch, G. W. Trucks, H. B. Schlegel, G. E. Scuseria, 
 M. A. Robb, J. R. Cheeseman, G. Scalmani, V. Barone, 
 G. A. Petersson, H. Nakatsuji, X. Li, M. Caricato, A. V. Marenich, 
 J. Bloino, B. G. Janesko, R. Gomperts, B. Mennucci, H. P. Hratchian, 
 J. V. Ortiz, A. F. Izmaylov, J. L. Sonnenberg, D. Williams-Young, 
 F. Ding, F. Lipparini, F. Egidi, J. Goings, B. Peng, A. Petrone, 
 T. Henderson, D. Ranasinghe, V. G. Zakrzewski, J. Gao, N. Rega, 
 G. Zheng, W. Liang, M. Hada, M. Ehara, K. Toyota, R. Fukuda, 
 J. Hasegawa, M. Ishida, T. Nakajima, Y. Honda, O. Kitao, H. Nakai, 
 T. Vreven, K. Throssell, J. A. Montgomery, Jr., J. E. Peralta, 
 F. Ogliaro, M. J. Bearpark, J. J. Heyd, E. N. Brothers, K. N. Kudin, 
 V. N. Staroverov, T. A. Keith, R. Kobayashi, J. Normand, 
 K. Raghavachari, A. P. Rendell, J. C. Burant, S. S. Iyengar, 
 J. Tomasi, M. Cossi, J. M. Millam, M. Klene, C. Adamo, R. Cammi, 
 J. W. Ochterski, R. L. Martin, K. Morokuma, O. Farkas, 
 J. B. Foresman, and D. J. Fox, Gaussian, Inc., Wallingford CT, 2016.
 
 ******************************************
 Gaussian 16:  EM64W-G16RevA.03 17-Dec-2016
                03-Dec-2025 
 ******************************************
 %nprocs=   4
 Will use up to    4 processors via shared memory.
 ------------------------------------
 #P B3LYP/6-31G* SCF=conver=7 out=wfn
 ------------------------------------
 1/38=1,172=1/1;
 2/12=2,17=6,18=5,40=1/2;
 3/5=1,6=6,7=1,11=2,25=1,30=1,74=-5/1,2,3;
 4//1;
 5/5=2,6=7,38=5/2;
 6/7=2,8=2,9=2,10=2,28=1/1;
 99/5=1,6=100,9=1/99;
 Leave Link    1 at Wed Dec 03 17:15:04 2025, MaxMem=           0 cpu:               0.0 elap:               0.1
 (Enter D:\Gaussian\G16W\l101.exe)
 ----------------------------------------------------
 Generated by Multiwfn (http://sobereva.com/multiwfn)
 ----------------------------------------------------
 Symbolic Z-matrix:
 Charge = -1 Multiplicity = 1
 C                     1.83931  -0.0311    0.0177 
 C                     0.96607   1.0844    0.04004 
 C                    -0.39062   0.92209   0.00842 
 C                    -1.0028   -0.42048   0.0434 
 C                    -0.07405  -1.53932  -0.1205 
 C                     1.2777   -1.32721  -0.09857 
 H                    -0.49279  -2.53401  -0.21485 
 O                    -2.30989  -0.45935  -0.69485 
 O                    -1.23611   1.98111  -0.05952 
 H                     1.36262   2.09387   0.03357 
 C                    -2.31692  -0.61043   0.72133 
 H                    -2.56892  -1.60456   1.08491 
 H                    -2.05753   1.64687  -0.45457 
 H                    -2.74689   0.21409   1.28736 
 H                     1.94625  -2.17838  -0.1788 
 C                     3.32763   0.17166   0.08233 
 H                     3.65438   0.96305  -0.59987 
 H                     3.64596   0.46893   1.08929 
 H                     3.86703  -0.74161  -0.17699 
 
 ITRead=  0  0  0  0  0  0  0  0  0  0  0  0  0  0  0  0  0  0  0
 MicOpt= -1 -1 -1 -1 -1 -1 -1 -1 -1 -1 -1 -1 -1 -1 -1 -1 -1 -1 -1
 NAtoms=     19 NQM=       19 NQMF=       0 NMMI=      0 NMMIF=      0
                NMic=       0 NMicF=      0.
                    Isotopes and Nuclear Properties:
 (Nuclear quadrupole moments (NQMom) in fm**2, nuclear magnetic moments (NMagM)
  in nuclear magnetons)

  Atom         1           2           3           4           5           6           7           8           9          10
 IAtWgt=          12          12          12          12          12          12           1          16          16           1
 AtmWgt=  12.0000000  12.0000000  12.0000000  12.0000000  12.0000000  12.0000000   1.0078250  15.9949146  15.9949146   1.0078250
 NucSpn=           0           0           0           0           0           0           1           0           0           1
 AtZEff=   0.0000000   0.0000000   0.0000000   0.0000000   0.0000000   0.0000000   0.0000000   0.0000000   0.0000000   0.0000000
 NQMom=    0.0000000   0.0000000   0.0000000   0.0000000   0.0000000   0.0000000   0.0000000   0.0000000   0.0000000   0.0000000
 NMagM=    0.0000000   0.0000000   0.0000000   0.0000000   0.0000000   0.0000000   2.7928460   0.0000000   0.0000000   2.7928460
 AtZNuc=   6.0000000   6.0000000   6.0000000   6.0000000   6.0000000   6.0000000   1.0000000   8.0000000   8.0000000   1.0000000

  Atom        11          12          13          14          15          16          17          18          19
 IAtWgt=          12           1           1           1           1          12           1           1           1
 AtmWgt=  12.0000000   1.0078250   1.0078250   1.0078250   1.0078250  12.0000000   1.0078250   1.0078250   1.0078250
 NucSpn=           0           1           1           1           1           0           1           1           1
 AtZEff=   0.0000000   0.0000000   0.0000000   0.0000000   0.0000000   0.0000000   0.0000000   0.0000000   0.0000000
 NQMom=    0.0000000   0.0000000   0.0000000   0.0000000   0.0000000   0.0000000   0.0000000   0.0000000   0.0000000
 NMagM=    0.0000000   2.7928460   2.7928460   2.7928460   2.7928460   0.0000000   2.7928460   2.7928460   2.7928460
 AtZNuc=   6.0000000   1.0000000   1.0000000   1.0000000   1.0000000   6.0000000   1.0000000   1.0000000   1.0000000
 Leave Link  101 at Wed Dec 03 17:15:04 2025, MaxMem=   104857600 cpu:               0.0 elap:               0.1
 (Enter D:\Gaussian\G16W\l202.exe)
                          Input orientation:                          
 ---------------------------------------------------------------------
 Center     Atomic      Atomic             Coordinates (Angstroms)
 Number     Number       Type             X           Y           Z
 ---------------------------------------------------------------------
      1          6           0        1.839306   -0.031101    0.017699
      2          6           0        0.966067    1.084398    0.040042
      3          6           0       -0.390624    0.922094    0.008423
      4          6           0       -1.002799   -0.420484    0.043395
      5          6           0       -0.074053   -1.539323   -0.120504
      6          6           0        1.277699   -1.327213   -0.098569
      7          1           0       -0.492789   -2.534005   -0.214850
      8          8           0       -2.309885   -0.459347   -0.694849
      9          8           0       -1.236106    1.981111   -0.059520
     10          1           0        1.362623    2.093867    0.033573
     11          6           0       -2.316924   -0.610426    0.721332
     12          1           0       -2.568916   -1.604564    1.084907
     13          1           0       -2.057528    1.646870   -0.454565
     14          1           0       -2.746892    0.214089    1.287357
     15          1           0        1.946246   -2.178376   -0.178804
     16          6           0        3.327632    0.171663    0.082330
     17          1           0        3.654378    0.963045   -0.599866
     18          1           0        3.645957    0.468926    1.089294
     19          1           0        3.867032   -0.741609   -0.176986
 ---------------------------------------------------------------------
                    Distance matrix (angstroms):
                    1          2          3          4          5
     1  C    0.000000
     2  C    1.416822   0.000000
     3  C    2.425130   1.366731   0.000000
     4  C    2.868770   2.478127   1.475973   0.000000
     5  C    2.440241   2.826931   2.485038   1.463295   0.000000
     6  C    1.417331   2.435610   2.802522   2.458248   1.368468
     7  H    3.428888   3.909741   3.464810   2.189468   1.083344
     8  O    4.231655   3.695277   2.467090   1.501662   2.548561
     9  O    3.676019   2.379826   1.356825   2.415095   3.707768
    10  H    2.177836   1.084586   2.108924   3.452141   3.909968
    11  C    4.254993   3.756942   2.562711   1.490839   2.569437
    12  H    4.800744   4.562715   3.505392   2.222502   2.771572
    13  H    4.268950   3.114986   1.875694   2.373683   3.767970
    14  H    4.765014   4.012393   2.772894   2.234275   3.492935
    15  H    2.158898   3.413845   3.887021   3.440410   2.119763
    16  C    1.503464   2.532166   3.793947   4.370902   3.813145
    17  H    2.159676   2.766085   4.090689   4.900738   4.515842
    18  H    2.159243   2.943050   4.203288   4.847256   4.397175
    19  H    2.157405   3.434676   4.574923   4.885381   4.021404
                    6          7          8          9         10
     6  C    0.000000
     7  H    2.145809   0.000000
     8  O    3.738917   2.799365   0.000000
     9  O    4.155207   4.578528   2.740890   0.000000
    10  H    3.424684   4.992141   4.531756   2.602839   0.000000
    11  C    3.755973   2.811416   1.424234   2.914440   4.617930
    12  H    4.034103   2.619834   2.132170   3.992889   5.499154
    13  H    4.482816   4.470524   2.134847   0.970830   3.483607
    14  H    4.527001   3.858708   2.138605   2.686805   4.689739
    15  H    1.085298   2.465089   4.619092   5.238600   4.317150
    16  C    2.545895   4.690903   5.725712   4.911408   2.749274
    17  H    3.338440   5.438436   6.132263   5.024467   2.632897
    18  H    3.200903   5.277083   6.286248   5.238417   2.994761
    19  H    2.655885   4.714038   6.205011   5.785242   3.788974
                   11         12         13         14         15
    11  C    0.000000
    12  H    1.088116   0.000000
    13  H    2.558399   3.633637   0.000000
    14  H    1.088615   1.838521   2.358469   0.000000
    15  H    4.630694   4.723655   5.544254   5.468003   0.000000
    16  C    5.734196   6.239345   5.609317   6.193039   2.738449
    17  H    6.314889   6.939774   5.754529   6.715564   3.600491
    18  H    6.070943   6.551643   6.025014   6.400991   3.391946
    19  H    6.250240   6.615020   6.393926   6.841173   2.398692
                   16         17         18         19
    16  C    0.000000
    17  H    1.094733   0.000000
    18  H    1.097120   1.759968   0.000000
    19  H    1.091908   1.769151   1.765711   0.000000
 Stoichiometry    C8H9O2(1-)
 Framework group  C1[X(C8H9O2)]
 Deg. of freedom    51
 Full point group                 C1      NOp   1
 Largest Abelian subgroup         C1      NOp   1
 Largest concise Abelian subgroup C1      NOp   1
                         Standard orientation:                         
 ---------------------------------------------------------------------
 Center     Atomic      Atomic             Coordinates (Angstroms)
 Number     Number       Type             X           Y           Z
 ---------------------------------------------------------------------
      1          6           0        1.839306   -0.031101    0.017699
      2          6           0        0.966067    1.084398    0.040042
      3          6           0       -0.390624    0.922094    0.008423
      4          6           0       -1.002799   -0.420484    0.043395
      5          6           0       -0.074053   -1.539323   -0.120504
      6          6           0        1.277699   -1.327213   -0.098569
      7          1           0       -0.492789   -2.534005   -0.214850
      8          8           0       -2.309885   -0.459347   -0.694849
      9          8           0       -1.236106    1.981111   -0.059520
     10          1           0        1.362623    2.093867    0.033573
     11          6           0       -2.316924   -0.610426    0.721332
     12          1           0       -2.568916   -1.604564    1.084907
     13          1           0       -2.057528    1.646870   -0.454565
     14          1           0       -2.746892    0.214088    1.287357
     15          1           0        1.946246   -2.178376   -0.178804
     16          6           0        3.327632    0.171664    0.082330
     17          1           0        3.654378    0.963046   -0.599866
     18          1           0        3.645957    0.468927    1.089294
     19          1           0        3.867032   -0.741608   -0.176986
 ---------------------------------------------------------------------
 Rotational constants (GHZ):           2.6764480           1.0580372           0.8043801
 Leave Link  202 at Wed Dec 03 17:15:04 2025, MaxMem=   104857600 cpu:               0.0 elap:               0.0
 (Enter D:\Gaussian\G16W\l301.exe)
 Standard basis: 6-31G(d) (6D, 7F)
 Ernie: Thresh=  0.10000D-02 Tol=  0.10000D-05 Strict=F.
 There are   168 symmetry adapted cartesian basis functions of A   symmetry.
 There are   168 symmetry adapted basis functions of A   symmetry.
   168 basis functions,   316 primitive gaussians,   168 cartesian basis functions
    37 alpha electrons       37 beta electrons
       nuclear repulsion energy       514.2298728885 Hartrees.
 IExCor=  402 DFT=T Ex+Corr=B3LYP ExCW=0 ScaHFX=  0.200000
 ScaDFX=  0.800000  0.720000  1.000000  0.810000 ScalE2=  1.000000  1.000000
 IRadAn=      5 IRanWt=     -1 IRanGd=            0 ICorTp=0 IEmpDi=  4
 NAtoms=   19 NActive=   19 NUniq=   19 SFac= 1.00D+00 NAtFMM=   60 NAOKFM=F Big=F
 Integral buffers will be    131072 words long.
 Raffenetti 2 integral format.
 Two-electron integral symmetry is turned on.
 Leave Link  301 at Wed Dec 03 17:15:04 2025, MaxMem=   104857600 cpu:               0.0 elap:               0.1
 (Enter D:\Gaussian\G16W\l302.exe)
 NPDir=0 NMtPBC=     1 NCelOv=     1 NCel=       1 NClECP=     1 NCelD=      1
         NCelK=      1 NCelE2=     1 NClLst=     1 CellRange=     0.0.
 One-electron integrals computed using PRISM.
 One-electron integral symmetry used in STVInt
 NBasis=   168 RedAO= T EigKep=  4.78D-04  NBF=   168
 NBsUse=   168 1.00D-06 EigRej= -1.00D+00 NBFU=   168
 Precomputing XC quadrature grid using
 IXCGrd= 4 IRadAn=           5 IRanWt=          -1 IRanGd=           0 AccXCQ= 0.00D+00.
 Generated NRdTot=       0 NPtTot=           0 NUsed=           0 NTot=          32
 NSgBfM=   168   168   168   168   168 MxSgAt=    19 MxSgA2=    19.
 Leave Link  302 at Wed Dec 03 17:15:05 2025, MaxMem=   104857600 cpu:               0.0 elap:               0.3
 (Enter D:\Gaussian\G16W\l303.exe)
 DipDrv:  MaxL=1.
 Leave Link  303 at Wed Dec 03 17:15:05 2025, MaxMem=   104857600 cpu:               0.0 elap:               0.1
 (Enter D:\Gaussian\G16W\l401.exe)
 ExpMin= 1.61D-01 ExpMax= 5.48D+03 ExpMxC= 8.25D+02 IAcc=3 IRadAn=         5 AccDes= 0.00D+00
 Harris functional with IExCor=  402 and IRadAn=       5 diagonalized for initial guess.
 HarFok:  IExCor=  402 AccDes= 0.00D+00 IRadAn=         5 IDoV= 1 UseB2=F ITyADJ=14
 ICtDFT=  3500011 ScaDFX=  1.000000  1.000000  1.000000  1.000000
 FoFCou: FMM=F IPFlag=           0 FMFlag=      100000 FMFlg1=           0
         NFxFlg=           0 DoJE=T BraDBF=F KetDBF=T FulRan=T
         wScrn=  0.000000 ICntrl=       500 IOpCl=  0 I1Cent=   200000004 NGrid=           0
         NMat0=    1 NMatS0=      1 NMatT0=    0 NMatD0=    1 NMtDS0=    0 NMtDT0=    0
 Petite list used in FoFCou.
 Harris En= -460.863789812812    
 JPrj=0 DoOrth=F DoCkMO=F.
 Leave Link  401 at Wed Dec 03 17:15:06 2025, MaxMem=   104857600 cpu:               1.0 elap:               1.1
 (Enter D:\Gaussian\G16W\l502.exe)
 Keep R1 ints in memory in canonical form, NReq=104755543.
 FoFCou: FMM=F IPFlag=           0 FMFlag=           0 FMFlg1=           0
         NFxFlg=           0 DoJE=F BraDBF=F KetDBF=F FulRan=T
         wScrn=  0.000000 ICntrl=       600 IOpCl=  0 I1Cent=           0 NGrid=           0
         NMat0=    1 NMatS0=  14196 NMatT0=    0 NMatD0=    1 NMtDS0=    0 NMtDT0=    0
 Symmetry not used in FoFCou.
 Two-electron integral symmetry not used.
 Closed shell SCF:
 Using DIIS extrapolation, IDIIS=  1040.
 NGot=   104857600 LenX=     4027843 LenY=     3999178
 Requested convergence on RMS density matrix=1.00D-07 within 128 cycles.
 Requested convergence on MAX density matrix=1.00D-05.
 Requested convergence on             energy=1.00D-05.
 No special actions if energy rises.
 Integral accuracy reduced to 1.0D-05 until final iterations.

 Cycle   1  Pass 0  IDiag  1:
 CalDSu:  requested number of processors reduced to:   3 ShMem   1 Linda.
 E= -460.275143246254    
 DIIS: error= 3.59D-02 at cycle   1 NSaved=   1.
 NSaved= 1 IEnMin= 1 EnMin= -460.275143246254     IErMin= 1 ErrMin= 3.59D-02
 ErrMax= 3.59D-02  0.00D+00 EMaxC= 1.00D-01 BMatC= 3.32D-01 BMatP= 3.32D-01
 IDIUse=3 WtCom= 6.41D-01 WtEn= 3.59D-01
 Coeff-Com:  0.100D+01
 Coeff-En:   0.100D+01
 Coeff:      0.100D+01
 Gap=     0.149 Goal=   None    Shift=    0.000
 GapD=    0.149 DampG=1.000 DampE=0.500 DampFc=0.5000 IDamp=-1.
 Damping current iteration by 5.00D-01
 RMSDP=1.20D-02 MaxDP=3.12D-01              OVMax= 2.94D-01

 Cycle   2  Pass 0  IDiag  1:
 CalDSu:  requested number of processors reduced to:   3 ShMem   1 Linda.
 E= -460.428830157018     Delta-E=       -0.153686910763 Rises=F Damp=T
 DIIS: error= 6.91D-03 at cycle   2 NSaved=   2.
 NSaved= 2 IEnMin= 2 EnMin= -460.428830157018     IErMin= 2 ErrMin= 6.91D-03
 ErrMax= 6.91D-03  0.00D+00 EMaxC= 1.00D-01 BMatC= 1.75D-02 BMatP= 3.32D-01
 IDIUse=3 WtCom= 9.31D-01 WtEn= 6.91D-02
 Coeff-Com:  0.751D-01 0.925D+00
 Coeff-En:   0.142D+00 0.858D+00
 Coeff:      0.797D-01 0.920D+00
 Gap=     0.201 Goal=   None    Shift=    0.000
 RMSDP=3.45D-03 MaxDP=1.20D-01 DE=-1.54D-01 OVMax= 2.54D-01

 Cycle   3  Pass 0  IDiag  1:
 CalDSu:  requested number of processors reduced to:   3 ShMem   1 Linda.
 E= -460.614607064121     Delta-E=       -0.185776907104 Rises=F Damp=F
 DIIS: error= 7.00D-03 at cycle   3 NSaved=   3.
 NSaved= 3 IEnMin= 3 EnMin= -460.614607064121     IErMin= 2 ErrMin= 6.91D-03
 ErrMax= 7.00D-03  0.00D+00 EMaxC= 1.00D-01 BMatC= 1.75D-02 BMatP= 1.75D-02
 IDIUse=3 WtCom= 9.30D-01 WtEn= 7.00D-02
 Coeff-Com:  0.883D-02 0.500D+00 0.492D+00
 Coeff-En:   0.000D+00 0.000D+00 0.100D+01
 Coeff:      0.821D-02 0.465D+00 0.527D+00
 Gap=     0.150 Goal=   None    Shift=    0.000
 RMSDP=1.55D-03 MaxDP=4.99D-02 DE=-1.86D-01 OVMax= 1.09D-01

 Cycle   4  Pass 0  IDiag  1:
 CalDSu:  requested number of processors reduced to:   3 ShMem   1 Linda.
 E= -460.628691115508     Delta-E=       -0.014084051386 Rises=F Damp=F
 DIIS: error= 3.69D-03 at cycle   4 NSaved=   4.
 NSaved= 4 IEnMin= 4 EnMin= -460.628691115508     IErMin= 4 ErrMin= 3.69D-03
 ErrMax= 3.69D-03  0.00D+00 EMaxC= 1.00D-01 BMatC= 5.17D-03 BMatP= 1.75D-02
 IDIUse=3 WtCom= 9.63D-01 WtEn= 3.69D-02
 Coeff-Com: -0.870D-02 0.828D-01 0.353D+00 0.572D+00
 Coeff-En:   0.000D+00 0.000D+00 0.264D+00 0.736D+00
 Coeff:     -0.838D-02 0.797D-01 0.350D+00 0.579D+00
 Gap=     0.150 Goal=   None    Shift=    0.000
 RMSDP=6.10D-04 MaxDP=1.79D-02 DE=-1.41D-02 OVMax= 3.82D-02

 Cycle   5  Pass 0  IDiag  1:
 CalDSu:  requested number of processors reduced to:   3 ShMem   1 Linda.
 E= -460.633965947284     Delta-E=       -0.005274831776 Rises=F Damp=F
 DIIS: error= 1.08D-03 at cycle   5 NSaved=   5.
 NSaved= 5 IEnMin= 5 EnMin= -460.633965947284     IErMin= 5 ErrMin= 1.08D-03
 ErrMax= 1.08D-03  0.00D+00 EMaxC= 1.00D-01 BMatC= 2.61D-04 BMatP= 5.17D-03
 IDIUse=3 WtCom= 9.89D-01 WtEn= 1.08D-02
 Coeff-Com: -0.465D-02 0.205D-01 0.170D+00 0.318D+00 0.496D+00
 Coeff-En:   0.000D+00 0.000D+00 0.000D+00 0.000D+00 0.100D+01
 Coeff:     -0.460D-02 0.203D-01 0.168D+00 0.315D+00 0.502D+00
 Gap=     0.151 Goal=   None    Shift=    0.000
 RMSDP=1.40D-04 MaxDP=3.12D-03 DE=-5.27D-03 OVMax= 6.25D-03

 Cycle   6  Pass 0  IDiag  1:
 CalDSu:  requested number of processors reduced to:   3 ShMem   1 Linda.
 E= -460.634185906567     Delta-E=       -0.000219959283 Rises=F Damp=F
 DIIS: error= 4.57D-04 at cycle   6 NSaved=   6.
 NSaved= 6 IEnMin= 6 EnMin= -460.634185906567     IErMin= 6 ErrMin= 4.57D-04
 ErrMax= 4.57D-04  0.00D+00 EMaxC= 1.00D-01 BMatC= 2.83D-05 BMatP= 2.61D-04
 IDIUse=3 WtCom= 9.95D-01 WtEn= 4.57D-03
 Coeff-Com: -0.123D-02 0.848D-03 0.460D-01 0.925D-01 0.282D+00 0.580D+00
 Coeff-En:   0.000D+00 0.000D+00 0.000D+00 0.000D+00 0.763D-01 0.924D+00
 Coeff:     -0.122D-02 0.844D-03 0.457D-01 0.921D-01 0.281D+00 0.582D+00
 Gap=     0.151 Goal=   None    Shift=    0.000
 RMSDP=4.74D-05 MaxDP=1.01D-03 DE=-2.20D-04 OVMax= 2.91D-03

 Cycle   7  Pass 0  IDiag  1:
 CalDSu:  requested number of processors reduced to:   3 ShMem   1 Linda.
 E= -460.634208744848     Delta-E=       -0.000022838281 Rises=F Damp=F
 DIIS: error= 9.74D-05 at cycle   7 NSaved=   7.
 NSaved= 7 IEnMin= 7 EnMin= -460.634208744848     IErMin= 7 ErrMin= 9.74D-05
 ErrMax= 9.74D-05  0.00D+00 EMaxC= 1.00D-01 BMatC= 4.37D-06 BMatP= 2.83D-05
 IDIUse=1 WtCom= 1.00D+00 WtEn= 0.00D+00
 Coeff-Com: -0.387D-03-0.136D-02 0.169D-01 0.352D-01 0.146D+00 0.378D+00
 Coeff-Com:  0.425D+00
 Coeff:     -0.387D-03-0.136D-02 0.169D-01 0.352D-01 0.146D+00 0.378D+00
 Coeff:      0.425D+00
 Gap=     0.151 Goal=   None    Shift=    0.000
 RMSDP=1.43D-05 MaxDP=3.68D-04 DE=-2.28D-05 OVMax= 8.72D-04

 Cycle   8  Pass 0  IDiag  1:
 CalDSu:  requested number of processors reduced to:   3 ShMem   1 Linda.
 E= -460.634212605076     Delta-E=       -0.000003860228 Rises=F Damp=F
 DIIS: error= 7.85D-06 at cycle   8 NSaved=   8.
 NSaved= 8 IEnMin= 8 EnMin= -460.634212605076     IErMin= 8 ErrMin= 7.85D-06
 ErrMax= 7.85D-06  0.00D+00 EMaxC= 1.00D-01 BMatC= 2.96D-08 BMatP= 4.37D-06
 IDIUse=1 WtCom= 1.00D+00 WtEn= 0.00D+00
 Coeff-Com:  0.760D-04-0.350D-03-0.601D-03-0.186D-02 0.636D-02 0.275D-01
 Coeff-Com:  0.777D-01 0.891D+00
 Coeff:      0.760D-04-0.350D-03-0.601D-03-0.186D-02 0.636D-02 0.275D-01
 Coeff:      0.777D-01 0.891D+00
 Gap=     0.151 Goal=   None    Shift=    0.000
 RMSDP=2.62D-06 MaxDP=7.57D-05 DE=-3.86D-06 OVMax= 1.22D-04

 Initial convergence to 1.0D-05 achieved.  Increase integral accuracy.
 Cycle   9  Pass 1  IDiag  1:
 CalDSu:  requested number of processors reduced to:   3 ShMem   1 Linda.
 E= -460.634220982531     Delta-E=       -0.000008377455 Rises=F Damp=F
 DIIS: error= 4.05D-06 at cycle   1 NSaved=   1.
 NSaved= 1 IEnMin= 1 EnMin= -460.634220982531     IErMin= 1 ErrMin= 4.05D-06
 ErrMax= 4.05D-06  0.00D+00 EMaxC= 1.00D-01 BMatC= 7.27D-09 BMatP= 7.27D-09
 IDIUse=1 WtCom= 1.00D+00 WtEn= 0.00D+00
 Coeff-Com:  0.100D+01
 Coeff:      0.100D+01
 Gap=     0.151 Goal=   None    Shift=    0.000
 RMSDP=2.62D-06 MaxDP=7.57D-05 DE=-8.38D-06 OVMax= 4.06D-05

 Cycle  10  Pass 1  IDiag  1:
 CalDSu:  requested number of processors reduced to:   3 ShMem   1 Linda.
 E= -460.634220982967     Delta-E=       -0.000000000436 Rises=F Damp=F
 DIIS: error= 4.23D-06 at cycle   2 NSaved=   2.
 NSaved= 2 IEnMin= 2 EnMin= -460.634220982967     IErMin= 1 ErrMin= 4.05D-06
 ErrMax= 4.23D-06  0.00D+00 EMaxC= 1.00D-01 BMatC= 8.36D-09 BMatP= 7.27D-09
 IDIUse=1 WtCom= 1.00D+00 WtEn= 0.00D+00
 Coeff-Com:  0.520D+00 0.480D+00
 Coeff:      0.520D+00 0.480D+00
 Gap=     0.151 Goal=   None    Shift=    0.000
 RMSDP=6.84D-07 MaxDP=2.33D-05 DE=-4.36D-10 OVMax= 4.03D-05

 Cycle  11  Pass 1  IDiag  1:
 CalDSu:  requested number of processors reduced to:   3 ShMem   1 Linda.
 E= -460.634220990526     Delta-E=       -0.000000007558 Rises=F Damp=F
 DIIS: error= 1.42D-06 at cycle   3 NSaved=   3.
 NSaved= 3 IEnMin= 3 EnMin= -460.634220990526     IErMin= 3 ErrMin= 1.42D-06
 ErrMax= 1.42D-06  0.00D+00 EMaxC= 1.00D-01 BMatC= 6.39D-10 BMatP= 7.27D-09
 IDIUse=1 WtCom= 1.00D+00 WtEn= 0.00D+00
 Coeff-Com:  0.760D-01 0.225D+00 0.699D+00
 Coeff:      0.760D-01 0.225D+00 0.699D+00
 Gap=     0.151 Goal=   None    Shift=    0.000
 RMSDP=2.17D-07 MaxDP=5.09D-06 DE=-7.56D-09 OVMax= 9.04D-06

 Cycle  12  Pass 1  IDiag  1:
 CalDSu:  requested number of processors reduced to:   3 ShMem   1 Linda.
 E= -460.634220990886     Delta-E=       -0.000000000360 Rises=F Damp=F
 DIIS: error= 9.14D-07 at cycle   4 NSaved=   4.
 NSaved= 4 IEnMin= 4 EnMin= -460.634220990886     IErMin= 4 ErrMin= 9.14D-07
 ErrMax= 9.14D-07  0.00D+00 EMaxC= 1.00D-01 BMatC= 2.03D-10 BMatP= 6.39D-10
 IDIUse=1 WtCom= 1.00D+00 WtEn= 0.00D+00
 Coeff-Com: -0.126D-01 0.941D-01 0.454D+00 0.464D+00
 Coeff:     -0.126D-01 0.941D-01 0.454D+00 0.464D+00
 Gap=     0.151 Goal=   None    Shift=    0.000
 RMSDP=9.44D-08 MaxDP=2.13D-06 DE=-3.60D-10 OVMax= 4.14D-06

 SCF Done:  E(RB3LYP) =  -460.634220991     A.U. after   12 cycles
            NFock= 12  Conv=0.94D-07     -V/T= 2.0083
 KE= 4.568353175209D+02 PE=-2.115686589242D+03 EE= 6.839871778415D+02
 Leave Link  502 at Wed Dec 03 17:15:21 2025, MaxMem=   104857600 cpu:              15.0 elap:              14.7
 (Enter D:\Gaussian\G16W\l601.exe)
 Copying SCF densities to generalized density rwf, IOpCl= 0 IROHF=0.

 **********************************************************************

            Population analysis using the SCF density.

 **********************************************************************

 Orbital symmetries:
       Occupied  (A) (A) (A) (A) (A) (A) (A) (A) (A) (A) (A) (A)
                 (A) (A) (A) (A) (A) (A) (A) (A) (A) (A) (A) (A)
                 (A) (A) (A) (A) (A) (A) (A) (A) (A) (A) (A) (A)
                 (A)
       Virtual   (A) (A) (A) (A) (A) (A) (A) (A) (A) (A) (A) (A)
                 (A) (A) (A) (A) (A) (A) (A) (A) (A) (A) (A) (A)
                 (A) (A) (A) (A) (A) (A) (A) (A) (A) (A) (A) (A)
                 (A) (A) (A) (A) (A) (A) (A) (A) (A) (A) (A) (A)
                 (A) (A) (A) (A) (A) (A) (A) (A) (A) (A) (A) (A)
                 (A) (A) (A) (A) (A) (A) (A) (A) (A) (A) (A) (A)
                 (A) (A) (A) (A) (A) (A) (A) (A) (A) (A) (A) (A)
                 (A) (A) (A) (A) (A) (A) (A) (A) (A) (A) (A) (A)
                 (A) (A) (A) (A) (A) (A) (A) (A) (A) (A) (A) (A)
                 (A) (A) (A) (A) (A) (A) (A) (A) (A) (A) (A) (A)
                 (A) (A) (A) (A) (A) (A) (A) (A) (A) (A) (A)
 The electronic state is 1-A.
 Alpha  occ. eigenvalues --  -18.98886 -18.96392 -10.05802 -10.04902 -10.03146
 Alpha  occ. eigenvalues --  -10.01954  -9.98906  -9.98646  -9.96873  -9.96751
 Alpha  occ. eigenvalues --   -0.88640  -0.85735  -0.63925  -0.56847  -0.54298
 Alpha  occ. eigenvalues --   -0.49888  -0.47028  -0.41188  -0.41016  -0.34768
 Alpha  occ. eigenvalues --   -0.31966  -0.30167  -0.27031  -0.25655  -0.25018
 Alpha  occ. eigenvalues --   -0.24206  -0.22571  -0.21700  -0.20165  -0.18263
 Alpha  occ. eigenvalues --   -0.16528  -0.15187  -0.14192  -0.09890  -0.09248
 Alpha  occ. eigenvalues --   -0.03998   0.06150
 Alpha virt. eigenvalues --    0.21231   0.24775   0.25218   0.26157   0.27623
 Alpha virt. eigenvalues --    0.29203   0.30198   0.31123   0.32823   0.33155
 Alpha virt. eigenvalues --    0.34251   0.35573   0.39599   0.40920   0.43026
 Alpha virt. eigenvalues --    0.45100   0.49403   0.51555   0.53369   0.56441
 Alpha virt. eigenvalues --    0.63285   0.66140   0.67449   0.70379   0.71158
 Alpha virt. eigenvalues --    0.73950   0.74427   0.75624   0.77742   0.78631
 Alpha virt. eigenvalues --    0.80043   0.80680   0.81825   0.83555   0.86682
 Alpha virt. eigenvalues --    0.87262   0.89326   0.90039   0.92960   0.94014
 Alpha virt. eigenvalues --    0.96954   0.98072   1.00787   1.02199   1.03077
 Alpha virt. eigenvalues --    1.03999   1.04943   1.05842   1.07284   1.07942
 Alpha virt. eigenvalues --    1.11135   1.12536   1.14648   1.16682   1.18157
 Alpha virt. eigenvalues --    1.20546   1.23425   1.24016   1.25060   1.32189
 Alpha virt. eigenvalues --    1.35770   1.37992   1.39446   1.45576   1.49644
 Alpha virt. eigenvalues --    1.50057   1.53875   1.54495   1.59284   1.62322
 Alpha virt. eigenvalues --    1.64802   1.66351   1.70365   1.73469   1.76849
 Alpha virt. eigenvalues --    1.81003   1.85736   1.91178   1.96017   1.98411
 Alpha virt. eigenvalues --    2.01986   2.04857   2.07021   2.07485   2.08281
 Alpha virt. eigenvalues --    2.11540   2.12425   2.15784   2.17998   2.21625
 Alpha virt. eigenvalues --    2.23089   2.26051   2.29762   2.30871   2.37042
 Alpha virt. eigenvalues --    2.40500   2.42737   2.44885   2.46966   2.48015
 Alpha virt. eigenvalues --    2.50694   2.51925   2.54982   2.57233   2.58632
 Alpha virt. eigenvalues --    2.64764   2.67340   2.70702   2.77564   2.78536
 Alpha virt. eigenvalues --    2.87307   2.92445   2.97923   2.98835   3.03924
 Alpha virt. eigenvalues --    3.04853   3.07794   3.16246   3.20772   3.33761
 Alpha virt. eigenvalues --    3.56674   4.00309   4.15803   4.30032   4.35325
 Alpha virt. eigenvalues --    4.40703   4.41802   4.48798   4.60457   4.68758
 Alpha virt. eigenvalues --    4.97075
          Condensed to atoms (all electrons):
               1          2          3          4          5          6
     1  C    4.781995   0.489354  -0.020575  -0.029038  -0.040757   0.563633
     2  C    0.489354   5.112523   0.553285  -0.062187  -0.052567  -0.020621
     3  C   -0.020575   0.553285   4.734016   0.427587   0.021932  -0.050770
     4  C   -0.029038  -0.062187   0.427587   4.784898   0.470321  -0.017580
     5  C   -0.040757  -0.052567   0.021932   0.470321   5.167660   0.503609
     6  C    0.563633  -0.020621  -0.050770  -0.017580   0.503609   4.955762
     7  H    0.004567   0.000887   0.004131  -0.048203   0.334133  -0.045788
     8  O    0.000831   0.001239  -0.029615   0.038836  -0.022344   0.001247
     9  O    0.002498  -0.046355   0.243124  -0.059413   0.003544   0.000360
    10  H   -0.059738   0.314512  -0.041884   0.007999   0.000258   0.006574
    11  C    0.000598   0.008079  -0.066389   0.218316  -0.091318   0.007680
    12  H    0.000004  -0.000046   0.003386  -0.000155   0.000188  -0.000793
    13  H    0.000104   0.006613  -0.042472  -0.022052   0.000671  -0.000138
    14  H   -0.000030  -0.000885  -0.005544  -0.001738   0.004813   0.000044
    15  H   -0.048928   0.007184   0.000769   0.005292  -0.054316   0.323268
    16  C    0.351562  -0.074075   0.007613   0.000425   0.008990  -0.057582
    17  H   -0.038464  -0.000904  -0.000152   0.000027  -0.000177   0.001492
    18  H   -0.046583  -0.001124   0.000434   0.000008   0.000145  -0.001072
    19  H   -0.025338   0.003401  -0.000161   0.000015  -0.000114  -0.004012
               7          8          9         10         11         12
     1  C    0.004567   0.000831   0.002498  -0.059738   0.000598   0.000004
     2  C    0.000887   0.001239  -0.046355   0.314512   0.008079  -0.000046
     3  C    0.004131  -0.029615   0.243124  -0.041884  -0.066389   0.003386
     4  C   -0.048203   0.038836  -0.059413   0.007999   0.218316  -0.000155
     5  C    0.334133  -0.022344   0.003544   0.000258  -0.091318   0.000188
     6  C   -0.045788   0.001247   0.000360   0.006574   0.007680  -0.000793
     7  H    0.735894   0.001362  -0.000064   0.000027  -0.007842   0.003969
     8  O    0.001362   8.524449  -0.014044  -0.000086   0.082109  -0.030108
     9  O   -0.000064  -0.014044   8.334140  -0.001054   0.001404   0.000053
    10  H    0.000027  -0.000086  -0.001054   0.738841  -0.000135   0.000000
    11  C   -0.007842   0.082109   0.001404  -0.000135   5.379435   0.314640
    12  H    0.003969  -0.030108   0.000053   0.000000   0.314640   0.688383
    13  H   -0.000042   0.048736   0.227030  -0.000667  -0.002521   0.000855
    14  H    0.000076  -0.034918   0.009071  -0.000008   0.310963  -0.061166
    15  H   -0.008690  -0.000056   0.000003  -0.000234  -0.000172  -0.000012
    16  C   -0.000259   0.000001  -0.000068  -0.012714   0.000002   0.000000
    17  H    0.000003   0.000000  -0.000006   0.005168   0.000002   0.000000
    18  H    0.000006   0.000000   0.000001   0.001105  -0.000006   0.000000
    19  H   -0.000016   0.000000   0.000000   0.000035   0.000000   0.000000
              13         14         15         16         17         18
     1  C    0.000104  -0.000030  -0.048928   0.351562  -0.038464  -0.046583
     2  C    0.006613  -0.000885   0.007184  -0.074075  -0.000904  -0.001124
     3  C   -0.042472  -0.005544   0.000769   0.007613  -0.000152   0.000434
     4  C   -0.022052  -0.001738   0.005292   0.000425   0.000027   0.000008
     5  C    0.000671   0.004813  -0.054316   0.008990  -0.000177   0.000145
     6  C   -0.000138   0.000044   0.323268  -0.057582   0.001492  -0.001072
     7  H   -0.000042   0.000076  -0.008690  -0.000259   0.000003   0.000006
     8  O    0.048736  -0.034918  -0.000056   0.000001   0.000000   0.000000
     9  O    0.227030   0.009071   0.000003  -0.000068  -0.000006   0.000001
    10  H   -0.000667  -0.000008  -0.000234  -0.012714   0.005168   0.001105
    11  C   -0.002521   0.310963  -0.000172   0.000002   0.000002  -0.000006
    12  H    0.000855  -0.061166  -0.000012   0.000000   0.000000   0.000000
    13  H    0.400747  -0.006357   0.000000   0.000006  -0.000001   0.000000
    14  H   -0.006357   0.705666   0.000001   0.000000   0.000000   0.000000
    15  H    0.000000   0.000001   0.752254  -0.015664   0.000070   0.000260
    16  C    0.000006   0.000000  -0.015664   5.279161   0.341701   0.338137
    17  H   -0.000001   0.000000   0.000070   0.341701   0.689244  -0.064652
    18  H    0.000000   0.000000   0.000260   0.338137  -0.064652   0.723231
    19  H    0.000000   0.000000   0.009495   0.348889  -0.029008  -0.041253
              19
     1  C   -0.025338
     2  C    0.003401
     3  C   -0.000161
     4  C    0.000015
     5  C   -0.000114
     6  C   -0.004012
     7  H   -0.000016
     8  O    0.000000
     9  O    0.000000
    10  H    0.000035
    11  C    0.000000
    12  H    0.000000
    13  H    0.000000
    14  H    0.000000
    15  H    0.009495
    16  C    0.348889
    17  H   -0.029008
    18  H   -0.041253
    19  H    0.637824
 Mulliken charges:
               1
     1  C    0.114304
     2  C   -0.238311
     3  C    0.261286
     4  C    0.286643
     5  C   -0.254672
     6  C   -0.165314
     7  H    0.025848
     8  O   -0.567637
     9  O   -0.700223
    10  H    0.042001
    11  C   -0.154845
    12  H    0.080803
    13  H    0.389488
    14  H    0.080015
    15  H    0.029477
    16  C   -0.516126
    17  H    0.095658
    18  H    0.091363
    19  H    0.100243
 Sum of Mulliken charges =  -1.00000
 Mulliken charges with hydrogens summed into heavy atoms:
               1
     1  C    0.114304
     2  C   -0.196310
     3  C    0.261286
     4  C    0.286643
     5  C   -0.228824
     6  C   -0.135837
     8  O   -0.567637
     9  O   -0.310735
    11  C    0.005972
    16  C   -0.228863
 Electronic spatial extent (au):  <R**2>=           1479.5565
 Charge=             -1.0000 electrons
 Dipole moment (field-independent basis, Debye):
    X=             -0.3969    Y=              0.1217    Z=              0.8269  Tot=              0.9253
 Quadrupole moment (field-independent basis, Debye-Ang):
   XX=            -77.2779   YY=            -69.5600   ZZ=            -65.5142
   XY=             -1.1648   XZ=             -2.5465   YZ=             -1.6321
 Traceless Quadrupole moment (field-independent basis, Debye-Ang):
   XX=             -6.4939   YY=              1.2240   ZZ=              5.2699
   XY=             -1.1648   XZ=             -2.5465   YZ=             -1.6321
 Octapole moment (field-independent basis, Debye-Ang**2):
  XXX=            -34.5210  YYY=             -1.8458  ZZZ=             -2.8653  XYY=             -2.9631
  XXY=              9.0831  XXZ=              2.9384  XZZ=             -6.1507  YZZ=              5.7099
  YYZ=             -2.3803  XYZ=              4.0924
 Hexadecapole moment (field-independent basis, Debye-Ang**3):
 XXXX=          -1532.5470 YYYY=           -561.0802 ZZZZ=           -121.5390 XXXY=            -48.2772
 XXXZ=            -12.1983 YYYX=              6.1410 YYYZ=             -1.8675 ZZZX=              7.1967
 ZZZY=             -1.4782 XXYY=           -313.0297 XXZZ=           -262.1699 YYZZ=           -112.5948
 XXYZ=             -9.3620 YYXZ=              4.1524 ZZXY=             -5.4773
 N-N= 5.142298728885D+02 E-N=-2.115686587439D+03  KE= 4.568353175209D+02
 No NMR shielding tensors so no spin-rotation constants.
 Leave Link  601 at Wed Dec 03 17:15:21 2025, MaxMem=   104857600 cpu:               0.0 elap:               0.2
 (Enter D:\Gaussian\G16W\l9999.exe)
 1|1|UNPC-PC-20250526LCFF|SP|RB3LYP|6-31G(d)|C8H9O2(1-)|ADMINISTRATOR|0
 3-Dec-2025|0||#P B3LYP/6-31G* SCF=conver=7 out=wfn||Generated by Multi
 wfn (http://sobereva.com/multiwfn)||-1,1|C,0,1.839306,-0.031101,0.0176
 99|C,0,0.966067,1.084398,0.040042|C,0,-0.390624,0.922094,0.008423|C,0,
 -1.002799,-0.420484,0.043395|C,0,-0.074053,-1.539323,-0.120504|C,0,1.2
 77699,-1.327213,-0.098569|H,0,-0.492789,-2.534005,-0.21485|O,0,-2.3098
 85,-0.459347,-0.694849|O,0,-1.236106,1.981111,-0.05952|H,0,1.362623,2.
 093867,0.033573|C,0,-2.316924,-0.610426,0.721332|H,0,-2.568916,-1.6045
 64,1.084907|H,0,-2.057528,1.64687,-0.454565|H,0,-2.746892,0.214089,1.2
 87357|H,0,1.946246,-2.178376,-0.178804|C,0,3.327632,0.171663,0.08233|H
 ,0,3.654378,0.963045,-0.599866|H,0,3.645957,0.468926,1.089294|H,0,3.86
 7032,-0.741609,-0.176986||Version=EM64W-G16RevA.03|State=1-A|HF=-460.6
 34221|RMSD=9.443e-008|Dipole=-0.1561401,0.0478981,0.3253327|Quadrupole
 =-4.8280528,0.9100265,3.9180263,-0.8659762,-1.8932519,-1.2134133|PG=C0
 1 [X(C8H9O2)]||@

 Writing a WFN file to "N+1.wfn"


 ... IT CAN BE VERY DIFFICULT, IN THESE COMPLEX TIMES,
 TO UNDERSTAND JUST HOW SCIENTISTS DO WHAT THEY DO.

                     DON MOSER IN THE FEBRUARY 1979 SMITHSONIAN
 Job cpu time:       0 days  0 hours  0 minutes 17.0 seconds.
 Elapsed time:       0 days  0 hours  0 minutes 16.8 seconds.
 File lengths (MBytes):  RWF=     15 Int=      0 D2E=      0 Chk=      3 Scr=      1
 Normal termination of Gaussian 16 at Wed Dec 03 17:15:21 2025.
