 Entering Link 1 = D:\Gaussian\G16W\l1.exe PID=     14896.
  
 Copyright (c) 1988,1990,1992,1993,1995,1998,2003,2009,2016,
            Gaussian, Inc.  All Rights Reserved.
  
 This is part of the Gaussian(R) 16 program.  It is based on
 the Gaussian(R) 09 system (copyright 2009, Gaussian, Inc.),
 the Gaussian(R) 03 system (copyright 2003, Gaussian, Inc.),
 the Gaussian(R) 98 system (copyright 1998, Gaussian, Inc.),
 the Gaussian(R) 94 system (copyright 1995, Gaussian, Inc.),
 the Gaussian 92(TM) system (copyright 1992, Gaussian, Inc.),
 the Gaussian 90(TM) system (copyright 1990, Gaussian, Inc.),
 the Gaussian 88(TM) system (copyright 1988, Gaussian, Inc.),
 the Gaussian 86(TM) system (copyright 1986, Carnegie Mellon
 University), and the Gaussian 82(TM) system (copyright 1983,
 Carnegie Mellon University). Gaussian is a federally registered
 trademark of Gaussian, Inc.
  
 This software contains proprietary and confidential information,
 including trade secrets, belonging to Gaussian, Inc.
  
 This software is provided under written license and may be
 used, copied, transmitted, or stored only in accord with that
 written license.
  
 The following legend is applicable only to US Government
 contracts under FAR:
  
                    RESTRICTED RIGHTS LEGEND
  
 Use, reproduction and disclosure by the US Government is
 subject to restrictions as set forth in subparagraphs (a)
 and (c) of the Commercial Computer Software - Restricted
 Rights clause in FAR 52.227-19.
  
 Gaussian, Inc.
 340 Quinnipiac St., Bldg. 40, Wallingford CT 06492
  
  
 ---------------------------------------------------------------
 Warning -- This program may not be used in any manner that
 competes with the business of Gaussian, Inc. or will provide
 assistance to any competitor of Gaussian, Inc.  The licensee
 of this program is prohibited from giving any competitor of
 Gaussian, Inc. access to this program.  By using this program,
 the user acknowledges that Gaussian, Inc. is engaged in the
 business of creating and licensing software in the field of
 computational chemistry and represents and warrants to the
 licensee that it is not a competitor of Gaussian, Inc. and that
 it will not use this program in any manner prohibited above.
 ---------------------------------------------------------------
  

 Cite this work as:
 Gaussian 16, Revision A.03,
 M. J. Frisch, G. W. Trucks, H. B. Schlegel, G. E. Scuseria, 
 M. A. Robb, J. R. Cheeseman, G. Scalmani, V. Barone, 
 G. A. Petersson, H. Nakatsuji, X. Li, M. Caricato, A. V. Marenich, 
 J. Bloino, B. G. Janesko, R. Gomperts, B. Mennucci, H. P. Hratchian, 
 J. V. Ortiz, A. F. Izmaylov, J. L. Sonnenberg, D. Williams-Young, 
 F. Ding, F. Lipparini, F. Egidi, J. Goings, B. Peng, A. Petrone, 
 T. Henderson, D. Ranasinghe, V. G. Zakrzewski, J. Gao, N. Rega, 
 G. Zheng, W. Liang, M. Hada, M. Ehara, K. Toyota, R. Fukuda, 
 J. Hasegawa, M. Ishida, T. Nakajima, Y. Honda, O. Kitao, H. Nakai, 
 T. Vreven, K. Throssell, J. A. Montgomery, Jr., J. E. Peralta, 
 F. Ogliaro, M. J. Bearpark, J. J. Heyd, E. N. Brothers, K. N. Kudin, 
 V. N. Staroverov, T. A. Keith, R. Kobayashi, J. Normand, 
 K. Raghavachari, A. P. Rendell, J. C. Burant, S. S. Iyengar, 
 J. Tomasi, M. Cossi, J. M. Millam, M. Klene, C. Adamo, R. Cammi, 
 J. W. Ochterski, R. L. Martin, K. Morokuma, O. Farkas, 
 J. B. Foresman, and D. J. Fox, Gaussian, Inc., Wallingford CT, 2016.
 
 ******************************************
 Gaussian 16:  EM64W-G16RevA.03 17-Dec-2016
                03-Dec-2025 
 ******************************************
 %nprocs=   4
 Will use up to    4 processors via shared memory.
 ------------------------------------
 #P B3LYP/6-31G* SCF=conver=7 out=wfn
 ------------------------------------
 1/38=1,172=1/1;
 2/12=2,17=6,18=5,40=1/2;
 3/5=1,6=6,7=1,11=2,25=1,30=1,74=-5/1,2,3;
 4//1;
 5/5=2,6=7,38=5/2;
 6/7=2,8=2,9=2,10=2,28=1/1;
 99/5=1,6=100,9=1/99;
 Leave Link    1 at Wed Dec 03 17:15:33 2025, MaxMem=           0 cpu:               0.0 elap:               0.1
 (Enter D:\Gaussian\G16W\l101.exe)
 ----------------------------------------------------
 Generated by Multiwfn (http://sobereva.com/multiwfn)
 ----------------------------------------------------
 Symbolic Z-matrix:
 Charge =  1 Multiplicity = 1
 C                     1.83931  -0.0311    0.0177 
 C                     0.96607   1.0844    0.04004 
 C                    -0.39062   0.92209   0.00842 
 C                    -1.0028   -0.42048   0.0434 
 C                    -0.07405  -1.53932  -0.1205 
 C                     1.2777   -1.32721  -0.09857 
 H                    -0.49279  -2.53401  -0.21485 
 O                    -2.30989  -0.45935  -0.69485 
 O                    -1.23611   1.98111  -0.05952 
 H                     1.36262   2.09387   0.03357 
 C                    -2.31692  -0.61043   0.72133 
 H                    -2.56892  -1.60456   1.08491 
 H                    -2.05753   1.64687  -0.45457 
 H                    -2.74689   0.21409   1.28736 
 H                     1.94625  -2.17838  -0.1788 
 C                     3.32763   0.17166   0.08233 
 H                     3.65438   0.96305  -0.59987 
 H                     3.64596   0.46893   1.08929 
 H                     3.86703  -0.74161  -0.17699 
 
 ITRead=  0  0  0  0  0  0  0  0  0  0  0  0  0  0  0  0  0  0  0
 MicOpt= -1 -1 -1 -1 -1 -1 -1 -1 -1 -1 -1 -1 -1 -1 -1 -1 -1 -1 -1
 NAtoms=     19 NQM=       19 NQMF=       0 NMMI=      0 NMMIF=      0
                NMic=       0 NMicF=      0.
                    Isotopes and Nuclear Properties:
 (Nuclear quadrupole moments (NQMom) in fm**2, nuclear magnetic moments (NMagM)
  in nuclear magnetons)

  Atom         1           2           3           4           5           6           7           8           9          10
 IAtWgt=          12          12          12          12          12          12           1          16          16           1
 AtmWgt=  12.0000000  12.0000000  12.0000000  12.0000000  12.0000000  12.0000000   1.0078250  15.9949146  15.9949146   1.0078250
 NucSpn=           0           0           0           0           0           0           1           0           0           1
 AtZEff=   0.0000000   0.0000000   0.0000000   0.0000000   0.0000000   0.0000000   0.0000000   0.0000000   0.0000000   0.0000000
 NQMom=    0.0000000   0.0000000   0.0000000   0.0000000   0.0000000   0.0000000   0.0000000   0.0000000   0.0000000   0.0000000
 NMagM=    0.0000000   0.0000000   0.0000000   0.0000000   0.0000000   0.0000000   2.7928460   0.0000000   0.0000000   2.7928460
 AtZNuc=   6.0000000   6.0000000   6.0000000   6.0000000   6.0000000   6.0000000   1.0000000   8.0000000   8.0000000   1.0000000

  Atom        11          12          13          14          15          16          17          18          19
 IAtWgt=          12           1           1           1           1          12           1           1           1
 AtmWgt=  12.0000000   1.0078250   1.0078250   1.0078250   1.0078250  12.0000000   1.0078250   1.0078250   1.0078250
 NucSpn=           0           1           1           1           1           0           1           1           1
 AtZEff=   0.0000000   0.0000000   0.0000000   0.0000000   0.0000000   0.0000000   0.0000000   0.0000000   0.0000000
 NQMom=    0.0000000   0.0000000   0.0000000   0.0000000   0.0000000   0.0000000   0.0000000   0.0000000   0.0000000
 NMagM=    0.0000000   2.7928460   2.7928460   2.7928460   2.7928460   0.0000000   2.7928460   2.7928460   2.7928460
 AtZNuc=   6.0000000   1.0000000   1.0000000   1.0000000   1.0000000   6.0000000   1.0000000   1.0000000   1.0000000
 Leave Link  101 at Wed Dec 03 17:15:34 2025, MaxMem=   104857600 cpu:               1.0 elap:               0.1
 (Enter D:\Gaussian\G16W\l202.exe)
                          Input orientation:                          
 ---------------------------------------------------------------------
 Center     Atomic      Atomic             Coordinates (Angstroms)
 Number     Number       Type             X           Y           Z
 ---------------------------------------------------------------------
      1          6           0        1.839306   -0.031101    0.017699
      2          6           0        0.966067    1.084398    0.040042
      3          6           0       -0.390624    0.922094    0.008423
      4          6           0       -1.002799   -0.420484    0.043395
      5          6           0       -0.074053   -1.539323   -0.120504
      6          6           0        1.277699   -1.327213   -0.098569
      7          1           0       -0.492789   -2.534005   -0.214850
      8          8           0       -2.309885   -0.459347   -0.694849
      9          8           0       -1.236106    1.981111   -0.059520
     10          1           0        1.362623    2.093867    0.033573
     11          6           0       -2.316924   -0.610426    0.721332
     12          1           0       -2.568916   -1.604564    1.084907
     13          1           0       -2.057528    1.646870   -0.454565
     14          1           0       -2.746892    0.214089    1.287357
     15          1           0        1.946246   -2.178376   -0.178804
     16          6           0        3.327632    0.171663    0.082330
     17          1           0        3.654378    0.963045   -0.599866
     18          1           0        3.645957    0.468926    1.089294
     19          1           0        3.867032   -0.741609   -0.176986
 ---------------------------------------------------------------------
                    Distance matrix (angstroms):
                    1          2          3          4          5
     1  C    0.000000
     2  C    1.416822   0.000000
     3  C    2.425130   1.366731   0.000000
     4  C    2.868770   2.478127   1.475973   0.000000
     5  C    2.440241   2.826931   2.485038   1.463295   0.000000
     6  C    1.417331   2.435610   2.802522   2.458248   1.368468
     7  H    3.428888   3.909741   3.464810   2.189468   1.083344
     8  O    4.231655   3.695277   2.467090   1.501662   2.548561
     9  O    3.676019   2.379826   1.356825   2.415095   3.707768
    10  H    2.177836   1.084586   2.108924   3.452141   3.909968
    11  C    4.254993   3.756942   2.562711   1.490839   2.569437
    12  H    4.800744   4.562715   3.505392   2.222502   2.771572
    13  H    4.268950   3.114986   1.875694   2.373683   3.767970
    14  H    4.765014   4.012393   2.772894   2.234275   3.492935
    15  H    2.158898   3.413845   3.887021   3.440410   2.119763
    16  C    1.503464   2.532166   3.793947   4.370902   3.813145
    17  H    2.159676   2.766085   4.090689   4.900738   4.515842
    18  H    2.159243   2.943050   4.203288   4.847256   4.397175
    19  H    2.157405   3.434676   4.574923   4.885381   4.021404
                    6          7          8          9         10
     6  C    0.000000
     7  H    2.145809   0.000000
     8  O    3.738917   2.799365   0.000000
     9  O    4.155207   4.578528   2.740890   0.000000
    10  H    3.424684   4.992141   4.531756   2.602839   0.000000
    11  C    3.755973   2.811416   1.424234   2.914440   4.617930
    12  H    4.034103   2.619834   2.132170   3.992889   5.499154
    13  H    4.482816   4.470524   2.134847   0.970830   3.483607
    14  H    4.527001   3.858708   2.138605   2.686805   4.689739
    15  H    1.085298   2.465089   4.619092   5.238600   4.317150
    16  C    2.545895   4.690903   5.725712   4.911408   2.749274
    17  H    3.338440   5.438436   6.132263   5.024467   2.632897
    18  H    3.200903   5.277083   6.286248   5.238417   2.994761
    19  H    2.655885   4.714038   6.205011   5.785242   3.788974
                   11         12         13         14         15
    11  C    0.000000
    12  H    1.088116   0.000000
    13  H    2.558399   3.633637   0.000000
    14  H    1.088615   1.838521   2.358469   0.000000
    15  H    4.630694   4.723655   5.544254   5.468003   0.000000
    16  C    5.734196   6.239345   5.609317   6.193039   2.738449
    17  H    6.314889   6.939774   5.754529   6.715564   3.600491
    18  H    6.070943   6.551643   6.025014   6.400991   3.391946
    19  H    6.250240   6.615020   6.393926   6.841173   2.398692
                   16         17         18         19
    16  C    0.000000
    17  H    1.094733   0.000000
    18  H    1.097120   1.759968   0.000000
    19  H    1.091908   1.769151   1.765711   0.000000
 Stoichiometry    C8H9O2(1+)
 Framework group  C1[X(C8H9O2)]
 Deg. of freedom    51
 Full point group                 C1      NOp   1
 Largest Abelian subgroup         C1      NOp   1
 Largest concise Abelian subgroup C1      NOp   1
                         Standard orientation:                         
 ---------------------------------------------------------------------
 Center     Atomic      Atomic             Coordinates (Angstroms)
 Number     Number       Type             X           Y           Z
 ---------------------------------------------------------------------
      1          6           0        1.839306   -0.031101    0.017699
      2          6           0        0.966067    1.084398    0.040042
      3          6           0       -0.390624    0.922094    0.008423
      4          6           0       -1.002799   -0.420484    0.043395
      5          6           0       -0.074053   -1.539323   -0.120504
      6          6           0        1.277699   -1.327213   -0.098569
      7          1           0       -0.492789   -2.534005   -0.214850
      8          8           0       -2.309885   -0.459347   -0.694849
      9          8           0       -1.236106    1.981111   -0.059520
     10          1           0        1.362623    2.093867    0.033573
     11          6           0       -2.316924   -0.610426    0.721332
     12          1           0       -2.568916   -1.604564    1.084907
     13          1           0       -2.057528    1.646870   -0.454565
     14          1           0       -2.746892    0.214088    1.287357
     15          1           0        1.946246   -2.178376   -0.178804
     16          6           0        3.327632    0.171664    0.082330
     17          1           0        3.654378    0.963046   -0.599866
     18          1           0        3.645957    0.468927    1.089294
     19          1           0        3.867032   -0.741608   -0.176986
 ---------------------------------------------------------------------
 Rotational constants (GHZ):           2.6764480           1.0580372           0.8043801
 Leave Link  202 at Wed Dec 03 17:15:34 2025, MaxMem=   104857600 cpu:               0.0 elap:               0.1
 (Enter D:\Gaussian\G16W\l301.exe)
 Standard basis: 6-31G(d) (6D, 7F)
 Ernie: Thresh=  0.10000D-02 Tol=  0.10000D-05 Strict=F.
 There are   168 symmetry adapted cartesian basis functions of A   symmetry.
 There are   168 symmetry adapted basis functions of A   symmetry.
   168 basis functions,   316 primitive gaussians,   168 cartesian basis functions
    36 alpha electrons       36 beta electrons
       nuclear repulsion energy       514.2298728885 Hartrees.
 IExCor=  402 DFT=T Ex+Corr=B3LYP ExCW=0 ScaHFX=  0.200000
 ScaDFX=  0.800000  0.720000  1.000000  0.810000 ScalE2=  1.000000  1.000000
 IRadAn=      5 IRanWt=     -1 IRanGd=            0 ICorTp=0 IEmpDi=  4
 NAtoms=   19 NActive=   19 NUniq=   19 SFac= 1.00D+00 NAtFMM=   60 NAOKFM=F Big=F
 Integral buffers will be    131072 words long.
 Raffenetti 2 integral format.
 Two-electron integral symmetry is turned on.
 Leave Link  301 at Wed Dec 03 17:15:34 2025, MaxMem=   104857600 cpu:               0.0 elap:               0.1
 (Enter D:\Gaussian\G16W\l302.exe)
 NPDir=0 NMtPBC=     1 NCelOv=     1 NCel=       1 NClECP=     1 NCelD=      1
         NCelK=      1 NCelE2=     1 NClLst=     1 CellRange=     0.0.
 One-electron integrals computed using PRISM.
 One-electron integral symmetry used in STVInt
 NBasis=   168 RedAO= T EigKep=  4.78D-04  NBF=   168
 NBsUse=   168 1.00D-06 EigRej= -1.00D+00 NBFU=   168
 Precomputing XC quadrature grid using
 IXCGrd= 4 IRadAn=           5 IRanWt=          -1 IRanGd=           0 AccXCQ= 0.00D+00.
 Generated NRdTot=       0 NPtTot=           0 NUsed=           0 NTot=          32
 NSgBfM=   168   168   168   168   168 MxSgAt=    19 MxSgA2=    19.
 Leave Link  302 at Wed Dec 03 17:15:34 2025, MaxMem=   104857600 cpu:               0.0 elap:               0.4
 (Enter D:\Gaussian\G16W\l303.exe)
 DipDrv:  MaxL=1.
 Leave Link  303 at Wed Dec 03 17:15:34 2025, MaxMem=   104857600 cpu:               0.0 elap:               0.1
 (Enter D:\Gaussian\G16W\l401.exe)
 ExpMin= 1.61D-01 ExpMax= 5.48D+03 ExpMxC= 8.25D+02 IAcc=3 IRadAn=         5 AccDes= 0.00D+00
 Harris functional with IExCor=  402 and IRadAn=       5 diagonalized for initial guess.
 HarFok:  IExCor=  402 AccDes= 0.00D+00 IRadAn=         5 IDoV= 1 UseB2=F ITyADJ=14
 ICtDFT=  3500011 ScaDFX=  1.000000  1.000000  1.000000  1.000000
 FoFCou: FMM=F IPFlag=           0 FMFlag=      100000 FMFlg1=           0
         NFxFlg=           0 DoJE=T BraDBF=F KetDBF=T FulRan=T
         wScrn=  0.000000 ICntrl=       500 IOpCl=  0 I1Cent=   200000004 NGrid=           0
         NMat0=    1 NMatS0=      1 NMatT0=    0 NMatD0=    1 NMtDS0=    0 NMtDT0=    0
 Petite list used in FoFCou.
 Harris En= -460.405476823860    
 JPrj=0 DoOrth=F DoCkMO=F.
 Leave Link  401 at Wed Dec 03 17:15:35 2025, MaxMem=   104857600 cpu:               1.0 elap:               1.1
 (Enter D:\Gaussian\G16W\l502.exe)
 Keep R1 ints in memory in canonical form, NReq=104755543.
 FoFCou: FMM=F IPFlag=           0 FMFlag=           0 FMFlg1=           0
         NFxFlg=           0 DoJE=F BraDBF=F KetDBF=F FulRan=T
         wScrn=  0.000000 ICntrl=       600 IOpCl=  0 I1Cent=           0 NGrid=           0
         NMat0=    1 NMatS0=  14196 NMatT0=    0 NMatD0=    1 NMtDS0=    0 NMtDT0=    0
 Symmetry not used in FoFCou.
 Two-electron integral symmetry not used.
 Closed shell SCF:
 Using DIIS extrapolation, IDIIS=  1040.
 NGot=   104857600 LenX=     4027843 LenY=     3999178
 Requested convergence on RMS density matrix=1.00D-07 within 128 cycles.
 Requested convergence on MAX density matrix=1.00D-05.
 Requested convergence on             energy=1.00D-05.
 No special actions if energy rises.
 Integral accuracy reduced to 1.0D-05 until final iterations.

 Cycle   1  Pass 0  IDiag  1:
 CalDSu:  requested number of processors reduced to:   3 ShMem   1 Linda.
 E= -460.238108959915    
 DIIS: error= 2.73D-02 at cycle   1 NSaved=   1.
 NSaved= 1 IEnMin= 1 EnMin= -460.238108959915     IErMin= 1 ErrMin= 2.73D-02
 ErrMax= 2.73D-02  0.00D+00 EMaxC= 1.00D-01 BMatC= 1.71D-01 BMatP= 1.71D-01
 IDIUse=3 WtCom= 7.27D-01 WtEn= 2.73D-01
 Coeff-Com:  0.100D+01
 Coeff-En:   0.100D+01
 Coeff:      0.100D+01
 Gap=     0.112 Goal=   None    Shift=    0.000
 GapD=    0.112 DampG=1.000 DampE=0.500 DampFc=0.5000 IDamp=-1.
 Damping current iteration by 5.00D-01
 RMSDP=4.83D-03 MaxDP=1.22D-01              OVMax= 1.98D-01

 Cycle   2  Pass 0  IDiag  1:
 CalDSu:  requested number of processors reduced to:   3 ShMem   1 Linda.
 E= -460.302631146946     Delta-E=       -0.064522187030 Rises=F Damp=T
 DIIS: error= 5.52D-03 at cycle   2 NSaved=   2.
 NSaved= 2 IEnMin= 2 EnMin= -460.302631146946     IErMin= 2 ErrMin= 5.52D-03
 ErrMax= 5.52D-03  0.00D+00 EMaxC= 1.00D-01 BMatC= 1.58D-02 BMatP= 1.71D-01
 IDIUse=3 WtCom= 9.45D-01 WtEn= 5.52D-02
 Coeff-Com:  0.840D-01 0.916D+00
 Coeff-En:   0.157D+00 0.843D+00
 Coeff:      0.880D-01 0.912D+00
 Gap=     0.132 Goal=   None    Shift=    0.000
 RMSDP=1.69D-03 MaxDP=5.26D-02 DE=-6.45D-02 OVMax= 1.71D-01

 Cycle   3  Pass 0  IDiag  1:
 CalDSu:  requested number of processors reduced to:   3 ShMem   1 Linda.
 E= -460.379331941672     Delta-E=       -0.076700794726 Rises=F Damp=F
 DIIS: error= 8.31D-03 at cycle   3 NSaved=   3.
 NSaved= 3 IEnMin= 3 EnMin= -460.379331941672     IErMin= 2 ErrMin= 5.52D-03
 ErrMax= 8.31D-03  0.00D+00 EMaxC= 1.00D-01 BMatC= 1.49D-02 BMatP= 1.58D-02
 IDIUse=3 WtCom= 9.17D-01 WtEn= 8.31D-02
 Coeff-Com: -0.233D-01 0.497D+00 0.526D+00
 Coeff-En:   0.000D+00 0.000D+00 0.100D+01
 Coeff:     -0.214D-01 0.456D+00 0.566D+00
 Gap=     0.137 Goal=   None    Shift=    0.000
 RMSDP=1.03D-03 MaxDP=3.30D-02 DE=-7.67D-02 OVMax= 6.07D-02

 Cycle   4  Pass 0  IDiag  1:
 CalDSu:  requested number of processors reduced to:   3 ShMem   1 Linda.
 E= -460.390420173517     Delta-E=       -0.011088231845 Rises=F Damp=F
 DIIS: error= 5.64D-03 at cycle   4 NSaved=   4.
 NSaved= 4 IEnMin= 4 EnMin= -460.390420173517     IErMin= 2 ErrMin= 5.52D-03
 ErrMax= 5.64D-03  0.00D+00 EMaxC= 1.00D-01 BMatC= 4.04D-03 BMatP= 1.49D-02
 IDIUse=3 WtCom= 9.44D-01 WtEn= 5.64D-02
 Coeff-Com: -0.202D-01 0.127D+00 0.360D+00 0.533D+00
 Coeff-En:   0.000D+00 0.000D+00 0.251D+00 0.749D+00
 Coeff:     -0.191D-01 0.119D+00 0.354D+00 0.546D+00
 Gap=     0.134 Goal=   None    Shift=    0.000
 RMSDP=4.14D-04 MaxDP=1.31D-02 DE=-1.11D-02 OVMax= 3.01D-02

 Cycle   5  Pass 0  IDiag  1:
 CalDSu:  requested number of processors reduced to:   3 ShMem   1 Linda.
 E= -460.394256108972     Delta-E=       -0.003835935455 Rises=F Damp=F
 DIIS: error= 1.24D-03 at cycle   5 NSaved=   5.
 NSaved= 5 IEnMin= 5 EnMin= -460.394256108972     IErMin= 5 ErrMin= 1.24D-03
 ErrMax= 1.24D-03  0.00D+00 EMaxC= 1.00D-01 BMatC= 3.58D-04 BMatP= 4.04D-03
 IDIUse=3 WtCom= 9.88D-01 WtEn= 1.24D-02
 Coeff-Com: -0.884D-02 0.357D-01 0.177D+00 0.337D+00 0.459D+00
 Coeff-En:   0.000D+00 0.000D+00 0.000D+00 0.172D-01 0.983D+00
 Coeff:     -0.873D-02 0.353D-01 0.175D+00 0.333D+00 0.466D+00
 Gap=     0.135 Goal=   None    Shift=    0.000
 RMSDP=1.26D-04 MaxDP=3.35D-03 DE=-3.84D-03 OVMax= 7.79D-03

 Cycle   6  Pass 0  IDiag  1:
 CalDSu:  requested number of processors reduced to:   3 ShMem   1 Linda.
 E= -460.394591918589     Delta-E=       -0.000335809617 Rises=F Damp=F
 DIIS: error= 2.67D-04 at cycle   6 NSaved=   6.
 NSaved= 6 IEnMin= 6 EnMin= -460.394591918589     IErMin= 6 ErrMin= 2.67D-04
 ErrMax= 2.67D-04  0.00D+00 EMaxC= 1.00D-01 BMatC= 2.23D-05 BMatP= 3.58D-04
 IDIUse=3 WtCom= 9.97D-01 WtEn= 2.67D-03
 EnCoef did     1 forward-backward iterations
 Coeff-Com: -0.282D-02 0.746D-02 0.586D-01 0.123D+00 0.260D+00 0.554D+00
 Coeff-En:   0.000D+00 0.000D+00 0.000D+00 0.000D+00 0.879D-03 0.999D+00
 Coeff:     -0.281D-02 0.744D-02 0.584D-01 0.123D+00 0.259D+00 0.555D+00
 Gap=     0.136 Goal=   None    Shift=    0.000
 RMSDP=3.18D-05 MaxDP=1.01D-03 DE=-3.36D-04 OVMax= 2.04D-03

 Cycle   7  Pass 0  IDiag  1:
 CalDSu:  requested number of processors reduced to:   3 ShMem   1 Linda.
 E= -460.394610862943     Delta-E=       -0.000018944354 Rises=F Damp=F
 DIIS: error= 7.23D-05 at cycle   7 NSaved=   7.
 NSaved= 7 IEnMin= 7 EnMin= -460.394610862943     IErMin= 7 ErrMin= 7.23D-05
 ErrMax= 7.23D-05  0.00D+00 EMaxC= 1.00D-01 BMatC= 2.75D-06 BMatP= 2.23D-05
 IDIUse=1 WtCom= 1.00D+00 WtEn= 0.00D+00
 Coeff-Com: -0.806D-03 0.743D-03 0.186D-01 0.436D-01 0.119D+00 0.336D+00
 Coeff-Com:  0.483D+00
 Coeff:     -0.806D-03 0.743D-03 0.186D-01 0.436D-01 0.119D+00 0.336D+00
 Coeff:      0.483D+00
 Gap=     0.136 Goal=   None    Shift=    0.000
 RMSDP=1.01D-05 MaxDP=2.83D-04 DE=-1.89D-05 OVMax= 5.86D-04

 Cycle   8  Pass 0  IDiag  1:
 CalDSu:  requested number of processors reduced to:   3 ShMem   1 Linda.
 E= -460.394613152882     Delta-E=       -0.000002289939 Rises=F Damp=F
 DIIS: error= 3.03D-05 at cycle   8 NSaved=   8.
 NSaved= 8 IEnMin= 8 EnMin= -460.394613152882     IErMin= 8 ErrMin= 3.03D-05
 ErrMax= 3.03D-05  0.00D+00 EMaxC= 1.00D-01 BMatC= 1.47D-07 BMatP= 2.75D-06
 IDIUse=1 WtCom= 1.00D+00 WtEn= 0.00D+00
 Coeff-Com: -0.325D-03 0.951D-04 0.717D-02 0.176D-01 0.529D-01 0.156D+00
 Coeff-Com:  0.273D+00 0.494D+00
 Coeff:     -0.325D-03 0.951D-04 0.717D-02 0.176D-01 0.529D-01 0.156D+00
 Coeff:      0.273D+00 0.494D+00
 Gap=     0.136 Goal=   None    Shift=    0.000
 RMSDP=2.57D-06 MaxDP=8.43D-05 DE=-2.29D-06 OVMax= 1.21D-04

 Initial convergence to 1.0D-05 achieved.  Increase integral accuracy.
 Cycle   9  Pass 1  IDiag  1:
 CalDSu:  requested number of processors reduced to:   3 ShMem   1 Linda.
 E= -460.394625063801     Delta-E=       -0.000011910919 Rises=F Damp=F
 DIIS: error= 9.55D-06 at cycle   1 NSaved=   1.
 NSaved= 1 IEnMin= 1 EnMin= -460.394625063801     IErMin= 1 ErrMin= 9.55D-06
 ErrMax= 9.55D-06  0.00D+00 EMaxC= 1.00D-01 BMatC= 1.91D-08 BMatP= 1.91D-08
 IDIUse=1 WtCom= 1.00D+00 WtEn= 0.00D+00
 Coeff-Com:  0.100D+01
 Coeff:      0.100D+01
 Gap=     0.136 Goal=   None    Shift=    0.000
 RMSDP=2.57D-06 MaxDP=8.43D-05 DE=-1.19D-05 OVMax= 8.99D-05

 Cycle  10  Pass 1  IDiag  1:
 CalDSu:  requested number of processors reduced to:   3 ShMem   1 Linda.
 E= -460.394625028771     Delta-E=        0.000000035030 Rises=F Damp=F
 DIIS: error= 1.99D-05 at cycle   2 NSaved=   2.
 NSaved= 2 IEnMin= 1 EnMin= -460.394625063801     IErMin= 1 ErrMin= 9.55D-06
 ErrMax= 1.99D-05  0.00D+00 EMaxC= 1.00D-01 BMatC= 6.24D-08 BMatP= 1.91D-08
 IDIUse=1 WtCom= 1.00D+00 WtEn= 0.00D+00
 Coeff-Com:  0.649D+00 0.351D+00
 Coeff:      0.649D+00 0.351D+00
 Gap=     0.136 Goal=   None    Shift=    0.000
 RMSDP=1.27D-06 MaxDP=5.04D-05 DE= 3.50D-08 OVMax= 6.65D-05

 Cycle  11  Pass 1  IDiag  1:
 CalDSu:  requested number of processors reduced to:   3 ShMem   1 Linda.
 E= -460.394625080793     Delta-E=       -0.000000052021 Rises=F Damp=F
 DIIS: error= 1.60D-06 at cycle   3 NSaved=   3.
 NSaved= 3 IEnMin= 3 EnMin= -460.394625080793     IErMin= 3 ErrMin= 1.60D-06
 ErrMax= 1.60D-06  0.00D+00 EMaxC= 1.00D-01 BMatC= 7.23D-10 BMatP= 1.91D-08
 IDIUse=1 WtCom= 1.00D+00 WtEn= 0.00D+00
 Coeff-Com:  0.204D+00 0.145D+00 0.651D+00
 Coeff:      0.204D+00 0.145D+00 0.651D+00
 Gap=     0.136 Goal=   None    Shift=    0.000
 RMSDP=2.23D-07 MaxDP=7.04D-06 DE=-5.20D-08 OVMax= 1.22D-05

 Cycle  12  Pass 1  IDiag  1:
 CalDSu:  requested number of processors reduced to:   3 ShMem   1 Linda.
 E= -460.394625081155     Delta-E=       -0.000000000363 Rises=F Damp=F
 DIIS: error= 8.07D-07 at cycle   4 NSaved=   4.
 NSaved= 4 IEnMin= 4 EnMin= -460.394625081155     IErMin= 4 ErrMin= 8.07D-07
 ErrMax= 8.07D-07  0.00D+00 EMaxC= 1.00D-01 BMatC= 2.92D-10 BMatP= 7.23D-10
 IDIUse=1 WtCom= 1.00D+00 WtEn= 0.00D+00
 Coeff-Com:  0.708D-02 0.267D-01 0.417D+00 0.549D+00
 Coeff:      0.708D-02 0.267D-01 0.417D+00 0.549D+00
 Gap=     0.136 Goal=   None    Shift=    0.000
 RMSDP=1.01D-07 MaxDP=2.80D-06 DE=-3.63D-10 OVMax= 7.07D-06

 Cycle  13  Pass 1  IDiag  1:
 CalDSu:  requested number of processors reduced to:   3 ShMem   1 Linda.
 E= -460.394625081393     Delta-E=       -0.000000000238 Rises=F Damp=F
 DIIS: error= 2.89D-07 at cycle   5 NSaved=   5.
 NSaved= 5 IEnMin= 5 EnMin= -460.394625081393     IErMin= 5 ErrMin= 2.89D-07
 ErrMax= 2.89D-07  0.00D+00 EMaxC= 1.00D-01 BMatC= 2.08D-11 BMatP= 2.92D-10
 IDIUse=1 WtCom= 1.00D+00 WtEn= 0.00D+00
 Coeff-Com: -0.877D-02 0.613D-02 0.199D+00 0.321D+00 0.483D+00
 Coeff:     -0.877D-02 0.613D-02 0.199D+00 0.321D+00 0.483D+00
 Gap=     0.136 Goal=   None    Shift=    0.000
 RMSDP=3.27D-08 MaxDP=7.54D-07 DE=-2.38D-10 OVMax= 1.73D-06

 SCF Done:  E(RB3LYP) =  -460.394625081     A.U. after   13 cycles
            NFock= 13  Conv=0.33D-07     -V/T= 2.0095
 KE= 4.560590457337D+02 PE=-2.086292230111D+03 EE= 6.556086864070D+02
 Leave Link  502 at Wed Dec 03 17:15:52 2025, MaxMem=   104857600 cpu:              17.0 elap:              16.6
 (Enter D:\Gaussian\G16W\l601.exe)
 Copying SCF densities to generalized density rwf, IOpCl= 0 IROHF=0.

 **********************************************************************

            Population analysis using the SCF density.

 **********************************************************************

 Orbital symmetries:
       Occupied  (A) (A) (A) (A) (A) (A) (A) (A) (A) (A) (A) (A)
                 (A) (A) (A) (A) (A) (A) (A) (A) (A) (A) (A) (A)
                 (A) (A) (A) (A) (A) (A) (A) (A) (A) (A) (A) (A)
       Virtual   (A) (A) (A) (A) (A) (A) (A) (A) (A) (A) (A) (A)
                 (A) (A) (A) (A) (A) (A) (A) (A) (A) (A) (A) (A)
                 (A) (A) (A) (A) (A) (A) (A) (A) (A) (A) (A) (A)
                 (A) (A) (A) (A) (A) (A) (A) (A) (A) (A) (A) (A)
                 (A) (A) (A) (A) (A) (A) (A) (A) (A) (A) (A) (A)
                 (A) (A) (A) (A) (A) (A) (A) (A) (A) (A) (A) (A)
                 (A) (A) (A) (A) (A) (A) (A) (A) (A) (A) (A) (A)
                 (A) (A) (A) (A) (A) (A) (A) (A) (A) (A) (A) (A)
                 (A) (A) (A) (A) (A) (A) (A) (A) (A) (A) (A) (A)
                 (A) (A) (A) (A) (A) (A) (A) (A) (A) (A) (A) (A)
                 (A) (A) (A) (A) (A) (A) (A) (A) (A) (A) (A) (A)
 The electronic state is 1-A.
 Alpha  occ. eigenvalues --  -19.38610 -19.38061 -10.48088 -10.46321 -10.44761
 Alpha  occ. eigenvalues --  -10.43547 -10.41222 -10.38848 -10.38441 -10.35335
 Alpha  occ. eigenvalues --   -1.28509  -1.25391  -1.05752  -0.96241  -0.95115
 Alpha  occ. eigenvalues --   -0.88067  -0.84762  -0.81337  -0.80297  -0.73774
 Alpha  occ. eigenvalues --   -0.70668  -0.69163  -0.65665  -0.63502  -0.63029
 Alpha  occ. eigenvalues --   -0.61819  -0.59751  -0.59128  -0.57839  -0.55944
 Alpha  occ. eigenvalues --   -0.55056  -0.54237  -0.53267  -0.49015  -0.48070
 Alpha  occ. eigenvalues --   -0.43800
 Alpha virt. eigenvalues --   -0.30236  -0.18568  -0.13125  -0.09885  -0.06892
 Alpha virt. eigenvalues --   -0.05607  -0.03685  -0.02528  -0.01918  -0.01223
 Alpha virt. eigenvalues --    0.00231   0.01286   0.02212   0.03468   0.04645
 Alpha virt. eigenvalues --    0.06147   0.08087   0.11717   0.14149   0.15700
 Alpha virt. eigenvalues --    0.17659   0.26713   0.27395   0.30099   0.32376
 Alpha virt. eigenvalues --    0.34514   0.35915   0.36440   0.38154   0.39380
 Alpha virt. eigenvalues --    0.40717   0.41509   0.42525   0.43230   0.46083
 Alpha virt. eigenvalues --    0.48254   0.50066   0.51520   0.53932   0.56831
 Alpha virt. eigenvalues --    0.57731   0.60759   0.61375   0.64387   0.66265
 Alpha virt. eigenvalues --    0.67957   0.68884   0.69298   0.71569   0.72686
 Alpha virt. eigenvalues --    0.74917   0.75202   0.77016   0.78310   0.80545
 Alpha virt. eigenvalues --    0.81191   0.83442   0.86517   0.87015   0.87457
 Alpha virt. eigenvalues --    0.94964   0.98465   1.00735   1.02139   1.08130
 Alpha virt. eigenvalues --    1.09199   1.12397   1.14596   1.16130   1.19854
 Alpha virt. eigenvalues --    1.22215   1.25818   1.28142   1.30131   1.33267
 Alpha virt. eigenvalues --    1.38193   1.41745   1.46655   1.52450   1.55692
 Alpha virt. eigenvalues --    1.58088   1.63572   1.66716   1.68180   1.68606
 Alpha virt. eigenvalues --    1.69664   1.72329   1.73436   1.75990   1.77979
 Alpha virt. eigenvalues --    1.82391   1.83471   1.86466   1.89685   1.90599
 Alpha virt. eigenvalues --    1.99039   2.01618   2.03275   2.05525   2.07275
 Alpha virt. eigenvalues --    2.08337   2.11995   2.14650   2.16040   2.18366
 Alpha virt. eigenvalues --    2.18983   2.25444   2.28045   2.31331   2.36888
 Alpha virt. eigenvalues --    2.37848   2.46042   2.52095   2.56646   2.58612
 Alpha virt. eigenvalues --    2.63926   2.64422   2.68453   2.76406   2.81009
 Alpha virt. eigenvalues --    2.92581   3.15338   3.61938   3.77948   3.88770
 Alpha virt. eigenvalues --    3.94189   4.01157   4.05015   4.10518   4.18982
 Alpha virt. eigenvalues --    4.27945   4.55804
          Condensed to atoms (all electrons):
               1          2          3          4          5          6
     1  C    4.640173   0.492508  -0.000159  -0.017000  -0.019971   0.483735
     2  C    0.492508   5.088971   0.504114  -0.077082  -0.038483  -0.041099
     3  C   -0.000159   0.504114   4.547860   0.356337  -0.022158  -0.033424
     4  C   -0.017000  -0.077082   0.356337   5.024123   0.393393  -0.028681
     5  C   -0.019971  -0.038483  -0.022158   0.393393   4.972171   0.525995
     6  C    0.483735  -0.041099  -0.033424  -0.028681   0.525995   4.948533
     7  H    0.003060   0.000261   0.002949  -0.035158   0.361257  -0.024327
     8  O    0.000126   0.002647  -0.023304   0.052742  -0.018300   0.001807
     9  O    0.002153  -0.048033   0.331410  -0.059247   0.003698   0.000049
    10  H   -0.039008   0.352489  -0.024679   0.005575  -0.000160   0.004457
    11  C   -0.000271   0.003331  -0.033147   0.264476  -0.035616   0.002614
    12  H    0.000017   0.000004   0.001602  -0.016916  -0.001470  -0.000263
    13  H   -0.000109   0.006315  -0.023607  -0.016088   0.000724  -0.000063
    14  H   -0.000006  -0.000375  -0.004419  -0.020037   0.001824   0.000070
    15  H   -0.036440   0.004826   0.000277   0.003597  -0.031370   0.362977
    16  C    0.363218  -0.056444   0.004725   0.000311   0.006456  -0.048872
    17  H   -0.023364  -0.003074   0.000073   0.000009  -0.000208   0.002064
    18  H   -0.018703  -0.002920  -0.000189  -0.000001  -0.000214   0.000249
    19  H   -0.030906   0.003515  -0.000143   0.000001   0.000301  -0.002412
               7          8          9         10         11         12
     1  C    0.003060   0.000126   0.002153  -0.039008  -0.000271   0.000017
     2  C    0.000261   0.002647  -0.048033   0.352489   0.003331   0.000004
     3  C    0.002949  -0.023304   0.331410  -0.024679  -0.033147   0.001602
     4  C   -0.035158   0.052742  -0.059247   0.005575   0.264476  -0.016916
     5  C    0.361257  -0.018300   0.003698  -0.000160  -0.035616  -0.001470
     6  C   -0.024327   0.001807   0.000049   0.004457   0.002614  -0.000263
     7  H    0.471687  -0.000318  -0.000033   0.000012  -0.001725   0.001504
     8  O   -0.000318   8.253803  -0.011223  -0.000043   0.160106  -0.026077
     9  O   -0.000033  -0.011223   8.108426  -0.001234  -0.000948   0.000141
    10  H    0.000012  -0.000043  -0.001234   0.487377  -0.000096   0.000000
    11  C   -0.001725   0.160106  -0.000948  -0.000096   4.991618   0.369035
    12  H    0.001504  -0.026077   0.000141   0.000000   0.369035   0.469913
    13  H   -0.000021   0.034416   0.230572  -0.000239  -0.000536   0.000404
    14  H    0.000019  -0.030141   0.007190  -0.000001   0.367015  -0.031587
    15  H   -0.004116  -0.000031   0.000002  -0.000098  -0.000099  -0.000005
    16  C   -0.000125   0.000000  -0.000045  -0.005632   0.000001   0.000000
    17  H    0.000002   0.000000   0.000001   0.002203   0.000000   0.000000
    18  H    0.000002   0.000000   0.000000   0.000647   0.000001   0.000000
    19  H   -0.000004   0.000000   0.000000   0.000056   0.000000   0.000000
              13         14         15         16         17         18
     1  C   -0.000109  -0.000006  -0.036440   0.363218  -0.023364  -0.018703
     2  C    0.006315  -0.000375   0.004826  -0.056444  -0.003074  -0.002920
     3  C   -0.023607  -0.004419   0.000277   0.004725   0.000073  -0.000189
     4  C   -0.016088  -0.020037   0.003597   0.000311   0.000009  -0.000001
     5  C    0.000724   0.001824  -0.031370   0.006456  -0.000208  -0.000214
     6  C   -0.000063   0.000070   0.362977  -0.048872   0.002064   0.000249
     7  H   -0.000021   0.000019  -0.004116  -0.000125   0.000002   0.000002
     8  O    0.034416  -0.030141  -0.000031   0.000000   0.000000   0.000000
     9  O    0.230572   0.007190   0.000002  -0.000045   0.000001   0.000000
    10  H   -0.000239  -0.000001  -0.000098  -0.005632   0.002203   0.000647
    11  C   -0.000536   0.367015  -0.000099   0.000001   0.000000   0.000001
    12  H    0.000404  -0.031587  -0.000005   0.000000   0.000000   0.000000
    13  H    0.311041  -0.003951   0.000000   0.000003   0.000000   0.000000
    14  H   -0.003951   0.488666   0.000001   0.000000   0.000000   0.000000
    15  H    0.000000   0.000001   0.491447  -0.006467   0.000063   0.000145
    16  C    0.000003   0.000000  -0.006467   5.198437   0.364759   0.360284
    17  H    0.000000   0.000000   0.000063   0.364759   0.471209  -0.018915
    18  H    0.000000   0.000000   0.000145   0.360284  -0.018915   0.462282
    19  H    0.000000   0.000000   0.004753   0.371672  -0.022901  -0.021228
              19
     1  C   -0.030906
     2  C    0.003515
     3  C   -0.000143
     4  C    0.000001
     5  C    0.000301
     6  C   -0.002412
     7  H   -0.000004
     8  O    0.000000
     9  O    0.000000
    10  H    0.000056
    11  C    0.000000
    12  H    0.000000
    13  H    0.000000
    14  H    0.000000
    15  H    0.004753
    16  C    0.371672
    17  H   -0.022901
    18  H   -0.021228
    19  H    0.485086
 Mulliken charges:
               1
     1  C    0.200946
     2  C   -0.191470
     3  C    0.415883
     4  C    0.169647
     5  C   -0.097868
     6  C   -0.153408
     7  H    0.225074
     8  O   -0.396210
     9  O   -0.562880
    10  H    0.218373
    11  C   -0.085758
    12  H    0.233698
    13  H    0.461139
    14  H    0.225733
    15  H    0.210540
    16  C   -0.552283
    17  H    0.228079
    18  H    0.238560
    19  H    0.212208
 Sum of Mulliken charges =   1.00000
 Mulliken charges with hydrogens summed into heavy atoms:
               1
     1  C    0.200946
     2  C    0.026903
     3  C    0.415883
     4  C    0.169647
     5  C    0.127205
     6  C    0.057131
     8  O   -0.396210
     9  O   -0.101742
    11  C    0.373673
    16  C    0.126564
 Electronic spatial extent (au):  <R**2>=           1417.6061
 Charge=              1.0000 electrons
 Dipole moment (field-independent basis, Debye):
    X=              1.1832    Y=             -1.3856    Z=              1.4880  Tot=              2.3524
 Quadrupole moment (field-independent basis, Debye-Ang):
   XX=            -27.7459   YY=            -45.9084   ZZ=            -55.3725
   XY=              0.5810   XZ=             -3.9676   YZ=             -1.8314
 Traceless Quadrupole moment (field-independent basis, Debye-Ang):
   XX=             15.2630   YY=             -2.8995   ZZ=            -12.3636
   XY=              0.5810   XZ=             -3.9676   YZ=             -1.8314
 Octapole moment (field-independent basis, Debye-Ang**2):
  XXX=             12.0644  YYY=            -12.2139  ZZZ=              0.5277  XYY=             -3.0419
  XXY=              6.7752  XXZ=             13.0677  XZZ=             -7.0137  YZZ=              3.5124
  YYZ=             -2.4897  XYZ=              6.9486
 Hexadecapole moment (field-independent basis, Debye-Ang**3):
 XXXX=           -959.7788 YYYY=           -422.1834 ZZZZ=            -99.2551 XXXY=            -11.8071
 XXXZ=            -20.9722 YYYX=              4.6184 YYYZ=             -2.5199 ZZZX=              2.9480
 ZZZY=             -1.7789 XXYY=           -232.4500 XXZZ=           -203.0203 YYZZ=            -94.9193
 XXYZ=            -13.4687 YYXZ=             -2.0116 ZZXY=              0.8490
 N-N= 5.142298728885D+02 E-N=-2.086292187621D+03  KE= 4.560590457337D+02
 No NMR shielding tensors so no spin-rotation constants.
 Leave Link  601 at Wed Dec 03 17:15:52 2025, MaxMem=   104857600 cpu:               0.0 elap:               0.2
 (Enter D:\Gaussian\G16W\l9999.exe)
 1|1|UNPC-PC-20250526LCFF|SP|RB3LYP|6-31G(d)|C8H9O2(1+)|ADMINISTRATOR|0
 3-Dec-2025|0||#P B3LYP/6-31G* SCF=conver=7 out=wfn||Generated by Multi
 wfn (http://sobereva.com/multiwfn)||1,1|C,0,1.839306,-0.031101,0.01769
 9|C,0,0.966067,1.084398,0.040042|C,0,-0.390624,0.922094,0.008423|C,0,-
 1.002799,-0.420484,0.043395|C,0,-0.074053,-1.539323,-0.120504|C,0,1.27
 7699,-1.327213,-0.098569|H,0,-0.492789,-2.534005,-0.21485|O,0,-2.30988
 5,-0.459347,-0.694849|O,0,-1.236106,1.981111,-0.05952|H,0,1.362623,2.0
 93867,0.033573|C,0,-2.316924,-0.610426,0.721332|H,0,-2.568916,-1.60456
 4,1.084907|H,0,-2.057528,1.64687,-0.454565|H,0,-2.746892,0.214089,1.28
 7357|H,0,1.946246,-2.178376,-0.178804|C,0,3.327632,0.171663,0.08233|H,
 0,3.654378,0.963045,-0.599866|H,0,3.645957,0.468926,1.089294|H,0,3.867
 032,-0.741609,-0.176986||Version=EM64W-G16RevA.03|State=1-A|HF=-460.39
 46251|RMSD=3.268e-008|Dipole=0.4655074,-0.5451444,0.585406|Quadrupole=
 11.3476921,-2.1556834,-9.1920087,0.4319928,-2.9497967,-1.3616188|PG=C0
 1 [X(C8H9O2)]||@

 Writing a WFN file to "N-1.wfn"


 WHEN YOU REACH FOR THE STARS, YOU MAY NOT QUITE GET ONE,
 BUT YOU WON'T COME UP WITH A HANDFUL OF MUD, EITHER.

                                         -- LEO BURNETT (AD AGENCY HEAD)
 Job cpu time:       0 days  0 hours  0 minutes 19.0 seconds.
 Elapsed time:       0 days  0 hours  0 minutes 18.8 seconds.
 File lengths (MBytes):  RWF=     15 Int=      0 D2E=      0 Chk=      3 Scr=      1
 Normal termination of Gaussian 16 at Wed Dec 03 17:15:52 2025.
