 Generated by Multiwfn (http://sobereva.com/multiwfn)
GAUSSIAN             36 MOL ORBITALS    316 PRIMITIVES       19 NUCLEI
  C    1    (CENTRE  1)   3.47578443 -0.05877184  0.03344637  CHARGE =  6.0
  C    2    (CENTRE  2)   1.82560151  2.04921547  0.07566852  CHARGE =  6.0
  C    3    (CENTRE  3)  -0.73817286  1.74250491  0.01591727  CHARGE =  6.0
  C    4    (CENTRE  4)  -1.89501551 -0.79460001  0.08200477  CHARGE =  6.0
  C    5    (CENTRE  5)  -0.13993956 -2.90889899 -0.22771945  CHARGE =  6.0
  C    6    (CENTRE  6)   2.41450143 -2.50806874 -0.18626831  CHARGE =  6.0
  H    7    (CENTRE  7)  -0.93123560 -4.78857569 -0.40600755  CHARGE =  1.0
  O    8    (CENTRE  8)  -4.36505006 -0.86804086 -1.31307420  CHARGE =  8.0
  O    9    (CENTRE  9)  -2.33590263  3.74375673 -0.11247640  CHARGE =  8.0
  H   10    (CENTRE 10)   2.57498341  3.95683554  0.06344388  CHARGE =  1.0
  C   11    (CENTRE 11)  -4.37835179 -1.15353880  1.36312003  CHARGE =  6.0
  H   12    (CENTRE 12)  -4.85454733 -3.03218743  2.05017720  CHARGE =  1.0
  H   13    (CENTRE 13)  -3.88816514  3.11213251 -0.85900325  CHARGE =  1.0
  H   14    (CENTRE 14)  -5.19087383  0.40456860  2.43275226  CHARGE =  1.0
  H   15    (CENTRE 15)   3.67787245 -4.11653347 -0.33789049  CHARGE =  1.0
  C   16    (CENTRE 16)   6.28831289  0.32439707  0.15558126  CHARGE =  6.0
  H   17    (CENTRE 17)   6.90577308  1.81989242 -1.13358235  CHARGE =  1.0
  H   18    (CENTRE 18)   6.88985986  0.88614283  2.05846743  CHARGE =  1.0
  H   19    (CENTRE 19)   7.30763146 -1.40143671 -0.33445496  CHARGE =  1.0
CENTRE ASSIGNMENTS    1  1  1  1  1  1  1  1  1  1  1  1  1  1  1  1  1  1  1  1
CENTRE ASSIGNMENTS    1  1  1  1  1  1  1  1  2  2  2  2  2  2  2  2  2  2  2  2
CENTRE ASSIGNMENTS    2  2  2  2  2  2  2  2  2  2  2  2  2  2  2  2  3  3  3  3
CENTRE ASSIGNMENTS    3  3  3  3  3  3  3  3  3  3  3  3  3  3  3  3  3  3  3  3
CENTRE ASSIGNMENTS    3  3  3  3  4  4  4  4  4  4  4  4  4  4  4  4  4  4  4  4
CENTRE ASSIGNMENTS    4  4  4  4  4  4  4  4  4  4  4  4  5  5  5  5  5  5  5  5
CENTRE ASSIGNMENTS    5  5  5  5  5  5  5  5  5  5  5  5  5  5  5  5  5  5  5  5
CENTRE ASSIGNMENTS    6  6  6  6  6  6  6  6  6  6  6  6  6  6  6  6  6  6  6  6
CENTRE ASSIGNMENTS    6  6  6  6  6  6  6  6  7  7  7  7  8  8  8  8  8  8  8  8
CENTRE ASSIGNMENTS    8  8  8  8  8  8  8  8  8  8  8  8  8  8  8  8  8  8  8  8
CENTRE ASSIGNMENTS    9  9  9  9  9  9  9  9  9  9  9  9  9  9  9  9  9  9  9  9
CENTRE ASSIGNMENTS    9  9  9  9  9  9  9  9 10 10 10 10 11 11 11 11 11 11 11 11
CENTRE ASSIGNMENTS   11 11 11 11 11 11 11 11 11 11 11 11 11 11 11 11 11 11 11 11
CENTRE ASSIGNMENTS   12 12 12 12 13 13 13 13 14 14 14 14 15 15 15 15 16 16 16 16
CENTRE ASSIGNMENTS   16 16 16 16 16 16 16 16 16 16 16 16 16 16 16 16 16 16 16 16
CENTRE ASSIGNMENTS   16 16 16 16 17 17 17 17 18 18 18 18 19 19 19 19
TYPE ASSIGNMENTS      1  1  1  1  1  1  1  1  1  2  2  2  3  3  3  4  4  4  1  2
TYPE ASSIGNMENTS      3  4  5  6  7  8  9 10  1  1  1  1  1  1  1  1  1  2  2  2
TYPE ASSIGNMENTS      3  3  3  4  4  4  1  2  3  4  5  6  7  8  9 10  1  1  1  1
TYPE ASSIGNMENTS      1  1  1  1  1  2  2  2  3  3  3  4  4  4  1  2  3  4  5  6
TYPE ASSIGNMENTS      7  8  9 10  1  1  1  1  1  1  1  1  1  2  2  2  3  3  3  4
TYPE ASSIGNMENTS      4  4  1  2  3  4  5  6  7  8  9 10  1  1  1  1  1  1  1  1
TYPE ASSIGNMENTS      1  2  2  2  3  3  3  4  4  4  1  2  3  4  5  6  7  8  9 10
TYPE ASSIGNMENTS      1  1  1  1  1  1  1  1  1  2  2  2  3  3  3  4  4  4  1  2
TYPE ASSIGNMENTS      3  4  5  6  7  8  9 10  1  1  1  1  1  1  1  1  1  1  1  1
TYPE ASSIGNMENTS      1  2  2  2  3  3  3  4  4  4  1  2  3  4  5  6  7  8  9 10
TYPE ASSIGNMENTS      1  1  1  1  1  1  1  1  1  2  2  2  3  3  3  4  4  4  1  2
TYPE ASSIGNMENTS      3  4  5  6  7  8  9 10  1  1  1  1  1  1  1  1  1  1  1  1
TYPE ASSIGNMENTS      1  2  2  2  3  3  3  4  4  4  1  2  3  4  5  6  7  8  9 10
TYPE ASSIGNMENTS      1  1  1  1  1  1  1  1  1  1  1  1  1  1  1  1  1  1  1  1
TYPE ASSIGNMENTS      1  1  1  1  1  2  2  2  3  3  3  4  4  4  1  2  3  4  5  6
TYPE ASSIGNMENTS      7  8  9 10  1  1  1  1  1  1  1  1  1  1  1  1
EXPONENTS  0.3047525D+04 0.4573695D+03 0.1039487D+03 0.2921016D+02 0.9286663D+01
EXPONENTS  0.3163927D+01 0.7868272D+01 0.1881289D+01 0.5442493D+00 0.7868272D+01
EXPONENTS  0.1881289D+01 0.5442493D+00 0.7868272D+01 0.1881289D+01 0.5442493D+00
EXPONENTS  0.7868272D+01 0.1881289D+01 0.5442493D+00 0.1687145D+00 0.1687145D+00
EXPONENTS  0.1687145D+00 0.1687145D+00 0.8000000D+00 0.8000000D+00 0.8000000D+00
EXPONENTS  0.8000000D+00 0.8000000D+00 0.8000000D+00 0.3047525D+04 0.4573695D+03
EXPONENTS  0.1039487D+03 0.2921016D+02 0.9286663D+01 0.3163927D+01 0.7868272D+01
EXPONENTS  0.1881289D+01 0.5442493D+00 0.7868272D+01 0.1881289D+01 0.5442493D+00
EXPONENTS  0.7868272D+01 0.1881289D+01 0.5442493D+00 0.7868272D+01 0.1881289D+01
EXPONENTS  0.5442493D+00 0.1687145D+00 0.1687145D+00 0.1687145D+00 0.1687145D+00
EXPONENTS  0.8000000D+00 0.8000000D+00 0.8000000D+00 0.8000000D+00 0.8000000D+00
EXPONENTS  0.8000000D+00 0.3047525D+04 0.4573695D+03 0.1039487D+03 0.2921016D+02
EXPONENTS  0.9286663D+01 0.3163927D+01 0.7868272D+01 0.1881289D+01 0.5442493D+00
EXPONENTS  0.7868272D+01 0.1881289D+01 0.5442493D+00 0.7868272D+01 0.1881289D+01
EXPONENTS  0.5442493D+00 0.7868272D+01 0.1881289D+01 0.5442493D+00 0.1687145D+00
EXPONENTS  0.1687145D+00 0.1687145D+00 0.1687145D+00 0.8000000D+00 0.8000000D+00
EXPONENTS  0.8000000D+00 0.8000000D+00 0.8000000D+00 0.8000000D+00 0.3047525D+04
EXPONENTS  0.4573695D+03 0.1039487D+03 0.2921016D+02 0.9286663D+01 0.3163927D+01
EXPONENTS  0.7868272D+01 0.1881289D+01 0.5442493D+00 0.7868272D+01 0.1881289D+01
EXPONENTS  0.5442493D+00 0.7868272D+01 0.1881289D+01 0.5442493D+00 0.7868272D+01
EXPONENTS  0.1881289D+01 0.5442493D+00 0.1687145D+00 0.1687145D+00 0.1687145D+00
EXPONENTS  0.1687145D+00 0.8000000D+00 0.8000000D+00 0.8000000D+00 0.8000000D+00
EXPONENTS  0.8000000D+00 0.8000000D+00 0.3047525D+04 0.4573695D+03 0.1039487D+03
EXPONENTS  0.2921016D+02 0.9286663D+01 0.3163927D+01 0.7868272D+01 0.1881289D+01
EXPONENTS  0.5442493D+00 0.7868272D+01 0.1881289D+01 0.5442493D+00 0.7868272D+01
EXPONENTS  0.1881289D+01 0.5442493D+00 0.7868272D+01 0.1881289D+01 0.5442493D+00
EXPONENTS  0.1687145D+00 0.1687145D+00 0.1687145D+00 0.1687145D+00 0.8000000D+00
EXPONENTS  0.8000000D+00 0.8000000D+00 0.8000000D+00 0.8000000D+00 0.8000000D+00
EXPONENTS  0.3047525D+04 0.4573695D+03 0.1039487D+03 0.2921016D+02 0.9286663D+01
EXPONENTS  0.3163927D+01 0.7868272D+01 0.1881289D+01 0.5442493D+00 0.7868272D+01
EXPONENTS  0.1881289D+01 0.5442493D+00 0.7868272D+01 0.1881289D+01 0.5442493D+00
EXPONENTS  0.7868272D+01 0.1881289D+01 0.5442493D+00 0.1687145D+00 0.1687145D+00
EXPONENTS  0.1687145D+00 0.1687145D+00 0.8000000D+00 0.8000000D+00 0.8000000D+00
EXPONENTS  0.8000000D+00 0.8000000D+00 0.8000000D+00 0.1873114D+02 0.2825394D+01
EXPONENTS  0.6401217D+00 0.1612778D+00 0.5484672D+04 0.8252349D+03 0.1880470D+03
EXPONENTS  0.5296450D+02 0.1689757D+02 0.5799635D+01 0.1553962D+02 0.3599934D+01
EXPONENTS  0.1013762D+01 0.1553962D+02 0.3599934D+01 0.1013762D+01 0.1553962D+02
EXPONENTS  0.3599934D+01 0.1013762D+01 0.1553962D+02 0.3599934D+01 0.1013762D+01
EXPONENTS  0.2700058D+00 0.2700058D+00 0.2700058D+00 0.2700058D+00 0.8000000D+00
EXPONENTS  0.8000000D+00 0.8000000D+00 0.8000000D+00 0.8000000D+00 0.8000000D+00
EXPONENTS  0.5484672D+04 0.8252349D+03 0.1880470D+03 0.5296450D+02 0.1689757D+02
EXPONENTS  0.5799635D+01 0.1553962D+02 0.3599934D+01 0.1013762D+01 0.1553962D+02
EXPONENTS  0.3599934D+01 0.1013762D+01 0.1553962D+02 0.3599934D+01 0.1013762D+01
EXPONENTS  0.1553962D+02 0.3599934D+01 0.1013762D+01 0.2700058D+00 0.2700058D+00
EXPONENTS  0.2700058D+00 0.2700058D+00 0.8000000D+00 0.8000000D+00 0.8000000D+00
EXPONENTS  0.8000000D+00 0.8000000D+00 0.8000000D+00 0.1873114D+02 0.2825394D+01
EXPONENTS  0.6401217D+00 0.1612778D+00 0.3047525D+04 0.4573695D+03 0.1039487D+03
EXPONENTS  0.2921016D+02 0.9286663D+01 0.3163927D+01 0.7868272D+01 0.1881289D+01
EXPONENTS  0.5442493D+00 0.7868272D+01 0.1881289D+01 0.5442493D+00 0.7868272D+01
EXPONENTS  0.1881289D+01 0.5442493D+00 0.7868272D+01 0.1881289D+01 0.5442493D+00
EXPONENTS  0.1687145D+00 0.1687145D+00 0.1687145D+00 0.1687145D+00 0.8000000D+00
EXPONENTS  0.8000000D+00 0.8000000D+00 0.8000000D+00 0.8000000D+00 0.8000000D+00
EXPONENTS  0.1873114D+02 0.2825394D+01 0.6401217D+00 0.1612778D+00 0.1873114D+02
EXPONENTS  0.2825394D+01 0.6401217D+00 0.1612778D+00 0.1873114D+02 0.2825394D+01
EXPONENTS  0.6401217D+00 0.1612778D+00 0.1873114D+02 0.2825394D+01 0.6401217D+00
EXPONENTS  0.1612778D+00 0.3047525D+04 0.4573695D+03 0.1039487D+03 0.2921016D+02
EXPONENTS  0.9286663D+01 0.3163927D+01 0.7868272D+01 0.1881289D+01 0.5442493D+00
EXPONENTS  0.7868272D+01 0.1881289D+01 0.5442493D+00 0.7868272D+01 0.1881289D+01
EXPONENTS  0.5442493D+00 0.7868272D+01 0.1881289D+01 0.5442493D+00 0.1687145D+00
EXPONENTS  0.1687145D+00 0.1687145D+00 0.1687145D+00 0.8000000D+00 0.8000000D+00
EXPONENTS  0.8000000D+00 0.8000000D+00 0.8000000D+00 0.8000000D+00 0.1873114D+02
EXPONENTS  0.2825394D+01 0.6401217D+00 0.1612778D+00 0.1873114D+02 0.2825394D+01
EXPONENTS  0.6401217D+00 0.1612778D+00 0.1873114D+02 0.2825394D+01 0.6401217D+00
EXPONENTS  0.1612778D+00
MO    1     MO 0.0        OCC NO =    2.0000000  ORB. ENERGY =  -19.386096
  0.17549443D-05  0.32375295D-05  0.52263765D-05  0.68031893D-05  0.58051737D-05
  0.20043870D-05  0.45490755D-05  0.20966648D-05 -0.58792668D-05 -0.79857614D-04
 -0.61229753D-04 -0.30557938D-04  0.44249949D-04  0.33928055D-04  0.16932477D-04
 -0.66520506D-06 -0.51003705D-06 -0.25454423D-06  0.25429779D-03 -0.46325151D-04
  0.24305710D-04  0.83660133D-07  0.20176175D-04  0.36583739D-04  0.26041772D-04
 -0.14023627D-04 -0.70161150D-06  0.51460454D-05  0.73279460D-05  0.13518629D-04
  0.21823259D-04  0.28407400D-04  0.24240086D-04  0.83695190D-05 -0.62653909D-04
 -0.28877129D-04  0.80974485D-04 -0.11485036D-04 -0.88059971D-05 -0.43948097D-05
 -0.23344405D-04 -0.17899009D-04 -0.89328598D-05 -0.85463545D-05 -0.65528025D-05
 -0.32703077D-05 -0.26750223D-03  0.46446496D-04  0.27858962D-03  0.73121230D-05
 -0.77514157D-04 -0.51724684D-04  0.36331902D-04 -0.13538274D-04 -0.16681278D-04
 -0.75192501D-05 -0.29504417D-04 -0.54429889D-04 -0.87866718D-04 -0.11437636D-03
 -0.97597554D-04 -0.33698090D-04 -0.52990516D-04 -0.24423280D-04  0.68485428D-04
 -0.29954363D-03 -0.22967106D-03 -0.11462195D-03  0.47300282D-03  0.36266856D-03
  0.18099703D-03  0.34569598D-05  0.26505775D-05  0.13228239D-05  0.70955902D-04
  0.31396665D-03 -0.65569166D-03  0.79785441D-05 -0.90782015D-04 -0.32255476D-04
 -0.11436132D-03  0.13091641D-03  0.25056049D-05  0.19939034D-04  0.56084907D-05
  0.10346570D-04  0.16702572D-04  0.21741787D-04  0.18552306D-04  0.64056654D-05
 -0.57643167D-04 -0.26567683D-04  0.74498557D-04  0.62951672D-04  0.48267349D-04
  0.24088790D-04 -0.11968484D-04 -0.91766743D-05 -0.45798036D-05 -0.25738531D-04
 -0.19734673D-04 -0.98489851D-05 -0.33467910D-03 -0.37899079D-03 -0.15732665D-03
  0.33059517D-04 -0.31042933D-04 -0.13765123D-03  0.48855530D-04 -0.48751737D-04
  0.32612199D-04  0.50698541D-05 -0.17847043D-06 -0.32924309D-06 -0.53150044D-06
 -0.69185565D-06 -0.59036168D-06 -0.20383770D-06  0.71570542D-05  0.32986797D-05
 -0.92498423D-05 -0.43083495D-04 -0.33033692D-04 -0.16486127D-04  0.67117446D-04
  0.51461400D-04  0.25682845D-04  0.30949981D-05  0.23730482D-05  0.11843174D-05
  0.23351561D-03  0.96585723D-04  0.10382727D-03  0.10701927D-04  0.10743778D-04
  0.21658691D-04  0.17959004D-04 -0.29172245D-04  0.66061281D-05  0.17724615D-04
  0.78302229D-05  0.14445232D-04  0.23319084D-04  0.30354519D-04  0.25901566D-04
  0.89431882D-05 -0.30335903D-04 -0.13981790D-04  0.39206399D-04 -0.69454616D-05
 -0.53253395D-05 -0.26577176D-05  0.30824630D-04  0.23634371D-04  0.11795208D-04
 -0.22502115D-05 -0.17253195D-05 -0.86105533D-06 -0.21112937D-03  0.80593790D-04
 -0.50666249D-04 -0.20907357D-05 -0.14863546D-04  0.87183230D-05  0.39738192D-04
 -0.37594696D-04 -0.75549439D-05  0.20567684D-05  0.84183674D-05  0.14279145D-04
  0.16256301D-04  0.34828516D-04  0.56869301D-04  0.10466987D-03  0.16937561D-03
  0.22264898D-03  0.19096474D-03  0.65294087D-04 -0.21585022D-07 -0.96311949D-08
  0.28441048D-07  0.20431369D-04  0.15741268D-04  0.69112646D-05 -0.75567697D-04
 -0.58220837D-04 -0.25562083D-04  0.49749967D-04  0.38329667D-04  0.16828788D-04
 -0.60611029D-04 -0.46139524D-04  0.57914072D-04 -0.41996559D-04 -0.31085844D-04
  0.15036665D-05 -0.53338085D-04  0.56208002D-04 -0.74905918D-04 -0.43333623D-05
  0.82563608D+00  0.15196111D+01  0.24590176D+01  0.32324475D+01  0.27724515D+01
  0.94794824D+00 -0.15804055D-01 -0.70517385D-02  0.20823878D-01 -0.77993975D-03
 -0.60090153D-03 -0.26382814D-03 -0.31375061D-02 -0.24172793D-02 -0.10613158D-02
 -0.78678184D-03 -0.60617299D-03 -0.26614259D-03  0.38272934D-02  0.26289006D-03
 -0.21802283D-03  0.24584001D-04 -0.91579735D-02 -0.92022212D-02 -0.92020815D-02
 -0.15207650D-03 -0.74476604D-05 -0.36472000D-04 -0.92488294D-05 -0.15687765D-04
 -0.17859966D-04 -0.12487292D-03 -0.17648339D-05 -0.32557740D-05 -0.52558287D-05
 -0.68415273D-05 -0.58378877D-05 -0.20156823D-05  0.11395109D-04  0.52519953D-05
 -0.14727143D-04 -0.48328053D-04 -0.37054886D-04 -0.18492985D-04  0.26422450D-05
  0.20259059D-05  0.10110690D-05 -0.21051826D-04 -0.16141205D-04 -0.80555925D-05
 -0.15262510D-03 -0.55169836D-04  0.25056717D-04  0.42815704D-04 -0.16719256D-04
  0.41213441D-05  0.22461712D-04  0.55052648D-04  0.51837742D-04 -0.18089328D-05
  0.49127623D-05  0.83329748D-05  0.94867973D-05  0.54121282D-05  0.86756700D-04
  0.14715578D-03  0.16753166D-03 -0.20587287D-03  0.46228458D-05  0.78412214D-05
  0.89269534D-05 -0.21763570D-04 -0.23457934D-05 -0.39789096D-05 -0.45298479D-05
 -0.24776048D-04  0.58868207D-05  0.10860035D-04  0.17531463D-04  0.22820756D-04
  0.19472993D-04  0.67235564D-05 -0.20641094D-04 -0.95134612D-05  0.26676738D-04
  0.54884011D-05  0.42081579D-05  0.21001657D-05  0.11347017D-05  0.87001731D-06
  0.43419961D-06  0.10466408D-05  0.80249774D-06  0.40050262D-06 -0.52675263D-04
  0.18633972D-04 -0.17082644D-05  0.23481973D-06 -0.40578585D-05  0.20983644D-04
  0.21630532D-04 -0.40538425D-05 -0.24937849D-05  0.27594617D-06  0.21511634D-05
  0.36487802D-05  0.41540073D-05  0.59380633D-05  0.26832896D-05  0.45513671D-05
  0.51815706D-05  0.43660537D-05  0.29964308D-05  0.50825138D-05  0.57862623D-05
 -0.99312887D-07
MO    2     MO 0.0        OCC NO =    2.0000000  ORB. ENERGY =  -19.380605
 -0.22998006D-05 -0.42426831D-05 -0.68490061D-05 -0.89153709D-05 -0.76075021D-05
 -0.26266877D-05  0.90336986D-05  0.41636234D-05 -0.11675235D-04  0.11624479D-04
  0.89129130D-05  0.44481683D-05 -0.48152834D-06 -0.36920539D-06 -0.18425936D-06
  0.98424337D-05  0.75465539D-05  0.37662593D-05  0.66662227D-04 -0.50778627D-04
 -0.41327807D-05 -0.18227801D-05 -0.69312945D-06  0.98342817D-06 -0.88338728D-05
 -0.48592580D-05 -0.15023195D-05 -0.11412419D-05  0.34454779D-05  0.63562340D-05
  0.10260932D-04  0.13356685D-04  0.11397284D-04  0.39352082D-05 -0.17155576D-04
 -0.79069895D-05  0.22172024D-04  0.97381525D-05  0.74665977D-05  0.37263555D-05
  0.40168981D-05  0.30799027D-05  0.15370873D-05  0.24893930D-04  0.19087087D-04
  0.95257941D-05 -0.13524336D-03  0.38132539D-04  0.34769594D-04 -0.75281361D-06
 -0.28112690D-05 -0.50846487D-05  0.76382179D-05 -0.82712927D-05 -0.17026909D-04
  0.79968004D-05  0.18883137D-05  0.34835700D-05  0.56235622D-05  0.73202070D-05
  0.62463459D-05  0.21567131D-05 -0.17853174D-04 -0.82285118D-05  0.23073606D-04
 -0.67319161D-04 -0.51616063D-04 -0.25760033D-04 -0.87759432D-05 -0.67288366D-05
 -0.33581611D-05 -0.12444758D-04 -0.95418509D-05 -0.47620523D-05  0.13512832D-03
  0.58918294D-04  0.27209472D-06 -0.12500954D-04 -0.90720165D-05  0.20394684D-04
 -0.22532961D-06 -0.97890763D-04 -0.60799898D-04  0.27290064D-04  0.11030223D-04
  0.20348607D-04  0.32848961D-04  0.42759587D-04  0.36486833D-04  0.12598027D-04
 -0.57241458D-04 -0.26382536D-04  0.73979384D-04 -0.26160031D-03 -0.20057853D-03
 -0.10010274D-03 -0.12861416D-04 -0.98613184D-05 -0.49214890D-05 -0.21421966D-03
 -0.16425005D-03 -0.81972286D-04 -0.28182057D-03  0.10675947D-04  0.14112474D-04
  0.98673391D-04  0.30728400D-03  0.92428674D-04  0.18755192D-03  0.33045718D-04
  0.27688330D-03  0.66503662D-05  0.59630686D-06  0.11000697D-05  0.17758536D-05
  0.23116337D-05  0.19725213D-05  0.68106419D-06 -0.53689785D-05 -0.24745573D-05
  0.69389169D-05 -0.60021668D-04 -0.46020808D-04 -0.22967609D-04  0.27045371D-04
  0.20736675D-04  0.10349054D-04 -0.31940365D-04 -0.24489846D-04 -0.12222150D-04
  0.13084386D-03  0.25732891D-04  0.52471791D-04 -0.13600644D-05  0.16112930D-04
  0.50006783D-05 -0.13441243D-05  0.33662944D-04 -0.27170030D-04 -0.61938608D-04
  0.26470589D-05  0.48833068D-05  0.78831714D-05  0.10261547D-04  0.87561965D-05
  0.30233042D-05 -0.13733251D-04 -0.63296429D-05  0.17748979D-04  0.17705064D-04
  0.13575120D-04  0.67749364D-05 -0.67799382D-05 -0.51984266D-05 -0.25943792D-05
  0.27099261D-04  0.20777995D-04  0.10369676D-04 -0.10494506D-03  0.39286784D-04
 -0.30349408D-04 -0.84690896D-05 -0.16604708D-04  0.30239624D-05  0.49061950D-05
  0.83468928D-05 -0.22956415D-05 -0.13671957D-04  0.76678414D-05  0.13006110D-04
  0.14806997D-04  0.13659611D-04  0.82577545D+00  0.15198676D+01  0.24594327D+01
  0.32329932D+01  0.27729195D+01  0.94810826D+00 -0.16065769D-01 -0.71685149D-02
  0.21168721D-01  0.14757913D-02  0.11370176D-02  0.49921197D-03 -0.84132806D-04
 -0.64819792D-04 -0.28459380D-04  0.29622985D-02  0.22822913D-02  0.10020488D-02
  0.29000009D-02  0.48610664D-04  0.22062893D-04  0.58770567D-04 -0.87775971D-02
 -0.86718405D-02 -0.88512562D-02  0.39673355D-05 -0.13729309D-03  0.22952471D-04
 -0.77383781D-04 -0.14242747D-03 -0.23047453D-03 -0.30296522D-03 -0.25985151D-03
 -0.88847643D-04  0.48194524D-04  0.21504303D-04 -0.63502494D-04  0.10810467D-03
  0.83288822D-04  0.36568279D-04 -0.58283911D-04 -0.44904611D-04 -0.19715543D-04
 -0.14438398D-04 -0.11124007D-04 -0.48840382D-05  0.12908803D-03 -0.89163552D-04
  0.32912008D-05 -0.13937207D-04 -0.46955789D-04 -0.94791903D-04 -0.45596681D-04
  0.84133450D-04  0.30767160D-04 -0.93724215D-05 -0.15363938D-06 -0.26060146D-06
 -0.29668555D-06 -0.99433579D-05  0.47980696D-06  0.88515015D-06  0.14289068D-05
  0.18600121D-05  0.15871517D-05  0.54800533D-06 -0.11981716D-03 -0.55223620D-04
  0.15485279D-03 -0.41306108D-04 -0.31670904D-04 -0.15806001D-04  0.15210835D-04
  0.11662703D-04  0.58205062D-05 -0.39994383D-03 -0.30665156D-03 -0.15304062D-03
 -0.27032905D-03  0.24308672D-04 -0.71615335D-05  0.10649986D-03 -0.18017296D-05
 -0.92141280D-05  0.19473434D-03 -0.14217554D-04  0.76797524D-04 -0.15318744D-04
  0.16391800D-04  0.27803596D-04  0.31653411D-04  0.14091034D-04 -0.10450806D-04
 -0.17726544D-04 -0.20181044D-04 -0.10361773D-03  0.11140525D-04  0.18896440D-04
  0.21512929D-04  0.22206899D-04 -0.14351531D-05 -0.24342914D-05 -0.27713547D-05
 -0.12416291D-04  0.25777120D-06  0.47553752D-06  0.76766501D-06  0.99927175D-06
  0.85268039D-06  0.29441005D-06 -0.76689031D-07 -0.35345904D-07  0.99113605D-07
 -0.96651916D-05 -0.74106558D-05 -0.36984366D-05  0.12919302D-05  0.99057014D-06
  0.49436392D-06 -0.48244699D-05 -0.36990975D-05 -0.18461089D-05  0.22104246D-04
 -0.52692215D-05 -0.36047515D-05  0.15519157D-05  0.19556819D-05  0.68331324D-06
  0.34682834D-05  0.16036593D-05 -0.21466216D-06  0.27121801D-05  0.37442965D-06
  0.63510355D-06  0.72304295D-06  0.81106031D-06 -0.74776010D-06 -0.12683427D-05
 -0.14439633D-05 -0.92063841D-06 -0.30981327D-06 -0.52550195D-06 -0.59826539D-06
 -0.28426832D-05
MO    3     MO 0.0        OCC NO =    2.0000000  ORB. ENERGY =  -10.480877
  0.51844595D-04  0.95643154D-04  0.15439771D-03  0.20097994D-03  0.17149654D-03
  0.59213635D-04 -0.86985627D-04 -0.40091596D-04  0.11242102D-03  0.10331808D-03
  0.79217754D-04  0.39535211D-04 -0.51706317D-04 -0.39645124D-04 -0.19785696D-04
  0.31409052D-04  0.24082469D-04  0.12018840D-04 -0.12514099D-02  0.51315180D-03
 -0.14244903D-03 -0.12246866D-04  0.21583178D-04  0.22059491D-04  0.44809605D-04
 -0.71141599D-05 -0.48140380D-05 -0.21292422D-04  0.17144196D-02  0.31627695D-02
  0.51056906D-02  0.66460921D-02  0.56711224D-02  0.19581023D-02  0.30878061D-03
  0.14231670D-03 -0.39907088D-03  0.37475801D-03  0.28734068D-03  0.14340314D-03
  0.17337105D-03  0.13292992D-03  0.66341348D-04  0.19479042D-05  0.14935294D-05
  0.74537582D-06  0.24836302D-02 -0.53927890D-03 -0.97156605D-03 -0.11159628D-04
 -0.39587572D-03 -0.25941504D-03 -0.35597435D-03  0.14551402D-03 -0.14353504D-04
  0.33319670D-04  0.53255427D+00  0.98245864D+00  0.15859929D+01  0.20644915D+01
  0.17616343D+01  0.60825000D+00 -0.19677860D-01 -0.90695075D-02  0.25431846D-01
 -0.73264009D-03 -0.56174196D-03 -0.28034861D-03  0.60735397D-03  0.46568050D-03
  0.23240721D-03  0.41655167D-04  0.31938540D-04  0.15939570D-04 -0.35163248D-02
 -0.11345641D-02  0.12821915D-02 -0.61410497D-04 -0.96062359D-02 -0.96903568D-02
 -0.10388900D-01 -0.74728588D-03  0.90097903D-04 -0.91663705D-04  0.46266543D-02
  0.85352738D-02  0.13778578D-01  0.17935615D-01  0.15304493D-01  0.52842736D-02
 -0.83592062D-04 -0.38527505D-04  0.10803515D-03 -0.36677705D-03 -0.28122138D-03
 -0.14034918D-03 -0.27911633D-03 -0.21400870D-03 -0.10680534D-03  0.10617429D-03
  0.81407713D-04  0.40628154D-04  0.12567158D-02  0.13053260D-02  0.31202050D-03
 -0.11372597D-03 -0.30093576D-03 -0.53850752D-03 -0.32057967D-03 -0.61354913D-04
 -0.78895510D-04  0.93040951D-04  0.18662241D-04  0.34428190D-04  0.55577774D-04
  0.72345748D-04  0.61732758D-04  0.21314838D-04 -0.58006180D-04 -0.26734996D-04
  0.74967718D-04  0.79112818D-04  0.60658691D-04  0.30272938D-04 -0.18239541D-03
 -0.13984923D-03 -0.69794569D-04  0.27570848D-04  0.21139577D-04  0.10550131D-04
 -0.11829682D-02 -0.28356298D-03 -0.48169328D-03 -0.68974212D-04  0.41553554D-04
  0.10381664D-04  0.14594355D-04  0.14072949D-05 -0.50497441D-04 -0.63028750D-04
 -0.50405881D-04 -0.92989009D-04 -0.15011309D-03 -0.19540264D-03 -0.16673743D-03
 -0.57570428D-04  0.12425005D-03  0.57266733D-04 -0.16058190D-03  0.50227508D-04
  0.38511268D-04  0.19219822D-04 -0.68175891D-04 -0.52272949D-04 -0.26087865D-04
  0.50659853D-05  0.38842762D-05  0.19385261D-05  0.94831003D-03 -0.39224452D-03
  0.30575750D-03  0.30669314D-04  0.57076386D-05 -0.25395732D-04 -0.13378718D-03
  0.58515051D-04 -0.21473106D-05  0.81733438D-06 -0.20150808D-04 -0.34179584D-04
 -0.38912248D-04 -0.13781543D-03 -0.35363379D-04 -0.65087495D-04 -0.10532385D-03
 -0.13845115D-03 -0.11874875D-03 -0.40602214D-04  0.14274205D-03  0.63691226D-04
 -0.18808104D-03 -0.97480664D-04 -0.75103596D-04 -0.32974524D-04 -0.47696701D-04
 -0.36747737D-04 -0.16134236D-04 -0.30850538D-05 -0.23768676D-05 -0.10435729D-05
  0.41460924D-03  0.17709924D-03 -0.41410772D-05  0.68109591D-04 -0.10546100D-03
 -0.96839510D-04 -0.13427715D-03  0.39686152D-04  0.24033997D-03 -0.22877641D-05
  0.11275101D-03  0.20752204D-03  0.33580984D-03  0.44143143D-03  0.37861317D-03
  0.12945427D-03 -0.65986466D-03 -0.29443033D-03  0.86945670D-03 -0.59013355D-04
 -0.45466608D-04 -0.19962290D-04  0.76078925D-04  0.58614710D-04  0.25735015D-04
  0.45505120D-04  0.35059242D-04  0.15392895D-04 -0.16371752D-02 -0.43825678D-03
  0.60763526D-03 -0.48837064D-04  0.30951603D-03  0.27236024D-04  0.92236925D-03
  0.11200638D-02 -0.17511392D-03  0.96055900D-04  0.35912659D-04  0.60914667D-04
  0.69349195D-04  0.30523577D-03 -0.82458309D-05 -0.15211948D-04 -0.24556801D-04
 -0.31965658D-04 -0.27276354D-04 -0.94178695D-05  0.72392085D-04  0.33365446D-04
 -0.93560193D-04  0.11021729D-03  0.84507627D-04  0.42175229D-04 -0.39185541D-04
 -0.30044987D-04 -0.14994554D-04 -0.18969177D-04 -0.14544362D-04 -0.72586558D-05
  0.62891905D-03  0.20668357D-03  0.31904923D-04 -0.16329676D-03  0.16347558D-04
  0.74241731D-06 -0.30337982D-04  0.28646322D-04 -0.23217184D-03  0.33344463D-04
 -0.10637827D-04 -0.18043768D-04 -0.20542192D-04  0.27919701D-04  0.53294567D-04
  0.90397673D-04  0.10291456D-03 -0.43819597D-04 -0.26751923D-04 -0.45376325D-04
 -0.51659342D-04  0.34369411D-04  0.21382229D-04  0.36268307D-04  0.41290186D-04
  0.13858323D-03 -0.22169099D-04 -0.40897658D-04 -0.66021502D-04 -0.85940378D-04
 -0.73333080D-04 -0.25320150D-04  0.59077530D-04  0.27228779D-04 -0.76352340D-04
  0.34878155D-04  0.26742357D-04  0.13346311D-04 -0.61431534D-05 -0.47101804D-05
 -0.23507101D-05 -0.10686723D-04 -0.81939012D-05 -0.40893310D-05 -0.13904298D-05
 -0.24662823D-04  0.62400293D-04  0.17133043D-04  0.13890209D-04 -0.85289631D-04
 -0.50435848D-04 -0.70460949D-04 -0.37608121D-05 -0.27973986D-04 -0.10517305D-04
 -0.17839340D-04 -0.20309458D-04 -0.12570324D-04 -0.98015065D-05 -0.16625210D-04
 -0.18927214D-04 -0.20709935D-04  0.65038083D-06  0.11031690D-05  0.12559189D-05
  0.29369670D-04
MO    4     MO 0.0        OCC NO =    2.0000000  ORB. ENERGY =  -10.463211
 -0.51521556D-04 -0.95047210D-04 -0.15343567D-03 -0.19972765D-03 -0.17042797D-03
 -0.58844681D-04  0.54477120D-04  0.25108455D-04 -0.70406729D-04 -0.18893666D-04
 -0.14486465D-04 -0.72297611D-05 -0.16107939D-04 -0.12350546D-04 -0.61637880D-05
 -0.20951444D-06 -0.16064238D-06 -0.80171807D-07  0.52256891D-03 -0.16582246D-03
  0.27351810D-04 -0.19961519D-04 -0.20519962D-04  0.27877215D-05 -0.56179414D-04
  0.19648543D-05  0.82876063D-05  0.14285251D-04 -0.17401924D-04 -0.32103152D-04
 -0.51824442D-04 -0.67460025D-04 -0.57563761D-04 -0.19875384D-04  0.18221192D-04
  0.83981308D-05 -0.23549235D-04 -0.49803641D-04 -0.38186273D-04 -0.19057627D-04
 -0.62869797D-04 -0.48204573D-04 -0.24057460D-04 -0.26862772D-04 -0.20596670D-04
 -0.10279182D-04  0.30435867D-03 -0.28788363D-03  0.30162139D-03  0.15813944D-04
  0.14115899D-03  0.29544159D-04  0.14108507D-05 -0.10401086D-04 -0.21625226D-05
 -0.33972497D-04 -0.47861210D-02 -0.88294587D-02 -0.14253484D-01 -0.18553801D-01
 -0.15831992D-01 -0.54664064D-02  0.34542843D-03  0.15920765D-03 -0.44643486D-03
  0.25433459D-03  0.19500763D-03  0.97322477D-04  0.33448323D-03  0.25646053D-03
  0.12799178D-03  0.33069904D-04  0.25355905D-04  0.12654374D-04  0.10587145D-02
 -0.83777775D-03 -0.64334007D-03 -0.38154296D-04 -0.11281597D-03 -0.38097007D-03
 -0.10377443D-03 -0.36299275D-04  0.51644709D-04  0.43853095D-05  0.53265979D+00
  0.98265331D+00  0.15863071D+01  0.20649005D+01  0.17619834D+01  0.60837052D+00
 -0.20291179D-01 -0.93521857D-02  0.26224505D-01 -0.16006466D-02 -0.12272743D-02
 -0.61249589D-03  0.11541136D-03  0.88490112D-04  0.44162768D-04 -0.32068528D-03
 -0.24588113D-03 -0.12271192D-03 -0.51661796D-02  0.83012266D-03 -0.34733664D-03
  0.51080113D-04 -0.96451325D-02 -0.96589248D-02 -0.97642225D-02 -0.11768413D-03
 -0.25601439D-03  0.30473208D-04  0.16738121D-02  0.30878565D-02  0.49847579D-02
  0.64886736D-02  0.55367970D-02  0.19117229D-02  0.90901701D-04  0.41896511D-04
 -0.11748219D-03  0.26493516D-03  0.20313548D-03  0.10137884D-03 -0.31014549D-03
 -0.23779989D-03 -0.11867881D-03  0.12743176D-04  0.97706594D-05  0.48762438D-05
  0.72002087D-03 -0.39565347D-03  0.22964425D-03 -0.27848459D-04 -0.29485145D-03
 -0.47002544D-03 -0.22619157D-03  0.22617873D-03  0.10561370D-03 -0.10593730D-03
  0.16692703D-04  0.30794777D-04  0.49712319D-04  0.64710669D-04  0.55217731D-04
  0.19065356D-04 -0.14856037D-04 -0.68471337D-05  0.19200078D-04 -0.34288117D-04
 -0.26289954D-04 -0.13120529D-04  0.58898721D-04  0.45159803D-04  0.22537907D-04
 -0.28568556D-04 -0.21904557D-04 -0.10931909D-04 -0.67961665D-04  0.73825315D-05
 -0.24261193D-03  0.68397759D-05  0.99871327D-04  0.24041559D-04  0.31719459D-04
  0.13035861D-04 -0.32021266D-04  0.16536873D-04 -0.35165262D-04 -0.59646940D-04
 -0.67905933D-04 -0.61197700D-04 -0.12161655D-03 -0.22383938D-03 -0.36221436D-03
 -0.47614092D-03 -0.40838330D-03 -0.13963319D-03  0.28928980D-03  0.12908054D-03
 -0.38117657D-03 -0.40581038D-03 -0.31265502D-03 -0.13727239D-03  0.50256703D-04
  0.38720080D-04  0.17000201D-04  0.38732662D-03  0.29841428D-03  0.13101994D-03
  0.12631625D-02  0.61056616D-03  0.49502294D-04 -0.10540316D-03 -0.46635523D-03
 -0.24813820D-03 -0.60649629D-03  0.14565439D-04 -0.43999757D-03  0.40316333D-04
  0.85837405D-05  0.15798665D-04  0.25565222D-04  0.33606199D-04  0.28823842D-04
  0.98553611D-05 -0.71512830D-05 -0.31908886D-05  0.94227366D-05 -0.80090969D-04
 -0.61705774D-04 -0.27092158D-04  0.74860740D-04  0.57676164D-04  0.25322943D-04
  0.17396716D-04  0.13403232D-04  0.58847406D-05 -0.25267098D-03  0.94596536D-04
  0.14680166D-03  0.40340182D-05  0.16827273D-03  0.49306976D-04 -0.12098474D-03
 -0.15479361D-04  0.21819225D-04 -0.16569808D-04 -0.34986960D-04 -0.59344506D-04
 -0.67561622D-04 -0.81549287D-04  0.47347213D-02  0.87346364D-02  0.14100411D-01
  0.18354546D-01  0.15661967D-01  0.54077009D-02 -0.57560749D-04 -0.26529697D-04
  0.74392039D-04  0.17796483D-03  0.13645215D-03  0.68099185D-04  0.35789430D-04
  0.27441065D-04  0.13695015D-04 -0.11834963D-03 -0.90742988D-04 -0.45287111D-04
  0.15780826D-02  0.42621740D-03  0.15221482D-03 -0.20275710D-03 -0.46374320D-03
 -0.83359394D-04 -0.28599858D-03 -0.16221713D-04  0.34353807D-03  0.64794775D-04
 -0.46302939D-04 -0.78538548D-04 -0.89413361D-04 -0.12840861D-04  0.21463063D-04
  0.36405418D-04  0.41446281D-04 -0.26239840D-05 -0.63057464D-04 -0.10695739D-03
 -0.12176721D-03 -0.98151585D-04 -0.23925325D-04 -0.40581879D-04 -0.46201035D-04
 -0.70354359D-04 -0.63973081D-05 -0.11801784D-04 -0.19051739D-04 -0.24799704D-04
 -0.21161632D-04 -0.73066030D-05  0.15324948D-04  0.70632547D-05 -0.19806103D-04
  0.36059002D-04  0.27647756D-04  0.13798168D-04 -0.30960821D-04 -0.23738794D-04
 -0.11847322D-04 -0.68190342D-05 -0.52284029D-05 -0.26093395D-05  0.44149114D-04
 -0.28260484D-04  0.15818177D-04  0.10206444D-04 -0.13647733D-04 -0.34883738D-05
 -0.24851814D-04  0.17946951D-05 -0.20957757D-05 -0.46685117D-05 -0.47674668D-05
 -0.80865259D-05 -0.92062240D-05  0.54634750D-05 -0.24693401D-05 -0.41884681D-05