 Entering Link 1 = D:\Gaussian\G16W\l1.exe PID=     40400.
  
 Copyright (c) 1988,1990,1992,1993,1995,1998,2003,2009,2016,
            Gaussian, Inc.  All Rights Reserved.
  
 This is part of the Gaussian(R) 16 program.  It is based on
 the Gaussian(R) 09 system (copyright 2009, Gaussian, Inc.),
 the Gaussian(R) 03 system (copyright 2003, Gaussian, Inc.),
 the Gaussian(R) 98 system (copyright 1998, Gaussian, Inc.),
 the Gaussian(R) 94 system (copyright 1995, Gaussian, Inc.),
 the Gaussian 92(TM) system (copyright 1992, Gaussian, Inc.),
 the Gaussian 90(TM) system (copyright 1990, Gaussian, Inc.),
 the Gaussian 88(TM) system (copyright 1988, Gaussian, Inc.),
 the Gaussian 86(TM) system (copyright 1986, Carnegie Mellon
 University), and the Gaussian 82(TM) system (copyright 1983,
 Carnegie Mellon University). Gaussian is a federally registered
 trademark of Gaussian, Inc.
  
 This software contains proprietary and confidential information,
 including trade secrets, belonging to Gaussian, Inc.
  
 This software is provided under written license and may be
 used, copied, transmitted, or stored only in accord with that
 written license.
  
 The following legend is applicable only to US Government
 contracts under FAR:
  
                    RESTRICTED RIGHTS LEGEND
  
 Use, reproduction and disclosure by the US Government is
 subject to restrictions as set forth in subparagraphs (a)
 and (c) of the Commercial Computer Software - Restricted
 Rights clause in FAR 52.227-19.
  
 Gaussian, Inc.
 340 Quinnipiac St., Bldg. 40, Wallingford CT 06492
  
  
 ---------------------------------------------------------------
 Warning -- This program may not be used in any manner that
 competes with the business of Gaussian, Inc. or will provide
 assistance to any competitor of Gaussian, Inc.  The licensee
 of this program is prohibited from giving any competitor of
 Gaussian, Inc. access to this program.  By using this program,
 the user acknowledges that Gaussian, Inc. is engaged in the
 business of creating and licensing software in the field of
 computational chemistry and represents and warrants to the
 licensee that it is not a competitor of Gaussian, Inc. and that
 it will not use this program in any manner prohibited above.
 ---------------------------------------------------------------
  

 Cite this work as:
 Gaussian 16, Revision A.03,
 M. J. Frisch, G. W. Trucks, H. B. Schlegel, G. E. Scuseria, 
 M. A. Robb, J. R. Cheeseman, G. Scalmani, V. Barone, 
 G. A. Petersson, H. Nakatsuji, X. Li, M. Caricato, A. V. Marenich, 
 J. Bloino, B. G. Janesko, R. Gomperts, B. Mennucci, H. P. Hratchian, 
 J. V. Ortiz, A. F. Izmaylov, J. L. Sonnenberg, D. Williams-Young, 
 F. Ding, F. Lipparini, F. Egidi, J. Goings, B. Peng, A. Petrone, 
 T. Henderson, D. Ranasinghe, V. G. Zakrzewski, J. Gao, N. Rega, 
 G. Zheng, W. Liang, M. Hada, M. Ehara, K. Toyota, R. Fukuda, 
 J. Hasegawa, M. Ishida, T. Nakajima, Y. Honda, O. Kitao, H. Nakai, 
 T. Vreven, K. Throssell, J. A. Montgomery, Jr., J. E. Peralta, 
 F. Ogliaro, M. J. Bearpark, J. J. Heyd, E. N. Brothers, K. N. Kudin, 
 V. N. Staroverov, T. A. Keith, R. Kobayashi, J. Normand, 
 K. Raghavachari, A. P. Rendell, J. C. Burant, S. S. Iyengar, 
 J. Tomasi, M. Cossi, J. M. Millam, M. Klene, C. Adamo, R. Cammi, 
 J. W. Ochterski, R. L. Martin, K. Morokuma, O. Farkas, 
 J. B. Foresman, and D. J. Fox, Gaussian, Inc., Wallingford CT, 2016.
 
 ******************************************
 Gaussian 16:  EM64W-G16RevA.03 17-Dec-2016
                03-Dec-2025 
 ******************************************
 %nprocs=   4
 Will use up to    4 processors via shared memory.
 ------------------------------------
 #P B3LYP/6-31G* SCF=conver=7 out=wfn
 ------------------------------------
 1/38=1,172=1/1;
 2/12=2,17=6,18=5,40=1/2;
 3/5=1,6=6,7=1,11=2,25=1,30=1,74=-5/1,2,3;
 4//1;
 5/5=2,6=7,38=5/2;
 6/7=2,8=2,9=2,10=2,28=1/1;
 99/5=1,6=100,9=1/99;
 Leave Link    1 at Wed Dec 03 17:14:16 2025, MaxMem=           0 cpu:               0.0 elap:               0.1
 (Enter D:\Gaussian\G16W\l101.exe)
 ----------------------------------------------------
 Generated by Multiwfn (http://sobereva.com/multiwfn)
 ----------------------------------------------------
 Symbolic Z-matrix:
 Charge =  0 Multiplicity = 2
 C                     1.83931  -0.0311    0.0177 
 C                     0.96607   1.0844    0.04004 
 C                    -0.39062   0.92209   0.00842 
 C                    -1.0028   -0.42048   0.0434 
 C                    -0.07405  -1.53932  -0.1205 
 C                     1.2777   -1.32721  -0.09857 
 H                    -0.49279  -2.53401  -0.21485 
 O                    -2.30989  -0.45935  -0.69485 
 O                    -1.23611   1.98111  -0.05952 
 H                     1.36262   2.09387   0.03357 
 C                    -2.31692  -0.61043   0.72133 
 H                    -2.56892  -1.60456   1.08491 
 H                    -2.05753   1.64687  -0.45457 
 H                    -2.74689   0.21409   1.28736 
 H                     1.94625  -2.17838  -0.1788 
 C                     3.32763   0.17166   0.08233 
 H                     3.65438   0.96305  -0.59987 
 H                     3.64596   0.46893   1.08929 
 H                     3.86703  -0.74161  -0.17699 
 
 ITRead=  0  0  0  0  0  0  0  0  0  0  0  0  0  0  0  0  0  0  0
 MicOpt= -1 -1 -1 -1 -1 -1 -1 -1 -1 -1 -1 -1 -1 -1 -1 -1 -1 -1 -1
 NAtoms=     19 NQM=       19 NQMF=       0 NMMI=      0 NMMIF=      0
                NMic=       0 NMicF=      0.
                    Isotopes and Nuclear Properties:
 (Nuclear quadrupole moments (NQMom) in fm**2, nuclear magnetic moments (NMagM)
  in nuclear magnetons)

  Atom         1           2           3           4           5           6           7           8           9          10
 IAtWgt=          12          12          12          12          12          12           1          16          16           1
 AtmWgt=  12.0000000  12.0000000  12.0000000  12.0000000  12.0000000  12.0000000   1.0078250  15.9949146  15.9949146   1.0078250
 NucSpn=           0           0           0           0           0           0           1           0           0           1
 AtZEff=   0.0000000   0.0000000   0.0000000   0.0000000   0.0000000   0.0000000   0.0000000   0.0000000   0.0000000   0.0000000
 NQMom=    0.0000000   0.0000000   0.0000000   0.0000000   0.0000000   0.0000000   0.0000000   0.0000000   0.0000000   0.0000000
 NMagM=    0.0000000   0.0000000   0.0000000   0.0000000   0.0000000   0.0000000   2.7928460   0.0000000   0.0000000   2.7928460
 AtZNuc=   6.0000000   6.0000000   6.0000000   6.0000000   6.0000000   6.0000000   1.0000000   8.0000000   8.0000000   1.0000000

  Atom        11          12          13          14          15          16          17          18          19
 IAtWgt=          12           1           1           1           1          12           1           1           1
 AtmWgt=  12.0000000   1.0078250   1.0078250   1.0078250   1.0078250  12.0000000   1.0078250   1.0078250   1.0078250
 NucSpn=           0           1           1           1           1           0           1           1           1
 AtZEff=   0.0000000   0.0000000   0.0000000   0.0000000   0.0000000   0.0000000   0.0000000   0.0000000   0.0000000
 NQMom=    0.0000000   0.0000000   0.0000000   0.0000000   0.0000000   0.0000000   0.0000000   0.0000000   0.0000000
 NMagM=    0.0000000   2.7928460   2.7928460   2.7928460   2.7928460   0.0000000   2.7928460   2.7928460   2.7928460
 AtZNuc=   6.0000000   1.0000000   1.0000000   1.0000000   1.0000000   6.0000000   1.0000000   1.0000000   1.0000000
 Leave Link  101 at Wed Dec 03 17:14:16 2025, MaxMem=   104857600 cpu:               0.0 elap:               0.1
 (Enter D:\Gaussian\G16W\l202.exe)
                          Input orientation:                          
 ---------------------------------------------------------------------
 Center     Atomic      Atomic             Coordinates (Angstroms)
 Number     Number       Type             X           Y           Z
 ---------------------------------------------------------------------
      1          6           0        1.839306   -0.031101    0.017699
      2          6           0        0.966067    1.084398    0.040042
      3          6           0       -0.390624    0.922094    0.008423
      4          6           0       -1.002799   -0.420484    0.043395
      5          6           0       -0.074053   -1.539323   -0.120504
      6          6           0        1.277699   -1.327213   -0.098569
      7          1           0       -0.492789   -2.534005   -0.214850
      8          8           0       -2.309885   -0.459347   -0.694849
      9          8           0       -1.236106    1.981111   -0.059520
     10          1           0        1.362623    2.093867    0.033573
     11          6           0       -2.316924   -0.610426    0.721332
     12          1           0       -2.568916   -1.604564    1.084907
     13          1           0       -2.057528    1.646870   -0.454565
     14          1           0       -2.746892    0.214089    1.287357
     15          1           0        1.946246   -2.178376   -0.178804
     16          6           0        3.327632    0.171663    0.082330
     17          1           0        3.654378    0.963045   -0.599866
     18          1           0        3.645957    0.468926    1.089294
     19          1           0        3.867032   -0.741609   -0.176986
 ---------------------------------------------------------------------
                    Distance matrix (angstroms):
                    1          2          3          4          5
     1  C    0.000000
     2  C    1.416822   0.000000
     3  C    2.425130   1.366731   0.000000
     4  C    2.868770   2.478127   1.475973   0.000000
     5  C    2.440241   2.826931   2.485038   1.463295   0.000000
     6  C    1.417331   2.435610   2.802522   2.458248   1.368468
     7  H    3.428888   3.909741   3.464810   2.189468   1.083344
     8  O    4.231655   3.695277   2.467090   1.501662   2.548561
     9  O    3.676019   2.379826   1.356825   2.415095   3.707768
    10  H    2.177836   1.084586   2.108924   3.452141   3.909968
    11  C    4.254993   3.756942   2.562711   1.490839   2.569437
    12  H    4.800744   4.562715   3.505392   2.222502   2.771572
    13  H    4.268950   3.114986   1.875694   2.373683   3.767970
    14  H    4.765014   4.012393   2.772894   2.234275   3.492935
    15  H    2.158898   3.413845   3.887021   3.440410   2.119763
    16  C    1.503464   2.532166   3.793947   4.370902   3.813145
    17  H    2.159676   2.766085   4.090689   4.900738   4.515842
    18  H    2.159243   2.943050   4.203288   4.847256   4.397175
    19  H    2.157405   3.434676   4.574923   4.885381   4.021404
                    6          7          8          9         10
     6  C    0.000000
     7  H    2.145809   0.000000
     8  O    3.738917   2.799365   0.000000
     9  O    4.155207   4.578528   2.740890   0.000000
    10  H    3.424684   4.992141   4.531756   2.602839   0.000000
    11  C    3.755973   2.811416   1.424234   2.914440   4.617930
    12  H    4.034103   2.619834   2.132170   3.992889   5.499154
    13  H    4.482816   4.470524   2.134847   0.970830   3.483607
    14  H    4.527001   3.858708   2.138605   2.686805   4.689739
    15  H    1.085298   2.465089   4.619092   5.238600   4.317150
    16  C    2.545895   4.690903   5.725712   4.911408   2.749274
    17  H    3.338440   5.438436   6.132263   5.024467   2.632897
    18  H    3.200903   5.277083   6.286248   5.238417   2.994761
    19  H    2.655885   4.714038   6.205011   5.785242   3.788974
                   11         12         13         14         15
    11  C    0.000000
    12  H    1.088116   0.000000
    13  H    2.558399   3.633637   0.000000
    14  H    1.088615   1.838521   2.358469   0.000000
    15  H    4.630694   4.723655   5.544254   5.468003   0.000000
    16  C    5.734196   6.239345   5.609317   6.193039   2.738449
    17  H    6.314889   6.939774   5.754529   6.715564   3.600491
    18  H    6.070943   6.551643   6.025014   6.400991   3.391946
    19  H    6.250240   6.615020   6.393926   6.841173   2.398692
                   16         17         18         19
    16  C    0.000000
    17  H    1.094733   0.000000
    18  H    1.097120   1.759968   0.000000
    19  H    1.091908   1.769151   1.765711   0.000000
 Stoichiometry    C8H9O2(2)
 Framework group  C1[X(C8H9O2)]
 Deg. of freedom    51
 Full point group                 C1      NOp   1
 Largest Abelian subgroup         C1      NOp   1
 Largest concise Abelian subgroup C1      NOp   1
                         Standard orientation:                         
 ---------------------------------------------------------------------
 Center     Atomic      Atomic             Coordinates (Angstroms)
 Number     Number       Type             X           Y           Z
 ---------------------------------------------------------------------
      1          6           0        1.839306   -0.031101    0.017699
      2          6           0        0.966067    1.084398    0.040042
      3          6           0       -0.390624    0.922094    0.008423
      4          6           0       -1.002799   -0.420484    0.043395
      5          6           0       -0.074053   -1.539323   -0.120504
      6          6           0        1.277699   -1.327213   -0.098569
      7          1           0       -0.492789   -2.534005   -0.214850
      8          8           0       -2.309885   -0.459347   -0.694849
      9          8           0       -1.236106    1.981111   -0.059520
     10          1           0        1.362623    2.093867    0.033573
     11          6           0       -2.316924   -0.610426    0.721332
     12          1           0       -2.568916   -1.604564    1.084907
     13          1           0       -2.057528    1.646870   -0.454565
     14          1           0       -2.746892    0.214088    1.287357
     15          1           0        1.946246   -2.178376   -0.178804
     16          6           0        3.327632    0.171664    0.082330
     17          1           0        3.654378    0.963046   -0.599866
     18          1           0        3.645957    0.468927    1.089294
     19          1           0        3.867032   -0.741608   -0.176986
 ---------------------------------------------------------------------
 Rotational constants (GHZ):           2.6764480           1.0580372           0.8043801
 Leave Link  202 at Wed Dec 03 17:14:16 2025, MaxMem=   104857600 cpu:               0.0 elap:               0.1
 (Enter D:\Gaussian\G16W\l301.exe)
 Standard basis: 6-31G(d) (6D, 7F)
 Ernie: Thresh=  0.10000D-02 Tol=  0.10000D-05 Strict=F.
 There are   168 symmetry adapted cartesian basis functions of A   symmetry.
 There are   168 symmetry adapted basis functions of A   symmetry.
   168 basis functions,   316 primitive gaussians,   168 cartesian basis functions
    37 alpha electrons       36 beta electrons
       nuclear repulsion energy       514.2298728885 Hartrees.
 IExCor=  402 DFT=T Ex+Corr=B3LYP ExCW=0 ScaHFX=  0.200000
 ScaDFX=  0.800000  0.720000  1.000000  0.810000 ScalE2=  1.000000  1.000000
 IRadAn=      5 IRanWt=     -1 IRanGd=            0 ICorTp=0 IEmpDi=  4
 NAtoms=   19 NActive=   19 NUniq=   19 SFac= 1.00D+00 NAtFMM=   60 NAOKFM=F Big=F
 Integral buffers will be    131072 words long.
 Raffenetti 2 integral format.
 Two-electron integral symmetry is turned on.
 Leave Link  301 at Wed Dec 03 17:14:16 2025, MaxMem=   104857600 cpu:               0.0 elap:               0.1
 (Enter D:\Gaussian\G16W\l302.exe)
 NPDir=0 NMtPBC=     1 NCelOv=     1 NCel=       1 NClECP=     1 NCelD=      1
         NCelK=      1 NCelE2=     1 NClLst=     1 CellRange=     0.0.
 One-electron integrals computed using PRISM.
 One-electron integral symmetry used in STVInt
 NBasis=   168 RedAO= T EigKep=  4.78D-04  NBF=   168
 NBsUse=   168 1.00D-06 EigRej= -1.00D+00 NBFU=   168
 Precomputing XC quadrature grid using
 IXCGrd= 4 IRadAn=           5 IRanWt=          -1 IRanGd=           0 AccXCQ= 0.00D+00.
 Generated NRdTot=       0 NPtTot=           0 NUsed=           0 NTot=          32
 NSgBfM=   168   168   168   168   168 MxSgAt=    19 MxSgA2=    19.
 Leave Link  302 at Wed Dec 03 17:14:16 2025, MaxMem=   104857600 cpu:               0.0 elap:               0.4
 (Enter D:\Gaussian\G16W\l303.exe)
 DipDrv:  MaxL=1.
 Leave Link  303 at Wed Dec 03 17:14:16 2025, MaxMem=   104857600 cpu:               0.0 elap:               0.1
 (Enter D:\Gaussian\G16W\l401.exe)
 ExpMin= 1.61D-01 ExpMax= 5.48D+03 ExpMxC= 8.25D+02 IAcc=3 IRadAn=         5 AccDes= 0.00D+00
 Harris functional with IExCor=  402 and IRadAn=       5 diagonalized for initial guess.
 HarFok:  IExCor=  402 AccDes= 0.00D+00 IRadAn=         5 IDoV= 1 UseB2=F ITyADJ=14
 ICtDFT=  3500011 ScaDFX=  1.000000  1.000000  1.000000  1.000000
 FoFCou: FMM=F IPFlag=           0 FMFlag=      100000 FMFlg1=           0
         NFxFlg=           0 DoJE=T BraDBF=F KetDBF=T FulRan=T
         wScrn=  0.000000 ICntrl=       500 IOpCl=  0 I1Cent=   200000004 NGrid=           0
         NMat0=    1 NMatS0=      1 NMatT0=    0 NMatD0=    1 NMtDS0=    0 NMtDT0=    0
 Petite list used in FoFCou.
 Harris En= -460.634633318336    
 JPrj=0 DoOrth=F DoCkMO=F.
 Initial guess <Sx>= 0.0000 <Sy>= 0.0000 <Sz>= 0.5000 <S**2>= 0.7500 S= 0.5000
 Leave Link  401 at Wed Dec 03 17:14:18 2025, MaxMem=   104857600 cpu:               2.0 elap:               1.2
 (Enter D:\Gaussian\G16W\l502.exe)
 Integral symmetry usage will be decided dynamically.
 UHF open shell SCF:
 Using DIIS extrapolation, IDIIS=  1040.
 NGot=   104857600 LenX=   104798149 LenY=   104769484
 Requested convergence on RMS density matrix=1.00D-07 within 128 cycles.
 Requested convergence on MAX density matrix=1.00D-05.
 Requested convergence on             energy=1.00D-05.
 No special actions if energy rises.
 Fock matrices will be formed incrementally for  20 cycles.
 Integral accuracy reduced to 1.0D-05 until final iterations.

 Cycle   1  Pass 0  IDiag  1:
 FoFJK:  IHMeth= 1 ICntrl=       0 DoSepK=F KAlg= 0 I1Cent=           0 FoldK=F
 IRaf= 940000000 NMat=       1 IRICut=       1 DoRegI=T DoRafI=F ISym2E= 0 IDoP0=0 IntGTp=1.
 FoFCou: FMM=F IPFlag=           0 FMFlag=      100000 FMFlg1=           0
         NFxFlg=           0 DoJE=F BraDBF=F KetDBF=F FulRan=T
         wScrn=  0.000000 ICntrl=         0 IOpCl=  1 I1Cent=           0 NGrid=           0
         NMat0=    1 NMatS0=      1 NMatT0=    0 NMatD0=    1 NMtDS0=    0 NMtDT0=    0
 Symmetry not used in FoFCou.
 E= -460.396802255246    
 DIIS: error= 3.17D-02 at cycle   1 NSaved=   1.
 NSaved= 1 IEnMin= 1 EnMin= -460.396802255246     IErMin= 1 ErrMin= 3.17D-02
 ErrMax= 3.17D-02  0.00D+00 EMaxC= 1.00D-01 BMatC= 9.04D-01 BMatP= 9.04D-01
 IDIUse=3 WtCom= 6.83D-01 WtEn= 3.17D-01
 Coeff-Com:  0.100D+01
 Coeff-En:   0.100D+01
 Coeff:      0.100D+01
 Gap=     0.159 Goal=   None    Shift=    0.000
 Gap=     0.132 Goal=   None    Shift=    0.000
 GapD=    0.132 DampG=1.000 DampE=0.500 DampFc=0.5000 IDamp=-1.
 Damping current iteration by 5.00D-01
 RMSDP=6.35D-03 MaxDP=1.35D-01              OVMax= 2.19D-01

 Cycle   2  Pass 0  IDiag  1:
 RMSU=  3.14D-03    CP:  9.82D-01
 E= -460.498490671188     Delta-E=       -0.101688415943 Rises=F Damp=T
 DIIS: error= 6.05D-03 at cycle   2 NSaved=   2.
 NSaved= 2 IEnMin= 2 EnMin= -460.498490671188     IErMin= 2 ErrMin= 6.05D-03
 ErrMax= 6.05D-03  0.00D+00 EMaxC= 1.00D-01 BMatC= 5.86D-02 BMatP= 9.04D-01
 IDIUse=3 WtCom= 9.39D-01 WtEn= 6.05D-02
 Coeff-Com:  0.509D-01 0.949D+00
 Coeff-En:   0.922D-01 0.908D+00
 Coeff:      0.534D-01 0.947D+00
 Gap=     0.192 Goal=   None    Shift=    0.000
 Gap=     0.148 Goal=   None    Shift=    0.000
 RMSDP=1.95D-03 MaxDP=5.53D-02 DE=-1.02D-01 OVMax= 2.00D-01

 Cycle   3  Pass 0  IDiag  1:
 RMSU=  1.86D-03    CP:  9.73D-01  8.23D-01
 E= -460.608854239949     Delta-E=       -0.110363568760 Rises=F Damp=F
 DIIS: error= 8.28D-03 at cycle   3 NSaved=   3.
 NSaved= 3 IEnMin= 3 EnMin= -460.608854239949     IErMin= 2 ErrMin= 6.05D-03
 ErrMax= 8.28D-03  0.00D+00 EMaxC= 1.00D-01 BMatC= 6.02D-02 BMatP= 5.86D-02
 IDIUse=3 WtCom= 9.17D-01 WtEn= 8.28D-02
 Coeff-Com: -0.174D-01 0.510D+00 0.507D+00
 Coeff-En:   0.000D+00 0.000D+00 0.100D+01
 Coeff:     -0.160D-01 0.468D+00 0.548D+00
 Gap=     0.162 Goal=   None    Shift=    0.000
 Gap=     0.149 Goal=   None    Shift=    0.000
 RMSDP=1.24D-03 MaxDP=5.42D-02 DE=-1.10D-01 OVMax= 8.84D-02

 Cycle   4  Pass 0  IDiag  1:
 RMSU=  8.11D-04    CP:  9.75D-01  9.25D-01  5.30D-01
 E= -460.620964093014     Delta-E=       -0.012109853065 Rises=F Damp=F
 DIIS: error= 4.95D-03 at cycle   4 NSaved=   4.
 NSaved= 4 IEnMin= 4 EnMin= -460.620964093014     IErMin= 4 ErrMin= 4.95D-03
 ErrMax= 4.95D-03  0.00D+00 EMaxC= 1.00D-01 BMatC= 1.77D-02 BMatP= 5.86D-02
 IDIUse=3 WtCom= 9.50D-01 WtEn= 4.95D-02
 Coeff-Com: -0.140D-01 0.876D-01 0.357D+00 0.569D+00
 Coeff-En:   0.000D+00 0.000D+00 0.256D+00 0.744D+00
 Coeff:     -0.133D-01 0.833D-01 0.352D+00 0.578D+00
 Gap=     0.165 Goal=   None    Shift=    0.000
 Gap=     0.150 Goal=   None    Shift=    0.000
 RMSDP=4.81D-04 MaxDP=1.76D-02 DE=-1.21D-02 OVMax= 3.60D-02

 Cycle   5  Pass 0  IDiag  1:
 RMSU=  1.97D-04    CP:  9.75D-01  8.99D-01  6.95D-01  6.26D-01
 E= -460.625620078959     Delta-E=       -0.004655985945 Rises=F Damp=F
 DIIS: error= 9.07D-04 at cycle   5 NSaved=   5.
 NSaved= 5 IEnMin= 5 EnMin= -460.625620078959     IErMin= 5 ErrMin= 9.07D-04
 ErrMax= 9.07D-04  0.00D+00 EMaxC= 1.00D-01 BMatC= 9.73D-04 BMatP= 1.77D-02
 IDIUse=3 WtCom= 9.91D-01 WtEn= 9.07D-03
 Coeff-Com: -0.512D-02 0.159D-01 0.165D+00 0.317D+00 0.508D+00
 Coeff-En:   0.000D+00 0.000D+00 0.000D+00 0.000D+00 0.100D+01
 Coeff:     -0.508D-02 0.157D-01 0.163D+00 0.314D+00 0.512D+00
 Gap=     0.165 Goal=   None    Shift=    0.000
 Gap=     0.152 Goal=   None    Shift=    0.000
 RMSDP=1.17D-04 MaxDP=4.92D-03 DE=-4.66D-03 OVMax= 1.00D-02

 Cycle   6  Pass 0  IDiag  1:
 RMSU=  1.03D-04    CP:  9.75D-01  9.05D-01  6.87D-01  6.61D-01  8.05D-01
 E= -460.625880742909     Delta-E=       -0.000260663950 Rises=F Damp=F
 DIIS: error= 3.72D-04 at cycle   6 NSaved=   6.
 NSaved= 6 IEnMin= 6 EnMin= -460.625880742909     IErMin= 6 ErrMin= 3.72D-04
 ErrMax= 3.72D-04  0.00D+00 EMaxC= 1.00D-01 BMatC= 1.22D-04 BMatP= 9.73D-04
 IDIUse=3 WtCom= 9.96D-01 WtEn= 3.72D-03
 Coeff-Com:  0.125D-02-0.135D-01-0.136D-01-0.867D-02 0.219D+00 0.816D+00
 Coeff-En:   0.000D+00 0.000D+00 0.000D+00 0.000D+00 0.000D+00 0.100D+01
 Coeff:      0.124D-02-0.135D-01-0.135D-01-0.864D-02 0.218D+00 0.816D+00
 Gap=     0.166 Goal=   None    Shift=    0.000
 Gap=     0.153 Goal=   None    Shift=    0.000
 RMSDP=7.12D-05 MaxDP=3.20D-03 DE=-2.61D-04 OVMax= 8.11D-03

 Cycle   7  Pass 0  IDiag  1:
 RMSU=  4.59D-05    CP:  9.75D-01  9.03D-01  6.97D-01  6.82D-01  1.04D+00
                    CP:  1.03D+00
 E= -460.625961540180     Delta-E=       -0.000080797271 Rises=F Damp=F
 DIIS: error= 2.10D-04 at cycle   7 NSaved=   7.
 NSaved= 7 IEnMin= 7 EnMin= -460.625961540180     IErMin= 7 ErrMin= 2.10D-04
 ErrMax= 2.10D-04  0.00D+00 EMaxC= 1.00D-01 BMatC= 3.02D-05 BMatP= 1.22D-04
 IDIUse=3 WtCom= 9.98D-01 WtEn= 2.10D-03
 Coeff-Com:  0.156D-02-0.845D-02-0.413D-01-0.756D-01-0.554D-01 0.280D+00
 Coeff-Com:  0.899D+00
 Coeff-En:   0.000D+00 0.000D+00 0.000D+00 0.000D+00 0.000D+00 0.000D+00
 Coeff-En:   0.100D+01
 Coeff:      0.156D-02-0.843D-02-0.412D-01-0.755D-01-0.553D-01 0.279D+00
 Coeff:      0.899D+00
 Gap=     0.167 Goal=   None    Shift=    0.000
 Gap=     0.154 Goal=   None    Shift=    0.000
 RMSDP=4.82D-05 MaxDP=2.21D-03 DE=-8.08D-05 OVMax= 5.16D-03

 Cycle   8  Pass 0  IDiag  1:
 RMSU=  2.60D-05    CP:  9.75D-01  9.04D-01  6.98D-01  6.96D-01  1.16D+00
                    CP:  1.32D+00  1.18D+00
 E= -460.625985531672     Delta-E=       -0.000023991492 Rises=F Damp=F
 DIIS: error= 1.38D-04 at cycle   8 NSaved=   8.
 NSaved= 8 IEnMin= 8 EnMin= -460.625985531672     IErMin= 8 ErrMin= 1.38D-04
 ErrMax= 1.38D-04  0.00D+00 EMaxC= 1.00D-01 BMatC= 2.20D-05 BMatP= 3.02D-05
 IDIUse=3 WtCom= 9.99D-01 WtEn= 1.38D-03
 Coeff-Com:  0.612D-03-0.535D-03-0.261D-01-0.556D-01-0.138D+00-0.116D+00
 Coeff-Com:  0.691D+00 0.644D+00
 Coeff-En:   0.000D+00 0.000D+00 0.000D+00 0.000D+00 0.000D+00 0.000D+00
 Coeff-En:   0.000D+00 0.100D+01
 Coeff:      0.612D-03-0.534D-03-0.261D-01-0.555D-01-0.138D+00-0.115D+00
 Coeff:      0.690D+00 0.644D+00
 Gap=     0.167 Goal=   None    Shift=    0.000
 Gap=     0.155 Goal=   None    Shift=    0.000
 RMSDP=2.98D-05 MaxDP=1.32D-03 DE=-2.40D-05 OVMax= 3.09D-03

 Cycle   9  Pass 0  IDiag  1:
 RMSU=  8.56D-06    CP:  9.75D-01  9.04D-01  7.00D-01  7.01D-01  1.24D+00
                    CP:  1.46D+00  1.56D+00  7.58D-01
 E= -460.625994582086     Delta-E=       -0.000009050414 Rises=F Damp=F
 DIIS: error= 5.90D-05 at cycle   9 NSaved=   9.
 NSaved= 9 IEnMin= 9 EnMin= -460.625994582086     IErMin= 9 ErrMin= 5.90D-05
 ErrMax= 5.90D-05  0.00D+00 EMaxC= 1.00D-01 BMatC= 1.76D-06 BMatP= 2.20D-05
 IDIUse=1 WtCom= 1.00D+00 WtEn= 0.00D+00
 Coeff-Com:  0.199D-03 0.373D-03-0.107D-01-0.237D-01-0.701D-01-0.815D-01
 Coeff-Com:  0.293D+00 0.349D+00 0.543D+00
 Coeff:      0.199D-03 0.373D-03-0.107D-01-0.237D-01-0.701D-01-0.815D-01
 Coeff:      0.293D+00 0.349D+00 0.543D+00
 Gap=     0.167 Goal=   None    Shift=    0.000
 Gap=     0.155 Goal=   None    Shift=    0.000
 RMSDP=5.51D-06 MaxDP=2.04D-04 DE=-9.05D-06 OVMax= 5.14D-04

 Initial convergence to 1.0D-05 achieved.  Increase integral accuracy.
 Cycle  10  Pass 1  IDiag  1:
 E= -460.626006000596     Delta-E=       -0.000011418510 Rises=F Damp=F
 DIIS: error= 1.67D-05 at cycle   1 NSaved=   1.
 NSaved= 1 IEnMin= 1 EnMin= -460.626006000596     IErMin= 1 ErrMin= 1.67D-05
 ErrMax= 1.67D-05  0.00D+00 EMaxC= 1.00D-01 BMatC= 2.64D-07 BMatP= 2.64D-07
 IDIUse=1 WtCom= 1.00D+00 WtEn= 0.00D+00
 Coeff-Com:  0.100D+01
 Coeff:      0.100D+01
 Gap=     0.167 Goal=   None    Shift=    0.000
 Gap=     0.155 Goal=   None    Shift=    0.000
 RMSDP=5.51D-06 MaxDP=2.04D-04 DE=-1.14D-05 OVMax= 2.36D-04

 Cycle  11  Pass 1  IDiag  1:
 RMSU=  6.12D-06    CP:  1.00D+00
 E= -460.626006010171     Delta-E=       -0.000000009575 Rises=F Damp=F
 DIIS: error= 2.67D-05 at cycle   2 NSaved=   2.
 NSaved= 2 IEnMin= 2 EnMin= -460.626006010171     IErMin= 1 ErrMin= 1.67D-05
 ErrMax= 2.67D-05  0.00D+00 EMaxC= 1.00D-01 BMatC= 4.12D-07 BMatP= 2.64D-07
 IDIUse=1 WtCom= 1.00D+00 WtEn= 0.00D+00
 Coeff-Com:  0.566D+00 0.434D+00
 Coeff:      0.566D+00 0.434D+00
 Gap=     0.167 Goal=   None    Shift=    0.000
 Gap=     0.155 Goal=   None    Shift=    0.000
 RMSDP=2.14D-06 MaxDP=5.71D-05 DE=-9.57D-09 OVMax= 1.57D-04

 Cycle  12  Pass 1  IDiag  1:
 RMSU=  1.92D-06    CP:  1.00D+00  8.46D-01
 E= -460.626006106568     Delta-E=       -0.000000096396 Rises=F Damp=F
 DIIS: error= 5.74D-06 at cycle   3 NSaved=   3.
 NSaved= 3 IEnMin= 3 EnMin= -460.626006106568     IErMin= 3 ErrMin= 5.74D-06
 ErrMax= 5.74D-06  0.00D+00 EMaxC= 1.00D-01 BMatC= 2.49D-08 BMatP= 2.64D-07
 IDIUse=1 WtCom= 1.00D+00 WtEn= 0.00D+00
 Coeff-Com:  0.154D-01 0.163D+00 0.821D+00
 Coeff:      0.154D-01 0.163D+00 0.821D+00
 Gap=     0.167 Goal=   None    Shift=    0.000
 Gap=     0.155 Goal=   None    Shift=    0.000
 RMSDP=8.65D-07 MaxDP=4.21D-05 DE=-9.64D-08 OVMax= 7.30D-05

 Cycle  13  Pass 1  IDiag  1:
 RMSU=  7.71D-07    CP:  1.00D+00  9.10D-01  9.83D-01
 E= -460.626006115923     Delta-E=       -0.000000009356 Rises=F Damp=F
 DIIS: error= 3.69D-06 at cycle   4 NSaved=   4.
 NSaved= 4 IEnMin= 4 EnMin= -460.626006115923     IErMin= 4 ErrMin= 3.69D-06
 ErrMax= 3.69D-06  0.00D+00 EMaxC= 1.00D-01 BMatC= 1.28D-08 BMatP= 2.49D-08
 IDIUse=1 WtCom= 1.00D+00 WtEn= 0.00D+00
 Coeff-Com: -0.975D-01 0.228D-01 0.523D+00 0.551D+00
 Coeff:     -0.975D-01 0.228D-01 0.523D+00 0.551D+00
 Gap=     0.167 Goal=   None    Shift=    0.000
 Gap=     0.155 Goal=   None    Shift=    0.000
 RMSDP=4.64D-07 MaxDP=1.51D-05 DE=-9.36D-09 OVMax= 3.32D-05

 Cycle  14  Pass 1  IDiag  1:
 RMSU=  4.39D-07    CP:  1.00D+00  9.32D-01  1.02D+00  1.01D+00
 E= -460.626006120511     Delta-E=       -0.000000004588 Rises=F Damp=F
 DIIS: error= 1.36D-06 at cycle   5 NSaved=   5.
 NSaved= 5 IEnMin= 5 EnMin= -460.626006120511     IErMin= 5 ErrMin= 1.36D-06
 ErrMax= 1.36D-06  0.00D+00 EMaxC= 1.00D-01 BMatC= 1.25D-09 BMatP= 1.28D-08
 IDIUse=1 WtCom= 1.00D+00 WtEn= 0.00D+00
 Coeff-Com: -0.277D-01-0.417D-01-0.127D+00 0.138D+00 0.106D+01
 Coeff:     -0.277D-01-0.417D-01-0.127D+00 0.138D+00 0.106D+01
 Gap=     0.167 Goal=   None    Shift=    0.000
 Gap=     0.155 Goal=   None    Shift=    0.000
 RMSDP=3.68D-07 MaxDP=1.65D-05 DE=-4.59D-09 OVMax= 4.02D-05

 Cycle  15  Pass 1  IDiag  1:
 RMSU=  1.71D-07    CP:  1.00D+00  9.40D-01  1.09D+00  1.37D+00  1.25D+00
 E= -460.626006121707     Delta-E=       -0.000000001196 Rises=F Damp=F
 DIIS: error= 5.78D-07 at cycle   6 NSaved=   6.
 NSaved= 6 IEnMin= 6 EnMin= -460.626006121707     IErMin= 6 ErrMin= 5.78D-07
 ErrMax= 5.78D-07  0.00D+00 EMaxC= 1.00D-01 BMatC= 6.85D-10 BMatP= 1.25D-09
 IDIUse=1 WtCom= 1.00D+00 WtEn= 0.00D+00
 Coeff-Com:  0.311D-02-0.313D-01-0.197D+00-0.337D-01 0.678D+00 0.581D+00
 Coeff:      0.311D-02-0.313D-01-0.197D+00-0.337D-01 0.678D+00 0.581D+00
 Gap=     0.167 Goal=   None    Shift=    0.000
 Gap=     0.155 Goal=   None    Shift=    0.000
 RMSDP=1.49D-07 MaxDP=8.40D-06 DE=-1.20D-09 OVMax= 1.38D-05

 Cycle  16  Pass 1  IDiag  1:
 RMSU=  6.46D-08    CP:  1.00D+00  9.47D-01  1.09D+00  1.47D+00  1.44D+00
                    CP:  7.49D-01
 E= -460.626006122019     Delta-E=       -0.000000000313 Rises=F Damp=F
 DIIS: error= 2.36D-07 at cycle   7 NSaved=   7.
 NSaved= 7 IEnMin= 7 EnMin= -460.626006122019     IErMin= 7 ErrMin= 2.36D-07
 ErrMax= 2.36D-07  0.00D+00 EMaxC= 1.00D-01 BMatC= 3.54D-11 BMatP= 6.85D-10
 IDIUse=1 WtCom= 1.00D+00 WtEn= 0.00D+00
 Coeff-Com:  0.438D-02-0.335D-02-0.434D-01-0.288D-01 0.792D-01 0.162D+00
 Coeff-Com:  0.830D+00
 Coeff:      0.438D-02-0.335D-02-0.434D-01-0.288D-01 0.792D-01 0.162D+00
 Coeff:      0.830D+00
 Gap=     0.167 Goal=   None    Shift=    0.000
 Gap=     0.155 Goal=   None    Shift=    0.000
 RMSDP=4.52D-08 MaxDP=2.44D-06 DE=-3.13D-10 OVMax= 5.84D-06

 SCF Done:  E(UB3LYP) =  -460.626006122     A.U. after   16 cycles
            NFock= 16  Conv=0.45D-07     -V/T= 2.0091
 <Sx>= 0.0000 <Sy>= 0.0000 <Sz>= 0.5000 <S**2>= 0.7805 S= 0.5151
 <L.S>= 0.000000000000E+00
 KE= 4.564946807638D+02 PE=-2.101180804269D+03 EE= 6.698302444951D+02
 Annihilation of the first spin contaminant:
 S**2 before annihilation     0.7805,   after     0.7506
 Leave Link  502 at Wed Dec 03 17:14:51 2025, MaxMem=   104857600 cpu:              33.0 elap:              33.6
 (Enter D:\Gaussian\G16W\l601.exe)
 Copying SCF densities to generalized density rwf, IOpCl= 1 IROHF=0.

 **********************************************************************

            Population analysis using the SCF density.

 **********************************************************************

 Orbital symmetries:
 Alpha Orbitals:
       Occupied  (A) (A) (A) (A) (A) (A) (A) (A) (A) (A) (A) (A)
                 (A) (A) (A) (A) (A) (A) (A) (A) (A) (A) (A) (A)
                 (A) (A) (A) (A) (A) (A) (A) (A) (A) (A) (A) (A)
                 (A)
       Virtual   (A) (A) (A) (A) (A) (A) (A) (A) (A) (A) (A) (A)
                 (A) (A) (A) (A) (A) (A) (A) (A) (A) (A) (A) (A)
                 (A) (A) (A) (A) (A) (A) (A) (A) (A) (A) (A) (A)
                 (A) (A) (A) (A) (A) (A) (A) (A) (A) (A) (A) (A)
                 (A) (A) (A) (A) (A) (A) (A) (A) (A) (A) (A) (A)
                 (A) (A) (A) (A) (A) (A) (A) (A) (A) (A) (A) (A)
                 (A) (A) (A) (A) (A) (A) (A) (A) (A) (A) (A) (A)
                 (A) (A) (A) (A) (A) (A) (A) (A) (A) (A) (A) (A)
                 (A) (A) (A) (A) (A) (A) (A) (A) (A) (A) (A) (A)
                 (A) (A) (A) (A) (A) (A) (A) (A) (A) (A) (A) (A)
                 (A) (A) (A) (A) (A) (A) (A) (A) (A) (A) (A)
 Beta  Orbitals:
       Occupied  (A) (A) (A) (A) (A) (A) (A) (A) (A) (A) (A) (A)
                 (A) (A) (A) (A) (A) (A) (A) (A) (A) (A) (A) (A)
                 (A) (A) (A) (A) (A) (A) (A) (A) (A) (A) (A) (A)
       Virtual   (A) (A) (A) (A) (A) (A) (A) (A) (A) (A) (A) (A)
                 (A) (A) (A) (A) (A) (A) (A) (A) (A) (A) (A) (A)
                 (A) (A) (A) (A) (A) (A) (A) (A) (A) (A) (A) (A)
                 (A) (A) (A) (A) (A) (A) (A) (A) (A) (A) (A) (A)
                 (A) (A) (A) (A) (A) (A) (A) (A) (A) (A) (A) (A)
                 (A) (A) (A) (A) (A) (A) (A) (A) (A) (A) (A) (A)
                 (A) (A) (A) (A) (A) (A) (A) (A) (A) (A) (A) (A)
                 (A) (A) (A) (A) (A) (A) (A) (A) (A) (A) (A) (A)
                 (A) (A) (A) (A) (A) (A) (A) (A) (A) (A) (A) (A)
                 (A) (A) (A) (A) (A) (A) (A) (A) (A) (A) (A) (A)
                 (A) (A) (A) (A) (A) (A) (A) (A) (A) (A) (A) (A)
 The electronic state is 2-A.
 Alpha  occ. eigenvalues --  -19.18102 -19.17224 -10.25865 -10.25268 -10.24813
 Alpha  occ. eigenvalues --  -10.20147 -10.19293 -10.18738 -10.18401 -10.18087
 Alpha  occ. eigenvalues --   -1.08503  -1.05462  -0.84986  -0.76538  -0.74700
 Alpha  occ. eigenvalues --   -0.69075  -0.66014  -0.61313  -0.60570  -0.54312
 Alpha  occ. eigenvalues --   -0.51285  -0.49539  -0.46347  -0.44287  -0.43723
 Alpha  occ. eigenvalues --   -0.42817  -0.41530  -0.40555  -0.39186  -0.37476
 Alpha  occ. eigenvalues --   -0.36148  -0.35213  -0.33686  -0.30286  -0.28744
 Alpha  occ. eigenvalues --   -0.24446  -0.15980
 Alpha virt. eigenvalues --    0.00748   0.05734   0.07940   0.09963   0.11481
 Alpha virt. eigenvalues --    0.12332   0.13937   0.14581   0.16136   0.16627
 Alpha virt. eigenvalues --    0.17959   0.18961   0.20272   0.22574   0.24753
 Alpha virt. eigenvalues --    0.26093   0.30458   0.32643   0.34459   0.37078
 Alpha virt. eigenvalues --    0.45008   0.46475   0.48776   0.51302   0.52853
 Alpha virt. eigenvalues --    0.54798   0.55332   0.56518   0.58375   0.59313
 Alpha virt. eigenvalues --    0.60790   0.61521   0.62545   0.64677   0.67369
 Alpha virt. eigenvalues --    0.68791   0.69588   0.71927   0.74967   0.75708
 Alpha virt. eigenvalues --    0.79081   0.79192   0.82508   0.84198   0.85665
 Alpha virt. eigenvalues --    0.86712   0.86912   0.88493   0.89892   0.91276
 Alpha virt. eigenvalues --    0.93727   0.95275   0.96100   0.97976   0.99315
 Alpha virt. eigenvalues --    1.01964   1.05110   1.05325   1.06050   1.13510
 Alpha virt. eigenvalues --    1.17182   1.19225   1.20990   1.26772   1.29245
 Alpha virt. eigenvalues --    1.31112   1.34223   1.35191   1.39250   1.42093
 Alpha virt. eigenvalues --    1.45123   1.47130   1.50066   1.53165   1.57445
 Alpha virt. eigenvalues --    1.61249   1.66164   1.71668   1.75760   1.78247
 Alpha virt. eigenvalues --    1.82855   1.85780   1.87742   1.87904   1.88914
 Alpha virt. eigenvalues --    1.91960   1.92886   1.95859   1.97747   2.01727
 Alpha virt. eigenvalues --    2.03228   2.06157   2.09460   2.10459   2.18027
 Alpha virt. eigenvalues --    2.20995   2.22886   2.25123   2.27354   2.27539
 Alpha virt. eigenvalues --    2.31595   2.33001   2.35384   2.37817   2.38229
 Alpha virt. eigenvalues --    2.44924   2.47771   2.50872   2.56949   2.58061
 Alpha virt. eigenvalues --    2.66387   2.72223   2.77263   2.78720   2.83958
 Alpha virt. eigenvalues --    2.84561   2.88000   2.96319   3.00758   3.13289
 Alpha virt. eigenvalues --    3.36049   3.81032   3.97188   4.09351   4.14568
 Alpha virt. eigenvalues --    4.21169   4.23557   4.29340   4.39598   4.48170
 Alpha virt. eigenvalues --    4.76377
  Beta  occ. eigenvalues --  -19.17927 -19.16873 -10.25994 -10.24807 -10.24593
  Beta  occ. eigenvalues --  -10.19485 -10.18957 -10.18776 -10.18445 -10.18302
  Beta  occ. eigenvalues --   -1.07919  -1.04906  -0.84278  -0.75724  -0.74246
  Beta  occ. eigenvalues --   -0.68727  -0.65557  -0.60798  -0.60216  -0.53746
  Beta  occ. eigenvalues --   -0.50976  -0.49120  -0.46011  -0.43974  -0.43496
  Beta  occ. eigenvalues --   -0.41805  -0.40691  -0.40077  -0.38705  -0.37120
  Beta  occ. eigenvalues --   -0.35795  -0.34175  -0.33284  -0.28760  -0.28313
  Beta  occ. eigenvalues --   -0.23260
  Beta virt. eigenvalues --   -0.07789   0.02460   0.07158   0.08325   0.10143
  Beta virt. eigenvalues --    0.11646   0.12654   0.14090   0.14755   0.16472
  Beta virt. eigenvalues --    0.16973   0.18232   0.19120   0.21273   0.23232
  Beta virt. eigenvalues --    0.25376   0.26615   0.30918   0.33017   0.34782
  Beta virt. eigenvalues --    0.37200   0.45255   0.47192   0.49082   0.51981
  Beta virt. eigenvalues --    0.53375   0.55171   0.56059   0.56873   0.58804
  Beta virt. eigenvalues --    0.60150   0.61163   0.61830   0.62523   0.64913
  Beta virt. eigenvalues --    0.67857   0.68772   0.71172   0.72135   0.75382
  Beta virt. eigenvalues --    0.75979   0.79324   0.80095   0.82705   0.84509
  Beta virt. eigenvalues --    0.85816   0.86927   0.87219   0.88783   0.90225
  Beta virt. eigenvalues --    0.91369   0.94053   0.95553   0.96450   0.98282
  Beta virt. eigenvalues --    0.99801   1.02294   1.05597   1.05727   1.06333
  Beta virt. eigenvalues --    1.13837   1.17318   1.19592   1.21256   1.27138
  Beta virt. eigenvalues --    1.30020   1.31458   1.34879   1.35572   1.40271
  Beta virt. eigenvalues --    1.42817   1.45640   1.47465   1.50540   1.53686
  Beta virt. eigenvalues --    1.57869   1.61836   1.66664   1.72261   1.76259
  Beta virt. eigenvalues --    1.78686   1.83235   1.86311   1.88153   1.88335
  Beta virt. eigenvalues --    1.89382   1.92233   1.93325   1.96066   1.98521
  Beta virt. eigenvalues --    2.02370   2.03698   2.06717   2.10421   2.11232
  Beta virt. eigenvalues --    2.18422   2.21381   2.23408   2.25754   2.28048
  Beta virt. eigenvalues --    2.28190   2.31991   2.33217   2.35727   2.38203
  Beta virt. eigenvalues --    2.39204   2.45520   2.48589   2.51574   2.57805
  Beta virt. eigenvalues --    2.58561   2.67233   2.72595   2.77497   2.79127
  Beta virt. eigenvalues --    2.84316   2.85078   2.88315   2.96827   3.01267
  Beta virt. eigenvalues --    3.13499   3.36261   3.81482   3.97566   4.09896
  Beta virt. eigenvalues --    4.15093   4.21362   4.23663   4.29683   4.40225
  Beta virt. eigenvalues --    4.48684   4.76850
          Condensed to atoms (all electrons):
               1          2          3          4          5          6
     1  C    4.715648   0.487050  -0.012009  -0.021496  -0.030880   0.522454
     2  C    0.487050   5.091157   0.539290  -0.070418  -0.044447  -0.031550
     3  C   -0.012009   0.539290   4.626460   0.388054  -0.001864  -0.040852
     4  C   -0.021496  -0.070418   0.388054   4.899022   0.423061  -0.024407
     5  C   -0.030880  -0.044447  -0.001864   0.423061   5.059336   0.518174
     6  C    0.522454  -0.031550  -0.040852  -0.024407   0.518174   4.945802
     7  H    0.003648   0.000533   0.003411  -0.041150   0.355354  -0.033014
     8  O    0.000418   0.002144  -0.025609   0.045654  -0.019639   0.001675
     9  O    0.002365  -0.047128   0.289601  -0.059525   0.003671   0.000188
    10  H   -0.048919   0.341151  -0.030998   0.006746   0.000006   0.005433
    11  C    0.000188   0.004832  -0.048072   0.269332  -0.059152   0.004362
    12  H    0.000013  -0.000007   0.002255  -0.011703  -0.001099  -0.000451
    13  H   -0.000032   0.006580  -0.032174  -0.019072   0.000725  -0.000095
    14  H   -0.000014  -0.000557  -0.004892  -0.013683   0.002917   0.000070
    15  H   -0.042142   0.005791   0.000496   0.004299  -0.041243   0.351791
    16  C    0.357775  -0.062860   0.006037   0.000385   0.007722  -0.053559
    17  H   -0.030039  -0.001815   0.000031   0.000011  -0.000193   0.001801
    18  H   -0.029515  -0.001936  -0.000014   0.000006  -0.000119  -0.000116
    19  H   -0.029785   0.003420  -0.000147   0.000005   0.000158  -0.002853
               7          8          9         10         11         12
     1  C    0.003648   0.000418   0.002365  -0.048919   0.000188   0.000013
     2  C    0.000533   0.002144  -0.047128   0.341151   0.004832  -0.000007
     3  C    0.003411  -0.025609   0.289601  -0.030998  -0.048072   0.002255
     4  C   -0.041150   0.045654  -0.059525   0.006746   0.269332  -0.011703
     5  C    0.355354  -0.019639   0.003671   0.000006  -0.059152  -0.001099
     6  C   -0.033014   0.001675   0.000188   0.005433   0.004362  -0.000451
     7  H    0.585336   0.000320  -0.000047   0.000018  -0.003669   0.002389
     8  O    0.000320   8.383296  -0.012709  -0.000061   0.130459  -0.028872
     9  O   -0.000047  -0.012709   8.225762  -0.000974   0.000564   0.000113
    10  H    0.000018  -0.000061  -0.000974   0.598669  -0.000121   0.000000
    11  C   -0.003669   0.130459   0.000564  -0.000121   5.118548   0.354225
    12  H    0.002389  -0.028872   0.000113   0.000000   0.354225   0.568351
    13  H   -0.000030   0.040632   0.230846  -0.000409  -0.001243   0.000581
    14  H    0.000034  -0.032981   0.008224  -0.000004   0.351426  -0.045338
    15  H   -0.005913  -0.000042   0.000002  -0.000155  -0.000134  -0.000008
    16  C   -0.000183   0.000000  -0.000057  -0.008390   0.000001   0.000000
    17  H    0.000002   0.000000  -0.000002   0.003308   0.000000   0.000000
    18  H    0.000003   0.000000   0.000000   0.000907  -0.000001   0.000000
    19  H   -0.000008   0.000000   0.000000   0.000048   0.000000   0.000000
              13         14         15         16         17         18
     1  C   -0.000032  -0.000014  -0.042142   0.357775  -0.030039  -0.029515
     2  C    0.006580  -0.000557   0.005791  -0.062860  -0.001815  -0.001936
     3  C   -0.032174  -0.004892   0.000496   0.006037   0.000031  -0.000014
     4  C   -0.019072  -0.013683   0.004299   0.000385   0.000011   0.000006
     5  C    0.000725   0.002917  -0.041243   0.007722  -0.000193  -0.000119
     6  C   -0.000095   0.000070   0.351791  -0.053559   0.001801  -0.000116
     7  H   -0.000030   0.000034  -0.005913  -0.000183   0.000002   0.000003
     8  O    0.040632  -0.032981  -0.000042   0.000000   0.000000   0.000000
     9  O    0.230846   0.008224   0.000002  -0.000057  -0.000002   0.000000
    10  H   -0.000409  -0.000004  -0.000155  -0.008390   0.003308   0.000907
    11  C   -0.001243   0.351426  -0.000134   0.000001   0.000000  -0.000001
    12  H    0.000581  -0.045338  -0.000008   0.000000   0.000000   0.000000
    13  H    0.354167  -0.005018   0.000000   0.000004   0.000000   0.000000
    14  H   -0.005018   0.583273   0.000001   0.000000   0.000000   0.000000
    15  H    0.000000   0.000001   0.605248  -0.010061   0.000061   0.000202
    16  C    0.000004   0.000000  -0.010061   5.204222   0.363476   0.361452
    17  H    0.000000   0.000000   0.000061   0.363476   0.562487  -0.034816
    18  H    0.000000   0.000000   0.000202   0.361452  -0.034816   0.567999
    19  H    0.000000   0.000000   0.006684   0.365404  -0.026683  -0.029337
              19
     1  C   -0.029785
     2  C    0.003420
     3  C   -0.000147
     4  C    0.000005
     5  C    0.000158
     6  C   -0.002853
     7  H   -0.000008
     8  O    0.000000
     9  O    0.000000
    10  H    0.000048
    11  C    0.000000
    12  H    0.000000
    13  H    0.000000
    14  H    0.000000
    15  H    0.006684
    16  C    0.365404
    17  H   -0.026683
    18  H   -0.029337
    19  H    0.557283
          Atomic-Atomic Spin Densities.
               1          2          3          4          5          6
     1  C    0.543828  -0.023510  -0.016089  -0.002140  -0.019315   0.024139
     2  C   -0.023510  -0.187657   0.023746   0.001179   0.001772   0.000146
     3  C   -0.016089   0.023746   0.350561   0.011059   0.009109  -0.000889
     4  C   -0.002140   0.001179   0.011059  -0.093421   0.007012  -0.001364
     5  C   -0.019315   0.001772   0.009109   0.007012   0.437379  -0.022400
     6  C    0.024139   0.000146  -0.000889  -0.001364  -0.022400  -0.183554
     7  H    0.000078  -0.000081   0.000029   0.000064   0.000795   0.000492
     8  O    0.000176  -0.000546  -0.006382  -0.008136  -0.004697  -0.000121
     9  O    0.000430  -0.000950  -0.044764  -0.000552  -0.000156  -0.000015
    10  H   -0.001199   0.001972  -0.000461   0.000030  -0.000024  -0.000087
    11  C    0.000459   0.000687  -0.016215   0.005908  -0.022507   0.001023
    12  H   -0.000012  -0.000007   0.000311   0.000802   0.001640  -0.000043
    13  H    0.000014  -0.000265  -0.002329   0.000678   0.000023  -0.000003
    14  H   -0.000013  -0.000009   0.000996   0.001110   0.000559  -0.000019
    15  H   -0.001433  -0.000019  -0.000021   0.000011  -0.000601   0.001892
    16  C   -0.000979   0.001560  -0.000207  -0.000025  -0.000117  -0.000425
    17  H   -0.009504   0.000815   0.000027   0.000004   0.000022  -0.000104
    18  H   -0.014117   0.000369   0.000208   0.000003   0.000119  -0.000293
    19  H   -0.001649  -0.000016  -0.000005   0.000001   0.000007   0.000391
               7          8          9         10         11         12
     1  C    0.000078   0.000176   0.000430  -0.001199   0.000459  -0.000012
     2  C   -0.000081  -0.000546  -0.000950   0.001972   0.000687  -0.000007
     3  C    0.000029  -0.006382  -0.044764  -0.000461  -0.016215   0.000311
     4  C    0.000064  -0.008136  -0.000552   0.000030   0.005908   0.000802
     5  C    0.000795  -0.004697  -0.000156  -0.000024  -0.022507   0.001640
     6  C    0.000492  -0.000121  -0.000015  -0.000087   0.001023  -0.000043
     7  H   -0.020495   0.000384   0.000001  -0.000001  -0.000534   0.000044
     8  O    0.000384   0.184681   0.000642  -0.000002  -0.060917   0.002044
     9  O    0.000001   0.000642   0.092077  -0.000062   0.002503  -0.000030
    10  H   -0.000001  -0.000002  -0.000062   0.005896   0.000009   0.000000
    11  C   -0.000534  -0.060917   0.002503   0.000009   0.215076  -0.007167
    12  H    0.000044   0.002044  -0.000030   0.000000  -0.007167  -0.001143
    13  H    0.000001   0.000309   0.000719  -0.000006  -0.001598   0.000022
    14  H    0.000011   0.001924  -0.000800   0.000000  -0.007459   0.001288
    15  H    0.000144   0.000000   0.000000   0.000000  -0.000001   0.000000
    16  C    0.000002   0.000000   0.000001   0.000364   0.000001   0.000000
    17  H    0.000000   0.000000  -0.000002   0.000099   0.000001   0.000000
    18  H    0.000001   0.000000   0.000000  -0.000107  -0.000003   0.000000
    19  H    0.000000   0.000000   0.000000   0.000004   0.000000   0.000000
              13         14         15         16         17         18
     1  C    0.000014  -0.000013  -0.001433  -0.000979  -0.009504  -0.014117
     2  C   -0.000265  -0.000009  -0.000019   0.001560   0.000815   0.000369
     3  C   -0.002329   0.000996  -0.000021  -0.000207   0.000027   0.000208
     4  C    0.000678   0.001110   0.000011  -0.000025   0.000004   0.000003
     5  C    0.000023   0.000559  -0.000601  -0.000117   0.000022   0.000119
     6  C   -0.000003  -0.000019   0.001892  -0.000425  -0.000104  -0.000293
     7  H    0.000001   0.000011   0.000144   0.000002   0.000000   0.000001
     8  O    0.000309   0.001924   0.000000   0.000000   0.000000   0.000000
     9  O    0.000719  -0.000800   0.000000   0.000001  -0.000002   0.000000
    10  H   -0.000006   0.000000   0.000000   0.000364   0.000099  -0.000107
    11  C   -0.001598  -0.007459  -0.000001   0.000001   0.000001  -0.000003
    12  H    0.000022   0.001288   0.000000   0.000000   0.000000   0.000000
    13  H    0.001147   0.000321   0.000000   0.000000   0.000000   0.000000
    14  H    0.000321   0.001343   0.000000   0.000000   0.000000   0.000000
    15  H    0.000000   0.000000   0.006020   0.000372  -0.000001  -0.000012
    16  C    0.000000   0.000000   0.000372  -0.048592   0.003151   0.003188
    17  H    0.000000   0.000000  -0.000001   0.003151   0.030616  -0.009966
    18  H    0.000000   0.000000  -0.000012   0.003188  -0.009966   0.050177
    19  H    0.000000   0.000000  -0.000023   0.002222   0.001387  -0.002521
              19
     1  C   -0.001649
     2  C   -0.000016
     3  C   -0.000005
     4  C    0.000001
     5  C    0.000007
     6  C    0.000391
     7  H    0.000000
     8  O    0.000000
     9  O    0.000000
    10  H    0.000004
    11  C    0.000000
    12  H    0.000000
    13  H    0.000000
    14  H    0.000000
    15  H   -0.000023
    16  C    0.002222
    17  H    0.001387
    18  H   -0.002521
    19  H    0.002067
 Mulliken charges and spin densities:
               1          2
     1  C    0.155271   0.479164
     2  C   -0.221229  -0.180812
     3  C    0.340995   0.308684
     4  C    0.224877  -0.077778
     5  C   -0.172489   0.388618
     6  C   -0.164855  -0.181237
     7  H    0.132964  -0.019066
     8  O   -0.484685   0.109360
     9  O   -0.640895   0.049042
    10  H    0.133744   0.006426
    11  C   -0.121546   0.109264
    12  H    0.159550  -0.002251
    13  H    0.424538  -0.000967
    14  H    0.156541  -0.000749
    15  H    0.125123   0.006329
    16  C   -0.531368  -0.039483
    17  H    0.162370   0.016545
    18  H    0.165283   0.027045
    19  H    0.155811   0.001865
 Sum of Mulliken charges =   0.00000   1.00000
 Mulliken charges and spin densities with hydrogens summed into heavy atoms:
               1          2
     1  C    0.155271   0.479164
     2  C   -0.087485  -0.174385
     3  C    0.340995   0.308684
     4  C    0.224877  -0.077778
     5  C   -0.039525   0.369552
     6  C   -0.039732  -0.174908
     8  O   -0.484685   0.109360
     9  O   -0.216358   0.048076
    11  C    0.194545   0.106264
    16  C   -0.047903   0.005972
 Electronic spatial extent (au):  <R**2>=           1448.2316
 Charge=              0.0000 electrons
 Dipole moment (field-independent basis, Debye):
    X=              0.4500    Y=             -0.8566    Z=              1.1728  Tot=              1.5204
 Quadrupole moment (field-independent basis, Debye-Ang):
   XX=            -52.3972   YY=            -57.5943   ZZ=            -60.2276
   XY=             -0.1289   XZ=             -3.3370   YZ=             -1.7289
 Traceless Quadrupole moment (field-independent basis, Debye-Ang):
   XX=              4.3425   YY=             -0.8546   ZZ=             -3.4879
   XY=             -0.1289   XZ=             -3.3370   YZ=             -1.7289
 Octapole moment (field-independent basis, Debye-Ang**2):
  XXX=            -11.2729  YYY=             -8.2023  ZZZ=             -1.0477  XYY=             -2.6173
  XXY=              7.7066  XXZ=              8.3447  XZZ=             -6.4841  YZZ=              4.4122
  YYZ=             -2.3992  XYZ=              5.5671
 Hexadecapole moment (field-independent basis, Debye-Ang**3):
 XXXX=          -1242.1880 YYYY=           -489.4027 ZZZZ=           -109.6249 XXXY=            -29.1075
 XXXZ=            -17.2840 YYYX=              6.4765 YYYZ=             -2.2046 ZZZX=              4.8577
 ZZZY=             -1.6004 XXYY=           -271.5902 XXZZ=           -231.2824 YYZZ=           -103.3433
 XXYZ=            -11.5129 YYXZ=              0.8650 ZZXY=             -2.0928
 N-N= 5.142298728885D+02 E-N=-2.101180782606D+03  KE= 4.564946807638D+02
                          Isotropic Fermi Contact Couplings
        Atom                 a.u.       MegaHertz       Gauss      10(-4) cm-1
     1  C(13)              0.05404      60.75476      21.67881      20.26561
     2  C(13)             -0.02851     -32.04812     -11.43557     -10.69010
     3  C(13)              0.03451      38.79612      13.84342      12.94099
     4  C(13)             -0.02891     -32.50401     -11.59824     -10.84217
     5  C(13)              0.04179      46.98159      16.76420      15.67137
     6  C(13)             -0.02903     -32.63296     -11.64425     -10.88518
     7  H(1)              -0.00598     -26.71467      -9.53246      -8.91106
     8  O(17)              0.02357     -14.28728      -5.09806      -4.76572
     9  O(17)              0.01420      -8.60567      -3.07072      -2.87054
    10  H(1)               0.00197       8.78663       3.13529       2.93090
    11  C(13)              0.04826      54.25877      19.36088      18.09878
    12  H(1)              -0.00101      -4.53408      -1.61787      -1.51240
    13  H(1)               0.00045       2.00872       0.71676       0.67004
    14  H(1)               0.00026       1.17544       0.41943       0.39208
    15  H(1)               0.00190       8.48155       3.02643       2.82914
    16  C(13)             -0.01422     -15.98739      -5.70470      -5.33282
    17  H(1)               0.00811      36.25023      12.93499      12.09178
    18  H(1)               0.01342      59.99889      21.40910      20.01348
    19  H(1)               0.00089       3.96505       1.41483       1.32260
 --------------------------------------------------------
       Center         ----  Spin Dipole Couplings  ----
                      3XX-RR        3YY-RR        3ZZ-RR
 --------------------------------------------------------
     1   Atom       -0.245723     -0.254234      0.499958
     2   Atom        0.076104      0.062329     -0.138434
     3   Atom       -0.179417     -0.173205      0.352622
     4   Atom        0.037062      0.015202     -0.052264
     5   Atom       -0.200459     -0.184501      0.384960
     6   Atom        0.068931      0.059940     -0.128871
     7   Atom       -0.018846      0.022236     -0.003389
     8   Atom        0.474518     -0.254341     -0.220177
     9   Atom       -0.114150     -0.147115      0.261266
    10   Atom        0.007029     -0.000909     -0.006120
    11   Atom        0.148360     -0.076269     -0.072091
    12   Atom        0.001618      0.005285     -0.006904
    13   Atom        0.011444     -0.003418     -0.008025
    14   Atom        0.001928      0.001030     -0.002958
    15   Atom        0.002077      0.004163     -0.006241
    16   Atom        0.004826     -0.007366      0.002540
    17   Atom        0.004688     -0.001112     -0.003576
    18   Atom        0.005261     -0.004094     -0.001167
    19   Atom        0.007061     -0.003495     -0.003566
 --------------------------------------------------------
                        XY            XZ            YZ
 --------------------------------------------------------
     1   Atom        0.004020     -0.022730     -0.055428
     2   Atom       -0.006011      0.006956      0.000254
     3   Atom       -0.002474     -0.029502      0.011434
     4   Atom        0.002480     -0.013681      0.001489
     5   Atom        0.002487     -0.010962     -0.045569
     6   Atom        0.010492     -0.001477      0.018112
     7   Atom        0.016703      0.002027      0.003483
     8   Atom       -0.016070      0.198258     -0.003631
     9   Atom        0.004778     -0.107807     -0.003045
    10   Atom       -0.002979      0.000359      0.000612
    11   Atom        0.008679      0.021495     -0.000223
    12   Atom        0.005946     -0.003891     -0.007074
    13   Atom        0.003369      0.005715      0.000260
    14   Atom       -0.003676     -0.005947      0.007810
    15   Atom        0.004567      0.000472      0.000663
    16   Atom        0.002484      0.000648     -0.000300
    17   Atom        0.005170     -0.001971     -0.001455
    18   Atom        0.003129      0.004212      0.001769
    19   Atom       -0.003411     -0.000646     -0.000014
 --------------------------------------------------------


 ---------------------------------------------------------------------------------
              Anisotropic Spin Dipole Couplings in Principal Axis System
 ---------------------------------------------------------------------------------

       Atom             a.u.   MegaHertz   Gauss  10(-4) cm-1        Axes

              Baa    -0.2587   -34.720   -12.389   -11.581 -0.1875  0.9800  0.0660
     1 C(13)  Bbb    -0.2460   -33.008   -11.778   -11.010  0.9818  0.1849  0.0437
              Bcc     0.5047    67.728    24.167    22.591 -0.0306 -0.0730  0.9969
 
              Baa    -0.1387   -18.607    -6.639    -6.207 -0.0324 -0.0022  0.9995
     2 C(13)  Bbb     0.0601     8.066     2.878     2.691  0.3467  0.9379  0.0133
              Bcc     0.0785    10.541     3.761     3.516  0.9374 -0.3470  0.0296
 
              Baa    -0.1815   -24.351    -8.689    -8.123  0.9735  0.2236  0.0490
     3 C(13)  Bbb    -0.1730   -23.220    -8.285    -7.745 -0.2221  0.9744 -0.0337
              Bcc     0.3545    47.571    16.975    15.868 -0.0553  0.0219  0.9982
 
              Baa    -0.0544    -7.295    -2.603    -2.433  0.1486 -0.0265  0.9885
     4 C(13)  Bbb     0.0150     2.019     0.720     0.673 -0.0874  0.9954  0.0398
              Bcc     0.0393     5.276     1.883     1.760  0.9850  0.0923 -0.1456
 
              Baa    -0.2009   -26.955    -9.618    -8.991  0.9919 -0.1264  0.0087
     5 C(13)  Bbb    -0.1879   -25.217    -8.998    -8.412  0.1253  0.9888  0.0811
              Bcc     0.3888    52.172    18.616    17.403 -0.0189 -0.0793  0.9967
 
              Baa    -0.1306   -17.528    -6.255    -5.847  0.0124 -0.0953  0.9954
     6 C(13)  Bbb     0.0544     7.297     2.604     2.434 -0.5771  0.8123  0.0849
              Bcc     0.0762    10.231     3.651     3.413  0.8166  0.5754  0.0449
 
              Baa    -0.0248   -13.236    -4.723    -4.415  0.9426 -0.3321 -0.0352
     7 H(1)   Bbb    -0.0039    -2.056    -0.734    -0.686 -0.0079 -0.1274  0.9918
              Bcc     0.0287    15.291     5.456     5.101  0.3338  0.9346  0.1227
 
              Baa    -0.2728    19.739     7.043     6.584 -0.2570 -0.0337  0.9658
     8 O(17)  Bbb    -0.2547    18.428     6.575     6.147  0.0117  0.9992  0.0380
              Bcc     0.5275   -38.167   -13.619   -12.731  0.9664 -0.0211  0.2564
 
              Baa    -0.1494    10.811     3.858     3.606 -0.4925  0.8616 -0.1229
     9 O(17)  Bbb    -0.1406    10.177     3.632     3.395  0.8313  0.5075  0.2268
              Bcc     0.2901   -20.989    -7.489    -7.001 -0.2578 -0.0095  0.9662
 
              Baa    -0.0062    -3.326    -1.187    -1.109 -0.0597 -0.1469  0.9873
    10 H(1)   Bbb    -0.0018    -0.956    -0.341    -0.319  0.3102  0.9374  0.1583
              Bcc     0.0080     4.282     1.528     1.428  0.9488 -0.3157  0.0104
 
              Baa    -0.0770   -10.331    -3.687    -3.446 -0.0690  0.9360  0.3452
    11 C(13)  Bbb    -0.0738    -9.900    -3.532    -3.302 -0.0767 -0.3500  0.9336
              Bcc     0.1508    20.231     7.219     6.748  0.9947  0.0379  0.0959
 
              Baa    -0.0103    -5.478    -1.955    -1.827  0.1136  0.3750  0.9200
    12 H(1)   Bbb    -0.0026    -1.414    -0.504    -0.471  0.8406 -0.5299  0.1122
              Bcc     0.0129     6.892     2.459     2.299  0.5296  0.7606 -0.3754
 
              Baa    -0.0096    -5.148    -1.837    -1.717 -0.2762  0.1095  0.9548
    13 H(1)   Bbb    -0.0040    -2.131    -0.761    -0.711 -0.1549  0.9754 -0.1567
              Bcc     0.0136     7.280     2.598     2.428  0.9485  0.1911  0.2525
 
              Baa    -0.0097    -5.166    -1.843    -1.723  0.2590 -0.5094  0.8206
    14 H(1)   Bbb    -0.0020    -1.048    -0.374    -0.350  0.7803  0.6111  0.1330
              Bcc     0.0116     6.215     2.218     2.073 -0.5692  0.6059  0.5558
 
              Baa    -0.0063    -3.355    -1.197    -1.119 -0.0286 -0.0508  0.9983
    15 H(1)   Bbb    -0.0016    -0.834    -0.298    -0.278  0.7824 -0.6228 -0.0093
              Bcc     0.0079     4.189     1.495     1.397  0.6222  0.7808  0.0575
 
              Baa    -0.0079    -1.056    -0.377    -0.352 -0.1938  0.9802  0.0403
    16 C(13)  Bbb     0.0024     0.328     0.117     0.109 -0.1860 -0.0771  0.9795
              Bcc     0.0054     0.728     0.260     0.243  0.9632  0.1823  0.1972
 
              Baa    -0.0044    -2.329    -0.831    -0.777 -0.2649  0.7119  0.6505
    17 H(1)   Bbb    -0.0039    -2.056    -0.734    -0.686  0.4684 -0.4947  0.7321
              Bcc     0.0082     4.385     1.565     1.463  0.8429  0.4986 -0.2024
 
              Baa    -0.0051    -2.746    -0.980    -0.916 -0.2019  0.9563 -0.2114
    18 H(1)   Bbb    -0.0032    -1.724    -0.615    -0.575 -0.4701  0.0948  0.8775
              Bcc     0.0084     4.470     1.595     1.491  0.8592  0.2766  0.4304
 
              Baa    -0.0045    -2.424    -0.865    -0.808  0.2865  0.9363  0.2029
    19 H(1)   Bbb    -0.0036    -1.898    -0.677    -0.633 -0.0078 -0.2095  0.9778
              Bcc     0.0081     4.322     1.542     1.442  0.9580 -0.2817 -0.0527
 

 ---------------------------------------------------------------------------------

 No NMR shielding tensors so no spin-rotation constants.
 Leave Link  601 at Wed Dec 03 17:14:52 2025, MaxMem=   104857600 cpu:               1.0 elap:               0.2
 (Enter D:\Gaussian\G16W\l9999.exe)
 1|1|UNPC-PC-20250526LCFF|SP|UB3LYP|6-31G(d)|C8H9O2(2)|ADMINISTRATOR|03
 -Dec-2025|0||#P B3LYP/6-31G* SCF=conver=7 out=wfn||Generated by Multiw
 fn (http://sobereva.com/multiwfn)||0,2|C,0,1.839306,-0.031101,0.017699
 |C,0,0.966067,1.084398,0.040042|C,0,-0.390624,0.922094,0.008423|C,0,-1
 .002799,-0.420484,0.043395|C,0,-0.074053,-1.539323,-0.120504|C,0,1.277
 699,-1.327213,-0.098569|H,0,-0.492789,-2.534005,-0.21485|O,0,-2.309885
 ,-0.459347,-0.694849|O,0,-1.236106,1.981111,-0.05952|H,0,1.362623,2.09
 3867,0.033573|C,0,-2.316924,-0.610426,0.721332|H,0,-2.568916,-1.604564
 ,1.084907|H,0,-2.057528,1.64687,-0.454565|H,0,-2.746892,0.214089,1.287
 357|H,0,1.946246,-2.178376,-0.178804|C,0,3.327632,0.171663,0.08233|H,0
 ,3.654378,0.963045,-0.599866|H,0,3.645957,0.468926,1.089294|H,0,3.8670
 32,-0.741609,-0.176986||Version=EM64W-G16RevA.03|State=2-A|HF=-460.626
 0061|S2=0.780524|S2-1=0.|S2A=0.750592|RMSD=4.517e-008|Dipole=0.17704,-
 0.3370307,0.4614069|Quadrupole=3.2285139,-0.6353515,-2.5931625,-0.0958
 632,-2.4809681,-1.2854237|PG=C01 [X(C8H9O2)]||@

 Writing a WFN file to "N.wfn"


 MODELS ARE TO BE USED, NOT BELIEVED.

    -- PARAPHRASED BY H. THIEL IN "PRINCIPLES OF ECONOMETRICS"
 Job cpu time:       0 days  0 hours  0 minutes 36.0 seconds.
 Elapsed time:       0 days  0 hours  0 minutes 35.9 seconds.
 File lengths (MBytes):  RWF=     32 Int=      0 D2E=      0 Chk=      3 Scr=      1
 Normal termination of Gaussian 16 at Wed Dec 03 17:14:52 2025.
