 Generated by Multiwfn (http://sobereva.com/multiwfn)
GAUSSIAN             73 MOL ORBITALS    316 PRIMITIVES       19 NUCLEI
  C    1    (CENTRE  1)   3.47578443 -0.05877184  0.03344637  CHARGE =  6.0
  C    2    (CENTRE  2)   1.82560151  2.04921547  0.07566852  CHARGE =  6.0
  C    3    (CENTRE  3)  -0.73817286  1.74250491  0.01591727  CHARGE =  6.0
  C    4    (CENTRE  4)  -1.89501551 -0.79460001  0.08200477  CHARGE =  6.0
  C    5    (CENTRE  5)  -0.13993956 -2.90889899 -0.22771945  CHARGE =  6.0
  C    6    (CENTRE  6)   2.41450143 -2.50806874 -0.18626831  CHARGE =  6.0
  H    7    (CENTRE  7)  -0.93123560 -4.78857569 -0.40600755  CHARGE =  1.0
  O    8    (CENTRE  8)  -4.36505006 -0.86804086 -1.31307420  CHARGE =  8.0
  O    9    (CENTRE  9)  -2.33590263  3.74375673 -0.11247640  CHARGE =  8.0
  H   10    (CENTRE 10)   2.57498341  3.95683554  0.06344388  CHARGE =  1.0
  C   11    (CENTRE 11)  -4.37835179 -1.15353880  1.36312003  CHARGE =  6.0
  H   12    (CENTRE 12)  -4.85454733 -3.03218743  2.05017720  CHARGE =  1.0
  H   13    (CENTRE 13)  -3.88816514  3.11213251 -0.85900325  CHARGE =  1.0
  H   14    (CENTRE 14)  -5.19087383  0.40456860  2.43275226  CHARGE =  1.0
  H   15    (CENTRE 15)   3.67787245 -4.11653347 -0.33789049  CHARGE =  1.0
  C   16    (CENTRE 16)   6.28831289  0.32439707  0.15558126  CHARGE =  6.0
  H   17    (CENTRE 17)   6.90577308  1.81989242 -1.13358235  CHARGE =  1.0
  H   18    (CENTRE 18)   6.88985986  0.88614283  2.05846743  CHARGE =  1.0
  H   19    (CENTRE 19)   7.30763146 -1.40143671 -0.33445496  CHARGE =  1.0
CENTRE ASSIGNMENTS    1  1  1  1  1  1  1  1  1  1  1  1  1  1  1  1  1  1  1  1
CENTRE ASSIGNMENTS    1  1  1  1  1  1  1  1  2  2  2  2  2  2  2  2  2  2  2  2
CENTRE ASSIGNMENTS    2  2  2  2  2  2  2  2  2  2  2  2  2  2  2  2  3  3  3  3
CENTRE ASSIGNMENTS    3  3  3  3  3  3  3  3  3  3  3  3  3  3  3  3  3  3  3  3
CENTRE ASSIGNMENTS    3  3  3  3  4  4  4  4  4  4  4  4  4  4  4  4  4  4  4  4
CENTRE ASSIGNMENTS    4  4  4  4  4  4  4  4  4  4  4  4  5  5  5  5  5  5  5  5
CENTRE ASSIGNMENTS    5  5  5  5  5  5  5  5  5  5  5  5  5  5  5  5  5  5  5  5
CENTRE ASSIGNMENTS    6  6  6  6  6  6  6  6  6  6  6  6  6  6  6  6  6  6  6  6
CENTRE ASSIGNMENTS    6  6  6  6  6  6  6  6  7  7  7  7  8  8  8  8  8  8  8  8
CENTRE ASSIGNMENTS    8  8  8  8  8  8  8  8  8  8  8  8  8  8  8  8  8  8  8  8
CENTRE ASSIGNMENTS    9  9  9  9  9  9  9  9  9  9  9  9  9  9  9  9  9  9  9  9
CENTRE ASSIGNMENTS    9  9  9  9  9  9  9  9 10 10 10 10 11 11 11 11 11 11 11 11
CENTRE ASSIGNMENTS   11 11 11 11 11 11 11 11 11 11 11 11 11 11 11 11 11 11 11 11
CENTRE ASSIGNMENTS   12 12 12 12 13 13 13 13 14 14 14 14 15 15 15 15 16 16 16 16
CENTRE ASSIGNMENTS   16 16 16 16 16 16 16 16 16 16 16 16 16 16 16 16 16 16 16 16
CENTRE ASSIGNMENTS   16 16 16 16 17 17 17 17 18 18 18 18 19 19 19 19
TYPE ASSIGNMENTS      1  1  1  1  1  1  1  1  1  2  2  2  3  3  3  4  4  4  1  2
TYPE ASSIGNMENTS      3  4  5  6  7  8  9 10  1  1  1  1  1  1  1  1  1  2  2  2
TYPE ASSIGNMENTS      3  3  3  4  4  4  1  2  3  4  5  6  7  8  9 10  1  1  1  1
TYPE ASSIGNMENTS      1  1  1  1  1  2  2  2  3  3  3  4  4  4  1  2  3  4  5  6
TYPE ASSIGNMENTS      7  8  9 10  1  1  1  1  1  1  1  1  1  2  2  2  3  3  3  4
TYPE ASSIGNMENTS      4  4  1  2  3  4  5  6  7  8  9 10  1  1  1  1  1  1  1  1
TYPE ASSIGNMENTS      1  2  2  2  3  3  3  4  4  4  1  2  3  4  5  6  7  8  9 10
TYPE ASSIGNMENTS      1  1  1  1  1  1  1  1  1  2  2  2  3  3  3  4  4  4  1  2
TYPE ASSIGNMENTS      3  4  5  6  7  8  9 10  1  1  1  1  1  1  1  1  1  1  1  1
TYPE ASSIGNMENTS      1  2  2  2  3  3  3  4  4  4  1  2  3  4  5  6  7  8  9 10
TYPE ASSIGNMENTS      1  1  1  1  1  1  1  1  1  2  2  2  3  3  3  4  4  4  1  2
TYPE ASSIGNMENTS      3  4  5  6  7  8  9 10  1  1  1  1  1  1  1  1  1  1  1  1
TYPE ASSIGNMENTS      1  2  2  2  3  3  3  4  4  4  1  2  3  4  5  6  7  8  9 10
TYPE ASSIGNMENTS      1  1  1  1  1  1  1  1  1  1  1  1  1  1  1  1  1  1  1  1
TYPE ASSIGNMENTS      1  1  1  1  1  2  2  2  3  3  3  4  4  4  1  2  3  4  5  6
TYPE ASSIGNMENTS      7  8  9 10  1  1  1  1  1  1  1  1  1  1  1  1
EXPONENTS  0.3047525D+04 0.4573695D+03 0.1039487D+03 0.2921016D+02 0.9286663D+01
EXPONENTS  0.3163927D+01 0.7868272D+01 0.1881289D+01 0.5442493D+00 0.7868272D+01
EXPONENTS  0.1881289D+01 0.5442493D+00 0.7868272D+01 0.1881289D+01 0.5442493D+00
EXPONENTS  0.7868272D+01 0.1881289D+01 0.5442493D+00 0.1687145D+00 0.1687145D+00
EXPONENTS  0.1687145D+00 0.1687145D+00 0.8000000D+00 0.8000000D+00 0.8000000D+00
EXPONENTS  0.8000000D+00 0.8000000D+00 0.8000000D+00 0.3047525D+04 0.4573695D+03
EXPONENTS  0.1039487D+03 0.2921016D+02 0.9286663D+01 0.3163927D+01 0.7868272D+01
EXPONENTS  0.1881289D+01 0.5442493D+00 0.7868272D+01 0.1881289D+01 0.5442493D+00
EXPONENTS  0.7868272D+01 0.1881289D+01 0.5442493D+00 0.7868272D+01 0.1881289D+01
EXPONENTS  0.5442493D+00 0.1687145D+00 0.1687145D+00 0.1687145D+00 0.1687145D+00
EXPONENTS  0.8000000D+00 0.8000000D+00 0.8000000D+00 0.8000000D+00 0.8000000D+00
EXPONENTS  0.8000000D+00 0.3047525D+04 0.4573695D+03 0.1039487D+03 0.2921016D+02
EXPONENTS  0.9286663D+01 0.3163927D+01 0.7868272D+01 0.1881289D+01 0.5442493D+00
EXPONENTS  0.7868272D+01 0.1881289D+01 0.5442493D+00 0.7868272D+01 0.1881289D+01
EXPONENTS  0.5442493D+00 0.7868272D+01 0.1881289D+01 0.5442493D+00 0.1687145D+00
EXPONENTS  0.1687145D+00 0.1687145D+00 0.1687145D+00 0.8000000D+00 0.8000000D+00
EXPONENTS  0.8000000D+00 0.8000000D+00 0.8000000D+00 0.8000000D+00 0.3047525D+04
EXPONENTS  0.4573695D+03 0.1039487D+03 0.2921016D+02 0.9286663D+01 0.3163927D+01
EXPONENTS  0.7868272D+01 0.1881289D+01 0.5442493D+00 0.7868272D+01 0.1881289D+01
EXPONENTS  0.5442493D+00 0.7868272D+01 0.1881289D+01 0.5442493D+00 0.7868272D+01
EXPONENTS  0.1881289D+01 0.5442493D+00 0.1687145D+00 0.1687145D+00 0.1687145D+00
EXPONENTS  0.1687145D+00 0.8000000D+00 0.8000000D+00 0.8000000D+00 0.8000000D+00
EXPONENTS  0.8000000D+00 0.8000000D+00 0.3047525D+04 0.4573695D+03 0.1039487D+03
EXPONENTS  0.2921016D+02 0.9286663D+01 0.3163927D+01 0.7868272D+01 0.1881289D+01
EXPONENTS  0.5442493D+00 0.7868272D+01 0.1881289D+01 0.5442493D+00 0.7868272D+01
EXPONENTS  0.1881289D+01 0.5442493D+00 0.7868272D+01 0.1881289D+01 0.5442493D+00
EXPONENTS  0.1687145D+00 0.1687145D+00 0.1687145D+00 0.1687145D+00 0.8000000D+00
EXPONENTS  0.8000000D+00 0.8000000D+00 0.8000000D+00 0.8000000D+00 0.8000000D+00
EXPONENTS  0.3047525D+04 0.4573695D+03 0.1039487D+03 0.2921016D+02 0.9286663D+01
EXPONENTS  0.3163927D+01 0.7868272D+01 0.1881289D+01 0.5442493D+00 0.7868272D+01
EXPONENTS  0.1881289D+01 0.5442493D+00 0.7868272D+01 0.1881289D+01 0.5442493D+00
EXPONENTS  0.7868272D+01 0.1881289D+01 0.5442493D+00 0.1687145D+00 0.1687145D+00
EXPONENTS  0.1687145D+00 0.1687145D+00 0.8000000D+00 0.8000000D+00 0.8000000D+00
EXPONENTS  0.8000000D+00 0.8000000D+00 0.8000000D+00 0.1873114D+02 0.2825394D+01
EXPONENTS  0.6401217D+00 0.1612778D+00 0.5484672D+04 0.8252349D+03 0.1880470D+03
EXPONENTS  0.5296450D+02 0.1689757D+02 0.5799635D+01 0.1553962D+02 0.3599934D+01
EXPONENTS  0.1013762D+01 0.1553962D+02 0.3599934D+01 0.1013762D+01 0.1553962D+02
EXPONENTS  0.3599934D+01 0.1013762D+01 0.1553962D+02 0.3599934D+01 0.1013762D+01
EXPONENTS  0.2700058D+00 0.2700058D+00 0.2700058D+00 0.2700058D+00 0.8000000D+00
EXPONENTS  0.8000000D+00 0.8000000D+00 0.8000000D+00 0.8000000D+00 0.8000000D+00
EXPONENTS  0.5484672D+04 0.8252349D+03 0.1880470D+03 0.5296450D+02 0.1689757D+02
EXPONENTS  0.5799635D+01 0.1553962D+02 0.3599934D+01 0.1013762D+01 0.1553962D+02
EXPONENTS  0.3599934D+01 0.1013762D+01 0.1553962D+02 0.3599934D+01 0.1013762D+01
EXPONENTS  0.1553962D+02 0.3599934D+01 0.1013762D+01 0.2700058D+00 0.2700058D+00
EXPONENTS  0.2700058D+00 0.2700058D+00 0.8000000D+00 0.8000000D+00 0.8000000D+00
EXPONENTS  0.8000000D+00 0.8000000D+00 0.8000000D+00 0.1873114D+02 0.2825394D+01
EXPONENTS  0.6401217D+00 0.1612778D+00 0.3047525D+04 0.4573695D+03 0.1039487D+03
EXPONENTS  0.2921016D+02 0.9286663D+01 0.3163927D+01 0.7868272D+01 0.1881289D+01
EXPONENTS  0.5442493D+00 0.7868272D+01 0.1881289D+01 0.5442493D+00 0.7868272D+01
EXPONENTS  0.1881289D+01 0.5442493D+00 0.7868272D+01 0.1881289D+01 0.5442493D+00
EXPONENTS  0.1687145D+00 0.1687145D+00 0.1687145D+00 0.1687145D+00 0.8000000D+00
EXPONENTS  0.8000000D+00 0.8000000D+00 0.8000000D+00 0.8000000D+00 0.8000000D+00
EXPONENTS  0.1873114D+02 0.2825394D+01 0.6401217D+00 0.1612778D+00 0.1873114D+02
EXPONENTS  0.2825394D+01 0.6401217D+00 0.1612778D+00 0.1873114D+02 0.2825394D+01
EXPONENTS  0.6401217D+00 0.1612778D+00 0.1873114D+02 0.2825394D+01 0.6401217D+00
EXPONENTS  0.1612778D+00 0.3047525D+04 0.4573695D+03 0.1039487D+03 0.2921016D+02
EXPONENTS  0.9286663D+01 0.3163927D+01 0.7868272D+01 0.1881289D+01 0.5442493D+00
EXPONENTS  0.7868272D+01 0.1881289D+01 0.5442493D+00 0.7868272D+01 0.1881289D+01
EXPONENTS  0.5442493D+00 0.7868272D+01 0.1881289D+01 0.5442493D+00 0.1687145D+00
EXPONENTS  0.1687145D+00 0.1687145D+00 0.1687145D+00 0.8000000D+00 0.8000000D+00
EXPONENTS  0.8000000D+00 0.8000000D+00 0.8000000D+00 0.8000000D+00 0.1873114D+02
EXPONENTS  0.2825394D+01 0.6401217D+00 0.1612778D+00 0.1873114D+02 0.2825394D+01
EXPONENTS  0.6401217D+00 0.1612778D+00 0.1873114D+02 0.2825394D+01 0.6401217D+00
EXPONENTS  0.1612778D+00
MO    1     MO 0.0        OCC NO =    1.0000000  ORB. ENERGY =  -19.181023
  0.17039169D-05  0.31433939D-05  0.50744124D-05  0.66053772D-05  0.56363804D-05
  0.19461067D-05  0.49921687D-05  0.23008860D-05 -0.64519245D-05 -0.80867713D-04
 -0.62004233D-04 -0.30944458D-04  0.44709633D-04  0.34280511D-04  0.17108377D-04
 -0.98069031D-06 -0.75193113D-06 -0.37526633D-06  0.25901790D-03 -0.47494004D-04
  0.25429205D-04  0.73266371D-07  0.21046950D-04  0.36308879D-04  0.26263813D-04
 -0.14474113D-04 -0.63598892D-06  0.50712865D-05  0.75443672D-05  0.13917884D-04
  0.22467781D-04  0.29246375D-04  0.24955985D-04  0.86167017D-05 -0.63968562D-04
 -0.29483052D-04  0.82673555D-04 -0.10518385D-04 -0.80648304D-05 -0.40249156D-05
 -0.23006589D-04 -0.17639993D-04 -0.88035927D-05 -0.85750645D-05 -0.65748156D-05
 -0.32812938D-05 -0.27500171D-03  0.47559741D-04  0.28341515D-03  0.75142417D-05
 -0.78817742D-04 -0.53406490D-04  0.37968666D-04 -0.18009557D-04 -0.17018254D-04
 -0.77257180D-05 -0.29562256D-04 -0.54536591D-04 -0.88038967D-04 -0.11460058D-03
 -0.97788880D-04 -0.33764150D-04 -0.49171777D-04 -0.22663227D-04  0.63550054D-04
 -0.30630199D-03 -0.23485294D-03 -0.11720808D-03  0.48127544D-03  0.36901148D-03
  0.18416259D-03  0.47693702D-05  0.36568506D-05  0.18250247D-05  0.67082594D-04
  0.32210288D-03 -0.66325166D-03  0.79032527D-05 -0.79883360D-04 -0.19228811D-04
 -0.11568294D-03  0.11110693D-03  0.42787209D-05  0.20367396D-04  0.56226090D-05
  0.10372616D-04  0.16744618D-04  0.21796517D-04  0.18599008D-04  0.64217904D-05
 -0.57812666D-04 -0.26645805D-04  0.74717618D-04  0.63256182D-04  0.48500828D-04
  0.24205312D-04 -0.10448571D-04 -0.80113015D-05 -0.39982009D-05 -0.26255426D-04
 -0.20130995D-04 -0.10046777D-04 -0.33446502D-03 -0.38353727D-03 -0.15740667D-03
  0.33590790D-04 -0.32525273D-04 -0.13702260D-03  0.49954592D-04 -0.50719687D-04
  0.32805838D-04  0.53606914D-05 -0.68917241D-07 -0.12713885D-06 -0.20524153D-06
 -0.26716349D-06 -0.22797109D-06 -0.78712939D-07  0.68768506D-05  0.31695342D-05
 -0.88877047D-05 -0.43179833D-04 -0.33107557D-04 -0.16522991D-04  0.68349298D-04
  0.52405906D-04  0.26154220D-04  0.33586876D-05  0.25752286D-05  0.12852196D-05
  0.23564712D-03  0.97159669D-04  0.10426670D-03  0.10738089D-04  0.10761584D-04
  0.22313708D-04  0.18656028D-04 -0.28805650D-04  0.67700047D-05  0.17859178D-04
  0.78865602D-05  0.14549164D-04  0.23486861D-04  0.30572915D-04  0.26087924D-04
  0.90075331D-05 -0.30509191D-04 -0.14061658D-04  0.39430358D-04 -0.74858834D-05
 -0.57397006D-05 -0.28645129D-05  0.31027751D-04  0.23790111D-04  0.11872933D-04
 -0.23141929D-05 -0.17743763D-05 -0.88553813D-06 -0.21253198D-03  0.81473988D-04
 -0.51032455D-04 -0.20761175D-05 -0.14799145D-04  0.88363328D-05  0.40059693D-04
 -0.37780318D-04 -0.76384339D-05  0.21026385D-05  0.84006550D-05  0.14249101D-04
  0.16222098D-04  0.34873627D-04  0.36764736D-04  0.67666740D-04  0.10949756D-03
  0.14393760D-03  0.12345445D-03  0.42211172D-04  0.12387522D-06  0.55272882D-07
 -0.16322156D-06  0.21228620D-04  0.16355507D-04  0.71809485D-05 -0.74812069D-04
 -0.57638666D-04 -0.25306479D-04  0.50747093D-04  0.39097899D-04  0.17166084D-04
 -0.62006327D-04 -0.46852125D-04  0.58097850D-04 -0.42406461D-04 -0.30216770D-04
  0.24779676D-05 -0.52862412D-04  0.56972710D-04 -0.76117345D-04 -0.44776170D-05
  0.82561559D+00  0.15195734D+01  0.24589566D+01  0.32323673D+01  0.27723827D+01
  0.94792471D+00 -0.15832163D-01 -0.70642805D-02  0.20860915D-01 -0.85189654D-03
 -0.65634036D-03 -0.28816877D-03 -0.29339860D-02 -0.22604780D-02 -0.99247161D-03
 -0.85027015D-03 -0.65508731D-03 -0.28761862D-03  0.38648356D-02  0.26798346D-03
 -0.22950278D-03  0.27545504D-04 -0.92140554D-02 -0.92606091D-02 -0.92288203D-02
 -0.14434695D-03 -0.22676242D-04 -0.36958320D-04 -0.94068764D-05 -0.15955843D-04
 -0.18165163D-04 -0.12667947D-03 -0.17405911D-05 -0.32110507D-05 -0.51836315D-05
 -0.67475480D-05 -0.57576950D-05 -0.19879937D-05  0.11419998D-04  0.52634666D-05
 -0.14759310D-04 -0.48328152D-04 -0.37054961D-04 -0.18493023D-04  0.37781667D-05
  0.28968586D-05  0.14457355D-05 -0.21919616D-04 -0.16806571D-04 -0.83876569D-05
 -0.15500161D-03 -0.56091841D-04  0.24732761D-04  0.43817800D-04 -0.16568021D-04
  0.51102019D-05  0.22644703D-04  0.56037760D-04  0.52684447D-04 -0.19419263D-05
  0.48890837D-05  0.82928113D-05  0.94410725D-05  0.50477525D-05  0.86939843D-04
  0.14746643D-03  0.16788532D-03 -0.20619204D-03  0.48351129D-05  0.82012667D-05
  0.93368522D-05 -0.22153538D-04 -0.23857422D-05 -0.40466704D-05 -0.46069912D-05
 -0.25059396D-04  0.59821993D-05  0.11035990D-04  0.17815509D-04  0.23190499D-04
  0.19788495D-04  0.68324918D-05 -0.21002300D-04 -0.96799408D-05  0.27143564D-04
  0.56338019D-05  0.43196420D-05  0.21558041D-05  0.12458781D-05  0.95526031D-06
  0.47674184D-06  0.11124373D-05  0.85294635D-06  0.42568001D-06 -0.53432497D-04
  0.18979628D-04 -0.19757524D-05  0.23215474D-06 -0.43734927D-05  0.21456171D-04
  0.21905064D-04 -0.38871842D-05 -0.25549292D-05  0.43378552D-06  0.22022596D-05
  0.37354491D-05  0.42526767D-05  0.60654197D-05  0.27378259D-05  0.46438710D-05
  0.52868830D-05  0.44460476D-05  0.30072710D-05  0.51009008D-05  0.58071953D-05
 -0.18769343D-06
MO    2     MO 0.0        OCC NO =    1.0000000  ORB. ENERGY =  -19.172240
 -0.25180105D-05 -0.46452377D-05 -0.74988539D-05 -0.97612797D-05 -0.83293177D-05
 -0.28759132D-05  0.10183893D-04  0.46937468D-05 -0.13161756D-04  0.11224511D-04
  0.86062433D-05  0.42951186D-05 -0.32244171D-06 -0.24722785D-06 -0.12338402D-06
  0.92500124D-05  0.70923228D-05  0.35395662D-05  0.75895934D-04 -0.55439784D-04
 -0.53638760D-05 -0.25381557D-05 -0.11246969D-06  0.17012675D-05 -0.93079621D-05
 -0.48635355D-05 -0.91759453D-06 -0.91419474D-06  0.39625863D-05  0.73101979D-05
  0.11800926D-04  0.15361299D-04  0.13107825D-04  0.45258168D-05 -0.19438251D-04
 -0.89590720D-05  0.25122173D-04  0.10635365D-04  0.81545235D-05  0.40696787D-05
  0.33267707D-05  0.25507567D-05  0.12730064D-05  0.26249522D-04  0.20126469D-04
  0.10044518D-04 -0.14716402D-03  0.42019501D-04  0.39449967D-04 -0.29727376D-06
 -0.48863413D-05 -0.49912584D-05  0.98440681D-05 -0.86213017D-05 -0.18415553D-04
  0.82727491D-05  0.19348195D-05  0.35693642D-05  0.57620605D-05  0.75004907D-05
  0.64001823D-05  0.22098291D-05 -0.16932656D-04 -0.78042458D-05  0.21883920D-04
 -0.72444574D-04 -0.55545904D-04 -0.27721299D-04 -0.11021098D-04 -0.84502786D-05
 -0.42172813D-05 -0.93847597D-05 -0.71956385D-05 -0.35911279D-05  0.14467930D-03
  0.63297329D-04 -0.70478346D-06 -0.14064477D-04 -0.44808329D-05  0.22121490D-04
  0.83711561D-06 -0.95573322D-04 -0.62140680D-04  0.29143867D-04  0.12515553D-04
  0.23088751D-04  0.37272403D-04  0.48517593D-04  0.41400150D-04  0.14294477D-04
 -0.61786185D-04 -0.28477196D-04  0.79853030D-04 -0.24554550D-03 -0.18826872D-03
 -0.93959285D-04 -0.12975133D-04 -0.99485090D-05 -0.49650032D-05 -0.20435297D-03
 -0.15668490D-03 -0.78196745D-04 -0.31342738D-03  0.19188899D-04  0.17373943D-04
  0.10602766D-03  0.30232739D-03  0.95608784D-04  0.18996765D-03  0.33266100D-04
  0.26244381D-03  0.51044608D-05  0.48435762D-06  0.89354523D-06  0.14424591D-05
  0.18776531D-05  0.16022048D-05  0.55320281D-06 -0.35454104D-05 -0.16340764D-05
  0.45821208D-05 -0.63727415D-04 -0.48862140D-04 -0.24385632D-04  0.28542809D-04
  0.21884816D-04  0.10922057D-04 -0.29120498D-04 -0.22327751D-04 -0.11143112D-04
  0.14104711D-03  0.24039637D-04  0.56436853D-04 -0.22032714D-05  0.22387385D-04
  0.62678798D-05 -0.14126407D-05  0.31229188D-04 -0.27840690D-04 -0.65532527D-04
  0.30861320D-05  0.56933109D-05  0.91907691D-05  0.11963651D-04  0.10208605D-04
  0.35247859D-05 -0.15654364D-04 -0.72150822D-05  0.20231844D-04  0.18112403D-04
  0.13887442D-04  0.69308066D-05 -0.58823154D-05 -0.45101864D-05 -0.22508991D-05
  0.27864676D-04  0.21364866D-04  0.10662566D-04 -0.11299677D-03  0.41931386D-04
 -0.35332516D-04 -0.88389747D-05 -0.18389830D-04  0.30302478D-05  0.67877396D-05
  0.75845655D-05 -0.27688422D-05 -0.14910203D-04  0.77236457D-05  0.13100765D-04
  0.14914758D-04  0.14217091D-04  0.82573243D+00  0.15197885D+01  0.24593046D+01
  0.32328248D+01  0.27727750D+01  0.94805887D+00 -0.16122419D-01 -0.71937918D-02
  0.21243363D-01  0.12861199D-02  0.99088606D-03  0.43505235D-03 -0.10480084D-03
 -0.80743397D-04 -0.35450700D-04  0.28778921D-02  0.22172607D-02  0.97349689D-03
  0.29746724D-02  0.73079479D-04  0.23514611D-04  0.70682899D-04 -0.88290241D-02
 -0.87948348D-02 -0.89692746D-02  0.28657018D-05 -0.87456467D-04  0.23626062D-04
 -0.57397543D-04 -0.10564212D-03 -0.17094889D-03 -0.22471710D-03 -0.19273855D-03
 -0.65900584D-04  0.48997139D-04  0.21862428D-04 -0.64560042D-04  0.11059521D-03
  0.85207645D-04  0.37410746D-04 -0.60644215D-04 -0.46723098D-04 -0.20513957D-04
 -0.18944568D-04 -0.14595768D-04 -0.64083284D-05  0.13241703D-03 -0.91190866D-04
  0.28621534D-05 -0.13475628D-04 -0.48328328D-04 -0.95347802D-04 -0.46047260D-04
  0.86684074D-04  0.31614149D-04 -0.98216097D-05 -0.34681306D-06 -0.58826059D-06
 -0.66971389D-06 -0.11764023D-04 -0.34591479D-06 -0.63814524D-06 -0.10301643D-05
 -0.13409678D-05 -0.11442503D-05 -0.39508211D-06 -0.11499422D-03 -0.53000730D-04
  0.14861958D-03 -0.42726811D-04 -0.32760209D-04 -0.16349640D-04  0.14500397D-04
  0.11117985D-04  0.55486537D-05 -0.39837284D-03 -0.30544703D-03 -0.15243947D-03
 -0.26819062D-03  0.26747879D-04 -0.73673679D-05  0.10623670D-03 -0.16452677D-05
 -0.10424126D-04  0.20508432D-03 -0.14856610D-04  0.82702511D-04 -0.17200449D-04
  0.16651469D-04  0.28244043D-04  0.32154845D-04  0.14339242D-04 -0.10557634D-04
 -0.17907745D-04 -0.20387335D-04 -0.10548117D-03  0.11391290D-04  0.19321784D-04
  0.21997168D-04  0.23061735D-04 -0.17736433D-05 -0.30084347D-05 -0.34249966D-05
 -0.14353083D-04  0.38195581D-06  0.70463389D-06  0.11374976D-05  0.14806839D-05
  0.12634702D-05  0.43624591D-06 -0.43657383D-06 -0.20121648D-06  0.56423201D-06
 -0.10290165D-04 -0.78898458D-05 -0.39375860D-05  0.15436442D-05  0.11835684D-05
  0.59068360D-06 -0.50179564D-05 -0.38474507D-05 -0.19201476D-05  0.22990937D-04
 -0.54943851D-05 -0.37874864D-05  0.18131254D-05  0.20588835D-05  0.10804405D-05
  0.41384180D-05  0.14506601D-05 -0.48040339D-06  0.29848700D-05  0.44503639D-06
  0.75486594D-06  0.85938820D-06  0.95526685D-06 -0.73673474D-06 -0.12496416D-05
 -0.14226727D-05 -0.94509964D-06 -0.31829886D-06 -0.53989510D-06 -0.61465149D-06
 -0.28564996D-05
MO    3     MO 0.0        OCC NO =    1.0000000  ORB. ENERGY =  -10.258646
 -0.31525423D-04 -0.58158249D-04 -0.93885447D-04 -0.12221096D-03 -0.10428283D-03
 -0.36006355D-04  0.49920738D-04  0.23008422D-04 -0.64518018D-04 -0.17701561D-04
 -0.13572434D-04 -0.67735960D-05 -0.17639093D-04 -0.13524538D-04 -0.67496924D-05
 -0.11206540D-05 -0.85924639D-06 -0.42882417D-06  0.47581187D-03 -0.14299695D-03
  0.22381869D-04 -0.20720646D-04 -0.19763245D-04  0.20755492D-05 -0.54168830D-04
  0.20520915D-05  0.89506079D-05  0.13526826D-04  0.59253540D-04  0.10931121D-03
  0.17646219D-03  0.22970134D-03  0.19600457D-03  0.67675667D-04  0.29314742D-04
  0.13511138D-04 -0.37886641D-04 -0.40510833D-04 -0.31061137D-04 -0.15501684D-04
 -0.59272757D-04 -0.45446590D-04 -0.22681034D-04 -0.26556260D-04 -0.20361656D-04
 -0.10161893D-04  0.40480416D-03 -0.31097056D-03  0.26575041D-03  0.15468495D-04
  0.13069673D-03  0.20586511D-04 -0.11220682D-04 -0.52613525D-05 -0.27120989D-05
 -0.32438242D-04  0.13788359D-01  0.25436830D-01  0.41062930D-01  0.53451734D-01
  0.45610461D-01  0.15748196D-01 -0.34965453D-03 -0.16115545D-03  0.45189671D-03
  0.22924110D-03  0.17576753D-03  0.87720318D-04  0.36346173D-03  0.27867940D-03
  0.13908055D-03  0.38941259D-04  0.29857688D-04  0.14901079D-04  0.92060830D-03
 -0.88618989D-03 -0.59553786D-03 -0.40956979D-04 -0.45975195D-03 -0.72957818D-03
 -0.46658333D-03 -0.63187772D-04  0.55376645D-04 -0.18569353D-05  0.53250260D+00
  0.98236331D+00  0.15858390D+01  0.20642912D+01  0.17614634D+01  0.60819098D+00
 -0.20134662D-01 -0.92800472D-02  0.26022221D-01 -0.16722984D-02 -0.12822124D-02
 -0.63991383D-03  0.73414904D-04  0.56289892D-04  0.28092601D-04 -0.33696208D-03
 -0.25836115D-03 -0.12894032D-03 -0.51278448D-02  0.89484165D-03 -0.33010552D-03
  0.48019021D-04 -0.94997293D-02 -0.95107394D-02 -0.96581650D-02 -0.12369042D-03
 -0.26117841D-03  0.41632683D-04  0.12766608D-02  0.23551900D-02  0.38020069D-02
  0.49490833D-02  0.42230617D-02  0.14581217D-02  0.10139579D-03  0.46733225D-04
 -0.13104484D-03  0.27581475D-03  0.21147726D-03  0.10554197D-03 -0.32343480D-03
 -0.24798929D-03 -0.12376404D-03  0.17822671D-04  0.13665293D-04  0.68199391D-05
  0.66995116D-03 -0.41566396D-03  0.20674579D-03 -0.31232769D-04 -0.29318741D-03
 -0.46849782D-03 -0.21634246D-03  0.23426990D-03  0.10528137D-03 -0.10680860D-03
  0.14031242D-04  0.25884902D-04  0.41786258D-04  0.54393292D-04  0.46413895D-04
  0.16025603D-04 -0.96075064D-05 -0.44280909D-05  0.12416829D-04 -0.36106086D-04
 -0.27683856D-04 -0.13816185D-04  0.57639368D-04  0.44194211D-04  0.22056009D-04
 -0.29017915D-04 -0.22249097D-04 -0.11103859D-04 -0.21393112D-04 -0.11691192D-04
 -0.23145142D-03  0.80622010D-05  0.10292932D-03  0.24076207D-04  0.26968200D-04
  0.17249040D-04 -0.31621305D-04  0.16165128D-04 -0.36836319D-04 -0.62481369D-04
 -0.71132831D-04 -0.70148354D-04 -0.12281956D-03 -0.22605355D-03 -0.36579731D-03
 -0.48085081D-03 -0.41242294D-03 -0.14101441D-03  0.29189815D-03  0.13024439D-03
 -0.38461342D-03 -0.42089275D-03 -0.32427517D-03 -0.14237427D-03  0.50363270D-04
  0.38802184D-04  0.17036249D-04  0.38684280D-03  0.29804152D-03  0.13085628D-03
  0.12859095D-02  0.61766980D-03  0.48732806D-04 -0.10577138D-03 -0.47836770D-03
 -0.24562722D-03 -0.61850604D-03  0.14078273D-04 -0.44995715D-03  0.42028965D-04
  0.12861734D-04  0.23672457D-04  0.38306503D-04  0.50354971D-04  0.43189166D-04
  0.14767109D-04 -0.31288163D-04 -0.13960717D-04  0.41226186D-04 -0.82122127D-04
 -0.63270672D-04 -0.27779233D-04  0.78508228D-04  0.60486357D-04  0.26556769D-04
  0.18434018D-04  0.14202417D-04  0.62356261D-05 -0.31459800D-03  0.79562307D-04
  0.16897994D-03  0.24144958D-05  0.18108222D-03  0.51598951D-04 -0.88996990D-04
  0.23589878D-04  0.16171496D-04 -0.13559529D-04 -0.33910846D-04 -0.57519212D-04
 -0.65483590D-04 -0.70703357D-04  0.71588382D-02  0.13206659D-01  0.21319642D-01
  0.27751839D-01  0.23680694D-01  0.81763747D-02 -0.14979933D-03 -0.69042376D-04
  0.19360203D-03  0.19050618D-03  0.14606805D-03  0.72898196D-04  0.35833905D-04
  0.27475165D-04  0.13712033D-04 -0.12613206D-03 -0.96710060D-04 -0.48265098D-04
  0.16017288D-02  0.43650339D-03  0.15270957D-03 -0.21080129D-03 -0.51259906D-03
 -0.12893089D-03 -0.33507922D-03 -0.17356489D-04  0.33905117D-03  0.66121531D-04
 -0.47412411D-04 -0.80420424D-04 -0.91555810D-04 -0.10422801D-04  0.23336058D-04
  0.39582372D-04  0.45063131D-04 -0.38835664D-05 -0.64403154D-04 -0.10923994D-03
 -0.12436581D-03 -0.94831094D-04 -0.23287196D-04 -0.39499491D-04 -0.44968775D-04
 -0.65060244D-04 -0.79984258D-05 -0.14755534D-04 -0.23820007D-04 -0.31006571D-04
 -0.26457963D-04 -0.91352989D-05  0.17324988D-04  0.79850713D-05 -0.22390973D-04
  0.38894110D-04  0.29821536D-04  0.14883037D-04 -0.31221694D-04 -0.23938815D-04
 -0.11947146D-04 -0.73464896D-05 -0.56328222D-05 -0.28111731D-05  0.41228121D-04
 -0.28552864D-04  0.18447213D-04  0.11221930D-04 -0.13641245D-04 -0.65991518D-05
 -0.26893912D-04 -0.95045559D-06 -0.23224576D-05 -0.55357681D-05 -0.51140642D-05
 -0.86744208D-05 -0.98755214D-05  0.52101669D-05 -0.27685935D-05 -0.46960585D-05
 -0.53462966D-05 -0.92656202D-05  0.36519619D-06  0.61944186D-06  0.70521267D-06
  0.27538060D-04
MO    4     MO 0.0        OCC NO =    1.0000000  ORB. ENERGY =  -10.252685
  0.21469438D-04  0.39606920D-04  0.63937850D-04  0.83228083D-04  0.71018674D-04
  0.24521042D-04 -0.92994136D-04 -0.42860912D-04  0.12018647D-03  0.98322274D-04
  0.75387283D-04  0.37623538D-04 -0.54432031D-04 -0.41735029D-04 -0.20828704D-04
  0.32150240D-04  0.24650765D-04  0.12302459D-04 -0.12758167D-02  0.53271873D-03
 -0.13961302D-03 -0.10643478D-04  0.18694691D-04  0.16903703D-04  0.48514963D-04
 -0.32167549D-05 -0.56103520D-05 -0.22105650D-04  0.23707947D-02  0.43736534D-02
  0.70604326D-02  0.91905854D-02  0.78423432D-02  0.27077726D-02  0.28859914D-03
  0.13301508D-03 -0.37298817D-03  0.32500693D-03  0.24919470D-03  0.12436562D-03
  0.16735205D-03  0.12831494D-03  0.64038147D-04  0.22507071D-05  0.17256995D-05
  0.86124498D-06  0.24743323D-02 -0.53812269D-03 -0.98563682D-03 -0.12832417D-04
 -0.34455653D-03 -0.26653201D-03 -0.37485190D-03  0.16200185D-03 -0.12375076D-04
  0.34872343D-04  0.53233033D+00  0.98204552D+00  0.15853260D+01  0.20636234D+01
  0.17608936D+01  0.60799423D+00 -0.19999535D-01 -0.92177675D-02  0.25847582D-01
 -0.88831687D-03 -0.68110503D-03 -0.33991915D-03  0.69956042D-03  0.53637856D-03
  0.26769049D-03  0.63542177D-05  0.48720111D-05  0.24314750D-05 -0.35998475D-02
 -0.10819724D-02  0.12990680D-02 -0.56744648D-04 -0.99996643D-02 -0.10044297D-01
 -0.10455929D-01 -0.76538903D-03  0.56344973D-04 -0.78054666D-04 -0.13947484D-01
 -0.25730385D-01 -0.41536819D-01 -0.54068597D-01 -0.46136832D-01 -0.15929939D-01
  0.62998864D-03  0.29036119D-03 -0.81420307D-03 -0.29632947D-03 -0.22720664D-03
 -0.11339204D-03 -0.26618678D-03 -0.20409514D-03 -0.10185778D-03  0.11860708D-03
  0.90940384D-04  0.45385625D-04  0.14512541D-02  0.12753438D-02  0.34913874D-03
 -0.11790387D-03  0.42604041D-04 -0.16613598D-03  0.11874169D-04 -0.22733083D-04
 -0.66603514D-04  0.88142194D-04 -0.90674721D-05 -0.16727716D-04 -0.27003720D-04
 -0.35150819D-04 -0.29994258D-04 -0.10356296D-04 -0.63857780D-04 -0.29431993D-04
  0.82530380D-04  0.68749077D-04  0.52712432D-04  0.26307198D-04 -0.16843464D-03
 -0.12914500D-03 -0.64452406D-04  0.26612864D-04  0.20405056D-04  0.10183553D-04
 -0.12045655D-02 -0.28146385D-03 -0.49256138D-03 -0.66743041D-04  0.49903718D-04
  0.22213909D-04  0.24659391D-04 -0.89999900D-05 -0.55363065D-04 -0.58360614D-04
 -0.60759579D-04 -0.11208956D-03 -0.18094730D-03 -0.23553962D-03 -0.20098639D-03
 -0.69395769D-04  0.12584845D-03  0.58003438D-04 -0.16264769D-03  0.50935941D-04
  0.39054449D-04  0.19490907D-04 -0.65169845D-04 -0.49968104D-04 -0.24937586D-04
  0.69279903D-05  0.53119436D-05  0.26510321D-05  0.96866827D-03 -0.39782553D-03
  0.31728959D-03  0.30172347D-04  0.40582330D-05 -0.23430347D-04 -0.13392010D-03
  0.59126629D-04 -0.37612128D-07  0.11237910D-05 -0.19903536D-04 -0.33760164D-04
 -0.38434753D-04 -0.13921729D-03 -0.30940343D-04 -0.56946747D-04 -0.92150586D-04
 -0.12113453D-03 -0.10389638D-03 -0.35523936D-04  0.13213592D-03  0.58958788D-04
 -0.17410609D-03 -0.91527621D-04 -0.70517098D-04 -0.30960804D-04 -0.53573526D-04
 -0.41275514D-04 -0.18122174D-04 -0.17886404D-04 -0.13780510D-04 -0.60503861D-05
  0.36586142D-03  0.15452908D-03 -0.70873839D-05  0.70637257D-04 -0.91550344D-04
 -0.87967440D-04 -0.11300235D-03  0.34073101D-04  0.25567738D-03 -0.46438598D-05
  0.10980041D-03  0.20209137D-03  0.32702199D-03  0.42987956D-03  0.36870520D-03
  0.12606657D-03 -0.65189145D-03 -0.29087269D-03  0.85895096D-03 -0.47114481D-04
 -0.36299167D-04 -0.15937290D-04  0.59609293D-04  0.45925747D-04  0.20163877D-04
  0.45369353D-04  0.34954641D-04  0.15346970D-04 -0.15919337D-02 -0.43819867D-03
  0.59355869D-03 -0.48987565D-04  0.29340703D-03  0.15449559D-04  0.90733241D-03
  0.11361116D-02 -0.16904741D-03  0.97013694D-04  0.36550982D-04  0.61997383D-04
  0.70581829D-04  0.31227404D-03 -0.69950294D-03 -0.12904463D-02 -0.20831805D-02
 -0.27116820D-02 -0.23138832D-02 -0.79892826D-03  0.95123525D-04  0.43842346D-04
 -0.12293851D-03  0.97384991D-04  0.74668634D-04  0.37264881D-04 -0.42645901D-04
 -0.32698172D-04 -0.16318680D-04 -0.13139332D-04 -0.10074406D-04 -0.50278347D-05
  0.57782806D-03  0.19363289D-03  0.21995952D-04 -0.15773225D-03  0.40653270D-04
  0.11813397D-04 -0.11532054D-04  0.23349145D-04 -0.24397406D-03  0.30405463D-04
 -0.93774667D-05 -0.15905958D-04 -0.18108371D-04  0.26365559D-04  0.50683107D-04
  0.85968143D-04  0.97871692D-04 -0.41437706D-04 -0.24111238D-04 -0.40897223D-04
 -0.46560043D-04  0.40480627D-04  0.22087232D-04  0.37464126D-04  0.42651583D-04
  0.14232053D-03 -0.25542714D-04 -0.47121319D-04 -0.76068419D-04 -0.99018480D-04
 -0.84492648D-04 -0.29173281D-04  0.58741889D-04  0.27074083D-04 -0.75918555D-04
  0.38263825D-04  0.29338274D-04  0.14641855D-04 -0.65039184D-05 -0.49867921D-05
 -0.24887588D-05 -0.11036954D-04 -0.84624361D-05 -0.42233487D-05 -0.11252812D-04
 -0.21595983D-04  0.63367410D-04  0.17223516D-04  0.13710898D-04 -0.85794554D-04
 -0.50545945D-04 -0.71069451D-04 -0.33740415D-05 -0.28341915D-04 -0.10356123D-04
 -0.17565944D-04 -0.19998207D-04 -0.12720041D-04 -0.96441847D-05 -0.16358363D-04