Title Card Required                                                     
SP        UB3LYP                                                      6-311G(d,p)         
Number of atoms                            I               19
Info1-9                                    I   N=           9
          49          48           0           0           0         110
           1          18        -502
Full Title                                 C   N=           2
Title Card Required     
Route                                      C   N=           5
# ub3lyp/6-311g(d,p) geom=connectivity temperature=823.15   
Charge                                     I                0
Multiplicity                               I                2
Number of electrons                        I               73
Number of alpha electrons                  I               37
Number of beta electrons                   I               36
Number of basis functions                  I              234
Number of independent functions            I              234
Number of point charges in /Mol/           I                0
Number of translation vectors              I                0
Atomic numbers                             I   N=          19
           6           6           6           6           6           6
           1           8           8           1           6           1
           1           1           1           6           1           1
           1
Nuclear charges                            R   N=          19
  6.00000000E+00  6.00000000E+00  6.00000000E+00  6.00000000E+00  6.00000000E+00
  6.00000000E+00  1.00000000E+00  8.00000000E+00  8.00000000E+00  1.00000000E+00
  6.00000000E+00  1.00000000E+00  1.00000000E+00  1.00000000E+00  1.00000000E+00
  6.00000000E+00  1.00000000E+00  1.00000000E+00  1.00000000E+00
Current cartesian coordinates              R   N=          57
  3.47578460E+00 -5.87723722E-02  3.34462627E-02  1.82560205E+00  2.04921523E+00
  7.56684135E-02 -7.38172378E-01  1.74250512E+00  1.59171631E-02 -1.89501547E+00
 -7.94599600E-01  8.20046652E-02 -1.39939889E-01 -2.90889889E+00 -2.27719557E-01
  2.41450118E+00 -2.50806908E+00 -1.86268414E-01 -9.31236247E-01 -4.78857545E+00
 -4.06007658E-01 -4.36505003E+00 -8.68040026E-01 -1.31307431E+00 -2.33590180E+00
  3.74375721E+00 -1.12476499E-01  2.57498428E+00  3.95683517E+00  6.34437752E-02
 -4.37835181E+00 -1.15353796E+00  1.36311992E+00 -4.85454768E+00 -3.03218651E+00
  2.05017710E+00 -3.88816441E+00  3.11213326E+00 -8.59003356E-01 -5.19087357E+00
  4.04569576E-01  2.43275215E+00  3.67787191E+00 -4.11653404E+00 -3.37890590E-01
  6.28831312E+00  3.24396056E-01  1.55581152E-01  6.90577358E+00  1.81989130E+00
 -1.13358245E+00  6.88986019E+00  8.86141713E-01  2.05846733E+00  7.30763139E+00
 -1.40143790E+00 -3.34455068E-01
Number of symbols in /Mol/                 I                0
Force Field                                I                0
Atom Types                                 C   N=          19
                                                            
                                                            
                                                            
                                                
Int Atom Types                             I   N=          19
           0           0           0           0           0           0
           0           0           0           0           0           0
           0           0           0           0           0           0
           0
MM charges                                 R   N=          19
  0.00000000E+00  0.00000000E+00  0.00000000E+00  0.00000000E+00  0.00000000E+00
  0.00000000E+00  0.00000000E+00  0.00000000E+00  0.00000000E+00  0.00000000E+00
  0.00000000E+00  0.00000000E+00  0.00000000E+00  0.00000000E+00  0.00000000E+00
  0.00000000E+00  0.00000000E+00  0.00000000E+00  0.00000000E+00
Integer atomic weights                     I   N=          19
          12          12          12          12          12          12
           1          16          16           1          12           1
           1           1           1          12           1           1
           1
Real atomic weights                        R   N=          19
  1.20000000E+01  1.20000000E+01  1.20000000E+01  1.20000000E+01  1.20000000E+01
  1.20000000E+01  1.00782504E+00  1.59949146E+01  1.59949146E+01  1.00782504E+00
  1.20000000E+01  1.00782504E+00  1.00782504E+00  1.00782504E+00  1.00782504E+00
  1.20000000E+01  1.00782504E+00  1.00782504E+00  1.00782504E+00
Atom fragment info                         I   N=          19
           0           0           0           0           0           0
           0           0           0           0           0           0
           0           0           0           0           0           0
           0
Atom residue num                           I   N=          19
           0           0           0           0           0           0
           0           0           0           0           0           0
           0           0           0           0           0           0
           0
Nuclear spins                              I   N=          19
           0           0           0           0           0           0
           1           0           0           1           0           1
           1           1           1           0           1           1
           1
Nuclear ZEff                               R   N=          19
 -3.60000000E+00 -3.60000000E+00 -3.60000000E+00 -3.60000000E+00 -3.60000000E+00
 -3.60000000E+00 -1.00000000E+00 -5.60000000E+00 -5.60000000E+00 -1.00000000E+00
 -3.60000000E+00 -1.00000000E+00 -1.00000000E+00 -1.00000000E+00 -1.00000000E+00
 -3.60000000E+00 -1.00000000E+00 -1.00000000E+00 -1.00000000E+00
Nuclear ZNuc                               R   N=          19
  6.00000000E+00  6.00000000E+00  6.00000000E+00  6.00000000E+00  6.00000000E+00
  6.00000000E+00  1.00000000E+00  8.00000000E+00  8.00000000E+00  1.00000000E+00
  6.00000000E+00  1.00000000E+00  1.00000000E+00  1.00000000E+00  1.00000000E+00
  6.00000000E+00  1.00000000E+00  1.00000000E+00  1.00000000E+00
Nuclear QMom                               R   N=          19
  0.00000000E+00  0.00000000E+00  0.00000000E+00  0.00000000E+00  0.00000000E+00
  0.00000000E+00  0.00000000E+00  0.00000000E+00  0.00000000E+00  0.00000000E+00
  0.00000000E+00  0.00000000E+00  0.00000000E+00  0.00000000E+00  0.00000000E+00
  0.00000000E+00  0.00000000E+00  0.00000000E+00  0.00000000E+00
Nuclear GFac                               R   N=          19
  0.00000000E+00  0.00000000E+00  0.00000000E+00  0.00000000E+00  0.00000000E+00
  0.00000000E+00  2.79284600E+00  0.00000000E+00  0.00000000E+00  2.79284600E+00
  0.00000000E+00  2.79284600E+00  2.79284600E+00  2.79284600E+00  2.79284600E+00
  0.00000000E+00  2.79284600E+00  2.79284600E+00  2.79284600E+00
MicOpt                                     I   N=          19
          -1          -1          -1          -1          -1          -1
          -1          -1          -1          -1          -1          -1
          -1          -1          -1          -1          -1          -1
          -1
Number of residues                         I                0
Number of secondary structures             I                0
SymInf integers                            I   N=          26
           1           1           1           1           1           0
           0           0           0           0           0           0
           0           0           0           0           0           0
           0           0           0           0           0           0
           0           0
RotTr to input orientation                 R   N=          12
  1.00000000E+00 -1.74039478E-07  0.00000000E+00  1.74039478E-07  1.00000000E+00
  0.00000000E+00  0.00000000E+00  0.00000000E+00  1.00000000E+00  1.81206615E-07
  7.76599776E-08 -1.03546637E-07
Number of contracted shells                I               86
Number of primitive shells                 I              174
Pure/Cartesian d shells                    I                0
Pure/Cartesian f shells                    I                0
Highest angular momentum                   I                2
Largest degree of contraction              I                6
Shell types                                I   N=          86
           0          -1          -1          -1          -2           0
          -1          -1          -1          -2           0          -1
          -1          -1          -2           0          -1          -1
          -1          -2           0          -1          -1          -1
          -2           0          -1          -1          -1          -2
           0           0           0           1           0          -1
          -1          -1          -2           0          -1          -1
          -1          -2           0           0           0           1
           0          -1          -1          -1          -2           0
           0           0           1           0           0           0
           1           0           0           0           1           0
           0           0           1           0          -1          -1
          -1          -2           0           0           0           1
           0           0           0           1           0           0
           0           1
Number of primitives per shell             I   N=          86
           6           3           1           1           1           6
           3           1           1           1           6           3
           1           1           1           6           3           1
           1           1           6           3           1           1
           1           6           3           1           1           1
           3           1           1           1           6           3
           1           1           1           6           3           1
           1           1           3           1           1           1
           6           3           1           1           1           3
           1           1           1           3           1           1
           1           3           1           1           1           3
           1           1           1           6           3           1
           1           1           3           1           1           1
           3           1           1           1           3           1
           1           1
Shell to atom map                          I   N=          86
           1           1           1           1           1           2
           2           2           2           2           3           3
           3           3           3           4           4           4
           4           4           5           5           5           5
           5           6           6           6           6           6
           7           7           7           7           8           8
           8           8           8           9           9           9
           9           9          10          10          10          10
          11          11          11          11          11          12
          12          12          12          13          13          13
          13          14          14          14          14          15
          15          15          15          16          16          16
          16          16          17          17          17          17
          18          18          18          18          19          19
          19          19
Primitive exponents                        R   N=         174
  4.56324000E+03  6.82024000E+02  1.54973000E+02  4.44553000E+01  1.30290000E+01
  1.82773000E+00  2.09642000E+01  4.80331000E+00  1.45933000E+00  4.83456000E-01
  1.45585000E-01  6.26000000E-01  4.56324000E+03  6.82024000E+02  1.54973000E+02
  4.44553000E+01  1.30290000E+01  1.82773000E+00  2.09642000E+01  4.80331000E+00
  1.45933000E+00  4.83456000E-01  1.45585000E-01  6.26000000E-01  4.56324000E+03
  6.82024000E+02  1.54973000E+02  4.44553000E+01  1.30290000E+01  1.82773000E+00
  2.09642000E+01  4.80331000E+00  1.45933000E+00  4.83456000E-01  1.45585000E-01
  6.26000000E-01  4.56324000E+03  6.82024000E+02  1.54973000E+02  4.44553000E+01
  1.30290000E+01  1.82773000E+00  2.09642000E+01  4.80331000E+00  1.45933000E+00
  4.83456000E-01  1.45585000E-01  6.26000000E-01  4.56324000E+03  6.82024000E+02
  1.54973000E+02  4.44553000E+01  1.30290000E+01  1.82773000E+00  2.09642000E+01
  4.80331000E+00  1.45933000E+00  4.83456000E-01  1.45585000E-01  6.26000000E-01
  4.56324000E+03  6.82024000E+02  1.54973000E+02  4.44553000E+01  1.30290000E+01
  1.82773000E+00  2.09642000E+01  4.80331000E+00  1.45933000E+00  4.83456000E-01
  1.45585000E-01  6.26000000E-01  3.38650000E+01  5.09479000E+00  1.15879000E+00
  3.25840000E-01  1.02741000E-01  7.50000000E-01  8.58850000E+03  1.29723000E+03
  2.99296000E+02  8.73771000E+01  2.56789000E+01  3.74004000E+00  4.21175000E+01
  9.62837000E+00  2.85332000E+00  9.05661000E-01  2.55611000E-01  1.29200000E+00
  8.58850000E+03  1.29723000E+03  2.99296000E+02  8.73771000E+01  2.56789000E+01
  3.74004000E+00  4.21175000E+01  9.62837000E+00  2.85332000E+00  9.05661000E-01
  2.55611000E-01  1.29200000E+00  3.38650000E+01  5.09479000E+00  1.15879000E+00
  3.25840000E-01  1.02741000E-01  7.50000000E-01  4.56324000E+03  6.82024000E+02
  1.54973000E+02  4.44553000E+01  1.30290000E+01  1.82773000E+00  2.09642000E+01
  4.80331000E+00  1.45933000E+00  4.83456000E-01  1.45585000E-01  6.26000000E-01
  3.38650000E+01  5.09479000E+00  1.15879000E+00  3.25840000E-01  1.02741000E-01
  7.50000000E-01  3.38650000E+01  5.09479000E+00  1.15879000E+00  3.25840000E-01
  1.02741000E-01  7.50000000E-01  3.38650000E+01  5.09479000E+00  1.15879000E+00
  3.25840000E-01  1.02741000E-01  7.50000000E-01  3.38650000E+01  5.09479000E+00
  1.15879000E+00  3.25840000E-01  1.02741000E-01  7.50000000E-01  4.56324000E+03
  6.82024000E+02  1.54973000E+02  4.44553000E+01  1.30290000E+01  1.82773000E+00
  2.09642000E+01  4.80331000E+00  1.45933000E+00  4.83456000E-01  1.45585000E-01
  6.26000000E-01  3.38650000E+01  5.09479000E+00  1.15879000E+00  3.25840000E-01
  1.02741000E-01  7.50000000E-01  3.38650000E+01  5.09479000E+00  1.15879000E+00
  3.25840000E-01  1.02741000E-01  7.50000000E-01  3.38650000E+01  5.09479000E+00
  1.15879000E+00  3.25840000E-01  1.02741000E-01  7.50000000E-01
Contraction coefficients                   R   N=         174
  1.96665025E-03  1.52306019E-02  7.61269097E-02  2.60801033E-01  6.16462078E-01
  2.21006028E-01  1.14660081E-01  9.19999648E-01 -3.03068213E-03  1.00000000E+00
  1.00000000E+00  1.00000000E+00  1.96665025E-03  1.52306019E-02  7.61269097E-02
  2.60801033E-01  6.16462078E-01  2.21006028E-01  1.14660081E-01  9.19999648E-01
 -3.03068213E-03  1.00000000E+00  1.00000000E+00  1.00000000E+00  1.96665025E-03
  1.52306019E-02  7.61269097E-02  2.60801033E-01  6.16462078E-01  2.21006028E-01
  1.14660081E-01  9.19999648E-01 -3.03068213E-03  1.00000000E+00  1.00000000E+00
  1.00000000E+00  1.96665025E-03  1.52306019E-02  7.61269097E-02  2.60801033E-01
  6.16462078E-01  2.21006028E-01  1.14660081E-01  9.19999648E-01 -3.03068213E-03
  1.00000000E+00  1.00000000E+00  1.00000000E+00  1.96665025E-03  1.52306019E-02
  7.61269097E-02  2.60801033E-01  6.16462078E-01  2.21006028E-01  1.14660081E-01
  9.19999648E-01 -3.03068213E-03  1.00000000E+00  1.00000000E+00  1.00000000E+00
  1.96665025E-03  1.52306019E-02  7.61269097E-02  2.60801033E-01  6.16462078E-01
  2.21006028E-01  1.14660081E-01  9.19999648E-01 -3.03068213E-03  1.00000000E+00
  1.00000000E+00  1.00000000E+00  2.54938145E-02  1.90373109E-01  8.52161486E-01
  1.00000000E+00  1.00000000E+00  1.00000000E+00  1.89515008E-03  1.43859006E-02
  7.07320031E-02  2.40001011E-01  5.94797026E-01  2.80802012E-01  1.13889012E-01
  9.20811101E-01 -3.27447036E-03  1.00000000E+00  1.00000000E+00  1.00000000E+00
  1.89515008E-03  1.43859006E-02  7.07320031E-02  2.40001011E-01  5.94797026E-01
  2.80802012E-01  1.13889012E-01  9.20811101E-01 -3.27447036E-03  1.00000000E+00
  1.00000000E+00  1.00000000E+00  2.54938145E-02  1.90373109E-01  8.52161486E-01
  1.00000000E+00  1.00000000E+00  1.00000000E+00  1.96665025E-03  1.52306019E-02
  7.61269097E-02  2.60801033E-01  6.16462078E-01  2.21006028E-01  1.14660081E-01
  9.19999648E-01 -3.03068213E-03  1.00000000E+00  1.00000000E+00  1.00000000E+00
  2.54938145E-02  1.90373109E-01  8.52161486E-01  1.00000000E+00  1.00000000E+00
  1.00000000E+00  2.54938145E-02  1.90373109E-01  8.52161486E-01  1.00000000E+00
  1.00000000E+00  1.00000000E+00  2.54938145E-02  1.90373109E-01  8.52161486E-01
  1.00000000E+00  1.00000000E+00  1.00000000E+00  2.54938145E-02  1.90373109E-01
  8.52161486E-01  1.00000000E+00  1.00000000E+00  1.00000000E+00  1.96665025E-03
  1.52306019E-02  7.61269097E-02  2.60801033E-01  6.16462078E-01  2.21006028E-01
  1.14660081E-01  9.19999648E-01 -3.03068213E-03  1.00000000E+00  1.00000000E+00
  1.00000000E+00  2.54938145E-02  1.90373109E-01  8.52161486E-01  1.00000000E+00
  1.00000000E+00  1.00000000E+00  2.54938145E-02  1.90373109E-01  8.52161486E-01
  1.00000000E+00  1.00000000E+00  1.00000000E+00  2.54938145E-02  1.90373109E-01
  8.52161486E-01  1.00000000E+00  1.00000000E+00  1.00000000E+00
P(S=P) Contraction coefficients            R   N=         174
  0.00000000E+00  0.00000000E+00  0.00000000E+00  0.00000000E+00  0.00000000E+00
  0.00000000E+00  4.02486927E-02  2.37593957E-01  8.15853851E-01  1.00000000E+00
  1.00000000E+00  0.00000000E+00  0.00000000E+00  0.00000000E+00  0.00000000E+00
  0.00000000E+00  0.00000000E+00  0.00000000E+00  4.02486927E-02  2.37593957E-01
  8.15853851E-01  1.00000000E+00  1.00000000E+00  0.00000000E+00  0.00000000E+00
  0.00000000E+00  0.00000000E+00  0.00000000E+00  0.00000000E+00  0.00000000E+00
  4.02486927E-02  2.37593957E-01  8.15853851E-01  1.00000000E+00  1.00000000E+00
  0.00000000E+00  0.00000000E+00  0.00000000E+00  0.00000000E+00  0.00000000E+00
  0.00000000E+00  0.00000000E+00  4.02486927E-02  2.37593957E-01  8.15853851E-01
  1.00000000E+00  1.00000000E+00  0.00000000E+00  0.00000000E+00  0.00000000E+00
  0.00000000E+00  0.00000000E+00  0.00000000E+00  0.00000000E+00  4.02486927E-02
  2.37593957E-01  8.15853851E-01  1.00000000E+00  1.00000000E+00  0.00000000E+00
  0.00000000E+00  0.00000000E+00  0.00000000E+00  0.00000000E+00  0.00000000E+00
  0.00000000E+00  4.02486927E-02  2.37593957E-01  8.15853851E-01  1.00000000E+00
  1.00000000E+00  0.00000000E+00  0.00000000E+00  0.00000000E+00  0.00000000E+00
  0.00000000E+00  0.00000000E+00  0.00000000E+00  0.00000000E+00  0.00000000E+00
  0.00000000E+00  0.00000000E+00  0.00000000E+00  0.00000000E+00  3.65113974E-02
  2.37152983E-01  8.19701941E-01  1.00000000E+00  1.00000000E+00  0.00000000E+00
  0.00000000E+00  0.00000000E+00  0.00000000E+00  0.00000000E+00  0.00000000E+00
  0.00000000E+00  3.65113974E-02  2.37152983E-01  8.19701941E-01  1.00000000E+00
  1.00000000E+00  0.00000000E+00  0.00000000E+00  0.00000000E+00  0.00000000E+00
  0.00000000E+00  0.00000000E+00  0.00000000E+00  0.00000000E+00  0.00000000E+00
  0.00000000E+00  0.00000000E+00  0.00000000E+00  0.00000000E+00  4.02486927E-02
  2.37593957E-01  8.15853851E-01  1.00000000E+00  1.00000000E+00  0.00000000E+00
  0.00000000E+00  0.00000000E+00  0.00000000E+00  0.00000000E+00  0.00000000E+00
  0.00000000E+00  0.00000000E+00  0.00000000E+00  0.00000000E+00  0.00000000E+00
  0.00000000E+00  0.00000000E+00  0.00000000E+00  0.00000000E+00  0.00000000E+00
  0.00000000E+00  0.00000000E+00  0.00000000E+00  0.00000000E+00  0.00000000E+00
  0.00000000E+00  0.00000000E+00  0.00000000E+00  0.00000000E+00  0.00000000E+00
  0.00000000E+00  0.00000000E+00  0.00000000E+00  0.00000000E+00  0.00000000E+00
  4.02486927E-02  2.37593957E-01  8.15853851E-01  1.00000000E+00  1.00000000E+00
  0.00000000E+00  0.00000000E+00  0.00000000E+00  0.00000000E+00  0.00000000E+00
  0.00000000E+00  0.00000000E+00  0.00000000E+00  0.00000000E+00  0.00000000E+00
  0.00000000E+00  0.00000000E+00  0.00000000E+00  0.00000000E+00  0.00000000E+00
  0.00000000E+00  0.00000000E+00  0.00000000E+00  0.00000000E+00
Coordinates of each shell                  R   N=         258
  3.47578443E+00 -5.87718449E-02  3.34463662E-02  3.47578443E+00 -5.87718449E-02
  3.34463662E-02  3.47578443E+00 -5.87718449E-02  3.34463662E-02  3.47578443E+00
 -5.87718449E-02  3.34463662E-02  3.47578443E+00 -5.87718449E-02  3.34463662E-02
  1.82560151E+00  2.04921547E+00  7.56685170E-02  1.82560151E+00  2.04921547E+00
  7.56685170E-02  1.82560151E+00  2.04921547E+00  7.56685170E-02  1.82560151E+00
  2.04921547E+00  7.56685170E-02  1.82560151E+00  2.04921547E+00  7.56685170E-02
 -7.38172862E-01  1.74250491E+00  1.59172667E-02 -7.38172862E-01  1.74250491E+00
  1.59172667E-02 -7.38172862E-01  1.74250491E+00  1.59172667E-02 -7.38172862E-01
  1.74250491E+00  1.59172667E-02 -7.38172862E-01  1.74250491E+00  1.59172667E-02
 -1.89501551E+00 -7.94600007E-01  8.20047687E-02 -1.89501551E+00 -7.94600007E-01
  8.20047687E-02 -1.89501551E+00 -7.94600007E-01  8.20047687E-02 -1.89501551E+00
 -7.94600007E-01  8.20047687E-02 -1.89501551E+00 -7.94600007E-01  8.20047687E-02
 -1.39939564E-01 -2.90889899E+00 -2.27719453E-01 -1.39939564E-01 -2.90889899E+00
 -2.27719453E-01 -1.39939564E-01 -2.90889899E+00 -2.27719453E-01 -1.39939564E-01
 -2.90889899E+00 -2.27719453E-01 -1.39939564E-01 -2.90889899E+00 -2.27719453E-01
  2.41450143E+00 -2.50806874E+00 -1.86268311E-01  2.41450143E+00 -2.50806874E+00
 -1.86268311E-01  2.41450143E+00 -2.50806874E+00 -1.86268311E-01  2.41450143E+00
 -2.50806874E+00 -1.86268311E-01  2.41450143E+00 -2.50806874E+00 -1.86268311E-01
 -9.31235595E-01 -4.78857569E+00 -4.06007554E-01 -9.31235595E-01 -4.78857569E+00
 -4.06007554E-01 -9.31235595E-01 -4.78857569E+00 -4.06007554E-01 -9.31235595E-01
 -4.78857569E+00 -4.06007554E-01 -4.36505006E+00 -8.68040863E-01 -1.31307420E+00
 -4.36505006E+00 -8.68040863E-01 -1.31307420E+00 -4.36505006E+00 -8.68040863E-01
 -1.31307420E+00 -4.36505006E+00 -8.68040863E-01 -1.31307420E+00 -4.36505006E+00
 -8.68040863E-01 -1.31307420E+00 -2.33590263E+00  3.74375673E+00 -1.12476395E-01
 -2.33590263E+00  3.74375673E+00 -1.12476395E-01 -2.33590263E+00  3.74375673E+00
 -1.12476395E-01 -2.33590263E+00  3.74375673E+00 -1.12476395E-01 -2.33590263E+00
  3.74375673E+00 -1.12476395E-01  2.57498341E+00  3.95683554E+00  6.34438787E-02
  2.57498341E+00  3.95683554E+00  6.34438787E-02  2.57498341E+00  3.95683554E+00
  6.34438787E-02  2.57498341E+00  3.95683554E+00  6.34438787E-02 -4.37835179E+00
 -1.15353880E+00  1.36312003E+00 -4.37835179E+00 -1.15353880E+00  1.36312003E+00
 -4.37835179E+00 -1.15353880E+00  1.36312003E+00 -4.37835179E+00 -1.15353880E+00
  1.36312003E+00 -4.37835179E+00 -1.15353880E+00  1.36312003E+00 -4.85454733E+00
 -3.03218743E+00  2.05017720E+00 -4.85454733E+00 -3.03218743E+00  2.05017720E+00
 -4.85454733E+00 -3.03218743E+00  2.05017720E+00 -4.85454733E+00 -3.03218743E+00
  2.05017720E+00 -3.88816514E+00  3.11213251E+00 -8.59003252E-01 -3.88816514E+00
  3.11213251E+00 -8.59003252E-01 -3.88816514E+00  3.11213251E+00 -8.59003252E-01
 -3.88816514E+00  3.11213251E+00 -8.59003252E-01 -5.19087383E+00  4.04568595E-01
  2.43275226E+00 -5.19087383E+00  4.04568595E-01  2.43275226E+00 -5.19087383E+00
  4.04568595E-01  2.43275226E+00 -5.19087383E+00  4.04568595E-01  2.43275226E+00
  3.67787245E+00 -4.11653347E+00 -3.37890486E-01  3.67787245E+00 -4.11653347E+00
 -3.37890486E-01  3.67787245E+00 -4.11653347E+00 -3.37890486E-01  3.67787245E+00
 -4.11653347E+00 -3.37890486E-01  6.28831289E+00  3.24397072E-01  1.55581255E-01
  6.28831289E+00  3.24397072E-01  1.55581255E-01  6.28831289E+00  3.24397072E-01
  1.55581255E-01  6.28831289E+00  3.24397072E-01  1.55581255E-01  6.28831289E+00
  3.24397072E-01  1.55581255E-01  6.90577308E+00  1.81989242E+00 -1.13358235E+00
  6.90577308E+00  1.81989242E+00 -1.13358235E+00  6.90577308E+00  1.81989242E+00
 -1.13358235E+00  6.90577308E+00  1.81989242E+00 -1.13358235E+00  6.88985986E+00
  8.86142834E-01  2.05846743E+00  6.88985986E+00  8.86142834E-01  2.05846743E+00
  6.88985986E+00  8.86142834E-01  2.05846743E+00  6.88985986E+00  8.86142834E-01
  2.05846743E+00  7.30763146E+00 -1.40143671E+00 -3.34454964E-01  7.30763146E+00
 -1.40143671E+00 -3.34454964E-01  7.30763146E+00 -1.40143671E+00 -3.34454964E-01
  7.30763146E+00 -1.40143671E+00 -3.34454964E-01
Num ILSW                                   I              100
ILSW                                       I   N=         100
           1           0           0           0           2           0
           0           0           0           0         402          -1
           5           0           0           0           0           0
           0           0           1           0           0           0
           1           0           0           0           0           0
           0           0      100000           0          -1           0
           0           0           0           0           0           0
           0           0           0           1           0           0
           0 -2000000000           1           0           0           0
           0           0           4          52           0           0
           0           0           5           0           0           0
           0           0           0           0           0           1
           0           0           0           0           0           0
           0           0           0           0           0           0
           0           0           0           0           0           0
           0           0           0           0           0           0
           0           0           0           0
Num RLSW                                   I               52
RLSW                                       R   N=          52
  8.00000000E-01  7.20000000E-01  1.00000000E+00  8.10000000E-01  2.00000000E-01
  0.00000000E+00  0.00000000E+00  1.00000000E+00  0.00000000E+00  0.00000000E+00
  0.00000000E+00  0.00000000E+00  1.00000000E+00  0.00000000E+00  0.00000000E+00
  0.00000000E+00  0.00000000E+00  1.00000000E+00  0.00000000E+00  0.00000000E+00
  0.00000000E+00  0.00000000E+00  1.00000000E+00  0.00000000E+00  0.00000000E+00
  0.00000000E+00  0.00000000E+00  1.00000000E+00  0.00000000E+00  0.00000000E+00
  0.00000000E+00  0.00000000E+00  1.00000000E+00  0.00000000E+00  0.00000000E+00
  0.00000000E+00  0.00000000E+00  0.00000000E+00  1.00000000E+00  1.00000000E+00
  0.00000000E+00  1.00000000E+00  0.00000000E+00  0.00000000E+00  0.00000000E+00
  0.00000000E+00  0.00000000E+00  0.00000000E+00  0.00000000E+00  0.00000000E+00
  0.00000000E+00  0.00000000E+00
MxBond                                     I                4
NBond                                      I   N=          19
           3           3           3           4           3           3
           1           2           2           1           4           1
           1           1           1           4           1           1
           1
IBond                                      I   N=          76
           2           6          16           0           1           3
          10           0           2           4           9           0
           3           5           8          11           4           6
           7           0           1           5          15           0
           5           0           0           0           4          11
           0           0           3          13           0           0
           2           0           0           0           4           8
          12          14          11           0           0           0
           9           0           0           0          11           0
           0           0           6           0           0           0
           1          17          18          19          16           0
           0           0          16           0           0           0
          16           0           0           0
RBond                                      R   N=          76
  1.50000000E+00  1.50000000E+00  1.00000000E+00  0.00000000E+00  1.50000000E+00
  2.00000000E+00  1.00000000E+00  0.00000000E+00  2.00000000E+00  1.00000000E+00
  1.00000000E+00  0.00000000E+00  1.00000000E+00  1.00000000E+00  1.00000000E+00
  1.00000000E+00  1.00000000E+00  2.00000000E+00  1.00000000E+00  0.00000000E+00
  1.50000000E+00  2.00000000E+00  1.00000000E+00  0.00000000E+00  1.00000000E+00
  0.00000000E+00  0.00000000E+00  0.00000000E+00  1.00000000E+00  1.00000000E+00
  0.00000000E+00  0.00000000E+00  1.00000000E+00  1.00000000E+00  0.00000000E+00
  0.00000000E+00  1.00000000E+00  0.00000000E+00  0.00000000E+00  0.00000000E+00
  1.00000000E+00  1.00000000E+00  1.00000000E+00  1.00000000E+00  1.00000000E+00
  0.00000000E+00  0.00000000E+00  0.00000000E+00  1.00000000E+00  0.00000000E+00
  0.00000000E+00  0.00000000E+00  1.00000000E+00  0.00000000E+00  0.00000000E+00
  0.00000000E+00  1.00000000E+00  0.00000000E+00  0.00000000E+00  0.00000000E+00
  1.00000000E+00  1.00000000E+00  1.00000000E+00  1.00000000E+00  1.00000000E+00
  0.00000000E+00  0.00000000E+00  0.00000000E+00  1.00000000E+00  0.00000000E+00
  0.00000000E+00  0.00000000E+00  1.00000000E+00  0.00000000E+00  0.00000000E+00
  0.00000000E+00
Virial Ratio                               R      2.003764156858459E+00
SCF Energy                                 R     -4.607508906416123E+02
Total Energy                               R     -4.607508906416123E+02
S**2                                       R      7.790756829574548E-01
S**2 after annihilation                    R      7.505437139181449E-01
RMS Density                                R      9.065759566770493E-09