 Entering Link 1 = D:\Gaussian\G16W\l1.exe PID=     34016.
  
 Copyright (c) 1988,1990,1992,1993,1995,1998,2003,2009,2016,
            Gaussian, Inc.  All Rights Reserved.
  
 This is part of the Gaussian(R) 16 program.  It is based on
 the Gaussian(R) 09 system (copyright 2009, Gaussian, Inc.),
 the Gaussian(R) 03 system (copyright 2003, Gaussian, Inc.),
 the Gaussian(R) 98 system (copyright 1998, Gaussian, Inc.),
 the Gaussian(R) 94 system (copyright 1995, Gaussian, Inc.),
 the Gaussian 92(TM) system (copyright 1992, Gaussian, Inc.),
 the Gaussian 90(TM) system (copyright 1990, Gaussian, Inc.),
 the Gaussian 88(TM) system (copyright 1988, Gaussian, Inc.),
 the Gaussian 86(TM) system (copyright 1986, Carnegie Mellon
 University), and the Gaussian 82(TM) system (copyright 1983,
 Carnegie Mellon University). Gaussian is a federally registered
 trademark of Gaussian, Inc.
  
 This software contains proprietary and confidential information,
 including trade secrets, belonging to Gaussian, Inc.
  
 This software is provided under written license and may be
 used, copied, transmitted, or stored only in accord with that
 written license.
  
 The following legend is applicable only to US Government
 contracts under FAR:
  
                    RESTRICTED RIGHTS LEGEND
  
 Use, reproduction and disclosure by the US Government is
 subject to restrictions as set forth in subparagraphs (a)
 and (c) of the Commercial Computer Software - Restricted
 Rights clause in FAR 52.227-19.
  
 Gaussian, Inc.
 340 Quinnipiac St., Bldg. 40, Wallingford CT 06492
  
  
 ---------------------------------------------------------------
 Warning -- This program may not be used in any manner that
 competes with the business of Gaussian, Inc. or will provide
 assistance to any competitor of Gaussian, Inc.  The licensee
 of this program is prohibited from giving any competitor of
 Gaussian, Inc. access to this program.  By using this program,
 the user acknowledges that Gaussian, Inc. is engaged in the
 business of creating and licensing software in the field of
 computational chemistry and represents and warrants to the
 licensee that it is not a competitor of Gaussian, Inc. and that
 it will not use this program in any manner prohibited above.
 ---------------------------------------------------------------
  

 Cite this work as:
 Gaussian 16, Revision A.03,
 M. J. Frisch, G. W. Trucks, H. B. Schlegel, G. E. Scuseria, 
 M. A. Robb, J. R. Cheeseman, G. Scalmani, V. Barone, 
 G. A. Petersson, H. Nakatsuji, X. Li, M. Caricato, A. V. Marenich, 
 J. Bloino, B. G. Janesko, R. Gomperts, B. Mennucci, H. P. Hratchian, 
 J. V. Ortiz, A. F. Izmaylov, J. L. Sonnenberg, D. Williams-Young, 
 F. Ding, F. Lipparini, F. Egidi, J. Goings, B. Peng, A. Petrone, 
 T. Henderson, D. Ranasinghe, V. G. Zakrzewski, J. Gao, N. Rega, 
 G. Zheng, W. Liang, M. Hada, M. Ehara, K. Toyota, R. Fukuda, 
 J. Hasegawa, M. Ishida, T. Nakajima, Y. Honda, O. Kitao, H. Nakai, 
 T. Vreven, K. Throssell, J. A. Montgomery, Jr., J. E. Peralta, 
 F. Ogliaro, M. J. Bearpark, J. J. Heyd, E. N. Brothers, K. N. Kudin, 
 V. N. Staroverov, T. A. Keith, R. Kobayashi, J. Normand, 
 K. Raghavachari, A. P. Rendell, J. C. Burant, S. S. Iyengar, 
 J. Tomasi, M. Cossi, J. M. Millam, M. Klene, C. Adamo, R. Cammi, 
 J. W. Ochterski, R. L. Martin, K. Morokuma, O. Farkas, 
 J. B. Foresman, and D. J. Fox, Gaussian, Inc., Wallingford CT, 2016.
 
 ******************************************
 Gaussian 16:  EM64W-G16RevA.03 17-Dec-2016
                02-Dec-2025 
 ******************************************
 %nprocshared=14
 Will use up to   14 processors via shared memory.
 %mem=80GB
 %chk=SR-14.chk
 ---------------------------------------------------------
 # ub3lyp/6-311g(d,p) geom=connectivity temperature=823.15
 ---------------------------------------------------------
 1/38=1,57=2,112=823150,172=1/1;
 2/12=2,17=6,18=5,40=1/2;
 3/5=4,6=6,7=101,11=2,25=1,30=1,74=-5,116=2/1,2,3;
 4//1;
 5/5=2,38=5/2;
 6/7=2,8=2,9=2,10=2,28=1/1;
 99/5=1,9=1/99;
 -------------------
 Title Card Required
 -------------------
 Symbolic Z-matrix:
 Charge =  0 Multiplicity = 2
 C                     1.83931  -0.0311    0.0177 
 C                     0.96607   1.0844    0.04004 
 C                    -0.39062   0.92209   0.00842 
 C                    -1.0028   -0.42048   0.0434 
 C                    -0.07405  -1.53932  -0.1205 
 C                     1.2777   -1.32721  -0.09857 
 H                    -0.49279  -2.53401  -0.21485 
 O                    -2.30989  -0.45935  -0.69485 
 O                    -1.23611   1.98111  -0.05952 
 H                     1.36262   2.09387   0.03357 
 C                    -2.31692  -0.61043   0.72133 
 H                    -2.56892  -1.60456   1.08491 
 H                    -2.05753   1.64687  -0.45457 
 H                    -2.74689   0.21409   1.28736 
 H                     1.94625  -2.17838  -0.1788 
 C                     3.32763   0.17166   0.08233 
 H                     3.65438   0.96305  -0.59987 
 H                     3.64596   0.46893   1.08929 
 H                     3.86703  -0.74161  -0.17699 
 
                          Input orientation:                          
 ---------------------------------------------------------------------
 Center     Atomic      Atomic             Coordinates (Angstroms)
 Number     Number       Type             X           Y           Z
 ---------------------------------------------------------------------
      1          6           0        1.839306   -0.031101    0.017699
      2          6           0        0.966067    1.084398    0.040042
      3          6           0       -0.390624    0.922094    0.008423
      4          6           0       -1.002799   -0.420484    0.043395
      5          6           0       -0.074053   -1.539323   -0.120504
      6          6           0        1.277699   -1.327213   -0.098569
      7          1           0       -0.492789   -2.534005   -0.214850
      8          8           0       -2.309885   -0.459347   -0.694849
      9          8           0       -1.236106    1.981111   -0.059520
     10          1           0        1.362623    2.093867    0.033573
     11          6           0       -2.316924   -0.610426    0.721332
     12          1           0       -2.568916   -1.604564    1.084907
     13          1           0       -2.057528    1.646870   -0.454565
     14          1           0       -2.746892    0.214089    1.287357
     15          1           0        1.946246   -2.178376   -0.178804
     16          6           0        3.327632    0.171663    0.082330
     17          1           0        3.654378    0.963045   -0.599866
     18          1           0        3.645957    0.468926    1.089294
     19          1           0        3.867032   -0.741609   -0.176986
 ---------------------------------------------------------------------
                    Distance matrix (angstroms):
                    1          2          3          4          5
     1  C    0.000000
     2  C    1.416822   0.000000
     3  C    2.425130   1.366731   0.000000
     4  C    2.868770   2.478127   1.475973   0.000000
     5  C    2.440241   2.826931   2.485038   1.463295   0.000000
     6  C    1.417331   2.435610   2.802522   2.458248   1.368468
     7  H    3.428888   3.909741   3.464810   2.189468   1.083344
     8  O    4.231655   3.695277   2.467090   1.501662   2.548561
     9  O    3.676019   2.379826   1.356825   2.415095   3.707768
    10  H    2.177836   1.084586   2.108924   3.452141   3.909968
    11  C    4.254993   3.756942   2.562711   1.490839   2.569437
    12  H    4.800744   4.562715   3.505392   2.222502   2.771572
    13  H    4.268950   3.114986   1.875694   2.373683   3.767970
    14  H    4.765014   4.012393   2.772894   2.234275   3.492935
    15  H    2.158898   3.413845   3.887021   3.440410   2.119763
    16  C    1.503464   2.532166   3.793947   4.370902   3.813145
    17  H    2.159676   2.766085   4.090689   4.900738   4.515842
    18  H    2.159243   2.943050   4.203288   4.847256   4.397175
    19  H    2.157405   3.434676   4.574923   4.885381   4.021404
                    6          7          8          9         10
     6  C    0.000000
     7  H    2.145809   0.000000
     8  O    3.738917   2.799365   0.000000
     9  O    4.155207   4.578528   2.740890   0.000000
    10  H    3.424684   4.992141   4.531756   2.602839   0.000000
    11  C    3.755973   2.811416   1.424234   2.914440   4.617930
    12  H    4.034103   2.619834   2.132170   3.992889   5.499154
    13  H    4.482816   4.470524   2.134847   0.970830   3.483607
    14  H    4.527001   3.858708   2.138605   2.686805   4.689739
    15  H    1.085298   2.465089   4.619092   5.238600   4.317150
    16  C    2.545895   4.690903   5.725712   4.911408   2.749274
    17  H    3.338440   5.438436   6.132263   5.024467   2.632897
    18  H    3.200903   5.277083   6.286248   5.238417   2.994761
    19  H    2.655885   4.714038   6.205011   5.785242   3.788974
                   11         12         13         14         15
    11  C    0.000000
    12  H    1.088116   0.000000
    13  H    2.558399   3.633637   0.000000
    14  H    1.088615   1.838521   2.358469   0.000000
    15  H    4.630694   4.723655   5.544254   5.468003   0.000000
    16  C    5.734196   6.239345   5.609317   6.193039   2.738449
    17  H    6.314889   6.939774   5.754529   6.715564   3.600491
    18  H    6.070943   6.551643   6.025014   6.400991   3.391946
    19  H    6.250240   6.615020   6.393926   6.841173   2.398692
                   16         17         18         19
    16  C    0.000000
    17  H    1.094733   0.000000
    18  H    1.097120   1.759968   0.000000
    19  H    1.091908   1.769151   1.765711   0.000000
 Stoichiometry    C8H9O2(2)
 Framework group  C1[X(C8H9O2)]
 Deg. of freedom    51
 Full point group                 C1      NOp   1
 Largest Abelian subgroup         C1      NOp   1
 Largest concise Abelian subgroup C1      NOp   1
                         Standard orientation:                         
 ---------------------------------------------------------------------
 Center     Atomic      Atomic             Coordinates (Angstroms)
 Number     Number       Type             X           Y           Z
 ---------------------------------------------------------------------
      1          6           0        1.839306   -0.031101    0.017699
      2          6           0        0.966067    1.084398    0.040042
      3          6           0       -0.390624    0.922094    0.008423
      4          6           0       -1.002799   -0.420484    0.043395
      5          6           0       -0.074053   -1.539323   -0.120504
      6          6           0        1.277699   -1.327213   -0.098569
      7          1           0       -0.492789   -2.534005   -0.214850
      8          8           0       -2.309885   -0.459347   -0.694849
      9          8           0       -1.236106    1.981111   -0.059520
     10          1           0        1.362623    2.093867    0.033573
     11          6           0       -2.316924   -0.610426    0.721332
     12          1           0       -2.568916   -1.604564    1.084907
     13          1           0       -2.057528    1.646870   -0.454565
     14          1           0       -2.746892    0.214088    1.287357
     15          1           0        1.946246   -2.178376   -0.178804
     16          6           0        3.327632    0.171664    0.082330
     17          1           0        3.654378    0.963046   -0.599866
     18          1           0        3.645957    0.468927    1.089294
     19          1           0        3.867032   -0.741608   -0.176986
 ---------------------------------------------------------------------
 Rotational constants (GHZ):           2.6764480           1.0580372           0.8043801
 Standard basis: 6-311G(d,p) (5D, 7F)
 There are   244 symmetry adapted cartesian basis functions of A   symmetry.
 There are   234 symmetry adapted basis functions of A   symmetry.
   234 basis functions,   392 primitive gaussians,   244 cartesian basis functions
    37 alpha electrons       36 beta electrons
       nuclear repulsion energy       514.2298728885 Hartrees.
 NAtoms=   19 NActive=   19 NUniq=   19 SFac= 1.00D+00 NAtFMM=   60 NAOKFM=F Big=F
 Integral buffers will be    131072 words long.
 Raffenetti 2 integral format.
 Two-electron integral symmetry is turned on.
 One-electron integrals computed using PRISM.
 NBasis=   234 RedAO= T EigKep=  2.06D-04  NBF=   234
 NBsUse=   234 1.00D-06 EigRej= -1.00D+00 NBFU=   234
 ExpMin= 1.03D-01 ExpMax= 8.59D+03 ExpMxC= 1.30D+03 IAcc=3 IRadAn=         5 AccDes= 0.00D+00
 Harris functional with IExCor=  402 and IRadAn=       5 diagonalized for initial guess.
 HarFok:  IExCor=  402 AccDes= 0.00D+00 IRadAn=         5 IDoV= 1 UseB2=F ITyADJ=14
 ICtDFT=  3500011 ScaDFX=  1.000000  1.000000  1.000000  1.000000
 FoFCou: FMM=F IPFlag=           0 FMFlag=      100000 FMFlg1=           0
         NFxFlg=           0 DoJE=T BraDBF=F KetDBF=T FulRan=T
         wScrn=  0.000000 ICntrl=       500 IOpCl=  0 I1Cent=   200000004 NGrid=           0
         NMat0=    1 NMatS0=      1 NMatT0=    0 NMatD0=    1 NMtDS0=    0 NMtDT0=    0
 Petite list used in FoFCou.
 Initial guess <Sx>= 0.0000 <Sy>= 0.0000 <Sz>= 0.5000 <S**2>= 0.7500 S= 0.5000
 Requested convergence on RMS density matrix=1.00D-08 within 128 cycles.
 Requested convergence on MAX density matrix=1.00D-06.
 Requested convergence on             energy=1.00D-06.
 No special actions if energy rises.
 Integral accuracy reduced to 1.0D-05 until final iterations.
 Initial convergence to 1.0D-05 achieved.  Increase integral accuracy.
 SCF Done:  E(UB3LYP) =  -460.750890642     A.U. after   18 cycles
            NFock= 18  Conv=0.91D-08     -V/T= 2.0038
 <Sx>= 0.0000 <Sy>= 0.0000 <Sz>= 0.5000 <S**2>= 0.7791 S= 0.5144
 <L.S>= 0.000000000000E+00
 Annihilation of the first spin contaminant:
 S**2 before annihilation     0.7791,   after     0.7505

 **********************************************************************

            Population analysis using the SCF density.

 **********************************************************************

 Orbital symmetries:
 Alpha Orbitals:
       Occupied  (A) (A) (A) (A) (A) (A) (A) (A) (A) (A) (A) (A)
                 (A) (A) (A) (A) (A) (A) (A) (A) (A) (A) (A) (A)
                 (A) (A) (A) (A) (A) (A) (A) (A) (A) (A) (A) (A)
                 (A)
       Virtual   (A) (A) (A) (A) (A) (A) (A) (A) (A) (A) (A) (A)
                 (A) (A) (A) (A) (A) (A) (A) (A) (A) (A) (A) (A)
                 (A) (A) (A) (A) (A) (A) (A) (A) (A) (A) (A) (A)
                 (A) (A) (A) (A) (A) (A) (A) (A) (A) (A) (A) (A)
                 (A) (A) (A) (A) (A) (A) (A) (A) (A) (A) (A) (A)
                 (A) (A) (A) (A) (A) (A) (A) (A) (A) (A) (A) (A)
                 (A) (A) (A) (A) (A) (A) (A) (A) (A) (A) (A) (A)
                 (A) (A) (A) (A) (A) (A) (A) (A) (A) (A) (A) (A)
                 (A) (A) (A) (A) (A) (A) (A) (A) (A) (A) (A) (A)
                 (A) (A) (A) (A) (A) (A) (A) (A) (A) (A) (A) (A)
                 (A) (A) (A) (A) (A) (A) (A) (A) (A) (A) (A) (A)
                 (A) (A) (A) (A) (A) (A) (A) (A) (A) (A) (A) (A)
                 (A) (A) (A) (A) (A) (A) (A) (A) (A) (A) (A) (A)
                 (A) (A) (A) (A) (A) (A) (A) (A) (A) (A) (A) (A)
                 (A) (A) (A) (A) (A) (A) (A) (A) (A) (A) (A) (A)
                 (A) (A) (A) (A) (A) (A) (A) (A) (A) (A) (A) (A)
                 (A) (A) (A) (A) (A)
 Beta  Orbitals:
       Occupied  (A) (A) (A) (A) (A) (A) (A) (A) (A) (A) (A) (A)
                 (A) (A) (A) (A) (A) (A) (A) (A) (A) (A) (A) (A)
                 (A) (A) (A) (A) (A) (A) (A) (A) (A) (A) (A) (A)
       Virtual   (A) (A) (A) (A) (A) (A) (A) (A) (A) (A) (A) (A)
                 (A) (A) (A) (A) (A) (A) (A) (A) (A) (A) (A) (A)
                 (A) (A) (A) (A) (A) (A) (A) (A) (A) (A) (A) (A)
                 (A) (A) (A) (A) (A) (A) (A) (A) (A) (A) (A) (A)
                 (A) (A) (A) (A) (A) (A) (A) (A) (A) (A) (A) (A)
                 (A) (A) (A) (A) (A) (A) (A) (A) (A) (A) (A) (A)
                 (A) (A) (A) (A) (A) (A) (A) (A) (A) (A) (A) (A)
                 (A) (A) (A) (A) (A) (A) (A) (A) (A) (A) (A) (A)
                 (A) (A) (A) (A) (A) (A) (A) (A) (A) (A) (A) (A)
                 (A) (A) (A) (A) (A) (A) (A) (A) (A) (A) (A) (A)
                 (A) (A) (A) (A) (A) (A) (A) (A) (A) (A) (A) (A)
                 (A) (A) (A) (A) (A) (A) (A) (A) (A) (A) (A) (A)
                 (A) (A) (A) (A) (A) (A) (A) (A) (A) (A) (A) (A)
                 (A) (A) (A) (A) (A) (A) (A) (A) (A) (A) (A) (A)
                 (A) (A) (A) (A) (A) (A) (A) (A) (A) (A) (A) (A)
                 (A) (A) (A) (A) (A) (A) (A) (A) (A) (A) (A) (A)
                 (A) (A) (A) (A) (A) (A)
 The electronic state is 2-A.
 Alpha  occ. eigenvalues --  -19.15435 -19.14644 -10.24877 -10.24248 -10.23565
 Alpha  occ. eigenvalues --  -10.19005 -10.18065 -10.17456 -10.17105 -10.16844
 Alpha  occ. eigenvalues --   -1.09188  -1.06129  -0.85719  -0.77167  -0.75385
 Alpha  occ. eigenvalues --   -0.69636  -0.66526  -0.61978  -0.61248  -0.55010
 Alpha  occ. eigenvalues --   -0.51952  -0.50281  -0.47028  -0.44913  -0.44344
 Alpha  occ. eigenvalues --   -0.43487  -0.42160  -0.41255  -0.39874  -0.38173
 Alpha  occ. eigenvalues --   -0.36879  -0.35994  -0.34440  -0.31061  -0.29524
 Alpha  occ. eigenvalues --   -0.25323  -0.16816
 Alpha virt. eigenvalues --   -0.00493   0.04031   0.04512   0.05157   0.06022
 Alpha virt. eigenvalues --    0.07847   0.09029   0.09558   0.11613   0.11968
 Alpha virt. eigenvalues --    0.12850   0.14303   0.17319   0.18870   0.21364
 Alpha virt. eigenvalues --    0.23035   0.25162   0.27748   0.29684   0.30023
 Alpha virt. eigenvalues --    0.31228   0.34070   0.35010   0.36192   0.37533
 Alpha virt. eigenvalues --    0.38105   0.39409   0.40948   0.43392   0.44218
 Alpha virt. eigenvalues --    0.44820   0.45800   0.46798   0.47519   0.48051
 Alpha virt. eigenvalues --    0.50170   0.52432   0.52753   0.54796   0.55281
 Alpha virt. eigenvalues --    0.56232   0.56692   0.59082   0.60418   0.61226
 Alpha virt. eigenvalues --    0.61454   0.62828   0.63090   0.65182   0.66862
 Alpha virt. eigenvalues --    0.68731   0.74526   0.75511   0.77249   0.78120
 Alpha virt. eigenvalues --    0.79661   0.79876   0.80916   0.86032   0.87066
 Alpha virt. eigenvalues --    0.89072   0.92535   0.94343   0.95773   0.97844
 Alpha virt. eigenvalues --    0.98990   1.00939   1.04748   1.06245   1.07940
 Alpha virt. eigenvalues --    1.11368   1.13789   1.17147   1.20015   1.21440
 Alpha virt. eigenvalues --    1.28844   1.32632   1.33543   1.34365   1.39623
 Alpha virt. eigenvalues --    1.39795   1.41340   1.45051   1.46018   1.46606
 Alpha virt. eigenvalues --    1.48960   1.50643   1.51161   1.53647   1.54173
 Alpha virt. eigenvalues --    1.55519   1.56752   1.58121   1.60325   1.61563
 Alpha virt. eigenvalues --    1.64452   1.66348   1.67594   1.69562   1.71291
 Alpha virt. eigenvalues --    1.73292   1.74716   1.77226   1.78859   1.79462
 Alpha virt. eigenvalues --    1.83158   1.84659   1.87064   1.90559   1.92385
 Alpha virt. eigenvalues --    1.93099   1.95538   1.98179   2.00434   2.01660
 Alpha virt. eigenvalues --    2.03682   2.04358   2.07459   2.10720   2.15235
 Alpha virt. eigenvalues --    2.16124   2.21428   2.23795   2.25988   2.30333
 Alpha virt. eigenvalues --    2.32655   2.34937   2.35600   2.41618   2.44156
 Alpha virt. eigenvalues --    2.45546   2.49286   2.51335   2.53131   2.54625
 Alpha virt. eigenvalues --    2.55266   2.57079   2.59617   2.62202   2.63675
 Alpha virt. eigenvalues --    2.64552   2.67307   2.68412   2.69116   2.72434
 Alpha virt. eigenvalues --    2.76957   2.77905   2.81259   2.84151   2.84755
 Alpha virt. eigenvalues --    2.86960   2.89307   3.00130   3.00898   3.03807
 Alpha virt. eigenvalues --    3.07278   3.09780   3.12358   3.16008   3.17849
 Alpha virt. eigenvalues --    3.18823   3.24991   3.28718   3.36636   3.41226
 Alpha virt. eigenvalues --    3.47959   3.49457   3.57327   3.59487   3.63207
 Alpha virt. eigenvalues --    3.70521   3.77695   3.79899   3.82141   3.88623
 Alpha virt. eigenvalues --    3.98964   4.07795   4.10507   4.30239   4.45310
 Alpha virt. eigenvalues --    4.75140   4.84786   4.92724   5.27464   5.37862
 Alpha virt. eigenvalues --    5.46087   5.68427  23.51375  23.78819  23.81815
 Alpha virt. eigenvalues --   23.85399  23.90289  23.96222  24.12658  24.18006
 Alpha virt. eigenvalues --   49.87086  49.90130
  Beta  occ. eigenvalues --  -19.15252 -19.14282 -10.25007 -10.23785 -10.23345
  Beta  occ. eigenvalues --  -10.18328 -10.17673 -10.17541 -10.17147 -10.17057
  Beta  occ. eigenvalues --   -1.08604  -1.05576  -0.85012  -0.76355  -0.74921
  Beta  occ. eigenvalues --   -0.69297  -0.66059  -0.61460  -0.60896  -0.54444
  Beta  occ. eigenvalues --   -0.51648  -0.49853  -0.46687  -0.44566  -0.44117
  Beta  occ. eigenvalues --   -0.42449  -0.41340  -0.40769  -0.39411  -0.37838
  Beta  occ. eigenvalues --   -0.36522  -0.34949  -0.34076  -0.29544  -0.29098
  Beta  occ. eigenvalues --   -0.24149
  Beta virt. eigenvalues --   -0.08743   0.01182   0.04520   0.04677   0.05815
  Beta virt. eigenvalues --    0.06543   0.07964   0.09133   0.09690   0.11855
  Beta virt. eigenvalues --    0.12159   0.13138   0.14414   0.18323   0.19423
  Beta virt. eigenvalues --    0.21878   0.23469   0.25485   0.28096   0.29874
  Beta virt. eigenvalues --    0.30186   0.31653   0.34518   0.35136   0.36457
  Beta virt. eigenvalues --    0.37989   0.38285   0.40094   0.41365   0.43834
  Beta virt. eigenvalues --    0.44494   0.45133   0.46197   0.47134   0.48007
  Beta virt. eigenvalues --    0.48429   0.50484   0.52692   0.53256   0.55290
  Beta virt. eigenvalues --    0.56041   0.56848   0.56859   0.59220   0.60715
  Beta virt. eigenvalues --    0.61315   0.61661   0.62997   0.63209   0.65760
  Beta virt. eigenvalues --    0.67214   0.69192   0.74894   0.75897   0.77651
  Beta virt. eigenvalues --    0.78336   0.80044   0.80309   0.81270   0.86164
  Beta virt. eigenvalues --    0.87318   0.89418   0.92714   0.94802   0.96034
  Beta virt. eigenvalues --    0.98200   0.99239   1.01346   1.05214   1.06841
  Beta virt. eigenvalues --    1.08525   1.11776   1.13978   1.17666   1.20621
  Beta virt. eigenvalues --    1.21833   1.29365   1.32822   1.34034   1.34926
  Beta virt. eigenvalues --    1.39951   1.40221   1.41550   1.45274   1.46274
  Beta virt. eigenvalues --    1.46834   1.49349   1.50947   1.51456   1.53859
  Beta virt. eigenvalues --    1.54569   1.55839   1.57280   1.58510   1.60821
  Beta virt. eigenvalues --    1.61918   1.64831   1.66595   1.67759   1.69789
  Beta virt. eigenvalues --    1.71634   1.73692   1.75183   1.77662   1.79306
  Beta virt. eigenvalues --    1.80019   1.83309   1.85164   1.87495   1.90930
  Beta virt. eigenvalues --    1.92802   1.93659   1.95787   1.98615   2.00743
  Beta virt. eigenvalues --    2.01974   2.04064   2.04856   2.08146   2.10948
  Beta virt. eigenvalues --    2.15777   2.16433   2.21744   2.23923   2.26526
  Beta virt. eigenvalues --    2.30657   2.32889   2.35312   2.35848   2.41807
  Beta virt. eigenvalues --    2.44466   2.45693   2.49444   2.51500   2.53421
  Beta virt. eigenvalues --    2.55067   2.55924   2.57385   2.59907   2.62439
  Beta virt. eigenvalues --    2.64228   2.64587   2.67480   2.68713   2.69312
  Beta virt. eigenvalues --    2.72796   2.77303   2.78306   2.81545   2.84462
  Beta virt. eigenvalues --    2.86576   2.87465   2.89741   3.00523   3.01986
  Beta virt. eigenvalues --    3.04442   3.07732   3.10354   3.12781   3.16640
  Beta virt. eigenvalues --    3.18184   3.19545   3.25219   3.29040   3.36941
  Beta virt. eigenvalues --    3.41439   3.48320   3.49679   3.57559   3.59582
  Beta virt. eigenvalues --    3.63939   3.70761   3.77931   3.80058   3.82262
  Beta virt. eigenvalues --    3.89107   3.99178   4.08050   4.10950   4.30863
  Beta virt. eigenvalues --    4.45894   4.75778   4.85548   4.93018   5.28041
  Beta virt. eigenvalues --    5.38640   5.46377   5.68672  23.51646  23.79020
  Beta virt. eigenvalues --   23.81970  23.85527  23.90535  23.96584  24.12691
  Beta virt. eigenvalues --   24.18120  49.87445  49.90314
          Condensed to atoms (all electrons):
               1          2          3          4          5          6
     1  C    5.143933   0.478917  -0.056583  -0.046435  -0.056375   0.489133
     2  C    0.478917   4.850070   0.569706  -0.058057  -0.034101  -0.054698
     3  C   -0.056583   0.569706   4.831442   0.243368   0.024202  -0.043391
     4  C   -0.046435  -0.058057   0.243368   5.584261   0.322558  -0.039532
     5  C   -0.056375  -0.034101   0.024202   0.322558   4.942809   0.525232
     6  C    0.489133  -0.054698  -0.043391  -0.039532   0.525232   4.849174
     7  H    0.008634  -0.000652   0.004708  -0.049504   0.419363  -0.032649
     8  O    0.000288   0.002746  -0.026463   0.063665  -0.010381   0.003221
     9  O    0.003780  -0.049024   0.369333  -0.082905   0.004686  -0.000372
    10  H   -0.050232   0.397013  -0.032399   0.014990  -0.001746   0.007521
    11  C    0.000982  -0.001136  -0.077016   0.227967  -0.058041   0.002191
    12  H   -0.000039   0.000260   0.005673  -0.016950  -0.003449  -0.001103
    13  H   -0.000236   0.007641  -0.043900  -0.023966   0.000693  -0.000231
    14  H   -0.000172  -0.001312  -0.010817  -0.020192   0.005331   0.000550
    15  H   -0.049768   0.007477  -0.000603   0.010363  -0.033922   0.410401
    16  C    0.365802  -0.055094   0.005362   0.000047   0.005982  -0.056136
    17  H   -0.040572  -0.004469   0.000522  -0.000069  -0.000228   0.003343
    18  H   -0.039894  -0.003665   0.000151  -0.000001  -0.000116  -0.000141
    19  H   -0.036128   0.006729  -0.000384   0.000032   0.000492  -0.007394
               7          8          9         10         11         12
     1  C    0.008634   0.000288   0.003780  -0.050232   0.000982  -0.000039
     2  C   -0.000652   0.002746  -0.049024   0.397013  -0.001136   0.000260
     3  C    0.004708  -0.026463   0.369333  -0.032399  -0.077016   0.005673
     4  C   -0.049504   0.063665  -0.082905   0.014990   0.227967  -0.016950
     5  C    0.419363  -0.010381   0.004686  -0.001746  -0.058041  -0.003449
     6  C   -0.032649   0.003221  -0.000372   0.007521   0.002191  -0.001103
     7  H    0.574433   0.002149  -0.000081   0.000087  -0.002893  -0.000395
     8  O    0.002149   8.179897  -0.012245  -0.000156   0.154003  -0.022022
     9  O   -0.000081  -0.012245   7.779861   0.004418   0.007138   0.000089
    10  H    0.000087  -0.000156   0.004418   0.574188  -0.000370  -0.000003
    11  C   -0.002893   0.154003   0.007138  -0.000370   4.947863   0.389176
    12  H   -0.000395  -0.022022   0.000089  -0.000003   0.389176   0.573623
    13  H   -0.000080   0.040026   0.319173  -0.000818  -0.003949   0.001355
    14  H    0.000266  -0.030686   0.011979  -0.000006   0.392780  -0.045593
    15  H   -0.010015  -0.000096   0.000009  -0.000323  -0.000281   0.000014
    16  C   -0.000314   0.000001  -0.000081  -0.006877   0.000022   0.000000
    17  H    0.000018  -0.000001  -0.000019   0.001514   0.000006   0.000000
    18  H    0.000018   0.000001   0.000001   0.000557  -0.000015   0.000001
    19  H   -0.000028   0.000000   0.000002   0.000114  -0.000001   0.000000
              13         14         15         16         17         18
     1  C   -0.000236  -0.000172  -0.049768   0.365802  -0.040572  -0.039894
     2  C    0.007641  -0.001312   0.007477  -0.055094  -0.004469  -0.003665
     3  C   -0.043900  -0.010817  -0.000603   0.005362   0.000522   0.000151
     4  C   -0.023966  -0.020192   0.010363   0.000047  -0.000069  -0.000001
     5  C    0.000693   0.005331  -0.033922   0.005982  -0.000228  -0.000116
     6  C   -0.000231   0.000550   0.410401  -0.056136   0.003343  -0.000141
     7  H   -0.000080   0.000266  -0.010015  -0.000314   0.000018   0.000018
     8  O    0.040026  -0.030686  -0.000096   0.000001  -0.000001   0.000001
     9  O    0.319173   0.011979   0.000009  -0.000081  -0.000019   0.000001
    10  H   -0.000818  -0.000006  -0.000323  -0.006877   0.001514   0.000557
    11  C   -0.003949   0.392780  -0.000281   0.000022   0.000006  -0.000015
    12  H    0.001355  -0.045593   0.000014   0.000000   0.000000   0.000001
    13  H    0.459970  -0.009062   0.000001   0.000022  -0.000001   0.000001
    14  H   -0.009062   0.590147  -0.000001   0.000002   0.000000   0.000000
    15  H    0.000001  -0.000001   0.585651  -0.008817   0.000012   0.000147
    16  C    0.000022   0.000002  -0.008817   4.795979   0.404156   0.397897
    17  H   -0.000001   0.000000   0.000012   0.404156   0.576629  -0.034233
    18  H    0.000001   0.000000   0.000147   0.397897  -0.034233   0.582064
    19  H   -0.000001   0.000000   0.003800   0.407733  -0.026592  -0.028192
              19
     1  C   -0.036128
     2  C    0.006729
     3  C   -0.000384
     4  C    0.000032
     5  C    0.000492
     6  C   -0.007394
     7  H   -0.000028
     8  O    0.000000
     9  O    0.000002
    10  H    0.000114
    11  C   -0.000001
    12  H    0.000000
    13  H   -0.000001
    14  H    0.000000
    15  H    0.003800
    16  C    0.407733
    17  H   -0.026592
    18  H   -0.028192
    19  H    0.572300
          Atomic-Atomic Spin Densities.
               1          2          3          4          5          6
     1  C    0.558203  -0.025913  -0.024427  -0.001442  -0.027854   0.027951
     2  C   -0.025913  -0.179618   0.027924   0.001112   0.003786   0.000393
     3  C   -0.024427   0.027924   0.345765   0.013654   0.012356   0.000107
     4  C   -0.001442   0.001112   0.013654  -0.104432   0.004850  -0.000912
     5  C   -0.027854   0.003786   0.012356   0.004850   0.434870  -0.020905
     6  C    0.027951   0.000393   0.000107  -0.000912  -0.020905  -0.176679
     7  H   -0.000351  -0.000041  -0.000291  -0.000142   0.003534   0.001163
     8  O    0.000214  -0.000281  -0.005527  -0.002708  -0.006158   0.000201
     9  O    0.000558  -0.000366  -0.048332   0.000802  -0.000330   0.000006
    10  H   -0.000511   0.000042   0.000220   0.000046  -0.000028  -0.000081
    11  C    0.001191  -0.000407  -0.019937   0.018101  -0.023208   0.000363
    12  H   -0.000061   0.000011   0.000515   0.000188   0.002452  -0.000030
    13  H    0.000008  -0.000217  -0.002603   0.000838   0.000018   0.000009
    14  H   -0.000017   0.000033   0.000859   0.000058   0.000435  -0.000023
    15  H   -0.000229   0.000049  -0.000011  -0.000009  -0.000306   0.000093
    16  C   -0.011328   0.002694  -0.000297  -0.000071   0.000008  -0.000158
    17  H   -0.011115   0.000781   0.000316  -0.000034   0.000168  -0.000272
    18  H   -0.015536   0.000695   0.000280   0.000068   0.000194  -0.000394
    19  H   -0.001621  -0.000054   0.000011  -0.000007   0.000063   0.000305
               7          8          9         10         11         12
     1  C   -0.000351   0.000214   0.000558  -0.000511   0.001191  -0.000061
     2  C   -0.000041  -0.000281  -0.000366   0.000042  -0.000407   0.000011
     3  C   -0.000291  -0.005527  -0.048332   0.000220  -0.019937   0.000515
     4  C   -0.000142  -0.002708   0.000802   0.000046   0.018101   0.000188
     5  C    0.003534  -0.006158  -0.000330  -0.000028  -0.023208   0.002452
     6  C    0.001163   0.000201   0.000006  -0.000081   0.000363  -0.000030
     7  H   -0.026909   0.000045   0.000003  -0.000003   0.000379  -0.000022
     8  O    0.000045   0.179948   0.000303   0.000001  -0.062685   0.002253
     9  O    0.000003   0.000303   0.092592  -0.000055   0.003502  -0.000092
    10  H   -0.000003   0.000001  -0.000055   0.007132   0.000000   0.000000
    11  C    0.000379  -0.062685   0.003502   0.000000   0.199350  -0.006540
    12  H   -0.000022   0.002253  -0.000092   0.000000  -0.006540  -0.001492
    13  H    0.000002   0.000397   0.000984  -0.000005  -0.002006   0.000042
    14  H    0.000007   0.001406  -0.000581   0.000002  -0.004076   0.001216
    15  H    0.000383   0.000005   0.000000   0.000000  -0.000019   0.000002
    16  C    0.000009   0.000000   0.000001   0.000289   0.000006   0.000000
    17  H    0.000000  -0.000002  -0.000012  -0.000009   0.000012   0.000000
    18  H   -0.000001   0.000002   0.000000  -0.000068  -0.000027   0.000001
    19  H    0.000000   0.000000   0.000000   0.000000   0.000003   0.000000
              13         14         15         16         17         18
     1  C    0.000008  -0.000017  -0.000229  -0.011328  -0.011115  -0.015536
     2  C   -0.000217   0.000033   0.000049   0.002694   0.000781   0.000695
     3  C   -0.002603   0.000859  -0.000011  -0.000297   0.000316   0.000280
     4  C    0.000838   0.000058  -0.000009  -0.000071  -0.000034   0.000068
     5  C    0.000018   0.000435  -0.000306   0.000008   0.000168   0.000194
     6  C    0.000009  -0.000023   0.000093  -0.000158  -0.000272  -0.000394
     7  H    0.000002   0.000007   0.000383   0.000009   0.000000  -0.000001
     8  O    0.000397   0.001406   0.000005   0.000000  -0.000002   0.000002
     9  O    0.000984  -0.000581   0.000000   0.000001  -0.000012   0.000000
    10  H   -0.000005   0.000002   0.000000   0.000289  -0.000009  -0.000068
    11  C   -0.002006  -0.004076  -0.000019   0.000006   0.000012  -0.000027
    12  H    0.000042   0.001216   0.000002   0.000000   0.000000   0.000001
    13  H    0.001925   0.000193   0.000000  -0.000001  -0.000002   0.000001
    14  H    0.000193   0.000125   0.000000   0.000000   0.000000   0.000000
    15  H    0.000000   0.000000   0.006974   0.000152  -0.000028   0.000005
    16  C   -0.000001   0.000000   0.000152  -0.041648   0.004755   0.003986
    17  H   -0.000002   0.000000  -0.000028   0.004755   0.032011  -0.011755
    18  H    0.000001   0.000000   0.000005   0.003986  -0.011755   0.052493
    19  H    0.000000   0.000000  -0.000043   0.002256   0.001662  -0.002744
              19
     1  C   -0.001621
     2  C   -0.000054
     3  C    0.000011
     4  C   -0.000007
     5  C    0.000063
     6  C    0.000305
     7  H    0.000000
     8  O    0.000000
     9  O    0.000000
    10  H    0.000000
    11  C    0.000003
    12  H    0.000000
    13  H    0.000000
    14  H    0.000000
    15  H   -0.000043
    16  C    0.002256
    17  H    0.001662
    18  H   -0.002744
    19  H    0.002046
 Mulliken charges and spin densities:
               1          2
     1  C   -0.115035   0.467721
     2  C   -0.058352  -0.169377
     3  C    0.237089   0.300586
     4  C   -0.129639  -0.070040
     5  C   -0.052989   0.383946
     6  C   -0.055118  -0.168862
     7  H    0.086936  -0.022235
     8  O   -0.343945   0.107414
     9  O   -0.355743   0.048982
    10  H    0.092529   0.006973
    11  C    0.021572   0.104000
    12  H    0.119364  -0.001556
    13  H    0.253363  -0.000416
    14  H    0.116785  -0.000363
    15  H    0.085950   0.007020
    16  C   -0.255687  -0.039347
    17  H    0.119986   0.016475
    18  H    0.125417   0.027202
    19  H    0.107518   0.001876
 Sum of Mulliken charges =   0.00000   1.00000
 Mulliken charges and spin densities with hydrogens summed into heavy atoms:
               1          2
     1  C   -0.115035   0.467721
     2  C    0.034177  -0.162404
     3  C    0.237089   0.300586
     4  C   -0.129639  -0.070040
     5  C    0.033947   0.361711
     6  C    0.030832  -0.161842
     8  O   -0.343945   0.107414
     9  O   -0.102380   0.048566
    11  C    0.257721   0.102081
    16  C    0.097233   0.006206
 Electronic spatial extent (au):  <R**2>=           1450.1867
 Charge=              0.0000 electrons
 Dipole moment (field-independent basis, Debye):
    X=              0.4459    Y=             -0.8453    Z=              1.2236  Tot=              1.5526
 Quadrupole moment (field-independent basis, Debye-Ang):
   XX=            -53.0654   YY=            -58.3105   ZZ=            -61.4729
   XY=             -0.0339   XZ=             -3.5704   YZ=             -1.7124
 Traceless Quadrupole moment (field-independent basis, Debye-Ang):
   XX=              4.5509   YY=             -0.6942   ZZ=             -3.8567
   XY=             -0.0339   XZ=             -3.5704   YZ=             -1.7124
 Octapole moment (field-independent basis, Debye-Ang**2):
  XXX=            -11.7690  YYY=             -8.3581  ZZZ=             -0.8473  XYY=             -2.7726
  XXY=              7.5056  XXZ=              8.8704  XZZ=             -7.1451  YZZ=              4.7042
  YYZ=             -2.4773  XYZ=              5.6751
 Hexadecapole moment (field-independent basis, Debye-Ang**3):
 XXXX=          -1261.4418 YYYY=           -497.0951 ZZZZ=           -116.1237 XXXY=            -29.0713
 XXXZ=            -18.9917 YYYX=              7.1961 YYYZ=             -1.8338 ZZZX=              4.6020
 ZZZY=             -1.7405 XXYY=           -275.9169 XXZZ=           -236.7212 YYZZ=           -106.7486
 XXYZ=            -11.6541 YYXZ=              0.1247 ZZXY=             -1.9695
 N-N= 5.142298728885D+02 E-N=-2.103815503254D+03  KE= 4.590230558577D+02
                          Isotropic Fermi Contact Couplings
        Atom                 a.u.       MegaHertz       Gauss      10(-4) cm-1
     1  C(13)              0.03284      36.91285      13.17142      12.31280
     2  C(13)             -0.02592     -29.14078     -10.39815      -9.72032
     3  C(13)              0.02122      23.85546       8.51222       7.95732
     4  C(13)             -0.03128     -35.15975     -12.54587     -11.72803
     5  C(13)              0.02394      26.91664       9.60453       8.97843
     6  C(13)             -0.02706     -30.41999     -10.85461     -10.14702
     7  H(1)              -0.00525     -23.46942      -8.37447      -7.82856
     8  O(17)              0.01842     -11.16841      -3.98517      -3.72538
     9  O(17)              0.01016      -6.15709      -2.19700      -2.05378
    10  H(1)               0.00171       7.64749       2.72882       2.55093
    11  C(13)              0.04527      50.89453      18.16044      16.97659
    12  H(1)              -0.00099      -4.43219      -1.58152      -1.47842
    13  H(1)               0.00046       2.07174       0.73925       0.69106
    14  H(1)               0.00027       1.20096       0.42853       0.40060
    15  H(1)               0.00162       7.23331       2.58103       2.41277
    16  C(13)             -0.01535     -17.25328      -6.15640      -5.75508
    17  H(1)               0.00797      35.61519      12.70839      11.87995
    18  H(1)               0.01318      58.93141      21.02819      19.65740
    19  H(1)               0.00087       3.90635       1.39388       1.30302
 --------------------------------------------------------
       Center         ----  Spin Dipole Couplings  ----
                      3XX-RR        3YY-RR        3ZZ-RR
 --------------------------------------------------------
     1   Atom       -0.264202     -0.272738      0.536941
     2   Atom        0.078672      0.065156     -0.143829
     3   Atom       -0.189538     -0.182867      0.372405
     4   Atom        0.038946      0.017200     -0.056145
     5   Atom       -0.213194     -0.196212      0.409406
     6   Atom        0.070770      0.061776     -0.132547
     7   Atom       -0.019725      0.021916     -0.002191
     8   Atom        0.512046     -0.274600     -0.237445
     9   Atom       -0.125829     -0.160372      0.286201
    10   Atom        0.007243     -0.000871     -0.006372
    11   Atom        0.156677     -0.080618     -0.076059
    12   Atom        0.001788      0.005342     -0.007130
    13   Atom        0.011378     -0.003612     -0.007766
    14   Atom        0.002112      0.000981     -0.003093
    15   Atom        0.002000      0.004457     -0.006457
    16   Atom        0.005527     -0.008170      0.002643
    17   Atom        0.004631     -0.000927     -0.003704
    18   Atom        0.005276     -0.003829     -0.001447
    19   Atom        0.006891     -0.003348     -0.003543
 --------------------------------------------------------
                        XY            XZ            YZ
 --------------------------------------------------------
     1   Atom        0.003978     -0.024537     -0.059050
     2   Atom       -0.006420      0.007113      0.000337
     3   Atom       -0.002588     -0.030722      0.011610
     4   Atom        0.002503     -0.015332      0.001621
     5   Atom        0.002657     -0.012151     -0.049330
     6   Atom        0.010882     -0.001799      0.018518
     7   Atom        0.017378      0.002135      0.003380
     8   Atom       -0.018855      0.213324     -0.004350
     9   Atom        0.004853     -0.115186     -0.001243
    10   Atom       -0.003062      0.000394      0.000605
    11   Atom        0.007954      0.022938     -0.000334
    12   Atom        0.006050     -0.003831     -0.007172
    13   Atom        0.003282      0.005540      0.000096
    14   Atom       -0.003450     -0.005789      0.007988
    15   Atom        0.004634      0.000467      0.000693
    16   Atom        0.002764      0.000859     -0.000219
    17   Atom        0.004763     -0.001839     -0.001286
    18   Atom        0.002896      0.003720      0.001682
    19   Atom       -0.003276     -0.000650     -0.000088
 --------------------------------------------------------


 ---------------------------------------------------------------------------------
              Anisotropic Spin Dipole Couplings in Principal Axis System
 ---------------------------------------------------------------------------------

       Atom             a.u.   MegaHertz   Gauss  10(-4) cm-1        Axes

              Baa    -0.2774   -37.225   -13.283   -12.417 -0.1733  0.9826  0.0660
     1 C(13)  Bbb    -0.2646   -35.504   -12.669   -11.843  0.9844  0.1708  0.0427
              Bcc     0.5420    72.729    25.952    24.260 -0.0307 -0.0724  0.9969
 
              Baa    -0.1441   -19.331    -6.898    -6.448 -0.0320 -0.0026  0.9995
     2 C(13)  Bbb     0.0626     8.405     2.999     2.804  0.3662  0.9304  0.0141
              Bcc     0.0814    10.926     3.899     3.645  0.9300 -0.3665  0.0288
 
              Baa    -0.1917   -25.719    -9.177    -8.579  0.9737  0.2227  0.0484
     3 C(13)  Bbb    -0.1827   -24.512    -8.747    -8.176 -0.2213  0.9747 -0.0326
              Bcc     0.3743    50.231    17.924    16.755 -0.0545  0.0211  0.9983
 
              Baa    -0.0586    -7.865    -2.806    -2.623  0.1559 -0.0263  0.9874
     4 C(13)  Bbb     0.0170     2.288     0.816     0.763 -0.0858  0.9955  0.0400
              Bcc     0.0416     5.577     1.990     1.860  0.9840  0.0910 -0.1529
 
              Baa    -0.2136   -28.669   -10.230    -9.563  0.9922 -0.1243  0.0095
     5 C(13)  Bbb    -0.2000   -26.838    -9.576    -8.952  0.1231  0.9890  0.0825
              Bcc     0.4136    55.507    19.806    18.515 -0.0197 -0.0807  0.9965
 
              Baa    -0.1343   -18.026    -6.432    -6.013  0.0138 -0.0948  0.9954
     6 C(13)  Bbb     0.0559     7.501     2.677     2.502 -0.5816  0.8090  0.0850
              Bcc     0.0784    10.525     3.756     3.511  0.8133  0.5801  0.0440
 
              Baa    -0.0261   -13.902    -4.961    -4.637  0.9404 -0.3381 -0.0362
     7 H(1)   Bbb    -0.0027    -1.416    -0.505    -0.472 -0.0086 -0.1303  0.9914
              Bcc     0.0287    15.318     5.466     5.110  0.3399  0.9320  0.1254
 
              Baa    -0.2939    21.268     7.589     7.094 -0.2564 -0.0327  0.9660
     8 O(17)  Bbb    -0.2750    19.901     7.101     6.638  0.0138  0.9992  0.0375
              Bcc     0.5690   -41.169   -14.690   -13.733  0.9665 -0.0229  0.2558
 
              Baa    -0.1631    11.798     4.210     3.935 -0.5040  0.8544 -0.1268
     9 O(17)  Bbb    -0.1532    11.084     3.955     3.697  0.8261  0.5197  0.2180
              Bcc     0.3162   -22.882    -8.165    -7.633 -0.2522 -0.0051  0.9677
 
              Baa    -0.0065    -3.458    -1.234    -1.153 -0.0594 -0.1390  0.9885
    10 H(1)   Bbb    -0.0018    -0.955    -0.341    -0.319  0.3115  0.9382  0.1507
              Bcc     0.0083     4.413     1.575     1.472  0.9484 -0.3168  0.0124
 
              Baa    -0.0813   -10.908    -3.892    -3.638 -0.0643  0.9374  0.3423
    11 C(13)  Bbb    -0.0779   -10.452    -3.730    -3.486 -0.0796 -0.3467  0.9346
              Bcc     0.1592    21.360     7.622     7.125  0.9947  0.0329  0.0970
 
              Baa    -0.0105    -5.601    -1.998    -1.868  0.1007  0.3783  0.9202
    12 H(1)   Bbb    -0.0026    -1.379    -0.492    -0.460  0.8400 -0.5279  0.1251
              Bcc     0.0131     6.980     2.491     2.328  0.5331  0.7604 -0.3709
 
              Baa    -0.0094    -4.995    -1.782    -1.666 -0.2764  0.1419  0.9505
    13 H(1)   Bbb    -0.0041    -2.188    -0.781    -0.730 -0.1397  0.9726 -0.1858
              Bcc     0.0135     7.184     2.563     2.396  0.9508  0.1841  0.2490
 
              Baa    -0.0099    -5.292    -1.888    -1.765  0.2437 -0.5219  0.8174
    14 H(1)   Bbb    -0.0016    -0.850    -0.303    -0.283  0.7875  0.5984  0.1473
              Bcc     0.0115     6.142     2.192     2.049 -0.5660  0.6079  0.5569
 
              Baa    -0.0065    -3.471    -1.239    -1.158 -0.0266 -0.0519  0.9983
    15 H(1)   Bbb    -0.0016    -0.835    -0.298    -0.278  0.7931 -0.6091 -0.0105
              Bcc     0.0081     4.306     1.537     1.436  0.6086  0.7914  0.0573
 
              Baa    -0.0087    -1.170    -0.418    -0.390 -0.1923  0.9808  0.0335
    16 C(13)  Bbb     0.0025     0.332     0.119     0.111 -0.2077 -0.0740  0.9754
              Bcc     0.0062     0.838     0.299     0.279  0.9591  0.1806  0.2180
 
              Baa    -0.0042    -2.245    -0.801    -0.749 -0.0136  0.3820  0.9241
    17 H(1)   Bbb    -0.0036    -1.917    -0.684    -0.639 -0.5273  0.7825 -0.3312
              Bcc     0.0078     4.162     1.485     1.388  0.8496  0.4918 -0.1908
 
              Baa    -0.0048    -2.585    -0.923    -0.862 -0.1647  0.9438 -0.2867
    18 H(1)   Bbb    -0.0030    -1.617    -0.577    -0.539 -0.4547  0.1853  0.8711
              Bcc     0.0079     4.203     1.500     1.402  0.8753  0.2738  0.3987
 
              Baa    -0.0044    -2.344    -0.836    -0.782  0.2816  0.9083  0.3092
    19 H(1)   Bbb    -0.0035    -1.861    -0.664    -0.621 -0.0388 -0.3113  0.9495
              Bcc     0.0079     4.205     1.500     1.403  0.9588 -0.2793 -0.0524
 

 ---------------------------------------------------------------------------------

 1|1|UNPC-PC-20250526LCFF|SP|UB3LYP|6-311G(d,p)|C8H9O2(2)|ADMINISTRATOR
 |02-Dec-2025|0||# ub3lyp/6-311g(d,p) geom=connectivity temperature=823
 .15||Title Card Required||0,2|C,0,1.839306,-0.031101,0.017699|C,0,0.96
 6067,1.084398,0.040042|C,0,-0.390624,0.922094,0.008423|C,0,-1.002799,-
 0.420484,0.043395|C,0,-0.074053,-1.539323,-0.120504|C,0,1.277699,-1.32
 7213,-0.098569|H,0,-0.492789,-2.534005,-0.21485|O,0,-2.309885,-0.45934
 7,-0.694849|O,0,-1.236106,1.981111,-0.05952|H,0,1.362623,2.093867,0.03
 3573|C,0,-2.316924,-0.610426,0.721332|H,0,-2.568916,-1.604564,1.084907
 |H,0,-2.057528,1.64687,-0.454565|H,0,-2.746892,0.214089,1.287357|H,0,1
 .946246,-2.178376,-0.178804|C,0,3.327632,0.171663,0.08233|H,0,3.654378
 ,0.963045,-0.599866|H,0,3.645957,0.468926,1.089294|H,0,3.867032,-0.741
 609,-0.176986||Version=EM64W-G16RevA.03|State=2-A|HF=-460.7508906|S2=0
 .779076|S2-1=0.|S2A=0.750544|RMSD=9.066e-009|Dipole=0.1754236,-0.33255
 98,0.4814|Quadrupole=3.3834731,-0.516133,-2.8673401,-0.0251939,-2.6544
 696,-1.2731459|PG=C01 [X(C8H9O2)]||@


 TO SEE A WORLD IN A GRAIN OF SAND
 AND A HEAVEN IN A WILD FLOWER
 HOLD INFINITY IN THE PALM OF YOUR HAND
 AND ETERNITY IN AN HOUR

                       -- WILLIAM BLAKE
 Job cpu time:       0 days  0 hours  0 minutes 38.0 seconds.
 Elapsed time:       0 days  0 hours  0 minutes 37.8 seconds.
 File lengths (MBytes):  RWF=     57 Int=      0 D2E=      0 Chk=      5 Scr=      1
 Normal termination of Gaussian 16 at Tue Dec 02 11:36:55 2025.
