 Generated by Multiwfn (http://sobereva.com/multiwfn)
GAUSSIAN             37 MOL ORBITALS    316 PRIMITIVES       19 NUCLEI
  C    1    (CENTRE  1)  -3.69169142 -0.03151525 -0.00001312  CHARGE =  6.0
  C    2    (CENTRE  2)  -1.93180451 -1.98472475  0.00003412  CHARGE =  6.0
  C    3    (CENTRE  3)   0.66468483 -1.49173098  0.00017963  CHARGE =  6.0
  C    4    (CENTRE  4)   1.53938413  1.03122919  0.00019475  CHARGE =  6.0
  C    5    (CENTRE  5)  -0.24833656  2.97859754  0.00020230  CHARGE =  6.0
  C    6    (CENTRE  6)  -2.81842832  2.47545027  0.00010026  CHARGE =  6.0
  H    7    (CENTRE  7)   0.40240754  4.92632128  0.00020230  CHARGE =  1.0
  O    8    (CENTRE  8)   6.02798830 -0.25058127 -0.00140207  CHARGE =  8.0
  O    9    (CENTRE  9)   2.26258254 -3.47664631  0.00055190  CHARGE =  8.0
  H   10    (CENTRE 10)  -2.52733837 -3.94566712  0.00004168  CHARGE =  1.0
  C   11    (CENTRE 11)   4.31729851  1.65207617  0.00019475  CHARGE =  6.0
  H   12    (CENTRE 12)   4.76577959  2.91983486 -1.62091626  CHARGE =  1.0
  H   13    (CENTRE 13)   3.99327306 -2.80582935  0.00103567  CHARGE =  1.0
  H   14    (CENTRE 14)   4.76625391  2.91732342  1.62319737  CHARGE =  1.0
  H   15    (CENTRE 15)  -4.16403623  4.02019738  0.00006246  CHARGE =  1.0
  C   16    (CENTRE 16)  -6.48437024 -0.61153091 -0.00021721  CHARGE =  6.0
  H   17    (CENTRE 17)  -7.01464245 -1.71749504 -1.66486373  CHARGE =  1.0
  H   18    (CENTRE 18)  -7.01454041 -1.71928084  1.66326523  CHARGE =  1.0
  H   19    (CENTRE 19)  -7.61214187  1.11530832  0.00072387  CHARGE =  1.0
CENTRE ASSIGNMENTS    1  1  1  1  1  1  1  1  1  1  1  1  1  1  1  1  1  1  1  1
CENTRE ASSIGNMENTS    1  1  1  1  1  1  1  1  2  2  2  2  2  2  2  2  2  2  2  2
CENTRE ASSIGNMENTS    2  2  2  2  2  2  2  2  2  2  2  2  2  2  2  2  3  3  3  3
CENTRE ASSIGNMENTS    3  3  3  3  3  3  3  3  3  3  3  3  3  3  3  3  3  3  3  3
CENTRE ASSIGNMENTS    3  3  3  3  4  4  4  4  4  4  4  4  4  4  4  4  4  4  4  4
CENTRE ASSIGNMENTS    4  4  4  4  4  4  4  4  4  4  4  4  5  5  5  5  5  5  5  5
CENTRE ASSIGNMENTS    5  5  5  5  5  5  5  5  5  5  5  5  5  5  5  5  5  5  5  5
CENTRE ASSIGNMENTS    6  6  6  6  6  6  6  6  6  6  6  6  6  6  6  6  6  6  6  6
CENTRE ASSIGNMENTS    6  6  6  6  6  6  6  6  7  7  7  7  8  8  8  8  8  8  8  8
CENTRE ASSIGNMENTS    8  8  8  8  8  8  8  8  8  8  8  8  8  8  8  8  8  8  8  8
CENTRE ASSIGNMENTS    9  9  9  9  9  9  9  9  9  9  9  9  9  9  9  9  9  9  9  9
CENTRE ASSIGNMENTS    9  9  9  9  9  9  9  9 10 10 10 10 11 11 11 11 11 11 11 11
CENTRE ASSIGNMENTS   11 11 11 11 11 11 11 11 11 11 11 11 11 11 11 11 11 11 11 11
CENTRE ASSIGNMENTS   12 12 12 12 13 13 13 13 14 14 14 14 15 15 15 15 16 16 16 16
CENTRE ASSIGNMENTS   16 16 16 16 16 16 16 16 16 16 16 16 16 16 16 16 16 16 16 16
CENTRE ASSIGNMENTS   16 16 16 16 17 17 17 17 18 18 18 18 19 19 19 19
TYPE ASSIGNMENTS      1  1  1  1  1  1  1  1  1  2  2  2  3  3  3  4  4  4  1  2
TYPE ASSIGNMENTS      3  4  5  6  7  8  9 10  1  1  1  1  1  1  1  1  1  2  2  2
TYPE ASSIGNMENTS      3  3  3  4  4  4  1  2  3  4  5  6  7  8  9 10  1  1  1  1
TYPE ASSIGNMENTS      1  1  1  1  1  2  2  2  3  3  3  4  4  4  1  2  3  4  5  6
TYPE ASSIGNMENTS      7  8  9 10  1  1  1  1  1  1  1  1  1  2  2  2  3  3  3  4
TYPE ASSIGNMENTS      4  4  1  2  3  4  5  6  7  8  9 10  1  1  1  1  1  1  1  1
TYPE ASSIGNMENTS      1  2  2  2  3  3  3  4  4  4  1  2  3  4  5  6  7  8  9 10
TYPE ASSIGNMENTS      1  1  1  1  1  1  1  1  1  2  2  2  3  3  3  4  4  4  1  2
TYPE ASSIGNMENTS      3  4  5  6  7  8  9 10  1  1  1  1  1  1  1  1  1  1  1  1
TYPE ASSIGNMENTS      1  2  2  2  3  3  3  4  4  4  1  2  3  4  5  6  7  8  9 10
TYPE ASSIGNMENTS      1  1  1  1  1  1  1  1  1  2  2  2  3  3  3  4  4  4  1  2
TYPE ASSIGNMENTS      3  4  5  6  7  8  9 10  1  1  1  1  1  1  1  1  1  1  1  1
TYPE ASSIGNMENTS      1  2  2  2  3  3  3  4  4  4  1  2  3  4  5  6  7  8  9 10
TYPE ASSIGNMENTS      1  1  1  1  1  1  1  1  1  1  1  1  1  1  1  1  1  1  1  1
TYPE ASSIGNMENTS      1  1  1  1  1  2  2  2  3  3  3  4  4  4  1  2  3  4  5  6
TYPE ASSIGNMENTS      7  8  9 10  1  1  1  1  1  1  1  1  1  1  1  1
EXPONENTS  0.3047525D+04 0.4573695D+03 0.1039487D+03 0.2921016D+02 0.9286663D+01
EXPONENTS  0.3163927D+01 0.7868272D+01 0.1881289D+01 0.5442493D+00 0.7868272D+01
EXPONENTS  0.1881289D+01 0.5442493D+00 0.7868272D+01 0.1881289D+01 0.5442493D+00
EXPONENTS  0.7868272D+01 0.1881289D+01 0.5442493D+00 0.1687145D+00 0.1687145D+00
EXPONENTS  0.1687145D+00 0.1687145D+00 0.8000000D+00 0.8000000D+00 0.8000000D+00
EXPONENTS  0.8000000D+00 0.8000000D+00 0.8000000D+00 0.3047525D+04 0.4573695D+03
EXPONENTS  0.1039487D+03 0.2921016D+02 0.9286663D+01 0.3163927D+01 0.7868272D+01
EXPONENTS  0.1881289D+01 0.5442493D+00 0.7868272D+01 0.1881289D+01 0.5442493D+00
EXPONENTS  0.7868272D+01 0.1881289D+01 0.5442493D+00 0.7868272D+01 0.1881289D+01
EXPONENTS  0.5442493D+00 0.1687145D+00 0.1687145D+00 0.1687145D+00 0.1687145D+00
EXPONENTS  0.8000000D+00 0.8000000D+00 0.8000000D+00 0.8000000D+00 0.8000000D+00
EXPONENTS  0.8000000D+00 0.3047525D+04 0.4573695D+03 0.1039487D+03 0.2921016D+02
EXPONENTS  0.9286663D+01 0.3163927D+01 0.7868272D+01 0.1881289D+01 0.5442493D+00
EXPONENTS  0.7868272D+01 0.1881289D+01 0.5442493D+00 0.7868272D+01 0.1881289D+01
EXPONENTS  0.5442493D+00 0.7868272D+01 0.1881289D+01 0.5442493D+00 0.1687145D+00
EXPONENTS  0.1687145D+00 0.1687145D+00 0.1687145D+00 0.8000000D+00 0.8000000D+00
EXPONENTS  0.8000000D+00 0.8000000D+00 0.8000000D+00 0.8000000D+00 0.3047525D+04
EXPONENTS  0.4573695D+03 0.1039487D+03 0.2921016D+02 0.9286663D+01 0.3163927D+01
EXPONENTS  0.7868272D+01 0.1881289D+01 0.5442493D+00 0.7868272D+01 0.1881289D+01
EXPONENTS  0.5442493D+00 0.7868272D+01 0.1881289D+01 0.5442493D+00 0.7868272D+01
EXPONENTS  0.1881289D+01 0.5442493D+00 0.1687145D+00 0.1687145D+00 0.1687145D+00
EXPONENTS  0.1687145D+00 0.8000000D+00 0.8000000D+00 0.8000000D+00 0.8000000D+00
EXPONENTS  0.8000000D+00 0.8000000D+00 0.3047525D+04 0.4573695D+03 0.1039487D+03
EXPONENTS  0.2921016D+02 0.9286663D+01 0.3163927D+01 0.7868272D+01 0.1881289D+01
EXPONENTS  0.5442493D+00 0.7868272D+01 0.1881289D+01 0.5442493D+00 0.7868272D+01
EXPONENTS  0.1881289D+01 0.5442493D+00 0.7868272D+01 0.1881289D+01 0.5442493D+00
EXPONENTS  0.1687145D+00 0.1687145D+00 0.1687145D+00 0.1687145D+00 0.8000000D+00
EXPONENTS  0.8000000D+00 0.8000000D+00 0.8000000D+00 0.8000000D+00 0.8000000D+00
EXPONENTS  0.3047525D+04 0.4573695D+03 0.1039487D+03 0.2921016D+02 0.9286663D+01
EXPONENTS  0.3163927D+01 0.7868272D+01 0.1881289D+01 0.5442493D+00 0.7868272D+01
EXPONENTS  0.1881289D+01 0.5442493D+00 0.7868272D+01 0.1881289D+01 0.5442493D+00
EXPONENTS  0.7868272D+01 0.1881289D+01 0.5442493D+00 0.1687145D+00 0.1687145D+00
EXPONENTS  0.1687145D+00 0.1687145D+00 0.8000000D+00 0.8000000D+00 0.8000000D+00
EXPONENTS  0.8000000D+00 0.8000000D+00 0.8000000D+00 0.1873114D+02 0.2825394D+01
EXPONENTS  0.6401217D+00 0.1612778D+00 0.5484672D+04 0.8252349D+03 0.1880470D+03
EXPONENTS  0.5296450D+02 0.1689757D+02 0.5799635D+01 0.1553962D+02 0.3599934D+01
EXPONENTS  0.1013762D+01 0.1553962D+02 0.3599934D+01 0.1013762D+01 0.1553962D+02
EXPONENTS  0.3599934D+01 0.1013762D+01 0.1553962D+02 0.3599934D+01 0.1013762D+01
EXPONENTS  0.2700058D+00 0.2700058D+00 0.2700058D+00 0.2700058D+00 0.8000000D+00
EXPONENTS  0.8000000D+00 0.8000000D+00 0.8000000D+00 0.8000000D+00 0.8000000D+00
EXPONENTS  0.5484672D+04 0.8252349D+03 0.1880470D+03 0.5296450D+02 0.1689757D+02
EXPONENTS  0.5799635D+01 0.1553962D+02 0.3599934D+01 0.1013762D+01 0.1553962D+02
EXPONENTS  0.3599934D+01 0.1013762D+01 0.1553962D+02 0.3599934D+01 0.1013762D+01
EXPONENTS  0.1553962D+02 0.3599934D+01 0.1013762D+01 0.2700058D+00 0.2700058D+00
EXPONENTS  0.2700058D+00 0.2700058D+00 0.8000000D+00 0.8000000D+00 0.8000000D+00
EXPONENTS  0.8000000D+00 0.8000000D+00 0.8000000D+00 0.1873114D+02 0.2825394D+01
EXPONENTS  0.6401217D+00 0.1612778D+00 0.3047525D+04 0.4573695D+03 0.1039487D+03
EXPONENTS  0.2921016D+02 0.9286663D+01 0.3163927D+01 0.7868272D+01 0.1881289D+01
EXPONENTS  0.5442493D+00 0.7868272D+01 0.1881289D+01 0.5442493D+00 0.7868272D+01
EXPONENTS  0.1881289D+01 0.5442493D+00 0.7868272D+01 0.1881289D+01 0.5442493D+00
EXPONENTS  0.1687145D+00 0.1687145D+00 0.1687145D+00 0.1687145D+00 0.8000000D+00
EXPONENTS  0.8000000D+00 0.8000000D+00 0.8000000D+00 0.8000000D+00 0.8000000D+00
EXPONENTS  0.1873114D+02 0.2825394D+01 0.6401217D+00 0.1612778D+00 0.1873114D+02
EXPONENTS  0.2825394D+01 0.6401217D+00 0.1612778D+00 0.1873114D+02 0.2825394D+01
EXPONENTS  0.6401217D+00 0.1612778D+00 0.1873114D+02 0.2825394D+01 0.6401217D+00
EXPONENTS  0.1612778D+00 0.3047525D+04 0.4573695D+03 0.1039487D+03 0.2921016D+02
EXPONENTS  0.9286663D+01 0.3163927D+01 0.7868272D+01 0.1881289D+01 0.5442493D+00
EXPONENTS  0.7868272D+01 0.1881289D+01 0.5442493D+00 0.7868272D+01 0.1881289D+01
EXPONENTS  0.5442493D+00 0.7868272D+01 0.1881289D+01 0.5442493D+00 0.1687145D+00
EXPONENTS  0.1687145D+00 0.1687145D+00 0.1687145D+00 0.8000000D+00 0.8000000D+00
EXPONENTS  0.8000000D+00 0.8000000D+00 0.8000000D+00 0.8000000D+00 0.1873114D+02
EXPONENTS  0.2825394D+01 0.6401217D+00 0.1612778D+00 0.1873114D+02 0.2825394D+01
EXPONENTS  0.6401217D+00 0.1612778D+00 0.1873114D+02 0.2825394D+01 0.6401217D+00
EXPONENTS  0.1612778D+00
MO    1     MO 0.0        OCC NO =    2.0000000  ORB. ENERGY =  -18.976197
  0.13008466D-05  0.23998080D-05  0.38740343D-05  0.50428415D-05  0.43030658D-05
  0.14857452D-05  0.63088855D-05  0.29077596D-05 -0.81536614D-05  0.80845648D-04
  0.61987315D-04  0.30936015D-04 -0.44447892D-04 -0.34079825D-04 -0.17008221D-04
 -0.88914817D-08 -0.68174242D-08 -0.34023725D-08  0.29173129D-03  0.61744458D-04
  0.15546820D-04  0.53593226D-08  0.17779379D-04  0.43939950D-04  0.22351111D-04
 -0.12901492D-04 -0.22149869D-08  0.84983259D-08  0.61148837D-05  0.11280766D-04
  0.18210655D-04  0.23704862D-04  0.20227401D-04  0.69840356D-05 -0.65788726D-04
 -0.30321964D-04  0.85025952D-04 -0.34464544D-05 -0.26425226D-05 -0.13188040D-05
  0.13338470D-04  0.10227093D-04  0.51040360D-05  0.14023686D-07  0.10752473D-07
  0.53662376D-08 -0.28570339D-03 -0.52955206D-04 -0.28168971D-03 -0.12992499D-09
 -0.99561784D-04 -0.66381473D-04  0.26990436D-04 -0.15767322D-04 -0.19510382D-07
  0.16897061D-07 -0.32861861D-04 -0.60623716D-04 -0.97865475D-04 -0.12739177D-03
 -0.10870363D-03 -0.37532751D-04 -0.41182640D-04 -0.18981041D-04  0.53224821D-04
  0.30719517D-03  0.23553777D-03  0.11754985D-03 -0.46648851D-03 -0.35767380D-03
 -0.17850430D-03  0.46861192D-07  0.35930190D-07  0.17931683D-07  0.13904935D-03
 -0.40246578D-03  0.69311439D-03 -0.69862465D-07 -0.11583524D-03 -0.76576282D-05
 -0.13935002D-03  0.10674554D-03 -0.29870646D-07  0.43500940D-07  0.90035468D-05
  0.16609786D-04  0.26813344D-04  0.34903007D-04  0.29782799D-04  0.10283285D-04
 -0.79283132D-04 -0.36541523D-04  0.10246624D-03 -0.10663896D-03 -0.81763989D-04
 -0.40805961D-04  0.29626551D-04  0.22715760D-04  0.11336756D-04 -0.38082364D-07
 -0.29199141D-07 -0.14572418D-07 -0.52447378D-03  0.48043660D-03  0.13956616D-03
  0.31958890D-07 -0.58169241D-04 -0.13280542D-03  0.33618716D-04 -0.30487212D-05
 -0.27499828D-07 -0.17657446D-07 -0.23726936D-05 -0.43771564D-05 -0.70660877D-05
 -0.91979466D-05 -0.78486245D-05 -0.27099414D-05  0.18830551D-04  0.86789839D-05
 -0.24336777D-04  0.52261966D-04  0.40071161D-04  0.19998318D-04 -0.78015107D-04
 -0.59817035D-04 -0.29852893D-04 -0.48709306D-08 -0.37347206D-08 -0.18638873D-08
  0.35094464D-03 -0.36961186D-04 -0.17657566D-03 -0.10945225D-07  0.19383974D-04
  0.38046925D-04  0.41827897D-05 -0.61240503D-04 -0.11264820D-07  0.19953258D-07
  0.75311068D-05  0.13893422D-04  0.22428290D-04  0.29194970D-04  0.24912121D-04
  0.86015566D-05 -0.30873381D-04 -0.14229513D-04  0.39901040D-04 -0.11174736D-05
 -0.85680784D-06 -0.42760716D-06 -0.32320073D-04 -0.24780982D-04 -0.12367447D-04
 -0.24739081D-08 -0.18968358D-08 -0.94665402D-09 -0.22904769D-03 -0.66435751D-04
  0.89128194D-04  0.62895867D-09 -0.11673814D-04 -0.12415931D-05  0.34813580D-04
 -0.43448497D-04 -0.20176792D-08  0.43463164D-09  0.55159123D-05  0.93560312D-05
  0.10651511D-04  0.53420438D-04 -0.65634160D-05 -0.12080189D-04 -0.19548026D-04
 -0.25696428D-04 -0.22039677D-04 -0.75357398D-05  0.78359757D-05  0.34963971D-05
 -0.10324907D-04 -0.52328163D-04 -0.40316029D-04 -0.17700908D-04  0.12462465D-03
  0.96016577D-04  0.42156449D-04 -0.94260203D-07 -0.72622405D-07 -0.31885147D-07
  0.28117617D-04 -0.45745074D-05 -0.99023732D-04  0.29054194D-07 -0.62607127D-04
 -0.14581649D-04  0.75869429D-05  0.37824609D-04  0.19126470D-07 -0.17330754D-06
  0.82558725D+00  0.15195213D+01  0.24588722D+01  0.32322564D+01  0.27722875D+01
  0.94789218D+00 -0.15736610D-01 -0.70216446D-02  0.20735011D-01  0.40048879D-03
  0.30855502D-03  0.13547227D-03  0.26633455D-02  0.20519642D-02  0.90092279D-03
  0.28573200D-06  0.22014110D-06  0.96653802D-07  0.40929883D-02 -0.19446577D-03
  0.27145510D-03 -0.44720740D-07 -0.93063533D-02 -0.93692911D-02 -0.93628395D-02
 -0.11476071D-03  0.63934990D-07 -0.10206417D-07 -0.78034237D-05 -0.13236084D-04
 -0.15068813D-04 -0.13002894D-03  0.34815544D-05  0.64227880D-05  0.10368371D-04
  0.13496539D-04  0.11516621D-04  0.39764124D-05 -0.56133960D-05 -0.25872091D-05
  0.72548044D-05  0.96875836D-04  0.74278246D-04  0.37070051D-04 -0.95903576D-05
 -0.73532779D-05 -0.36698010D-05 -0.82797967D-07 -0.63484229D-07 -0.31683080D-07
 -0.23410148D-03  0.12321532D-03 -0.18760050D-04  0.37604417D-08 -0.14211994D-05
  0.64854473D-04 -0.77159001D-05 -0.31505964D-04 -0.70207286D-07  0.87047861D-07
  0.53987517D-05  0.91573048D-05  0.10425268D-04  0.33279621D-05  0.81192858D-04
  0.13771845D-03  0.15678759D-03 -0.29764950D-03  0.53849643D-05  0.91339187D-05
  0.10398644D-04  0.32915530D-05 -0.45754709D-05 -0.77608647D-05 -0.88354701D-05
 -0.31288294D-04  0.54880199D-05  0.10124325D-04  0.16343800D-04  0.21274771D-04
  0.18153801D-04  0.62680712D-05 -0.19166510D-04 -0.88338269D-05  0.24770973D-04
 -0.29621164D-05 -0.22711630D-05 -0.11334695D-05 -0.53688060D-05 -0.41164599D-05
 -0.20544020D-05  0.37789277D-08  0.28974421D-08  0.14460267D-08 -0.42072268D-04
 -0.13732012D-04 -0.24032329D-05 -0.35216126D-08 -0.10438857D-05  0.17315858D-04
  0.20199788D-04 -0.14148665D-04 -0.51952563D-08  0.27791562D-08  0.23270399D-05
  0.39471001D-05  0.44936340D-05  0.42170477D-05  0.23277635D-05  0.39483275D-05
  0.44950313D-05  0.42203616D-05  0.24296072D-05  0.41210737D-05  0.46916967D-05
  0.25725051D-05
MO    2     MO 0.0        OCC NO =    2.0000000  ORB. ENERGY =  -18.823251
 -0.17514628D-05 -0.32311068D-05 -0.52160082D-05 -0.67896929D-05 -0.57936572D-05
 -0.20004106D-05  0.66808138D-05  0.30791810D-05 -0.86343449D-05 -0.34888810D-04
 -0.26750526D-04 -0.13350387D-04  0.40249606D-05  0.30860845D-05  0.15401724D-05
 -0.11177966D-07 -0.85705555D-08 -0.42773078D-08 -0.33437860D-04  0.37685146D-04
  0.22620163D-04  0.91504572D-08 -0.10440799D-06  0.14463929D-05 -0.93611601D-05
  0.12458174D-05  0.98665553D-08 -0.16739163D-07  0.25878595D-05  0.47740955D-05
  0.77068705D-05  0.10032055D-04  0.85603711D-05  0.29556904D-05 -0.13756891D-04
 -0.63405385D-05  0.17779532D-04  0.16332140D-05  0.12522449D-05  0.62495797D-06
 -0.13931968D-04 -0.10682149D-04 -0.53311411D-05  0.26127436D-07  0.20032861D-07
  0.99978014D-08 -0.10117473D-03 -0.73190512D-04  0.46354065D-04 -0.24238983D-07
 -0.30739654D-04  0.66867577D-05  0.10885679D-04  0.18354342D-04 -0.35321040D-07
 -0.12125318D-07  0.72749915D-05  0.13420939D-04  0.21665557D-04  0.28202117D-04
  0.24064918D-04  0.83090378D-05 -0.51257134D-05 -0.23624366D-05  0.66245188D-05
  0.55470309D-04  0.42531115D-04  0.21226007D-04 -0.35131950D-04 -0.26936951D-04
 -0.13443427D-04 -0.10548603D-06 -0.80880001D-07 -0.40364789D-07 -0.71832037D-04
 -0.68834200D-04 -0.21687907D-03  0.35616642D-07  0.91691474D-04  0.47656413D-04
  0.23446094D-04 -0.10433824D-03 -0.31035968D-07  0.35592457D-07 -0.13519205D-04
 -0.24940293D-04 -0.40261365D-04 -0.52408335D-04 -0.44720127D-04 -0.15440785D-04
  0.30619026D-04  0.14112281D-04 -0.39572310D-04 -0.20574210D-05 -0.15774999D-05
 -0.78728300D-06  0.29148707D-04  0.22349380D-04  0.11153907D-04 -0.39197736D-07
 -0.30054338D-07 -0.14999221D-07  0.31371413D-03  0.75553944D-05 -0.16961385D-03
 -0.33178464D-07 -0.65197900D-04 -0.15836586D-04 -0.51052328D-04  0.57949748D-04
  0.38823047D-09 -0.88658758D-07  0.16772128D-05  0.30941302D-05  0.49948855D-05
  0.65018568D-05  0.55480462D-05  0.19156070D-05 -0.12795126D-05 -0.58972617D-06
  0.16536537D-05  0.61521829D-04  0.47171036D-04  0.23541653D-04 -0.16040333D-04
 -0.12298710D-04 -0.61379182D-05  0.65100175D-07  0.49914685D-07  0.24910926D-07
  0.10126731D-03 -0.70891035D-04 -0.14487081D-07 -0.15025986D-07  0.33631617D-04
  0.16078909D-05  0.11258069D-04  0.27969369D-04  0.13069460D-07 -0.22783176D-07
  0.34952132D-05  0.64479858D-05  0.10409048D-04  0.13549488D-04  0.11561803D-04
  0.39920127D-05 -0.16410236D-04 -0.75634628D-05  0.21208739D-04 -0.13587789D-04
 -0.10418255D-04 -0.51994392D-05  0.11421435D-04  0.87572317D-05  0.43704724D-05
 -0.14636750D-07 -0.11222532D-07 -0.56008299D-08 -0.12156461D-03 -0.49880435D-04
 -0.46753457D-05  0.51744057D-08 -0.20299912D-04  0.13368037D-05  0.15134655D-04
 -0.81911818D-05  0.17199386D-07  0.26812225D-09  0.90263418D-05  0.15310384D-04
  0.17430331D-04 -0.15259923D-04  0.82572559D+00  0.15197759D+01  0.24592842D+01
  0.32327980D+01  0.27727520D+01  0.94805101D+00 -0.15869907D-01 -0.70811218D-02
  0.20910647D-01 -0.19065780D-02 -0.14689156D-02 -0.64493306D-03  0.16687145D-02
  0.12856546D-02  0.56447160D-03  0.19667856D-05  0.15153023D-05  0.66529932D-06
  0.33112239D-02 -0.22789361D-03  0.97125733D-04  0.24355127D-06 -0.88751064D-02
 -0.88458708D-02 -0.89579620D-02  0.30705647D-04 -0.23417508D-06 -0.10780237D-06
 -0.14208101D-04 -0.26150491D-04 -0.42316430D-04 -0.55626132D-04 -0.47710210D-04
 -0.16312931D-04  0.42949478D-04  0.19163973D-04 -0.56591470D-04 -0.19064387D-03
 -0.14688082D-03 -0.64488593D-04  0.85946205D-04  0.66216918D-04  0.29072794D-04
 -0.34556955D-06 -0.26624271D-06 -0.11689489D-06  0.10923266D-03  0.21837172D-03
 -0.18926767D-04  0.11921546D-06 -0.13458557D-04 -0.11379366D-03 -0.52753587D-04
  0.13536489D-03  0.20766143D-06  0.17824113D-06  0.68546557D-05  0.11626794D-04
  0.13236693D-04  0.16212129D-04  0.58827392D-05  0.10852505D-04  0.17519308D-04
  0.22804934D-04  0.19459491D-04  0.67188948D-05 -0.19715014D-03 -0.90866319D-04
  0.25479864D-03  0.33051817D-03  0.25342037D-03  0.12647453D-03 -0.29216726D-03
 -0.22401532D-03 -0.11179935D-03 -0.39465707D-06 -0.30259801D-06 -0.15101761D-06
 -0.47858720D-03 -0.17727659D-03  0.24391196D-03  0.22296569D-06  0.42578878D-05
 -0.12255224D-03 -0.48357008D-06  0.32960105D-04 -0.22411569D-07 -0.13657737D-06
  0.12292153D-04  0.20849819D-04  0.23736782D-04 -0.55455829D-05 -0.39925516D-04
 -0.67721232D-04 -0.77098230D-04 -0.24030733D-03  0.12303312D-04  0.20868746D-04
  0.23758330D-04 -0.56326380D-05  0.21961074D-05  0.37250138D-05  0.42407965D-05
 -0.32481854D-05  0.67329976D-06  0.12421066D-05  0.20051452D-05  0.26101032D-05
  0.22272058D-05  0.76900064D-06 -0.76157124D-07 -0.35100749D-07  0.98426163D-07
  0.23243224D-04  0.17821430D-04  0.88941426D-05 -0.23157721D-05 -0.17755872D-05
 -0.88614244D-06 -0.10864900D-08 -0.83305166D-09 -0.41575116D-09  0.31382966D-04
  0.61519861D-05  0.47845276D-05  0.13025807D-08  0.83095102D-05  0.50434264D-06
  0.79812327D-05 -0.67906652D-07 -0.54006788D-08 -0.12358752D-08 -0.26834939D-06
 -0.45517136D-06 -0.51819651D-06 -0.24586351D-06 -0.26843028D-06 -0.45530857D-06
 -0.51835271D-06 -0.24592220D-06 -0.41730727D-06 -0.70783211D-06 -0.80584184D-06
 -0.72777971D-05
MO    3     MO 0.0        OCC NO =    2.0000000  ORB. ENERGY =  -10.081396
  0.55929255D-04  0.10317855D-03  0.16656218D-03  0.21681447D-03  0.18500818D-03
  0.63878877D-04 -0.11202006D-03 -0.51629942D-04  0.14477575D-03 -0.11643390D-03
 -0.89274130D-04 -0.44554048D-04  0.45565117D-04  0.34936442D-04  0.17435733D-04
 -0.16686769D-07 -0.12794356D-07 -0.63852805D-08 -0.16143235D-02 -0.67169968D-03
  0.11556505D-03 -0.14570491D-07  0.13012317D-04  0.31292692D-04  0.57292026D-04
 -0.51310262D-05 -0.40983709D-08 -0.19687310D-07  0.24967594D-02  0.46060336D-02
  0.74355665D-02  0.96788982D-02  0.82590214D-02  0.28516416D-02  0.27099161D-03
  0.12489979D-03 -0.35023204D-03 -0.33006134D-03 -0.25307010D-03 -0.12629972D-03
 -0.19015245D-03 -0.14579684D-03 -0.72762840D-04 -0.17494005D-07 -0.13413293D-07
 -0.66941734D-08  0.26871542D-02  0.41925117D-03  0.12152418D-02  0.13752937D-07
 -0.53480341D-03 -0.24825662D-03 -0.39844541D-03  0.16622908D-03 -0.36209300D-07
  0.23406760D-07  0.53258926D+00  0.98252318D+00  0.15860971D+01  0.20646271D+01
  0.17617500D+01  0.60828995D+00 -0.19802113D-01 -0.91267756D-02  0.25592431D-01
  0.49278234D-03  0.37783424D-03  0.18856577D-03 -0.82909937D-03 -0.63570081D-03
 -0.31725926D-03  0.17856729D-06  0.13691407D-06  0.68329718D-07 -0.40969519D-02
  0.12882938D-02 -0.17004369D-02  0.13855812D-06 -0.96532775D-02 -0.95291644D-02
 -0.10313940D-01 -0.77373674D-03  0.27523070D-06 -0.28384785D-06  0.18871401D-02
  0.34814050D-02  0.56200671D-02  0.73156575D-02  0.62424638D-02  0.21553727D-02
  0.23076758D-03  0.10636057D-03 -0.29824613D-03  0.43979845D-03  0.33720956D-03
  0.16829120D-03  0.37525246D-03  0.28771979D-03  0.14359234D-03  0.79763751D-08
  0.61157785D-08  0.30522021D-08  0.23620179D-02 -0.15775846D-02 -0.66181729D-03
 -0.48880517D-07 -0.26090172D-03 -0.46470870D-03 -0.31084883D-03  0.69510894D-04
 -0.44047193D-08  0.43211887D-07  0.41716641D-04  0.76959057D-04  0.12423578D-03
  0.16171807D-03  0.13799432D-03  0.47646124D-04 -0.80526638D-04 -0.37114654D-04
  0.10407336D-03 -0.10423237D-03 -0.79918768D-04 -0.39885066D-04  0.17236654D-03
  0.13215973D-03  0.65956967D-04 -0.24635658D-08 -0.18889060D-08 -0.94269648D-09
 -0.15375944D-02  0.30040183D-03  0.69655312D-03  0.31917612D-07  0.58286784D-04
  0.16622944D-04  0.39145355D-04 -0.18306737D-04 -0.13468040D-07 -0.36756232D-07
 -0.78415152D-04 -0.14466064D-03 -0.23352713D-03 -0.30398294D-03 -0.25938919D-03
 -0.89560855D-04  0.14236771D-03  0.65617147D-04 -0.18399733D-03 -0.28821162D-04
 -0.22098239D-04 -0.11028570D-04  0.65756449D-04  0.50417875D-04  0.25162053D-04
 -0.22796039D-08 -0.17478557D-08 -0.87230249D-09  0.11660845D-02  0.48563990D-03
 -0.38641422D-03  0.42576542D-08  0.73698153D-05 -0.19532720D-04 -0.13780007D-03
  0.51118790D-04  0.11086231D-07  0.12379242D-07 -0.25867542D-04 -0.43876248D-04
 -0.49951557D-04 -0.20126741D-03 -0.15016095D-04 -0.27637631D-04 -0.44722903D-04
 -0.58789508D-04 -0.50423419D-04 -0.17240623D-04  0.30849546D-04  0.13765007D-04
 -0.40648251D-04  0.58427928D-04  0.45015569D-04  0.19764259D-04 -0.15448825D-04
 -0.11902487D-04 -0.52258328D-05 -0.94129870D-07 -0.72521991D-07 -0.31841060D-07
  0.40340142D-04  0.35266345D-04 -0.77034364D-05  0.16601377D-07 -0.72147476D-04
 -0.57013297D-04 -0.10194690D-03  0.70952671D-04  0.28551672D-07  0.52422315D-08
  0.14247889D-03  0.26223721D-03  0.42434930D-03  0.55781904D-03  0.47843815D-03
  0.16358613D-03 -0.77715716D-03 -0.34676601D-03  0.10240047D-02 -0.53497069D-04
 -0.41216608D-04 -0.18096311D-04 -0.73158400D-04 -0.56364603D-04 -0.24747097D-04
 -0.16084662D-06 -0.12392365D-06 -0.54409159D-07 -0.19989134D-02  0.58009253D-03
 -0.67021554D-03  0.21245710D-06  0.35288745D-03  0.16052724D-03  0.10643373D-02
  0.12016208D-02 -0.38132024D-06  0.38106141D-06  0.46471484D-04  0.78824433D-04
  0.89738831D-04  0.36277013D-03 -0.35336814D-04 -0.65189522D-04 -0.10523610D-03
 -0.13698614D-03 -0.11689052D-03 -0.40359487D-04  0.11158228D-03  0.51428171D-04
 -0.14420996D-03 -0.17581899D-03 -0.13480685D-03 -0.67278065D-04 -0.31512098D-04
 -0.24161478D-04 -0.12058271D-04 -0.49038042D-07 -0.37599260D-07 -0.18764666D-07
  0.87162809D-03 -0.30392863D-03 -0.32220858D-04  0.22036943D-07  0.11531133D-03
 -0.70259675D-05 -0.61972741D-04 -0.77732905D-05 -0.54611885D-07  0.52493633D-07
 -0.19159963D-04 -0.32498923D-04 -0.36998876D-04 -0.10477260D-04  0.46714857D-04
  0.79237240D-04  0.90208797D-04 -0.87417004D-04 -0.19156404D-04 -0.32492886D-04
 -0.36992002D-04 -0.10501164D-04  0.27695117D-04  0.46976160D-04  0.53480698D-04
  0.17623145D-03 -0.58174023D-04 -0.10731971D-03 -0.17324729D-03 -0.22551650D-03
 -0.19243364D-03 -0.66442710D-04  0.59356693D-04  0.27357446D-04 -0.76713133D-04
 -0.36780543D-04 -0.28200988D-04 -0.14074269D-04  0.42236013D-05  0.32383896D-05
  0.16161834D-05  0.13990529D-07  0.10727050D-07  0.53535500D-08 -0.38984057D-04
  0.16054124D-04 -0.68684177D-04 -0.21588989D-07  0.22645801D-04 -0.98540754D-04
 -0.42904645D-04 -0.53072561D-04  0.14156937D-07 -0.63483079D-07 -0.95857720D-05
 -0.16259284D-04 -0.18510620D-04 -0.18849848D-04 -0.95892057D-05 -0.16265108D-04
 -0.18517250D-04 -0.18846082D-04  0.14109211D-05  0.23931892D-05  0.27245613D-05
  0.29010536D-04
MO    4     MO 0.0        OCC NO =    2.0000000  ORB. ENERGY =  -10.067426
  0.37735033D-02  0.69613768D-02  0.11237821D-01  0.14628303D-01  0.12482358D-01
  0.43098582D-02 -0.49308919D-04 -0.22726436D-04  0.63727298D-04  0.30946407D-03
  0.23727742D-03  0.11841806D-03  0.14445824D-04  0.11076142D-04  0.55277709D-05
 -0.19861698D-07 -0.15228690D-07 -0.76001836D-08  0.84307573D-03 -0.43984203D-03
  0.56316083D-04 -0.36577451D-08 -0.48765397D-03 -0.23797276D-03 -0.23041969D-03
 -0.26098211D-04 -0.41879912D-09  0.10235075D-08  0.15323955D-04  0.28269704D-04
  0.45636068D-04  0.59404601D-04  0.50690053D-04  0.17502057D-04  0.13109868D-04
  0.60423264D-05 -0.16943314D-04  0.12730809D-03  0.97611766D-04  0.48715112D-04
  0.39239766D-04  0.30086564D-04  0.15015304D-04  0.45546481D-07  0.34922153D-07
  0.17428602D-07 -0.24531950D-03 -0.28172445D-03  0.56870457D-05 -0.39766439D-07
 -0.35368179D-04  0.13187666D-03 -0.38869100D-04 -0.10357034D-03  0.24037620D-07
 -0.10049400D-07  0.19867087D-04  0.36650895D-04  0.59165909D-04  0.77016434D-04
  0.65718263D-04  0.22690937D-04  0.74311073D-04  0.34249905D-04 -0.96040310D-04
  0.29169311D-04  0.22365177D-04  0.11161791D-04  0.35057295D-04  0.26879710D-04
  0.13414859D-04 -0.23511289D-07 -0.18026965D-07 -0.89967192D-08  0.34783493D-03
 -0.31246952D-03 -0.18002381D-04  0.93368529D-09  0.24895857D-04 -0.64552835D-04
 -0.87317454D-04  0.21052210D-04 -0.26010954D-08  0.47475193D-08 -0.51930115D-06
 -0.95800923D-06 -0.15465239D-05 -0.20131146D-05 -0.17177944D-05 -0.59311312D-06
 -0.17121100D-05 -0.78910993D-06  0.22127466D-05  0.17207795D-05  0.13193846D-05
  0.65846538D-06  0.16521899D-04  0.12667944D-04  0.63221920D-05  0.17047178D-07
  0.13070695D-07  0.65231928D-08 -0.12240608D-03  0.15001288D-03 -0.10828005D-03
 -0.15948295D-07 -0.33396224D-04  0.26292443D-04 -0.18480922D-04  0.60153651D-05
 -0.41455311D-10 -0.56619511D-08 -0.20293100D-04 -0.37436807D-04 -0.60434614D-04
 -0.78667911D-04 -0.67127471D-04 -0.23177502D-04  0.66596907D-04  0.30694454D-04
 -0.86070452D-04  0.13764557D-04  0.10553789D-04  0.52670805D-05  0.12946692D-04
  0.99267022D-05  0.49541201D-05 -0.22270300D-07 -0.17075453D-07 -0.85218479D-08
  0.35032368D-03 -0.36703888D-04 -0.15831889D-03  0.12955412D-07  0.40498107D-04
 -0.22897654D-05 -0.70560619D-04  0.28428177D-04 -0.20653402D-08 -0.85042349D-08
 -0.69055778D-05 -0.12739443D-04 -0.20565410D-04 -0.26770054D-04 -0.22842935D-04
 -0.78871167D-05  0.15927122D-04  0.73407962D-05 -0.20584359D-04  0.13042911D-03
  0.10000477D-03  0.49909390D-04  0.13038963D-04  0.99974495D-05  0.49894280D-05
  0.50375192D-07  0.38624502D-07  0.19276333D-07 -0.21130717D-03 -0.68120160D-04
  0.65717570D-04 -0.26996933D-07 -0.68984723D-04  0.63015555D-04 -0.61484817D-04
 -0.93257356D-04  0.19675234D-07  0.21550930D-07  0.27849771D-05  0.47238483D-05
  0.53779343D-05  0.54976758D-04 -0.60565409D-05 -0.11147268D-04 -0.18038384D-04
 -0.23711961D-04 -0.20337611D-04 -0.69537747D-05  0.19713562D-04  0.87961528D-05
 -0.25975157D-04  0.14751667D-04  0.11365364D-04  0.49900071D-05 -0.15538414D-04
 -0.11971511D-04 -0.52561380D-05 -0.55676535D-08 -0.42895769D-08 -0.18833553D-08
  0.47971358D-04 -0.10689962D-04  0.14918711D-04  0.86627193D-08 -0.20434521D-04
 -0.18424581D-04 -0.27207482D-04 -0.91984282D-05 -0.91807564D-08  0.20586423D-07
 -0.20437693D-04 -0.37616266D-04 -0.60870219D-04 -0.80015607D-04 -0.68628921D-04
 -0.23465394D-04  0.67945586D-04  0.30317188D-04 -0.89527063D-04  0.38619390D-04
  0.29754158D-04  0.13063678D-04 -0.43512922D-04 -0.33524361D-04 -0.14719000D-04
  0.42761927D-07  0.32945759D-07  0.14464963D-07  0.16609942D-03 -0.10766076D-05
  0.64687692D-04 -0.23669555D-07 -0.91775416D-04 -0.33253096D-04 -0.95587024D-04
  0.90178051D-05  0.10128848D-07 -0.31733951D-07 -0.17021184D-04 -0.28871149D-04
 -0.32868783D-04  0.53579424D-05 -0.14466153D-04 -0.26687228D-04 -0.43081461D-04
 -0.56079261D-04 -0.47852535D-04 -0.16522330D-04  0.18958442D-04  0.87379287D-05
 -0.24502064D-04  0.27785029D-04  0.21303798D-04  0.10632088D-04  0.31197229D-04
  0.23920056D-04  0.11937785D-04 -0.23488839D-08 -0.18009752D-08 -0.89881285D-09
 -0.32799882D-04 -0.91088482D-05  0.23847677D-04  0.19533604D-07 -0.11580756D-04
 -0.31938968D-04 -0.33925803D-04 -0.83082079D-05  0.13475563D-07 -0.20937854D-07
 -0.51578147D-06 -0.87486299D-06 -0.99600059D-06 -0.35378823D-05 -0.48468922D-05
 -0.82212465D-05 -0.93595986D-05  0.14289550D-04 -0.51594959D-06 -0.87514816D-06
 -0.99632524D-06 -0.35513997D-05 -0.87111452D-05 -0.14775751D-04 -0.16821670D-04
 -0.51002193D-04  0.53253785D+00  0.98242835D+00  0.15859440D+01  0.20644278D+01
  0.17615800D+01  0.60823124D+00 -0.20049594D-01 -0.92408396D-02  0.25912279D-01
 -0.11436741D-03 -0.87689676D-04 -0.43763294D-04 -0.96340532D-04 -0.73867810D-04
 -0.36865214D-04 -0.76417618D-07 -0.58592183D-07 -0.29241606D-07 -0.33686043D-02
 -0.19097277D-03 -0.30884353D-04  0.11962463D-07 -0.10287882D-01 -0.10151511D-01
 -0.10127951D-01 -0.12111952D-03 -0.60987799D-07 -0.97864506D-08 -0.15771950D-05
 -0.26752212D-05 -0.30456448D-05  0.50479829D-03 -0.15736051D-05 -0.26691320D-05