 Entering Link 1 = D:\Gaussian\G16W\l1.exe PID=      3236.
  
 Copyright (c) 1988,1990,1992,1993,1995,1998,2003,2009,2016,
            Gaussian, Inc.  All Rights Reserved.
  
 This is part of the Gaussian(R) 16 program.  It is based on
 the Gaussian(R) 09 system (copyright 2009, Gaussian, Inc.),
 the Gaussian(R) 03 system (copyright 2003, Gaussian, Inc.),
 the Gaussian(R) 98 system (copyright 1998, Gaussian, Inc.),
 the Gaussian(R) 94 system (copyright 1995, Gaussian, Inc.),
 the Gaussian 92(TM) system (copyright 1992, Gaussian, Inc.),
 the Gaussian 90(TM) system (copyright 1990, Gaussian, Inc.),
 the Gaussian 88(TM) system (copyright 1988, Gaussian, Inc.),
 the Gaussian 86(TM) system (copyright 1986, Carnegie Mellon
 University), and the Gaussian 82(TM) system (copyright 1983,
 Carnegie Mellon University). Gaussian is a federally registered
 trademark of Gaussian, Inc.
  
 This software contains proprietary and confidential information,
 including trade secrets, belonging to Gaussian, Inc.
  
 This software is provided under written license and may be
 used, copied, transmitted, or stored only in accord with that
 written license.
  
 The following legend is applicable only to US Government
 contracts under FAR:
  
                    RESTRICTED RIGHTS LEGEND
  
 Use, reproduction and disclosure by the US Government is
 subject to restrictions as set forth in subparagraphs (a)
 and (c) of the Commercial Computer Software - Restricted
 Rights clause in FAR 52.227-19.
  
 Gaussian, Inc.
 340 Quinnipiac St., Bldg. 40, Wallingford CT 06492
  
  
 ---------------------------------------------------------------
 Warning -- This program may not be used in any manner that
 competes with the business of Gaussian, Inc. or will provide
 assistance to any competitor of Gaussian, Inc.  The licensee
 of this program is prohibited from giving any competitor of
 Gaussian, Inc. access to this program.  By using this program,
 the user acknowledges that Gaussian, Inc. is engaged in the
 business of creating and licensing software in the field of
 computational chemistry and represents and warrants to the
 licensee that it is not a competitor of Gaussian, Inc. and that
 it will not use this program in any manner prohibited above.
 ---------------------------------------------------------------
  

 Cite this work as:
 Gaussian 16, Revision A.03,
 M. J. Frisch, G. W. Trucks, H. B. Schlegel, G. E. Scuseria, 
 M. A. Robb, J. R. Cheeseman, G. Scalmani, V. Barone, 
 G. A. Petersson, H. Nakatsuji, X. Li, M. Caricato, A. V. Marenich, 
 J. Bloino, B. G. Janesko, R. Gomperts, B. Mennucci, H. P. Hratchian, 
 J. V. Ortiz, A. F. Izmaylov, J. L. Sonnenberg, D. Williams-Young, 
 F. Ding, F. Lipparini, F. Egidi, J. Goings, B. Peng, A. Petrone, 
 T. Henderson, D. Ranasinghe, V. G. Zakrzewski, J. Gao, N. Rega, 
 G. Zheng, W. Liang, M. Hada, M. Ehara, K. Toyota, R. Fukuda, 
 J. Hasegawa, M. Ishida, T. Nakajima, Y. Honda, O. Kitao, H. Nakai, 
 T. Vreven, K. Throssell, J. A. Montgomery, Jr., J. E. Peralta, 
 F. Ogliaro, M. J. Bearpark, J. J. Heyd, E. N. Brothers, K. N. Kudin, 
 V. N. Staroverov, T. A. Keith, R. Kobayashi, J. Normand, 
 K. Raghavachari, A. P. Rendell, J. C. Burant, S. S. Iyengar, 
 J. Tomasi, M. Cossi, J. M. Millam, M. Klene, C. Adamo, R. Cammi, 
 J. W. Ochterski, R. L. Martin, K. Morokuma, O. Farkas, 
 J. B. Foresman, and D. J. Fox, Gaussian, Inc., Wallingford CT, 2016.
 
 ******************************************
 Gaussian 16:  EM64W-G16RevA.03 17-Dec-2016
                03-Dec-2025 
 ******************************************
 %nprocs=   4
 Will use up to    4 processors via shared memory.
 ------------------------------------
 #P B3LYP/6-31G* SCF=conver=7 out=wfn
 ------------------------------------
 1/38=1,172=1/1;
 2/12=2,17=6,18=5,40=1/2;
 3/5=1,6=6,7=1,11=2,25=1,30=1,74=-5/1,2,3;
 4//1;
 5/5=2,6=7,38=5/2;
 6/7=2,8=2,9=2,10=2,28=1/1;
 99/5=1,6=100,9=1/99;
 Leave Link    1 at Wed Dec 03 17:17:49 2025, MaxMem=           0 cpu:               0.0 elap:               0.1
 (Enter D:\Gaussian\G16W\l101.exe)
 ----------------------------------------------------
 Generated by Multiwfn (http://sobereva.com/multiwfn)
 ----------------------------------------------------
 Symbolic Z-matrix:
 Charge = -1 Multiplicity = 1
 C                    -1.95356  -0.01668  -0.00001 
 C                    -1.02227  -1.05027   0.00002 
 C                     0.35174  -0.78939   0.0001 
 C                     0.81461   0.5457    0.0001 
 C                    -0.13141   1.57621   0.00011 
 C                    -1.49145   1.30995   0.00005 
 H                     0.21295   2.6069    0.00011 
 O                     3.18987  -0.1326   -0.00074 
 O                     1.19731  -1.83976   0.00029 
 H                    -1.33741  -2.08796   0.00002 
 C                     2.28462   0.87424   0.0001 
 H                     2.52194   1.54511  -0.85775 
 H                     2.11315  -1.48478   0.00055 
 H                     2.52219   1.54378   0.85896 
 H                    -2.20351   2.1274    0.00003 
 C                    -3.43138  -0.32361  -0.00012 
 H                    -3.71199  -0.90886  -0.88101 
 H                    -3.71194  -0.9098    0.88016 
 H                    -4.02817   0.5902    0.00038 
 
 ITRead=  0  0  0  0  0  0  0  0  0  0  0  0  0  0  0  0  0  0  0
 MicOpt= -1 -1 -1 -1 -1 -1 -1 -1 -1 -1 -1 -1 -1 -1 -1 -1 -1 -1 -1
 NAtoms=     19 NQM=       19 NQMF=       0 NMMI=      0 NMMIF=      0
                NMic=       0 NMicF=      0.
                    Isotopes and Nuclear Properties:
 (Nuclear quadrupole moments (NQMom) in fm**2, nuclear magnetic moments (NMagM)
  in nuclear magnetons)

  Atom         1           2           3           4           5           6           7           8           9          10
 IAtWgt=          12          12          12          12          12          12           1          16          16           1
 AtmWgt=  12.0000000  12.0000000  12.0000000  12.0000000  12.0000000  12.0000000   1.0078250  15.9949146  15.9949146   1.0078250
 NucSpn=           0           0           0           0           0           0           1           0           0           1
 AtZEff=   0.0000000   0.0000000   0.0000000   0.0000000   0.0000000   0.0000000   0.0000000   0.0000000   0.0000000   0.0000000
 NQMom=    0.0000000   0.0000000   0.0000000   0.0000000   0.0000000   0.0000000   0.0000000   0.0000000   0.0000000   0.0000000
 NMagM=    0.0000000   0.0000000   0.0000000   0.0000000   0.0000000   0.0000000   2.7928460   0.0000000   0.0000000   2.7928460
 AtZNuc=   6.0000000   6.0000000   6.0000000   6.0000000   6.0000000   6.0000000   1.0000000   8.0000000   8.0000000   1.0000000

  Atom        11          12          13          14          15          16          17          18          19
 IAtWgt=          12           1           1           1           1          12           1           1           1
 AtmWgt=  12.0000000   1.0078250   1.0078250   1.0078250   1.0078250  12.0000000   1.0078250   1.0078250   1.0078250
 NucSpn=           0           1           1           1           1           0           1           1           1
 AtZEff=   0.0000000   0.0000000   0.0000000   0.0000000   0.0000000   0.0000000   0.0000000   0.0000000   0.0000000
 NQMom=    0.0000000   0.0000000   0.0000000   0.0000000   0.0000000   0.0000000   0.0000000   0.0000000   0.0000000
 NMagM=    0.0000000   2.7928460   2.7928460   2.7928460   2.7928460   0.0000000   2.7928460   2.7928460   2.7928460
 AtZNuc=   6.0000000   1.0000000   1.0000000   1.0000000   1.0000000   6.0000000   1.0000000   1.0000000   1.0000000
 Leave Link  101 at Wed Dec 03 17:17:49 2025, MaxMem=   104857600 cpu:               0.0 elap:               0.1
 (Enter D:\Gaussian\G16W\l202.exe)
                          Input orientation:                          
 ---------------------------------------------------------------------
 Center     Atomic      Atomic             Coordinates (Angstroms)
 Number     Number       Type             X           Y           Z
 ---------------------------------------------------------------------
      1          6           0       -1.953559   -0.016677   -0.000007
      2          6           0       -1.022267   -1.050271    0.000018
      3          6           0        0.351736   -0.789390    0.000095
      4          6           0        0.814607    0.545703    0.000103
      5          6           0       -0.131414    1.576206    0.000107
      6          6           0       -1.491448    1.309952    0.000053
      7          1           0        0.212945    2.606897    0.000107
      8          8           0        3.189874   -0.132602   -0.000742
      9          8           0        1.197307   -1.839762    0.000292
     10          1           0       -1.337410   -2.087957    0.000022
     11          6           0        2.284616    0.874241    0.000103
     12          1           0        2.521942    1.545110   -0.857752
     13          1           0        2.113149   -1.484781    0.000548
     14          1           0        2.522193    1.543781    0.858959
     15          1           0       -2.203513    2.127397    0.000033
     16          6           0       -3.431381   -0.323608   -0.000115
     17          1           0       -3.711989   -0.908859   -0.881008
     18          1           0       -3.711935   -0.909804    0.880162
     19          1           0       -4.028172    0.590196    0.000383
 ---------------------------------------------------------------------
                    Distance matrix (angstroms):
                    1          2          3          4          5
     1  C    0.000000
     2  C    1.391266   0.000000
     3  C    2.431352   1.398550   0.000000
     4  C    2.824715   2.433360   1.413054   0.000000
     5  C    2.420225   2.773446   2.414431   1.398890   0.000000
     6  C    1.404810   2.406405   2.793665   2.429396   1.385851
     7  H    3.402481   3.860133   3.399122   2.147212   1.086695
     8  O    5.144739   4.310945   2.913142   2.470221   3.735101
     9  O    3.640274   2.355802   1.348433   2.415968   3.665288
    10  H    2.160981   1.084485   2.130608   3.401080   3.857527
    11  C    4.330804   3.826124   2.550234   1.506275   2.515940
    12  H    4.817158   4.475845   3.300846   2.156321   2.788761
    13  H    4.323592   3.165380   1.893712   2.410203   3.795748
    14  H    4.817178   4.475498   3.300336   2.156303   2.789320
    15  H    2.158595   3.390120   3.877750   3.407463   2.144156
    16  C    1.509359   2.516321   3.811683   4.334065   3.807765
    17  H    2.159682   2.833868   4.159865   4.835512   4.446620
    18  H    2.159690   2.833496   4.159620   4.835554   4.446895
    19  H    2.161554   3.424412   4.592042   4.842983   4.019569
                    6          7          8          9         10
     6  C    0.000000
     7  H    2.141733   0.000000
     8  O    4.898545   4.045610   0.000000
     9  O    4.141268   4.554311   2.623875   0.000000
    10  H    3.401399   4.944214   4.931502   2.546839   0.000000
    11  C    3.801119   2.700725   1.353967   2.923705   4.679069
    12  H    4.110770   2.682309   1.998829   3.734736   5.369316
    13  H    4.561102   4.511386   1.728504   0.982231   3.502882
    14  H    4.111169   2.683369   1.998786   3.733764   5.368783
    15  H    1.084091   2.463573   5.847753   5.225316   4.303411
    16  C    2.536111   4.676427   6.624009   4.870675   2.738182
    17  H    3.260398   5.342472   7.000940   5.073900   2.793763
    18  H    3.260747   5.342880   7.001072   5.073426   2.793038
    19  H    2.636857   4.696185   7.254145   5.762840   3.796407
                   11         12         13         14         15
    11  C    0.000000
    12  H    1.114587   0.000000
    13  H    2.365245   3.175536   0.000000
    14  H    1.114612   1.716712   3.174331   0.000000
    15  H    4.659796   4.837849   5.628623   4.838456   0.000000
    16  C    5.840160   6.298389   5.664816   6.298428   2.741366
    17  H    6.317838   6.699582   5.919549   6.921557   3.502939
    18  H    6.317907   6.921573   5.919115   6.699618   3.503506
    19  H    6.319175   6.674747   6.482388   6.674860   2.385868
                   16         17         18         19
    16  C    0.000000
    17  H    1.094181   0.000000
    18  H    1.094177   1.761170   0.000000
    19  H    1.091420   1.767481   1.767489   0.000000
 Stoichiometry    C8H9O2(1-)
 Framework group  C1[X(C8H9O2)]
 Deg. of freedom    51
 Full point group                 C1      NOp   1
 Largest Abelian subgroup         C1      NOp   1
 Largest concise Abelian subgroup C1      NOp   1
                         Standard orientation:                         
 ---------------------------------------------------------------------
 Center     Atomic      Atomic             Coordinates (Angstroms)
 Number     Number       Type             X           Y           Z
 ---------------------------------------------------------------------
      1          6           0       -1.953559   -0.016677   -0.000007
      2          6           0       -1.022267   -1.050271    0.000018
      3          6           0        0.351736   -0.789390    0.000095
      4          6           0        0.814607    0.545703    0.000103
      5          6           0       -0.131414    1.576206    0.000107
      6          6           0       -1.491448    1.309952    0.000053
      7          1           0        0.212945    2.606897    0.000107
      8          8           0        3.189874   -0.132602   -0.000742
      9          8           0        1.197307   -1.839762    0.000292
     10          1           0       -1.337410   -2.087957    0.000022
     11          6           0        2.284616    0.874241    0.000103
     12          1           0        2.521942    1.545110   -0.857752
     13          1           0        2.113149   -1.484781    0.000548
     14          1           0        2.522193    1.543781    0.858959
     15          1           0       -2.203513    2.127397    0.000033
     16          6           0       -3.431381   -0.323608   -0.000115
     17          1           0       -3.711989   -0.908859   -0.881008
     18          1           0       -3.711935   -0.909804    0.880162
     19          1           0       -4.028172    0.590196    0.000383
 ---------------------------------------------------------------------
 Rotational constants (GHZ):           3.0219617           0.9101677           0.7054440
 Leave Link  202 at Wed Dec 03 17:17:49 2025, MaxMem=   104857600 cpu:               0.0 elap:               0.1
 (Enter D:\Gaussian\G16W\l301.exe)
 Standard basis: 6-31G(d) (6D, 7F)
 Ernie: Thresh=  0.10000D-02 Tol=  0.10000D-05 Strict=F.
 There are   168 symmetry adapted cartesian basis functions of A   symmetry.
 There are   168 symmetry adapted basis functions of A   symmetry.
   168 basis functions,   316 primitive gaussians,   168 cartesian basis functions
    37 alpha electrons       37 beta electrons
       nuclear repulsion energy       501.8086437745 Hartrees.
 IExCor=  402 DFT=T Ex+Corr=B3LYP ExCW=0 ScaHFX=  0.200000
 ScaDFX=  0.800000  0.720000  1.000000  0.810000 ScalE2=  1.000000  1.000000
 IRadAn=      5 IRanWt=     -1 IRanGd=            0 ICorTp=0 IEmpDi=  4
 NAtoms=   19 NActive=   19 NUniq=   19 SFac= 1.00D+00 NAtFMM=   60 NAOKFM=F Big=F
 Integral buffers will be    131072 words long.
 Raffenetti 2 integral format.
 Two-electron integral symmetry is turned on.
 Leave Link  301 at Wed Dec 03 17:17:50 2025, MaxMem=   104857600 cpu:               0.0 elap:               0.1
 (Enter D:\Gaussian\G16W\l302.exe)
 NPDir=0 NMtPBC=     1 NCelOv=     1 NCel=       1 NClECP=     1 NCelD=      1
         NCelK=      1 NCelE2=     1 NClLst=     1 CellRange=     0.0.
 One-electron integrals computed using PRISM.
 One-electron integral symmetry used in STVInt
 NBasis=   168 RedAO= T EigKep=  3.91D-04  NBF=   168
 NBsUse=   168 1.00D-06 EigRej= -1.00D+00 NBFU=   168
 Precomputing XC quadrature grid using
 IXCGrd= 4 IRadAn=           5 IRanWt=          -1 IRanGd=           0 AccXCQ= 0.00D+00.
 Generated NRdTot=       0 NPtTot=           0 NUsed=           0 NTot=          32
 NSgBfM=   168   168   168   168   168 MxSgAt=    19 MxSgA2=    19.
 Leave Link  302 at Wed Dec 03 17:17:50 2025, MaxMem=   104857600 cpu:               0.0 elap:               0.4
 (Enter D:\Gaussian\G16W\l303.exe)
 DipDrv:  MaxL=1.
 Leave Link  303 at Wed Dec 03 17:17:50 2025, MaxMem=   104857600 cpu:               0.0 elap:               0.1
 (Enter D:\Gaussian\G16W\l401.exe)
 ExpMin= 1.61D-01 ExpMax= 5.48D+03 ExpMxC= 8.25D+02 IAcc=3 IRadAn=         5 AccDes= 0.00D+00
 Harris functional with IExCor=  402 and IRadAn=       5 diagonalized for initial guess.
 HarFok:  IExCor=  402 AccDes= 0.00D+00 IRadAn=         5 IDoV= 1 UseB2=F ITyADJ=14
 ICtDFT=  3500011 ScaDFX=  1.000000  1.000000  1.000000  1.000000
 FoFCou: FMM=F IPFlag=           0 FMFlag=      100000 FMFlg1=           0
         NFxFlg=           0 DoJE=T BraDBF=F KetDBF=T FulRan=T
         wScrn=  0.000000 ICntrl=       500 IOpCl=  0 I1Cent=   200000004 NGrid=           0
         NMat0=    1 NMatS0=      1 NMatT0=    0 NMatD0=    1 NMtDS0=    0 NMtDT0=    0
 Petite list used in FoFCou.
 Harris En= -460.957330250777    
 JPrj=0 DoOrth=F DoCkMO=F.
 Leave Link  401 at Wed Dec 03 17:17:51 2025, MaxMem=   104857600 cpu:               1.0 elap:               1.1
 (Enter D:\Gaussian\G16W\l502.exe)
 Keep R1 ints in memory in canonical form, NReq=104755543.
 FoFCou: FMM=F IPFlag=           0 FMFlag=           0 FMFlg1=           0
         NFxFlg=           0 DoJE=F BraDBF=F KetDBF=F FulRan=T
         wScrn=  0.000000 ICntrl=       600 IOpCl=  0 I1Cent=           0 NGrid=           0
         NMat0=    1 NMatS0=  14196 NMatT0=    0 NMatD0=    1 NMtDS0=    0 NMtDT0=    0
 Symmetry not used in FoFCou.
 Two-electron integral symmetry not used.
 Closed shell SCF:
 Using DIIS extrapolation, IDIIS=  1040.
 NGot=   104857600 LenX=     4027843 LenY=     3999178
 Requested convergence on RMS density matrix=1.00D-07 within 128 cycles.
 Requested convergence on MAX density matrix=1.00D-05.
 Requested convergence on             energy=1.00D-05.
 No special actions if energy rises.
 Integral accuracy reduced to 1.0D-05 until final iterations.

 Cycle   1  Pass 0  IDiag  1:
 CalDSu:  requested number of processors reduced to:   3 ShMem   1 Linda.
 E= -460.346118855935    
 DIIS: error= 4.44D-02 at cycle   1 NSaved=   1.
 NSaved= 1 IEnMin= 1 EnMin= -460.346118855935     IErMin= 1 ErrMin= 4.44D-02
 ErrMax= 4.44D-02  0.00D+00 EMaxC= 1.00D-01 BMatC= 3.71D-01 BMatP= 3.71D-01
 IDIUse=3 WtCom= 5.56D-01 WtEn= 4.44D-01
 Coeff-Com:  0.100D+01
 Coeff-En:   0.100D+01
 Coeff:      0.100D+01
 Gap=     0.139 Goal=   None    Shift=    0.000
 GapD=    0.139 DampG=1.000 DampE=0.500 DampFc=0.5000 IDamp=-1.
 Damping current iteration by 5.00D-01
 RMSDP=2.24D-02 MaxDP=4.69D-01              OVMax= 9.38D-01

 Cycle   2  Pass 0  IDiag  1:
 CalDSu:  requested number of processors reduced to:   3 ShMem   1 Linda.
 E= -460.113526479781     Delta-E=        0.232592376153 Rises=F Damp=T
 DIIS: error= 3.50D-02 at cycle   2 NSaved=   2.
 NSaved= 2 IEnMin= 1 EnMin= -460.346118855935     IErMin= 2 ErrMin= 3.50D-02
 ErrMax= 3.50D-02  0.00D+00 EMaxC= 1.00D-01 BMatC= 1.92D-01 BMatP= 3.71D-01
 IDIUse=3 WtCom= 6.50D-01 WtEn= 3.50D-01
 Coeff-Com:  0.378D+00 0.622D+00
 Coeff-En:   0.681D+00 0.319D+00
 Coeff:      0.484D+00 0.516D+00
 Gap=     0.066 Goal=   None    Shift=    0.000
 RMSDP=1.02D-02 MaxDP=1.88D-01 DE= 2.33D-01 OVMax= 6.23D-01

 Cycle   3  Pass 0  IDiag  1:
 CalDSu:  requested number of processors reduced to:   3 ShMem   1 Linda.
 E= -460.525263305690     Delta-E=       -0.411736825909 Rises=F Damp=F
 DIIS: error= 2.19D-02 at cycle   3 NSaved=   3.
 NSaved= 3 IEnMin= 3 EnMin= -460.525263305690     IErMin= 3 ErrMin= 2.19D-02
 ErrMax= 2.19D-02  0.00D+00 EMaxC= 1.00D-01 BMatC= 1.81D-01 BMatP= 1.92D-01
 IDIUse=3 WtCom= 7.81D-01 WtEn= 2.19D-01
 EnCoef did     1 forward-backward iterations
 Coeff-Com:  0.181D+00 0.414D+00 0.405D+00
 Coeff-En:   0.162D+00 0.140D+00 0.699D+00
 Coeff:      0.177D+00 0.354D+00 0.469D+00
 Gap=     0.201 Goal=   None    Shift=    0.000
 RMSDP=3.59D-03 MaxDP=7.46D-02 DE=-4.12D-01 OVMax= 9.71D-02

 Cycle   4  Pass 0  IDiag  1:
 CalDSu:  requested number of processors reduced to:   3 ShMem   1 Linda.
 E= -460.705255651680     Delta-E=       -0.179992345990 Rises=F Damp=F
 DIIS: error= 4.04D-03 at cycle   4 NSaved=   4.
 NSaved= 4 IEnMin= 4 EnMin= -460.705255651680     IErMin= 4 ErrMin= 4.04D-03
 ErrMax= 4.04D-03  0.00D+00 EMaxC= 1.00D-01 BMatC= 7.02D-03 BMatP= 1.81D-01
 IDIUse=3 WtCom= 9.60D-01 WtEn= 4.04D-02
 Coeff-Com: -0.175D-01 0.144D+00 0.913D-01 0.782D+00
 Coeff-En:   0.000D+00 0.000D+00 0.000D+00 0.100D+01
 Coeff:     -0.168D-01 0.139D+00 0.877D-01 0.791D+00
 Gap=     0.134 Goal=   None    Shift=    0.000
 RMSDP=9.00D-04 MaxDP=1.96D-02 DE=-1.80D-01 OVMax= 3.76D-02

 Cycle   5  Pass 0  IDiag  1:
 CalDSu:  requested number of processors reduced to:   3 ShMem   1 Linda.
 E= -460.707086705640     Delta-E=       -0.001831053960 Rises=F Damp=F
 DIIS: error= 7.57D-03 at cycle   5 NSaved=   5.
 NSaved= 5 IEnMin= 5 EnMin= -460.707086705640     IErMin= 4 ErrMin= 4.04D-03
 ErrMax= 7.57D-03  0.00D+00 EMaxC= 1.00D-01 BMatC= 5.40D-03 BMatP= 7.02D-03
 IDIUse=3 WtCom= 9.24D-01 WtEn= 7.57D-02
 Coeff-Com: -0.465D-01 0.594D-01-0.267D-01 0.512D+00 0.502D+00
 Coeff-En:   0.000D+00 0.000D+00 0.000D+00 0.398D+00 0.602D+00
 Coeff:     -0.430D-01 0.549D-01-0.247D-01 0.503D+00 0.510D+00
 Gap=     0.119 Goal=   None    Shift=    0.000
 RMSDP=6.75D-04 MaxDP=1.28D-02 DE=-1.83D-03 OVMax= 3.97D-02

 Cycle   6  Pass 0  IDiag  1:
 CalDSu:  requested number of processors reduced to:   3 ShMem   1 Linda.
 E= -460.712793028971     Delta-E=       -0.005706323331 Rises=F Damp=F
 DIIS: error= 1.67D-03 at cycle   6 NSaved=   6.
 NSaved= 6 IEnMin= 6 EnMin= -460.712793028971     IErMin= 6 ErrMin= 1.67D-03
 ErrMax= 1.67D-03  0.00D+00 EMaxC= 1.00D-01 BMatC= 4.60D-04 BMatP= 5.40D-03
 IDIUse=3 WtCom= 9.83D-01 WtEn= 1.67D-02
 Coeff-Com: -0.182D-01 0.116D-01-0.382D-01 0.468D-01 0.259D+00 0.739D+00
 Coeff-En:   0.000D+00 0.000D+00 0.000D+00 0.000D+00 0.000D+00 0.100D+01
 Coeff:     -0.179D-01 0.114D-01-0.376D-01 0.460D-01 0.255D+00 0.743D+00
 Gap=     0.120 Goal=   None    Shift=    0.000
 RMSDP=1.95D-04 MaxDP=4.31D-03 DE=-5.71D-03 OVMax= 7.93D-03

 Cycle   7  Pass 0  IDiag  1:
 CalDSu:  requested number of processors reduced to:   3 ShMem   1 Linda.
 E= -460.713210856707     Delta-E=       -0.000417827736 Rises=F Damp=F
 DIIS: error= 4.90D-04 at cycle   7 NSaved=   7.
 NSaved= 7 IEnMin= 7 EnMin= -460.713210856707     IErMin= 7 ErrMin= 4.90D-04
 ErrMax= 4.90D-04  0.00D+00 EMaxC= 1.00D-01 BMatC= 4.24D-05 BMatP= 4.60D-04
 IDIUse=3 WtCom= 9.95D-01 WtEn= 4.90D-03
 Coeff-Com: -0.634D-02 0.354D-02-0.181D-01-0.127D-01 0.868D-01 0.380D+00
 Coeff-Com:  0.566D+00
 Coeff-En:   0.000D+00 0.000D+00 0.000D+00 0.000D+00 0.000D+00 0.000D+00
 Coeff-En:   0.100D+01
 Coeff:     -0.631D-02 0.352D-02-0.180D-01-0.127D-01 0.864D-01 0.379D+00
 Coeff:      0.569D+00
 Gap=     0.119 Goal=   None    Shift=    0.000
 RMSDP=5.32D-05 MaxDP=1.26D-03 DE=-4.18D-04 OVMax= 2.53D-03

 Cycle   8  Pass 0  IDiag  1:
 CalDSu:  requested number of processors reduced to:   3 ShMem   1 Linda.
 E= -460.713253459875     Delta-E=       -0.000042603168 Rises=F Damp=F
 DIIS: error= 1.19D-04 at cycle   8 NSaved=   8.
 NSaved= 8 IEnMin= 8 EnMin= -460.713253459875     IErMin= 8 ErrMin= 1.19D-04
 ErrMax= 1.19D-04  0.00D+00 EMaxC= 1.00D-01 BMatC= 5.00D-06 BMatP= 4.24D-05
 IDIUse=3 WtCom= 9.99D-01 WtEn= 1.19D-03
 Coeff-Com: -0.605D-03 0.447D-03-0.361D-02-0.141D-01-0.989D-03 0.668D-01
 Coeff-Com:  0.280D+00 0.672D+00
 Coeff-En:   0.000D+00 0.000D+00 0.000D+00 0.000D+00 0.000D+00 0.000D+00
 Coeff-En:   0.000D+00 0.100D+01
 Coeff:     -0.605D-03 0.446D-03-0.360D-02-0.141D-01-0.988D-03 0.667D-01
 Coeff:      0.279D+00 0.673D+00
 Gap=     0.119 Goal=   None    Shift=    0.000
 RMSDP=1.79D-05 MaxDP=2.84D-04 DE=-4.26D-05 OVMax= 5.37D-04

 Cycle   9  Pass 0  IDiag  1:
 CalDSu:  requested number of processors reduced to:   3 ShMem   1 Linda.
 E= -460.713257691142     Delta-E=       -0.000004231267 Rises=F Damp=F
 DIIS: error= 3.13D-05 at cycle   9 NSaved=   9.
 NSaved= 9 IEnMin= 9 EnMin= -460.713257691142     IErMin= 9 ErrMin= 3.13D-05
 ErrMax= 3.13D-05  0.00D+00 EMaxC= 1.00D-01 BMatC= 1.82D-07 BMatP= 5.00D-06
 IDIUse=1 WtCom= 1.00D+00 WtEn= 0.00D+00
 Coeff-Com: -0.359D-04 0.107D-03-0.721D-03-0.510D-02-0.479D-02 0.836D-02
 Coeff-Com:  0.904D-01 0.274D+00 0.638D+00
 Coeff:     -0.359D-04 0.107D-03-0.721D-03-0.510D-02-0.479D-02 0.836D-02
 Coeff:      0.904D-01 0.274D+00 0.638D+00
 Gap=     0.119 Goal=   None    Shift=    0.000
 RMSDP=4.17D-06 MaxDP=1.45D-04 DE=-4.23D-06 OVMax= 2.23D-04

 Initial convergence to 1.0D-05 achieved.  Increase integral accuracy.
 Cycle  10  Pass 1  IDiag  1:
 CalDSu:  requested number of processors reduced to:   3 ShMem   1 Linda.
 E= -460.713257676440     Delta-E=        0.000000014703 Rises=F Damp=F
 DIIS: error= 1.78D-05 at cycle   1 NSaved=   1.
 NSaved= 1 IEnMin= 1 EnMin= -460.713257676440     IErMin= 1 ErrMin= 1.78D-05
 ErrMax= 1.78D-05  0.00D+00 EMaxC= 1.00D-01 BMatC= 6.04D-08 BMatP= 6.04D-08
 IDIUse=1 WtCom= 1.00D+00 WtEn= 0.00D+00
 Coeff-Com:  0.100D+01
 Coeff:      0.100D+01
 Gap=     0.119 Goal=   None    Shift=    0.000
 RMSDP=4.17D-06 MaxDP=1.45D-04 DE= 1.47D-08 OVMax= 2.71D-04

 Cycle  11  Pass 1  IDiag  1:
 CalDSu:  requested number of processors reduced to:   3 ShMem   1 Linda.
 E= -460.713257550669     Delta-E=        0.000000125770 Rises=F Damp=F
 DIIS: error= 3.58D-05 at cycle   2 NSaved=   2.
 NSaved= 2 IEnMin= 1 EnMin= -460.713257676440     IErMin= 1 ErrMin= 1.78D-05
 ErrMax= 3.58D-05  0.00D+00 EMaxC= 1.00D-01 BMatC= 1.94D-07 BMatP= 6.04D-08
 IDIUse=1 WtCom= 1.00D+00 WtEn= 0.00D+00
 Coeff-Com:  0.643D+00 0.357D+00
 Coeff:      0.643D+00 0.357D+00
 Gap=     0.119 Goal=   None    Shift=    0.000
 RMSDP=2.97D-06 MaxDP=9.39D-05 DE= 1.26D-07 OVMax= 1.74D-04

 Cycle  12  Pass 1  IDiag  1:
 CalDSu:  requested number of processors reduced to:   3 ShMem   1 Linda.
 E= -460.713257738056     Delta-E=       -0.000000187387 Rises=F Damp=F
 DIIS: error= 2.47D-06 at cycle   3 NSaved=   3.
 NSaved= 3 IEnMin= 3 EnMin= -460.713257738056     IErMin= 3 ErrMin= 2.47D-06
 ErrMax= 2.47D-06  0.00D+00 EMaxC= 1.00D-01 BMatC= 1.01D-09 BMatP= 6.04D-08
 IDIUse=1 WtCom= 1.00D+00 WtEn= 0.00D+00
 Coeff-Com:  0.274D+00 0.161D+00 0.565D+00
 Coeff:      0.274D+00 0.161D+00 0.565D+00
 Gap=     0.119 Goal=   None    Shift=    0.000
 RMSDP=3.38D-07 MaxDP=6.46D-06 DE=-1.87D-07 OVMax= 1.79D-05

 Cycle  13  Pass 1  IDiag  1:
 CalDSu:  requested number of processors reduced to:   3 ShMem   1 Linda.
 E= -460.713257738895     Delta-E=       -0.000000000839 Rises=F Damp=F
 DIIS: error= 8.85D-07 at cycle   4 NSaved=   4.
 NSaved= 4 IEnMin= 4 EnMin= -460.713257738895     IErMin= 4 ErrMin= 8.85D-07
 ErrMax= 8.85D-07  0.00D+00 EMaxC= 1.00D-01 BMatC= 2.60D-10 BMatP= 1.01D-09
 IDIUse=1 WtCom= 1.00D+00 WtEn= 0.00D+00
 Coeff-Com:  0.250D-01 0.183D-01 0.336D+00 0.621D+00
 Coeff:      0.250D-01 0.183D-01 0.336D+00 0.621D+00
 Gap=     0.119 Goal=   None    Shift=    0.000
 RMSDP=1.44D-07 MaxDP=3.51D-06 DE=-8.39D-10 OVMax= 8.15D-06

 Cycle  14  Pass 1  IDiag  1:
 CalDSu:  requested number of processors reduced to:   3 ShMem   1 Linda.
 E= -460.713257739159     Delta-E=       -0.000000000264 Rises=F Damp=F
 DIIS: error= 3.81D-07 at cycle   5 NSaved=   5.
 NSaved= 5 IEnMin= 5 EnMin= -460.713257739159     IErMin= 5 ErrMin= 3.81D-07
 ErrMax= 3.81D-07  0.00D+00 EMaxC= 1.00D-01 BMatC= 2.57D-11 BMatP= 2.60D-10
 IDIUse=1 WtCom= 1.00D+00 WtEn= 0.00D+00
 Coeff-Com: -0.826D-02-0.267D-02 0.141D+00 0.343D+00 0.526D+00
 Coeff:     -0.826D-02-0.267D-02 0.141D+00 0.343D+00 0.526D+00
 Gap=     0.119 Goal=   None    Shift=    0.000
 RMSDP=3.85D-08 MaxDP=8.81D-07 DE=-2.64D-10 OVMax= 1.65D-06

 SCF Done:  E(RB3LYP) =  -460.713257739     A.U. after   14 cycles
            NFock= 14  Conv=0.38D-07     -V/T= 2.0086
 KE= 4.567939176892D+02 PE=-2.090422357857D+03 EE= 6.711065386540D+02
 Leave Link  502 at Wed Dec 03 17:18:08 2025, MaxMem=   104857600 cpu:              17.0 elap:              16.9
 (Enter D:\Gaussian\G16W\l601.exe)
 Copying SCF densities to generalized density rwf, IOpCl= 0 IROHF=0.

 **********************************************************************

            Population analysis using the SCF density.

 **********************************************************************

 Orbital symmetries:
       Occupied  (A) (A) (A) (A) (A) (A) (A) (A) (A) (A) (A) (A)
                 (A) (A) (A) (A) (A) (A) (A) (A) (A) (A) (A) (A)
                 (A) (A) (A) (A) (A) (A) (A) (A) (A) (A) (A) (A)
                 (A)
       Virtual   (A) (A) (A) (A) (A) (A) (A) (A) (A) (A) (A) (A)
                 (A) (A) (A) (A) (A) (A) (A) (A) (A) (A) (A) (A)
                 (A) (A) (A) (A) (A) (A) (A) (A) (A) (A) (A) (A)
                 (A) (A) (A) (A) (A) (A) (A) (A) (A) (A) (A) (A)
                 (A) (A) (A) (A) (A) (A) (A) (A) (A) (A) (A) (A)
                 (A) (A) (A) (A) (A) (A) (A) (A) (A) (A) (A) (A)
                 (A) (A) (A) (A) (A) (A) (A) (A) (A) (A) (A) (A)
                 (A) (A) (A) (A) (A) (A) (A) (A) (A) (A) (A) (A)
                 (A) (A) (A) (A) (A) (A) (A) (A) (A) (A) (A) (A)
                 (A) (A) (A) (A) (A) (A) (A) (A) (A) (A) (A) (A)
                 (A) (A) (A) (A) (A) (A) (A) (A) (A) (A) (A)
 The electronic state is 1-A.
 Alpha  occ. eigenvalues --  -18.97620 -18.82325 -10.08140 -10.06743 -10.05039
 Alpha  occ. eigenvalues --  -10.03374 -10.03271 -10.02767 -10.01869 -10.01746
 Alpha  occ. eigenvalues --   -0.86972  -0.70822  -0.69632  -0.62646  -0.58262
 Alpha  occ. eigenvalues --   -0.55074  -0.45476  -0.44777  -0.41818  -0.34125
 Alpha  occ. eigenvalues --   -0.33436  -0.31580  -0.30178  -0.28339  -0.26289
 Alpha  occ. eigenvalues --   -0.24855  -0.24310  -0.22023  -0.20812  -0.20340
 Alpha  occ. eigenvalues --   -0.17583  -0.16648  -0.12992  -0.08678  -0.05181
 Alpha  occ. eigenvalues --    0.00915   0.03006
 Alpha virt. eigenvalues --    0.14902   0.17400   0.21943   0.24485   0.27208
 Alpha virt. eigenvalues --    0.27446   0.28430   0.31033   0.31371   0.32715
 Alpha virt. eigenvalues --    0.35157   0.37463   0.39217   0.39849   0.44704
 Alpha virt. eigenvalues --    0.46695   0.49478   0.51670   0.52940   0.54677
 Alpha virt. eigenvalues --    0.62491   0.64663   0.65292   0.68344   0.69608
 Alpha virt. eigenvalues --    0.70913   0.72519   0.74895   0.75423   0.75671
 Alpha virt. eigenvalues --    0.78159   0.78215   0.82080   0.82686   0.83799
 Alpha virt. eigenvalues --    0.86361   0.86536   0.88537   0.90790   0.91488
 Alpha virt. eigenvalues --    0.91554   0.97268   0.97305   1.00172   1.00194
 Alpha virt. eigenvalues --    1.01719   1.03497   1.03813   1.06871   1.10544
 Alpha virt. eigenvalues --    1.10784   1.11036   1.15991   1.16332   1.19318
 Alpha virt. eigenvalues --    1.22717   1.24963   1.26900   1.29760   1.31897
 Alpha virt. eigenvalues --    1.34482   1.39620   1.40520   1.42276   1.44913
 Alpha virt. eigenvalues --    1.51986   1.52816   1.55135   1.57343   1.59025
 Alpha virt. eigenvalues --    1.60224   1.62574   1.64870   1.65228   1.83119
 Alpha virt. eigenvalues --    1.90258   1.90375   1.93038   1.93650   1.97192
 Alpha virt. eigenvalues --    1.98105   1.99445   2.01545   2.03841   2.05180
 Alpha virt. eigenvalues --    2.06323   2.07100   2.10460   2.13981   2.16688
 Alpha virt. eigenvalues --    2.19196   2.24300   2.26677   2.27096   2.27630
 Alpha virt. eigenvalues --    2.32977   2.41703   2.42004   2.43974   2.46120
 Alpha virt. eigenvalues --    2.47474   2.51226   2.52989   2.53203   2.56115
 Alpha virt. eigenvalues --    2.66106   2.66457   2.69317   2.74724   2.78726
 Alpha virt. eigenvalues --    2.83239   2.83342   2.92301   2.96613   3.01081
 Alpha virt. eigenvalues --    3.02932   3.05758   3.14723   3.20247   3.36962
 Alpha virt. eigenvalues --    3.58912   4.16175   4.18470   4.24603   4.28229
 Alpha virt. eigenvalues --    4.36196   4.38608   4.47377   4.61602   4.63507
 Alpha virt. eigenvalues --    4.94881
          Condensed to atoms (all electrons):
               1          2          3          4          5          6
     1  C    4.644397   0.528905   0.004168  -0.034737  -0.021978   0.556956
     2  C    0.528905   5.169393   0.470587  -0.058472  -0.055092  -0.029706
     3  C    0.004168   0.470587   4.631355   0.468906  -0.016369  -0.051378
     4  C   -0.034737  -0.058472   0.468906   5.229033   0.413461  -0.018088
     5  C   -0.021978  -0.055092  -0.016369   0.413461   5.106562   0.480254
     6  C    0.556956  -0.029706  -0.051378  -0.018088   0.480254   5.026873
     7  H    0.004212   0.000994   0.003323  -0.056065   0.348688  -0.053951
     8  O   -0.000029   0.000376  -0.007034  -0.052858   0.003499  -0.000041
     9  O    0.002579  -0.061033   0.327942  -0.057843   0.004948   0.000340
    10  H   -0.065303   0.325277  -0.035527   0.010054   0.000404   0.006196
    11  C   -0.000234   0.009295  -0.056472   0.235186  -0.043235   0.005456
    12  H    0.000019  -0.000185  -0.003346  -0.078950   0.003929  -0.000102
    13  H   -0.000215   0.003713  -0.030711  -0.016254   0.001713  -0.000005
    14  H    0.000019  -0.000184  -0.003389  -0.078981   0.003958  -0.000104
    15  H   -0.047688   0.007311   0.000219   0.003853  -0.051890   0.338971
    16  C    0.335675  -0.076729   0.006727   0.000161   0.008685  -0.057045
    17  H   -0.028330  -0.001747  -0.000031   0.000035  -0.000167   0.000356
    18  H   -0.028327  -0.001748  -0.000031   0.000035  -0.000167   0.000362
    19  H   -0.026726   0.003758  -0.000157   0.000031  -0.000064  -0.003185
               7          8          9         10         11         12
     1  C    0.004212  -0.000029   0.002579  -0.065303  -0.000234   0.000019
     2  C    0.000994   0.000376  -0.061033   0.325277   0.009295  -0.000185
     3  C    0.003323  -0.007034   0.327942  -0.035527  -0.056472  -0.003346
     4  C   -0.056065  -0.052858  -0.057843   0.010054   0.235186  -0.078950
     5  C    0.348688   0.003499   0.004948   0.000404  -0.043235   0.003929
     6  C   -0.053951  -0.000041   0.000340   0.006196   0.005456  -0.000102
     7  H    0.674261   0.000100  -0.000070   0.000032  -0.004345   0.005138
     8  O    0.000100   8.474947  -0.051544   0.000020   0.377342  -0.068009
     9  O   -0.000070  -0.051544   8.400836   0.001725  -0.008498  -0.000561
    10  H    0.000032   0.000020   0.001725   0.689567  -0.000097   0.000006
    11  C   -0.004345   0.377342  -0.008498  -0.000097   4.882466   0.302423
    12  H    0.005138  -0.068009  -0.000561   0.000006   0.302423   0.929389
    13  H    0.000053   0.150875   0.133867   0.000377  -0.019224   0.004038
    14  H    0.005120  -0.068017  -0.000559   0.000006   0.302367  -0.107830
    15  H   -0.005790   0.000001   0.000003  -0.000183  -0.000074   0.000007
    16  C   -0.000263   0.000000  -0.000071  -0.011257  -0.000002   0.000000
    17  H    0.000004   0.000000  -0.000001   0.002447   0.000000   0.000000
    18  H    0.000004   0.000000  -0.000001   0.002453   0.000000   0.000000
    19  H   -0.000006   0.000000   0.000000   0.000113   0.000000   0.000000
              13         14         15         16         17         18
     1  C   -0.000215   0.000019  -0.047688   0.335675  -0.028330  -0.028327
     2  C    0.003713  -0.000184   0.007311  -0.076729  -0.001747  -0.001748
     3  C   -0.030711  -0.003389   0.000219   0.006727  -0.000031  -0.000031
     4  C   -0.016254  -0.078981   0.003853   0.000161   0.000035   0.000035
     5  C    0.001713   0.003958  -0.051890   0.008685  -0.000167  -0.000167
     6  C   -0.000005  -0.000104   0.338971  -0.057045   0.000356   0.000362
     7  H    0.000053   0.005120  -0.005790  -0.000263   0.000004   0.000004
     8  O    0.150875  -0.068017   0.000001   0.000000   0.000000   0.000000
     9  O    0.133867  -0.000559   0.000003  -0.000071  -0.000001  -0.000001
    10  H    0.000377   0.000006  -0.000183  -0.011257   0.002447   0.002453
    11  C   -0.019224   0.302367  -0.000074  -0.000002   0.000000   0.000000
    12  H    0.004038  -0.107830   0.000007   0.000000   0.000000   0.000000
    13  H    0.373378   0.004024   0.000001   0.000003   0.000000   0.000000
    14  H    0.004024   0.929567   0.000007   0.000000   0.000000   0.000000
    15  H    0.000001   0.000007   0.702178  -0.014235   0.000145   0.000144
    16  C    0.000003   0.000000  -0.014235   5.266933   0.355305   0.355307
    17  H    0.000000   0.000000   0.000145   0.355305   0.611797  -0.040832
    18  H    0.000000   0.000000   0.000144   0.355307  -0.040832   0.611779
    19  H    0.000000   0.000000   0.009072   0.354129  -0.031506  -0.031499
              19
     1  C   -0.026726
     2  C    0.003758
     3  C   -0.000157
     4  C    0.000031
     5  C   -0.000064
     6  C   -0.003185
     7  H   -0.000006
     8  O    0.000000
     9  O    0.000000
    10  H    0.000113
    11  C    0.000000
    12  H    0.000000
    13  H    0.000000
    14  H    0.000000
    15  H    0.009072
    16  C    0.354129
    17  H   -0.031506
    18  H   -0.031499
    19  H    0.601646
 Mulliken charges:
               1
     1  C    0.176637
     2  C   -0.234714
     3  C    0.291215
     4  C    0.091492
     5  C   -0.187139
     6  C   -0.202159
     7  H    0.078561
     8  O   -0.759628
     9  O   -0.692061
    10  H    0.073690
    11  C    0.017647
    12  H    0.014032
    13  H    0.394366
    14  H    0.013994
    15  H    0.057947
    16  C   -0.523323
    17  H    0.132526
    18  H    0.132521
    19  H    0.124394
 Sum of Mulliken charges =  -1.00000
 Mulliken charges with hydrogens summed into heavy atoms:
               1
     1  C    0.176637
     2  C   -0.161024
     3  C    0.291215
     4  C    0.091492
     5  C   -0.108577
     6  C   -0.144211
     8  O   -0.759628
     9  O   -0.297694
    11  C    0.045672
    16  C   -0.133882
 Electronic spatial extent (au):  <R**2>=           1623.2309
 Charge=             -1.0000 electrons
 Dipole moment (field-independent basis, Debye):
    X=             -8.5847    Y=              0.9997    Z=              0.0021  Tot=              8.6427
 Quadrupole moment (field-independent basis, Debye-Ang):
   XX=            -96.5678   YY=            -66.7012   ZZ=            -63.6872
   XY=              1.7545   XZ=              0.0084   YZ=             -0.0015
 Traceless Quadrupole moment (field-independent basis, Debye-Ang):
   XX=            -20.9157   YY=              8.9509   ZZ=             11.9648
   XY=              1.7545   XZ=              0.0084   YZ=             -0.0015
 Octapole moment (field-independent basis, Debye-Ang**2):
  XXX=            -85.5583  YYY=             -2.0575  ZZZ=             -0.0038  XYY=             -2.0032
  XXY=             -3.6727  XXZ=              0.0267  XZZ=              4.0359  YZZ=             -5.9960
  YYZ=             -0.0018  XYZ=             -0.0051
 Hexadecapole moment (field-independent basis, Debye-Ang**3):
 XXXX=          -1999.6198 YYYY=           -538.7434 ZZZZ=            -78.4706 XXXY=            -22.5167
 XXXZ=              0.0941 YYYX=            -11.4037 YYYZ=              0.0011 ZZZX=              0.0107
 ZZZY=             -0.0032 XXYY=           -351.6186 XXZZ=           -284.5063 YYZZ=           -105.2933
 XXYZ=             -0.0154 YYXZ=             -0.0004 ZZXY=             -4.2382
 N-N= 5.018086437745D+02 E-N=-2.090422361254D+03  KE= 4.567939176892D+02
 No NMR shielding tensors so no spin-rotation constants.
 Leave Link  601 at Wed Dec 03 17:18:08 2025, MaxMem=   104857600 cpu:               0.0 elap:               0.1
 (Enter D:\Gaussian\G16W\l9999.exe)
 1|1|UNPC-PC-20250526LCFF|SP|RB3LYP|6-31G(d)|C8H9O2(1-)|ADMINISTRATOR|0
 3-Dec-2025|0||#P B3LYP/6-31G* SCF=conver=7 out=wfn||Generated by Multi
 wfn (http://sobereva.com/multiwfn)||-1,1|C,0,-1.953559,-0.016677,-0.00
 0007|C,0,-1.022267,-1.050271,0.000018|C,0,0.351736,-0.78939,0.000095|C
 ,0,0.814607,0.545703,0.000103|C,0,-0.131414,1.576206,0.000107|C,0,-1.4
 91448,1.309952,0.000053|H,0,0.212945,2.606897,0.000107|O,0,3.189874,-0
 .132602,-0.000742|O,0,1.197307,-1.839762,0.000292|H,0,-1.33741,-2.0879
 57,0.000022|C,0,2.284616,0.874241,0.000103|H,0,2.521942,1.54511,-0.857
 752|H,0,2.113149,-1.484781,0.000548|H,0,2.522193,1.543781,0.858959|H,0
 ,-2.203513,2.127397,0.000033|C,0,-3.431381,-0.323608,-0.000115|H,0,-3.
 711989,-0.908859,-0.881008|H,0,-3.711935,-0.909804,0.880162|H,0,-4.028
 172,0.590196,0.000383||Version=EM64W-G16RevA.03|State=1-A|HF=-460.7132
 577|RMSD=3.849e-008|Dipole=-3.3774726,0.3933192,0.0008146|Quadrupole=-
 15.5503381,6.6547661,8.895572,1.3044183,0.0062392,-0.0011079|PG=C01 [X
 (C8H9O2)]||@

 Writing a WFN file to "N+1.wfn"


 IF THERE IS ONE WAY BETTER THAN ANOTHER IT IS THE WAY OF NATURE.

                          -- ARISTOTLE
 Job cpu time:       0 days  0 hours  0 minutes 19.0 seconds.
 Elapsed time:       0 days  0 hours  0 minutes 19.1 seconds.
 File lengths (MBytes):  RWF=     15 Int=      0 D2E=      0 Chk=      3 Scr=      1
 Normal termination of Gaussian 16 at Wed Dec 03 17:18:08 2025.
