 Generated by Multiwfn (http://sobereva.com/multiwfn)
GAUSSIAN             36 MOL ORBITALS    316 PRIMITIVES       19 NUCLEI
  C    1    (CENTRE  1)  -3.69169142 -0.03151525 -0.00001312  CHARGE =  6.0
  C    2    (CENTRE  2)  -1.93180451 -1.98472475  0.00003412  CHARGE =  6.0
  C    3    (CENTRE  3)   0.66468483 -1.49173098  0.00017963  CHARGE =  6.0
  C    4    (CENTRE  4)   1.53938413  1.03122919  0.00019475  CHARGE =  6.0
  C    5    (CENTRE  5)  -0.24833656  2.97859754  0.00020230  CHARGE =  6.0
  C    6    (CENTRE  6)  -2.81842832  2.47545027  0.00010026  CHARGE =  6.0
  H    7    (CENTRE  7)   0.40240754  4.92632128  0.00020230  CHARGE =  1.0
  O    8    (CENTRE  8)   6.02798830 -0.25058127 -0.00140207  CHARGE =  8.0
  O    9    (CENTRE  9)   2.26258254 -3.47664631  0.00055190  CHARGE =  8.0
  H   10    (CENTRE 10)  -2.52733837 -3.94566712  0.00004168  CHARGE =  1.0
  C   11    (CENTRE 11)   4.31729851  1.65207617  0.00019475  CHARGE =  6.0
  H   12    (CENTRE 12)   4.76577959  2.91983486 -1.62091626  CHARGE =  1.0
  H   13    (CENTRE 13)   3.99327306 -2.80582935  0.00103567  CHARGE =  1.0
  H   14    (CENTRE 14)   4.76625391  2.91732342  1.62319737  CHARGE =  1.0
  H   15    (CENTRE 15)  -4.16403623  4.02019738  0.00006246  CHARGE =  1.0
  C   16    (CENTRE 16)  -6.48437024 -0.61153091 -0.00021721  CHARGE =  6.0
  H   17    (CENTRE 17)  -7.01464245 -1.71749504 -1.66486373  CHARGE =  1.0
  H   18    (CENTRE 18)  -7.01454041 -1.71928084  1.66326523  CHARGE =  1.0
  H   19    (CENTRE 19)  -7.61214187  1.11530832  0.00072387  CHARGE =  1.0
CENTRE ASSIGNMENTS    1  1  1  1  1  1  1  1  1  1  1  1  1  1  1  1  1  1  1  1
CENTRE ASSIGNMENTS    1  1  1  1  1  1  1  1  2  2  2  2  2  2  2  2  2  2  2  2
CENTRE ASSIGNMENTS    2  2  2  2  2  2  2  2  2  2  2  2  2  2  2  2  3  3  3  3
CENTRE ASSIGNMENTS    3  3  3  3  3  3  3  3  3  3  3  3  3  3  3  3  3  3  3  3
CENTRE ASSIGNMENTS    3  3  3  3  4  4  4  4  4  4  4  4  4  4  4  4  4  4  4  4
CENTRE ASSIGNMENTS    4  4  4  4  4  4  4  4  4  4  4  4  5  5  5  5  5  5  5  5
CENTRE ASSIGNMENTS    5  5  5  5  5  5  5  5  5  5  5  5  5  5  5  5  5  5  5  5
CENTRE ASSIGNMENTS    6  6  6  6  6  6  6  6  6  6  6  6  6  6  6  6  6  6  6  6
CENTRE ASSIGNMENTS    6  6  6  6  6  6  6  6  7  7  7  7  8  8  8  8  8  8  8  8
CENTRE ASSIGNMENTS    8  8  8  8  8  8  8  8  8  8  8  8  8  8  8  8  8  8  8  8
CENTRE ASSIGNMENTS    9  9  9  9  9  9  9  9  9  9  9  9  9  9  9  9  9  9  9  9
CENTRE ASSIGNMENTS    9  9  9  9  9  9  9  9 10 10 10 10 11 11 11 11 11 11 11 11
CENTRE ASSIGNMENTS   11 11 11 11 11 11 11 11 11 11 11 11 11 11 11 11 11 11 11 11
CENTRE ASSIGNMENTS   12 12 12 12 13 13 13 13 14 14 14 14 15 15 15 15 16 16 16 16
CENTRE ASSIGNMENTS   16 16 16 16 16 16 16 16 16 16 16 16 16 16 16 16 16 16 16 16
CENTRE ASSIGNMENTS   16 16 16 16 17 17 17 17 18 18 18 18 19 19 19 19
TYPE ASSIGNMENTS      1  1  1  1  1  1  1  1  1  2  2  2  3  3  3  4  4  4  1  2
TYPE ASSIGNMENTS      3  4  5  6  7  8  9 10  1  1  1  1  1  1  1  1  1  2  2  2
TYPE ASSIGNMENTS      3  3  3  4  4  4  1  2  3  4  5  6  7  8  9 10  1  1  1  1
TYPE ASSIGNMENTS      1  1  1  1  1  2  2  2  3  3  3  4  4  4  1  2  3  4  5  6
TYPE ASSIGNMENTS      7  8  9 10  1  1  1  1  1  1  1  1  1  2  2  2  3  3  3  4
TYPE ASSIGNMENTS      4  4  1  2  3  4  5  6  7  8  9 10  1  1  1  1  1  1  1  1
TYPE ASSIGNMENTS      1  2  2  2  3  3  3  4  4  4  1  2  3  4  5  6  7  8  9 10
TYPE ASSIGNMENTS      1  1  1  1  1  1  1  1  1  2  2  2  3  3  3  4  4  4  1  2
TYPE ASSIGNMENTS      3  4  5  6  7  8  9 10  1  1  1  1  1  1  1  1  1  1  1  1
TYPE ASSIGNMENTS      1  2  2  2  3  3  3  4  4  4  1  2  3  4  5  6  7  8  9 10
TYPE ASSIGNMENTS      1  1  1  1  1  1  1  1  1  2  2  2  3  3  3  4  4  4  1  2
TYPE ASSIGNMENTS      3  4  5  6  7  8  9 10  1  1  1  1  1  1  1  1  1  1  1  1
TYPE ASSIGNMENTS      1  2  2  2  3  3  3  4  4  4  1  2  3  4  5  6  7  8  9 10
TYPE ASSIGNMENTS      1  1  1  1  1  1  1  1  1  1  1  1  1  1  1  1  1  1  1  1
TYPE ASSIGNMENTS      1  1  1  1  1  2  2  2  3  3  3  4  4  4  1  2  3  4  5  6
TYPE ASSIGNMENTS      7  8  9 10  1  1  1  1  1  1  1  1  1  1  1  1
EXPONENTS  0.3047525D+04 0.4573695D+03 0.1039487D+03 0.2921016D+02 0.9286663D+01
EXPONENTS  0.3163927D+01 0.7868272D+01 0.1881289D+01 0.5442493D+00 0.7868272D+01
EXPONENTS  0.1881289D+01 0.5442493D+00 0.7868272D+01 0.1881289D+01 0.5442493D+00
EXPONENTS  0.7868272D+01 0.1881289D+01 0.5442493D+00 0.1687145D+00 0.1687145D+00
EXPONENTS  0.1687145D+00 0.1687145D+00 0.8000000D+00 0.8000000D+00 0.8000000D+00
EXPONENTS  0.8000000D+00 0.8000000D+00 0.8000000D+00 0.3047525D+04 0.4573695D+03
EXPONENTS  0.1039487D+03 0.2921016D+02 0.9286663D+01 0.3163927D+01 0.7868272D+01
EXPONENTS  0.1881289D+01 0.5442493D+00 0.7868272D+01 0.1881289D+01 0.5442493D+00
EXPONENTS  0.7868272D+01 0.1881289D+01 0.5442493D+00 0.7868272D+01 0.1881289D+01
EXPONENTS  0.5442493D+00 0.1687145D+00 0.1687145D+00 0.1687145D+00 0.1687145D+00
EXPONENTS  0.8000000D+00 0.8000000D+00 0.8000000D+00 0.8000000D+00 0.8000000D+00
EXPONENTS  0.8000000D+00 0.3047525D+04 0.4573695D+03 0.1039487D+03 0.2921016D+02
EXPONENTS  0.9286663D+01 0.3163927D+01 0.7868272D+01 0.1881289D+01 0.5442493D+00
EXPONENTS  0.7868272D+01 0.1881289D+01 0.5442493D+00 0.7868272D+01 0.1881289D+01
EXPONENTS  0.5442493D+00 0.7868272D+01 0.1881289D+01 0.5442493D+00 0.1687145D+00
EXPONENTS  0.1687145D+00 0.1687145D+00 0.1687145D+00 0.8000000D+00 0.8000000D+00
EXPONENTS  0.8000000D+00 0.8000000D+00 0.8000000D+00 0.8000000D+00 0.3047525D+04
EXPONENTS  0.4573695D+03 0.1039487D+03 0.2921016D+02 0.9286663D+01 0.3163927D+01
EXPONENTS  0.7868272D+01 0.1881289D+01 0.5442493D+00 0.7868272D+01 0.1881289D+01
EXPONENTS  0.5442493D+00 0.7868272D+01 0.1881289D+01 0.5442493D+00 0.7868272D+01
EXPONENTS  0.1881289D+01 0.5442493D+00 0.1687145D+00 0.1687145D+00 0.1687145D+00
EXPONENTS  0.1687145D+00 0.8000000D+00 0.8000000D+00 0.8000000D+00 0.8000000D+00
EXPONENTS  0.8000000D+00 0.8000000D+00 0.3047525D+04 0.4573695D+03 0.1039487D+03
EXPONENTS  0.2921016D+02 0.9286663D+01 0.3163927D+01 0.7868272D+01 0.1881289D+01
EXPONENTS  0.5442493D+00 0.7868272D+01 0.1881289D+01 0.5442493D+00 0.7868272D+01
EXPONENTS  0.1881289D+01 0.5442493D+00 0.7868272D+01 0.1881289D+01 0.5442493D+00
EXPONENTS  0.1687145D+00 0.1687145D+00 0.1687145D+00 0.1687145D+00 0.8000000D+00
EXPONENTS  0.8000000D+00 0.8000000D+00 0.8000000D+00 0.8000000D+00 0.8000000D+00
EXPONENTS  0.3047525D+04 0.4573695D+03 0.1039487D+03 0.2921016D+02 0.9286663D+01
EXPONENTS  0.3163927D+01 0.7868272D+01 0.1881289D+01 0.5442493D+00 0.7868272D+01
EXPONENTS  0.1881289D+01 0.5442493D+00 0.7868272D+01 0.1881289D+01 0.5442493D+00
EXPONENTS  0.7868272D+01 0.1881289D+01 0.5442493D+00 0.1687145D+00 0.1687145D+00
EXPONENTS  0.1687145D+00 0.1687145D+00 0.8000000D+00 0.8000000D+00 0.8000000D+00
EXPONENTS  0.8000000D+00 0.8000000D+00 0.8000000D+00 0.1873114D+02 0.2825394D+01
EXPONENTS  0.6401217D+00 0.1612778D+00 0.5484672D+04 0.8252349D+03 0.1880470D+03
EXPONENTS  0.5296450D+02 0.1689757D+02 0.5799635D+01 0.1553962D+02 0.3599934D+01
EXPONENTS  0.1013762D+01 0.1553962D+02 0.3599934D+01 0.1013762D+01 0.1553962D+02
EXPONENTS  0.3599934D+01 0.1013762D+01 0.1553962D+02 0.3599934D+01 0.1013762D+01
EXPONENTS  0.2700058D+00 0.2700058D+00 0.2700058D+00 0.2700058D+00 0.8000000D+00
EXPONENTS  0.8000000D+00 0.8000000D+00 0.8000000D+00 0.8000000D+00 0.8000000D+00
EXPONENTS  0.5484672D+04 0.8252349D+03 0.1880470D+03 0.5296450D+02 0.1689757D+02
EXPONENTS  0.5799635D+01 0.1553962D+02 0.3599934D+01 0.1013762D+01 0.1553962D+02
EXPONENTS  0.3599934D+01 0.1013762D+01 0.1553962D+02 0.3599934D+01 0.1013762D+01
EXPONENTS  0.1553962D+02 0.3599934D+01 0.1013762D+01 0.2700058D+00 0.2700058D+00
EXPONENTS  0.2700058D+00 0.2700058D+00 0.8000000D+00 0.8000000D+00 0.8000000D+00
EXPONENTS  0.8000000D+00 0.8000000D+00 0.8000000D+00 0.1873114D+02 0.2825394D+01
EXPONENTS  0.6401217D+00 0.1612778D+00 0.3047525D+04 0.4573695D+03 0.1039487D+03
EXPONENTS  0.2921016D+02 0.9286663D+01 0.3163927D+01 0.7868272D+01 0.1881289D+01
EXPONENTS  0.5442493D+00 0.7868272D+01 0.1881289D+01 0.5442493D+00 0.7868272D+01
EXPONENTS  0.1881289D+01 0.5442493D+00 0.7868272D+01 0.1881289D+01 0.5442493D+00
EXPONENTS  0.1687145D+00 0.1687145D+00 0.1687145D+00 0.1687145D+00 0.8000000D+00
EXPONENTS  0.8000000D+00 0.8000000D+00 0.8000000D+00 0.8000000D+00 0.8000000D+00
EXPONENTS  0.1873114D+02 0.2825394D+01 0.6401217D+00 0.1612778D+00 0.1873114D+02
EXPONENTS  0.2825394D+01 0.6401217D+00 0.1612778D+00 0.1873114D+02 0.2825394D+01
EXPONENTS  0.6401217D+00 0.1612778D+00 0.1873114D+02 0.2825394D+01 0.6401217D+00
EXPONENTS  0.1612778D+00 0.3047525D+04 0.4573695D+03 0.1039487D+03 0.2921016D+02
EXPONENTS  0.9286663D+01 0.3163927D+01 0.7868272D+01 0.1881289D+01 0.5442493D+00
EXPONENTS  0.7868272D+01 0.1881289D+01 0.5442493D+00 0.7868272D+01 0.1881289D+01
EXPONENTS  0.5442493D+00 0.7868272D+01 0.1881289D+01 0.5442493D+00 0.1687145D+00
EXPONENTS  0.1687145D+00 0.1687145D+00 0.1687145D+00 0.8000000D+00 0.8000000D+00
EXPONENTS  0.8000000D+00 0.8000000D+00 0.8000000D+00 0.8000000D+00 0.1873114D+02
EXPONENTS  0.2825394D+01 0.6401217D+00 0.1612778D+00 0.1873114D+02 0.2825394D+01
EXPONENTS  0.6401217D+00 0.1612778D+00 0.1873114D+02 0.2825394D+01 0.6401217D+00
EXPONENTS  0.1612778D+00
MO    1     MO 0.0        OCC NO =    2.0000000  ORB. ENERGY =  -19.401079
  0.14867356D-05  0.27427368D-05  0.44276277D-05  0.57634557D-05  0.49179672D-05
  0.16980559D-05  0.55305217D-05  0.25490124D-05 -0.71476968D-05  0.81616978D-04
  0.62578722D-04  0.31231168D-04 -0.43934220D-04 -0.33685973D-04 -0.16811662D-04
 -0.89919381D-08 -0.68944478D-08 -0.34408127D-08  0.29187244D-03  0.60068071D-04
  0.16932905D-04  0.55291968D-08  0.17013373D-04  0.44292911D-04  0.23187162D-04
 -0.10868303D-04 -0.23068861D-08  0.84207442D-08  0.57677859D-05  0.10640439D-04
  0.17176967D-04  0.22359308D-04  0.19079238D-04  0.65876024D-05 -0.63941941D-04
 -0.29470782D-04  0.82639150D-04 -0.65424561D-06 -0.50163404D-06 -0.25035054D-06
  0.12892830D-04  0.98854044D-05  0.49335096D-05  0.14468348D-07  0.11093412D-07
  0.55363900D-08 -0.27106293D-03 -0.48788623D-04 -0.28257408D-03 -0.30542579D-09
 -0.97648728D-04 -0.65255768D-04  0.25703903D-04 -0.17682271D-04 -0.20115139D-07
  0.16401230D-07 -0.33319608D-04 -0.61468170D-04 -0.99228685D-04 -0.12916626D-03
 -0.11021781D-03 -0.38055560D-04 -0.42502343D-04 -0.19589291D-04  0.54930416D-04
  0.30164911D-03  0.23128540D-03  0.11542763D-03 -0.46504544D-03 -0.35656735D-03
 -0.17795210D-03  0.46895972D-07  0.35956857D-07  0.17944992D-07  0.15426558D-03
 -0.38986429D-03  0.71096139D-03 -0.68378279D-07 -0.12587202D-03 -0.16532305D-04
 -0.14017723D-03  0.12712411D-03 -0.31121625D-07  0.48464736D-07  0.95415229D-05
  0.17602247D-04  0.28415484D-04  0.36988517D-04  0.31562368D-04  0.10897727D-04
 -0.81864623D-04 -0.37731330D-04  0.10580259D-03 -0.10907525D-03 -0.83631981D-04
 -0.41738220D-04  0.33391211D-04  0.25602263D-04  0.12777323D-04 -0.37102178D-07
 -0.28447597D-07 -0.14197344D-07 -0.54828564D-03  0.48907417D-03  0.15192928D-03
  0.31451604D-07 -0.56283222D-04 -0.13785126D-03  0.35436644D-04 -0.15207421D-05
 -0.26147544D-07 -0.17311661D-07 -0.26738237D-05 -0.49326827D-05 -0.79628793D-05
 -0.10365303D-04 -0.88447317D-05 -0.30538733D-05  0.19994007D-04  0.92152197D-05
 -0.25840438D-04  0.54567451D-04  0.41838861D-04  0.20880524D-04 -0.78233406D-04
 -0.59984414D-04 -0.29936427D-04 -0.47659551D-08 -0.36542321D-08 -0.18237179D-08
  0.35680947D-03 -0.41269815D-04 -0.18187439D-03 -0.10855057D-07  0.18954697D-04
  0.38648933D-04  0.29763879D-05 -0.62738525D-04 -0.10740257D-07  0.19743925D-07
  0.76765174D-05  0.14161676D-04  0.22861335D-04  0.29758666D-04  0.25393124D-04
  0.87676354D-05 -0.31539759D-04 -0.14536646D-04  0.40762274D-04 -0.28365092D-05
 -0.21748554D-05 -0.10854053D-05 -0.33190818D-04 -0.25448614D-04 -0.12700642D-04
 -0.24011654D-08 -0.18410613D-08 -0.91881863D-09 -0.23586558D-03 -0.68114857D-04
  0.90090928D-04  0.34697294D-09 -0.12341599D-04 -0.94064232D-06  0.35265452D-04
 -0.44196734D-04 -0.23497929D-08  0.59146443D-09  0.60557406D-05  0.10271682D-04
  0.11693947D-04  0.55798048D-04  0.14682521D-04  0.27023677D-04  0.43729410D-04
  0.57483534D-04  0.49303293D-04  0.16857633D-04  0.68970323D-05  0.30774424D-05
 -0.90877286D-05 -0.48078857D-04 -0.37042167D-04 -0.16263507D-04  0.12335425D-03
  0.95037797D-04  0.41726712D-04 -0.91409824D-07 -0.70426341D-07 -0.30920957D-07
  0.27044093D-04 -0.56199656D-05 -0.96458120D-04  0.27098132D-07 -0.61554638D-04
 -0.15614614D-04  0.73732758D-05  0.34365064D-04  0.18980960D-07 -0.16726124D-06
  0.82560545D+00  0.15195548D+01  0.24589264D+01  0.32323276D+01  0.27723486D+01
  0.94791308D+00 -0.15712298D-01 -0.70107966D-02  0.20702976D-01  0.64293892D-03
  0.49534978D-03  0.21748523D-03  0.30492189D-02  0.23492588D-02  0.10314511D-02
  0.36431031D-06  0.28068146D-06  0.12323428D-06  0.40645201D-02 -0.21708994D-03
  0.25221122D-03 -0.51405300D-07 -0.92658848D-02 -0.93321604D-02 -0.93330059D-02
 -0.12954397D-03  0.60581528D-07 -0.22416025D-07 -0.79214934D-05 -0.13436352D-04
 -0.15296812D-04 -0.13136413D-03  0.37457705D-05  0.69102151D-05  0.11155230D-04
  0.14520795D-04  0.12390620D-04  0.42781835D-05 -0.74968310D-05 -0.34552826D-05
  0.96889730D-05  0.96507073D-04  0.73995502D-04  0.36928942D-04 -0.70522771D-05
 -0.54072388D-05 -0.26985911D-05 -0.80575558D-07 -0.61780228D-07 -0.30832663D-07
 -0.24156937D-03  0.12507480D-03 -0.18888675D-04  0.41114085D-08 -0.29102613D-05
  0.62910009D-04 -0.73587861D-05 -0.29312579D-04 -0.67839805D-07  0.85600931D-07
  0.56836249D-05  0.96405036D-05  0.10975373D-04  0.35837459D-05  0.83163170D-04
  0.14106048D-03  0.16059237D-03 -0.28734159D-03  0.56696408D-05  0.96167839D-05
  0.10948369D-04  0.35470534D-05 -0.45135334D-05 -0.76558069D-05 -0.87158655D-05
 -0.31547592D-04  0.54674019D-05  0.10086289D-04  0.16282398D-04  0.21194844D-04
  0.18085599D-04  0.62445226D-05 -0.19130034D-04 -0.88170153D-05  0.24723831D-04
 -0.34827116D-05 -0.26703224D-05 -0.13326780D-05 -0.49637429D-05 -0.38058832D-05
 -0.18994025D-05  0.39022133D-08  0.29919696D-08  0.14932025D-08 -0.42863988D-04
 -0.13727923D-04 -0.33450426D-05 -0.37248617D-08 -0.88488256D-06  0.16703934D-04
  0.20404797D-04 -0.15104408D-04 -0.50899678D-08  0.15865023D-08  0.22608114D-05
  0.38347640D-05  0.43657433D-05  0.41014336D-05  0.22613693D-05  0.38357104D-05
  0.43668207D-05  0.41047977D-05  0.25853348D-05  0.43852172D-05  0.49924148D-05
  0.29498239D-05
MO    2     MO 0.0        OCC NO =    2.0000000  ORB. ENERGY =  -19.352329
 -0.17853455D-05 -0.32936138D-05 -0.53169140D-05 -0.69210422D-05 -0.59057378D-05
 -0.20391094D-05  0.68083707D-05  0.31379718D-05 -0.87992006D-05 -0.35020077D-04
 -0.26851174D-04 -0.13400618D-04  0.41942321D-05  0.32158712D-05  0.16049451D-05
 -0.10742469D-07 -0.82366439D-08 -0.41106626D-08 -0.32733215D-04  0.37988938D-04
  0.22617447D-04  0.87569115D-08 -0.19000502D-06  0.14491583D-05 -0.94552377D-05
  0.12383544D-05  0.96744273D-08 -0.16616856D-07  0.25374923D-05  0.46811779D-05
  0.75568725D-05  0.98368027D-05  0.83937615D-05  0.28981642D-05 -0.13574241D-04
 -0.62563553D-05  0.17543473D-04  0.16615638D-05  0.12739817D-05  0.63580617D-06
 -0.14012259D-04 -0.10743711D-04 -0.53618650D-05  0.25789448D-07  0.19773713D-07
  0.98684687D-08 -0.10096413D-03 -0.72728588D-04  0.46343512D-04 -0.23682182D-07
 -0.30386758D-04  0.65576195D-05  0.10613889D-04  0.18644879D-04 -0.34510576D-07
 -0.11940428D-07  0.72483438D-05  0.13371779D-04  0.21586197D-04  0.28098815D-04
  0.23976770D-04  0.82786024D-05 -0.52546548D-05 -0.24218656D-05  0.67911639D-05
  0.54903144D-04  0.42096248D-04  0.21008978D-04 -0.35501847D-04 -0.27220564D-04
 -0.13584969D-04 -0.10397010D-06 -0.79717681D-07 -0.39784710D-07 -0.72525285D-04
 -0.68763260D-04 -0.21688564D-03  0.34180047D-07  0.91164300D-04  0.48191989D-04
  0.22837256D-04 -0.10576543D-03 -0.30934288D-07  0.34228182D-07 -0.13602969D-04
 -0.25094821D-04 -0.40510823D-04 -0.52733054D-04 -0.44997211D-04 -0.15536456D-04
  0.30649772D-04  0.14126452D-04 -0.39612046D-04 -0.35823188D-05 -0.27466948D-05
 -0.13707932D-05  0.29655960D-04  0.22738309D-04  0.11348010D-04 -0.40276481D-07
 -0.30881451D-07 -0.15412008D-07  0.31319450D-03  0.92044063D-05 -0.17033537D-03
 -0.29718793D-07 -0.65248574D-04 -0.14924524D-04 -0.52632293D-04  0.59264350D-04
  0.50160407D-08 -0.86126901D-07  0.15954514D-05  0.29432962D-05  0.47513927D-05
  0.61849015D-05  0.52775877D-05  0.18222242D-05 -0.98549514D-06 -0.45421381D-06
  0.12736629D-05  0.61946021D-04  0.47496280D-04  0.23703973D-04 -0.15992124D-04
 -0.12261746D-04 -0.61194707D-05  0.64786589D-07  0.49674247D-07  0.24790931D-07
  0.10360677D-03 -0.71115883D-04 -0.11260984D-05 -0.15957215D-07  0.33384499D-04
  0.17081869D-05  0.10897969D-04  0.27948291D-04  0.12108830D-07 -0.20414709D-07
  0.35114604D-05  0.64779588D-05  0.10457434D-04  0.13612472D-04  0.11615547D-04
  0.40105692D-05 -0.16496974D-04 -0.76034401D-05  0.21320840D-04 -0.13895372D-04
 -0.10654090D-04 -0.53171374D-05  0.11405198D-04  0.87447826D-05  0.43642594D-05
 -0.14718313D-07 -0.11285069D-07 -0.56320401D-08 -0.12267613D-03 -0.50320221D-04
 -0.43127012D-05  0.53782880D-08 -0.20407464D-04  0.13395408D-05  0.15249468D-04
 -0.80404656D-05  0.17348120D-07  0.39982604D-09  0.90948697D-05  0.15426620D-04
  0.17562662D-04 -0.14944282D-04  0.82573653D+00  0.15197960D+01  0.24593168D+01
  0.32328408D+01  0.27727888D+01  0.94806358D+00 -0.15843493D-01 -0.70693357D-02
  0.20875843D-01 -0.20789307D-02 -0.16017040D-02 -0.70323435D-03  0.18281533D-02
  0.14084936D-02  0.61840455D-03  0.15612233D-05  0.12028384D-05  0.52811085D-06
  0.33083587D-02 -0.22376549D-03  0.91077702D-04  0.26428677D-06 -0.88623887D-02
 -0.88314383D-02 -0.89821095D-02  0.28205073D-04 -0.27175233D-06 -0.89455456D-07
 -0.36452043D-04 -0.67091218D-04 -0.10856625D-03 -0.14271338D-03 -0.12240444D-03
 -0.41852156D-04  0.45482721D-04  0.20294301D-04 -0.59929344D-04 -0.19318075D-03
 -0.14883535D-03 -0.65346736D-04  0.84933081D-04  0.65436360D-04  0.28730087D-04
 -0.34294525D-06 -0.26422083D-06 -0.11600718D-06  0.11454520D-03  0.22052291D-03
 -0.18268099D-04  0.12024907D-06 -0.15553070D-04 -0.11742353D-03 -0.55597675D-04
  0.13725949D-03  0.20853400D-06  0.17944332D-06  0.68461080D-05  0.11612295D-04
  0.13220187D-04  0.16281368D-04  0.61444962D-05  0.11335396D-04  0.18298843D-04
  0.23819657D-04  0.20325356D-04  0.70178571D-05 -0.20195734D-03 -0.93081952D-04
  0.26101151D-03  0.32808101D-03  0.25155171D-03  0.12554193D-03 -0.28947140D-03
 -0.22194831D-03 -0.11076776D-03 -0.38541807D-06 -0.29551413D-06 -0.14748226D-06
 -0.47817931D-03 -0.17667807D-03  0.24448191D-03  0.21499291D-06 -0.41768280D-05
 -0.13496682D-03  0.12176999D-05  0.49542594D-04 -0.91731150D-08 -0.16102516D-06
  0.12496226D-04  0.21195965D-04  0.24130857D-04 -0.54485610D-05 -0.40317376D-04
 -0.68385900D-04 -0.77854930D-04 -0.24333464D-03  0.12511306D-04  0.21221543D-04
  0.24159977D-04 -0.55298108D-05  0.21716991D-05  0.36836127D-05  0.41936628D-05
 -0.33960941D-05  0.66128868D-06  0.12199485D-05  0.19693751D-05  0.25635413D-05
  0.21874744D-05  0.75528235D-06 -0.42237620D-07 -0.19467280D-07  0.54588286D-07
  0.23183189D-04  0.17775399D-04  0.88711698D-05 -0.22042763D-05 -0.16900992D-05
 -0.84347797D-06 -0.11433292D-08 -0.87663229D-09 -0.43750095D-09  0.31532774D-04
  0.62164266D-05  0.47164178D-05  0.14867813D-08  0.82830743D-05  0.44199037D-06
  0.79468626D-05 -0.77772716D-07 -0.51278074D-08 -0.14140712D-08 -0.28556752D-06
 -0.48437656D-06 -0.55144560D-06 -0.26947708D-06 -0.28567862D-06 -0.48456500D-06
 -0.55166013D-06 -0.26972957D-06 -0.41140146D-06 -0.69781474D-06 -0.79443742D-06
 -0.72323534D-05
MO    3     MO 0.0        OCC NO =    2.0000000  ORB. ENERGY =  -10.484059
  0.45067781D-04  0.83141255D-04  0.13421576D-03  0.17470905D-03  0.14907955D-03
  0.51473585D-04 -0.11535142D-03 -0.53165363D-04  0.14908123D-03 -0.11244588D-03
 -0.86216366D-04 -0.43028009D-04  0.49809041D-04  0.38190413D-04  0.19059693D-04
 -0.16024704D-07 -0.12286727D-07 -0.61319378D-08 -0.16240560D-02 -0.68537292D-03
  0.13098234D-03 -0.15144208D-07  0.12289713D-04  0.20525572D-04  0.62442096D-04
  0.46079655D-05 -0.37066481D-08 -0.19423662D-07  0.12304182D-02  0.22698813D-02
  0.36642922D-02  0.47698197D-02  0.40700958D-02  0.14053063D-02  0.32804285D-03
  0.15119465D-03 -0.42396558D-03 -0.26758251D-03 -0.20516529D-03 -0.10239186D-03
 -0.18589118D-03 -0.14252956D-03 -0.71132241D-04 -0.15264460D-07 -0.11703819D-07
 -0.58410261D-08  0.26426927D-02  0.38831257D-03  0.12361603D-02  0.12870346D-07
 -0.40291683D-03 -0.21374254D-03 -0.36801000D-03  0.18878361D-03 -0.26540427D-07
  0.25850982D-07  0.53258428D+00  0.98251400D+00  0.15860822D+01  0.20646078D+01
  0.17617336D+01  0.60828427D+00 -0.19825432D-01 -0.91375234D-02  0.25622569D-01
  0.88286275D-03  0.67692316D-03  0.33783210D-03 -0.46740132D-03 -0.35837368D-03
 -0.17885358D-03  0.22402381D-06  0.17176725D-06  0.85723894D-07 -0.40658356D-02
  0.12157369D-02 -0.17368792D-02  0.13288156D-06 -0.97416031D-02 -0.95225776D-02
 -0.10367708D-01 -0.75650812D-03  0.27395359D-06 -0.28519971D-06  0.26285937D-02
  0.48492420D-02  0.78281802D-02  0.10189965D-01  0.86951153D-02  0.30022144D-02
  0.18967234D-03  0.87419808D-04 -0.24513427D-03  0.43845338D-03  0.33617824D-03
  0.16777650D-03  0.42150233D-03  0.32318125D-03  0.16129010D-03  0.69857898D-08
  0.53562606D-08  0.26731494D-08  0.23738180D-02 -0.15288718D-02 -0.67726315D-03
 -0.48814230D-07 -0.29029528D-03 -0.56997518D-03 -0.33372484D-03  0.16912292D-04
 -0.87046094D-08  0.42951705D-07  0.27580305D-04  0.50880278D-04  0.82136545D-04
  0.10691738D-03  0.91232791D-04  0.31500490D-04 -0.72014721D-04 -0.33191519D-04
  0.93072484D-04 -0.95899176D-04 -0.73529406D-04 -0.36696327D-04  0.17362617D-03
  0.13312554D-03  0.66438972D-04 -0.36822971D-08 -0.28233518D-08 -0.14090504D-08
 -0.14952614D-02  0.30181413D-03  0.66908240D-03  0.31866006D-07  0.64541451D-04
  0.21627998D-04  0.31311652D-04 -0.24928454D-04 -0.13338023D-07 -0.36406021D-07
 -0.57115176D-04 -0.10536635D-03 -0.17009396D-03 -0.22141179D-03 -0.18893108D-03
 -0.65233362D-04  0.13978030D-03  0.64424611D-04 -0.18065333D-03 -0.38965503D-04
 -0.29876276D-04 -0.14910356D-04  0.58533744D-04  0.44879962D-04  0.22398246D-04
 -0.24169922D-08 -0.18531963D-08 -0.92487483D-09  0.11461182D-02  0.48672115D-03
 -0.37676089D-03  0.44570528D-08  0.35096107D-05 -0.17986695D-04 -0.13670358D-03
  0.50711270D-04  0.99382461D-08  0.11992861D-07 -0.24709029D-04 -0.41911191D-04
 -0.47714409D-04 -0.19123081D-03 -0.15660235D-04 -0.28823192D-04 -0.46641366D-04
 -0.61311381D-04 -0.52586415D-04 -0.17980188D-04  0.33392437D-04  0.14899640D-04
 -0.43998838D-04  0.70850077D-04  0.54586165D-04  0.23966266D-04 -0.15523029D-04
 -0.11959657D-04 -0.52509336D-05 -0.83630947D-07 -0.64433136D-07 -0.28289617D-07
  0.43281102D-04  0.31494191D-04 -0.75174052D-05  0.14363197D-07 -0.73439289D-04
 -0.61204832D-04 -0.10862413D-03  0.69339727D-04  0.26388201D-07  0.38030364D-08
  0.13963890D-03  0.25701012D-03  0.41589089D-03  0.54670022D-03  0.46890160D-03
  0.16032542D-03 -0.76923464D-03 -0.34323100D-03  0.10135657D-02 -0.67173007D-04
 -0.51753181D-04 -0.22722434D-04 -0.79687521D-04 -0.61394939D-04 -0.26955685D-04
 -0.15932306D-06 -0.12274983D-06 -0.53893785D-07 -0.19808481D-02  0.58716259D-03
 -0.65072679D-03  0.21139566D-06  0.35122520D-03  0.16398397D-03  0.10578873D-02
  0.11860022D-02 -0.37523987D-06  0.37702396D-06  0.50974038D-04  0.86461616D-04
  0.98433494D-04  0.37009167D-03 -0.46597123D-04 -0.85962593D-04 -0.13877028D-03
 -0.18063767D-03 -0.15413845D-03 -0.53220303D-04  0.11436532D-03  0.52710872D-04
 -0.14780679D-03 -0.16200374D-03 -0.12421419D-03 -0.61991588D-04 -0.17252091D-04
 -0.13227809D-04 -0.66016037D-05 -0.52937736D-07 -0.40589298D-07 -0.20256905D-07
  0.84417635D-03 -0.29427318D-03 -0.31869676D-04  0.26968418D-07  0.10994728D-03
 -0.95494236D-05 -0.72992267D-04 -0.13127693D-04 -0.52585802D-07  0.56682394D-07
 -0.17808011D-04 -0.30205758D-04 -0.34388188D-04 -0.10405607D-04  0.44515713D-04
  0.75507075D-04  0.85962136D-04 -0.84203725D-04 -0.17806300D-04 -0.30202856D-04
 -0.34384884D-04 -0.10437013D-04  0.27752343D-04  0.47073227D-04  0.53591205D-04
  0.17498378D-03 -0.20807474D-04 -0.38385727D-04 -0.61966465D-04 -0.80661925D-04
 -0.68828967D-04 -0.23764988D-04  0.55611852D-04  0.25631452D-04 -0.71873266D-04
 -0.38165052D-04 -0.29262541D-04 -0.14604059D-04  0.14027286D-05  0.10755233D-05
  0.53676152D-06  0.12624882D-07  0.96799587D-08  0.48309778D-08 -0.49126494D-04
  0.13011196D-04 -0.71199189D-04 -0.20921316D-07  0.22740003D-04 -0.99772044D-04
 -0.41290046D-04 -0.59228938D-04  0.13720509D-07 -0.66075490D-07 -0.92620507D-05
 -0.15710191D-04 -0.17885497D-04 -0.18932663D-04 -0.92655207D-05 -0.15716077D-04
 -0.17892198D-04 -0.18931403D-04  0.18483858D-05  0.31352122D-05  0.35693283D-05
  0.29650132D-04
MO    4     MO 0.0        OCC NO =    2.0000000  ORB. ENERGY =  -10.455298
  0.85855576D-05  0.15838677D-04  0.25568536D-04  0.33282637D-04  0.28400135D-04
  0.98058840D-05 -0.29401321D-04 -0.13551042D-04  0.37998536D-04  0.20966127D-05
  0.16075496D-05  0.80227992D-06 -0.48512526D-05 -0.37196328D-05 -0.18563575D-05
 -0.12050847D-07 -0.92398252D-08 -0.46113204D-08 -0.22773571D-03 -0.15645191D-03
 -0.29561050D-04  0.68747769D-08 -0.25020838D-04 -0.10123339D-05  0.70826947D-05
 -0.27513557D-05 -0.67643230D-08  0.43144705D-08 -0.25516628D-04 -0.47073196D-04
 -0.75990734D-04 -0.98917357D-04 -0.84406360D-04 -0.29143488D-04  0.94747631D-04
  0.43669097D-04 -0.12245270D-03 -0.95902447D-05 -0.73531913D-05 -0.36697578D-05
 -0.18386531D-04 -0.14097626D-04 -0.70357034D-05  0.17899236D-07  0.13723999D-07
  0.68492374D-08  0.50096105D-03  0.18593067D-03  0.12289380D-03 -0.34834314D-10
  0.71087222D-04 -0.12300570D-04 -0.98305512D-04  0.31902914D-05  0.15840125D-07
 -0.53362794D-08 -0.49531379D-05 -0.91375722D-05 -0.14750875D-04 -0.19201256D-04
 -0.16384467D-04 -0.56571625D-05  0.31247336D-04  0.14401869D-04 -0.40384343D-04
 -0.18738089D-03 -0.14367178D-03 -0.71702288D-04 -0.37757380D-04 -0.28949964D-04
 -0.14448061D-04 -0.26960508D-07 -0.20671607D-07 -0.10316581D-07 -0.12729676D-03
  0.24348349D-03  0.18977085D-03  0.21937628D-07 -0.10993809D-03  0.81555590D-04
 -0.78736207D-04 -0.49291651D-04 -0.71328288D-08  0.37372288D-07  0.40119792D-02
  0.74013182D-02  0.11948022D-01  0.15552775D-01  0.13271211D-01  0.45822303D-02
 -0.74002211D-04 -0.34107552D-04  0.95641135D-04 -0.33301581D-03 -0.25533540D-03
 -0.12743026D-03 -0.64654835D-04 -0.49573226D-04 -0.24740514D-04  0.65714385D-07
  0.50385623D-07  0.25145957D-07  0.72088078D-03  0.48895117D-03  0.22810211D-03
 -0.89003682D-08 -0.48997948D-03 -0.30878253D-03 -0.22516805D-03 -0.87684418D-04
  0.63778709D-07 -0.31972471D-08  0.13947892D-04  0.25731137D-04  0.41538033D-04
  0.54070176D-04  0.46138179D-04  0.15930405D-04  0.14773878D-04  0.68092667D-05
 -0.19093895D-04 -0.12450044D-03 -0.95459043D-04 -0.47640753D-04 -0.38999554D-04
 -0.29902384D-04 -0.14923385D-04 -0.50951367D-07 -0.39066276D-07 -0.19496810D-07
 -0.27138586D-03  0.14919659D-03  0.20801638D-04  0.37704024D-07 -0.39814866D-04
  0.13502689D-03 -0.42558765D-04 -0.87539342D-04  0.32530093D-07 -0.10437381D-07
 -0.31298361D-04 -0.57739365D-04 -0.93209238D-04 -0.12133073D-03 -0.10353173D-03
 -0.35747020D-04  0.84964605D-04  0.39160109D-04 -0.10980903D-03 -0.32043518D-04
 -0.24568937D-04 -0.12261621D-04  0.77291909D-05  0.59262533D-05  0.29576158D-05
  0.19761102D-07  0.15151559D-07  0.75616900D-08  0.41387561D-03  0.19438647D-03
 -0.86877902D-04 -0.14025865D-07  0.41060121D-04 -0.19576695D-04 -0.97306029D-04
  0.77450309D-05 -0.12743291D-07  0.15454727D-07 -0.13358983D-04 -0.22659364D-04
 -0.25796885D-04  0.93148558D-05 -0.11137483D-03 -0.20498914D-03 -0.33171112D-03
 -0.43604356D-03 -0.37399202D-03 -0.12787422D-03  0.14297113D-03  0.63793439D-04
 -0.18838288D-03  0.26312837D-03  0.20272623D-03  0.89007732D-04 -0.28951626D-03
 -0.22305667D-03 -0.97933892D-04 -0.15398784D-06 -0.11863933D-06 -0.52089055D-07
  0.52775074D-03 -0.30034713D-04 -0.14981791D-04 -0.27089771D-07 -0.38158589D-03
 -0.51744473D-03 -0.12045889D-04  0.63105729D-03  0.60353595D-06 -0.77883186D-06
 -0.80206408D-05 -0.14762261D-04 -0.23888124D-04 -0.31401608D-04 -0.26932977D-04
 -0.92088422D-05  0.21543404D-04  0.96126251D-05 -0.28386211D-04  0.11306070D-03
  0.87107172D-04  0.38244740D-04 -0.72731684D-04 -0.56035841D-04 -0.24602753D-04
 -0.57322082D-07 -0.44163574D-07 -0.19390188D-07  0.29415719D-04 -0.10306684D-03
 -0.23064546D-04  0.17696239D-08  0.93078830D-05 -0.76102327D-04 -0.53853325D-04
 -0.43320583D-04  0.39330698D-07  0.28803198D-07 -0.18613299D-05 -0.31571678D-05
 -0.35943240D-05  0.50394270D-04  0.53256491D+00  0.98247828D+00  0.15860246D+01
  0.20645327D+01  0.17616695D+01  0.60826215D+00 -0.19885732D-01 -0.91653156D-02
  0.25700502D-01  0.18940364D-03  0.14522270D-03  0.72476304D-04 -0.21466103D-03
 -0.16458846D-03 -0.82141177D-04  0.37299415D-06  0.28598826D-06  0.14272818D-06
 -0.32496867D-02  0.31009776D-03 -0.10652198D-03 -0.21306919D-06 -0.10036581D-01
 -0.98890266D-02 -0.10065627D-01 -0.45484650D-03 -0.36458380D-06  0.30134000D-06
  0.13427906D-04  0.22776271D-04  0.25929979D-04  0.51442688D-03  0.19947324D-05
  0.33834437D-05  0.38519310D-05  0.39197782D-04  0.13417952D-04  0.22759387D-04
  0.25910758D-04  0.51454042D-03  0.32446050D-05  0.55034642D-05  0.62654995D-05
  0.64030099D-04 -0.10996451D-04 -0.20286305D-04 -0.32748387D-04 -0.42628669D-04
 -0.36375121D-04 -0.12559455D-04  0.22758367D-04  0.10489311D-04 -0.29413122D-04
 -0.46244423D-04 -0.35457291D-04 -0.17695673D-04  0.61103123D-05  0.46849999D-05
  0.23381433D-05  0.12707025D-07  0.97429409D-08  0.48624103D-08 -0.23178005D-04
  0.39019905D-05 -0.13945977D-04 -0.17558514D-07 -0.95958020D-05 -0.26202307D-04
 -0.36241917D-04  0.36245921D-05  0.69591490D-09 -0.38904762D-08 -0.24569848D-05
 -0.41675113D-05 -0.47445643D-05 -0.42399444D-05 -0.24573756D-05 -0.41681740D-05