 Entering Link 1 = D:\Gaussian\G16W\l1.exe PID=     43884.
  
 Copyright (c) 1988,1990,1992,1993,1995,1998,2003,2009,2016,
            Gaussian, Inc.  All Rights Reserved.
  
 This is part of the Gaussian(R) 16 program.  It is based on
 the Gaussian(R) 09 system (copyright 2009, Gaussian, Inc.),
 the Gaussian(R) 03 system (copyright 2003, Gaussian, Inc.),
 the Gaussian(R) 98 system (copyright 1998, Gaussian, Inc.),
 the Gaussian(R) 94 system (copyright 1995, Gaussian, Inc.),
 the Gaussian 92(TM) system (copyright 1992, Gaussian, Inc.),
 the Gaussian 90(TM) system (copyright 1990, Gaussian, Inc.),
 the Gaussian 88(TM) system (copyright 1988, Gaussian, Inc.),
 the Gaussian 86(TM) system (copyright 1986, Carnegie Mellon
 University), and the Gaussian 82(TM) system (copyright 1983,
 Carnegie Mellon University). Gaussian is a federally registered
 trademark of Gaussian, Inc.
  
 This software contains proprietary and confidential information,
 including trade secrets, belonging to Gaussian, Inc.
  
 This software is provided under written license and may be
 used, copied, transmitted, or stored only in accord with that
 written license.
  
 The following legend is applicable only to US Government
 contracts under FAR:
  
                    RESTRICTED RIGHTS LEGEND
  
 Use, reproduction and disclosure by the US Government is
 subject to restrictions as set forth in subparagraphs (a)
 and (c) of the Commercial Computer Software - Restricted
 Rights clause in FAR 52.227-19.
  
 Gaussian, Inc.
 340 Quinnipiac St., Bldg. 40, Wallingford CT 06492
  
  
 ---------------------------------------------------------------
 Warning -- This program may not be used in any manner that
 competes with the business of Gaussian, Inc. or will provide
 assistance to any competitor of Gaussian, Inc.  The licensee
 of this program is prohibited from giving any competitor of
 Gaussian, Inc. access to this program.  By using this program,
 the user acknowledges that Gaussian, Inc. is engaged in the
 business of creating and licensing software in the field of
 computational chemistry and represents and warrants to the
 licensee that it is not a competitor of Gaussian, Inc. and that
 it will not use this program in any manner prohibited above.
 ---------------------------------------------------------------
  

 Cite this work as:
 Gaussian 16, Revision A.03,
 M. J. Frisch, G. W. Trucks, H. B. Schlegel, G. E. Scuseria, 
 M. A. Robb, J. R. Cheeseman, G. Scalmani, V. Barone, 
 G. A. Petersson, H. Nakatsuji, X. Li, M. Caricato, A. V. Marenich, 
 J. Bloino, B. G. Janesko, R. Gomperts, B. Mennucci, H. P. Hratchian, 
 J. V. Ortiz, A. F. Izmaylov, J. L. Sonnenberg, D. Williams-Young, 
 F. Ding, F. Lipparini, F. Egidi, J. Goings, B. Peng, A. Petrone, 
 T. Henderson, D. Ranasinghe, V. G. Zakrzewski, J. Gao, N. Rega, 
 G. Zheng, W. Liang, M. Hada, M. Ehara, K. Toyota, R. Fukuda, 
 J. Hasegawa, M. Ishida, T. Nakajima, Y. Honda, O. Kitao, H. Nakai, 
 T. Vreven, K. Throssell, J. A. Montgomery, Jr., J. E. Peralta, 
 F. Ogliaro, M. J. Bearpark, J. J. Heyd, E. N. Brothers, K. N. Kudin, 
 V. N. Staroverov, T. A. Keith, R. Kobayashi, J. Normand, 
 K. Raghavachari, A. P. Rendell, J. C. Burant, S. S. Iyengar, 
 J. Tomasi, M. Cossi, J. M. Millam, M. Klene, C. Adamo, R. Cammi, 
 J. W. Ochterski, R. L. Martin, K. Morokuma, O. Farkas, 
 J. B. Foresman, and D. J. Fox, Gaussian, Inc., Wallingford CT, 2016.
 
 ******************************************
 Gaussian 16:  EM64W-G16RevA.03 17-Dec-2016
                03-Dec-2025 
 ******************************************
 %nprocs=   4
 Will use up to    4 processors via shared memory.
 ------------------------------------
 #P B3LYP/6-31G* SCF=conver=7 out=wfn
 ------------------------------------
 1/38=1,172=1/1;
 2/12=2,17=6,18=5,40=1/2;
 3/5=1,6=6,7=1,11=2,25=1,30=1,74=-5/1,2,3;
 4//1;
 5/5=2,6=7,38=5/2;
 6/7=2,8=2,9=2,10=2,28=1/1;
 99/5=1,6=100,9=1/99;
 Leave Link    1 at Wed Dec 03 17:18:35 2025, MaxMem=           0 cpu:               0.0 elap:               0.1
 (Enter D:\Gaussian\G16W\l101.exe)
 ----------------------------------------------------
 Generated by Multiwfn (http://sobereva.com/multiwfn)
 ----------------------------------------------------
 Symbolic Z-matrix:
 Charge =  1 Multiplicity = 1
 C                    -1.95356  -0.01668  -0.00001 
 C                    -1.02227  -1.05027   0.00002 
 C                     0.35174  -0.78939   0.0001 
 C                     0.81461   0.5457    0.0001 
 C                    -0.13141   1.57621   0.00011 
 C                    -1.49145   1.30995   0.00005 
 H                     0.21295   2.6069    0.00011 
 O                     3.18987  -0.1326   -0.00074 
 O                     1.19731  -1.83976   0.00029 
 H                    -1.33741  -2.08796   0.00002 
 C                     2.28462   0.87424   0.0001 
 H                     2.52194   1.54511  -0.85775 
 H                     2.11315  -1.48478   0.00055 
 H                     2.52219   1.54378   0.85896 
 H                    -2.20351   2.1274    0.00003 
 C                    -3.43138  -0.32361  -0.00012 
 H                    -3.71199  -0.90886  -0.88101 
 H                    -3.71194  -0.9098    0.88016 
 H                    -4.02817   0.5902    0.00038 
 
 ITRead=  0  0  0  0  0  0  0  0  0  0  0  0  0  0  0  0  0  0  0
 MicOpt= -1 -1 -1 -1 -1 -1 -1 -1 -1 -1 -1 -1 -1 -1 -1 -1 -1 -1 -1
 NAtoms=     19 NQM=       19 NQMF=       0 NMMI=      0 NMMIF=      0
                NMic=       0 NMicF=      0.
                    Isotopes and Nuclear Properties:
 (Nuclear quadrupole moments (NQMom) in fm**2, nuclear magnetic moments (NMagM)
  in nuclear magnetons)

  Atom         1           2           3           4           5           6           7           8           9          10
 IAtWgt=          12          12          12          12          12          12           1          16          16           1
 AtmWgt=  12.0000000  12.0000000  12.0000000  12.0000000  12.0000000  12.0000000   1.0078250  15.9949146  15.9949146   1.0078250
 NucSpn=           0           0           0           0           0           0           1           0           0           1
 AtZEff=   0.0000000   0.0000000   0.0000000   0.0000000   0.0000000   0.0000000   0.0000000   0.0000000   0.0000000   0.0000000
 NQMom=    0.0000000   0.0000000   0.0000000   0.0000000   0.0000000   0.0000000   0.0000000   0.0000000   0.0000000   0.0000000
 NMagM=    0.0000000   0.0000000   0.0000000   0.0000000   0.0000000   0.0000000   2.7928460   0.0000000   0.0000000   2.7928460
 AtZNuc=   6.0000000   6.0000000   6.0000000   6.0000000   6.0000000   6.0000000   1.0000000   8.0000000   8.0000000   1.0000000

  Atom        11          12          13          14          15          16          17          18          19
 IAtWgt=          12           1           1           1           1          12           1           1           1
 AtmWgt=  12.0000000   1.0078250   1.0078250   1.0078250   1.0078250  12.0000000   1.0078250   1.0078250   1.0078250
 NucSpn=           0           1           1           1           1           0           1           1           1
 AtZEff=   0.0000000   0.0000000   0.0000000   0.0000000   0.0000000   0.0000000   0.0000000   0.0000000   0.0000000
 NQMom=    0.0000000   0.0000000   0.0000000   0.0000000   0.0000000   0.0000000   0.0000000   0.0000000   0.0000000
 NMagM=    0.0000000   2.7928460   2.7928460   2.7928460   2.7928460   0.0000000   2.7928460   2.7928460   2.7928460
 AtZNuc=   6.0000000   1.0000000   1.0000000   1.0000000   1.0000000   6.0000000   1.0000000   1.0000000   1.0000000
 Leave Link  101 at Wed Dec 03 17:18:35 2025, MaxMem=   104857600 cpu:               0.0 elap:               0.1
 (Enter D:\Gaussian\G16W\l202.exe)
                          Input orientation:                          
 ---------------------------------------------------------------------
 Center     Atomic      Atomic             Coordinates (Angstroms)
 Number     Number       Type             X           Y           Z
 ---------------------------------------------------------------------
      1          6           0       -1.953559   -0.016677   -0.000007
      2          6           0       -1.022267   -1.050271    0.000018
      3          6           0        0.351736   -0.789390    0.000095
      4          6           0        0.814607    0.545703    0.000103
      5          6           0       -0.131414    1.576206    0.000107
      6          6           0       -1.491448    1.309952    0.000053
      7          1           0        0.212945    2.606897    0.000107
      8          8           0        3.189874   -0.132602   -0.000742
      9          8           0        1.197307   -1.839762    0.000292
     10          1           0       -1.337410   -2.087957    0.000022
     11          6           0        2.284616    0.874241    0.000103
     12          1           0        2.521942    1.545110   -0.857752
     13          1           0        2.113149   -1.484781    0.000548
     14          1           0        2.522193    1.543781    0.858959
     15          1           0       -2.203513    2.127397    0.000033
     16          6           0       -3.431381   -0.323608   -0.000115
     17          1           0       -3.711989   -0.908859   -0.881008
     18          1           0       -3.711935   -0.909804    0.880162
     19          1           0       -4.028172    0.590196    0.000383
 ---------------------------------------------------------------------
                    Distance matrix (angstroms):
                    1          2          3          4          5
     1  C    0.000000
     2  C    1.391266   0.000000
     3  C    2.431352   1.398550   0.000000
     4  C    2.824715   2.433360   1.413054   0.000000
     5  C    2.420225   2.773446   2.414431   1.398890   0.000000
     6  C    1.404810   2.406405   2.793665   2.429396   1.385851
     7  H    3.402481   3.860133   3.399122   2.147212   1.086695
     8  O    5.144739   4.310945   2.913142   2.470221   3.735101
     9  O    3.640274   2.355802   1.348433   2.415968   3.665288
    10  H    2.160981   1.084485   2.130608   3.401080   3.857527
    11  C    4.330804   3.826124   2.550234   1.506275   2.515940
    12  H    4.817158   4.475845   3.300846   2.156321   2.788761
    13  H    4.323592   3.165380   1.893712   2.410203   3.795748
    14  H    4.817178   4.475498   3.300336   2.156303   2.789320
    15  H    2.158595   3.390120   3.877750   3.407463   2.144156
    16  C    1.509359   2.516321   3.811683   4.334065   3.807765
    17  H    2.159682   2.833868   4.159865   4.835512   4.446620
    18  H    2.159690   2.833496   4.159620   4.835554   4.446895
    19  H    2.161554   3.424412   4.592042   4.842983   4.019569
                    6          7          8          9         10
     6  C    0.000000
     7  H    2.141733   0.000000
     8  O    4.898545   4.045610   0.000000
     9  O    4.141268   4.554311   2.623875   0.000000
    10  H    3.401399   4.944214   4.931502   2.546839   0.000000
    11  C    3.801119   2.700725   1.353967   2.923705   4.679069
    12  H    4.110770   2.682309   1.998829   3.734736   5.369316
    13  H    4.561102   4.511386   1.728504   0.982231   3.502882
    14  H    4.111169   2.683369   1.998786   3.733764   5.368783
    15  H    1.084091   2.463573   5.847753   5.225316   4.303411
    16  C    2.536111   4.676427   6.624009   4.870675   2.738182
    17  H    3.260398   5.342472   7.000940   5.073900   2.793763
    18  H    3.260747   5.342880   7.001072   5.073426   2.793038
    19  H    2.636857   4.696185   7.254145   5.762840   3.796407
                   11         12         13         14         15
    11  C    0.000000
    12  H    1.114587   0.000000
    13  H    2.365245   3.175536   0.000000
    14  H    1.114612   1.716712   3.174331   0.000000
    15  H    4.659796   4.837849   5.628623   4.838456   0.000000
    16  C    5.840160   6.298389   5.664816   6.298428   2.741366
    17  H    6.317838   6.699582   5.919549   6.921557   3.502939
    18  H    6.317907   6.921573   5.919115   6.699618   3.503506
    19  H    6.319175   6.674747   6.482388   6.674860   2.385868
                   16         17         18         19
    16  C    0.000000
    17  H    1.094181   0.000000
    18  H    1.094177   1.761170   0.000000
    19  H    1.091420   1.767481   1.767489   0.000000
 Stoichiometry    C8H9O2(1+)
 Framework group  C1[X(C8H9O2)]
 Deg. of freedom    51
 Full point group                 C1      NOp   1
 Largest Abelian subgroup         C1      NOp   1
 Largest concise Abelian subgroup C1      NOp   1
                         Standard orientation:                         
 ---------------------------------------------------------------------
 Center     Atomic      Atomic             Coordinates (Angstroms)
 Number     Number       Type             X           Y           Z
 ---------------------------------------------------------------------
      1          6           0       -1.953559   -0.016677   -0.000007
      2          6           0       -1.022267   -1.050271    0.000018
      3          6           0        0.351736   -0.789390    0.000095
      4          6           0        0.814607    0.545703    0.000103
      5          6           0       -0.131414    1.576206    0.000107
      6          6           0       -1.491448    1.309952    0.000053
      7          1           0        0.212945    2.606897    0.000107
      8          8           0        3.189874   -0.132602   -0.000742
      9          8           0        1.197307   -1.839762    0.000292
     10          1           0       -1.337410   -2.087957    0.000022
     11          6           0        2.284616    0.874241    0.000103
     12          1           0        2.521942    1.545110   -0.857752
     13          1           0        2.113149   -1.484781    0.000548
     14          1           0        2.522193    1.543781    0.858959
     15          1           0       -2.203513    2.127397    0.000033
     16          6           0       -3.431381   -0.323608   -0.000115
     17          1           0       -3.711989   -0.908859   -0.881008
     18          1           0       -3.711935   -0.909804    0.880162
     19          1           0       -4.028172    0.590196    0.000383
 ---------------------------------------------------------------------
 Rotational constants (GHZ):           3.0219617           0.9101677           0.7054440
 Leave Link  202 at Wed Dec 03 17:18:35 2025, MaxMem=   104857600 cpu:               0.0 elap:               0.0
 (Enter D:\Gaussian\G16W\l301.exe)
 Standard basis: 6-31G(d) (6D, 7F)
 Ernie: Thresh=  0.10000D-02 Tol=  0.10000D-05 Strict=F.
 There are   168 symmetry adapted cartesian basis functions of A   symmetry.
 There are   168 symmetry adapted basis functions of A   symmetry.
   168 basis functions,   316 primitive gaussians,   168 cartesian basis functions
    36 alpha electrons       36 beta electrons
       nuclear repulsion energy       501.8086437745 Hartrees.
 IExCor=  402 DFT=T Ex+Corr=B3LYP ExCW=0 ScaHFX=  0.200000
 ScaDFX=  0.800000  0.720000  1.000000  0.810000 ScalE2=  1.000000  1.000000
 IRadAn=      5 IRanWt=     -1 IRanGd=            0 ICorTp=0 IEmpDi=  4
 NAtoms=   19 NActive=   19 NUniq=   19 SFac= 1.00D+00 NAtFMM=   60 NAOKFM=F Big=F
 Integral buffers will be    131072 words long.
 Raffenetti 2 integral format.
 Two-electron integral symmetry is turned on.
 Leave Link  301 at Wed Dec 03 17:18:35 2025, MaxMem=   104857600 cpu:               0.0 elap:               0.1
 (Enter D:\Gaussian\G16W\l302.exe)
 NPDir=0 NMtPBC=     1 NCelOv=     1 NCel=       1 NClECP=     1 NCelD=      1
         NCelK=      1 NCelE2=     1 NClLst=     1 CellRange=     0.0.
 One-electron integrals computed using PRISM.
 One-electron integral symmetry used in STVInt
 NBasis=   168 RedAO= T EigKep=  3.91D-04  NBF=   168
 NBsUse=   168 1.00D-06 EigRej= -1.00D+00 NBFU=   168
 Precomputing XC quadrature grid using
 IXCGrd= 4 IRadAn=           5 IRanWt=          -1 IRanGd=           0 AccXCQ= 0.00D+00.
 Generated NRdTot=       0 NPtTot=           0 NUsed=           0 NTot=          32
 NSgBfM=   168   168   168   168   168 MxSgAt=    19 MxSgA2=    19.
 Leave Link  302 at Wed Dec 03 17:18:36 2025, MaxMem=   104857600 cpu:               1.0 elap:               0.4
 (Enter D:\Gaussian\G16W\l303.exe)
 DipDrv:  MaxL=1.
 Leave Link  303 at Wed Dec 03 17:18:36 2025, MaxMem=   104857600 cpu:               0.0 elap:               0.1
 (Enter D:\Gaussian\G16W\l401.exe)
 ExpMin= 1.61D-01 ExpMax= 5.48D+03 ExpMxC= 8.25D+02 IAcc=3 IRadAn=         5 AccDes= 0.00D+00
 Harris functional with IExCor=  402 and IRadAn=       5 diagonalized for initial guess.
 HarFok:  IExCor=  402 AccDes= 0.00D+00 IRadAn=         5 IDoV= 1 UseB2=F ITyADJ=14
 ICtDFT=  3500011 ScaDFX=  1.000000  1.000000  1.000000  1.000000
 FoFCou: FMM=F IPFlag=           0 FMFlag=      100000 FMFlg1=           0
         NFxFlg=           0 DoJE=T BraDBF=F KetDBF=T FulRan=T
         wScrn=  0.000000 ICntrl=       500 IOpCl=  0 I1Cent=   200000004 NGrid=           0
         NMat0=    1 NMatS0=      1 NMatT0=    0 NMatD0=    1 NMtDS0=    0 NMtDT0=    0
 Petite list used in FoFCou.
 Harris En= -460.367104096101    
 JPrj=0 DoOrth=F DoCkMO=F.
 Leave Link  401 at Wed Dec 03 17:18:37 2025, MaxMem=   104857600 cpu:               1.0 elap:               1.1
 (Enter D:\Gaussian\G16W\l502.exe)
 Keep R1 ints in memory in canonical form, NReq=104755543.
 FoFCou: FMM=F IPFlag=           0 FMFlag=           0 FMFlg1=           0
         NFxFlg=           0 DoJE=F BraDBF=F KetDBF=F FulRan=T
         wScrn=  0.000000 ICntrl=       600 IOpCl=  0 I1Cent=           0 NGrid=           0
         NMat0=    1 NMatS0=  14196 NMatT0=    0 NMatD0=    1 NMtDS0=    0 NMtDT0=    0
 Symmetry not used in FoFCou.
 Two-electron integral symmetry not used.
 Closed shell SCF:
 Using DIIS extrapolation, IDIIS=  1040.
 NGot=   104857600 LenX=     4027843 LenY=     3999178
 Requested convergence on RMS density matrix=1.00D-07 within 128 cycles.
 Requested convergence on MAX density matrix=1.00D-05.
 Requested convergence on             energy=1.00D-05.
 No special actions if energy rises.
 Integral accuracy reduced to 1.0D-05 until final iterations.

 Cycle   1  Pass 0  IDiag  1:
 CalDSu:  requested number of processors reduced to:   3 ShMem   1 Linda.
 E= -460.133397393123    
 DIIS: error= 3.03D-02 at cycle   1 NSaved=   1.
 NSaved= 1 IEnMin= 1 EnMin= -460.133397393123     IErMin= 1 ErrMin= 3.03D-02
 ErrMax= 3.03D-02  0.00D+00 EMaxC= 1.00D-01 BMatC= 2.04D-01 BMatP= 2.04D-01
 IDIUse=3 WtCom= 6.97D-01 WtEn= 3.03D-01
 Coeff-Com:  0.100D+01
 Coeff-En:   0.100D+01
 Coeff:      0.100D+01
 Gap=     0.000 Goal=   None    Shift=    0.000
 GapD=    0.000 DampG=0.250 DampE=0.500 DampFc=0.2500 IDamp=-1.
 Damping current iteration by 2.50D-01
 RMSDP=8.13D-03 MaxDP=3.44D-01              OVMax= 6.88D-01

 Cycle   2  Pass 0  IDiag  1:
 CalDSu:  requested number of processors reduced to:   3 ShMem   1 Linda.
 E= -460.190968816085     Delta-E=       -0.057571422962 Rises=F Damp=T
 DIIS: error= 1.64D-02 at cycle   2 NSaved=   2.
 NSaved= 2 IEnMin= 2 EnMin= -460.190968816085     IErMin= 2 ErrMin= 1.64D-02
 ErrMax= 1.64D-02  0.00D+00 EMaxC= 1.00D-01 BMatC= 5.37D-02 BMatP= 2.04D-01
 IDIUse=3 WtCom= 8.36D-01 WtEn= 1.64D-01
 Coeff-Com: -0.139D+00 0.114D+01
 Coeff-En:   0.170D+00 0.830D+00
 Coeff:     -0.886D-01 0.109D+01
 Gap=     0.048 Goal=   None    Shift=    0.000
 RMSDP=4.02D-03 MaxDP=1.56D-01 DE=-5.76D-02 OVMax= 6.64D-01

 Cycle   3  Pass 0  IDiag  1:
 CalDSu:  requested number of processors reduced to:   3 ShMem   1 Linda.
 E= -460.025749836974     Delta-E=        0.165218979111 Rises=F Damp=F
 DIIS: error= 3.34D-02 at cycle   3 NSaved=   3.
 NSaved= 3 IEnMin= 2 EnMin= -460.190968816085     IErMin= 2 ErrMin= 1.64D-02
 ErrMax= 3.34D-02  0.00D+00 EMaxC= 1.00D-01 BMatC= 2.46D-01 BMatP= 5.37D-02
 IDIUse=2 WtCom= 0.00D+00 WtEn= 1.00D+00
 Coeff-En:   0.000D+00 0.719D+00 0.281D+00
 Coeff:      0.000D+00 0.719D+00 0.281D+00
 Gap=     0.039 Goal=   None    Shift=    0.000
 RMSDP=5.78D-03 MaxDP=3.65D-01 DE= 1.65D-01 OVMax= 8.83D-01

 Cycle   4  Pass 0  IDiag  1:
 CalDSu:  requested number of processors reduced to:   3 ShMem   1 Linda.
 E= -459.944779738523     Delta-E=        0.080970098451 Rises=F Damp=F
 DIIS: error= 4.90D-02 at cycle   4 NSaved=   4.
 NSaved= 4 IEnMin= 2 EnMin= -460.190968816085     IErMin= 2 ErrMin= 1.64D-02
 ErrMax= 4.90D-02  0.00D+00 EMaxC= 1.00D-01 BMatC= 3.04D-01 BMatP= 5.37D-02
 IDIUse=2 WtCom= 0.00D+00 WtEn= 1.00D+00
 EnCoef did     3 forward-backward iterations
 Coeff-En:   0.666D-01 0.000D+00 0.490D+00 0.444D+00
 Coeff:      0.666D-01 0.000D+00 0.490D+00 0.444D+00
 Gap=     0.063 Goal=   None    Shift=    0.000
 RMSDP=3.68D-03 MaxDP=2.18D-01 DE= 8.10D-02 OVMax= 4.88D-01

 Cycle   5  Pass 0  IDiag  1:
 CalDSu:  requested number of processors reduced to:   3 ShMem   1 Linda.
 E= -460.312553923042     Delta-E=       -0.367774184519 Rises=F Damp=F
 DIIS: error= 8.37D-03 at cycle   5 NSaved=   5.
 NSaved= 5 IEnMin= 5 EnMin= -460.312553923042     IErMin= 5 ErrMin= 8.37D-03
 ErrMax= 8.37D-03  0.00D+00 EMaxC= 1.00D-01 BMatC= 1.80D-02 BMatP= 5.37D-02
 IDIUse=3 WtCom= 9.16D-01 WtEn= 8.37D-02
 Coeff-Com: -0.415D+00 0.601D+00 0.161D+00-0.424D-01 0.695D+00
 Coeff-En:   0.000D+00 0.000D+00 0.000D+00 0.290D-01 0.971D+00
 Coeff:     -0.380D+00 0.551D+00 0.148D+00-0.364D-01 0.718D+00
 Gap=     0.045 Goal=   None    Shift=    0.000
 RMSDP=1.05D-03 MaxDP=4.75D-02 DE=-3.68D-01 OVMax= 8.23D-02

 Cycle   6  Pass 0  IDiag  1:
 CalDSu:  requested number of processors reduced to:   3 ShMem   1 Linda.
 E= -460.316528542802     Delta-E=       -0.003974619760 Rises=F Damp=F
 DIIS: error= 1.14D-02 at cycle   6 NSaved=   6.
 NSaved= 6 IEnMin= 6 EnMin= -460.316528542802     IErMin= 5 ErrMin= 8.37D-03
 ErrMax= 1.14D-02  0.00D+00 EMaxC= 1.00D-01 BMatC= 1.13D-02 BMatP= 1.80D-02
 IDIUse=3 WtCom= 9.16D-01 WtEn= 8.37D-02
 EnCoef did     4 forward-backward iterations
 Coeff-Com: -0.295D+00 0.410D+00 0.115D+00-0.665D-01 0.544D+00 0.293D+00
 Coeff-En:   0.000D+00 0.000D+00 0.988D-02 0.000D+00 0.410D+00 0.580D+00
 Coeff:     -0.270D+00 0.376D+00 0.107D+00-0.609D-01 0.532D+00 0.317D+00
 Gap=     0.046 Goal=   None    Shift=    0.000
 RMSDP=5.59D-04 MaxDP=2.60D-02 DE=-3.97D-03 OVMax= 6.89D-02

 Cycle   7  Pass 0  IDiag  1:
 CalDSu:  requested number of processors reduced to:   3 ShMem   1 Linda.
 E= -460.328545087985     Delta-E=       -0.012016545184 Rises=F Damp=F
 DIIS: error= 2.20D-03 at cycle   7 NSaved=   7.
 NSaved= 7 IEnMin= 7 EnMin= -460.328545087985     IErMin= 7 ErrMin= 2.20D-03
 ErrMax= 2.20D-03  0.00D+00 EMaxC= 1.00D-01 BMatC= 4.80D-04 BMatP= 1.13D-02
 IDIUse=3 WtCom= 9.78D-01 WtEn= 2.20D-02
 Coeff-Com:  0.391D-01-0.552D-01 0.108D-01-0.134D-01 0.169D-01 0.943D-01
 Coeff-Com:  0.908D+00
 Coeff-En:   0.000D+00 0.000D+00 0.000D+00 0.000D+00 0.000D+00 0.000D+00
 Coeff-En:   0.100D+01
 Coeff:      0.382D-01-0.540D-01 0.106D-01-0.131D-01 0.165D-01 0.922D-01
 Coeff:      0.910D+00
 Gap=     0.049 Goal=   None    Shift=    0.000
 RMSDP=1.13D-04 MaxDP=3.02D-03 DE=-1.20D-02 OVMax= 7.32D-03

 Cycle   8  Pass 0  IDiag  1:
 CalDSu:  requested number of processors reduced to:   3 ShMem   1 Linda.
 E= -460.328842899136     Delta-E=       -0.000297811151 Rises=F Damp=F
 DIIS: error= 1.25D-03 at cycle   8 NSaved=   8.
 NSaved= 8 IEnMin= 8 EnMin= -460.328842899136     IErMin= 8 ErrMin= 1.25D-03
 ErrMax= 1.25D-03  0.00D+00 EMaxC= 1.00D-01 BMatC= 1.57D-04 BMatP= 4.80D-04
 IDIUse=3 WtCom= 9.88D-01 WtEn= 1.25D-02
 Coeff-Com:  0.725D-01-0.101D+00-0.482D-02 0.139D-02-0.631D-01 0.801D-02
 Coeff-Com:  0.544D+00 0.543D+00
 Coeff-En:   0.000D+00 0.000D+00 0.000D+00 0.000D+00 0.000D+00 0.000D+00
 Coeff-En:   0.000D+00 0.100D+01
 Coeff:      0.716D-01-0.998D-01-0.476D-02 0.137D-02-0.623D-01 0.791D-02
 Coeff:      0.537D+00 0.549D+00
 Gap=     0.049 Goal=   None    Shift=    0.000
 RMSDP=7.91D-05 MaxDP=3.35D-03 DE=-2.98D-04 OVMax= 9.64D-03

 Cycle   9  Pass 0  IDiag  1:
 CalDSu:  requested number of processors reduced to:   3 ShMem   1 Linda.
 E= -460.329004294365     Delta-E=       -0.000161395229 Rises=F Damp=F
 DIIS: error= 1.78D-04 at cycle   9 NSaved=   9.
 NSaved= 9 IEnMin= 9 EnMin= -460.329004294365     IErMin= 9 ErrMin= 1.78D-04
 ErrMax= 1.78D-04  0.00D+00 EMaxC= 1.00D-01 BMatC= 6.24D-06 BMatP= 1.57D-04
 IDIUse=3 WtCom= 9.98D-01 WtEn= 1.78D-03
 Coeff-Com:  0.238D-01-0.326D-01-0.221D-02 0.959D-03-0.242D-01 0.476D-02
 Coeff-Com:  0.842D-01 0.233D+00 0.712D+00
 Coeff-En:   0.000D+00 0.000D+00 0.000D+00 0.000D+00 0.000D+00 0.000D+00
 Coeff-En:   0.000D+00 0.000D+00 0.100D+01
 Coeff:      0.238D-01-0.325D-01-0.221D-02 0.957D-03-0.242D-01 0.476D-02
 Coeff:      0.841D-01 0.233D+00 0.712D+00
 Gap=     0.049 Goal=   None    Shift=    0.000
 RMSDP=2.23D-05 MaxDP=5.93D-04 DE=-1.61D-04 OVMax= 1.51D-03

 Cycle  10  Pass 0  IDiag  1:
 CalDSu:  requested number of processors reduced to:   3 ShMem   1 Linda.
 E= -460.329010837968     Delta-E=       -0.000006543603 Rises=F Damp=F
 DIIS: error= 1.02D-04 at cycle  10 NSaved=  10.
 NSaved=10 IEnMin=10 EnMin= -460.329010837968     IErMin=10 ErrMin= 1.02D-04
 ErrMax= 1.02D-04  0.00D+00 EMaxC= 1.00D-01 BMatC= 1.64D-06 BMatP= 6.24D-06
 IDIUse=3 WtCom= 9.99D-01 WtEn= 1.02D-03
 Coeff-Com:  0.215D-02-0.251D-02-0.462D-03-0.472D-04-0.268D-02 0.712D-02
 Coeff-Com: -0.145D-01 0.441D-01 0.317D+00 0.650D+00
 Coeff-En:   0.000D+00 0.000D+00 0.000D+00 0.000D+00 0.000D+00 0.000D+00
 Coeff-En:   0.000D+00 0.000D+00 0.000D+00 0.100D+01
 Coeff:      0.214D-02-0.250D-02-0.462D-03-0.471D-04-0.267D-02 0.711D-02
 Coeff:     -0.145D-01 0.441D-01 0.317D+00 0.650D+00
 Gap=     0.049 Goal=   None    Shift=    0.000
 RMSDP=1.01D-05 MaxDP=2.61D-04 DE=-6.54D-06 OVMax= 1.10D-03

 Cycle  11  Pass 0  IDiag  1:
 CalDSu:  requested number of processors reduced to:   3 ShMem   1 Linda.
 E= -460.329012008030     Delta-E=       -0.000001170063 Rises=F Damp=F
 DIIS: error= 8.77D-05 at cycle  11 NSaved=  11.
 NSaved=11 IEnMin=11 EnMin= -460.329012008030     IErMin=11 ErrMin= 8.77D-05
 ErrMax= 8.77D-05  0.00D+00 EMaxC= 1.00D-01 BMatC= 8.88D-07 BMatP= 1.64D-06
 IDIUse=1 WtCom= 1.00D+00 WtEn= 0.00D+00
 Coeff-Com: -0.655D-04 0.376D-03-0.422D-03 0.333D-04-0.378D-03 0.584D-02
 Coeff-Com: -0.474D-02 0.458D-02 0.774D-01 0.407D+00 0.510D+00
 Coeff:     -0.655D-04 0.376D-03-0.422D-03 0.333D-04-0.378D-03 0.584D-02
 Coeff:     -0.474D-02 0.458D-02 0.774D-01 0.407D+00 0.510D+00
 Gap=     0.049 Goal=   None    Shift=    0.000
 RMSDP=3.69D-06 MaxDP=7.33D-05 DE=-1.17D-06 OVMax= 2.14D-04

 Initial convergence to 1.0D-05 achieved.  Increase integral accuracy.
 Cycle  12  Pass 1  IDiag  1:
 CalDSu:  requested number of processors reduced to:   3 ShMem   1 Linda.
 E= -460.329009718451     Delta-E=        0.000002289580 Rises=F Damp=F
 DIIS: error= 8.11D-05 at cycle   1 NSaved=   1.
 NSaved= 1 IEnMin= 1 EnMin= -460.329009718451     IErMin= 1 ErrMin= 8.11D-05
 ErrMax= 8.11D-05  0.00D+00 EMaxC= 1.00D-01 BMatC= 4.33D-07 BMatP= 4.33D-07
 IDIUse=1 WtCom= 1.00D+00 WtEn= 0.00D+00
 Coeff-Com:  0.100D+01
 Coeff:      0.100D+01
 Gap=     0.049 Goal=   None    Shift=    0.000
 RMSDP=3.69D-06 MaxDP=7.33D-05 DE= 2.29D-06 OVMax= 4.76D-03

 Cycle  13  Pass 1  IDiag  1:
 CalDSu:  requested number of processors reduced to:   3 ShMem   1 Linda.
 E= -460.328976221187     Delta-E=        0.000033497264 Rises=F Damp=F
 DIIS: error= 7.13D-04 at cycle   2 NSaved=   2.
 NSaved= 2 IEnMin= 1 EnMin= -460.329009718451     IErMin= 1 ErrMin= 8.11D-05
 ErrMax= 7.13D-04  0.00D+00 EMaxC= 1.00D-01 BMatC= 3.03D-05 BMatP= 4.33D-07
 IDIUse=3 WtCom= 2.72D-01 WtEn= 7.28D-01
 Coeff-Com:  0.896D+00 0.104D+00
 Coeff-En:   0.941D+00 0.592D-01
 Coeff:      0.929D+00 0.713D-01
 Gap=     0.049 Goal=   None    Shift=    0.000
 RMSDP=2.16D-05 MaxDP=1.38D-03 DE= 3.35D-05 OVMax= 2.78D-03

 Cycle  14  Pass 1  IDiag  1:
 CalDSu:  requested number of processors reduced to:   3 ShMem   1 Linda.
 E= -460.329006944277     Delta-E=       -0.000030723090 Rises=F Damp=F
 DIIS: error= 2.15D-04 at cycle   3 NSaved=   3.
 NSaved= 3 IEnMin= 1 EnMin= -460.329009718451     IErMin= 1 ErrMin= 8.11D-05
 ErrMax= 2.15D-04  0.00D+00 EMaxC= 1.00D-01 BMatC= 2.91D-06 BMatP= 4.33D-07
 IDIUse=3 WtCom= 4.05D-01 WtEn= 5.95D-01
 Coeff-Com:  0.584D+00-0.881D-01 0.504D+00
 Coeff-En:   0.748D+00 0.000D+00 0.252D+00
 Coeff:      0.681D+00-0.357D-01 0.354D+00
 Gap=     0.049 Goal=   None    Shift=    0.000
 RMSDP=8.30D-06 MaxDP=5.26D-04 DE=-3.07D-05 OVMax= 9.76D-04

 Cycle  15  Pass 1  IDiag  1:
 CalDSu:  requested number of processors reduced to:   3 ShMem   1 Linda.
 E= -460.329010205022     Delta-E=       -0.000003260745 Rises=F Damp=F
 DIIS: error= 3.05D-05 at cycle   4 NSaved=   4.
 NSaved= 4 IEnMin= 4 EnMin= -460.329010205022     IErMin= 4 ErrMin= 3.05D-05
 ErrMax= 3.05D-05  0.00D+00 EMaxC= 1.00D-01 BMatC= 5.87D-08 BMatP= 4.33D-07
 IDIUse=1 WtCom= 1.00D+00 WtEn= 0.00D+00
 Coeff-Com:  0.227D+00-0.465D-01 0.141D+00 0.678D+00
 Coeff:      0.227D+00-0.465D-01 0.141D+00 0.678D+00
 Gap=     0.049 Goal=   None    Shift=    0.000
 RMSDP=1.55D-06 MaxDP=8.71D-05 DE=-3.26D-06 OVMax= 2.38D-04

 Cycle  16  Pass 1  IDiag  1:
 CalDSu:  requested number of processors reduced to:   3 ShMem   1 Linda.
 E= -460.329010276738     Delta-E=       -0.000000071716 Rises=F Damp=F
 DIIS: error= 4.03D-06 at cycle   5 NSaved=   5.
 NSaved= 5 IEnMin= 5 EnMin= -460.329010276738     IErMin= 5 ErrMin= 4.03D-06
 ErrMax= 4.03D-06  0.00D+00 EMaxC= 1.00D-01 BMatC= 1.53D-09 BMatP= 5.87D-08
 IDIUse=1 WtCom= 1.00D+00 WtEn= 0.00D+00
 Coeff-Com: -0.175D+00-0.353D-01 0.369D-01 0.100D+00 0.107D+01
 Coeff:     -0.175D+00-0.353D-01 0.369D-01 0.100D+00 0.107D+01
 Gap=     0.049 Goal=   None    Shift=    0.000
 RMSDP=1.09D-06 MaxDP=2.43D-05 DE=-7.17D-08 OVMax= 1.45D-04

 Cycle  17  Pass 1  IDiag  1:
 CalDSu:  requested number of processors reduced to:   3 ShMem   1 Linda.
 E= -460.329010281693     Delta-E=       -0.000000004955 Rises=F Damp=F
 DIIS: error= 1.95D-06 at cycle   6 NSaved=   6.
 NSaved= 6 IEnMin= 6 EnMin= -460.329010281693     IErMin= 6 ErrMin= 1.95D-06
 ErrMax= 1.95D-06  0.00D+00 EMaxC= 1.00D-01 BMatC= 4.28D-10 BMatP= 1.53D-09
 IDIUse=1 WtCom= 1.00D+00 WtEn= 0.00D+00
 Coeff-Com: -0.114D+00-0.244D-01 0.475D-01-0.996D-01 0.549D+00 0.641D+00
 Coeff:     -0.114D+00-0.244D-01 0.475D-01-0.996D-01 0.549D+00 0.641D+00
 Gap=     0.049 Goal=   None    Shift=    0.000
 RMSDP=2.46D-07 MaxDP=4.03D-06 DE=-4.95D-09 OVMax= 2.79D-05

 Cycle  18  Pass 1  IDiag  1:
 CalDSu:  requested number of processors reduced to:   3 ShMem   1 Linda.
 E= -460.329010282283     Delta-E=       -0.000000000590 Rises=F Damp=F
 DIIS: error= 3.51D-07 at cycle   7 NSaved=   7.
 NSaved= 7 IEnMin= 7 EnMin= -460.329010282283     IErMin= 7 ErrMin= 3.51D-07
 ErrMax= 3.51D-07  0.00D+00 EMaxC= 1.00D-01 BMatC= 2.85D-11 BMatP= 4.28D-10
 IDIUse=1 WtCom= 1.00D+00 WtEn= 0.00D+00
 Coeff-Com: -0.358D-02-0.848D-02 0.367D-01-0.946D-01 0.246D-01 0.328D+00
 Coeff-Com:  0.717D+00
 Coeff:     -0.358D-02-0.848D-02 0.367D-01-0.946D-01 0.246D-01 0.328D+00
 Coeff:      0.717D+00
 Gap=     0.049 Goal=   None    Shift=    0.000
 RMSDP=7.17D-08 MaxDP=1.61D-06 DE=-5.90D-10 OVMax= 1.04D-05

 SCF Done:  E(RB3LYP) =  -460.329010282     A.U. after   18 cycles
            NFock= 18  Conv=0.72D-07     -V/T= 2.0093
 KE= 4.560833147306D+02 PE=-2.061710427378D+03 EE= 6.434894585905D+02
 Leave Link  502 at Wed Dec 03 17:18:59 2025, MaxMem=   104857600 cpu:              22.0 elap:              22.1
 (Enter D:\Gaussian\G16W\l601.exe)
 Copying SCF densities to generalized density rwf, IOpCl= 0 IROHF=0.

 **********************************************************************

            Population analysis using the SCF density.

 **********************************************************************

 Orbital symmetries:
       Occupied  (A) (A) (A) (A) (A) (A) (A) (A) (A) (A) (A) (A)
                 (A) (A) (A) (A) (A) (A) (A) (A) (A) (A) (A) (A)
                 (A) (A) (A) (A) (A) (A) (A) (A) (A) (A) (A) (A)
       Virtual   (A) (A) (A) (A) (A) (A) (A) (A) (A) (A) (A) (A)
                 (A) (A) (A) (A) (A) (A) (A) (A) (A) (A) (A) (A)
                 (A) (A) (A) (A) (A) (A) (A) (A) (A) (A) (A) (A)
                 (A) (A) (A) (A) (A) (A) (A) (A) (A) (A) (A) (A)
                 (A) (A) (A) (A) (A) (A) (A) (A) (A) (A) (A) (A)
                 (A) (A) (A) (A) (A) (A) (A) (A) (A) (A) (A) (A)
                 (A) (A) (A) (A) (A) (A) (A) (A) (A) (A) (A) (A)
                 (A) (A) (A) (A) (A) (A) (A) (A) (A) (A) (A) (A)
                 (A) (A) (A) (A) (A) (A) (A) (A) (A) (A) (A) (A)
                 (A) (A) (A) (A) (A) (A) (A) (A) (A) (A) (A) (A)
                 (A) (A) (A) (A) (A) (A) (A) (A) (A) (A) (A) (A)
 The electronic state is 1-A.
 Alpha  occ. eigenvalues --  -19.40108 -19.35233 -10.48406 -10.45530 -10.43824
 Alpha  occ. eigenvalues --  -10.41439 -10.40505 -10.39808 -10.38038 -10.34544
 Alpha  occ. eigenvalues --   -1.27801  -1.18786  -1.07144  -0.98795  -0.95003
 Alpha  occ. eigenvalues --   -0.89877  -0.84236  -0.81379  -0.80872  -0.71361
 Alpha  occ. eigenvalues --   -0.70558  -0.67788  -0.66955  -0.63841  -0.62190
 Alpha  occ. eigenvalues --   -0.61408  -0.60863  -0.59198  -0.58158  -0.56076
 Alpha  occ. eigenvalues --   -0.54768  -0.53776  -0.52763  -0.45784  -0.45040
 Alpha  occ. eigenvalues --   -0.43098
 Alpha virt. eigenvalues --   -0.38225  -0.20781  -0.19132  -0.07842  -0.07053
 Alpha virt. eigenvalues --   -0.06228  -0.03924  -0.02128  -0.01240   0.00192
 Alpha virt. eigenvalues --    0.00567   0.00987   0.02643   0.04445   0.06398
 Alpha virt. eigenvalues --    0.08400   0.09503   0.13220   0.15393   0.17271
 Alpha virt. eigenvalues --    0.18416   0.27457   0.29411   0.31479   0.33232
 Alpha virt. eigenvalues --    0.34734   0.35735   0.36287   0.37976   0.40728
 Alpha virt. eigenvalues --    0.41086   0.41402   0.42448   0.44101   0.47178
 Alpha virt. eigenvalues --    0.47990   0.51828   0.52525   0.53715   0.54305
 Alpha virt. eigenvalues --    0.54319   0.57888   0.60649   0.63328   0.63917
 Alpha virt. eigenvalues --    0.68474   0.69035   0.70954   0.72775   0.72838
 Alpha virt. eigenvalues --    0.75010   0.76060   0.78161   0.79625   0.81080
 Alpha virt. eigenvalues --    0.82613   0.83007   0.87455   0.88248   0.93698
 Alpha virt. eigenvalues --    0.97827   0.98081   1.02158   1.02690   1.04387
 Alpha virt. eigenvalues --    1.06853   1.13158   1.15230   1.18753   1.19864
 Alpha virt. eigenvalues --    1.20742   1.24384   1.24852   1.28666   1.30336
 Alpha virt. eigenvalues --    1.41007   1.49854   1.50583   1.54629   1.55431
 Alpha virt. eigenvalues --    1.56381   1.57907   1.59374   1.61553   1.66567
 Alpha virt. eigenvalues --    1.70776   1.71205   1.71296   1.74158   1.76302
 Alpha virt. eigenvalues --    1.77331   1.78561   1.85556   1.89025   1.89764
 Alpha virt. eigenvalues --    1.90644   1.98295   2.00101   2.05160   2.06953
 Alpha virt. eigenvalues --    2.09879   2.11312   2.14293   2.15907   2.18196
 Alpha virt. eigenvalues --    2.18277   2.23796   2.25368   2.29337   2.34046
 Alpha virt. eigenvalues --    2.41404   2.45397   2.45672   2.54457   2.58112
 Alpha virt. eigenvalues --    2.62441   2.65525   2.68746   2.72709   2.81495
 Alpha virt. eigenvalues --    2.97609   3.21457   3.70216   3.79444   3.88437
 Alpha virt. eigenvalues --    3.91821   3.98333   4.05057   4.10661   4.22686
 Alpha virt. eigenvalues --    4.26162   4.56980
          Condensed to atoms (all electrons):
               1          2          3          4          5          6
     1  C    4.643755   0.528577   0.004830  -0.020121  -0.031542   0.480008
     2  C    0.528577   5.081569   0.476145  -0.084373  -0.042417  -0.039357
     3  C    0.004830   0.476145   4.582389   0.393753  -0.021393  -0.037455
     4  C   -0.020121  -0.084373   0.393753   5.159566   0.435889  -0.022077
     5  C   -0.031542  -0.042417  -0.021393   0.435889   5.004909   0.510454
     6  C    0.480008  -0.039357  -0.037455  -0.022077   0.510454   4.935631
     7  H    0.003294   0.000585   0.002677  -0.050849   0.368929  -0.024439
     8  O   -0.000010   0.000243  -0.007261  -0.049729   0.002835  -0.000040
     9  O    0.002279  -0.055423   0.345475  -0.053251   0.004044   0.000044
    10  H   -0.038947   0.358230  -0.032506   0.006531   0.000095   0.004787
    11  C    0.000039   0.006439  -0.047322   0.249274  -0.042020   0.003685
    12  H   -0.000009  -0.000069   0.000551  -0.040302   0.001912  -0.000270
    13  H   -0.000151   0.003986  -0.018270  -0.010701   0.000687  -0.000019
    14  H   -0.000009  -0.000069   0.000544  -0.040239   0.001903  -0.000271
    15  H   -0.033838   0.005014   0.000333   0.003114  -0.033618   0.361416
    16  C    0.359720  -0.058309   0.004871   0.000367   0.007001  -0.049381
    17  H   -0.022324  -0.003817  -0.000072   0.000010  -0.000207   0.001426
    18  H   -0.022335  -0.003815  -0.000072   0.000010  -0.000207   0.001430
    19  H   -0.031720   0.003832  -0.000163   0.000005   0.000333  -0.002707
               7          8          9         10         11         12
     1  C    0.003294  -0.000010   0.002279  -0.038947   0.000039  -0.000009
     2  C    0.000585   0.000243  -0.055423   0.358230   0.006439  -0.000069
     3  C    0.002677  -0.007261   0.345475  -0.032506  -0.047322   0.000551
     4  C   -0.050849  -0.049729  -0.053251   0.006531   0.249274  -0.040302
     5  C    0.368929   0.002835   0.004044   0.000095  -0.042020   0.001912
     6  C   -0.024439  -0.000040   0.000044   0.004787   0.003685  -0.000270
     7  H    0.497783   0.000072  -0.000040   0.000014  -0.003104   0.001864
     8  O    0.000072   8.159172  -0.029922   0.000009   0.264327  -0.023804
     9  O   -0.000040  -0.029922   8.123346  -0.001272  -0.004525  -0.000523
    10  H    0.000014   0.000009  -0.001272   0.490281  -0.000104   0.000002
    11  C   -0.003104   0.264327  -0.004525  -0.000104   5.056625   0.325679
    12  H    0.001864  -0.023804  -0.000523   0.000002   0.325679   0.438901
    13  H    0.000009   0.086380   0.192999   0.000100  -0.011039   0.001468
    14  H    0.001858  -0.023779  -0.000524   0.000002   0.325591  -0.009919
    15  H   -0.003747   0.000000   0.000002  -0.000101  -0.000079   0.000000
    16  C   -0.000157   0.000000  -0.000049  -0.006133   0.000000   0.000000
    17  H    0.000002   0.000000   0.000001   0.001336   0.000000   0.000000
    18  H    0.000002   0.000000   0.000001   0.001339   0.000000   0.000000
    19  H   -0.000002   0.000000   0.000000   0.000078   0.000000   0.000000
              13         14         15         16         17         18
     1  C   -0.000151  -0.000009  -0.033838   0.359720  -0.022324  -0.022335
     2  C    0.003986  -0.000069   0.005014  -0.058309  -0.003817  -0.003815
     3  C   -0.018270   0.000544   0.000333   0.004871  -0.000072  -0.000072
     4  C   -0.010701  -0.040239   0.003114   0.000367   0.000010   0.000010
     5  C    0.000687   0.001903  -0.033618   0.007001  -0.000207  -0.000207
     6  C   -0.000019  -0.000271   0.361416  -0.049381   0.001426   0.001430
     7  H    0.000009   0.001858  -0.003747  -0.000157   0.000002   0.000002
     8  O    0.086380  -0.023779   0.000000   0.000000   0.000000   0.000000
     9  O    0.192999  -0.000524   0.000002  -0.000049   0.000001   0.000001
    10  H    0.000100   0.000002  -0.000101  -0.006133   0.001336   0.001339
    11  C   -0.011039   0.325591  -0.000079   0.000000   0.000000   0.000000
    12  H    0.001468  -0.009919   0.000000   0.000000   0.000000   0.000000
    13  H    0.276286   0.001465   0.000000   0.000002   0.000000   0.000000
    14  H    0.001465   0.438839   0.000000   0.000000   0.000000   0.000000
    15  H    0.000000   0.000000   0.483350  -0.006418   0.000094   0.000094
    16  C    0.000002   0.000000  -0.006418   5.193601   0.364702   0.364714
    17  H    0.000000   0.000000   0.000094   0.364702   0.473737  -0.019941
    18  H    0.000000   0.000000   0.000094   0.364714  -0.019941   0.473755
    19  H    0.000000   0.000000   0.005007   0.372148  -0.022523  -0.022526
              19
     1  C   -0.031720
     2  C    0.003832
     3  C   -0.000163
     4  C    0.000005
     5  C    0.000333
     6  C   -0.002707
     7  H   -0.000002
     8  O    0.000000
     9  O    0.000000
    10  H    0.000078
    11  C    0.000000
    12  H    0.000000
    13  H    0.000000
    14  H    0.000000
    15  H    0.005007
    16  C    0.372148
    17  H   -0.022523
    18  H   -0.022526
    19  H    0.496022
 Mulliken charges:
               1
     1  C    0.178505
     2  C   -0.176971
     3  C    0.352944
     4  C    0.123125
     5  C   -0.167588
     6  C   -0.122864
     7  H    0.205250
     8  O   -0.378492
     9  O   -0.522664
    10  H    0.216258
    11  C   -0.123465
    12  H    0.304518
    13  H    0.476796
    14  H    0.304607
    15  H    0.219375
    16  C   -0.546679
    17  H    0.227576
    18  H    0.227550
    19  H    0.202218
 Sum of Mulliken charges =   1.00000
 Mulliken charges with hydrogens summed into heavy atoms:
               1
     1  C    0.178505
     2  C    0.039287
     3  C    0.352944
     4  C    0.123125
     5  C    0.037662
     6  C    0.096511
     8  O   -0.378492
     9  O   -0.045868
    11  C    0.485661
    16  C    0.110665
 Electronic spatial extent (au):  <R**2>=           1552.8956
 Charge=              1.0000 electrons
 Dipole moment (field-independent basis, Debye):
    X=             -1.9119    Y=              3.2377    Z=              0.0026  Tot=              3.7601
 Quadrupole moment (field-independent basis, Debye-Ang):
   XX=            -34.0078   YY=            -43.2509   ZZ=            -55.0943
   XY=              5.7939   XZ=              0.0098   YZ=              0.0003
 Traceless Quadrupole moment (field-independent basis, Debye-Ang):
   XX=             10.1099   YY=              0.8667   ZZ=            -10.9766
   XY=              5.7939   XZ=              0.0098   YZ=              0.0003
 Octapole moment (field-independent basis, Debye-Ang**2):
  XXX=            -40.1085  YYY=             11.4769  ZZZ=              0.0003  XYY=              7.9423
  XXY=              9.6058  XXZ=              0.0219  XZZ=              9.6122  YZZ=             -1.8351
  YYZ=              0.0013  XYZ=             -0.0006
 Hexadecapole moment (field-independent basis, Debye-Ang**3):
 XXXX=          -1290.2756 YYYY=           -410.7475 ZZZZ=            -62.5286 XXXY=             30.1469
 XXXZ=              0.0983 YYYX=              3.5679 YYYZ=             -0.0036 ZZZX=              0.0262
 ZZZY=              0.0066 XXYY=           -244.3111 XXZZ=           -229.3739 YYZZ=            -86.2244
 XXYZ=              0.0040 YYXZ=              0.0031 ZZXY=              7.8353
 N-N= 5.018086437745D+02 E-N=-2.061710444124D+03  KE= 4.560833147306D+02
 No NMR shielding tensors so no spin-rotation constants.
 Leave Link  601 at Wed Dec 03 17:18:59 2025, MaxMem=   104857600 cpu:               0.0 elap:               0.2
 (Enter D:\Gaussian\G16W\l9999.exe)
 1|1|UNPC-PC-20250526LCFF|SP|RB3LYP|6-31G(d)|C8H9O2(1+)|ADMINISTRATOR|0
 3-Dec-2025|0||#P B3LYP/6-31G* SCF=conver=7 out=wfn||Generated by Multi
 wfn (http://sobereva.com/multiwfn)||1,1|C,0,-1.953559,-0.016677,-0.000
 007|C,0,-1.022267,-1.050271,0.000018|C,0,0.351736,-0.78939,0.000095|C,
 0,0.814607,0.545703,0.000103|C,0,-0.131414,1.576206,0.000107|C,0,-1.49
 1448,1.309952,0.000053|H,0,0.212945,2.606897,0.000107|O,0,3.189874,-0.
 132602,-0.000742|O,0,1.197307,-1.839762,0.000292|H,0,-1.33741,-2.08795
 7,0.000022|C,0,2.284616,0.874241,0.000103|H,0,2.521942,1.54511,-0.8577
 52|H,0,2.113149,-1.484781,0.000548|H,0,2.522193,1.543781,0.858959|H,0,
 -2.203513,2.127397,0.000033|C,0,-3.431381,-0.323608,-0.000115|H,0,-3.7
 11989,-0.908859,-0.881008|H,0,-3.711935,-0.909804,0.880162|H,0,-4.0281
 72,0.590196,0.000383||Version=EM64W-G16RevA.03|State=1-A|HF=-460.32901
 03|RMSD=7.172e-008|Dipole=-0.7521964,1.2738106,0.0010359|Quadrupole=7.
 5164416,0.6444036,-8.1608452,4.3076344,0.0072783,0.0002285|PG=C01 [X(C
 8H9O2)]||@

 Writing a WFN file to "N-1.wfn"


 IT IS THE BEHAVIOR AND DISTRIBUTION OF THE ELECTRONS 
 AROUND THE NUCLEUS THAT GIVES THE FUNDAMENTAL 
 CHARACTER OF AN ATOM:  IT MUST BE THE SAME FOR MOLECULES.

                               -- C. A. COULSON, 1951
 Job cpu time:       0 days  0 hours  0 minutes 24.0 seconds.
 Elapsed time:       0 days  0 hours  0 minutes 24.2 seconds.
 File lengths (MBytes):  RWF=     15 Int=      0 D2E=      0 Chk=      3 Scr=      1
 Normal termination of Gaussian 16 at Wed Dec 03 17:18:59 2025.
