 Entering Link 1 = D:\Gaussian\G16W\l1.exe PID=      6036.
  
 Copyright (c) 1988,1990,1992,1993,1995,1998,2003,2009,2016,
            Gaussian, Inc.  All Rights Reserved.
  
 This is part of the Gaussian(R) 16 program.  It is based on
 the Gaussian(R) 09 system (copyright 2009, Gaussian, Inc.),
 the Gaussian(R) 03 system (copyright 2003, Gaussian, Inc.),
 the Gaussian(R) 98 system (copyright 1998, Gaussian, Inc.),
 the Gaussian(R) 94 system (copyright 1995, Gaussian, Inc.),
 the Gaussian 92(TM) system (copyright 1992, Gaussian, Inc.),
 the Gaussian 90(TM) system (copyright 1990, Gaussian, Inc.),
 the Gaussian 88(TM) system (copyright 1988, Gaussian, Inc.),
 the Gaussian 86(TM) system (copyright 1986, Carnegie Mellon
 University), and the Gaussian 82(TM) system (copyright 1983,
 Carnegie Mellon University). Gaussian is a federally registered
 trademark of Gaussian, Inc.
  
 This software contains proprietary and confidential information,
 including trade secrets, belonging to Gaussian, Inc.
  
 This software is provided under written license and may be
 used, copied, transmitted, or stored only in accord with that
 written license.
  
 The following legend is applicable only to US Government
 contracts under FAR:
  
                    RESTRICTED RIGHTS LEGEND
  
 Use, reproduction and disclosure by the US Government is
 subject to restrictions as set forth in subparagraphs (a)
 and (c) of the Commercial Computer Software - Restricted
 Rights clause in FAR 52.227-19.
  
 Gaussian, Inc.
 340 Quinnipiac St., Bldg. 40, Wallingford CT 06492
  
  
 ---------------------------------------------------------------
 Warning -- This program may not be used in any manner that
 competes with the business of Gaussian, Inc. or will provide
 assistance to any competitor of Gaussian, Inc.  The licensee
 of this program is prohibited from giving any competitor of
 Gaussian, Inc. access to this program.  By using this program,
 the user acknowledges that Gaussian, Inc. is engaged in the
 business of creating and licensing software in the field of
 computational chemistry and represents and warrants to the
 licensee that it is not a competitor of Gaussian, Inc. and that
 it will not use this program in any manner prohibited above.
 ---------------------------------------------------------------
  

 Cite this work as:
 Gaussian 16, Revision A.03,
 M. J. Frisch, G. W. Trucks, H. B. Schlegel, G. E. Scuseria, 
 M. A. Robb, J. R. Cheeseman, G. Scalmani, V. Barone, 
 G. A. Petersson, H. Nakatsuji, X. Li, M. Caricato, A. V. Marenich, 
 J. Bloino, B. G. Janesko, R. Gomperts, B. Mennucci, H. P. Hratchian, 
 J. V. Ortiz, A. F. Izmaylov, J. L. Sonnenberg, D. Williams-Young, 
 F. Ding, F. Lipparini, F. Egidi, J. Goings, B. Peng, A. Petrone, 
 T. Henderson, D. Ranasinghe, V. G. Zakrzewski, J. Gao, N. Rega, 
 G. Zheng, W. Liang, M. Hada, M. Ehara, K. Toyota, R. Fukuda, 
 J. Hasegawa, M. Ishida, T. Nakajima, Y. Honda, O. Kitao, H. Nakai, 
 T. Vreven, K. Throssell, J. A. Montgomery, Jr., J. E. Peralta, 
 F. Ogliaro, M. J. Bearpark, J. J. Heyd, E. N. Brothers, K. N. Kudin, 
 V. N. Staroverov, T. A. Keith, R. Kobayashi, J. Normand, 
 K. Raghavachari, A. P. Rendell, J. C. Burant, S. S. Iyengar, 
 J. Tomasi, M. Cossi, J. M. Millam, M. Klene, C. Adamo, R. Cammi, 
 J. W. Ochterski, R. L. Martin, K. Morokuma, O. Farkas, 
 J. B. Foresman, and D. J. Fox, Gaussian, Inc., Wallingford CT, 2016.
 
 ******************************************
 Gaussian 16:  EM64W-G16RevA.03 17-Dec-2016
                03-Dec-2025 
 ******************************************
 %nprocs=   4
 Will use up to    4 processors via shared memory.
 ------------------------------------
 #P B3LYP/6-31G* SCF=conver=7 out=wfn
 ------------------------------------
 1/38=1,172=1/1;
 2/12=2,17=6,18=5,40=1/2;
 3/5=1,6=6,7=1,11=2,25=1,30=1,74=-5/1,2,3;
 4//1;
 5/5=2,6=7,38=5/2;
 6/7=2,8=2,9=2,10=2,28=1/1;
 99/5=1,6=100,9=1/99;
 Leave Link    1 at Wed Dec 03 17:16:49 2025, MaxMem=           0 cpu:               0.0 elap:               0.1
 (Enter D:\Gaussian\G16W\l101.exe)
 ----------------------------------------------------
 Generated by Multiwfn (http://sobereva.com/multiwfn)
 ----------------------------------------------------
 Symbolic Z-matrix:
 Charge =  0 Multiplicity = 2
 C                    -1.95356  -0.01668  -0.00001 
 C                    -1.02227  -1.05027   0.00002 
 C                     0.35174  -0.78939   0.0001 
 C                     0.81461   0.5457    0.0001 
 C                    -0.13141   1.57621   0.00011 
 C                    -1.49145   1.30995   0.00005 
 H                     0.21295   2.6069    0.00011 
 O                     3.18987  -0.1326   -0.00074 
 O                     1.19731  -1.83976   0.00029 
 H                    -1.33741  -2.08796   0.00002 
 C                     2.28462   0.87424   0.0001 
 H                     2.52194   1.54511  -0.85775 
 H                     2.11315  -1.48478   0.00055 
 H                     2.52219   1.54378   0.85896 
 H                    -2.20351   2.1274    0.00003 
 C                    -3.43138  -0.32361  -0.00012 
 H                    -3.71199  -0.90886  -0.88101 
 H                    -3.71194  -0.9098    0.88016 
 H                    -4.02817   0.5902    0.00038 
 
 ITRead=  0  0  0  0  0  0  0  0  0  0  0  0  0  0  0  0  0  0  0
 MicOpt= -1 -1 -1 -1 -1 -1 -1 -1 -1 -1 -1 -1 -1 -1 -1 -1 -1 -1 -1
 NAtoms=     19 NQM=       19 NQMF=       0 NMMI=      0 NMMIF=      0
                NMic=       0 NMicF=      0.
                    Isotopes and Nuclear Properties:
 (Nuclear quadrupole moments (NQMom) in fm**2, nuclear magnetic moments (NMagM)
  in nuclear magnetons)

  Atom         1           2           3           4           5           6           7           8           9          10
 IAtWgt=          12          12          12          12          12          12           1          16          16           1
 AtmWgt=  12.0000000  12.0000000  12.0000000  12.0000000  12.0000000  12.0000000   1.0078250  15.9949146  15.9949146   1.0078250
 NucSpn=           0           0           0           0           0           0           1           0           0           1
 AtZEff=   0.0000000   0.0000000   0.0000000   0.0000000   0.0000000   0.0000000   0.0000000   0.0000000   0.0000000   0.0000000
 NQMom=    0.0000000   0.0000000   0.0000000   0.0000000   0.0000000   0.0000000   0.0000000   0.0000000   0.0000000   0.0000000
 NMagM=    0.0000000   0.0000000   0.0000000   0.0000000   0.0000000   0.0000000   2.7928460   0.0000000   0.0000000   2.7928460
 AtZNuc=   6.0000000   6.0000000   6.0000000   6.0000000   6.0000000   6.0000000   1.0000000   8.0000000   8.0000000   1.0000000

  Atom        11          12          13          14          15          16          17          18          19
 IAtWgt=          12           1           1           1           1          12           1           1           1
 AtmWgt=  12.0000000   1.0078250   1.0078250   1.0078250   1.0078250  12.0000000   1.0078250   1.0078250   1.0078250
 NucSpn=           0           1           1           1           1           0           1           1           1
 AtZEff=   0.0000000   0.0000000   0.0000000   0.0000000   0.0000000   0.0000000   0.0000000   0.0000000   0.0000000
 NQMom=    0.0000000   0.0000000   0.0000000   0.0000000   0.0000000   0.0000000   0.0000000   0.0000000   0.0000000
 NMagM=    0.0000000   2.7928460   2.7928460   2.7928460   2.7928460   0.0000000   2.7928460   2.7928460   2.7928460
 AtZNuc=   6.0000000   1.0000000   1.0000000   1.0000000   1.0000000   6.0000000   1.0000000   1.0000000   1.0000000
 Leave Link  101 at Wed Dec 03 17:16:50 2025, MaxMem=   104857600 cpu:               1.0 elap:               0.1
 (Enter D:\Gaussian\G16W\l202.exe)
                          Input orientation:                          
 ---------------------------------------------------------------------
 Center     Atomic      Atomic             Coordinates (Angstroms)
 Number     Number       Type             X           Y           Z
 ---------------------------------------------------------------------
      1          6           0       -1.953559   -0.016677   -0.000007
      2          6           0       -1.022267   -1.050271    0.000018
      3          6           0        0.351736   -0.789390    0.000095
      4          6           0        0.814607    0.545703    0.000103
      5          6           0       -0.131414    1.576206    0.000107
      6          6           0       -1.491448    1.309952    0.000053
      7          1           0        0.212945    2.606897    0.000107
      8          8           0        3.189874   -0.132602   -0.000742
      9          8           0        1.197307   -1.839762    0.000292
     10          1           0       -1.337410   -2.087957    0.000022
     11          6           0        2.284616    0.874241    0.000103
     12          1           0        2.521942    1.545110   -0.857752
     13          1           0        2.113149   -1.484781    0.000548
     14          1           0        2.522193    1.543781    0.858959
     15          1           0       -2.203513    2.127397    0.000033
     16          6           0       -3.431381   -0.323608   -0.000115
     17          1           0       -3.711989   -0.908859   -0.881008
     18          1           0       -3.711935   -0.909804    0.880162
     19          1           0       -4.028172    0.590196    0.000383
 ---------------------------------------------------------------------
                    Distance matrix (angstroms):
                    1          2          3          4          5
     1  C    0.000000
     2  C    1.391266   0.000000
     3  C    2.431352   1.398550   0.000000
     4  C    2.824715   2.433360   1.413054   0.000000
     5  C    2.420225   2.773446   2.414431   1.398890   0.000000
     6  C    1.404810   2.406405   2.793665   2.429396   1.385851
     7  H    3.402481   3.860133   3.399122   2.147212   1.086695
     8  O    5.144739   4.310945   2.913142   2.470221   3.735101
     9  O    3.640274   2.355802   1.348433   2.415968   3.665288
    10  H    2.160981   1.084485   2.130608   3.401080   3.857527
    11  C    4.330804   3.826124   2.550234   1.506275   2.515940
    12  H    4.817158   4.475845   3.300846   2.156321   2.788761
    13  H    4.323592   3.165380   1.893712   2.410203   3.795748
    14  H    4.817178   4.475498   3.300336   2.156303   2.789320
    15  H    2.158595   3.390120   3.877750   3.407463   2.144156
    16  C    1.509359   2.516321   3.811683   4.334065   3.807765
    17  H    2.159682   2.833868   4.159865   4.835512   4.446620
    18  H    2.159690   2.833496   4.159620   4.835554   4.446895
    19  H    2.161554   3.424412   4.592042   4.842983   4.019569
                    6          7          8          9         10
     6  C    0.000000
     7  H    2.141733   0.000000
     8  O    4.898545   4.045610   0.000000
     9  O    4.141268   4.554311   2.623875   0.000000
    10  H    3.401399   4.944214   4.931502   2.546839   0.000000
    11  C    3.801119   2.700725   1.353967   2.923705   4.679069
    12  H    4.110770   2.682309   1.998829   3.734736   5.369316
    13  H    4.561102   4.511386   1.728504   0.982231   3.502882
    14  H    4.111169   2.683369   1.998786   3.733764   5.368783
    15  H    1.084091   2.463573   5.847753   5.225316   4.303411
    16  C    2.536111   4.676427   6.624009   4.870675   2.738182
    17  H    3.260398   5.342472   7.000940   5.073900   2.793763
    18  H    3.260747   5.342880   7.001072   5.073426   2.793038
    19  H    2.636857   4.696185   7.254145   5.762840   3.796407
                   11         12         13         14         15
    11  C    0.000000
    12  H    1.114587   0.000000
    13  H    2.365245   3.175536   0.000000
    14  H    1.114612   1.716712   3.174331   0.000000
    15  H    4.659796   4.837849   5.628623   4.838456   0.000000
    16  C    5.840160   6.298389   5.664816   6.298428   2.741366
    17  H    6.317838   6.699582   5.919549   6.921557   3.502939
    18  H    6.317907   6.921573   5.919115   6.699618   3.503506
    19  H    6.319175   6.674747   6.482388   6.674860   2.385868
                   16         17         18         19
    16  C    0.000000
    17  H    1.094181   0.000000
    18  H    1.094177   1.761170   0.000000
    19  H    1.091420   1.767481   1.767489   0.000000
 Stoichiometry    C8H9O2(2)
 Framework group  C1[X(C8H9O2)]
 Deg. of freedom    51
 Full point group                 C1      NOp   1
 Largest Abelian subgroup         C1      NOp   1
 Largest concise Abelian subgroup C1      NOp   1
                         Standard orientation:                         
 ---------------------------------------------------------------------
 Center     Atomic      Atomic             Coordinates (Angstroms)
 Number     Number       Type             X           Y           Z
 ---------------------------------------------------------------------
      1          6           0       -1.953559   -0.016677   -0.000007
      2          6           0       -1.022267   -1.050271    0.000018
      3          6           0        0.351736   -0.789390    0.000095
      4          6           0        0.814607    0.545703    0.000103
      5          6           0       -0.131414    1.576206    0.000107
      6          6           0       -1.491448    1.309952    0.000053
      7          1           0        0.212945    2.606897    0.000107
      8          8           0        3.189874   -0.132602   -0.000742
      9          8           0        1.197307   -1.839762    0.000292
     10          1           0       -1.337410   -2.087957    0.000022
     11          6           0        2.284616    0.874241    0.000103
     12          1           0        2.521942    1.545110   -0.857752
     13          1           0        2.113149   -1.484781    0.000548
     14          1           0        2.522193    1.543781    0.858959
     15          1           0       -2.203513    2.127397    0.000033
     16          6           0       -3.431381   -0.323608   -0.000115
     17          1           0       -3.711989   -0.908859   -0.881008
     18          1           0       -3.711935   -0.909804    0.880162
     19          1           0       -4.028172    0.590196    0.000383
 ---------------------------------------------------------------------
 Rotational constants (GHZ):           3.0219617           0.9101677           0.7054440
 Leave Link  202 at Wed Dec 03 17:16:50 2025, MaxMem=   104857600 cpu:               0.0 elap:               0.1
 (Enter D:\Gaussian\G16W\l301.exe)
 Standard basis: 6-31G(d) (6D, 7F)
 Ernie: Thresh=  0.10000D-02 Tol=  0.10000D-05 Strict=F.
 There are   168 symmetry adapted cartesian basis functions of A   symmetry.
 There are   168 symmetry adapted basis functions of A   symmetry.
   168 basis functions,   316 primitive gaussians,   168 cartesian basis functions
    37 alpha electrons       36 beta electrons
       nuclear repulsion energy       501.8086437745 Hartrees.
 IExCor=  402 DFT=T Ex+Corr=B3LYP ExCW=0 ScaHFX=  0.200000
 ScaDFX=  0.800000  0.720000  1.000000  0.810000 ScalE2=  1.000000  1.000000
 IRadAn=      5 IRanWt=     -1 IRanGd=            0 ICorTp=0 IEmpDi=  4
 NAtoms=   19 NActive=   19 NUniq=   19 SFac= 1.00D+00 NAtFMM=   60 NAOKFM=F Big=F
 Integral buffers will be    131072 words long.
 Raffenetti 2 integral format.
 Two-electron integral symmetry is turned on.
 Leave Link  301 at Wed Dec 03 17:16:50 2025, MaxMem=   104857600 cpu:               0.0 elap:               0.1
 (Enter D:\Gaussian\G16W\l302.exe)
 NPDir=0 NMtPBC=     1 NCelOv=     1 NCel=       1 NClECP=     1 NCelD=      1
         NCelK=      1 NCelE2=     1 NClLst=     1 CellRange=     0.0.
 One-electron integrals computed using PRISM.
 One-electron integral symmetry used in STVInt
 NBasis=   168 RedAO= T EigKep=  3.91D-04  NBF=   168
 NBsUse=   168 1.00D-06 EigRej= -1.00D+00 NBFU=   168
 Precomputing XC quadrature grid using
 IXCGrd= 4 IRadAn=           5 IRanWt=          -1 IRanGd=           0 AccXCQ= 0.00D+00.
 Generated NRdTot=       0 NPtTot=           0 NUsed=           0 NTot=          32
 NSgBfM=   168   168   168   168   168 MxSgAt=    19 MxSgA2=    19.
 Leave Link  302 at Wed Dec 03 17:16:50 2025, MaxMem=   104857600 cpu:               0.0 elap:               0.3
 (Enter D:\Gaussian\G16W\l303.exe)
 DipDrv:  MaxL=1.
 Leave Link  303 at Wed Dec 03 17:16:50 2025, MaxMem=   104857600 cpu:               0.0 elap:               0.1
 (Enter D:\Gaussian\G16W\l401.exe)
 ExpMin= 1.61D-01 ExpMax= 5.48D+03 ExpMxC= 8.25D+02 IAcc=3 IRadAn=         5 AccDes= 0.00D+00
 Harris functional with IExCor=  402 and IRadAn=       5 diagonalized for initial guess.
 HarFok:  IExCor=  402 AccDes= 0.00D+00 IRadAn=         5 IDoV= 1 UseB2=F ITyADJ=14
 ICtDFT=  3500011 ScaDFX=  1.000000  1.000000  1.000000  1.000000
 FoFCou: FMM=F IPFlag=           0 FMFlag=      100000 FMFlg1=           0
         NFxFlg=           0 DoJE=T BraDBF=F KetDBF=T FulRan=T
         wScrn=  0.000000 ICntrl=       500 IOpCl=  0 I1Cent=   200000004 NGrid=           0
         NMat0=    1 NMatS0=      1 NMatT0=    0 NMatD0=    1 NMtDS0=    0 NMtDT0=    0
 Petite list used in FoFCou.
 Harris En= -460.662217173439    
 JPrj=0 DoOrth=F DoCkMO=F.
 Initial guess <Sx>= 0.0000 <Sy>= 0.0000 <Sz>= 0.5000 <S**2>= 0.7500 S= 0.5000
 Leave Link  401 at Wed Dec 03 17:16:51 2025, MaxMem=   104857600 cpu:               1.0 elap:               1.1
 (Enter D:\Gaussian\G16W\l502.exe)
 Integral symmetry usage will be decided dynamically.
 UHF open shell SCF:
 Using DIIS extrapolation, IDIIS=  1040.
 NGot=   104857600 LenX=   104798149 LenY=   104769484
 Requested convergence on RMS density matrix=1.00D-07 within 128 cycles.
 Requested convergence on MAX density matrix=1.00D-05.
 Requested convergence on             energy=1.00D-05.
 No special actions if energy rises.
 Fock matrices will be formed incrementally for  20 cycles.
 Integral accuracy reduced to 1.0D-05 until final iterations.

 Cycle   1  Pass 0  IDiag  1:
 FoFJK:  IHMeth= 1 ICntrl=       0 DoSepK=F KAlg= 0 I1Cent=           0 FoldK=F
 IRaf= 930000000 NMat=       1 IRICut=       1 DoRegI=T DoRafI=F ISym2E= 0 IDoP0=0 IntGTp=1.
 FoFCou: FMM=F IPFlag=           0 FMFlag=      100000 FMFlg1=           0
         NFxFlg=           0 DoJE=F BraDBF=F KetDBF=F FulRan=T
         wScrn=  0.000000 ICntrl=         0 IOpCl=  1 I1Cent=           0 NGrid=           0
         NMat0=    1 NMatS0=      1 NMatT0=    0 NMatD0=    1 NMtDS0=    0 NMtDT0=    0
 Symmetry not used in FoFCou.
 E= -460.374088964683    
 DIIS: error= 3.90D-02 at cycle   1 NSaved=   1.
 NSaved= 1 IEnMin= 1 EnMin= -460.374088964683     IErMin= 1 ErrMin= 3.90D-02
 ErrMax= 3.90D-02  0.00D+00 EMaxC= 1.00D-01 BMatC= 1.06D+00 BMatP= 1.06D+00
 IDIUse=3 WtCom= 6.10D-01 WtEn= 3.90D-01
 Coeff-Com:  0.100D+01
 Coeff-En:   0.100D+01
 Coeff:      0.100D+01
 Gap=     0.177 Goal=   None    Shift=    0.000
 Gap=     0.010 Goal=   None    Shift=    0.000
 GapD=    0.010 DampG=0.250 DampE=0.500 DampFc=0.2500 IDamp=-1.
 Damping current iteration by 2.50D-01
 RMSDP=9.42D-03 MaxDP=3.54D-01              OVMax= 7.83D-01

 Cycle   2  Pass 0  IDiag  1:
 RMSU=  2.34D-03    CP:  9.90D-01
 E= -460.469305106000     Delta-E=       -0.095216141317 Rises=F Damp=T
 DIIS: error= 2.03D-02 at cycle   2 NSaved=   2.
 NSaved= 2 IEnMin= 2 EnMin= -460.469305106000     IErMin= 2 ErrMin= 2.03D-02
 ErrMax= 2.03D-02  0.00D+00 EMaxC= 1.00D-01 BMatC= 2.46D-01 BMatP= 1.06D+00
 IDIUse=3 WtCom= 7.97D-01 WtEn= 2.03D-01
 Coeff-Com: -0.479D+00 0.148D+01
 Coeff-En:   0.000D+00 0.100D+01
 Coeff:     -0.382D+00 0.138D+01
 Gap=     0.277 Goal=   None    Shift=    0.000
 Gap=     0.099 Goal=   None    Shift=    0.000
 RMSDP=3.07D-03 MaxDP=7.47D-02 DE=-9.52D-02 OVMax= 6.36D-01

 Cycle   3  Pass 0  IDiag  1:
 RMSU=  3.01D-03    CP:  9.67D-01  1.01D+00
 E= -460.549457493099     Delta-E=       -0.080152387098 Rises=F Damp=F
 DIIS: error= 3.13D-02 at cycle   3 NSaved=   3.
 NSaved= 3 IEnMin= 3 EnMin= -460.549457493099     IErMin= 2 ErrMin= 2.03D-02
 ErrMax= 3.13D-02  0.00D+00 EMaxC= 1.00D-01 BMatC= 3.51D-01 BMatP= 2.46D-01
 IDIUse=2 WtCom= 0.00D+00 WtEn= 1.00D+00
 Coeff-En:   0.000D+00 0.135D+00 0.865D+00
 Coeff:      0.000D+00 0.135D+00 0.865D+00
 Gap=     0.226 Goal=   None    Shift=    0.000
 Gap=     0.009 Goal=   None    Shift=    0.000
 RMSDP=6.37D-03 MaxDP=3.10D-01 DE=-8.02D-02 OVMax= 7.99D-01

 Cycle   4  Pass 0  IDiag  1:
 RMSU=  2.55D-03    CP:  9.75D-01  2.68D+00 -4.42D-01
 E= -460.219120072251     Delta-E=        0.330337420848 Rises=F Damp=F
 DIIS: error= 5.47D-02 at cycle   4 NSaved=   4.
 NSaved= 4 IEnMin= 3 EnMin= -460.549457493099     IErMin= 2 ErrMin= 2.03D-02
 ErrMax= 5.47D-02  0.00D+00 EMaxC= 1.00D-01 BMatC= 1.87D+00 BMatP= 2.46D-01
 IDIUse=2 WtCom= 0.00D+00 WtEn= 1.00D+00
 Coeff-En:   0.000D+00 0.000D+00 0.749D+00 0.251D+00
 Coeff:      0.000D+00 0.000D+00 0.749D+00 0.251D+00
 Gap=     0.179 Goal=   None    Shift=    0.000
 Gap=     0.186 Goal=   None    Shift=    0.000
 RMSDP=4.05D-03 MaxDP=1.04D-01 DE= 3.30D-01 OVMax= 2.31D-01

 Cycle   5  Pass 0  IDiag  1:
 RMSU=  1.70D-03    CP:  9.71D-01  1.46D+00  2.38D-01  5.72D-01
 E= -460.604620202903     Delta-E=       -0.385500130653 Rises=F Damp=F
 DIIS: error= 1.64D-02 at cycle   5 NSaved=   5.
 NSaved= 5 IEnMin= 5 EnMin= -460.604620202903     IErMin= 5 ErrMin= 1.64D-02
 ErrMax= 1.64D-02  0.00D+00 EMaxC= 1.00D-01 BMatC= 1.84D-01 BMatP= 2.46D-01
 IDIUse=3 WtCom= 8.36D-01 WtEn= 1.64D-01
 Coeff-Com: -0.108D+00 0.205D+00 0.343D+00-0.963D-01 0.657D+00
 Coeff-En:   0.000D+00 0.000D+00 0.359D+00 0.000D+00 0.641D+00
 Coeff:     -0.904D-01 0.172D+00 0.345D+00-0.805D-01 0.654D+00
 Gap=     0.253 Goal=   None    Shift=    0.000
 Gap=     0.099 Goal=   None    Shift=    0.000
 RMSDP=1.23D-03 MaxDP=3.43D-02 DE=-3.86D-01 OVMax= 1.19D-01

 Cycle   6  Pass 0  IDiag  1:
 RMSU=  4.79D-04    CP:  9.68D-01  1.27D+00  5.21D-01  3.40D-01  1.04D+00
 E= -460.646035765675     Delta-E=       -0.041415562772 Rises=F Damp=F
 DIIS: error= 5.15D-03 at cycle   6 NSaved=   6.
 NSaved= 6 IEnMin= 6 EnMin= -460.646035765675     IErMin= 6 ErrMin= 5.15D-03
 ErrMax= 5.15D-03  0.00D+00 EMaxC= 1.00D-01 BMatC= 1.12D-02 BMatP= 1.84D-01
 IDIUse=3 WtCom= 9.49D-01 WtEn= 5.15D-02
 Coeff-Com:  0.313D-01-0.245D-01 0.889D-01-0.324D-01 0.293D-01 0.907D+00
 Coeff-En:   0.000D+00 0.000D+00 0.000D+00 0.000D+00 0.000D+00 0.100D+01
 Coeff:      0.297D-01-0.233D-01 0.844D-01-0.307D-01 0.278D-01 0.912D+00
 Gap=     0.211 Goal=   None    Shift=    0.000
 Gap=     0.065 Goal=   None    Shift=    0.000
 RMSDP=3.48D-04 MaxDP=1.01D-02 DE=-4.14D-02 OVMax= 1.73D-02

 Cycle   7  Pass 0  IDiag  1:
 RMSU=  2.16D-04    CP:  9.68D-01  1.19D+00  5.55D-01  3.11D-01  1.12D+00
                    CP:  1.15D+00
 E= -460.648138009401     Delta-E=       -0.002102243726 Rises=F Damp=F
 DIIS: error= 1.88D-03 at cycle   7 NSaved=   7.
 NSaved= 7 IEnMin= 7 EnMin= -460.648138009401     IErMin= 7 ErrMin= 1.88D-03
 ErrMax= 1.88D-03  0.00D+00 EMaxC= 1.00D-01 BMatC= 2.31D-03 BMatP= 1.12D-02
 IDIUse=3 WtCom= 9.81D-01 WtEn= 1.88D-02
 Coeff-Com:  0.680D-01-0.900D-01-0.414D-01 0.141D-01-0.241D+00 0.555D+00
 Coeff-Com:  0.735D+00
 Coeff-En:   0.000D+00 0.000D+00 0.000D+00 0.000D+00 0.000D+00 0.000D+00
 Coeff-En:   0.100D+01
 Coeff:      0.667D-01-0.883D-01-0.406D-01 0.139D-01-0.237D+00 0.545D+00
 Coeff:      0.740D+00
 Gap=     0.208 Goal=   None    Shift=    0.000
 Gap=     0.065 Goal=   None    Shift=    0.000
 RMSDP=2.32D-04 MaxDP=5.45D-03 DE=-2.10D-03 OVMax= 9.16D-03

 Cycle   8  Pass 0  IDiag  1:
 RMSU=  1.18D-04    CP:  9.67D-01  1.15D+00  5.82D-01  2.89D-01  1.16D+00
                    CP:  1.43D+00  1.10D+00
 E= -460.648754352006     Delta-E=       -0.000616342605 Rises=F Damp=F
 DIIS: error= 5.79D-04 at cycle   8 NSaved=   8.
 NSaved= 8 IEnMin= 8 EnMin= -460.648754352006     IErMin= 8 ErrMin= 5.79D-04
 ErrMax= 5.79D-04  0.00D+00 EMaxC= 1.00D-01 BMatC= 1.29D-04 BMatP= 2.31D-03
 IDIUse=3 WtCom= 9.94D-01 WtEn= 5.79D-03
 Coeff-Com:  0.279D-01-0.378D-01-0.262D-01 0.849D-02-0.112D+00 0.141D+00
 Coeff-Com:  0.384D+00 0.615D+00
 Coeff-En:   0.000D+00 0.000D+00 0.000D+00 0.000D+00 0.000D+00 0.000D+00
 Coeff-En:   0.000D+00 0.100D+01
 Coeff:      0.278D-01-0.376D-01-0.261D-01 0.844D-02-0.111D+00 0.140D+00
 Coeff:      0.381D+00 0.617D+00
 Gap=     0.208 Goal=   None    Shift=    0.000
 Gap=     0.064 Goal=   None    Shift=    0.000
 RMSDP=7.52D-05 MaxDP=2.18D-03 DE=-6.16D-04 OVMax= 1.09D-02

 Cycle   9  Pass 0  IDiag  1:
 RMSU=  4.41D-05    CP:  9.67D-01  1.15D+00  5.81D-01  2.89D-01  1.18D+00
                    CP:  1.44D+00  1.32D+00  9.05D-01
 E= -460.648798992609     Delta-E=       -0.000044640603 Rises=F Damp=F
 DIIS: error= 2.88D-04 at cycle   9 NSaved=   9.
 NSaved= 9 IEnMin= 9 EnMin= -460.648798992609     IErMin= 9 ErrMin= 2.88D-04
 ErrMax= 2.88D-04  0.00D+00 EMaxC= 1.00D-01 BMatC= 3.99D-05 BMatP= 1.29D-04
 IDIUse=3 WtCom= 9.97D-01 WtEn= 2.88D-03
 Coeff-Com: -0.517D-02 0.802D-02 0.735D-03-0.139D-02 0.107D-01-0.758D-01
 Coeff-Com:  0.120D-01 0.387D+00 0.664D+00
 Coeff-En:   0.000D+00 0.000D+00 0.000D+00 0.000D+00 0.000D+00 0.000D+00
 Coeff-En:   0.000D+00 0.000D+00 0.100D+01
 Coeff:     -0.516D-02 0.800D-02 0.733D-03-0.138D-02 0.107D-01-0.756D-01
 Coeff:      0.120D-01 0.386D+00 0.665D+00
 Gap=     0.208 Goal=   None    Shift=    0.000
 Gap=     0.064 Goal=   None    Shift=    0.000
 RMSDP=3.98D-05 MaxDP=1.93D-03 DE=-4.46D-05 OVMax= 7.60D-03

 Cycle  10  Pass 0  IDiag  1:
 RMSU=  1.61D-05    CP:  9.67D-01  1.15D+00  5.78D-01  2.91D-01  1.19D+00
                    CP:  1.44D+00  1.38D+00  1.10D+00  8.75D-01
 E= -460.648810018190     Delta-E=       -0.000011025580 Rises=F Damp=F
 DIIS: error= 2.14D-04 at cycle  10 NSaved=  10.
 NSaved=10 IEnMin=10 EnMin= -460.648810018190     IErMin=10 ErrMin= 2.14D-04
 ErrMax= 2.14D-04  0.00D+00 EMaxC= 1.00D-01 BMatC= 2.42D-05 BMatP= 3.99D-05
 IDIUse=3 WtCom= 9.98D-01 WtEn= 2.14D-03
 Coeff-Com: -0.841D-03 0.945D-03 0.104D-02-0.257D-03 0.494D-02-0.394D-01
 Coeff-Com: -0.509D-01 0.274D-01 0.168D+00 0.890D+00
 Coeff-En:   0.000D+00 0.000D+00 0.000D+00 0.000D+00 0.000D+00 0.000D+00
 Coeff-En:   0.000D+00 0.000D+00 0.000D+00 0.100D+01
 Coeff:     -0.839D-03 0.943D-03 0.104D-02-0.257D-03 0.493D-02-0.393D-01
 Coeff:     -0.508D-01 0.273D-01 0.167D+00 0.890D+00
 Gap=     0.208 Goal=   None    Shift=    0.000
 Gap=     0.064 Goal=   None    Shift=    0.000
 RMSDP=2.86D-05 MaxDP=6.54D-04 DE=-1.10D-05 OVMax= 2.33D-03

 Cycle  11  Pass 0  IDiag  1:
 RMSU=  6.50D-06    CP:  9.67D-01  1.15D+00  5.80D-01  2.89D-01  1.20D+00
                    CP:  1.47D+00  1.44D+00  1.18D+00  1.02D+00  1.10D+00
 E= -460.648817308691     Delta-E=       -0.000007290501 Rises=F Damp=F
 DIIS: error= 4.17D-05 at cycle  11 NSaved=  11.
 NSaved=11 IEnMin=11 EnMin= -460.648817308691     IErMin=11 ErrMin= 4.17D-05
 ErrMax= 4.17D-05  0.00D+00 EMaxC= 1.00D-01 BMatC= 1.45D-06 BMatP= 2.42D-05
 IDIUse=1 WtCom= 1.00D+00 WtEn= 0.00D+00
 Coeff-Com:  0.136D-04-0.313D-04 0.683D-03-0.412D-04 0.115D-02-0.125D-01
 Coeff-Com: -0.328D-01-0.422D-01-0.115D-01 0.488D+00 0.609D+00
 Coeff:      0.136D-04-0.313D-04 0.683D-03-0.412D-04 0.115D-02-0.125D-01
 Coeff:     -0.328D-01-0.422D-01-0.115D-01 0.488D+00 0.609D+00
 Gap=     0.208 Goal=   None    Shift=    0.000
 Gap=     0.063 Goal=   None    Shift=    0.000
 RMSDP=7.75D-06 MaxDP=2.46D-04 DE=-7.29D-06 OVMax= 8.39D-04

 Initial convergence to 1.0D-05 achieved.  Increase integral accuracy.
 Cycle  12  Pass 1  IDiag  1:
 E= -460.648819281779     Delta-E=       -0.000001973088 Rises=F Damp=F
 DIIS: error= 2.68D-05 at cycle   1 NSaved=   1.
 NSaved= 1 IEnMin= 1 EnMin= -460.648819281779     IErMin= 1 ErrMin= 2.68D-05
 ErrMax= 2.68D-05  0.00D+00 EMaxC= 1.00D-01 BMatC= 2.94D-07 BMatP= 2.94D-07
 IDIUse=1 WtCom= 1.00D+00 WtEn= 0.00D+00
 Coeff-Com:  0.100D+01
 Coeff:      0.100D+01
 Gap=     0.208 Goal=   None    Shift=    0.000
 Gap=     0.064 Goal=   None    Shift=    0.000
 RMSDP=7.75D-06 MaxDP=2.46D-04 DE=-1.97D-06 OVMax= 4.11D-04

 Cycle  13  Pass 1  IDiag  1:
 RMSU=  9.39D-06    CP:  1.00D+00
 E= -460.648819303040     Delta-E=       -0.000000021261 Rises=F Damp=F
 DIIS: error= 4.06D-05 at cycle   2 NSaved=   2.
 NSaved= 2 IEnMin= 2 EnMin= -460.648819303040     IErMin= 1 ErrMin= 2.68D-05
 ErrMax= 4.06D-05  0.00D+00 EMaxC= 1.00D-01 BMatC= 5.55D-07 BMatP= 2.94D-07
 IDIUse=1 WtCom= 1.00D+00 WtEn= 0.00D+00
 Coeff-Com:  0.600D+00 0.400D+00
 Coeff:      0.600D+00 0.400D+00
 Gap=     0.207 Goal=   None    Shift=    0.000
 Gap=     0.064 Goal=   None    Shift=    0.000
 RMSDP=2.98D-06 MaxDP=8.04D-05 DE=-2.13D-08 OVMax= 2.58D-04

 Cycle  14  Pass 1  IDiag  1:
 RMSU=  2.83D-06    CP:  1.00D+00  8.99D-01
 E= -460.648819456464     Delta-E=       -0.000000153424 Rises=F Damp=F
 DIIS: error= 1.50D-05 at cycle   3 NSaved=   3.
 NSaved= 3 IEnMin= 3 EnMin= -460.648819456464     IErMin= 3 ErrMin= 1.50D-05
 ErrMax= 1.50D-05  0.00D+00 EMaxC= 1.00D-01 BMatC= 5.20D-08 BMatP= 2.94D-07
 IDIUse=1 WtCom= 1.00D+00 WtEn= 0.00D+00
 Coeff-Com: -0.621D-01 0.177D+00 0.885D+00
 Coeff:     -0.621D-01 0.177D+00 0.885D+00
 Gap=     0.207 Goal=   None    Shift=    0.000
 Gap=     0.064 Goal=   None    Shift=    0.000
 RMSDP=1.62D-06 MaxDP=5.72D-05 DE=-1.53D-07 OVMax= 1.58D-04

 Cycle  15  Pass 1  IDiag  1:
 RMSU=  1.45D-06    CP:  1.00D+00  9.73D-01  9.39D-01
 E= -460.648819492951     Delta-E=       -0.000000036488 Rises=F Damp=F
 DIIS: error= 6.66D-06 at cycle   4 NSaved=   4.
 NSaved= 4 IEnMin= 4 EnMin= -460.648819492951     IErMin= 4 ErrMin= 6.66D-06
 ErrMax= 6.66D-06  0.00D+00 EMaxC= 1.00D-01 BMatC= 3.03D-08 BMatP= 5.20D-08
 IDIUse=1 WtCom= 1.00D+00 WtEn= 0.00D+00
 Coeff-Com: -0.133D+00 0.568D-01 0.595D+00 0.481D+00
 Coeff:     -0.133D+00 0.568D-01 0.595D+00 0.481D+00
 Gap=     0.207 Goal=   None    Shift=    0.000
 Gap=     0.064 Goal=   None    Shift=    0.000
 RMSDP=9.23D-07 MaxDP=4.47D-05 DE=-3.65D-08 OVMax= 1.05D-04

 Cycle  16  Pass 1  IDiag  1:
 RMSU=  8.80D-07    CP:  1.00D+00  9.86D-01  1.01D+00  1.10D+00
 E= -460.648819506593     Delta-E=       -0.000000013642 Rises=F Damp=F
 DIIS: error= 5.24D-06 at cycle   5 NSaved=   5.
 NSaved= 5 IEnMin= 5 EnMin= -460.648819506593     IErMin= 5 ErrMin= 5.24D-06
 ErrMax= 5.24D-06  0.00D+00 EMaxC= 1.00D-01 BMatC= 1.06D-08 BMatP= 3.03D-08
 IDIUse=1 WtCom= 1.00D+00 WtEn= 0.00D+00
 Coeff-Com: -0.491D-01-0.119D+00-0.338D+00 0.401D+00 0.111D+01
 Coeff:     -0.491D-01-0.119D+00-0.338D+00 0.401D+00 0.111D+01
 Gap=     0.207 Goal=   None    Shift=    0.000
 Gap=     0.064 Goal=   None    Shift=    0.000
 RMSDP=1.32D-06 MaxDP=5.16D-05 DE=-1.36D-08 OVMax= 1.45D-04

 Cycle  17  Pass 1  IDiag  1:
 RMSU=  3.90D-07    CP:  1.00D+00  1.01D+00  1.14D+00  1.90D+00  1.13D+00
 E= -460.648819518736     Delta-E=       -0.000000012143 Rises=F Damp=F
 DIIS: error= 3.51D-06 at cycle   6 NSaved=   6.
 NSaved= 6 IEnMin= 6 EnMin= -460.648819518736     IErMin= 6 ErrMin= 3.51D-06
 ErrMax= 3.51D-06  0.00D+00 EMaxC= 1.00D-01 BMatC= 5.30D-09 BMatP= 1.06D-08
 IDIUse=1 WtCom= 1.00D+00 WtEn= 0.00D+00
 Coeff-Com:  0.400D-02-0.104D+00-0.420D+00 0.128D+00 0.853D+00 0.539D+00
 Coeff:      0.400D-02-0.104D+00-0.420D+00 0.128D+00 0.853D+00 0.539D+00
 Gap=     0.207 Goal=   None    Shift=    0.000
 Gap=     0.064 Goal=   None    Shift=    0.000
 RMSDP=4.95D-07 MaxDP=2.18D-05 DE=-1.21D-08 OVMax= 6.17D-05

 Cycle  18  Pass 1  IDiag  1:
 RMSU=  1.37D-07    CP:  1.00D+00  1.03D+00  1.17D+00  2.13D+00  1.46D+00
                    CP:  7.52D-01
 E= -460.648819521190     Delta-E=       -0.000000002454 Rises=F Damp=F
 DIIS: error= 6.91D-07 at cycle   7 NSaved=   7.
 NSaved= 7 IEnMin= 7 EnMin= -460.648819521190     IErMin= 7 ErrMin= 6.91D-07
 ErrMax= 6.91D-07  0.00D+00 EMaxC= 1.00D-01 BMatC= 2.78D-10 BMatP= 5.30D-09
 IDIUse=1 WtCom= 1.00D+00 WtEn= 0.00D+00
 Coeff-Com:  0.689D-02-0.330D-01-0.144D+00-0.635D-02 0.290D+00 0.196D+00
 Coeff-Com:  0.692D+00
 Coeff:      0.689D-02-0.330D-01-0.144D+00-0.635D-02 0.290D+00 0.196D+00
 Coeff:      0.692D+00
 Gap=     0.207 Goal=   None    Shift=    0.000
 Gap=     0.064 Goal=   None    Shift=    0.000
 RMSDP=9.73D-08 MaxDP=4.57D-06 DE=-2.45D-09 OVMax= 9.56D-06

 SCF Done:  E(UB3LYP) =  -460.648819521     A.U. after   18 cycles
            NFock= 18  Conv=0.97D-07     -V/T= 2.0091
 <Sx>= 0.0000 <Sy>= 0.0000 <Sz>= 0.5000 <S**2>= 0.7545 S= 0.5023
 <L.S>= 0.000000000000E+00
 KE= 4.564860938459D+02 PE=-2.076510833542D+03 EE= 6.575672764002D+02
 Annihilation of the first spin contaminant:
 S**2 before annihilation     0.7545,   after     0.7500
 Leave Link  502 at Wed Dec 03 17:17:27 2025, MaxMem=   104857600 cpu:              36.0 elap:              35.6
 (Enter D:\Gaussian\G16W\l601.exe)
 Copying SCF densities to generalized density rwf, IOpCl= 1 IROHF=0.

 **********************************************************************

            Population analysis using the SCF density.

 **********************************************************************

 Orbital symmetries:
 Alpha Orbitals:
       Occupied  (A) (A) (A) (A) (A) (A) (A) (A) (A) (A) (A) (A)
                 (A) (A) (A) (A) (A) (A) (A) (A) (A) (A) (A) (A)
                 (A) (A) (A) (A) (A) (A) (A) (A) (A) (A) (A) (A)
                 (A)
       Virtual   (A) (A) (A) (A) (A) (A) (A) (A) (A) (A) (A) (A)
                 (A) (A) (A) (A) (A) (A) (A) (A) (A) (A) (A) (A)
                 (A) (A) (A) (A) (A) (A) (A) (A) (A) (A) (A) (A)
                 (A) (A) (A) (A) (A) (A) (A) (A) (A) (A) (A) (A)
                 (A) (A) (A) (A) (A) (A) (A) (A) (A) (A) (A) (A)
                 (A) (A) (A) (A) (A) (A) (A) (A) (A) (A) (A) (A)
                 (A) (A) (A) (A) (A) (A) (A) (A) (A) (A) (A) (A)
                 (A) (A) (A) (A) (A) (A) (A) (A) (A) (A) (A) (A)
                 (A) (A) (A) (A) (A) (A) (A) (A) (A) (A) (A) (A)
                 (A) (A) (A) (A) (A) (A) (A) (A) (A) (A) (A) (A)
                 (A) (A) (A) (A) (A) (A) (A) (A) (A) (A) (A)
 Beta  Orbitals:
       Occupied  (A) (A) (A) (A) (A) (A) (A) (A) (A) (A) (A) (A)
                 (A) (A) (A) (A) (A) (A) (A) (A) (A) (A) (A) (A)
                 (A) (A) (A) (A) (A) (A) (A) (A) (A) (A) (A) (A)
       Virtual   (A) (A) (A) (A) (A) (A) (A) (A) (A) (A) (A) (A)
                 (A) (A) (A) (A) (A) (A) (A) (A) (A) (A) (A) (A)
                 (A) (A) (A) (A) (A) (A) (A) (A) (A) (A) (A) (A)
                 (A) (A) (A) (A) (A) (A) (A) (A) (A) (A) (A) (A)
                 (A) (A) (A) (A) (A) (A) (A) (A) (A) (A) (A) (A)
                 (A) (A) (A) (A) (A) (A) (A) (A) (A) (A) (A) (A)
                 (A) (A) (A) (A) (A) (A) (A) (A) (A) (A) (A) (A)
                 (A) (A) (A) (A) (A) (A) (A) (A) (A) (A) (A) (A)
                 (A) (A) (A) (A) (A) (A) (A) (A) (A) (A) (A) (A)
                 (A) (A) (A) (A) (A) (A) (A) (A) (A) (A) (A) (A)
                 (A) (A) (A) (A) (A) (A) (A) (A) (A) (A) (A) (A)
 The electronic state is 2-A.
 Alpha  occ. eigenvalues --  -19.18725 -19.16583 -10.26135 -10.25401 -10.20408
 Alpha  occ. eigenvalues --  -10.20112 -10.19767 -10.18638 -10.18614 -10.18133
 Alpha  occ. eigenvalues --   -1.06099  -1.02890  -0.85914  -0.78745  -0.74163
 Alpha  occ. eigenvalues --   -0.71597  -0.65364  -0.61118  -0.60482  -0.51096
 Alpha  occ. eigenvalues --   -0.50856  -0.49685  -0.47863  -0.44779  -0.43612
 Alpha  occ. eigenvalues --   -0.42604  -0.42534  -0.40019  -0.39896  -0.37346
 Alpha  occ. eigenvalues --   -0.36708  -0.34489  -0.34092  -0.31621  -0.28480
 Alpha  occ. eigenvalues --   -0.24424  -0.21987
 Alpha virt. eigenvalues --   -0.01241   0.01311   0.09516   0.09800   0.11749
 Alpha virt. eigenvalues --    0.12024   0.13766   0.15599   0.16451   0.17297
 Alpha virt. eigenvalues --    0.18166   0.20085   0.20802   0.23921   0.27077
 Alpha virt. eigenvalues --    0.28460   0.32240   0.34035   0.36236   0.37987
 Alpha virt. eigenvalues --    0.46056   0.48179   0.51106   0.51717   0.53774
 Alpha virt. eigenvalues --    0.54129   0.55352   0.57081   0.59827   0.60016
 Alpha virt. eigenvalues --    0.60029   0.61592   0.63365   0.66216   0.67077
 Alpha virt. eigenvalues --    0.70444   0.71496   0.71874   0.72727   0.72750
 Alpha virt. eigenvalues --    0.75330   0.78637   0.81145   0.82270   0.85916
 Alpha virt. eigenvalues --    0.86240   0.87964   0.88407   0.89866   0.91514
 Alpha virt. eigenvalues --    0.94164   0.96142   0.97035   0.98532   0.98761
 Alpha virt. eigenvalues --    1.01415   1.06651   1.06926   1.12284   1.15934
 Alpha virt. eigenvalues --    1.17104   1.20153   1.22165   1.24028   1.25728
 Alpha virt. eigenvalues --    1.32741   1.34013   1.38776   1.39793   1.40161
 Alpha virt. eigenvalues --    1.42125   1.45862   1.48799   1.49283   1.59253
 Alpha virt. eigenvalues --    1.68733   1.71076   1.73178   1.73802   1.75097
 Alpha virt. eigenvalues --    1.77901   1.78212   1.81094   1.85605   1.89623
 Alpha virt. eigenvalues --    1.89959   1.90866   1.93377   1.93977   1.97990
 Alpha virt. eigenvalues --    1.98417   2.05411   2.09240   2.09401   2.10664
 Alpha virt. eigenvalues --    2.16836   2.19249   2.24666   2.26999   2.30486
 Alpha virt. eigenvalues --    2.30624   2.32904   2.34545   2.36702   2.37487
 Alpha virt. eigenvalues --    2.41728   2.45003   2.49905   2.55409   2.61603
 Alpha virt. eigenvalues --    2.66295   2.66317   2.74447   2.78676   2.82573
 Alpha virt. eigenvalues --    2.85470   2.88995   2.91242   3.02056   3.18700
 Alpha virt. eigenvalues --    3.42360   3.85416   4.00716   4.09132   4.12110
 Alpha virt. eigenvalues --    4.18446   4.23500   4.29588   4.43561   4.46349
 Alpha virt. eigenvalues --    4.77925
  Beta  occ. eigenvalues --  -19.16913 -19.16458 -10.26186 -10.25366 -10.20365
  Beta  occ. eigenvalues --  -10.20054 -10.19761 -10.18629 -10.18616 -10.18154
  Beta  occ. eigenvalues --   -1.05550  -0.99304  -0.85764  -0.78431  -0.74104
  Beta  occ. eigenvalues --   -0.71105  -0.64425  -0.61015  -0.60337  -0.50854
  Beta  occ. eigenvalues --   -0.50641  -0.47598  -0.46455  -0.44417  -0.42806
  Beta  occ. eigenvalues --   -0.42343  -0.42056  -0.39958  -0.39125  -0.37213
  Beta  occ. eigenvalues --   -0.36566  -0.34282  -0.32537  -0.26992  -0.24558
  Beta  occ. eigenvalues --   -0.21820
  Beta virt. eigenvalues --   -0.15468  -0.00901   0.01679   0.09782   0.10066
  Beta virt. eigenvalues --    0.11838   0.12610   0.13981   0.15703   0.16561
  Beta virt. eigenvalues --    0.17759   0.18328   0.20349   0.21129   0.24000
  Beta virt. eigenvalues --    0.27285   0.28661   0.32353   0.34106   0.36362
  Beta virt. eigenvalues --    0.38092   0.46179   0.48288   0.51281   0.51881
  Beta virt. eigenvalues --    0.54130   0.54250   0.55435   0.57113   0.59888
  Beta virt. eigenvalues --    0.60078   0.60554   0.61659   0.63424   0.66599
  Beta virt. eigenvalues --    0.67311   0.70468   0.71815   0.72097   0.72867
  Beta virt. eigenvalues --    0.73478   0.75365   0.79460   0.82301   0.82513
  Beta virt. eigenvalues --    0.86135   0.86789   0.88024   0.88905   0.90659
  Beta virt. eigenvalues --    0.91571   0.94239   0.96172   0.98565   0.98886
  Beta virt. eigenvalues --    1.01571   1.02457   1.06798   1.07083   1.12437
  Beta virt. eigenvalues --    1.16261   1.17242   1.20540   1.22452   1.24204
  Beta virt. eigenvalues --    1.26004   1.33616   1.34265   1.38923   1.40010
  Beta virt. eigenvalues --    1.40337   1.42657   1.46009   1.48929   1.49334
  Beta virt. eigenvalues --    1.59857   1.69097   1.71787   1.75141   1.75357
  Beta virt. eigenvalues --    1.76230   1.78325   1.79090   1.81428   1.85716
  Beta virt. eigenvalues --    1.89717   1.90044   1.90965   1.93949   1.95947
  Beta virt. eigenvalues --    1.98460   1.98585   2.05733   2.09582   2.09840
  Beta virt. eigenvalues --    2.10872   2.17020   2.19634   2.24820   2.27372
  Beta virt. eigenvalues --    2.30740   2.30952   2.32927   2.35109   2.37528
  Beta virt. eigenvalues --    2.37538   2.42943   2.45191   2.50199   2.55781
  Beta virt. eigenvalues --    2.61677   2.66475   2.66501   2.74650   2.78855
  Beta virt. eigenvalues --    2.82890   2.85698   2.89076   2.91731   3.02187
  Beta virt. eigenvalues --    3.18749   3.42384   3.88134   4.00866   4.09190
  Beta virt. eigenvalues --    4.12165   4.18504   4.23509   4.29626   4.43655
  Beta virt. eigenvalues --    4.46447   4.78006
          Condensed to atoms (all electrons):
               1          2          3          4          5          6
     1  C    4.610321   0.533488   0.000277  -0.027489  -0.023528   0.546876
     2  C    0.533488   5.105403   0.495186  -0.073332  -0.052892  -0.031681
     3  C    0.000277   0.495186   4.561445   0.472221  -0.004788  -0.046601
     4  C   -0.027489  -0.073332   0.472221   5.122934   0.454962  -0.026464
     5  C   -0.023528  -0.052892  -0.004788   0.454962   5.023640   0.510770
     6  C    0.546876  -0.031681  -0.046601  -0.026464   0.510770   4.957122
     7  H    0.003871   0.000888   0.002997  -0.056943   0.357350  -0.034675
     8  O   -0.000015   0.000176  -0.005926  -0.039427   0.002671  -0.000043
     9  O    0.002290  -0.055801   0.321568  -0.062414   0.004665   0.000283
    10  H   -0.051665   0.344836  -0.035148   0.007901   0.000296   0.005551
    11  C    0.000188   0.007459  -0.046419   0.270608  -0.057664   0.004682
    12  H    0.000012  -0.000137  -0.000785  -0.053616   0.002336  -0.000094
    13  H   -0.000138   0.004094  -0.026169  -0.009798   0.000724  -0.000043
    14  H    0.000012  -0.000137  -0.000794  -0.053558   0.002328  -0.000095
    15  H   -0.039657   0.006198   0.000506   0.003739  -0.044564   0.354633
    16  C    0.350557  -0.068683   0.005991   0.000418   0.008106  -0.053073
    17  H   -0.025927  -0.002725  -0.000048   0.000025  -0.000204   0.000668
    18  H   -0.025932  -0.002723  -0.000047   0.000025  -0.000204   0.000672
    19  H   -0.029457   0.003739  -0.000156   0.000011   0.000143  -0.002953
               7          8          9         10         11         12
     1  C    0.003871  -0.000015   0.002290  -0.051665   0.000188   0.000012
     2  C    0.000888   0.000176  -0.055801   0.344836   0.007459  -0.000137
     3  C    0.002997  -0.005926   0.321568  -0.035148  -0.046419  -0.000785
     4  C   -0.056943  -0.039427  -0.062414   0.007901   0.270608  -0.053616
     5  C    0.357350   0.002671   0.004665   0.000296  -0.057664   0.002336
     6  C   -0.034675  -0.000043   0.000283   0.005551   0.004682  -0.000094
     7  H    0.608093   0.000070  -0.000056   0.000022  -0.005670   0.002776
     8  O    0.000070   8.210317  -0.032799   0.000010   0.244616  -0.029754
     9  O   -0.000056  -0.032799   8.266959   0.000030  -0.006107  -0.000355
    10  H    0.000022   0.000010   0.000030   0.598638  -0.000153   0.000004
    11  C   -0.005670   0.244616  -0.006107  -0.000153   5.022150   0.340083
    12  H    0.002776  -0.029754  -0.000355   0.000004   0.340083   0.569958
    13  H    0.000009   0.078933   0.211406   0.000032  -0.012112   0.001534
    14  H    0.002767  -0.029736  -0.000356   0.000004   0.340000  -0.031080
    15  H   -0.005323   0.000000   0.000002  -0.000157  -0.000113   0.000001
    16  C   -0.000220   0.000000  -0.000062  -0.008731   0.000000   0.000000
    17  H    0.000003   0.000000   0.000000   0.001941   0.000000   0.000000
    18  H    0.000003   0.000000   0.000000   0.001946   0.000000   0.000000
    19  H   -0.000006   0.000000   0.000000   0.000074   0.000000   0.000000
              13         14         15         16         17         18
     1  C   -0.000138   0.000012  -0.039657   0.350557  -0.025927  -0.025932
     2  C    0.004094  -0.000137   0.006198  -0.068683  -0.002725  -0.002723
     3  C   -0.026169  -0.000794   0.000506   0.005991  -0.000048  -0.000047
     4  C   -0.009798  -0.053558   0.003739   0.000418   0.000025   0.000025
     5  C    0.000724   0.002328  -0.044564   0.008106  -0.000204  -0.000204
     6  C   -0.000043  -0.000095   0.354633  -0.053073   0.000668   0.000672
     7  H    0.000009   0.002767  -0.005323  -0.000220   0.000003   0.000003
     8  O    0.078933  -0.029736   0.000000   0.000000   0.000000   0.000000
     9  O    0.211406  -0.000356   0.000002  -0.000062   0.000000   0.000000
    10  H    0.000032   0.000004  -0.000157  -0.008731   0.001941   0.001946
    11  C   -0.012112   0.340000  -0.000113   0.000000   0.000000   0.000000
    12  H    0.001534  -0.031080   0.000001   0.000000   0.000000   0.000000
    13  H    0.310357   0.001531   0.000000   0.000003   0.000000   0.000000
    14  H    0.001531   0.569923   0.000001   0.000000   0.000000   0.000000
    15  H    0.000000   0.000001   0.605065  -0.010381   0.000118   0.000117
    16  C    0.000003   0.000000  -0.010381   5.214621   0.363876   0.363880
    17  H    0.000000   0.000000   0.000118   0.363876   0.552980  -0.031155
    18  H    0.000000   0.000000   0.000117   0.363880  -0.031155   0.552980
    19  H    0.000000   0.000000   0.006972   0.365050  -0.027619  -0.027617
              19
     1  C   -0.029457
     2  C    0.003739
     3  C   -0.000156
     4  C    0.000011
     5  C    0.000143
     6  C   -0.002953
     7  H   -0.000006
     8  O    0.000000
     9  O    0.000000
    10  H    0.000074
    11  C    0.000000
    12  H    0.000000
    13  H    0.000000
    14  H    0.000000
    15  H    0.006972
    16  C    0.365050
    17  H   -0.027619
    18  H   -0.027617
    19  H    0.555851
          Atomic-Atomic Spin Densities.
               1          2          3          4          5          6
     1  C    0.029981  -0.000751  -0.001224  -0.000616  -0.000576   0.004926
     2  C   -0.000751  -0.019631   0.003189  -0.001101   0.000125   0.000149
     3  C   -0.001224   0.003189   0.028251   0.009692   0.000361  -0.000694
     4  C   -0.000616  -0.001101   0.009692   0.025233   0.006986  -0.000334
     5  C   -0.000576   0.000125   0.000361   0.006986   0.000528  -0.003124
     6  C    0.004926   0.000149  -0.000694  -0.000334  -0.003124   0.004466
     7  H    0.000008  -0.000012   0.000031   0.000347   0.000193  -0.000030
     8  O   -0.000001  -0.000011   0.001791   0.007345   0.000002  -0.000004
     9  O    0.000054   0.000324  -0.013148  -0.001122   0.000008   0.000006
    10  H   -0.000016   0.000285   0.000022  -0.000025  -0.000012   0.000006
    11  C    0.000012  -0.000076   0.001447   0.009359  -0.001029  -0.000081
    12  H    0.000012  -0.000009  -0.000516  -0.007437  -0.001102   0.000067
    13  H    0.000004   0.000013   0.000602   0.000200  -0.000069   0.000000
    14  H    0.000012  -0.000009  -0.000524  -0.007497  -0.001091   0.000066
    15  H   -0.000074  -0.000005   0.000003   0.000007   0.000031   0.000156
    16  C   -0.000103   0.000228  -0.000026   0.000001  -0.000010  -0.000148
    17  H   -0.000670   0.000013   0.000011   0.000002   0.000002  -0.000053
    18  H   -0.000668   0.000012   0.000011   0.000002   0.000002  -0.000053
    19  H   -0.000065  -0.000008   0.000000   0.000000   0.000002   0.000031
               7          8          9         10         11         12
     1  C    0.000008  -0.000001   0.000054  -0.000016   0.000012   0.000012
     2  C   -0.000012  -0.000011   0.000324   0.000285  -0.000076  -0.000009
     3  C    0.000031   0.001791  -0.013148   0.000022   0.001447  -0.000516
     4  C    0.000347   0.007345  -0.001122  -0.000025   0.009359  -0.007437
     5  C    0.000193   0.000002   0.000008  -0.000012  -0.001029  -0.001102
     6  C   -0.000030  -0.000004   0.000006   0.000006  -0.000081   0.000067
     7  H   -0.000795   0.000000   0.000000   0.000000  -0.000277  -0.000008
     8  O    0.000000   0.790267  -0.000411   0.000000  -0.039039  -0.018242
     9  O    0.000000  -0.000411   0.053731  -0.000055  -0.000202   0.000136
    10  H    0.000000   0.000000  -0.000055   0.000244  -0.000002   0.000000
    11  C   -0.000277  -0.039039  -0.000202  -0.000002  -0.069913   0.020586
    12  H   -0.000008  -0.018242   0.000136   0.000000   0.020586   0.147258
    13  H   -0.000002  -0.007219   0.004028  -0.000015   0.001323  -0.000090
    14  H   -0.000008  -0.018287   0.000137   0.000000   0.020620  -0.033591
    15  H    0.000014   0.000000   0.000000   0.000000   0.000000   0.000000
    16  C    0.000000   0.000000   0.000000   0.000024   0.000000   0.000000
    17  H    0.000000   0.000000   0.000000  -0.000003   0.000000   0.000000
    18  H    0.000000   0.000000   0.000000  -0.000003   0.000000   0.000000
    19  H    0.000000   0.000000   0.000000   0.000000   0.000000   0.000000
              13         14         15         16         17         18
     1  C    0.000004   0.000012  -0.000074  -0.000103  -0.000670  -0.000668
     2  C    0.000013  -0.000009  -0.000005   0.000228   0.000013   0.000012
     3  C    0.000602  -0.000524   0.000003  -0.000026   0.000011   0.000011
     4  C    0.000200  -0.007497   0.000007   0.000001   0.000002   0.000002
     5  C   -0.000069  -0.001091   0.000031  -0.000010   0.000002   0.000002
     6  C    0.000000   0.000066   0.000156  -0.000148  -0.000053  -0.000053
     7  H   -0.000002  -0.000008   0.000014   0.000000   0.000000   0.000000
     8  O   -0.007219  -0.018287   0.000000   0.000000   0.000000   0.000000
     9  O    0.004028   0.000137   0.000000   0.000000   0.000000   0.000000
    10  H   -0.000015   0.000000   0.000000   0.000024  -0.000003  -0.000003
    11  C    0.001323   0.020620   0.000000   0.000000   0.000000   0.000000
    12  H   -0.000090  -0.033591   0.000000   0.000000   0.000000   0.000000
    13  H   -0.005886  -0.000093   0.000000   0.000000   0.000000   0.000000
    14  H   -0.000093   0.147538   0.000000   0.000000   0.000000   0.000000
    15  H    0.000000   0.000000  -0.000574   0.000032   0.000000   0.000000
    16  C    0.000000   0.000000   0.000032  -0.003058   0.000287   0.000287
    17  H    0.000000   0.000000   0.000000   0.000287   0.002830  -0.000689
    18  H    0.000000   0.000000   0.000000   0.000287  -0.000689   0.002826
    19  H    0.000000   0.000000  -0.000008   0.000143  -0.000022  -0.000022
              19
     1  C   -0.000065
     2  C   -0.000008
     3  C    0.000000
     4  C    0.000000
     5  C    0.000002
     6  C    0.000031
     7  H    0.000000
     8  O    0.000000
     9  O    0.000000
    10  H    0.000000
    11  C    0.000000
    12  H    0.000000
    13  H    0.000000
    14  H    0.000000
    15  H   -0.000008
    16  C    0.000143
    17  H   -0.000022
    18  H   -0.000022
    19  H   -0.000016
 Mulliken charges and spin densities:
               1          2
     1  C    0.175914   0.030244
     2  C   -0.213355  -0.017276
     3  C    0.306691   0.029280
     4  C    0.070197   0.041041
     5  C   -0.184148   0.001226
     6  C   -0.185535   0.005351
     7  H    0.124043  -0.000538
     8  O   -0.399094   0.716190
     9  O   -0.649256   0.043484
    10  H    0.134569   0.000450
    11  C   -0.101550  -0.057271
    12  H    0.199118   0.107063
    13  H    0.439635  -0.007204
    14  H    0.199191   0.107273
    15  H    0.122845  -0.000419
    16  C   -0.531352  -0.002341
    17  H    0.168067   0.001707
    18  H    0.168055   0.001704
    19  H    0.155968   0.000035
 Sum of Mulliken charges =   0.00000   1.00000
 Mulliken charges and spin densities with hydrogens summed into heavy atoms:
               1          2
     1  C    0.175914   0.030244
     2  C   -0.078787  -0.016826
     3  C    0.306691   0.029280
     4  C    0.070197   0.041041
     5  C   -0.060105   0.000689
     6  C   -0.062690   0.004932
     8  O   -0.399094   0.716190
     9  O   -0.209621   0.036280
    11  C    0.296759   0.157064
    16  C   -0.039263   0.001105
 Electronic spatial extent (au):  <R**2>=           1583.1098
 Charge=              0.0000 electrons
 Dipole moment (field-independent basis, Debye):
    X=             -1.3628    Y=              2.3986    Z=              0.0021  Tot=              2.7587
 Quadrupole moment (field-independent basis, Debye-Ang):
   XX=            -57.4884   YY=            -56.2127   ZZ=            -59.2910
   XY=              4.8852   XZ=              0.0080   YZ=              0.0002
 Traceless Quadrupole moment (field-independent basis, Debye-Ang):
   XX=              0.1756   YY=              1.4513   ZZ=             -1.6270
   XY=              4.8852   XZ=              0.0080   YZ=              0.0002
 Octapole moment (field-independent basis, Debye-Ang**2):
  XXX=            -18.1578  YYY=              6.8222  ZZZ=             -0.0016  XYY=              6.1924
  XXY=              4.1226  XXZ=              0.0220  XZZ=             10.3815  YZZ=             -3.2741
  YYZ=              0.0003  XYZ=             -0.0007
 Hexadecapole moment (field-independent basis, Debye-Ang**3):
 XXXX=          -1558.8402 YYYY=           -481.8569 ZZZZ=            -69.9506 XXXY=              2.7216
 XXXZ=              0.0867 YYYX=              4.4070 YYYZ=              0.0000 ZZZX=              0.0175
 ZZZY=              0.0043 XXYY=           -296.6085 XXZZ=           -250.6067 YYZZ=            -95.3752
 XXYZ=             -0.0010 YYXZ=              0.0034 ZZXY=              3.6131
 N-N= 5.018086437745D+02 E-N=-2.076510831570D+03  KE= 4.564860938460D+02
                          Isotropic Fermi Contact Couplings
        Atom                 a.u.       MegaHertz       Gauss      10(-4) cm-1
     1  C(13)              0.00308       3.46000       1.23461       1.15413
     2  C(13)             -0.00283      -3.17884      -1.13429      -1.06035
     3  C(13)              0.00080       0.90321       0.32229       0.30128
     4  C(13)              0.00088       0.99303       0.35434       0.33124
     5  C(13)             -0.00116      -1.30195      -0.46457      -0.43429
     6  C(13)             -0.00013      -0.14918      -0.05323      -0.04976
     7  H(1)              -0.00010      -0.46906      -0.16737      -0.15646
     8  O(17)              0.08969     -54.37219     -19.40135     -18.13661
     9  O(17)              0.00606      -3.67415      -1.31103      -1.22556
    10  H(1)               0.00015       0.65448       0.23353       0.21831
    11  C(13)             -0.03394     -38.16021     -13.61651     -12.72888
    12  H(1)               0.05529     247.16143      88.19334      82.44418
    13  H(1)              -0.00065      -2.91895      -1.04155      -0.97366
    14  H(1)               0.05540     247.64067      88.36435      82.60404
    15  H(1)              -0.00015      -0.65256      -0.23285      -0.21767
    16  C(13)             -0.00091      -1.02415      -0.36544      -0.34162
    17  H(1)               0.00085       3.79176       1.35300       1.26480
    18  H(1)               0.00085       3.78576       1.35085       1.26279
    19  H(1)               0.00001       0.05275       0.01882       0.01759
 --------------------------------------------------------
       Center         ----  Spin Dipole Couplings  ----
                      3XX-RR        3YY-RR        3ZZ-RR
 --------------------------------------------------------
     1   Atom       -0.013907     -0.017745      0.031652
     2   Atom        0.010177      0.005232     -0.015409
     3   Atom       -0.010912     -0.017586      0.028498
     4   Atom       -0.018051     -0.029902      0.047952
     5   Atom       -0.000140     -0.004585      0.004725
     6   Atom       -0.002251     -0.005021      0.007272
     7   Atom        0.001752      0.001260     -0.003012
     8   Atom       -1.326342     -1.320568      2.646909
     9   Atom       -0.104414     -0.096530      0.200944
    10   Atom        0.002684     -0.000870     -0.001813
    11   Atom       -0.021200     -0.020706      0.041906
    12   Atom       -0.009299      0.011737     -0.002437
    13   Atom        0.006906      0.010561     -0.017468
    14   Atom       -0.009302      0.011679     -0.002377
    15   Atom        0.000812      0.000459     -0.001272
    16   Atom        0.001039     -0.001198      0.000159
    17   Atom        0.001031     -0.000460     -0.000572
    18   Atom        0.001031     -0.000459     -0.000572
    19   Atom        0.001411     -0.000699     -0.000712
 --------------------------------------------------------
                        XY            XZ            YZ
 --------------------------------------------------------
     1   Atom        0.000588     -0.000004      0.000002
     2   Atom        0.001119      0.000001      0.000000
     3   Atom        0.001829     -0.000005     -0.000002
     4   Atom       -0.002583      0.000096      0.000002
     5   Atom       -0.002791     -0.000022      0.000006
     6   Atom       -0.000884     -0.000019     -0.000003
     7   Atom       -0.003577      0.000000      0.000002
     8   Atom       -0.000033      0.002568     -0.000357
     9   Atom        0.001746      0.000029      0.000109
    10   Atom        0.001202      0.000000      0.000000
    11   Atom       -0.032874      0.000020     -0.000003
    12   Atom       -0.002520     -0.001720     -0.017867
    13   Atom        0.028208     -0.000018     -0.000023
    14   Atom       -0.002517      0.001724      0.017895
    15   Atom       -0.001546      0.000000     -0.000001
    16   Atom        0.000509      0.000000      0.000001
    17   Atom        0.000587      0.000405      0.000281
    18   Atom        0.000588     -0.000405     -0.000281
    19   Atom       -0.000199      0.000000      0.000000
 --------------------------------------------------------


 ---------------------------------------------------------------------------------
              Anisotropic Spin Dipole Couplings in Principal Axis System
 ---------------------------------------------------------------------------------

       Atom             a.u.   MegaHertz   Gauss  10(-4) cm-1        Axes

              Baa    -0.0178    -2.393    -0.854    -0.798 -0.1481  0.9890  0.0000
     1 C(13)  Bbb    -0.0138    -1.854    -0.662    -0.619  0.9890  0.1481  0.0001
              Bcc     0.0317     4.247     1.516     1.417 -0.0001  0.0000  1.0000
 
              Baa    -0.0154    -2.068    -0.738    -0.690 -0.0001  0.0000  1.0000
     2 C(13)  Bbb     0.0050     0.670     0.239     0.223 -0.2109  0.9775  0.0000
              Bcc     0.0104     1.398     0.499     0.466  0.9775  0.2109  0.0001
 
              Baa    -0.0181    -2.423    -0.864    -0.808 -0.2481  0.9687  0.0000
     3 C(13)  Bbb    -0.0104    -1.401    -0.500    -0.467  0.9687  0.2481  0.0002
              Bcc     0.0285     3.824     1.365     1.276 -0.0001 -0.0001  1.0000
 
              Baa    -0.0304    -4.085    -1.458    -1.363  0.2041  0.9790 -0.0003
     4 C(13)  Bbb    -0.0175    -2.350    -0.839    -0.784  0.9790 -0.2041 -0.0014
              Bcc     0.0480     6.435     2.296     2.146  0.0015  0.0000  1.0000
 
              Baa    -0.0059    -0.796    -0.284    -0.265  0.4342  0.9008  0.0004
     5 C(13)  Bbb     0.0012     0.162     0.058     0.054  0.9008 -0.4342  0.0065
              Bcc     0.0047     0.634     0.226     0.211 -0.0060  0.0025  1.0000
 
              Baa    -0.0053    -0.708    -0.253    -0.236  0.2802  0.9599  0.0006
     6 C(13)  Bbb    -0.0020    -0.267    -0.095    -0.089  0.9599 -0.2802  0.0019
              Bcc     0.0073     0.976     0.348     0.326 -0.0020 -0.0001  1.0000
 
              Baa    -0.0030    -1.607    -0.573    -0.536 -0.0010 -0.0012  1.0000
     7 H(1)   Bbb    -0.0021    -1.110    -0.396    -0.370  0.6824  0.7309  0.0016
              Bcc     0.0051     2.717     0.969     0.906  0.7309 -0.6824 -0.0001
 
              Baa    -1.3263    95.973    34.246    32.013  1.0000  0.0056 -0.0006
     8 O(17)  Bbb    -1.3206    95.555    34.097    31.874 -0.0056  1.0000  0.0001
              Bcc     2.6469  -191.529   -68.342   -63.887  0.0006 -0.0001  1.0000
 
              Baa    -0.1048     7.582     2.705     2.529  0.9783 -0.2070  0.0000
     9 O(17)  Bbb    -0.0962     6.958     2.483     2.321  0.2070  0.9783 -0.0004
              Bcc     0.2009   -14.540    -5.188    -4.850  0.0001  0.0004  1.0000
 
              Baa    -0.0018    -0.967    -0.345    -0.323  0.0000  0.0001  1.0000
    10 H(1)   Bbb    -0.0012    -0.661    -0.236    -0.220 -0.2929  0.9561 -0.0001
              Bcc     0.0031     1.628     0.581     0.543  0.9561  0.2929  0.0000
 
              Baa    -0.0538    -7.223    -2.577    -2.409  0.7098  0.7044 -0.0001
    11 C(13)  Bbb     0.0119     1.600     0.571     0.534 -0.7044  0.7098  0.0005
              Bcc     0.0419     5.623     2.007     1.876  0.0005 -0.0003  1.0000
 
              Baa    -0.0158    -8.438    -3.011    -2.815  0.4010  0.5240  0.7514
    12 H(1)   Bbb    -0.0081    -4.319    -1.541    -1.441  0.9154 -0.1989 -0.3499
              Bcc     0.0239    12.757     4.552     4.255 -0.0339  0.8282 -0.5594
 
              Baa    -0.0195   -10.422    -3.719    -3.476  0.7296 -0.6839 -0.0013
    13 H(1)   Bbb    -0.0175    -9.320    -3.326    -3.109  0.0013 -0.0005  1.0000
              Bcc     0.0370    19.742     7.044     6.585  0.6839  0.7296 -0.0005
 
              Baa    -0.0158    -8.441    -3.012    -2.816 -0.4013 -0.5251  0.7505
    14 H(1)   Bbb    -0.0081    -4.318    -1.541    -1.440  0.9153 -0.1999  0.3496
              Bcc     0.0239    12.759     4.553     4.256 -0.0336  0.8272  0.5609
 
              Baa    -0.0013    -0.679    -0.242    -0.226  0.0012  0.0014  1.0000
    15 H(1)   Bbb    -0.0009    -0.491    -0.175    -0.164  0.6658  0.7461 -0.0018
              Bcc     0.0022     1.170     0.417     0.390  0.7461 -0.6658  0.0000
 
              Baa    -0.0013    -0.176    -0.063    -0.059 -0.2120  0.9773 -0.0003
    16 C(13)  Bbb     0.0002     0.021     0.008     0.007 -0.0003  0.0003  1.0000
              Bcc     0.0011     0.154     0.055     0.051  0.9773  0.2120  0.0002
 
              Baa    -0.0008    -0.430    -0.153    -0.143  0.0614 -0.6899  0.7213
    17 H(1)   Bbb    -0.0005    -0.292    -0.104    -0.097 -0.4060  0.6429  0.6495
              Bcc     0.0014     0.722     0.257     0.241  0.9118  0.3328  0.2406
 
              Baa    -0.0008    -0.430    -0.153    -0.143 -0.0611  0.6886  0.7226
    18 H(1)   Bbb    -0.0005    -0.292    -0.104    -0.097  0.4062 -0.6441  0.6482
              Bcc     0.0014     0.722     0.257     0.241  0.9117  0.3331 -0.2404
 
              Baa    -0.0007    -0.383    -0.137    -0.128  0.0933  0.9956  0.0052
    19 H(1)   Bbb    -0.0007    -0.380    -0.136    -0.127 -0.0004 -0.0052  1.0000
              Bcc     0.0014     0.763     0.272     0.254  0.9956 -0.0933 -0.0001
 

 ---------------------------------------------------------------------------------

 No NMR shielding tensors so no spin-rotation constants.
 Leave Link  601 at Wed Dec 03 17:17:27 2025, MaxMem=   104857600 cpu:               0.0 elap:               0.2
 (Enter D:\Gaussian\G16W\l9999.exe)
 1|1|UNPC-PC-20250526LCFF|SP|UB3LYP|6-31G(d)|C8H9O2(2)|ADMINISTRATOR|03
 -Dec-2025|0||#P B3LYP/6-31G* SCF=conver=7 out=wfn||Generated by Multiw
 fn (http://sobereva.com/multiwfn)||0,2|C,0,-1.953559,-0.016677,-0.0000
 07|C,0,-1.022267,-1.050271,0.000018|C,0,0.351736,-0.78939,0.000095|C,0
 ,0.814607,0.545703,0.000103|C,0,-0.131414,1.576206,0.000107|C,0,-1.491
 448,1.309952,0.000053|H,0,0.212945,2.606897,0.000107|O,0,3.189874,-0.1
 32602,-0.000742|O,0,1.197307,-1.839762,0.000292|H,0,-1.33741,-2.087957
 ,0.000022|C,0,2.284616,0.874241,0.000103|H,0,2.521942,1.54511,-0.85775
 2|H,0,2.113149,-1.484781,0.000548|H,0,2.522193,1.543781,0.858959|H,0,-
 2.203513,2.127397,0.000033|C,0,-3.431381,-0.323608,-0.000115|H,0,-3.71
 1989,-0.908859,-0.881008|H,0,-3.711935,-0.909804,0.880162|H,0,-4.02817
 2,0.590196,0.000383||Version=EM64W-G16RevA.03|State=2-A|HF=-460.648819
 5|S2=0.754524|S2-1=0.|S2A=0.750015|RMSD=9.728e-008|Dipole=-0.5361645,0
 .943697,0.0008068|Quadrupole=0.1305903,1.0790336,-1.2096239,3.6320235,
 0.0059352,0.0001837|PG=C01 [X(C8H9O2)]||@

 Writing a WFN file to "N.wfn"


 SCIENCE AND PEACE WILL TRIUMPH OVER IGNORANCE AND WAR

                          -- PASTEUR
 Job cpu time:       0 days  0 hours  0 minutes 38.0 seconds.
 Elapsed time:       0 days  0 hours  0 minutes 37.8 seconds.
 File lengths (MBytes):  RWF=     32 Int=      0 D2E=      0 Chk=      3 Scr=      1
 Normal termination of Gaussian 16 at Wed Dec 03 17:17:27 2025.
