 Generated by Multiwfn (http://sobereva.com/multiwfn)
GAUSSIAN             73 MOL ORBITALS    316 PRIMITIVES       19 NUCLEI
  C    1    (CENTRE  1)  -3.69169142 -0.03151525 -0.00001312  CHARGE =  6.0
  C    2    (CENTRE  2)  -1.93180451 -1.98472475  0.00003412  CHARGE =  6.0
  C    3    (CENTRE  3)   0.66468483 -1.49173098  0.00017963  CHARGE =  6.0
  C    4    (CENTRE  4)   1.53938413  1.03122919  0.00019475  CHARGE =  6.0
  C    5    (CENTRE  5)  -0.24833656  2.97859754  0.00020230  CHARGE =  6.0
  C    6    (CENTRE  6)  -2.81842832  2.47545027  0.00010026  CHARGE =  6.0
  H    7    (CENTRE  7)   0.40240754  4.92632128  0.00020230  CHARGE =  1.0
  O    8    (CENTRE  8)   6.02798830 -0.25058127 -0.00140207  CHARGE =  8.0
  O    9    (CENTRE  9)   2.26258254 -3.47664631  0.00055190  CHARGE =  8.0
  H   10    (CENTRE 10)  -2.52733837 -3.94566712  0.00004168  CHARGE =  1.0
  C   11    (CENTRE 11)   4.31729851  1.65207617  0.00019475  CHARGE =  6.0
  H   12    (CENTRE 12)   4.76577959  2.91983486 -1.62091626  CHARGE =  1.0
  H   13    (CENTRE 13)   3.99327306 -2.80582935  0.00103567  CHARGE =  1.0
  H   14    (CENTRE 14)   4.76625391  2.91732342  1.62319737  CHARGE =  1.0
  H   15    (CENTRE 15)  -4.16403623  4.02019738  0.00006246  CHARGE =  1.0
  C   16    (CENTRE 16)  -6.48437024 -0.61153091 -0.00021721  CHARGE =  6.0
  H   17    (CENTRE 17)  -7.01464245 -1.71749504 -1.66486373  CHARGE =  1.0
  H   18    (CENTRE 18)  -7.01454041 -1.71928084  1.66326523  CHARGE =  1.0
  H   19    (CENTRE 19)  -7.61214187  1.11530832  0.00072387  CHARGE =  1.0
CENTRE ASSIGNMENTS    1  1  1  1  1  1  1  1  1  1  1  1  1  1  1  1  1  1  1  1
CENTRE ASSIGNMENTS    1  1  1  1  1  1  1  1  2  2  2  2  2  2  2  2  2  2  2  2
CENTRE ASSIGNMENTS    2  2  2  2  2  2  2  2  2  2  2  2  2  2  2  2  3  3  3  3
CENTRE ASSIGNMENTS    3  3  3  3  3  3  3  3  3  3  3  3  3  3  3  3  3  3  3  3
CENTRE ASSIGNMENTS    3  3  3  3  4  4  4  4  4  4  4  4  4  4  4  4  4  4  4  4
CENTRE ASSIGNMENTS    4  4  4  4  4  4  4  4  4  4  4  4  5  5  5  5  5  5  5  5
CENTRE ASSIGNMENTS    5  5  5  5  5  5  5  5  5  5  5  5  5  5  5  5  5  5  5  5
CENTRE ASSIGNMENTS    6  6  6  6  6  6  6  6  6  6  6  6  6  6  6  6  6  6  6  6
CENTRE ASSIGNMENTS    6  6  6  6  6  6  6  6  7  7  7  7  8  8  8  8  8  8  8  8
CENTRE ASSIGNMENTS    8  8  8  8  8  8  8  8  8  8  8  8  8  8  8  8  8  8  8  8
CENTRE ASSIGNMENTS    9  9  9  9  9  9  9  9  9  9  9  9  9  9  9  9  9  9  9  9
CENTRE ASSIGNMENTS    9  9  9  9  9  9  9  9 10 10 10 10 11 11 11 11 11 11 11 11
CENTRE ASSIGNMENTS   11 11 11 11 11 11 11 11 11 11 11 11 11 11 11 11 11 11 11 11
CENTRE ASSIGNMENTS   12 12 12 12 13 13 13 13 14 14 14 14 15 15 15 15 16 16 16 16
CENTRE ASSIGNMENTS   16 16 16 16 16 16 16 16 16 16 16 16 16 16 16 16 16 16 16 16
CENTRE ASSIGNMENTS   16 16 16 16 17 17 17 17 18 18 18 18 19 19 19 19
TYPE ASSIGNMENTS      1  1  1  1  1  1  1  1  1  2  2  2  3  3  3  4  4  4  1  2
TYPE ASSIGNMENTS      3  4  5  6  7  8  9 10  1  1  1  1  1  1  1  1  1  2  2  2
TYPE ASSIGNMENTS      3  3  3  4  4  4  1  2  3  4  5  6  7  8  9 10  1  1  1  1
TYPE ASSIGNMENTS      1  1  1  1  1  2  2  2  3  3  3  4  4  4  1  2  3  4  5  6
TYPE ASSIGNMENTS      7  8  9 10  1  1  1  1  1  1  1  1  1  2  2  2  3  3  3  4
TYPE ASSIGNMENTS      4  4  1  2  3  4  5  6  7  8  9 10  1  1  1  1  1  1  1  1
TYPE ASSIGNMENTS      1  2  2  2  3  3  3  4  4  4  1  2  3  4  5  6  7  8  9 10
TYPE ASSIGNMENTS      1  1  1  1  1  1  1  1  1  2  2  2  3  3  3  4  4  4  1  2
TYPE ASSIGNMENTS      3  4  5  6  7  8  9 10  1  1  1  1  1  1  1  1  1  1  1  1
TYPE ASSIGNMENTS      1  2  2  2  3  3  3  4  4  4  1  2  3  4  5  6  7  8  9 10
TYPE ASSIGNMENTS      1  1  1  1  1  1  1  1  1  2  2  2  3  3  3  4  4  4  1  2
TYPE ASSIGNMENTS      3  4  5  6  7  8  9 10  1  1  1  1  1  1  1  1  1  1  1  1
TYPE ASSIGNMENTS      1  2  2  2  3  3  3  4  4  4  1  2  3  4  5  6  7  8  9 10
TYPE ASSIGNMENTS      1  1  1  1  1  1  1  1  1  1  1  1  1  1  1  1  1  1  1  1
TYPE ASSIGNMENTS      1  1  1  1  1  2  2  2  3  3  3  4  4  4  1  2  3  4  5  6
TYPE ASSIGNMENTS      7  8  9 10  1  1  1  1  1  1  1  1  1  1  1  1
EXPONENTS  0.3047525D+04 0.4573695D+03 0.1039487D+03 0.2921016D+02 0.9286663D+01
EXPONENTS  0.3163927D+01 0.7868272D+01 0.1881289D+01 0.5442493D+00 0.7868272D+01
EXPONENTS  0.1881289D+01 0.5442493D+00 0.7868272D+01 0.1881289D+01 0.5442493D+00
EXPONENTS  0.7868272D+01 0.1881289D+01 0.5442493D+00 0.1687145D+00 0.1687145D+00
EXPONENTS  0.1687145D+00 0.1687145D+00 0.8000000D+00 0.8000000D+00 0.8000000D+00
EXPONENTS  0.8000000D+00 0.8000000D+00 0.8000000D+00 0.3047525D+04 0.4573695D+03
EXPONENTS  0.1039487D+03 0.2921016D+02 0.9286663D+01 0.3163927D+01 0.7868272D+01
EXPONENTS  0.1881289D+01 0.5442493D+00 0.7868272D+01 0.1881289D+01 0.5442493D+00
EXPONENTS  0.7868272D+01 0.1881289D+01 0.5442493D+00 0.7868272D+01 0.1881289D+01
EXPONENTS  0.5442493D+00 0.1687145D+00 0.1687145D+00 0.1687145D+00 0.1687145D+00
EXPONENTS  0.8000000D+00 0.8000000D+00 0.8000000D+00 0.8000000D+00 0.8000000D+00
EXPONENTS  0.8000000D+00 0.3047525D+04 0.4573695D+03 0.1039487D+03 0.2921016D+02
EXPONENTS  0.9286663D+01 0.3163927D+01 0.7868272D+01 0.1881289D+01 0.5442493D+00
EXPONENTS  0.7868272D+01 0.1881289D+01 0.5442493D+00 0.7868272D+01 0.1881289D+01
EXPONENTS  0.5442493D+00 0.7868272D+01 0.1881289D+01 0.5442493D+00 0.1687145D+00
EXPONENTS  0.1687145D+00 0.1687145D+00 0.1687145D+00 0.8000000D+00 0.8000000D+00
EXPONENTS  0.8000000D+00 0.8000000D+00 0.8000000D+00 0.8000000D+00 0.3047525D+04
EXPONENTS  0.4573695D+03 0.1039487D+03 0.2921016D+02 0.9286663D+01 0.3163927D+01
EXPONENTS  0.7868272D+01 0.1881289D+01 0.5442493D+00 0.7868272D+01 0.1881289D+01
EXPONENTS  0.5442493D+00 0.7868272D+01 0.1881289D+01 0.5442493D+00 0.7868272D+01
EXPONENTS  0.1881289D+01 0.5442493D+00 0.1687145D+00 0.1687145D+00 0.1687145D+00
EXPONENTS  0.1687145D+00 0.8000000D+00 0.8000000D+00 0.8000000D+00 0.8000000D+00
EXPONENTS  0.8000000D+00 0.8000000D+00 0.3047525D+04 0.4573695D+03 0.1039487D+03
EXPONENTS  0.2921016D+02 0.9286663D+01 0.3163927D+01 0.7868272D+01 0.1881289D+01
EXPONENTS  0.5442493D+00 0.7868272D+01 0.1881289D+01 0.5442493D+00 0.7868272D+01
EXPONENTS  0.1881289D+01 0.5442493D+00 0.7868272D+01 0.1881289D+01 0.5442493D+00
EXPONENTS  0.1687145D+00 0.1687145D+00 0.1687145D+00 0.1687145D+00 0.8000000D+00
EXPONENTS  0.8000000D+00 0.8000000D+00 0.8000000D+00 0.8000000D+00 0.8000000D+00
EXPONENTS  0.3047525D+04 0.4573695D+03 0.1039487D+03 0.2921016D+02 0.9286663D+01
EXPONENTS  0.3163927D+01 0.7868272D+01 0.1881289D+01 0.5442493D+00 0.7868272D+01
EXPONENTS  0.1881289D+01 0.5442493D+00 0.7868272D+01 0.1881289D+01 0.5442493D+00
EXPONENTS  0.7868272D+01 0.1881289D+01 0.5442493D+00 0.1687145D+00 0.1687145D+00
EXPONENTS  0.1687145D+00 0.1687145D+00 0.8000000D+00 0.8000000D+00 0.8000000D+00
EXPONENTS  0.8000000D+00 0.8000000D+00 0.8000000D+00 0.1873114D+02 0.2825394D+01
EXPONENTS  0.6401217D+00 0.1612778D+00 0.5484672D+04 0.8252349D+03 0.1880470D+03
EXPONENTS  0.5296450D+02 0.1689757D+02 0.5799635D+01 0.1553962D+02 0.3599934D+01
EXPONENTS  0.1013762D+01 0.1553962D+02 0.3599934D+01 0.1013762D+01 0.1553962D+02
EXPONENTS  0.3599934D+01 0.1013762D+01 0.1553962D+02 0.3599934D+01 0.1013762D+01
EXPONENTS  0.2700058D+00 0.2700058D+00 0.2700058D+00 0.2700058D+00 0.8000000D+00
EXPONENTS  0.8000000D+00 0.8000000D+00 0.8000000D+00 0.8000000D+00 0.8000000D+00
EXPONENTS  0.5484672D+04 0.8252349D+03 0.1880470D+03 0.5296450D+02 0.1689757D+02
EXPONENTS  0.5799635D+01 0.1553962D+02 0.3599934D+01 0.1013762D+01 0.1553962D+02
EXPONENTS  0.3599934D+01 0.1013762D+01 0.1553962D+02 0.3599934D+01 0.1013762D+01
EXPONENTS  0.1553962D+02 0.3599934D+01 0.1013762D+01 0.2700058D+00 0.2700058D+00
EXPONENTS  0.2700058D+00 0.2700058D+00 0.8000000D+00 0.8000000D+00 0.8000000D+00
EXPONENTS  0.8000000D+00 0.8000000D+00 0.8000000D+00 0.1873114D+02 0.2825394D+01
EXPONENTS  0.6401217D+00 0.1612778D+00 0.3047525D+04 0.4573695D+03 0.1039487D+03
EXPONENTS  0.2921016D+02 0.9286663D+01 0.3163927D+01 0.7868272D+01 0.1881289D+01
EXPONENTS  0.5442493D+00 0.7868272D+01 0.1881289D+01 0.5442493D+00 0.7868272D+01
EXPONENTS  0.1881289D+01 0.5442493D+00 0.7868272D+01 0.1881289D+01 0.5442493D+00
EXPONENTS  0.1687145D+00 0.1687145D+00 0.1687145D+00 0.1687145D+00 0.8000000D+00
EXPONENTS  0.8000000D+00 0.8000000D+00 0.8000000D+00 0.8000000D+00 0.8000000D+00
EXPONENTS  0.1873114D+02 0.2825394D+01 0.6401217D+00 0.1612778D+00 0.1873114D+02
EXPONENTS  0.2825394D+01 0.6401217D+00 0.1612778D+00 0.1873114D+02 0.2825394D+01
EXPONENTS  0.6401217D+00 0.1612778D+00 0.1873114D+02 0.2825394D+01 0.6401217D+00
EXPONENTS  0.1612778D+00 0.3047525D+04 0.4573695D+03 0.1039487D+03 0.2921016D+02
EXPONENTS  0.9286663D+01 0.3163927D+01 0.7868272D+01 0.1881289D+01 0.5442493D+00
EXPONENTS  0.7868272D+01 0.1881289D+01 0.5442493D+00 0.7868272D+01 0.1881289D+01
EXPONENTS  0.5442493D+00 0.7868272D+01 0.1881289D+01 0.5442493D+00 0.1687145D+00
EXPONENTS  0.1687145D+00 0.1687145D+00 0.1687145D+00 0.8000000D+00 0.8000000D+00
EXPONENTS  0.8000000D+00 0.8000000D+00 0.8000000D+00 0.8000000D+00 0.1873114D+02
EXPONENTS  0.2825394D+01 0.6401217D+00 0.1612778D+00 0.1873114D+02 0.2825394D+01
EXPONENTS  0.6401217D+00 0.1612778D+00 0.1873114D+02 0.2825394D+01 0.6401217D+00
EXPONENTS  0.1612778D+00
MO    1     MO 0.0        OCC NO =    1.0000000  ORB. ENERGY =  -19.187245
 -0.21182132D-05 -0.39076897D-05 -0.63082228D-05 -0.82114317D-05 -0.70068295D-05
 -0.24192899D-05  0.81127538D-05  0.37391608D-05 -0.10484997D-04 -0.39386409D-04
 -0.30199000D-04 -0.15071418D-04  0.40862426D-05  0.31330717D-05  0.15636223D-05
 -0.11389324D-07 -0.87326115D-08 -0.43581852D-08 -0.30838715D-04  0.45048940D-04
  0.27118948D-04  0.96483326D-08 -0.51711790D-06  0.22162206D-05 -0.11103447D-04
  0.14036031D-05  0.10652100D-07 -0.18045253D-07  0.28594163D-05  0.52750648D-05
  0.85155902D-05  0.11084768D-04  0.94586528D-05  0.32658455D-05 -0.15382045D-04
 -0.70895705D-05  0.19879896D-04  0.57750875D-06  0.44279708D-06  0.22098678D-06
 -0.16949754D-04 -0.12995996D-04 -0.64859128D-05  0.27975801D-07  0.21450069D-07
  0.10705088D-07 -0.12399591D-03 -0.84577352D-04  0.48540037D-04 -0.26064566D-07
 -0.33407724D-04  0.67725192D-05  0.11644771D-04  0.20263108D-04 -0.37801868D-07
 -0.12925491D-07  0.76443033D-05  0.14102247D-04  0.22765399D-04  0.29633786D-04
  0.25286563D-04  0.87308425D-05 -0.52275264D-05 -0.24093621D-05  0.67561029D-05
  0.60651274D-04  0.46503550D-04  0.23208531D-04 -0.36128619D-04 -0.27701134D-04
 -0.13824807D-04 -0.11408674D-06 -0.87474477D-07 -0.43655895D-07 -0.78402984D-04
 -0.91112011D-04 -0.23567353D-03  0.36174551D-07  0.96622052D-04  0.51802406D-04
  0.24405157D-04 -0.11723543D-03 -0.34636846D-07  0.35685782D-07 -0.16037190D-04
 -0.29585483D-04 -0.47760144D-04 -0.62169516D-04 -0.53049361D-04 -0.18316669D-04
  0.37989549D-04  0.17509348D-04 -0.49098040D-04 -0.10992582D-04 -0.84284150D-05
 -0.42063698D-05  0.34434128D-04  0.26401905D-04  0.13176401D-04 -0.48289597D-07
 -0.37025400D-07 -0.18478270D-07  0.35857186D-03  0.36079151D-04 -0.19449882D-03
 -0.31550877D-07 -0.69590621D-04 -0.21058693D-04 -0.60801598D-04  0.60723647D-04
 -0.22070129D-08 -0.98248467D-07  0.13863171D-05  0.25574843D-05  0.41285726D-05
  0.53741748D-05  0.45857931D-05  0.15833642D-05  0.99772969D-06  0.45985270D-06
 -0.12894750D-05  0.69291983D-04  0.53128697D-04  0.26514944D-04 -0.18894299D-04
 -0.14486950D-04 -0.72300035D-05  0.71091593D-07  0.54508524D-07  0.27203574D-07
  0.13264488D-03 -0.77660299D-04 -0.99221804D-05 -0.17946221D-07  0.37840956D-04
  0.33223335D-05  0.10312781D-04  0.30682996D-04  0.13752501D-07 -0.21023871D-07
  0.39377074D-05  0.72643013D-05  0.11726835D-04  0.15264854D-04  0.13025528D-04
  0.44974018D-05 -0.18604430D-04 -0.85747649D-05  0.24044536D-04 -0.17186805D-04
 -0.13177752D-04 -0.65766218D-05  0.12388420D-04  0.94986548D-05  0.47404944D-05
 -0.15836090D-07 -0.12142110D-07 -0.60597637D-08 -0.14300921D-03 -0.56937352D-04
 -0.15301350D-05  0.60603452D-08 -0.22954598D-04  0.13220580D-05  0.16627671D-04
 -0.97529380D-05  0.19234692D-07  0.33753188D-09  0.10118681D-04  0.17163198D-04
  0.19539694D-04 -0.13805405D-04  0.82557673D+00  0.15195019D+01  0.24588409D+01
  0.32322152D+01  0.27722522D+01  0.94788010D+00 -0.16115872D-01 -0.71908708D-02
  0.21234738D-01 -0.18210432D-02 -0.14030156D-02 -0.61599943D-03  0.18038211D-02
  0.13897469D-02  0.61017374D-03  0.13660524D-05  0.10524697D-05  0.46209090D-06
  0.35343752D-02 -0.25947417D-03  0.10577774D-03  0.29933402D-06 -0.93025122D-02
 -0.92771582D-02 -0.91776132D-02  0.54942739D-04  0.11607881D-07 -0.17411661D-06
 -0.13560330D-04 -0.24958246D-04 -0.40387153D-04 -0.53090044D-04 -0.45535022D-04
 -0.15569197D-04  0.51808267D-04  0.23116748D-04 -0.68264066D-04 -0.20600288D-03
 -0.15871411D-03 -0.69684044D-04  0.90386945D-04  0.69638268D-04  0.30574951D-04
 -0.37083666D-06 -0.28570966D-06 -0.12544193D-06  0.13348754D-03  0.23718342D-03
 -0.15159646D-04  0.12819469D-06 -0.20936609D-04 -0.12694761D-03 -0.63241998D-04
  0.14964268D-03  0.22335562D-06  0.19170421D-06  0.76044883D-05  0.12898651D-04
  0.14684659D-04  0.17411172D-04  0.10325973D-04  0.19049404D-04  0.30751644D-04
  0.40029504D-04  0.34157248D-04  0.11793677D-04 -0.21781050D-03 -0.10038866D-03
  0.28150028D-03  0.36935041D-03  0.28319447D-03  0.14133389D-03 -0.32604742D-03
 -0.24999248D-03 -0.12476377D-03 -0.43260211D-06 -0.33169186D-06 -0.16553749D-06
 -0.56270133D-03 -0.18332967D-03  0.27450850D-03  0.23252111D-06  0.32450048D-04
 -0.10242946D-03  0.99120374D-05 -0.30074412D-05 -0.82883775D-07 -0.12819044D-06
  0.15537500D-04  0.26354541D-04  0.30003714D-04 -0.43685207D-05 -0.44241472D-04
 -0.75041910D-04 -0.85432562D-04 -0.25992496D-03  0.15557925D-04  0.26389185D-04
  0.30043154D-04 -0.44568149D-05  0.22613792D-05  0.38357271D-05  0.43668397D-05
 -0.43705420D-05  0.74380392D-06  0.13721730D-05  0.22151127D-05  0.28834185D-05
  0.24604263D-05  0.84952606D-06 -0.37553294D-07 -0.17308279D-07  0.48534221D-07
  0.26231334D-04  0.20112523D-04  0.10037559D-04 -0.27745844D-05 -0.21273753D-05
 -0.10617094D-05 -0.15590276D-08 -0.11953635D-08 -0.59657015D-09  0.36189958D-04
  0.72385209D-05  0.53420739D-05  0.19460610D-08  0.94277072D-05  0.50398701D-06
  0.88721849D-05 -0.38674862D-06 -0.55875556D-08 -0.15194044D-08 -0.29849339D-06
 -0.50630128D-06 -0.57640611D-06 -0.31082615D-06 -0.29861002D-06 -0.50649911D-06
 -0.57663133D-06 -0.31151601D-06 -0.49723525D-06 -0.84340510D-06 -0.96018689D-06
 -0.80961152D-05
MO    2     MO 0.0        OCC NO =    1.0000000  ORB. ENERGY =  -19.165826
  0.14681115D-05  0.27083790D-05  0.43721635D-05  0.56912577D-05  0.48563605D-05
  0.16767846D-05  0.57746162D-05  0.26615153D-05 -0.74631668D-05  0.82384746D-04
  0.63167398D-04  0.31524959D-04 -0.44244378D-04 -0.33923783D-04 -0.16930345D-04
 -0.89952890D-08 -0.68970170D-08 -0.34420949D-08  0.29529140D-03  0.60829293D-04
  0.16713318D-04  0.54846810D-08  0.17574125D-04  0.44198453D-04  0.23417988D-04
 -0.10864785D-04 -0.23514913D-08  0.86759229D-08  0.59094833D-05  0.10901843D-04
  0.17598955D-04  0.22908610D-04  0.19547958D-04  0.67494402D-05 -0.64893993D-04
 -0.29909582D-04  0.83869590D-04 -0.64065336D-06 -0.49121236D-06 -0.24514939D-06
  0.12455375D-04  0.95499919D-05  0.47661153D-05  0.14357793D-07  0.11008645D-07
  0.54940854D-08 -0.27547223D-03 -0.49439011D-04 -0.28580576D-03 -0.54416932D-10
 -0.98143918D-04 -0.66718632D-04  0.26769550D-04 -0.20287989D-04 -0.19909794D-07
  0.16878886D-07 -0.33436707D-04 -0.61684196D-04 -0.99577418D-04 -0.12962021D-03
 -0.11060516D-03 -0.38189304D-04 -0.39352799D-04 -0.18137669D-04  0.50859917D-04
  0.30635351D-03  0.23489244D-03  0.11722779D-03 -0.47060312D-03 -0.36082862D-03
 -0.18007877D-03  0.47303917D-07  0.36269643D-07  0.18101094D-07  0.15204599D-03
 -0.39580218D-03  0.71753171D-03 -0.69678062D-07 -0.11847751D-03 -0.60312546D-05
 -0.14152173D-03  0.11252554D-03 -0.29647604D-07  0.44632717D-07  0.96342907D-05
  0.17773385D-04  0.28691754D-04  0.37348139D-04  0.31869235D-04  0.11003681D-04
 -0.82633299D-04 -0.38085612D-04  0.10679603D-03 -0.10959842D-03 -0.84033113D-04
 -0.41938413D-04  0.32547913D-04  0.24955676D-04  0.12454631D-04 -0.37634623D-07
 -0.28855842D-07 -0.14401088D-07 -0.55151923D-03  0.49374791D-03  0.15271412D-03
  0.31807012D-07 -0.57884778D-04 -0.13758745D-03  0.35816315D-04 -0.41522121D-05
 -0.27225052D-07 -0.17698683D-07 -0.26587538D-05 -0.49048815D-05 -0.79179996D-05
 -0.10306883D-04 -0.87948818D-05 -0.30366613D-05  0.20070687D-04  0.92505614D-05
 -0.25939540D-04  0.54800623D-04  0.42017642D-04  0.20969748D-04 -0.79027374D-04
 -0.60593178D-04 -0.30240243D-04 -0.50045655D-08 -0.38371834D-08 -0.19150234D-08
  0.35987989D-03 -0.41629527D-04 -0.18320550D-03 -0.10931447D-07  0.18769482D-04
  0.39309698D-04  0.32661928D-05 -0.62567465D-04 -0.10907924D-07  0.19927068D-07
  0.77225580D-05  0.14246612D-04  0.22998449D-04  0.29937147D-04  0.25545421D-04
  0.88202201D-05 -0.31715125D-04 -0.14617472D-04  0.40988918D-04 -0.26960044D-05
 -0.20671251D-05 -0.10316403D-05 -0.33379746D-04 -0.25593472D-04 -0.12772936D-04
 -0.23619557D-08 -0.18109978D-08 -0.90381484D-09 -0.23764271D-03 -0.68765932D-04
  0.90728532D-04  0.39644983D-09 -0.12396647D-04 -0.93540909D-06  0.35545130D-04
 -0.44290616D-04 -0.23689924D-08  0.51025862D-09  0.60700667D-05  0.10295982D-04
  0.11721612D-04  0.56166250D-04 -0.97771931D-05 -0.17995255D-04 -0.29119719D-04
 -0.38278686D-04 -0.32831406D-04 -0.11225615D-04  0.65229948D-05  0.29105476D-05
 -0.85948859D-05 -0.49991084D-04 -0.38515435D-04 -0.16910351D-04  0.12209188D-03
  0.94065211D-04  0.41299694D-04 -0.86902670D-07 -0.66953822D-07 -0.29396334D-07
  0.25325832D-04 -0.51923252D-05 -0.96310178D-04  0.26702798D-07 -0.59816590D-04
 -0.13831524D-04  0.90485301D-05  0.33810014D-04  0.19398493D-07 -0.16762511D-06
  0.82558531D+00  0.15195177D+01  0.24588665D+01  0.32322488D+01  0.27722810D+01
  0.94788996D+00 -0.15745356D-01 -0.70255470D-02  0.20746534D-01  0.71470454D-03
  0.55064132D-03  0.24176120D-03  0.29051611D-02  0.22382700D-02  0.98272108D-03
  0.36893283D-06  0.28424286D-06  0.12479792D-06  0.40947432D-02 -0.22276857D-03
  0.26045896D-03 -0.52352589D-07 -0.93163939D-02 -0.93809690D-02 -0.93516317D-02
 -0.12785853D-03  0.61957650D-07 -0.35008693D-08 -0.79885338D-05 -0.13550065D-04
 -0.15426270D-04 -0.13263327D-03  0.38650313D-05  0.71302280D-05  0.11510399D-04
  0.14983119D-04  0.12785123D-04  0.44143957D-05 -0.76692884D-05 -0.35347680D-05
  0.99118585D-05  0.96926806D-04  0.74317327D-04  0.37089555D-04 -0.74520580D-05
 -0.57137654D-05 -0.28515694D-05 -0.79769698D-07 -0.61162345D-07 -0.30524297D-07
 -0.24444154D-03  0.12616223D-03 -0.18942244D-04  0.37345794D-08 -0.27132015D-05
  0.63820363D-04 -0.68392931D-05 -0.28873590D-04 -0.67215073D-07  0.85058940D-07
  0.57874909D-05  0.98166800D-05  0.11175943D-04  0.37142957D-05  0.83700326D-04
  0.14197160D-03  0.16162964D-03 -0.28717987D-03  0.57736008D-05  0.97931197D-05
  0.11149121D-04  0.36781010D-05 -0.45478569D-05 -0.77140261D-05 -0.87821460D-05
 -0.31823565D-04  0.55382074D-05  0.10216911D-04  0.16493263D-04  0.21469328D-04
  0.18319816D-04  0.63253922D-05 -0.19394314D-04 -0.89388214D-05  0.25065388D-04
 -0.35451005D-05 -0.27181582D-05 -0.13565515D-05 -0.50821255D-05 -0.38966515D-05
 -0.19447022D-05  0.39043601D-08  0.29936157D-08  0.14940240D-08 -0.43427846D-04
 -0.13973101D-04 -0.32804747D-05 -0.37214398D-08 -0.10491332D-05  0.17004603D-04
  0.20618433D-04 -0.15243061D-04 -0.51452647D-08  0.17638732D-08  0.22945561D-05
  0.38920015D-05  0.44309061D-05  0.41547300D-05  0.22951609D-05  0.38930274D-05
  0.44320740D-05  0.41580655D-05  0.26029323D-05  0.44150659D-05  0.50263964D-05
  0.29283848D-05
MO    3     MO 0.0        OCC NO =    1.0000000  ORB. ENERGY =  -10.261353
  0.84857085D-05  0.15654475D-04  0.25271177D-04  0.32895563D-04  0.28069844D-04
  0.96918426D-05 -0.27982433D-04 -0.12897078D-04  0.36164752D-04  0.10432364D-05
  0.79988752D-06  0.39919993D-06 -0.42720265D-05 -0.32755189D-05 -0.16347135D-05
 -0.12574542D-07 -0.96413614D-08 -0.48117150D-08 -0.21386438D-03 -0.14794406D-03
 -0.32226469D-04  0.71160176D-08 -0.25268237D-04 -0.66687593D-07  0.60757405D-05
 -0.42605272D-05 -0.68418651D-08  0.48307156D-08 -0.26004753D-04 -0.47973691D-04
 -0.77444413D-04 -0.10080961D-03 -0.86021027D-04 -0.29700993D-04  0.93675295D-04
  0.43174858D-04 -0.12106681D-03 -0.12264414D-04 -0.94035747D-05 -0.46930428D-05
 -0.19673006D-04 -0.15084013D-04 -0.75279798D-05  0.16634260D-07  0.12754095D-07
  0.63651875D-08  0.48255931D-03  0.18669664D-03  0.11352500D-03  0.50003111D-09
  0.70835784D-04 -0.13246537D-04 -0.98244947D-04  0.38551288D-05  0.16397948D-07
 -0.47276895D-08 -0.16389419D-03 -0.30235278D-03 -0.48809114D-03 -0.63534964D-03
 -0.54214500D-03 -0.18718964D-03  0.38924061D-04  0.17940064D-04 -0.50305813D-04
 -0.18649063D-03 -0.14298918D-03 -0.71361624D-04 -0.31468841D-04 -0.24128311D-04
 -0.12041718D-04 -0.24745661D-07 -0.18973403D-07 -0.94690581D-08 -0.10787777D-03
  0.23300044D-03  0.20583616D-03  0.20519829D-07 -0.10981622D-03  0.85126670D-04
 -0.77511249D-04 -0.44306941D-04 -0.90190305D-08  0.40975676D-07  0.10455090D-02
  0.19287600D-02  0.31136167D-02  0.40530038D-02  0.34584355D-02  0.11941147D-02
  0.42598961D-04  0.19633822D-04 -0.55055286D-04 -0.32851102D-03 -0.25188142D-03
 -0.12570648D-03 -0.59931833D-04 -0.45951928D-04 -0.22933233D-04  0.70722224D-07
  0.54225316D-07  0.27062233D-07  0.71646224D-03  0.51809841D-03  0.23879837D-03
 -0.11274508D-07 -0.38894992D-03 -0.24835971D-03 -0.16778592D-03 -0.66478206D-04
  0.64974381D-07  0.58074987D-09 -0.11481308D-05 -0.21180772D-05 -0.34192333D-05
 -0.44508258D-05 -0.37978977D-05 -0.13113228D-05  0.15981059D-04  0.73656553D-05
 -0.20654066D-04 -0.11446911D-03 -0.87767653D-04 -0.43802210D-04 -0.40377525D-04
 -0.30958925D-04 -0.15450674D-04 -0.51238317D-07 -0.39286292D-07 -0.19606613D-07
 -0.24840293D-03  0.13216313D-03  0.71070307D-05  0.38130066D-07 -0.36538312D-04
  0.13661751D-03 -0.41572827D-04 -0.87070885D-04  0.33888039D-07 -0.12257690D-07
 -0.26008272D-04 -0.47980183D-04 -0.77454892D-04 -0.10082326D-03 -0.86032667D-04
 -0.29705012D-04  0.82525473D-04  0.38035915D-04 -0.10665668D-03 -0.36388622D-04
 -0.27900487D-04 -0.13924299D-04  0.78611435D-05  0.60274262D-05  0.30081081D-05
  0.18674624D-07  0.14318517D-07  0.71459435D-08  0.38881329D-03  0.18279227D-03
 -0.84777008D-04 -0.14724376D-07  0.37629093D-04 -0.19259549D-04 -0.96063861D-04
  0.68537870D-05 -0.14029755D-07  0.14938845D-07 -0.11518519D-04 -0.19537589D-04
 -0.22242854D-04  0.16024572D-04 -0.10722905D-03 -0.19735869D-03 -0.31936362D-03
 -0.41981242D-03 -0.36007067D-03 -0.12311428D-03  0.12249014D-03  0.54654863D-04
 -0.16139654D-03  0.28070222D-03  0.21626593D-03  0.94952391D-04 -0.31610275D-03
 -0.24354013D-03 -0.10692723D-03 -0.16984103D-06 -0.13085336D-06 -0.57451673D-07
  0.49894383D-03 -0.94764402D-05 -0.39691561D-04 -0.48521496D-07 -0.39341878D-03
 -0.55192398D-03  0.12711318D-04  0.74154157D-03  0.68538536D-06 -0.88357200D-06
 -0.10892788D-04 -0.20048545D-04 -0.32442330D-04 -0.42646351D-04 -0.36577528D-04
 -0.12506478D-04  0.30407966D-04  0.13567975D-04 -0.40066413D-04  0.11155489D-03
  0.85947026D-04  0.37735374D-04 -0.76115350D-04 -0.58642774D-04 -0.25747336D-04
 -0.52509680D-07 -0.40455877D-07 -0.17762309D-07  0.54132723D-04 -0.10592807D-03
 -0.17978280D-04  0.58433193D-09 -0.39785744D-06 -0.86053340D-04 -0.64522295D-04
 -0.45718991D-04  0.40833819D-07  0.27398236D-07 -0.22772461D-05 -0.38626404D-05
 -0.43974795D-05  0.48408460D-04  0.53258925D+00  0.98252317D+00  0.15860970D+01
  0.20646271D+01  0.17617500D+01  0.60828995D+00 -0.19847212D-01 -0.91475619D-02
  0.25650719D-01  0.48394333D-03  0.37105705D-03  0.18518347D-03 -0.37841704D-03
 -0.29014619D-03 -0.14480328D-03  0.12266714D-06  0.94053379D-07  0.46939228D-07
 -0.32545695D-02  0.31117376D-03 -0.10268278D-03 -0.20096151D-06 -0.99842353D-02
 -0.98408475D-02 -0.10010391D-01 -0.53713790D-03 -0.40069910D-06  0.32225074D-06
  0.16063345D-04  0.27246473D-04  0.31019146D-04  0.51310472D-03  0.19971587D-05
  0.33875591D-05  0.38566163D-05  0.37688419D-04  0.16059539D-04  0.27240017D-04
  0.31011797D-04  0.51320497D-03  0.31789103D-05  0.53920336D-05  0.61386397D-05
  0.62037314D-04 -0.12491275D-04 -0.23043962D-04 -0.37200100D-04 -0.48423478D-04
 -0.41319841D-04 -0.14266748D-04  0.22778299D-04  0.10498497D-04 -0.29438882D-04
 -0.45310896D-04 -0.34741521D-04 -0.17338454D-04  0.70290843D-05  0.53894560D-05
  0.26897163D-05  0.12534419D-07  0.96105976D-08  0.47963617D-08 -0.20329487D-04
  0.44218752D-05 -0.13507057D-04 -0.17200890D-07 -0.95917269D-05 -0.25913297D-04
 -0.35842875D-04  0.42924209D-05  0.67189956D-09 -0.39757974D-08 -0.25329966D-05
 -0.42964417D-05 -0.48913470D-05 -0.42445069D-05 -0.25334183D-05 -0.42971569D-05
 -0.48921613D-05 -0.42256533D-05 -0.76435078D-06 -0.12964836D-05 -0.14760008D-05
  0.14088532D-04
MO    4     MO 0.0        OCC NO =    1.0000000  ORB. ENERGY =  -10.254009
  0.44526200D-04  0.82142145D-04  0.13260289D-03  0.17260956D-03  0.14728805D-03
  0.50855026D-04 -0.11423624D-03 -0.52651380D-04  0.14763997D-03 -0.11180062D-03
 -0.85721628D-04 -0.42781100D-04  0.47628356D-04  0.36518402D-04  0.18225242D-04
 -0.16322057D-07 -0.12514718D-07 -0.62457213D-08 -0.16190123D-02 -0.68125919D-03
  0.11881742D-03 -0.14981285D-07  0.12851158D-04  0.26278139D-04  0.60562572D-04
 -0.17244121D-05 -0.41870961D-08 -0.19901687D-07  0.18135813D-02  0.33457034D-02
  0.54010027D-02  0.70305007D-02  0.59991390D-02  0.20713585D-02  0.30240230D-03
  0.13937694D-03 -0.39082749D-03 -0.29837901D-03 -0.22877810D-03 -0.11417630D-03
 -0.18523483D-03 -0.14202632D-03 -0.70881085D-04 -0.15728789D-07 -0.12059838D-07
 -0.60187043D-08  0.26688536D-02  0.40990237D-03  0.12235578D-02  0.13242910D-07
 -0.46421507D-03 -0.22921409D-03 -0.38291178D-03  0.18282962D-03 -0.30272633D-07
  0.24848593D-07  0.53258342D+00  0.98251242D+00  0.15860797D+01  0.20646045D+01
  0.17617308D+01  0.60828329D+00 -0.19832793D-01 -0.91409161D-02  0.25632083D-01
  0.73284442D-03  0.56189862D-03  0.28042679D-03 -0.77187647D-03 -0.59182592D-03
 -0.29536261D-03  0.18787325D-06  0.14404929D-06  0.71890692D-07 -0.40884369D-02
  0.12546652D-02 -0.17126187D-02  0.13717528D-06 -0.97069121D-02 -0.95520346D-02
 -0.10335346D-01 -0.79347619D-03  0.26878769D-06 -0.28868089D-06  0.23166218D-02
  0.42737150D-02  0.68991011D-02  0.89805797D-02  0.76631449D-02  0.26458998D-02
  0.21098442D-03  0.97242525D-04 -0.27267819D-03  0.43854043D-03  0.33624499D-03
  0.16780982D-03  0.39010812D-03  0.29911016D-03  0.14927693D-03  0.96002766D-08
  0.73608832D-08  0.36735966D-08  0.23672639D-02 -0.15606424D-02 -0.67406130D-03
 -0.49158191D-07 -0.27434818D-03 -0.49909375D-03 -0.32107182D-03  0.58379221D-04
 -0.60314268D-08  0.40676864D-07  0.36274395D-04  0.66919176D-04  0.10802830D-03
  0.14062075D-03  0.11999194D-03  0.41430333D-04 -0.78500812D-04 -0.36180952D-04
  0.10145517D-03 -0.10089990D-03 -0.77363646D-04 -0.38609882D-04  0.17096165D-03
  0.13108255D-03  0.65419380D-04 -0.28512997D-08 -0.21861957D-08 -0.10910649D-08
 -0.15225928D-02  0.30519235D-03  0.68887926D-03  0.32025009D-07  0.61056011D-04
  0.17791132D-04  0.37328946D-04 -0.22022322D-04 -0.13341062D-07 -0.36680476D-07
 -0.66369623D-04 -0.12243899D-03 -0.19765450D-03 -0.25728743D-03 -0.21954383D-03
 -0.75803209D-04  0.14145982D-03  0.65198701D-04 -0.18282396D-03 -0.31384995D-04
 -0.24064024D-04 -0.12009634D-04  0.61074879D-04  0.46828343D-04  0.23370625D-04
 -0.23225320D-08 -0.17807702D-08 -0.88872913D-09  0.11660142D-02  0.48789474D-03
 -0.38404655D-03  0.43195417D-08  0.65495838D-05 -0.18012488D-04 -0.13716030D-03
  0.50767760D-04  0.10751901D-07  0.12423171D-07 -0.25844431D-04 -0.43837047D-04
 -0.49906928D-04 -0.19936584D-03 -0.15873394D-04 -0.29215518D-04 -0.47276223D-04
 -0.62145918D-04 -0.53302193D-04 -0.18224925D-04  0.33211771D-04  0.14819027D-04
 -0.43760787D-04  0.65587542D-04  0.50531665D-04  0.22186123D-04 -0.15262178D-04
 -0.11758686D-04 -0.51626963D-05 -0.93824940D-07 -0.72287058D-07 -0.31737912D-07
  0.44024218D-04  0.33152859D-04 -0.77107352D-05  0.16157519D-07 -0.74580582D-04
 -0.60582217D-04 -0.10714806D-03  0.71098691D-04  0.27385091D-07  0.54237370D-08
  0.14195083D-03  0.26126530D-03  0.42277657D-03  0.55575164D-03  0.47666495D-03
  0.16297984D-03 -0.77769626D-03 -0.34700656D-03  0.10247150D-02 -0.52243170D-04
 -0.40250546D-04 -0.17672158D-04 -0.84766149D-04 -0.65307748D-04 -0.28673619D-04
 -0.15774893D-06 -0.12153705D-06 -0.53361310D-07 -0.19935597D-02  0.58876401D-03
 -0.66843726D-03  0.21285716D-06  0.34755174D-03  0.14770664D-03  0.10659638D-02
  0.12291432D-02 -0.38395088D-06  0.38717395D-06  0.48198674D-04  0.81754073D-04
  0.93074122D-04  0.36644022D-03  0.12851762D-03  0.23708991D-03  0.38273662D-03
  0.49820936D-03  0.42512295D-03  0.14678474D-03  0.10733606D-03  0.49471090D-04
 -0.13872210D-03 -0.16974598D-03 -0.13015045D-03 -0.64954196D-04 -0.24041897D-04
 -0.18433802D-04 -0.91997589D-05 -0.50695503D-07 -0.38870096D-07 -0.19398902D-07
  0.86334928D-03 -0.30168924D-03 -0.32039844D-04  0.24269189D-07  0.10911581D-03
 -0.12428618D-04 -0.70989043D-04 -0.10720660D-04 -0.54047075D-07  0.54970815D-07
 -0.18752522D-04 -0.31807826D-04 -0.36212086D-04 -0.10309527D-04  0.45644280D-04
  0.77421338D-04  0.88141457D-04 -0.86779254D-04 -0.18749919D-04 -0.31803412D-04
 -0.36207061D-04 -0.10336795D-04  0.27632123D-04  0.46869311D-04  0.53359054D-04
  0.17612970D-03 -0.25247495D-04 -0.46576699D-04 -0.75189233D-04 -0.97874041D-04
 -0.83516097D-04 -0.28836101D-04  0.56951372D-04  0.26248835D-04 -0.73604474D-04
 -0.38970369D-04 -0.29880007D-04 -0.14912218D-04  0.33906641D-05  0.25997462D-05
  0.12974556D-05  0.13634195D-07  0.10453836D-07  0.52171969D-08 -0.46391538D-04
  0.13880843D-04 -0.69926960D-04 -0.21647840D-07  0.21735157D-04 -0.99283096D-04
 -0.42813961D-04 -0.55379477D-04  0.13952942D-07 -0.64613283D-07 -0.94072743D-05
 -0.15956518D-04 -0.18165932D-04 -0.18812866D-04 -0.94107812D-05 -0.15962466D-04