 Entering Link 1 = D:\Gaussian\G16W\l1.exe PID=     36700.
  
 Copyright (c) 1988,1990,1992,1993,1995,1998,2003,2009,2016,
            Gaussian, Inc.  All Rights Reserved.
  
 This is part of the Gaussian(R) 16 program.  It is based on
 the Gaussian(R) 09 system (copyright 2009, Gaussian, Inc.),
 the Gaussian(R) 03 system (copyright 2003, Gaussian, Inc.),
 the Gaussian(R) 98 system (copyright 1998, Gaussian, Inc.),
 the Gaussian(R) 94 system (copyright 1995, Gaussian, Inc.),
 the Gaussian 92(TM) system (copyright 1992, Gaussian, Inc.),
 the Gaussian 90(TM) system (copyright 1990, Gaussian, Inc.),
 the Gaussian 88(TM) system (copyright 1988, Gaussian, Inc.),
 the Gaussian 86(TM) system (copyright 1986, Carnegie Mellon
 University), and the Gaussian 82(TM) system (copyright 1983,
 Carnegie Mellon University). Gaussian is a federally registered
 trademark of Gaussian, Inc.
  
 This software contains proprietary and confidential information,
 including trade secrets, belonging to Gaussian, Inc.
  
 This software is provided under written license and may be
 used, copied, transmitted, or stored only in accord with that
 written license.
  
 The following legend is applicable only to US Government
 contracts under FAR:
  
                    RESTRICTED RIGHTS LEGEND
  
 Use, reproduction and disclosure by the US Government is
 subject to restrictions as set forth in subparagraphs (a)
 and (c) of the Commercial Computer Software - Restricted
 Rights clause in FAR 52.227-19.
  
 Gaussian, Inc.
 340 Quinnipiac St., Bldg. 40, Wallingford CT 06492
  
  
 ---------------------------------------------------------------
 Warning -- This program may not be used in any manner that
 competes with the business of Gaussian, Inc. or will provide
 assistance to any competitor of Gaussian, Inc.  The licensee
 of this program is prohibited from giving any competitor of
 Gaussian, Inc. access to this program.  By using this program,
 the user acknowledges that Gaussian, Inc. is engaged in the
 business of creating and licensing software in the field of
 computational chemistry and represents and warrants to the
 licensee that it is not a competitor of Gaussian, Inc. and that
 it will not use this program in any manner prohibited above.
 ---------------------------------------------------------------
  

 Cite this work as:
 Gaussian 16, Revision A.03,
 M. J. Frisch, G. W. Trucks, H. B. Schlegel, G. E. Scuseria, 
 M. A. Robb, J. R. Cheeseman, G. Scalmani, V. Barone, 
 G. A. Petersson, H. Nakatsuji, X. Li, M. Caricato, A. V. Marenich, 
 J. Bloino, B. G. Janesko, R. Gomperts, B. Mennucci, H. P. Hratchian, 
 J. V. Ortiz, A. F. Izmaylov, J. L. Sonnenberg, D. Williams-Young, 
 F. Ding, F. Lipparini, F. Egidi, J. Goings, B. Peng, A. Petrone, 
 T. Henderson, D. Ranasinghe, V. G. Zakrzewski, J. Gao, N. Rega, 
 G. Zheng, W. Liang, M. Hada, M. Ehara, K. Toyota, R. Fukuda, 
 J. Hasegawa, M. Ishida, T. Nakajima, Y. Honda, O. Kitao, H. Nakai, 
 T. Vreven, K. Throssell, J. A. Montgomery, Jr., J. E. Peralta, 
 F. Ogliaro, M. J. Bearpark, J. J. Heyd, E. N. Brothers, K. N. Kudin, 
 V. N. Staroverov, T. A. Keith, R. Kobayashi, J. Normand, 
 K. Raghavachari, A. P. Rendell, J. C. Burant, S. S. Iyengar, 
 J. Tomasi, M. Cossi, J. M. Millam, M. Klene, C. Adamo, R. Cammi, 
 J. W. Ochterski, R. L. Martin, K. Morokuma, O. Farkas, 
 J. B. Foresman, and D. J. Fox, Gaussian, Inc., Wallingford CT, 2016.
 
 ******************************************
 Gaussian 16:  EM64W-G16RevA.03 17-Dec-2016
                02-Dec-2025 
 ******************************************
 %nprocshared=14
 Will use up to   14 processors via shared memory.
 %mem=80GB
 %chk=SR-15.chk
 ---------------------------------------------------------
 # ub3lyp/6-311g(d,p) geom=connectivity temperature=823.15
 ---------------------------------------------------------
 1/38=1,57=2,112=823150,172=1/1;
 2/12=2,17=6,18=5,40=1/2;
 3/5=4,6=6,7=101,11=2,25=1,30=1,74=-5,116=2/1,2,3;
 4//1;
 5/5=2,38=5/2;
 6/7=2,8=2,9=2,10=2,28=1/1;
 99/5=1,9=1/99;
 -------------------
 Title Card Required
 -------------------
 Symbolic Z-matrix:
 Charge =  0 Multiplicity = 2
 C                    -1.95356  -0.01668  -0.00001 
 C                    -1.02227  -1.05027   0.00002 
 C                     0.35174  -0.78939   0.0001 
 C                     0.81461   0.5457    0.0001 
 C                    -0.13141   1.57621   0.00011 
 C                    -1.49145   1.30995   0.00005 
 H                     0.21295   2.6069    0.00011 
 O                     3.18987  -0.1326   -0.00074 
 O                     1.19731  -1.83976   0.00029 
 H                    -1.33741  -2.08796   0.00002 
 C                     2.28462   0.87424   0.0001 
 H                     2.52194   1.54511  -0.85775 
 H                     2.11315  -1.48478   0.00055 
 H                     2.52219   1.54378   0.85896 
 H                    -2.20351   2.1274    0.00003 
 C                    -3.43138  -0.32361  -0.00012 
 H                    -3.71199  -0.90886  -0.88101 
 H                    -3.71194  -0.9098    0.88016 
 H                    -4.02817   0.5902    0.00038 
 
                          Input orientation:                          
 ---------------------------------------------------------------------
 Center     Atomic      Atomic             Coordinates (Angstroms)
 Number     Number       Type             X           Y           Z
 ---------------------------------------------------------------------
      1          6           0       -1.953559   -0.016677   -0.000007
      2          6           0       -1.022267   -1.050271    0.000018
      3          6           0        0.351736   -0.789390    0.000095
      4          6           0        0.814607    0.545703    0.000103
      5          6           0       -0.131414    1.576206    0.000107
      6          6           0       -1.491448    1.309952    0.000053
      7          1           0        0.212945    2.606897    0.000107
      8          8           0        3.189874   -0.132602   -0.000742
      9          8           0        1.197307   -1.839762    0.000292
     10          1           0       -1.337410   -2.087957    0.000022
     11          6           0        2.284616    0.874241    0.000103
     12          1           0        2.521942    1.545110   -0.857752
     13          1           0        2.113149   -1.484781    0.000548
     14          1           0        2.522193    1.543781    0.858959
     15          1           0       -2.203513    2.127397    0.000033
     16          6           0       -3.431381   -0.323608   -0.000115
     17          1           0       -3.711989   -0.908859   -0.881008
     18          1           0       -3.711935   -0.909804    0.880162
     19          1           0       -4.028172    0.590196    0.000383
 ---------------------------------------------------------------------
                    Distance matrix (angstroms):
                    1          2          3          4          5
     1  C    0.000000
     2  C    1.391266   0.000000
     3  C    2.431352   1.398550   0.000000
     4  C    2.824715   2.433360   1.413054   0.000000
     5  C    2.420225   2.773446   2.414431   1.398890   0.000000
     6  C    1.404810   2.406405   2.793665   2.429396   1.385851
     7  H    3.402481   3.860133   3.399122   2.147212   1.086695
     8  O    5.144739   4.310945   2.913142   2.470221   3.735101
     9  O    3.640274   2.355802   1.348433   2.415968   3.665288
    10  H    2.160981   1.084485   2.130608   3.401080   3.857527
    11  C    4.330804   3.826124   2.550234   1.506275   2.515940
    12  H    4.817158   4.475845   3.300846   2.156321   2.788761
    13  H    4.323592   3.165380   1.893712   2.410203   3.795748
    14  H    4.817178   4.475498   3.300336   2.156303   2.789320
    15  H    2.158595   3.390120   3.877750   3.407463   2.144156
    16  C    1.509359   2.516321   3.811683   4.334065   3.807765
    17  H    2.159682   2.833868   4.159865   4.835512   4.446620
    18  H    2.159690   2.833496   4.159620   4.835554   4.446895
    19  H    2.161554   3.424412   4.592042   4.842983   4.019569
                    6          7          8          9         10
     6  C    0.000000
     7  H    2.141733   0.000000
     8  O    4.898545   4.045610   0.000000
     9  O    4.141268   4.554311   2.623875   0.000000
    10  H    3.401399   4.944214   4.931502   2.546839   0.000000
    11  C    3.801119   2.700725   1.353967   2.923705   4.679069
    12  H    4.110770   2.682309   1.998829   3.734736   5.369316
    13  H    4.561102   4.511386   1.728504   0.982231   3.502882
    14  H    4.111169   2.683369   1.998786   3.733764   5.368783
    15  H    1.084091   2.463573   5.847753   5.225316   4.303411
    16  C    2.536111   4.676427   6.624009   4.870675   2.738182
    17  H    3.260398   5.342472   7.000940   5.073900   2.793763
    18  H    3.260747   5.342880   7.001072   5.073426   2.793038
    19  H    2.636857   4.696185   7.254145   5.762840   3.796407
                   11         12         13         14         15
    11  C    0.000000
    12  H    1.114587   0.000000
    13  H    2.365245   3.175536   0.000000
    14  H    1.114612   1.716712   3.174331   0.000000
    15  H    4.659796   4.837849   5.628623   4.838456   0.000000
    16  C    5.840160   6.298389   5.664816   6.298428   2.741366
    17  H    6.317838   6.699582   5.919549   6.921557   3.502939
    18  H    6.317907   6.921573   5.919115   6.699618   3.503506
    19  H    6.319175   6.674747   6.482388   6.674860   2.385868
                   16         17         18         19
    16  C    0.000000
    17  H    1.094181   0.000000
    18  H    1.094177   1.761170   0.000000
    19  H    1.091420   1.767481   1.767489   0.000000
 Stoichiometry    C8H9O2(2)
 Framework group  C1[X(C8H9O2)]
 Deg. of freedom    51
 Full point group                 C1      NOp   1
 Largest Abelian subgroup         C1      NOp   1
 Largest concise Abelian subgroup C1      NOp   1
                         Standard orientation:                         
 ---------------------------------------------------------------------
 Center     Atomic      Atomic             Coordinates (Angstroms)
 Number     Number       Type             X           Y           Z
 ---------------------------------------------------------------------
      1          6           0       -1.953559   -0.016677   -0.000007
      2          6           0       -1.022267   -1.050271    0.000018
      3          6           0        0.351736   -0.789390    0.000095
      4          6           0        0.814607    0.545703    0.000103
      5          6           0       -0.131414    1.576206    0.000107
      6          6           0       -1.491448    1.309952    0.000053
      7          1           0        0.212945    2.606897    0.000107
      8          8           0        3.189874   -0.132602   -0.000742
      9          8           0        1.197307   -1.839762    0.000292
     10          1           0       -1.337410   -2.087957    0.000022
     11          6           0        2.284616    0.874241    0.000103
     12          1           0        2.521942    1.545110   -0.857752
     13          1           0        2.113149   -1.484781    0.000548
     14          1           0        2.522193    1.543781    0.858959
     15          1           0       -2.203513    2.127397    0.000033
     16          6           0       -3.431381   -0.323608   -0.000115
     17          1           0       -3.711989   -0.908859   -0.881008
     18          1           0       -3.711935   -0.909804    0.880162
     19          1           0       -4.028172    0.590196    0.000383
 ---------------------------------------------------------------------
 Rotational constants (GHZ):           3.0219617           0.9101677           0.7054440
 Standard basis: 6-311G(d,p) (5D, 7F)
 There are   244 symmetry adapted cartesian basis functions of A   symmetry.
 There are   234 symmetry adapted basis functions of A   symmetry.
   234 basis functions,   392 primitive gaussians,   244 cartesian basis functions
    37 alpha electrons       36 beta electrons
       nuclear repulsion energy       501.8086437745 Hartrees.
 NAtoms=   19 NActive=   19 NUniq=   19 SFac= 1.00D+00 NAtFMM=   60 NAOKFM=F Big=F
 Integral buffers will be    131072 words long.
 Raffenetti 2 integral format.
 Two-electron integral symmetry is turned on.
 One-electron integrals computed using PRISM.
 NBasis=   234 RedAO= T EigKep=  1.69D-04  NBF=   234
 NBsUse=   234 1.00D-06 EigRej= -1.00D+00 NBFU=   234
 ExpMin= 1.03D-01 ExpMax= 8.59D+03 ExpMxC= 1.30D+03 IAcc=3 IRadAn=         5 AccDes= 0.00D+00
 Harris functional with IExCor=  402 and IRadAn=       5 diagonalized for initial guess.
 HarFok:  IExCor=  402 AccDes= 0.00D+00 IRadAn=         5 IDoV= 1 UseB2=F ITyADJ=14
 ICtDFT=  3500011 ScaDFX=  1.000000  1.000000  1.000000  1.000000
 FoFCou: FMM=F IPFlag=           0 FMFlag=      100000 FMFlg1=           0
         NFxFlg=           0 DoJE=T BraDBF=F KetDBF=T FulRan=T
         wScrn=  0.000000 ICntrl=       500 IOpCl=  0 I1Cent=   200000004 NGrid=           0
         NMat0=    1 NMatS0=      1 NMatT0=    0 NMatD0=    1 NMtDS0=    0 NMtDT0=    0
 Petite list used in FoFCou.
 Initial guess <Sx>= 0.0000 <Sy>= 0.0000 <Sz>= 0.5000 <S**2>= 0.7500 S= 0.5000
 Requested convergence on RMS density matrix=1.00D-08 within 128 cycles.
 Requested convergence on MAX density matrix=1.00D-06.
 Requested convergence on             energy=1.00D-06.
 No special actions if energy rises.
 Integral accuracy reduced to 1.0D-05 until final iterations.
 Initial convergence to 1.0D-05 achieved.  Increase integral accuracy.
 SCF Done:  E(UB3LYP) =  -460.775460005     A.U. after   21 cycles
            NFock= 21  Conv=0.83D-08     -V/T= 2.0038
 <Sx>= 0.0000 <Sy>= 0.0000 <Sz>= 0.5000 <S**2>= 0.7549 S= 0.5024
 <L.S>= 0.000000000000E+00
 Annihilation of the first spin contaminant:
 S**2 before annihilation     0.7549,   after     0.7500

 **********************************************************************

            Population analysis using the SCF density.

 **********************************************************************

 Orbital symmetries:
 Alpha Orbitals:
       Occupied  (A) (A) (A) (A) (A) (A) (A) (A) (A) (A) (A) (A)
                 (A) (A) (A) (A) (A) (A) (A) (A) (A) (A) (A) (A)
                 (A) (A) (A) (A) (A) (A) (A) (A) (A) (A) (A) (A)
                 (A)
       Virtual   (A) (A) (A) (A) (A) (A) (A) (A) (A) (A) (A) (A)
                 (A) (A) (A) (A) (A) (A) (A) (A) (A) (A) (A) (A)
                 (A) (A) (A) (A) (A) (A) (A) (A) (A) (A) (A) (A)
                 (A) (A) (A) (A) (A) (A) (A) (A) (A) (A) (A) (A)
                 (A) (A) (A) (A) (A) (A) (A) (A) (A) (A) (A) (A)
                 (A) (A) (A) (A) (A) (A) (A) (A) (A) (A) (A) (A)
                 (A) (A) (A) (A) (A) (A) (A) (A) (A) (A) (A) (A)
                 (A) (A) (A) (A) (A) (A) (A) (A) (A) (A) (A) (A)
                 (A) (A) (A) (A) (A) (A) (A) (A) (A) (A) (A) (A)
                 (A) (A) (A) (A) (A) (A) (A) (A) (A) (A) (A) (A)
                 (A) (A) (A) (A) (A) (A) (A) (A) (A) (A) (A) (A)
                 (A) (A) (A) (A) (A) (A) (A) (A) (A) (A) (A) (A)
                 (A) (A) (A) (A) (A) (A) (A) (A) (A) (A) (A) (A)
                 (A) (A) (A) (A) (A) (A) (A) (A) (A) (A) (A) (A)
                 (A) (A) (A) (A) (A) (A) (A) (A) (A) (A) (A) (A)
                 (A) (A) (A) (A) (A) (A) (A) (A) (A) (A) (A) (A)
                 (A) (A) (A) (A) (A)
 Beta  Orbitals:
       Occupied  (A) (A) (A) (A) (A) (A) (A) (A) (A) (A) (A) (A)
                 (A) (A) (A) (A) (A) (A) (A) (A) (A) (A) (A) (A)
                 (A) (A) (A) (A) (A) (A) (A) (A) (A) (A) (A) (A)
       Virtual   (A) (A) (A) (A) (A) (A) (A) (A) (A) (A) (A) (A)
                 (A) (A) (A) (A) (A) (A) (A) (A) (A) (A) (A) (A)
                 (A) (A) (A) (A) (A) (A) (A) (A) (A) (A) (A) (A)
                 (A) (A) (A) (A) (A) (A) (A) (A) (A) (A) (A) (A)
                 (A) (A) (A) (A) (A) (A) (A) (A) (A) (A) (A) (A)
                 (A) (A) (A) (A) (A) (A) (A) (A) (A) (A) (A) (A)
                 (A) (A) (A) (A) (A) (A) (A) (A) (A) (A) (A) (A)
                 (A) (A) (A) (A) (A) (A) (A) (A) (A) (A) (A) (A)
                 (A) (A) (A) (A) (A) (A) (A) (A) (A) (A) (A) (A)
                 (A) (A) (A) (A) (A) (A) (A) (A) (A) (A) (A) (A)
                 (A) (A) (A) (A) (A) (A) (A) (A) (A) (A) (A) (A)
                 (A) (A) (A) (A) (A) (A) (A) (A) (A) (A) (A) (A)
                 (A) (A) (A) (A) (A) (A) (A) (A) (A) (A) (A) (A)
                 (A) (A) (A) (A) (A) (A) (A) (A) (A) (A) (A) (A)
                 (A) (A) (A) (A) (A) (A) (A) (A) (A) (A) (A) (A)
                 (A) (A) (A) (A) (A) (A) (A) (A) (A) (A) (A) (A)
                 (A) (A) (A) (A) (A) (A)
 The electronic state is 2-A.
 Alpha  occ. eigenvalues --  -19.15816 -19.13963 -10.24975 -10.24366 -10.19295
 Alpha  occ. eigenvalues --  -10.19003 -10.18545 -10.17357 -10.17322 -10.16935
 Alpha  occ. eigenvalues --   -1.06779  -1.03487  -0.86679  -0.79409  -0.74859
 Alpha  occ. eigenvalues --   -0.72174  -0.65931  -0.61815  -0.61176  -0.51840
 Alpha  occ. eigenvalues --   -0.51566  -0.50253  -0.48699  -0.45434  -0.44256
 Alpha  occ. eigenvalues --   -0.43363  -0.43132  -0.40706  -0.40627  -0.38038
 Alpha  occ. eigenvalues --   -0.37516  -0.35256  -0.34919  -0.32339  -0.29265
 Alpha  occ. eigenvalues --   -0.25265  -0.22871
 Alpha virt. eigenvalues --   -0.02471   0.00112   0.04028   0.04864   0.06686
 Alpha virt. eigenvalues --    0.08361   0.08746   0.10050   0.11718   0.11814
 Alpha virt. eigenvalues --    0.13331   0.17060   0.17193   0.19696   0.23070
 Alpha virt. eigenvalues --    0.25149   0.25350   0.29184   0.30147   0.30784
 Alpha virt. eigenvalues --    0.32805   0.33316   0.35380   0.35638   0.37657
 Alpha virt. eigenvalues --    0.39300   0.40353   0.41561   0.42496   0.44479
 Alpha virt. eigenvalues --    0.44494   0.44870   0.46598   0.48015   0.49436
 Alpha virt. eigenvalues --    0.49752   0.51919   0.51920   0.54276   0.55878
 Alpha virt. eigenvalues --    0.56147   0.58031   0.59223   0.59459   0.60772
 Alpha virt. eigenvalues --    0.61344   0.63388   0.64263   0.65343   0.67178
 Alpha virt. eigenvalues --    0.71929   0.75391   0.77858   0.78598   0.80251
 Alpha virt. eigenvalues --    0.81244   0.81471   0.84741   0.85322   0.87066
 Alpha virt. eigenvalues --    0.88496   0.93119   0.95765   0.96969   0.99616
 Alpha virt. eigenvalues --    1.01177   1.02232   1.03759   1.04797   1.07953
 Alpha virt. eigenvalues --    1.09800   1.10767   1.12897   1.19180   1.23472
 Alpha virt. eigenvalues --    1.28958   1.32479   1.34423   1.34722   1.37471
 Alpha virt. eigenvalues --    1.40471   1.42329   1.44756   1.44935   1.46081
 Alpha virt. eigenvalues --    1.46750   1.48950   1.49630   1.50196   1.54799
 Alpha virt. eigenvalues --    1.56042   1.57904   1.58750   1.59173   1.59425
 Alpha virt. eigenvalues --    1.62773   1.63412   1.64711   1.66618   1.70653
 Alpha virt. eigenvalues --    1.76163   1.76188   1.78081   1.79645   1.81109
 Alpha virt. eigenvalues --    1.83756   1.87646   1.87920   1.90304   1.91223
 Alpha virt. eigenvalues --    1.93360   1.94993   1.99388   2.00018   2.01580
 Alpha virt. eigenvalues --    2.03301   2.08058   2.10640   2.12388   2.13905
 Alpha virt. eigenvalues --    2.15094   2.24445   2.27242   2.27636   2.33280
 Alpha virt. eigenvalues --    2.33519   2.34941   2.37484   2.39665   2.42111
 Alpha virt. eigenvalues --    2.44507   2.44704   2.49280   2.52351   2.53564
 Alpha virt. eigenvalues --    2.55430   2.56647   2.57437   2.59755   2.62546
 Alpha virt. eigenvalues --    2.65049   2.65431   2.69027   2.73668   2.73981
 Alpha virt. eigenvalues --    2.80029   2.82977   2.84816   2.84925   2.87397
 Alpha virt. eigenvalues --    2.88878   2.91721   2.97022   3.01775   3.05364
 Alpha virt. eigenvalues --    3.06193   3.09918   3.11142   3.14248   3.15503
 Alpha virt. eigenvalues --    3.18719   3.18770   3.30113   3.34505   3.38599
 Alpha virt. eigenvalues --    3.46045   3.51589   3.56521   3.61189   3.68049
 Alpha virt. eigenvalues --    3.69824   3.77990   3.81066   3.84382   3.92917
 Alpha virt. eigenvalues --    3.99646   4.10462   4.11631   4.23374   4.34327
 Alpha virt. eigenvalues --    4.80786   4.83222   4.83513   4.96111   5.36145
 Alpha virt. eigenvalues --    5.52810   5.74892  23.48537  23.77642  23.87048
 Alpha virt. eigenvalues --   23.88661  23.93040  24.02081  24.09407  24.16688
 Alpha virt. eigenvalues --   49.84743  49.93910
  Beta  occ. eigenvalues --  -19.13944 -19.13832 -10.25021 -10.24329 -10.19251
  Beta  occ. eigenvalues --  -10.18947 -10.18537 -10.17352 -10.17324 -10.16957
  Beta  occ. eigenvalues --   -1.06248  -0.99910  -0.86529  -0.79092  -0.74800
  Beta  occ. eigenvalues --   -0.71680  -0.64969  -0.61710  -0.61026  -0.51577
  Beta  occ. eigenvalues --   -0.51360  -0.48448  -0.46974  -0.45055  -0.43463
  Beta  occ. eigenvalues --   -0.42896  -0.42799  -0.40562  -0.39934  -0.37908
  Beta  occ. eigenvalues --   -0.37373  -0.35057  -0.33426  -0.27781  -0.25418
  Beta  occ. eigenvalues --   -0.22748
  Beta virt. eigenvalues --   -0.16169  -0.02148   0.00483   0.04218   0.04919
  Beta virt. eigenvalues --    0.06806   0.08814   0.08832   0.10141   0.11882
  Beta virt. eigenvalues --    0.11943   0.13432   0.17290   0.17587   0.19765
  Beta virt. eigenvalues --    0.23263   0.25211   0.25514   0.29309   0.30181
  Beta virt. eigenvalues --    0.30811   0.32971   0.34849   0.35492   0.35785
  Beta virt. eigenvalues --    0.37721   0.39377   0.40580   0.41732   0.42621
  Beta virt. eigenvalues --    0.44557   0.44569   0.45096   0.46984   0.48329
  Beta virt. eigenvalues --    0.49500   0.50088   0.52155   0.52438   0.54471
  Beta virt. eigenvalues --    0.56037   0.56259   0.58471   0.59273   0.59519
  Beta virt. eigenvalues --    0.60786   0.61358   0.63425   0.64596   0.65419
  Beta virt. eigenvalues --    0.67213   0.72140   0.75451   0.78024   0.78785
  Beta virt. eigenvalues --    0.80329   0.81835   0.84544   0.85374   0.85875
  Beta virt. eigenvalues --    0.87124   0.88620   0.93295   0.95917   0.97070
  Beta virt. eigenvalues --    0.99958   1.01346   1.02310   1.03883   1.05607
  Beta virt. eigenvalues --    1.08096   1.10221   1.10861   1.13190   1.19336
  Beta virt. eigenvalues --    1.23553   1.29410   1.33236   1.34583   1.34844
  Beta virt. eigenvalues --    1.37664   1.40683   1.42553   1.44979   1.45450
  Beta virt. eigenvalues --    1.46791   1.46865   1.49336   1.49743   1.50245
  Beta virt. eigenvalues --    1.54876   1.56226   1.58138   1.59335   1.59671
  Beta virt. eigenvalues --    1.60213   1.62882   1.63532   1.65320   1.66819
  Beta virt. eigenvalues --    1.70831   1.76244   1.76353   1.78562   1.79929
  Beta virt. eigenvalues --    1.81405   1.84086   1.87874   1.88186   1.90472
  Beta virt. eigenvalues --    1.91312   1.93540   1.95079   1.99722   2.00597
  Beta virt. eigenvalues --    2.01865   2.03969   2.08244   2.10988   2.12987
  Beta virt. eigenvalues --    2.14471   2.15379   2.24570   2.27750   2.27892
  Beta virt. eigenvalues --    2.33734   2.33905   2.34998   2.37848   2.40844
  Beta virt. eigenvalues --    2.42230   2.44680   2.45818   2.49446   2.52580
  Beta virt. eigenvalues --    2.53663   2.55757   2.56833   2.57584   2.59871
  Beta virt. eigenvalues --    2.62650   2.65118   2.65492   2.69248   2.73741
  Beta virt. eigenvalues --    2.75995   2.80389   2.84593   2.85241   2.85487
  Beta virt. eigenvalues --    2.87566   2.90680   2.92528   2.99892   3.03448
  Beta virt. eigenvalues --    3.05750   3.06512   3.10509   3.11716   3.14612
  Beta virt. eigenvalues --    3.18323   3.18814   3.20459   3.30522   3.34686
  Beta virt. eigenvalues --    3.38730   3.46214   3.51701   3.56599   3.61226
  Beta virt. eigenvalues --    3.68176   3.71343   3.78008   3.81096   3.84555
  Beta virt. eigenvalues --    3.94583   3.99685   4.10546   4.11672   4.23532
  Beta virt. eigenvalues --    4.34432   4.82673   4.83618   4.90034   4.97669
  Beta virt. eigenvalues --    5.36269   5.54331   5.75004  23.48565  23.77603
  Beta virt. eigenvalues --   23.87087  23.88686  23.93048  24.02119  24.09408
  Beta virt. eigenvalues --   24.16700  49.86430  49.94253
          Condensed to atoms (all electrons):
               1          2          3          4          5          6
     1  C    5.031197   0.520951  -0.043549  -0.048434  -0.055220   0.523164
     2  C    0.520951   4.889045   0.527054  -0.070758  -0.031981  -0.062658
     3  C   -0.043549   0.527054   4.823516   0.277073  -0.003829  -0.036864
     4  C   -0.048434  -0.070758   0.277073   5.782107   0.364867  -0.047835
     5  C   -0.055220  -0.031981  -0.003829   0.364867   4.877090   0.542611
     6  C    0.523164  -0.062658  -0.036864  -0.047835   0.542611   4.820867
     7  H    0.008726  -0.000139   0.004507  -0.063718   0.421676  -0.031779
     8  O   -0.000016   0.000325  -0.017057  -0.043509   0.005263  -0.000097
     9  O    0.003699  -0.061328   0.417428  -0.090553   0.004622  -0.000019
    10  H   -0.048638   0.403054  -0.041198   0.016299  -0.001336   0.007372
    11  C    0.000641   0.002824  -0.075185   0.282333  -0.021124   0.002996
    12  H    0.000006  -0.000098  -0.000136  -0.069415   0.001598   0.000058
    13  H   -0.000377   0.006079  -0.035296  -0.017034   0.000426   0.000011
    14  H    0.000006  -0.000097  -0.000151  -0.069344   0.001580   0.000058
    15  H   -0.046963   0.008349  -0.000940   0.010035  -0.040276   0.416322
    16  C    0.358385  -0.058116   0.006091  -0.000710   0.007559  -0.058108
    17  H   -0.035620  -0.005081   0.000150   0.000013  -0.000342   0.001275
    18  H   -0.035627  -0.005081   0.000151   0.000013  -0.000342   0.001284
    19  H   -0.035139   0.007089  -0.000466   0.000096   0.000471  -0.007323
               7          8          9         10         11         12
     1  C    0.008726  -0.000016   0.003699  -0.048638   0.000641   0.000006
     2  C   -0.000139   0.000325  -0.061328   0.403054   0.002824  -0.000098
     3  C    0.004507  -0.017057   0.417428  -0.041198  -0.075185  -0.000136
     4  C   -0.063718  -0.043509  -0.090553   0.016299   0.282333  -0.069415
     5  C    0.421676   0.005263   0.004622  -0.001336  -0.021124   0.001598
     6  C   -0.031779  -0.000097  -0.000019   0.007372   0.002996   0.000058
     7  H    0.584018   0.000123  -0.000100   0.000090  -0.001510   0.001929
     8  O    0.000123   8.079190  -0.028732   0.000056   0.314692  -0.024479
     9  O   -0.000100  -0.028732   7.787393   0.006041  -0.004496  -0.000487
    10  H    0.000090   0.000056   0.006041   0.568292  -0.000207   0.000026
    11  C   -0.001510   0.314692  -0.004496  -0.000207   4.675932   0.387290
    12  H    0.001929  -0.024479  -0.000487   0.000026   0.387290   0.565617
    13  H    0.000074   0.071048   0.320863   0.000007  -0.015005   0.002478
    14  H    0.001920  -0.024467  -0.000486   0.000026   0.387195  -0.026138
    15  H   -0.009004   0.000002   0.000008  -0.000295  -0.000146   0.000004
    16  C   -0.000394   0.000000  -0.000090  -0.007237   0.000002  -0.000002
    17  H    0.000021   0.000000  -0.000006   0.000984  -0.000001  -0.000001
    18  H    0.000021   0.000000  -0.000006   0.000986  -0.000001   0.000000
    19  H   -0.000025   0.000000   0.000002   0.000169   0.000001   0.000000
              13         14         15         16         17         18
     1  C   -0.000377   0.000006  -0.046963   0.358385  -0.035620  -0.035627
     2  C    0.006079  -0.000097   0.008349  -0.058116  -0.005081  -0.005081
     3  C   -0.035296  -0.000151  -0.000940   0.006091   0.000150   0.000151
     4  C   -0.017034  -0.069344   0.010035  -0.000710   0.000013   0.000013
     5  C    0.000426   0.001580  -0.040276   0.007559  -0.000342  -0.000342
     6  C    0.000011   0.000058   0.416322  -0.058108   0.001275   0.001284
     7  H    0.000074   0.001920  -0.009004  -0.000394   0.000021   0.000021
     8  O    0.071048  -0.024467   0.000002   0.000000   0.000000   0.000000
     9  O    0.320863  -0.000486   0.000008  -0.000090  -0.000006  -0.000006
    10  H    0.000007   0.000026  -0.000295  -0.007237   0.000984   0.000986
    11  C   -0.015005   0.387195  -0.000146   0.000002  -0.000001  -0.000001
    12  H    0.002478  -0.026138   0.000004  -0.000002  -0.000001   0.000000
    13  H    0.407999   0.002473  -0.000006   0.000017   0.000000   0.000000
    14  H    0.002473   0.565606   0.000004  -0.000002   0.000000  -0.000001
    15  H   -0.000006   0.000004   0.584142  -0.009372   0.000076   0.000076
    16  C    0.000017  -0.000002  -0.009372   4.807389   0.402056   0.402071
    17  H    0.000000   0.000000   0.000076   0.402056   0.565493  -0.029103
    18  H    0.000000  -0.000001   0.000076   0.402071  -0.029103   0.565493
    19  H   -0.000001   0.000000   0.003937   0.407352  -0.026862  -0.026864
              19
     1  C   -0.035139
     2  C    0.007089
     3  C   -0.000466
     4  C    0.000096
     5  C    0.000471
     6  C   -0.007323
     7  H   -0.000025
     8  O    0.000000
     9  O    0.000002
    10  H    0.000169
    11  C    0.000001
    12  H    0.000000
    13  H   -0.000001
    14  H    0.000000
    15  H    0.003937
    16  C    0.407352
    17  H   -0.026862
    18  H   -0.026864
    19  H    0.571053
          Atomic-Atomic Spin Densities.
               1          2          3          4          5          6
     1  C    0.030723   0.000115  -0.001894  -0.000660  -0.000736   0.005024
     2  C    0.000115  -0.020415   0.003475  -0.001772   0.000137   0.000380
     3  C   -0.001894   0.003475   0.027387   0.012043   0.001344  -0.001063
     4  C   -0.000660  -0.001772   0.012043   0.008867   0.006963  -0.000002
     5  C   -0.000736   0.000137   0.001344   0.006963   0.002996  -0.003234
     6  C    0.005024   0.000380  -0.001063  -0.000002  -0.003234   0.002171
     7  H    0.000000  -0.000015   0.000071   0.000508  -0.000014  -0.000019
     8  O   -0.000002  -0.000034   0.002552   0.005934  -0.000134  -0.000006
     9  O    0.000041   0.000458  -0.014310  -0.000976   0.000006   0.000014
    10  H   -0.000003   0.000058   0.000166  -0.000078  -0.000022   0.000013
    11  C    0.000030  -0.000101   0.002202   0.022516  -0.000587  -0.000087
    12  H    0.000034  -0.000016  -0.000713  -0.005797  -0.001260   0.000161
    13  H   -0.000014  -0.000088   0.000537   0.000839  -0.000117   0.000011
    14  H    0.000034  -0.000015  -0.000727  -0.005865  -0.001252   0.000160
    15  H    0.000013  -0.000015   0.000007   0.000014  -0.000037   0.000166
    16  C   -0.000475   0.000293  -0.000060  -0.000007  -0.000001  -0.000075
    17  H   -0.000756  -0.000022   0.000030   0.000006   0.000007  -0.000087
    18  H   -0.000752  -0.000025   0.000030   0.000006   0.000007  -0.000087
    19  H   -0.000058  -0.000006   0.000002  -0.000002   0.000004   0.000018
               7          8          9         10         11         12
     1  C    0.000000  -0.000002   0.000041  -0.000003   0.000030   0.000034
     2  C   -0.000015  -0.000034   0.000458   0.000058  -0.000101  -0.000016
     3  C    0.000071   0.002552  -0.014310   0.000166   0.002202  -0.000713
     4  C    0.000508   0.005934  -0.000976  -0.000078   0.022516  -0.005797
     5  C   -0.000014  -0.000134   0.000006  -0.000022  -0.000587  -0.001260
     6  C   -0.000019  -0.000006   0.000014   0.000013  -0.000087   0.000161
     7  H   -0.000760  -0.000014   0.000002  -0.000002  -0.000238  -0.000012
     8  O   -0.000014   0.784301  -0.000597  -0.000003  -0.038230  -0.017651
     9  O    0.000002  -0.000597   0.057808  -0.000028  -0.000205   0.000227
    10  H   -0.000002  -0.000003  -0.000028   0.000464  -0.000010   0.000000
    11  C   -0.000238  -0.038230  -0.000205  -0.000010  -0.098997   0.020221
    12  H   -0.000012  -0.017651   0.000227   0.000000   0.020221   0.152742
    13  H   -0.000008  -0.007000   0.002026  -0.000025   0.000744  -0.000112
    14  H   -0.000012  -0.017695   0.000228   0.000000   0.020275  -0.033284
    15  H    0.000025   0.000000   0.000000   0.000000   0.000002   0.000001
    16  C    0.000002   0.000000   0.000000   0.000021   0.000001   0.000000
    17  H    0.000000   0.000000  -0.000001  -0.000003   0.000000  -0.000001
    18  H    0.000000   0.000000  -0.000001  -0.000003   0.000000   0.000000
    19  H    0.000000   0.000000   0.000000  -0.000001   0.000000   0.000000
              13         14         15         16         17         18
     1  C   -0.000014   0.000034   0.000013  -0.000475  -0.000756  -0.000752
     2  C   -0.000088  -0.000015  -0.000015   0.000293  -0.000022  -0.000025
     3  C    0.000537  -0.000727   0.000007  -0.000060   0.000030   0.000030
     4  C    0.000839  -0.005865   0.000014  -0.000007   0.000006   0.000006
     5  C   -0.000117  -0.001252  -0.000037  -0.000001   0.000007   0.000007
     6  C    0.000011   0.000160   0.000166  -0.000075  -0.000087  -0.000087
     7  H   -0.000008  -0.000012   0.000025   0.000002   0.000000   0.000000
     8  O   -0.007000  -0.017695   0.000000   0.000000   0.000000   0.000000
     9  O    0.002026   0.000228   0.000000   0.000000  -0.000001  -0.000001
    10  H   -0.000025   0.000000   0.000000   0.000021  -0.000003  -0.000003
    11  C    0.000744   0.020275   0.000002   0.000001   0.000000   0.000000
    12  H   -0.000112  -0.033284   0.000001   0.000000  -0.000001   0.000000
    13  H   -0.004795  -0.000115   0.000000   0.000000   0.000000   0.000000
    14  H   -0.000115   0.153016   0.000001   0.000000   0.000000  -0.000001
    15  H    0.000000   0.000001  -0.000533   0.000011  -0.000001  -0.000001
    16  C    0.000000   0.000000   0.000011  -0.002914   0.000311   0.000310
    17  H    0.000000   0.000000  -0.000001   0.000311   0.003248  -0.000880
    18  H    0.000000  -0.000001  -0.000001   0.000310  -0.000880   0.003245
    19  H    0.000000   0.000000  -0.000008   0.000139  -0.000018  -0.000018
              19
     1  C   -0.000058
     2  C   -0.000006
     3  C    0.000002
     4  C   -0.000002
     5  C    0.000004
     6  C    0.000018
     7  H    0.000000
     8  O    0.000000
     9  O    0.000000
    10  H   -0.000001
    11  C    0.000000
    12  H    0.000000
    13  H    0.000000
    14  H    0.000000
    15  H   -0.000008
    16  C    0.000139
    17  H   -0.000018
    18  H   -0.000018
    19  H   -0.000008
 Mulliken charges and spin densities:
               1          2
     1  C   -0.097194   0.030663
     2  C   -0.069433  -0.017608
     3  C    0.198702   0.031082
     4  C   -0.211527   0.042539
     5  C   -0.073313   0.004069
     6  C   -0.071335   0.003458
     7  H    0.083564  -0.000487
     8  O   -0.332343   0.711424
     9  O   -0.353754   0.044692
    10  H    0.095511   0.000544
    11  C    0.063769  -0.072464
    12  H    0.161747   0.114542
    13  H    0.256246  -0.008115
    14  H    0.161817   0.114750
    15  H    0.084047  -0.000354
    16  C   -0.256889  -0.002442
    17  H    0.126946   0.001834
    18  H    0.126929   0.001831
    19  H    0.106509   0.000045
 Sum of Mulliken charges =   0.00000   1.00000
 Mulliken charges and spin densities with hydrogens summed into heavy atoms:
               1          2
     1  C   -0.097194   0.030663
     2  C    0.026078  -0.017064
     3  C    0.198702   0.031082
     4  C   -0.211527   0.042539
     5  C    0.010250   0.003582
     6  C    0.012712   0.003103
     8  O   -0.332343   0.711424
     9  O   -0.097507   0.036577
    11  C    0.387333   0.156828
    16  C    0.103495   0.001267
 Electronic spatial extent (au):  <R**2>=           1585.2102
 Charge=              0.0000 electrons
 Dipole moment (field-independent basis, Debye):
    X=             -1.4070    Y=              2.4265    Z=              0.0020  Tot=              2.8049
 Quadrupole moment (field-independent basis, Debye-Ang):
   XX=            -58.4508   YY=            -56.8634   ZZ=            -60.5029
   XY=              5.1134   XZ=              0.0080   YZ=              0.0002
 Traceless Quadrupole moment (field-independent basis, Debye-Ang):
   XX=              0.1549   YY=              1.7423   ZZ=             -1.8972
   XY=              5.1134   XZ=              0.0080   YZ=              0.0002
 Octapole moment (field-independent basis, Debye-Ang**2):
  XXX=            -19.3528  YYY=              7.1406  ZZZ=             -0.0017  XYY=              6.2631
  XXY=              4.7436  XXZ=              0.0223  XZZ=             11.2946  YZZ=             -3.5051
  YYZ=              0.0001  XYZ=             -0.0008
 Hexadecapole moment (field-independent basis, Debye-Ang**3):
 XXXX=          -1586.9521 YYYY=           -488.9896 ZZZZ=            -75.9550 XXXY=              4.2839
 XXXZ=              0.0880 YYYX=              4.8279 YYYZ=             -0.0008 ZZZX=              0.0184
 ZZZY=              0.0046 XXYY=           -301.6349 XXZZ=           -255.9052 YYZZ=            -98.3664
 XXYZ=             -0.0016 YYXZ=              0.0021 ZZXY=              4.3520
 N-N= 5.018086437745D+02 E-N=-2.079171161266D+03  KE= 4.590408708960D+02
                          Isotropic Fermi Contact Couplings
        Atom                 a.u.       MegaHertz       Gauss      10(-4) cm-1
     1  C(13)              0.00178       1.99919       0.71336       0.66686
     2  C(13)             -0.00263      -2.95717      -1.05519      -0.98641
     3  C(13)             -0.00134      -1.50612      -0.53742      -0.50239
     4  C(13)             -0.00204      -2.29654      -0.81946      -0.76604
     5  C(13)             -0.00140      -1.57308      -0.56131      -0.52472
     6  C(13)             -0.00088      -0.98649      -0.35200      -0.32906
     7  H(1)              -0.00014      -0.62256      -0.22215      -0.20767
     8  O(17)              0.04811     -29.16435     -10.40657      -9.72818
     9  O(17)              0.00368      -2.22830      -0.79511      -0.74328
    10  H(1)               0.00014       0.60998       0.21766       0.20347
    11  C(13)             -0.03781     -42.50867     -15.16815     -14.17937
    12  H(1)               0.05427     242.57022      86.55509      80.91272
    13  H(1)              -0.00057      -2.56661      -0.91583      -0.85613
    14  H(1)               0.05437     243.03061      86.71936      81.06628
    15  H(1)              -0.00011      -0.48511      -0.17310      -0.16182
    16  C(13)             -0.00103      -1.15532      -0.41225      -0.38537
    17  H(1)               0.00087       3.89486       1.38978       1.29919
    18  H(1)               0.00087       3.88860       1.38755       1.29710
    19  H(1)               0.00001       0.05428       0.01937       0.01811
 --------------------------------------------------------
       Center         ----  Spin Dipole Couplings  ----
                      3XX-RR        3YY-RR        3ZZ-RR
 --------------------------------------------------------
     1   Atom       -0.015547     -0.019553      0.035099
     2   Atom        0.011115      0.006119     -0.017234
     3   Atom       -0.012785     -0.019131      0.031916
     4   Atom       -0.018924     -0.030841      0.049765
     5   Atom       -0.001346     -0.005728      0.007074
     6   Atom       -0.001270     -0.004101      0.005371
     7   Atom        0.001679      0.001391     -0.003070
     8   Atom       -1.437001     -1.429338      2.866338
     9   Atom       -0.114326     -0.105810      0.220136
    10   Atom        0.002753     -0.000904     -0.001849
    11   Atom       -0.024195     -0.025211      0.049407
    12   Atom       -0.007192      0.011067     -0.003875
    13   Atom        0.007235      0.010563     -0.017799
    14   Atom       -0.007194      0.011012     -0.003818
    15   Atom        0.000841      0.000429     -0.001270
    16   Atom        0.001054     -0.001305      0.000252
    17   Atom        0.001039     -0.000447     -0.000592
    18   Atom        0.001039     -0.000446     -0.000593
    19   Atom        0.001395     -0.000686     -0.000709
 --------------------------------------------------------
                        XY            XZ            YZ
 --------------------------------------------------------
     1   Atom        0.000602     -0.000004      0.000002
     2   Atom        0.001113      0.000001      0.000000
     3   Atom        0.001763     -0.000006     -0.000001
     4   Atom       -0.002380      0.000097      0.000003
     5   Atom       -0.002799     -0.000023      0.000007
     6   Atom       -0.000848     -0.000020     -0.000003
     7   Atom       -0.003606      0.000000      0.000002
     8   Atom        0.001153      0.002681     -0.000474
     9   Atom        0.001676      0.000043      0.000125
    10   Atom        0.001145      0.000000      0.000000
    11   Atom       -0.032891      0.000021     -0.000008
    12   Atom       -0.001897     -0.001846     -0.016550
    13   Atom        0.027897     -0.000018     -0.000023
    14   Atom       -0.001895      0.001850      0.016576
    15   Atom       -0.001448      0.000000     -0.000001
    16   Atom        0.000525      0.000000      0.000001
    17   Atom        0.000569      0.000388      0.000276
    18   Atom        0.000570     -0.000388     -0.000276
    19   Atom       -0.000213      0.000000      0.000000
 --------------------------------------------------------


 ---------------------------------------------------------------------------------
              Anisotropic Spin Dipole Couplings in Principal Axis System
 ---------------------------------------------------------------------------------

       Atom             a.u.   MegaHertz   Gauss  10(-4) cm-1        Axes

              Baa    -0.0196    -2.636    -0.940    -0.879 -0.1455  0.9894  0.0000
     1 C(13)  Bbb    -0.0155    -2.074    -0.740    -0.692  0.9894  0.1455  0.0001
              Bcc     0.0351     4.710     1.681     1.571 -0.0001  0.0000  1.0000
 
              Baa    -0.0172    -2.313    -0.825    -0.771  0.0000  0.0000  1.0000
     2 C(13)  Bbb     0.0059     0.789     0.282     0.263 -0.2080  0.9781  0.0000
              Bcc     0.0114     1.523     0.544     0.508  0.9781  0.2080  0.0001
 
              Baa    -0.0196    -2.629    -0.938    -0.877 -0.2509  0.9680  0.0000
     3 C(13)  Bbb    -0.0123    -1.654    -0.590    -0.552  0.9680  0.2509  0.0001
              Bcc     0.0319     4.283     1.528     1.429 -0.0001  0.0000  1.0000
 
              Baa    -0.0313    -4.200    -1.499    -1.401  0.1889  0.9820 -0.0003
     4 C(13)  Bbb    -0.0185    -2.478    -0.884    -0.827  0.9820 -0.1889 -0.0014
              Bcc     0.0498     6.678     2.383     2.228  0.0014  0.0000  1.0000
 
              Baa    -0.0071    -0.952    -0.340    -0.317  0.4379  0.8990  0.0003
     5 C(13)  Bbb     0.0000     0.002     0.001     0.001  0.8990 -0.4379  0.0034
              Bcc     0.0071     0.949     0.339     0.317 -0.0032  0.0012  1.0000
 
              Baa    -0.0043    -0.582    -0.208    -0.194  0.2666  0.9638  0.0008
     6 C(13)  Bbb    -0.0010    -0.139    -0.050    -0.046  0.9638 -0.2666  0.0029
              Bcc     0.0054     0.721     0.257     0.240 -0.0030  0.0000  1.0000
 
              Baa    -0.0031    -1.638    -0.585    -0.546 -0.0010 -0.0012  1.0000
     7 H(1)   Bbb    -0.0021    -1.106    -0.395    -0.369  0.6928  0.7211  0.0015
              Bcc     0.0051     2.744     0.979     0.915  0.7211 -0.6928 -0.0001
 
              Baa    -1.4372   103.993    37.107    34.688  0.9893 -0.1457 -0.0006
     8 O(17)  Bbb    -1.4292   103.414    36.901    34.495  0.1457  0.9893  0.0000
              Bcc     2.8663  -207.406   -74.008   -69.183  0.0006 -0.0001  1.0000
 
              Baa    -0.1146     8.296     2.960     2.767  0.9825 -0.1864 -0.0001
     9 O(17)  Bbb    -0.1055     7.633     2.724     2.546  0.1864  0.9825 -0.0004
              Bcc     0.2201   -15.929    -5.684    -5.313  0.0001  0.0004  1.0000
 
              Baa    -0.0018    -0.987    -0.352    -0.329  0.0000  0.0001  1.0000
    10 H(1)   Bbb    -0.0012    -0.658    -0.235    -0.219 -0.2760  0.9612 -0.0001
              Bcc     0.0031     1.644     0.587     0.549  0.9612  0.2760  0.0000
 
              Baa    -0.0576    -7.729    -2.758    -2.578  0.7016  0.7125 -0.0001
    11 C(13)  Bbb     0.0082     1.099     0.392     0.367  0.7125 -0.7016 -0.0005
              Bcc     0.0494     6.630     2.366     2.212  0.0004 -0.0003  1.0000
 
              Baa    -0.0154    -8.204    -2.927    -2.737  0.3010  0.5213  0.7985
    12 H(1)   Bbb    -0.0064    -3.409    -1.216    -1.137  0.9534 -0.1464 -0.2638
              Bcc     0.0218    11.613     4.144     3.874 -0.0206  0.8407 -0.5411
 
              Baa    -0.0190   -10.163    -3.626    -3.390  0.7278 -0.6857 -0.0022
    13 H(1)   Bbb    -0.0178    -9.496    -3.389    -3.168  0.0020 -0.0011  1.0000
              Bcc     0.0368    19.659     7.015     6.558  0.6857  0.7279 -0.0005
 
              Baa    -0.0154    -8.205    -2.928    -2.737 -0.3013 -0.5226  0.7976
    14 H(1)   Bbb    -0.0064    -3.409    -1.216    -1.137  0.9533 -0.1473  0.2636
              Bcc     0.0218    11.614     4.144     3.874 -0.0203  0.8398  0.5426
 
              Baa    -0.0013    -0.678    -0.242    -0.226  0.0010  0.0012  1.0000
    15 H(1)   Bbb    -0.0008    -0.441    -0.158    -0.147  0.6553  0.7553 -0.0015
              Bcc     0.0021     1.119     0.399     0.373  0.7553 -0.6553  0.0000
 
              Baa    -0.0014    -0.190    -0.068    -0.063 -0.2079  0.9782 -0.0003
    16 C(13)  Bbb     0.0003     0.034     0.012     0.011 -0.0003  0.0003  1.0000
              Bcc     0.0012     0.156     0.056     0.052  0.9782  0.2079  0.0003
 
              Baa    -0.0008    -0.430    -0.154    -0.144  0.0396 -0.6474  0.7611
    17 H(1)   Bbb    -0.0005    -0.285    -0.102    -0.095 -0.3987  0.6882  0.6062
              Bcc     0.0013     0.715     0.255     0.239  0.9162  0.3274  0.2309
 
              Baa    -0.0008    -0.430    -0.154    -0.144 -0.0392  0.6460  0.7623
    18 H(1)   Bbb    -0.0005    -0.285    -0.102    -0.095 -0.3988  0.6894 -0.6047
              Bcc     0.0013     0.715     0.255     0.239  0.9162  0.3277 -0.2306
 
              Baa    -0.0007    -0.378    -0.135    -0.126  0.0044  0.0431  0.9991
    19 H(1)   Bbb    -0.0007    -0.378    -0.135    -0.126  0.1006  0.9940 -0.0434
              Bcc     0.0014     0.756     0.270     0.252  0.9949 -0.1007 -0.0001
 

 ---------------------------------------------------------------------------------

 1|1|UNPC-PC-20250526LCFF|SP|UB3LYP|6-311G(d,p)|C8H9O2(2)|ADMINISTRATOR
 |02-Dec-2025|0||# ub3lyp/6-311g(d,p) geom=connectivity temperature=823
 .15||Title Card Required||0,2|C,0,-1.953559,-0.016677,-0.000007|C,0,-1
 .022267,-1.050271,0.000018|C,0,0.351736,-0.78939,0.000095|C,0,0.814607
 ,0.545703,0.000103|C,0,-0.131414,1.576206,0.000107|C,0,-1.491448,1.309
 952,0.000053|H,0,0.212945,2.606897,0.000107|O,0,3.189874,-0.132602,-0.
 000742|O,0,1.197307,-1.839762,0.000292|H,0,-1.33741,-2.087957,0.000022
 |C,0,2.284616,0.874241,0.000103|H,0,2.521942,1.54511,-0.857752|H,0,2.1
 13149,-1.484781,0.000548|H,0,2.522193,1.543781,0.858959|H,0,-2.203513,
 2.127397,0.000033|C,0,-3.431381,-0.323608,-0.000115|H,0,-3.711989,-0.9
 08859,-0.881008|H,0,-3.711935,-0.909804,0.880162|H,0,-4.028172,0.59019
 6,0.000383||Version=EM64W-G16RevA.03|State=2-A|HF=-460.77546|S2=0.7548
 5|S2-1=0.|S2A=0.750017|RMSD=8.252e-009|Dipole=-0.5535396,0.9546728,0.0
 007929|Quadrupole=0.1151472,1.2953941,-1.4105414,3.8017102,0.0059323,0
 .0001249|PG=C01 [X(C8H9O2)]||@


 IF AT FIRST YOU DON'T SUCCEED, TRY, TRY AGAIN.
 THEN GIVE UP;
 THERE'S NO USE BEING A DAMN FOOL ABOUT IT.

                                 -- W. C. FIELDS
 Job cpu time:       0 days  0 hours  0 minutes 41.0 seconds.
 Elapsed time:       0 days  0 hours  0 minutes 40.3 seconds.
 File lengths (MBytes):  RWF=     57 Int=      0 D2E=      0 Chk=      5 Scr=      1
 Normal termination of Gaussian 16 at Tue Dec 02 11:38:21 2025.
