 Generated by Multiwfn (http://sobereva.com/multiwfn)
GAUSSIAN             29 MOL ORBITALS    252 PRIMITIVES       15 NUCLEI
  C    1    (CENTRE  1)   2.12399312  2.18107133 -0.00089563  CHARGE =  6.0
  C    2    (CENTRE  2)  -0.18715725  3.48141987  0.00017584  CHARGE =  6.0
  C    3    (CENTRE  3)  -2.34549639  2.05681737  0.00115850  CHARGE =  6.0
  C    4    (CENTRE  4)  -2.42680335 -0.55116532  0.00082780  CHARGE =  6.0
  C    5    (CENTRE  5)  -0.10119469 -1.80650247 -0.00102413  CHARGE =  6.0
  C    6    (CENTRE  6)   2.17511817 -0.46118720 -0.00163640  CHARGE =  6.0
  H    7    (CENTRE  7)  -0.23933479  5.53038565 -0.00010573  CHARGE =  1.0
  H    8    (CENTRE  8)  -0.11479285 -3.85833308 -0.00233749  CHARGE =  1.0
  O    9    (CENTRE  9)  -4.59905465 -1.93941137 -0.00027202  CHARGE =  8.0
  H   10    (CENTRE 10)  -6.01118102 -0.78985150  0.00098087  CHARGE =  1.0
  H   11    (CENTRE 11)   3.87809722  3.24194494 -0.00178002  CHARGE =  1.0
  C   12    (CENTRE 12)   4.65649508 -1.87574887  0.00106213  CHARGE =  6.0
  H   13    (CENTRE 13)   4.84206826 -3.05657067  1.68866881  CHARGE =  1.0
  H   14    (CENTRE 14)   4.80885633 -3.12292463 -1.64111555  CHARGE =  1.0
  H   15    (CENTRE 15)   6.25899587 -0.57758804 -0.04014335  CHARGE =  1.0
CENTRE ASSIGNMENTS    1  1  1  1  1  1  1  1  1  1  1  1  1  1  1  1  1  1  1  1
CENTRE ASSIGNMENTS    1  1  1  1  1  1  1  1  2  2  2  2  2  2  2  2  2  2  2  2
CENTRE ASSIGNMENTS    2  2  2  2  2  2  2  2  2  2  2  2  2  2  2  2  3  3  3  3
CENTRE ASSIGNMENTS    3  3  3  3  3  3  3  3  3  3  3  3  3  3  3  3  3  3  3  3
CENTRE ASSIGNMENTS    3  3  3  3  4  4  4  4  4  4  4  4  4  4  4  4  4  4  4  4
CENTRE ASSIGNMENTS    4  4  4  4  4  4  4  4  4  4  4  4  5  5  5  5  5  5  5  5
CENTRE ASSIGNMENTS    5  5  5  5  5  5  5  5  5  5  5  5  5  5  5  5  5  5  5  5
CENTRE ASSIGNMENTS    6  6  6  6  6  6  6  6  6  6  6  6  6  6  6  6  6  6  6  6
CENTRE ASSIGNMENTS    6  6  6  6  6  6  6  6  7  7  7  7  8  8  8  8  9  9  9  9
CENTRE ASSIGNMENTS    9  9  9  9  9  9  9  9  9  9  9  9  9  9  9  9  9  9  9  9
CENTRE ASSIGNMENTS    9  9  9  9 10 10 10 10 11 11 11 11 12 12 12 12 12 12 12 12
CENTRE ASSIGNMENTS   12 12 12 12 12 12 12 12 12 12 12 12 12 12 12 12 12 12 12 12
CENTRE ASSIGNMENTS   13 13 13 13 14 14 14 14 15 15 15 15
TYPE ASSIGNMENTS      1  1  1  1  1  1  1  1  1  2  2  2  3  3  3  4  4  4  1  2
TYPE ASSIGNMENTS      3  4  5  6  7  8  9 10  1  1  1  1  1  1  1  1  1  2  2  2
TYPE ASSIGNMENTS      3  3  3  4  4  4  1  2  3  4  5  6  7  8  9 10  1  1  1  1
TYPE ASSIGNMENTS      1  1  1  1  1  2  2  2  3  3  3  4  4  4  1  2  3  4  5  6
TYPE ASSIGNMENTS      7  8  9 10  1  1  1  1  1  1  1  1  1  2  2  2  3  3  3  4
TYPE ASSIGNMENTS      4  4  1  2  3  4  5  6  7  8  9 10  1  1  1  1  1  1  1  1
TYPE ASSIGNMENTS      1  2  2  2  3  3  3  4  4  4  1  2  3  4  5  6  7  8  9 10
TYPE ASSIGNMENTS      1  1  1  1  1  1  1  1  1  2  2  2  3  3  3  4  4  4  1  2
TYPE ASSIGNMENTS      3  4  5  6  7  8  9 10  1  1  1  1  1  1  1  1  1  1  1  1
TYPE ASSIGNMENTS      1  1  1  1  1  2  2  2  3  3  3  4  4  4  1  2  3  4  5  6
TYPE ASSIGNMENTS      7  8  9 10  1  1  1  1  1  1  1  1  1  1  1  1  1  1  1  1
TYPE ASSIGNMENTS      1  2  2  2  3  3  3  4  4  4  1  2  3  4  5  6  7  8  9 10
TYPE ASSIGNMENTS      1  1  1  1  1  1  1  1  1  1  1  1
EXPONENTS  0.3047525D+04 0.4573695D+03 0.1039487D+03 0.2921016D+02 0.9286663D+01
EXPONENTS  0.3163927D+01 0.7868272D+01 0.1881289D+01 0.5442493D+00 0.7868272D+01
EXPONENTS  0.1881289D+01 0.5442493D+00 0.7868272D+01 0.1881289D+01 0.5442493D+00
EXPONENTS  0.7868272D+01 0.1881289D+01 0.5442493D+00 0.1687145D+00 0.1687145D+00
EXPONENTS  0.1687145D+00 0.1687145D+00 0.8000000D+00 0.8000000D+00 0.8000000D+00
EXPONENTS  0.8000000D+00 0.8000000D+00 0.8000000D+00 0.3047525D+04 0.4573695D+03
EXPONENTS  0.1039487D+03 0.2921016D+02 0.9286663D+01 0.3163927D+01 0.7868272D+01
EXPONENTS  0.1881289D+01 0.5442493D+00 0.7868272D+01 0.1881289D+01 0.5442493D+00
EXPONENTS  0.7868272D+01 0.1881289D+01 0.5442493D+00 0.7868272D+01 0.1881289D+01
EXPONENTS  0.5442493D+00 0.1687145D+00 0.1687145D+00 0.1687145D+00 0.1687145D+00
EXPONENTS  0.8000000D+00 0.8000000D+00 0.8000000D+00 0.8000000D+00 0.8000000D+00
EXPONENTS  0.8000000D+00 0.3047525D+04 0.4573695D+03 0.1039487D+03 0.2921016D+02
EXPONENTS  0.9286663D+01 0.3163927D+01 0.7868272D+01 0.1881289D+01 0.5442493D+00
EXPONENTS  0.7868272D+01 0.1881289D+01 0.5442493D+00 0.7868272D+01 0.1881289D+01
EXPONENTS  0.5442493D+00 0.7868272D+01 0.1881289D+01 0.5442493D+00 0.1687145D+00
EXPONENTS  0.1687145D+00 0.1687145D+00 0.1687145D+00 0.8000000D+00 0.8000000D+00
EXPONENTS  0.8000000D+00 0.8000000D+00 0.8000000D+00 0.8000000D+00 0.3047525D+04
EXPONENTS  0.4573695D+03 0.1039487D+03 0.2921016D+02 0.9286663D+01 0.3163927D+01
EXPONENTS  0.7868272D+01 0.1881289D+01 0.5442493D+00 0.7868272D+01 0.1881289D+01
EXPONENTS  0.5442493D+00 0.7868272D+01 0.1881289D+01 0.5442493D+00 0.7868272D+01
EXPONENTS  0.1881289D+01 0.5442493D+00 0.1687145D+00 0.1687145D+00 0.1687145D+00
EXPONENTS  0.1687145D+00 0.8000000D+00 0.8000000D+00 0.8000000D+00 0.8000000D+00
EXPONENTS  0.8000000D+00 0.8000000D+00 0.3047525D+04 0.4573695D+03 0.1039487D+03
EXPONENTS  0.2921016D+02 0.9286663D+01 0.3163927D+01 0.7868272D+01 0.1881289D+01
EXPONENTS  0.5442493D+00 0.7868272D+01 0.1881289D+01 0.5442493D+00 0.7868272D+01
EXPONENTS  0.1881289D+01 0.5442493D+00 0.7868272D+01 0.1881289D+01 0.5442493D+00
EXPONENTS  0.1687145D+00 0.1687145D+00 0.1687145D+00 0.1687145D+00 0.8000000D+00
EXPONENTS  0.8000000D+00 0.8000000D+00 0.8000000D+00 0.8000000D+00 0.8000000D+00
EXPONENTS  0.3047525D+04 0.4573695D+03 0.1039487D+03 0.2921016D+02 0.9286663D+01
EXPONENTS  0.3163927D+01 0.7868272D+01 0.1881289D+01 0.5442493D+00 0.7868272D+01
EXPONENTS  0.1881289D+01 0.5442493D+00 0.7868272D+01 0.1881289D+01 0.5442493D+00
EXPONENTS  0.7868272D+01 0.1881289D+01 0.5442493D+00 0.1687145D+00 0.1687145D+00
EXPONENTS  0.1687145D+00 0.1687145D+00 0.8000000D+00 0.8000000D+00 0.8000000D+00
EXPONENTS  0.8000000D+00 0.8000000D+00 0.8000000D+00 0.1873114D+02 0.2825394D+01
EXPONENTS  0.6401217D+00 0.1612778D+00 0.1873114D+02 0.2825394D+01 0.6401217D+00
EXPONENTS  0.1612778D+00 0.5484672D+04 0.8252349D+03 0.1880470D+03 0.5296450D+02
EXPONENTS  0.1689757D+02 0.5799635D+01 0.1553962D+02 0.3599934D+01 0.1013762D+01
EXPONENTS  0.1553962D+02 0.3599934D+01 0.1013762D+01 0.1553962D+02 0.3599934D+01
EXPONENTS  0.1013762D+01 0.1553962D+02 0.3599934D+01 0.1013762D+01 0.2700058D+00
EXPONENTS  0.2700058D+00 0.2700058D+00 0.2700058D+00 0.8000000D+00 0.8000000D+00
EXPONENTS  0.8000000D+00 0.8000000D+00 0.8000000D+00 0.8000000D+00 0.1873114D+02
EXPONENTS  0.2825394D+01 0.6401217D+00 0.1612778D+00 0.1873114D+02 0.2825394D+01
EXPONENTS  0.6401217D+00 0.1612778D+00 0.3047525D+04 0.4573695D+03 0.1039487D+03
EXPONENTS  0.2921016D+02 0.9286663D+01 0.3163927D+01 0.7868272D+01 0.1881289D+01
EXPONENTS  0.5442493D+00 0.7868272D+01 0.1881289D+01 0.5442493D+00 0.7868272D+01
EXPONENTS  0.1881289D+01 0.5442493D+00 0.7868272D+01 0.1881289D+01 0.5442493D+00
EXPONENTS  0.1687145D+00 0.1687145D+00 0.1687145D+00 0.1687145D+00 0.8000000D+00
EXPONENTS  0.8000000D+00 0.8000000D+00 0.8000000D+00 0.8000000D+00 0.8000000D+00
EXPONENTS  0.1873114D+02 0.2825394D+01 0.6401217D+00 0.1612778D+00 0.1873114D+02
EXPONENTS  0.2825394D+01 0.6401217D+00 0.1612778D+00 0.1873114D+02 0.2825394D+01
EXPONENTS  0.6401217D+00 0.1612778D+00
MO    1     MO 0.0        OCC NO =    2.0000000  ORB. ENERGY =  -18.971373
  0.73880336D-05  0.13629479D-04  0.22002206D-04  0.28640334D-04  0.24438849D-04
  0.84381473D-05 -0.27720771D-04 -0.12776478D-04  0.35826578D-04 -0.23721392D-04
 -0.18188059D-04 -0.90771159D-05 -0.36950873D-04 -0.28331585D-04 -0.14139447D-04
  0.10439865D-07  0.80046264D-08  0.39948696D-08 -0.13704299D-03  0.44785158D-04
  0.63843645D-04 -0.40743349D-08  0.67696870D-05 -0.12025267D-04  0.39491143D-04
  0.46954236D-04  0.69248217D-07 -0.76812468D-07 -0.32335237D-05 -0.59652199D-05
 -0.96297144D-05 -0.12535027D-04 -0.10696161D-04 -0.36931274D-05  0.20508615D-04
  0.94524018D-05 -0.26505521D-04 -0.69213386D-04 -0.53068434D-04 -0.26484868D-04
 -0.63051684D-04 -0.48344032D-04 -0.24127060D-04  0.96073133D-07  0.73662785D-07
  0.36762892D-07  0.29243218D-03 -0.63897248D-04 -0.97108189D-04  0.39671045D-07
  0.46400151D-04  0.37146744D-05 -0.28793258D-05  0.38531116D-04 -0.14610345D-06
 -0.35367548D-07  0.14338054D-04  0.26450909D-04  0.42699969D-04  0.55582672D-04
  0.47428795D-04  0.16376023D-04 -0.85306027D-04 -0.39317470D-04  0.11025029D-03
 -0.21481773D-05 -0.16470861D-05 -0.82201141D-06  0.11105531D-03  0.85150168D-04
  0.42495902D-04  0.55677545D-07  0.42690010D-07  0.21305307D-07 -0.56438216D-03
 -0.20763595D-03  0.47680163D-04 -0.35588242D-08 -0.75166937D-04 -0.60732776D-04
  0.71371780D-04 -0.81118756D-05 -0.34214402D-07  0.14522876D-06 -0.22773017D-04
 -0.42011769D-04 -0.67820021D-04 -0.88281517D-04 -0.75330778D-04 -0.26009907D-04
 -0.63314813D-04 -0.29181739D-04  0.81828643D-04 -0.42635748D-03 -0.32690387D-03
 -0.16314794D-03 -0.38640970D-03 -0.29627445D-03 -0.14786171D-03 -0.33117555D-06
 -0.25392440D-06 -0.12672607D-06 -0.14019458D-03  0.46880285D-03  0.44221972D-03
  0.22160187D-06 -0.57120956D-04  0.16709185D-04 -0.86657545D-04  0.52073187D-04
 -0.13003573D-06 -0.61586988D-07  0.19740727D-05  0.36417787D-05  0.58789600D-05
  0.76526591D-05  0.65300279D-05  0.22546617D-05 -0.42129426D-04 -0.19417414D-04
  0.54448456D-04 -0.32521644D-04 -0.24935534D-04 -0.12444579D-04  0.19415773D-04
  0.14886783D-04  0.74295483D-05  0.18536617D-07  0.14212702D-07  0.70931343D-08
 -0.87424661D-04 -0.25588600D-04 -0.19434574D-03 -0.14038319D-06 -0.57998555D-04
 -0.73559257D-04  0.18570476D-04  0.39053447D-04  0.65424247D-07 -0.30958608D-06
  0.38025501D-05  0.70149625D-05  0.11324325D-04  0.14740906D-04  0.12578442D-04
  0.43430336D-05 -0.46448808D-05 -0.21408213D-05  0.60030865D-05 -0.90055776D-04
 -0.69049057D-04 -0.34460319D-04 -0.51290168D-05 -0.39326048D-05 -0.19626454D-05
  0.14293801D-06  0.10959580D-06  0.54695984D-07  0.18545883D-03  0.14324727D-04
  0.34607628D-04  0.47666076D-08  0.14817065D-04  0.36604193D-04  0.31682403D-04
 -0.81243295D-06  0.67083960D-07 -0.71752057D-07  0.43960197D-06  0.74564815D-06
  0.84889406D-06  0.93917804D-05 -0.38865378D-05 -0.65923038D-05 -0.75051049D-05
 -0.10822462D-03  0.82562692D+00  0.15195943D+01  0.24589904D+01  0.32324117D+01
  0.27724207D+01  0.94793773D+00 -0.15834258D-01 -0.70652149D-02  0.20863674D-01
 -0.35220598D-03 -0.27135572D-03 -0.11913978D-03  0.27267156D-02  0.21007873D-02
  0.92235880D-03  0.28553888D-05  0.21999231D-05  0.96588474D-06  0.37989362D-02
  0.33675695D-03  0.14016138D-03  0.17767939D-06 -0.91572340D-02 -0.92725621D-02
 -0.92082427D-02  0.92591630D-04  0.15549530D-06 -0.74458675D-07  0.86426424D-04
  0.14659557D-03  0.16689388D-03 -0.19348141D-03 -0.37418949D-05 -0.63469619D-05
 -0.72257918D-05 -0.21608425D-04  0.52112437D-05  0.96137270D-05  0.15519536D-04
  0.20201825D-04  0.17238254D-04  0.59519548D-05 -0.18999226D-04 -0.87567259D-05
  0.24554773D-04  0.85083172D-05  0.65236380D-05  0.32557526D-05 -0.86005791D-05
 -0.65943786D-05 -0.32910571D-05 -0.14372058D-06 -0.11019582D-06 -0.54995439D-07
 -0.62411164D-04  0.12760032D-04 -0.16890013D-04  0.11471292D-06  0.74298572D-05
  0.22541516D-05  0.20751427D-04  0.26811385D-04  0.11787618D-06  0.25623024D-06
  0.20819342D-05  0.35313544D-05  0.40203222D-05  0.27345301D-05  0.20615157D-05
  0.34967208D-05  0.39808930D-05  0.27708215D-05  0.34941747D-05  0.59267816D-05
  0.67474314D-05  0.72029733D-05
MO    2     MO 0.0        OCC NO =    2.0000000  ORB. ENERGY =  -10.032454
 -0.20431100D-04 -0.37691389D-04 -0.60845589D-04 -0.79202878D-04 -0.67583960D-04
 -0.23335117D-04  0.31751306D-04  0.14634148D-04 -0.41035678D-04 -0.12283927D-03
 -0.94185359D-04 -0.47005095D-04  0.55636326D-04  0.42658406D-04  0.21289534D-04
 -0.18904576D-05 -0.14494830D-05 -0.72339360D-06 -0.10624976D-03  0.30092682D-04
  0.20642428D-04  0.11117906D-05 -0.18935916D-04  0.26210003D-04 -0.75473678D-04
  0.14176111D-03  0.81445560D-06 -0.11096680D-05 -0.13829425D-04 -0.25512588D-04
 -0.41185227D-04 -0.53610929D-04 -0.45746303D-04 -0.15795099D-04  0.49878809D-04
  0.22989098D-04 -0.64463829D-04  0.89305624D-05  0.68473888D-05  0.34173269D-05
  0.17706453D-04  0.13576185D-04  0.67754679D-05  0.94360038D-06  0.72349292D-06
  0.36107367D-06  0.20347528D-03 -0.12132170D-04 -0.10120699D-03 -0.72442447D-06
  0.11191030D-04  0.83070254D-05 -0.59689066D-04 -0.43821411D-04 -0.41606163D-06
  0.85162141D-06 -0.51826599D-05 -0.95609955D-05 -0.15434411D-04 -0.20091017D-04
 -0.17143702D-04 -0.59193082D-05  0.16100365D-04  0.74206437D-05 -0.20808260D-04
 -0.34392445D-04 -0.26369945D-04 -0.13160451D-04  0.20507094D-04  0.15723539D-04
  0.78471481D-05 -0.24777891D-06 -0.18998115D-06 -0.94813910D-07 -0.41722169D-04
 -0.84512932D-04 -0.60589851D-04  0.55612980D-06 -0.11807298D-04  0.21844340D-04
 -0.34702295D-04  0.27579552D-04  0.24231463D-06 -0.25885819D-06 -0.76371588D-04
 -0.14089067D-03 -0.22744122D-03 -0.29606089D-03 -0.25262930D-03 -0.87226825D-04
  0.68358371D-04  0.31506311D-04 -0.88346984D-04 -0.75785783D-05 -0.58107732D-05
 -0.28999831D-05  0.26183800D-04  0.20076077D-04  0.10019370D-04  0.11574467D-05
  0.88745672D-06  0.44290310D-06  0.26591266D-03  0.21392561D-03 -0.11329415D-03
 -0.10271972D-05  0.12505315D-04 -0.44218778D-04 -0.80855001D-04 -0.67734259D-04
 -0.56570271D-06  0.25085471D-06 -0.29539411D-05 -0.54494444D-05 -0.87970930D-05
 -0.11451201D-04 -0.97713308D-05 -0.33738057D-05  0.27054041D-04  0.12469183D-04
 -0.34964890D-04 -0.11358613D-03 -0.87090637D-04 -0.43464332D-04  0.76860749D-04
  0.58931947D-04  0.29411172D-04 -0.17282852D-05 -0.13251395D-05 -0.66133747D-06
 -0.12976438D-03  0.25193411D-03 -0.29959209D-04  0.97555904D-06  0.15256801D-04
  0.88490338D-04 -0.49843399D-04  0.17307816D-03  0.13696536D-05 -0.15486275D-06
  0.19125388D-02  0.35282606D-02  0.56957066D-02  0.74141176D-02  0.63264800D-02
  0.21843815D-02  0.14491935D-04  0.66793197D-05 -0.18729510D-04 -0.28849664D-03
 -0.22120092D-03 -0.11039476D-03  0.10387589D-03  0.79645447D-04  0.39748660D-04
  0.14584825D-05  0.11182719D-05  0.55809604D-06  0.77466597D-03  0.48034040D-03
 -0.10719715D-03 -0.67946884D-06 -0.40193760D-03 -0.23291265D-03 -0.18860419D-03
  0.14664803D-03  0.96349553D-06 -0.33527245D-06  0.18818829D-06  0.31920296D-06
  0.36340129D-06  0.40086527D-04 -0.15907798D-04 -0.26982637D-04 -0.30718779D-04
  0.18699058D-04 -0.16385013D-04 -0.30157171D-04 -0.48799995D-04 -0.64148960D-04
 -0.55020190D-04 -0.18812337D-04  0.52802881D-04  0.23560543D-04 -0.69574598D-04
 -0.45553932D-04 -0.35096849D-04 -0.15409407D-04 -0.35001843D-04 -0.26967033D-04
 -0.11839980D-04 -0.84281686D-06 -0.64934496D-06 -0.28509741D-06  0.11585668D-03
  0.13098570D-04  0.49581094D-04  0.47620327D-06 -0.71320809D-04 -0.27126666D-04
 -0.84319614D-04  0.22775513D-04  0.47625579D-06  0.59689248D-06 -0.37340462D-05
 -0.63336491D-05 -0.72106357D-05  0.98594218D-05 -0.59090506D-05 -0.10022868D-04
 -0.11410681D-04 -0.33465729D-04  0.53255127D+00  0.98245311D+00  0.15859839D+01
  0.20644799D+01  0.17616244D+01  0.60824657D+00 -0.20033910D-01 -0.92336108D-02
  0.25892008D-01  0.17690382D-03  0.13563863D-03  0.67693180D-04 -0.18296802D-03
 -0.14028827D-03 -0.70013681D-04  0.31051635D-05  0.23808424D-05  0.11882072D-05
 -0.33907134D-02  0.16931939D-03 -0.90520372D-04 -0.69078918D-06 -0.10235709D-01
 -0.10190275D-01 -0.10115598D-01  0.18817546D-03 -0.17498471D-05  0.71407963D-06
 -0.27800326D-05 -0.47154614D-05 -0.53683862D-05  0.50688384D-03 -0.25884764D-05
 -0.43905459D-05 -0.49984813D-05  0.50535358D-03 -0.93380939D-05 -0.15839175D-04
 -0.18032341D-04  0.49794551D-03
MO    3     MO 0.0        OCC NO =    2.0000000  ORB. ENERGY =  -10.024007
 -0.73131742D-04 -0.13491378D-03 -0.21779268D-03 -0.28350135D-03 -0.24191222D-03
 -0.83526476D-04  0.94060838D-04  0.43352554D-04 -0.12156509D-03  0.87747954D-04
  0.67279565D-04  0.33577218D-04  0.33534820D-04  0.25712373D-04  0.12832276D-04
 -0.30688694D-06 -0.23530144D-06 -0.11743191D-06  0.65757435D-03 -0.33956356D-03
 -0.14512912D-03  0.23006158D-06 -0.32596338D-04 -0.37179399D-06 -0.10870562D-03
 -0.61125325D-04 -0.89262512D-07  0.18154224D-07  0.30032273D-04  0.55403679D-04
  0.89438716D-04  0.11642263D-03  0.99343645D-04  0.34300973D-04 -0.44905773D-04
 -0.20697030D-04  0.58036632D-04  0.52098096D-04  0.39945515D-04  0.19935612D-04
  0.10727328D-03  0.82250345D-04  0.41048687D-04 -0.52386378D-07 -0.40166552D-07
 -0.20045924D-07 -0.90264519D-03 -0.65789580D-06  0.34849550D-03 -0.16085918D-07
  0.44887386D-04  0.84508283D-04  0.18240692D-04  0.11613684D-03 -0.88445106D-07
 -0.21343290D-09  0.11618823D-02  0.21434459D-02  0.34601864D-02  0.45041345D-02
  0.38433861D-02  0.13270289D-02  0.26701007D-03  0.12306470D-03 -0.34508626D-03
  0.12910091D-03  0.98986391D-04  0.49401147D-04  0.15526376D-03  0.11904640D-03
  0.59412497D-04 -0.40307085D-07 -0.30904916D-07 -0.15423719D-07  0.21272658D-02
  0.43120862D-03 -0.51690675D-03 -0.27539866D-06 -0.32619401D-03 -0.36544218D-03
 -0.32429729D-03 -0.29347501D-03  0.81419856D-07  0.17926890D-06  0.53255478D+00
  0.98245957D+00  0.15859944D+01  0.20644934D+01  0.17616360D+01  0.60825057D+00
 -0.19663005D-01 -0.90626611D-02  0.25412648D-01 -0.12307489D-02 -0.94366017D-03
 -0.47095256D-03 -0.99956978D-03 -0.76640670D-03 -0.38249066D-03 -0.14979710D-05
 -0.11485491D-05 -0.57320651D-06 -0.33536123D-02 -0.12128384D-02 -0.80848160D-03
  0.48024476D-06 -0.94671562D-02 -0.97645896D-02 -0.10389438D-01  0.85980956D-03
  0.91306203D-06  0.10245725D-05  0.33569366D-02  0.61928925D-02  0.99972487D-02
  0.13013447D-01  0.11104398D-01  0.38340818D-02  0.17767424D-03  0.81889894D-04
 -0.22962781D-03  0.31248345D-03  0.23959249D-03  0.11957345D-03 -0.29426370D-03
 -0.22562274D-03 -0.11260156D-03 -0.89283631D-07 -0.68457025D-07 -0.34164853D-07
  0.20100023D-02 -0.10980437D-03  0.93333043D-03  0.42823418D-06 -0.53438035D-03
 -0.25714735D-03 -0.36635315D-03 -0.47679119D-05  0.29517386D-06  0.19987527D-06
  0.49176978D-04  0.90721922D-04  0.14645331D-03  0.19063870D-03  0.16267234D-03
  0.56166851D-04 -0.69748729D-04 -0.32147126D-04  0.90143896D-04  0.10463275D-03
  0.80225754D-04  0.40038274D-04  0.15500282D-05  0.11884633D-05  0.59312650D-06
 -0.12899423D-06 -0.98904592D-07 -0.49360323D-07 -0.10929559D-02  0.43535831D-03
 -0.57772681D-04 -0.34834478D-06  0.31279419D-04  0.35252197D-04  0.34813175D-04
  0.47287904D-04 -0.30369860D-06  0.31085480D-06 -0.82872121D-05 -0.14056680D-04
 -0.16003034D-04 -0.43122955D-04  0.28426249D-04  0.48216298D-04  0.54892551D-04
  0.27094387D-03  0.96347960D-04  0.17733168D-03  0.28695613D-03  0.37721187D-03
  0.32353243D-03  0.11062123D-03 -0.61582565D-03 -0.27478020D-03  0.81142962D-03
 -0.14043427D-03 -0.10819704D-03 -0.47504326D-04 -0.93086411D-04 -0.71718061D-04
 -0.31488092D-04  0.91593363D-06  0.70567748D-06  0.30983043D-06 -0.14120893D-02
 -0.62328045D-03 -0.40347323D-03 -0.84264511D-06 -0.33369845D-03  0.34206256D-03
  0.92454399D-03 -0.12262320D-02 -0.16281550D-05 -0.13200088D-05  0.36705265D-04
  0.62259077D-04  0.70879759D-04 -0.29125523D-04  0.19423681D-04  0.32946239D-04
  0.37508128D-04  0.10948042D-03  0.42975718D-04  0.79281808D-04  0.12798542D-03
  0.16659899D-03  0.14215922D-03  0.49084163D-04  0.48496064D-04  0.22351792D-04
 -0.62676757D-04  0.25568226D-04  0.19604094D-04  0.97838167D-05  0.29581114D-05
  0.22680922D-05  0.11319370D-05 -0.41190256D-06 -0.31582075D-06 -0.15761669D-06
  0.10958893D-04 -0.40125540D-04 -0.42187397D-04  0.57242963D-06  0.18372003D-04
 -0.84454190D-04 -0.38676520D-04 -0.22707198D-04  0.11217369D-05  0.19452847D-05
 -0.88386425D-05 -0.14992011D-04 -0.17067874D-04 -0.15666867D-04 -0.90102650D-05
 -0.15283115D-04 -0.17399286D-04 -0.15632532D-04  0.86161158D-06  0.14614563D-05
  0.16638164D-05  0.21900144D-04
MO    4     MO 0.0        OCC NO =    2.0000000  ORB. ENERGY =   -9.999791
  0.86593114D-02  0.15974739D-01  0.25788181D-01  0.33568550D-01  0.28644104D-01
  0.98901209D-02 -0.92493489D-04 -0.42630165D-04  0.11953943D-03  0.66630350D-04
  0.51087926D-04  0.25496456D-04  0.42938757D-03  0.32922715D-03  0.16430742D-03
  0.35667870D-06  0.27347860D-06  0.13648499D-06  0.13429809D-02 -0.20854228D-03
 -0.50121521D-03 -0.19521918D-06 -0.43153402D-03 -0.63030932D-03 -0.37598031D-03
  0.59934115D-04  0.14558114D-06 -0.14510625D-07  0.79444131D-04  0.14655891D-03
  0.23659152D-03  0.30797186D-03  0.26279295D-03  0.90736090D-04 -0.33193747D-04
 -0.15298968D-04  0.42899902D-04 -0.57482639D-04 -0.44074042D-04 -0.21996036D-04
  0.63679888D-05  0.48825699D-05  0.24367446D-05  0.11458812D-09  0.87858902D-10
  0.43847749D-10 -0.51529498D-03  0.66138287D-04  0.26794138D-03  0.43523002D-07
  0.60841104D-04  0.68048282D-04  0.42801431D-04 -0.68662314D-04  0.97471287D-07
  0.21103689D-07 -0.34134115D-04 -0.62970777D-04 -0.10165436D-03 -0.13232377D-03
 -0.11291211D-03 -0.38985839D-04  0.62512339D-04  0.28811880D-04 -0.80791518D-04
  0.34741201D-04  0.26637349D-04  0.13293904D-04 -0.10605484D-04 -0.81316124D-05
 -0.40582445D-05  0.32009800D-07  0.24543084D-07  0.12248719D-07  0.51869762D-03
  0.17113902D-03 -0.23157412D-04 -0.14023328D-06 -0.52590105D-05 -0.17015742D-04
 -0.67226178D-04  0.99633155D-05 -0.89977693D-07  0.33218345D-07 -0.71910664D-04
 -0.13266113D-03 -0.21415620D-03 -0.27876774D-03 -0.23787302D-03 -0.82131838D-04
 -0.21961886D-04 -0.10122213D-04  0.28383743D-04 -0.63389386D-05 -0.48602961D-05
 -0.24256284D-05  0.10843397D-04  0.83140288D-05  0.41492831D-05  0.10227047D-07
  0.78414509D-08  0.39134335D-08 -0.48055362D-03 -0.20885113D-03 -0.65141038D-04
  0.16204146D-06  0.86153826D-04  0.35423837D-04  0.38054707D-04 -0.52097180D-04
 -0.52484041D-07  0.53323838D-08  0.84605996D-02  0.15608154D-01  0.25196401D-01
  0.32798227D-01  0.27986787D-01  0.96631648D-02 -0.99770275D-04 -0.45984029D-04
  0.12894402D-03 -0.37587979D-03 -0.28820078D-03 -0.14383239D-03 -0.27868751D-03
 -0.21367991D-03 -0.10664125D-03  0.15180179D-06  0.11639199D-06  0.58087759D-07
  0.12638618D-02  0.20614802D-03  0.39552289D-03 -0.82527611D-08 -0.63167231D-03
 -0.46225806D-03 -0.36586664D-03 -0.18509618D-03  0.19305485D-06 -0.12812016D-06
  0.53236811D+00  0.98211521D+00  0.15854385D+01  0.20637698D+01  0.17610185D+01
  0.60803737D+00 -0.19826815D-01 -0.91381608D-02  0.25624357D-01  0.21647843D-03
  0.16598193D-03  0.82836617D-04 -0.16949975D-03 -0.12996165D-03 -0.64859974D-04
  0.25295963D-05  0.19395340D-05  0.96796341D-06 -0.35668512D-02  0.22567517D-03
 -0.23417568D-03  0.12059299D-06 -0.10153722D-01 -0.10073443D-01 -0.10425700D-01
  0.14838744D-03  0.22465868D-05 -0.12987677D-05 -0.13041466D-04 -0.22120794D-04
 -0.25183743D-04 -0.59927899D-04 -0.41309866D-05 -0.70069352D-05 -0.79771480D-05
  0.56499013D-04 -0.30235110D-05 -0.55648743D-05 -0.90050171D-05 -0.11837347D-04
 -0.10152824D-04 -0.34714229D-05  0.60605149D-05  0.27041900D-05 -0.79855091D-05
 -0.64346321D-04 -0.49575371D-04 -0.21766258D-04  0.36322695D-04  0.27984678D-04
  0.12286781D-04  0.10664543D-06  0.82164556D-07  0.36074665D-07 -0.31263418D-04
  0.40907832D-04 -0.25787119D-04 -0.95534763D-07  0.20278588D-04 -0.38668411D-04
 -0.22497320D-04  0.91015141D-05 -0.67999346D-07 -0.12897022D-06  0.50147242D-05
  0.85059214D-05  0.96836908D-05  0.55278455D-05 -0.57533443D-05 -0.97587609D-05
 -0.11110004D-04  0.81657963D-04 -0.20248999D-02 -0.37355449D-02 -0.60303277D-02
 -0.78496949D-02 -0.66981589D-02 -0.23127133D-02  0.10975733D-03  0.50587054D-04
 -0.14185138D-03  0.29588142D-03  0.22686311D-03  0.11322059D-03 -0.28440752D-03
 -0.21806565D-03 -0.10883004D-03  0.72840847D-05  0.55849742D-05  0.27872935D-05
  0.50443495D-03 -0.15530970D-03  0.19133765D-03 -0.46856279D-05 -0.46185357D-03
 -0.19576411D-03  0.24892421D-06  0.40014159D-03 -0.23487423D-05  0.24053933D-06
 -0.32540410D-04 -0.55194694D-04 -0.62837209D-04  0.79999605D-04 -0.31675742D-04
 -0.53728054D-04 -0.61167490D-04  0.73505026D-04 -0.20214562D-04 -0.34287723D-04
 -0.39035360D-04 -0.72055226D-04
MO    5     MO 0.0        OCC NO =    2.0000000  ORB. ENERGY =   -9.983492
  0.53212888D+00  0.98167387D+00  0.15847260D+01  0.20628424D+01  0.17602272D+01
  0.60776414D+00 -0.19880521D-01 -0.91629138D-02  0.25693767D-01  0.93003902D-04
  0.71309493D-04  0.35588435D-04 -0.24377891D-03 -0.18691421D-03 -0.93283289D-04
  0.64449041D-07  0.49415437D-07  0.24661766D-07 -0.36166240D-02  0.56496789D-03
  0.43086328D-03 -0.19146588D-07 -0.10326960D-01 -0.10229415D-01 -0.10588848D-01
 -0.10964144D-03 -0.53009213D-06 -0.10462939D-06  0.11480384D-01  0.21179067D-01
  0.34189581D-01  0.44504675D-01  0.37975920D-01  0.13112173D-01 -0.16886849D-03
 -0.77831335D-04  0.21824719D-03 -0.25760370D-03 -0.19751417D-03 -0.98573416D-04
  0.26435214D-03  0.20268845D-03  0.10115574D-03  0.59387297D-07  0.45534412D-07
  0.22724863D-07  0.14934331D-02  0.20550078D-03 -0.59116428D-03 -0.12922693D-06
 -0.65175266D-03 -0.47196139D-03 -0.46140540D-03  0.88939525D-04  0.34529449D-07
 -0.23489508D-07  0.56914643D-04  0.10499640D-03  0.16949675D-03  0.22063441D-03
  0.18826774D-03  0.65004326D-04 -0.27327076D-04 -0.12595024D-04  0.35317763D-04
 -0.91394131D-04 -0.70075223D-04 -0.34972448D-04 -0.21313986D-05 -0.16342213D-05
 -0.81559096D-06 -0.25785590D-07 -0.19770755D-07 -0.98669924D-08 -0.78090601D-03
 -0.23150820D-03  0.11144621D-03  0.14633397D-06  0.10572122D-03  0.40804248D-04
  0.35239818D-04  0.34629041D-04 -0.32050820D-07 -0.39466856D-07  0.11416962D-03
  0.21062066D-03  0.34000705D-03  0.44258815D-03  0.37766127D-03  0.13039736D-03
  0.80569845D-04  0.37134568D-04 -0.10412920D-03  0.11891783D-05  0.91178647D-06
  0.45504535D-06 -0.27131760D-04 -0.20802913D-04 -0.10382111D-04 -0.10602564D-06
 -0.81293734D-07 -0.40571271D-07  0.59864432D-03  0.26233093D-03  0.17344194D-03
 -0.82366663D-07 -0.26741518D-04 -0.13587760D-04 -0.90121204D-04 -0.22821195D-04
 -0.11368722D-06 -0.90319417D-09 -0.13282264D-01 -0.24503184D-01 -0.39555736D-01
 -0.51489815D-01 -0.43936353D-01 -0.15170167D-01  0.47508992D-03  0.21896851D-03
 -0.61401056D-03 -0.25679671D-04 -0.19689543D-04 -0.98264617D-05 -0.21674743D-04
 -0.16618818D-04 -0.82939550D-05  0.69614276D-07  0.53375812D-07  0.26638271D-07
 -0.57430196D-03  0.24581293D-04 -0.34746599D-03 -0.12830604D-06  0.35804343D-03
  0.32524666D-03  0.29004638D-03  0.53061775D-04  0.51662215D-07  0.11628840D-06
 -0.86789601D-02 -0.16010987D-01 -0.25846697D-01 -0.33644719D-01 -0.28709100D-01
 -0.99125623D-02  0.55252090D-03  0.25465638D-03 -0.71408307D-03  0.72927510D-04
  0.55916189D-04  0.27906097D-04 -0.52165028D-03 -0.39996835D-03 -0.19961224D-03
 -0.99559173D-07 -0.76335659D-07 -0.38096844D-07  0.15796584D-02 -0.43193764D-03
  0.62727184D-03  0.10403702D-06 -0.10778916D-03 -0.33564548D-03 -0.43276052D-04
 -0.95207302D-04 -0.38896271D-06  0.82826519D-07  0.51551565D-05  0.87441211D-05
  0.99548728D-05  0.14290243D-03 -0.15909689D-04 -0.26985844D-04 -0.30722429D-04
 -0.96932557D-04 -0.19249289D-04 -0.35428968D-04 -0.57330759D-04 -0.75362887D-04
 -0.64638310D-04 -0.22100936D-04  0.63602585D-04  0.28379350D-04 -0.83804600D-04
 -0.19556916D-04 -0.15067550D-04 -0.66154659D-05 -0.48924184D-05 -0.37693446D-05
 -0.16549453D-05 -0.10234226D-06 -0.78849196D-07 -0.34619044D-07  0.20013425D-03
  0.34836899D-04  0.17473598D-04  0.87315365D-07 -0.69625157D-04 -0.70394005D-04
 -0.66963846D-04 -0.61853101D-05  0.74252226D-07  0.47478040D-07  0.17248042D-06
  0.29255944D-06  0.33306859D-06  0.12348849D-05 -0.10475411D-03 -0.17768280D-03
 -0.20228559D-03  0.19206971D-03  0.35246260D-04  0.65022468D-04  0.10496642D-03
  0.13663510D-03  0.11659098D-03  0.40256062D-04  0.58230973D-04  0.26838602D-04
 -0.75258242D-04 -0.40861280D-04 -0.31329838D-04 -0.15635785D-04 -0.78466054D-05
 -0.60162793D-05 -0.30025450D-05 -0.69214659D-06 -0.53069410D-06 -0.26485355D-06
  0.25281533D-03 -0.82300606D-04  0.15742970D-04  0.19286186D-06  0.54296257D-04
  0.21842723D-04 -0.55917061D-04 -0.29586285D-04  0.46786375D-06 -0.43152233D-06
 -0.36757298D-05 -0.62347335D-05 -0.70980237D-05 -0.80491779D-05 -0.35803352D-05
 -0.60729261D-05 -0.69138118D-05 -0.75957457D-05 -0.75652075D-05 -0.12832024D-04
 -0.14608806D-04  0.20216854D-05
MO    6     MO 0.0        OCC NO =    2.0000000  ORB. ENERGY =   -9.983285
  0.13170050D-01  0.24296170D-01  0.39221551D-01  0.51054806D-01  0.43565159D-01
  0.15042002D-01 -0.51372856D-03 -0.23677702D-03  0.66394749D-03 -0.11126581D-05
 -0.85311565D-06 -0.42576450D-06  0.40967113D-04  0.31410984D-04  0.15676282D-04
  0.18922284D-06  0.14508407D-06  0.72407121D-07 -0.74048893D-03  0.32840886D-03
  0.16658790D-03 -0.98110765D-07 -0.20120514D-03 -0.14282653D-03 -0.23895761D-03
 -0.30869965D-05 -0.12630566D-06 -0.92274120D-07  0.13303433D-03  0.24542236D-03
  0.39618779D-03  0.51571878D-03  0.44006377D-03  0.15194345D-03  0.80465099D-04
  0.37086291D-04 -0.10399383D-03  0.15489320D-04  0.11876228D-04  0.59270702D-05
  0.30781259D-04  0.23601117D-04  0.11778611D-04 -0.15194610D-07 -0.11650263D-07
 -0.58142979D-08  0.66043775D-03  0.43820941D-05 -0.29288456D-03  0.35564955D-08
 -0.16430765D-04 -0.28687465D-04 -0.93664676D-04 -0.21292479D-05 -0.90016826D-07
 -0.15701833D-07 -0.55420910D-06 -0.10224076D-05 -0.16504828D-05 -0.21484382D-05
 -0.18332662D-05 -0.63298278D-06 -0.44120303D-05 -0.20335007D-05  0.57021483D-05
 -0.46763570D-04 -0.35855339D-04 -0.17894327D-04  0.56829376D-04  0.43573161D-04
  0.21746061D-04  0.38308608D-07  0.29372610D-07  0.14658991D-07 -0.67264016D-03
 -0.22443921D-03  0.76654818D-04  0.11904249D-06  0.55092634D-04  0.14132749D-03
  0.15747085D-04 -0.36146896D-04 -0.15606777D-06  0.54718085D-07 -0.36170518D-02
 -0.66727543D-02 -0.10771894D-01 -0.14021806D-01 -0.11964832D-01 -0.41311691D-02
  0.39459859D-03  0.18187013D-03 -0.50998283D-03 -0.35229052D-03 -0.27011403D-03
 -0.13480583D-03  0.16102911D-03  0.12346691D-03  0.61618640D-04  0.29016115D-06
  0.22247716D-06  0.11103170D-06  0.16122925D-02  0.66951731D-03  0.26957407D-04