 Entering Link 1 = D:\Gaussian\G16W\l1.exe PID=     43288.
  
 Copyright (c) 1988,1990,1992,1993,1995,1998,2003,2009,2016,
            Gaussian, Inc.  All Rights Reserved.
  
 This is part of the Gaussian(R) 16 program.  It is based on
 the Gaussian(R) 09 system (copyright 2009, Gaussian, Inc.),
 the Gaussian(R) 03 system (copyright 2003, Gaussian, Inc.),
 the Gaussian(R) 98 system (copyright 1998, Gaussian, Inc.),
 the Gaussian(R) 94 system (copyright 1995, Gaussian, Inc.),
 the Gaussian 92(TM) system (copyright 1992, Gaussian, Inc.),
 the Gaussian 90(TM) system (copyright 1990, Gaussian, Inc.),
 the Gaussian 88(TM) system (copyright 1988, Gaussian, Inc.),
 the Gaussian 86(TM) system (copyright 1986, Carnegie Mellon
 University), and the Gaussian 82(TM) system (copyright 1983,
 Carnegie Mellon University). Gaussian is a federally registered
 trademark of Gaussian, Inc.
  
 This software contains proprietary and confidential information,
 including trade secrets, belonging to Gaussian, Inc.
  
 This software is provided under written license and may be
 used, copied, transmitted, or stored only in accord with that
 written license.
  
 The following legend is applicable only to US Government
 contracts under FAR:
  
                    RESTRICTED RIGHTS LEGEND
  
 Use, reproduction and disclosure by the US Government is
 subject to restrictions as set forth in subparagraphs (a)
 and (c) of the Commercial Computer Software - Restricted
 Rights clause in FAR 52.227-19.
  
 Gaussian, Inc.
 340 Quinnipiac St., Bldg. 40, Wallingford CT 06492
  
  
 ---------------------------------------------------------------
 Warning -- This program may not be used in any manner that
 competes with the business of Gaussian, Inc. or will provide
 assistance to any competitor of Gaussian, Inc.  The licensee
 of this program is prohibited from giving any competitor of
 Gaussian, Inc. access to this program.  By using this program,
 the user acknowledges that Gaussian, Inc. is engaged in the
 business of creating and licensing software in the field of
 computational chemistry and represents and warrants to the
 licensee that it is not a competitor of Gaussian, Inc. and that
 it will not use this program in any manner prohibited above.
 ---------------------------------------------------------------
  

 Cite this work as:
 Gaussian 16, Revision A.03,
 M. J. Frisch, G. W. Trucks, H. B. Schlegel, G. E. Scuseria, 
 M. A. Robb, J. R. Cheeseman, G. Scalmani, V. Barone, 
 G. A. Petersson, H. Nakatsuji, X. Li, M. Caricato, A. V. Marenich, 
 J. Bloino, B. G. Janesko, R. Gomperts, B. Mennucci, H. P. Hratchian, 
 J. V. Ortiz, A. F. Izmaylov, J. L. Sonnenberg, D. Williams-Young, 
 F. Ding, F. Lipparini, F. Egidi, J. Goings, B. Peng, A. Petrone, 
 T. Henderson, D. Ranasinghe, V. G. Zakrzewski, J. Gao, N. Rega, 
 G. Zheng, W. Liang, M. Hada, M. Ehara, K. Toyota, R. Fukuda, 
 J. Hasegawa, M. Ishida, T. Nakajima, Y. Honda, O. Kitao, H. Nakai, 
 T. Vreven, K. Throssell, J. A. Montgomery, Jr., J. E. Peralta, 
 F. Ogliaro, M. J. Bearpark, J. J. Heyd, E. N. Brothers, K. N. Kudin, 
 V. N. Staroverov, T. A. Keith, R. Kobayashi, J. Normand, 
 K. Raghavachari, A. P. Rendell, J. C. Burant, S. S. Iyengar, 
 J. Tomasi, M. Cossi, J. M. Millam, M. Klene, C. Adamo, R. Cammi, 
 J. W. Ochterski, R. L. Martin, K. Morokuma, O. Farkas, 
 J. B. Foresman, and D. J. Fox, Gaussian, Inc., Wallingford CT, 2016.
 
 ******************************************
 Gaussian 16:  EM64W-G16RevA.03 17-Dec-2016
                03-Dec-2025 
 ******************************************
 %nprocs=   4
 Will use up to    4 processors via shared memory.
 ------------------------------------
 #P B3LYP/6-31G* SCF=conver=7 out=wfn
 ------------------------------------
 1/38=1,172=1/1;
 2/12=2,17=6,18=5,40=1/2;
 3/5=1,6=6,7=1,11=2,25=1,30=1,74=-5/1,2,3;
 4//1;
 5/5=2,6=7,38=5/2;
 6/7=2,8=2,9=2,10=2,28=1/1;
 99/5=1,6=100,9=1/99;
 Leave Link    1 at Wed Dec 03 16:55:42 2025, MaxMem=           0 cpu:               0.0 elap:               0.1
 (Enter D:\Gaussian\G16W\l101.exe)
 ----------------------------------------------------
 Generated by Multiwfn (http://sobereva.com/multiwfn)
 ----------------------------------------------------
 Symbolic Z-matrix:
 Charge = -1 Multiplicity = 1
 C                     1.12397   1.15417  -0.00047 
 C                    -0.09904   1.84229   0.00009 
 C                    -1.24118   1.08842   0.00061 
 C                    -1.28421  -0.29166   0.00044 
 C                    -0.05355  -0.95596  -0.00054 
 C                     1.15102  -0.24405  -0.00087 
 H                    -0.12665   2.92655  -0.00006 
 H                    -0.06075  -2.04174  -0.00124 
 O                    -2.43372  -1.02629  -0.00014 
 H                    -3.18098  -0.41797   0.00052 
 H                     2.0522    1.71556  -0.00094 
 C                     2.46411  -0.9926    0.00056 
 H                     2.56231  -1.61747   0.89361 
 H                     2.54474  -1.65258  -0.86844 
 H                     3.31212  -0.30565  -0.02124 
 
 ITRead=  0  0  0  0  0  0  0  0  0  0  0  0  0  0  0
 MicOpt= -1 -1 -1 -1 -1 -1 -1 -1 -1 -1 -1 -1 -1 -1 -1
 NAtoms=     15 NQM=       15 NQMF=       0 NMMI=      0 NMMIF=      0
                NMic=       0 NMicF=      0.
                    Isotopes and Nuclear Properties:
 (Nuclear quadrupole moments (NQMom) in fm**2, nuclear magnetic moments (NMagM)
  in nuclear magnetons)

  Atom         1           2           3           4           5           6           7           8           9          10
 IAtWgt=          12          12          12          12          12          12           1           1          16           1
 AtmWgt=  12.0000000  12.0000000  12.0000000  12.0000000  12.0000000  12.0000000   1.0078250   1.0078250  15.9949146   1.0078250
 NucSpn=           0           0           0           0           0           0           1           1           0           1
 AtZEff=   0.0000000   0.0000000   0.0000000   0.0000000   0.0000000   0.0000000   0.0000000   0.0000000   0.0000000   0.0000000
 NQMom=    0.0000000   0.0000000   0.0000000   0.0000000   0.0000000   0.0000000   0.0000000   0.0000000   0.0000000   0.0000000
 NMagM=    0.0000000   0.0000000   0.0000000   0.0000000   0.0000000   0.0000000   2.7928460   2.7928460   0.0000000   2.7928460
 AtZNuc=   6.0000000   6.0000000   6.0000000   6.0000000   6.0000000   6.0000000   1.0000000   1.0000000   8.0000000   1.0000000

  Atom        11          12          13          14          15
 IAtWgt=           1          12           1           1           1
 AtmWgt=   1.0078250  12.0000000   1.0078250   1.0078250   1.0078250
 NucSpn=           1           0           1           1           1
 AtZEff=   0.0000000   0.0000000   0.0000000   0.0000000   0.0000000
 NQMom=    0.0000000   0.0000000   0.0000000   0.0000000   0.0000000
 NMagM=    2.7928460   0.0000000   2.7928460   2.7928460   2.7928460
 AtZNuc=   1.0000000   6.0000000   1.0000000   1.0000000   1.0000000
 Leave Link  101 at Wed Dec 03 16:55:42 2025, MaxMem=   104857600 cpu:               0.0 elap:               0.1
 (Enter D:\Gaussian\G16W\l202.exe)
                          Input orientation:                          
 ---------------------------------------------------------------------
 Center     Atomic      Atomic             Coordinates (Angstroms)
 Number     Number       Type             X           Y           Z
 ---------------------------------------------------------------------
      1          6           0        1.123969    1.154173   -0.000474
      2          6           0       -0.099039    1.842288    0.000093
      3          6           0       -1.241183    1.088421    0.000613
      4          6           0       -1.284209   -0.291664    0.000438
      5          6           0       -0.053550   -0.955960   -0.000542
      6          6           0        1.151023   -0.244050   -0.000866
      7          1           0       -0.126650    2.926554   -0.000056
      8          1           0       -0.060746   -2.041742   -0.001237
      9          8           0       -2.433715   -1.026292   -0.000144
     10          1           0       -3.180980   -0.417971    0.000519
     11          1           0        2.052201    1.715563   -0.000942
     12          6           0        2.464111   -0.992604    0.000562
     13          1           0        2.562312   -1.617468    0.893605
     14          1           0        2.544737   -1.652581   -0.868441
     15          1           0        3.312118   -0.305647   -0.021243
 ---------------------------------------------------------------------
                    Distance matrix (angstroms):
                    1          2          3          4          5
     1  C    0.000000
     2  C    1.403300   0.000000
     3  C    2.366066   1.368506   0.000000
     4  C    2.808873   2.440979   1.380756   0.000000
     5  C    2.416446   2.798618   2.364311   1.398503   0.000000
     6  C    1.398485   2.432172   2.738271   2.435698   1.399218
     7  H    2.169189   1.084618   2.149632   3.420069   3.883202
     8  H    3.408434   3.884219   3.345348   2.135331   1.085806
     9  O    4.172714   3.698576   2.427786   1.364200   2.381204
    10  H    4.583037   3.821928   2.456019   1.900972   3.173366
    11  H    1.084792   2.154970   3.352564   3.893661   3.401650
    12  C    2.530738   3.821826   4.249690   3.813295   2.517928
    13  H    3.248107   4.455453   4.752457   4.165480   2.842503
    14  H    3.263406   4.467439   4.754107   4.155463   2.826592
    15  H    2.630495   4.031138   4.761980   4.596399   3.427981
                    6          7          8          9         10
     6  C    0.000000
     7  H    3.418359   0.000000
     8  H    2.167967   4.968733   0.000000
     9  O    3.669094   4.576848   2.581109   0.000000
    10  H    4.335493   4.529324   3.517456   0.963566   0.000000
    11  H    2.156897   2.492768   4.310671   5.257491   5.651385
    12  C    1.511468   4.698068   2.734154   4.897942   5.674263
    13  H    2.162890   5.355117   2.803780   5.109654   5.934796
    14  H    2.163119   5.372046   2.773451   5.092265   5.921418
    15  H    2.162069   4.719396   3.793499   5.790887   6.494106
                   11         12         13         14         15
    11  H    0.000000
    12  C    2.739314   0.000000
    13  H    3.488484   1.094360   0.000000
    14  H    3.512768   1.094183   1.762483   0.000000
    15  H    2.381826   1.091559   1.766361   1.766593   0.000000
 Stoichiometry    C7H7O(1-)
 Framework group  C1[X(C7H7O)]
 Deg. of freedom    39
 Full point group                 C1      NOp   1
 Largest Abelian subgroup         C1      NOp   1
 Largest concise Abelian subgroup C1      NOp   1
                         Standard orientation:                         
 ---------------------------------------------------------------------
 Center     Atomic      Atomic             Coordinates (Angstroms)
 Number     Number       Type             X           Y           Z
 ---------------------------------------------------------------------
      1          6           0        1.123969    1.154173   -0.000474
      2          6           0       -0.099039    1.842288    0.000093
      3          6           0       -1.241183    1.088421    0.000613
      4          6           0       -1.284209   -0.291664    0.000438
      5          6           0       -0.053550   -0.955960   -0.000542
      6          6           0        1.151023   -0.244050   -0.000866
      7          1           0       -0.126651    2.926554   -0.000056
      8          1           0       -0.060746   -2.041742   -0.001237
      9          8           0       -2.433715   -1.026292   -0.000144
     10          1           0       -3.180980   -0.417971    0.000519
     11          1           0        2.052201    1.715563   -0.000942
     12          6           0        2.464111   -0.992604    0.000562
     13          1           0        2.562312   -1.617468    0.893605
     14          1           0        2.544737   -1.652581   -0.868441
     15          1           0        3.312118   -0.305646   -0.021243
 ---------------------------------------------------------------------
 Rotational constants (GHZ):           3.7395318           1.8243860           1.2355625
 Leave Link  202 at Wed Dec 03 16:55:43 2025, MaxMem=   104857600 cpu:               1.0 elap:               0.0
 (Enter D:\Gaussian\G16W\l301.exe)
 Standard basis: 6-31G(d) (6D, 7F)
 Ernie: Thresh=  0.10000D-02 Tol=  0.10000D-05 Strict=F.
 There are   134 symmetry adapted cartesian basis functions of A   symmetry.
 There are   134 symmetry adapted basis functions of A   symmetry.
   134 basis functions,   252 primitive gaussians,   134 cartesian basis functions
    29 alpha electrons       29 beta electrons
       nuclear repulsion energy       331.9229837224 Hartrees.
 IExCor=  402 DFT=T Ex+Corr=B3LYP ExCW=0 ScaHFX=  0.200000
 ScaDFX=  0.800000  0.720000  1.000000  0.810000 ScalE2=  1.000000  1.000000
 IRadAn=      5 IRanWt=     -1 IRanGd=            0 ICorTp=0 IEmpDi=  4
 NAtoms=   15 NActive=   15 NUniq=   15 SFac= 1.00D+00 NAtFMM=   60 NAOKFM=F Big=F
 Integral buffers will be    131072 words long.
 Raffenetti 2 integral format.
 Two-electron integral symmetry is turned on.
 Leave Link  301 at Wed Dec 03 16:55:43 2025, MaxMem=   104857600 cpu:               0.0 elap:               0.1
 (Enter D:\Gaussian\G16W\l302.exe)
 NPDir=0 NMtPBC=     1 NCelOv=     1 NCel=       1 NClECP=     1 NCelD=      1
         NCelK=      1 NCelE2=     1 NClLst=     1 CellRange=     0.0.
 One-electron integrals computed using PRISM.
 One-electron integral symmetry used in STVInt
 NBasis=   134 RedAO= T EigKep=  5.71D-04  NBF=   134
 NBsUse=   134 1.00D-06 EigRej= -1.00D+00 NBFU=   134
 Precomputing XC quadrature grid using
 IXCGrd= 4 IRadAn=           5 IRanWt=          -1 IRanGd=           0 AccXCQ= 0.00D+00.
 Generated NRdTot=       0 NPtTot=           0 NUsed=           0 NTot=          32
 NSgBfM=   134   134   134   134   134 MxSgAt=    15 MxSgA2=    15.
 Leave Link  302 at Wed Dec 03 16:55:43 2025, MaxMem=   104857600 cpu:               0.0 elap:               0.2
 (Enter D:\Gaussian\G16W\l303.exe)
 DipDrv:  MaxL=1.
 Leave Link  303 at Wed Dec 03 16:55:43 2025, MaxMem=   104857600 cpu:               0.0 elap:               0.1
 (Enter D:\Gaussian\G16W\l401.exe)
 ExpMin= 1.61D-01 ExpMax= 5.48D+03 ExpMxC= 8.25D+02 IAcc=3 IRadAn=         5 AccDes= 0.00D+00
 Harris functional with IExCor=  402 and IRadAn=       5 diagonalized for initial guess.
 HarFok:  IExCor=  402 AccDes= 0.00D+00 IRadAn=         5 IDoV= 1 UseB2=F ITyADJ=14
 ICtDFT=  3500011 ScaDFX=  1.000000  1.000000  1.000000  1.000000
 FoFCou: FMM=F IPFlag=           0 FMFlag=      100000 FMFlg1=           0
         NFxFlg=           0 DoJE=T BraDBF=F KetDBF=T FulRan=T
         wScrn=  0.000000 ICntrl=       500 IOpCl=  0 I1Cent=   200000004 NGrid=           0
         NMat0=    1 NMatS0=      1 NMatT0=    0 NMatD0=    1 NMtDS0=    0 NMtDT0=    0
 Petite list used in FoFCou.
 Harris En= -346.371626326548    
 JPrj=0 DoOrth=F DoCkMO=F.
 Leave Link  401 at Wed Dec 03 16:55:44 2025, MaxMem=   104857600 cpu:               1.0 elap:               0.7
 (Enter D:\Gaussian\G16W\l502.exe)
 Keep R1 ints in memory in canonical form, NReq=44746278.
 FoFCou: FMM=F IPFlag=           0 FMFlag=           0 FMFlg1=           0
         NFxFlg=           0 DoJE=F BraDBF=F KetDBF=F FulRan=T
         wScrn=  0.000000 ICntrl=       600 IOpCl=  0 I1Cent=           0 NGrid=           0
         NMat0=    1 NMatS0=   9045 NMatT0=    0 NMatD0=    1 NMtDS0=    0 NMtDT0=    0
 Symmetry not used in FoFCou.
 Two-electron integral symmetry not used.
 Closed shell SCF:
 Using DIIS extrapolation, IDIIS=  1040.
 NGot=   104857600 LenX=    63908728 LenY=    63890331
 Requested convergence on RMS density matrix=1.00D-07 within 128 cycles.
 Requested convergence on MAX density matrix=1.00D-05.
 Requested convergence on             energy=1.00D-05.
 No special actions if energy rises.
 Integral accuracy reduced to 1.0D-05 until final iterations.

 Cycle   1  Pass 0  IDiag  1:
 E= -345.753948076285    
 DIIS: error= 5.46D-02 at cycle   1 NSaved=   1.
 NSaved= 1 IEnMin= 1 EnMin= -345.753948076285     IErMin= 1 ErrMin= 5.46D-02
 ErrMax= 5.46D-02  0.00D+00 EMaxC= 1.00D-01 BMatC= 3.10D-01 BMatP= 3.10D-01
 IDIUse=3 WtCom= 4.54D-01 WtEn= 5.46D-01
 Coeff-Com:  0.100D+01
 Coeff-En:   0.100D+01
 Coeff:      0.100D+01
 Gap=     0.078 Goal=   None    Shift=    0.000
 GapD=    0.078 DampG=0.500 DampE=0.500 DampFc=0.2500 IDamp=-1.
 Damping current iteration by 2.50D-01
 RMSDP=3.29D-02 MaxDP=9.15D-01              OVMax= 6.34D-01

 Cycle   2  Pass 0  IDiag  1:
 E= -345.872249738844     Delta-E=       -0.118301662559 Rises=F Damp=T
 DIIS: error= 2.62D-02 at cycle   2 NSaved=   2.
 NSaved= 2 IEnMin= 2 EnMin= -345.872249738844     IErMin= 2 ErrMin= 2.62D-02
 ErrMax= 2.62D-02  0.00D+00 EMaxC= 1.00D-01 BMatC= 7.03D-02 BMatP= 3.10D-01
 IDIUse=3 WtCom= 7.38D-01 WtEn= 2.62D-01
 Coeff-Com: -0.695D+00 0.169D+01
 Coeff-En:   0.000D+00 0.100D+01
 Coeff:     -0.513D+00 0.151D+01
 Gap=     0.146 Goal=   None    Shift=    0.000
 RMSDP=6.40D-03 MaxDP=1.67D-01 DE=-1.18D-01 OVMax= 5.55D-01

 Cycle   3  Pass 0  IDiag  1:
 E= -346.055876453096     Delta-E=       -0.183626714252 Rises=F Damp=F
 DIIS: error= 1.85D-02 at cycle   3 NSaved=   3.
 NSaved= 3 IEnMin= 3 EnMin= -346.055876453096     IErMin= 3 ErrMin= 1.85D-02
 ErrMax= 1.85D-02  0.00D+00 EMaxC= 1.00D-01 BMatC= 5.23D-02 BMatP= 7.03D-02
 IDIUse=3 WtCom= 8.15D-01 WtEn= 1.85D-01
 Coeff-Com: -0.451D+00 0.107D+01 0.377D+00
 Coeff-En:   0.000D+00 0.000D+00 0.100D+01
 Coeff:     -0.367D+00 0.875D+00 0.492D+00
 Gap=     0.132 Goal=   None    Shift=    0.000
 RMSDP=2.83D-03 MaxDP=5.75D-02 DE=-1.84D-01 OVMax= 1.18D-01

 Cycle   4  Pass 0  IDiag  1:
 E= -346.102325052254     Delta-E=       -0.046448599158 Rises=F Damp=F
 DIIS: error= 6.19D-03 at cycle   4 NSaved=   4.
 NSaved= 4 IEnMin= 4 EnMin= -346.102325052254     IErMin= 4 ErrMin= 6.19D-03
 ErrMax= 6.19D-03  0.00D+00 EMaxC= 1.00D-01 BMatC= 7.58D-03 BMatP= 5.23D-02
 IDIUse=3 WtCom= 9.38D-01 WtEn= 6.19D-02
 Coeff-Com: -0.114D+00 0.227D+00 0.274D+00 0.612D+00
 Coeff-En:   0.000D+00 0.000D+00 0.116D+00 0.884D+00
 Coeff:     -0.107D+00 0.213D+00 0.264D+00 0.629D+00
 Gap=     0.145 Goal=   None    Shift=    0.000
 RMSDP=8.83D-04 MaxDP=1.67D-02 DE=-4.64D-02 OVMax= 3.11D-02

 Cycle   5  Pass 0  IDiag  1:
 E= -346.108661145814     Delta-E=       -0.006336093560 Rises=F Damp=F
 DIIS: error= 1.90D-03 at cycle   5 NSaved=   5.
 NSaved= 5 IEnMin= 5 EnMin= -346.108661145814     IErMin= 5 ErrMin= 1.90D-03
 ErrMax= 1.90D-03  0.00D+00 EMaxC= 1.00D-01 BMatC= 4.81D-04 BMatP= 7.58D-03
 IDIUse=3 WtCom= 9.81D-01 WtEn= 1.90D-02
 Coeff-Com: -0.447D-01 0.707D-01 0.912D-01 0.300D+00 0.583D+00
 Coeff-En:   0.000D+00 0.000D+00 0.000D+00 0.000D+00 0.100D+01
 Coeff:     -0.438D-01 0.693D-01 0.894D-01 0.294D+00 0.591D+00
 Gap=     0.143 Goal=   None    Shift=    0.000
 RMSDP=2.44D-04 MaxDP=5.47D-03 DE=-6.34D-03 OVMax= 1.19D-02

 Cycle   6  Pass 0  IDiag  1:
 E= -346.109102690651     Delta-E=       -0.000441544836 Rises=F Damp=F
 DIIS: error= 7.21D-04 at cycle   6 NSaved=   6.
 NSaved= 6 IEnMin= 6 EnMin= -346.109102690651     IErMin= 6 ErrMin= 7.21D-04
 ErrMax= 7.21D-04  0.00D+00 EMaxC= 1.00D-01 BMatC= 8.78D-05 BMatP= 4.81D-04
 IDIUse=3 WtCom= 9.93D-01 WtEn= 7.21D-03
 Coeff-Com: -0.130D-01 0.138D-01 0.774D-02 0.704D-01 0.356D+00 0.565D+00
 Coeff-En:   0.000D+00 0.000D+00 0.000D+00 0.000D+00 0.126D+00 0.874D+00
 Coeff:     -0.129D-01 0.137D-01 0.768D-02 0.699D-01 0.354D+00 0.567D+00
 Gap=     0.143 Goal=   None    Shift=    0.000
 RMSDP=9.30D-05 MaxDP=1.67D-03 DE=-4.42D-04 OVMax= 4.36D-03

 Cycle   7  Pass 0  IDiag  1:
 E= -346.109188515121     Delta-E=       -0.000085824470 Rises=F Damp=F
 DIIS: error= 1.41D-04 at cycle   7 NSaved=   7.
 NSaved= 7 IEnMin= 7 EnMin= -346.109188515121     IErMin= 7 ErrMin= 1.41D-04
 ErrMax= 1.41D-04  0.00D+00 EMaxC= 1.00D-01 BMatC= 5.58D-06 BMatP= 8.78D-05
 IDIUse=3 WtCom= 9.99D-01 WtEn= 1.41D-03
 Coeff-Com: -0.563D-02 0.536D-02-0.294D-02 0.157D-01 0.152D+00 0.304D+00
 Coeff-Com:  0.532D+00
 Coeff-En:   0.000D+00 0.000D+00 0.000D+00 0.000D+00 0.000D+00 0.000D+00
 Coeff-En:   0.100D+01
 Coeff:     -0.562D-02 0.535D-02-0.293D-02 0.157D-01 0.152D+00 0.304D+00
 Coeff:      0.532D+00
 Gap=     0.143 Goal=   None    Shift=    0.000
 RMSDP=2.31D-05 MaxDP=3.30D-04 DE=-8.58D-05 OVMax= 8.95D-04

 Cycle   8  Pass 0  IDiag  1:
 E= -346.109193822189     Delta-E=       -0.000005307068 Rises=F Damp=F
 DIIS: error= 7.31D-05 at cycle   8 NSaved=   8.
 NSaved= 8 IEnMin= 8 EnMin= -346.109193822189     IErMin= 8 ErrMin= 7.31D-05
 ErrMax= 7.31D-05  0.00D+00 EMaxC= 1.00D-01 BMatC= 4.59D-07 BMatP= 5.58D-06
 IDIUse=1 WtCom= 1.00D+00 WtEn= 0.00D+00
 Coeff-Com: -0.129D-02 0.109D-02-0.352D-02-0.363D-02 0.234D-01 0.661D-01
 Coeff-Com:  0.243D+00 0.675D+00
 Coeff:     -0.129D-02 0.109D-02-0.352D-02-0.363D-02 0.234D-01 0.661D-01
 Coeff:      0.243D+00 0.675D+00
 Gap=     0.143 Goal=   None    Shift=    0.000
 RMSDP=6.97D-06 MaxDP=1.12D-04 DE=-5.31D-06 OVMax= 2.82D-04

 Initial convergence to 1.0D-05 achieved.  Increase integral accuracy.
 Cycle   9  Pass 1  IDiag  1:
 E= -346.109185041825     Delta-E=        0.000008780364 Rises=F Damp=F
 DIIS: error= 2.57D-05 at cycle   1 NSaved=   1.
 NSaved= 1 IEnMin= 1 EnMin= -346.109185041825     IErMin= 1 ErrMin= 2.57D-05
 ErrMax= 2.57D-05  0.00D+00 EMaxC= 1.00D-01 BMatC= 8.06D-08 BMatP= 8.06D-08
 IDIUse=1 WtCom= 1.00D+00 WtEn= 0.00D+00
 Coeff-Com:  0.100D+01
 Coeff:      0.100D+01
 Gap=     0.143 Goal=   None    Shift=    0.000
 RMSDP=6.97D-06 MaxDP=1.12D-04 DE= 8.78D-06 OVMax= 4.28D-04

 Cycle  10  Pass 1  IDiag  1:
 E= -346.109184791746     Delta-E=        0.000000250079 Rises=F Damp=F
 DIIS: error= 4.78D-05 at cycle   2 NSaved=   2.
 NSaved= 2 IEnMin= 1 EnMin= -346.109185041825     IErMin= 1 ErrMin= 2.57D-05
 ErrMax= 4.78D-05  0.00D+00 EMaxC= 1.00D-01 BMatC= 3.17D-07 BMatP= 8.06D-08
 IDIUse=1 WtCom= 1.00D+00 WtEn= 0.00D+00
 Coeff-Com:  0.667D+00 0.333D+00
 Coeff:      0.667D+00 0.333D+00
 Gap=     0.143 Goal=   None    Shift=    0.000
 RMSDP=5.35D-06 MaxDP=1.02D-04 DE= 2.50D-07 OVMax= 2.78D-04

 Cycle  11  Pass 1  IDiag  1:
 E= -346.109185138191     Delta-E=       -0.000000346445 Rises=F Damp=F
 DIIS: error= 2.83D-06 at cycle   3 NSaved=   3.
 NSaved= 3 IEnMin= 3 EnMin= -346.109185138191     IErMin= 3 ErrMin= 2.83D-06
 ErrMax= 2.83D-06  0.00D+00 EMaxC= 1.00D-01 BMatC= 1.43D-09 BMatP= 8.06D-08
 IDIUse=1 WtCom= 1.00D+00 WtEn= 0.00D+00
 Coeff-Com:  0.269D+00 0.138D+00 0.594D+00
 Coeff:      0.269D+00 0.138D+00 0.594D+00
 Gap=     0.143 Goal=   None    Shift=    0.000
 RMSDP=6.71D-07 MaxDP=9.43D-06 DE=-3.46D-07 OVMax= 2.04D-05

 Cycle  12  Pass 1  IDiag  1:
 E= -346.109185139363     Delta-E=       -0.000000001172 Rises=F Damp=F
 DIIS: error= 1.75D-06 at cycle   4 NSaved=   4.
 NSaved= 4 IEnMin= 4 EnMin= -346.109185139363     IErMin= 4 ErrMin= 1.75D-06
 ErrMax= 1.75D-06  0.00D+00 EMaxC= 1.00D-01 BMatC= 4.29D-10 BMatP= 1.43D-09
 IDIUse=1 WtCom= 1.00D+00 WtEn= 0.00D+00
 Coeff-Com:  0.166D-01 0.772D-02 0.347D+00 0.629D+00
 Coeff:      0.166D-01 0.772D-02 0.347D+00 0.629D+00
 Gap=     0.143 Goal=   None    Shift=    0.000
 RMSDP=2.32D-07 MaxDP=4.11D-06 DE=-1.17D-09 OVMax= 9.70D-06

 Cycle  13  Pass 1  IDiag  1:
 E= -346.109185139811     Delta-E=       -0.000000000448 Rises=F Damp=F
 DIIS: error= 4.08D-07 at cycle   5 NSaved=   5.
 NSaved= 5 IEnMin= 5 EnMin= -346.109185139811     IErMin= 5 ErrMin= 4.08D-07
 ErrMax= 4.08D-07  0.00D+00 EMaxC= 1.00D-01 BMatC= 3.04D-11 BMatP= 4.29D-10
 IDIUse=1 WtCom= 1.00D+00 WtEn= 0.00D+00
 Coeff-Com: -0.191D-01-0.967D-02 0.114D+00 0.298D+00 0.617D+00
 Coeff:     -0.191D-01-0.967D-02 0.114D+00 0.298D+00 0.617D+00
 Gap=     0.143 Goal=   None    Shift=    0.000
 RMSDP=6.77D-08 MaxDP=1.06D-06 DE=-4.48D-10 OVMax= 3.58D-06

 SCF Done:  E(RB3LYP) =  -346.109185140     A.U. after   13 cycles
            NFock= 13  Conv=0.68D-07     -V/T= 2.0083
 KE= 3.432587609389D+02 PE=-1.480272492699D+03 EE= 4.589815628982D+02
 Leave Link  502 at Wed Dec 03 16:55:53 2025, MaxMem=   104857600 cpu:               9.0 elap:               9.0
 (Enter D:\Gaussian\G16W\l601.exe)
 Copying SCF densities to generalized density rwf, IOpCl= 0 IROHF=0.

 **********************************************************************

            Population analysis using the SCF density.

 **********************************************************************

 Orbital symmetries:
       Occupied  (A) (A) (A) (A) (A) (A) (A) (A) (A) (A) (A) (A)
                 (A) (A) (A) (A) (A) (A) (A) (A) (A) (A) (A) (A)
                 (A) (A) (A) (A) (A)
       Virtual   (A) (A) (A) (A) (A) (A) (A) (A) (A) (A) (A) (A)
                 (A) (A) (A) (A) (A) (A) (A) (A) (A) (A) (A) (A)
                 (A) (A) (A) (A) (A) (A) (A) (A) (A) (A) (A) (A)
                 (A) (A) (A) (A) (A) (A) (A) (A) (A) (A) (A) (A)
                 (A) (A) (A) (A) (A) (A) (A) (A) (A) (A) (A) (A)
                 (A) (A) (A) (A) (A) (A) (A) (A) (A) (A) (A) (A)
                 (A) (A) (A) (A) (A) (A) (A) (A) (A) (A) (A) (A)
                 (A) (A) (A) (A) (A) (A) (A) (A) (A) (A) (A) (A)
                 (A) (A) (A) (A) (A) (A) (A) (A) (A)
 The electronic state is 1-A.
 Alpha  occ. eigenvalues --  -18.97137 -10.03245 -10.02401  -9.99979  -9.98349
 Alpha  occ. eigenvalues --   -9.98329  -9.97165  -9.89869  -0.85300  -0.64671
 Alpha  occ. eigenvalues --   -0.57226  -0.53462  -0.47928  -0.40449  -0.38858
 Alpha  occ. eigenvalues --   -0.31672  -0.28101  -0.27163  -0.26611  -0.23512
 Alpha  occ. eigenvalues --   -0.21897  -0.19585  -0.18681  -0.18056  -0.13694
 Alpha  occ. eigenvalues --   -0.12733  -0.03583  -0.00709   0.06448
 Alpha virt. eigenvalues --    0.20763   0.22422   0.25144   0.26977   0.28692
 Alpha virt. eigenvalues --    0.31082   0.31871   0.32738   0.35487   0.40170
 Alpha virt. eigenvalues --    0.40193   0.45714   0.50536   0.53109   0.53663
 Alpha virt. eigenvalues --    0.58072   0.66271   0.69267   0.69374   0.72889
 Alpha virt. eigenvalues --    0.74533   0.75704   0.77732   0.79411   0.79995
 Alpha virt. eigenvalues --    0.83462   0.83601   0.85294   0.87098   0.87852
 Alpha virt. eigenvalues --    0.88369   0.90687   0.92317   0.93275   0.98260
 Alpha virt. eigenvalues --    0.98544   1.02801   1.03144   1.04389   1.06645
 Alpha virt. eigenvalues --    1.08019   1.10260   1.12736   1.15319   1.15542
 Alpha virt. eigenvalues --    1.17322   1.25010   1.27418   1.30343   1.35414
 Alpha virt. eigenvalues --    1.39789   1.43607   1.46624   1.51624   1.55791
 Alpha virt. eigenvalues --    1.57600   1.58831   1.62219   1.66795   1.70552
 Alpha virt. eigenvalues --    1.76302   1.88697   1.93459   1.94431   1.99733
 Alpha virt. eigenvalues --    2.01836   2.02918   2.05598   2.07213   2.07579
 Alpha virt. eigenvalues --    2.16391   2.16704   2.19527   2.29236   2.31678
 Alpha virt. eigenvalues --    2.32162   2.35846   2.43476   2.44392   2.49131
 Alpha virt. eigenvalues --    2.49971   2.53577   2.54134   2.59890   2.61907
 Alpha virt. eigenvalues --    2.72746   2.73759   2.80100   2.89015   2.89868
 Alpha virt. eigenvalues --    2.97620   3.01737   3.03620   3.06313   3.15230
 Alpha virt. eigenvalues --    3.36507   3.61856   4.13845   4.29102   4.33561
 Alpha virt. eigenvalues --    4.38360   4.40966   4.58234   4.64924   4.96641
          Condensed to atoms (all electrons):
               1          2          3          4          5          6
     1  C    5.084678   0.523616  -0.032352  -0.039670  -0.027008   0.548517
     2  C    0.523616   4.977678   0.520272  -0.030299  -0.048278   0.005997
     3  C   -0.032352   0.520272   5.468369   0.536571  -0.033217  -0.150364
     4  C   -0.039670  -0.030299   0.536571   4.540438   0.559518   0.013478
     5  C   -0.027008  -0.048278  -0.033217   0.559518   5.151439   0.465894
     6  C    0.548517   0.005997  -0.150364   0.013478   0.465894   4.878432
     7  H   -0.079127   0.321089  -0.035206   0.001496   0.002299   0.001550
     8  H    0.011296  -0.001790   0.021595  -0.049874   0.277114  -0.112603
     9  O    0.000807   0.002522  -0.067588   0.233327  -0.056714   0.000153
    10  H   -0.000281   0.002740   0.040997  -0.026727   0.014713   0.001333
    11  H    0.267673  -0.063144   0.016956  -0.000868   0.014388  -0.073080
    12  C   -0.060049   0.008256   0.000458   0.007078  -0.084204   0.330823
    13  H    0.000400  -0.000150   0.000123  -0.000021  -0.000583  -0.031853
    14  H    0.000693  -0.000155   0.000128  -0.000017  -0.000517  -0.031748
    15  H   -0.002762  -0.000210   0.000195  -0.000173   0.005188  -0.027236
               7          8          9         10         11         12
     1  C   -0.079127   0.011296   0.000807  -0.000281   0.267673  -0.060049
     2  C    0.321089  -0.001790   0.002522   0.002740  -0.063144   0.008256
     3  C   -0.035206   0.021595  -0.067588   0.040997   0.016956   0.000458
     4  C    0.001496  -0.049874   0.233327  -0.026727  -0.000868   0.007078
     5  C    0.002299   0.277114  -0.056714   0.014713   0.014388  -0.084204
     6  C    0.001550  -0.112603   0.000153   0.001333  -0.073080   0.330823
     7  H    0.766269   0.000058  -0.000017  -0.000162   0.000185  -0.000281
     8  H    0.000058   0.846024   0.001030  -0.003227   0.000103  -0.012339
     9  O   -0.000017   0.001030   8.403942   0.152766   0.000008  -0.000063
    10  H   -0.000162  -0.003227   0.152766   0.508207  -0.000010   0.000004
    11  H    0.000185   0.000103   0.000008  -0.000010   0.836464  -0.019573
    12  C   -0.000281  -0.012339  -0.000063   0.000004  -0.019573   5.308510
    13  H    0.000005   0.003413  -0.000001   0.000000   0.000421   0.346950
    14  H    0.000005   0.003797  -0.000001   0.000000   0.000411   0.346844
    15  H    0.000005   0.000379   0.000000   0.000000   0.013006   0.342976
              13         14         15
     1  C    0.000400   0.000693  -0.002762
     2  C   -0.000150  -0.000155  -0.000210
     3  C    0.000123   0.000128   0.000195
     4  C   -0.000021  -0.000017  -0.000173
     5  C   -0.000583  -0.000517   0.005188
     6  C   -0.031853  -0.031748  -0.027236
     7  H    0.000005   0.000005   0.000005
     8  H    0.003413   0.003797   0.000379
     9  O   -0.000001  -0.000001   0.000000
    10  H    0.000000   0.000000   0.000000
    11  H    0.000421   0.000411   0.013006
    12  C    0.346950   0.346844   0.342976
    13  H    0.647415  -0.046370  -0.032923
    14  H   -0.046370   0.646219  -0.032423
    15  H   -0.032923  -0.032423   0.623208
 Mulliken charges:
               1
     1  C   -0.196430
     2  C   -0.218141
     3  C   -0.286937
     4  C    0.255745
     5  C   -0.240030
     6  C    0.180708
     7  H    0.021832
     8  H    0.015025
     9  O   -0.670170
    10  H    0.309648
    11  H    0.007061
    12  C   -0.515390
    13  H    0.113175
    14  H    0.113136
    15  H    0.110770
 Sum of Mulliken charges =  -1.00000
 Mulliken charges with hydrogens summed into heavy atoms:
               1
     1  C   -0.189369
     2  C   -0.196310
     3  C   -0.286937
     4  C    0.255745
     5  C   -0.225005
     6  C    0.180708
     9  O   -0.360522
    12  C   -0.178309
 Electronic spatial extent (au):  <R**2>=            970.4106
 Charge=             -1.0000 electrons
 Dipole moment (field-independent basis, Debye):
    X=              3.0470    Y=             -2.0623    Z=              0.0015  Tot=              3.6793
 Quadrupole moment (field-independent basis, Debye-Ang):
   XX=            -60.3363   YY=            -60.0718   ZZ=            -51.6651
   XY=              1.8184   XZ=             -0.0030   YZ=             -0.0007
 Traceless Quadrupole moment (field-independent basis, Debye-Ang):
   XX=             -2.9785   YY=             -2.7141   ZZ=              5.6927
   XY=              1.8184   XZ=             -0.0030   YZ=             -0.0007
 Octapole moment (field-independent basis, Debye-Ang**2):
  XXX=            -13.8769  YYY=            -14.3214  ZZZ=              0.0228  XYY=              9.5968
  XXY=             -2.5515  XXZ=             -0.0126  XZZ=             -2.9858  YZZ=             -4.5335
  YYZ=             -0.0217  XYZ=              0.0063
 Hexadecapole moment (field-independent basis, Debye-Ang**3):
 XXXX=           -817.2412 YYYY=           -483.7899 ZZZZ=            -59.8203 XXXY=             29.7389
 XXXZ=             -0.1205 YYYX=             19.5868 YYYZ=              0.0611 ZZZX=              0.0601
 ZZZY=             -0.0241 XXYY=           -255.4567 XXZZ=           -149.8933 YYZZ=            -90.2287
 XXYZ=             -0.0248 YYXZ=             -0.0344 ZZXY=              3.7032
 N-N= 3.319229837224D+02 E-N=-1.480272452652D+03  KE= 3.432587609389D+02
 No NMR shielding tensors so no spin-rotation constants.
 Leave Link  601 at Wed Dec 03 16:55:53 2025, MaxMem=   104857600 cpu:               0.0 elap:               0.1
 (Enter D:\Gaussian\G16W\l9999.exe)
 1|1|UNPC-PC-20250526LCFF|SP|RB3LYP|6-31G(d)|C7H7O1(1-)|ADMINISTRATOR|0
 3-Dec-2025|0||#P B3LYP/6-31G* SCF=conver=7 out=wfn||Generated by Multi
 wfn (http://sobereva.com/multiwfn)||-1,1|C,0,1.123969,1.154173,-0.0004
 74|C,0,-0.099039,1.842288,0.000093|C,0,-1.241183,1.088421,0.000613|C,0
 ,-1.284209,-0.291664,0.000438|C,0,-0.05355,-0.95596,-0.000542|C,0,1.15
 1023,-0.24405,-0.000866|H,0,-0.12665,2.926554,-0.000056|H,0,-0.060746,
 -2.041742,-0.001237|O,0,-2.433715,-1.026292,-0.000144|H,0,-3.18098,-0.
 417971,0.000519|H,0,2.052201,1.715563,-0.000942|C,0,2.464111,-0.992604
 ,0.000562|H,0,2.562312,-1.617468,0.893605|H,0,2.544737,-1.652581,-0.86
 8441|H,0,3.312118,-0.305647,-0.021243||Version=EM64W-G16RevA.03|State=
 1-A|HF=-346.1091851|RMSD=6.766e-008|Dipole=1.1987811,-0.8113779,0.0005
 769|Quadrupole=-2.2144662,-2.0178807,4.2323469,1.351957,-0.0022297,-0.
 0005058|PG=C01 [X(C7H7O1)]||@

 Writing a WFN file to "N+1.wfn"


 A MAN SHOULD NEVER BE ASHAMED TO OWN HE HAS BEEN IN THE WRONG
 WHICH IS BUT SAYING IN OTHER WORDS,
 THAT HE IS WISER TODAY THAN HE WAS YESTERDAY.

                          -- JONATHAN SWIFT
 Job cpu time:       0 days  0 hours  0 minutes 11.0 seconds.
 Elapsed time:       0 days  0 hours  0 minutes 10.4 seconds.
 File lengths (MBytes):  RWF=     10 Int=      0 D2E=      0 Chk=      2 Scr=      1
 Normal termination of Gaussian 16 at Wed Dec 03 16:55:53 2025.
