 Generated by Multiwfn (http://sobereva.com/multiwfn)
GAUSSIAN             28 MOL ORBITALS    252 PRIMITIVES       15 NUCLEI
  C    1    (CENTRE  1)   2.12399312  2.18107133 -0.00089563  CHARGE =  6.0
  C    2    (CENTRE  2)  -0.18715725  3.48141987  0.00017584  CHARGE =  6.0
  C    3    (CENTRE  3)  -2.34549639  2.05681737  0.00115850  CHARGE =  6.0
  C    4    (CENTRE  4)  -2.42680335 -0.55116532  0.00082780  CHARGE =  6.0
  C    5    (CENTRE  5)  -0.10119469 -1.80650247 -0.00102413  CHARGE =  6.0
  C    6    (CENTRE  6)   2.17511817 -0.46118720 -0.00163640  CHARGE =  6.0
  H    7    (CENTRE  7)  -0.23933479  5.53038565 -0.00010573  CHARGE =  1.0
  H    8    (CENTRE  8)  -0.11479285 -3.85833308 -0.00233749  CHARGE =  1.0
  O    9    (CENTRE  9)  -4.59905465 -1.93941137 -0.00027202  CHARGE =  8.0
  H   10    (CENTRE 10)  -6.01118102 -0.78985150  0.00098087  CHARGE =  1.0
  H   11    (CENTRE 11)   3.87809722  3.24194494 -0.00178002  CHARGE =  1.0
  C   12    (CENTRE 12)   4.65649508 -1.87574887  0.00106213  CHARGE =  6.0
  H   13    (CENTRE 13)   4.84206826 -3.05657067  1.68866881  CHARGE =  1.0
  H   14    (CENTRE 14)   4.80885633 -3.12292463 -1.64111555  CHARGE =  1.0
  H   15    (CENTRE 15)   6.25899587 -0.57758804 -0.04014335  CHARGE =  1.0
CENTRE ASSIGNMENTS    1  1  1  1  1  1  1  1  1  1  1  1  1  1  1  1  1  1  1  1
CENTRE ASSIGNMENTS    1  1  1  1  1  1  1  1  2  2  2  2  2  2  2  2  2  2  2  2
CENTRE ASSIGNMENTS    2  2  2  2  2  2  2  2  2  2  2  2  2  2  2  2  3  3  3  3
CENTRE ASSIGNMENTS    3  3  3  3  3  3  3  3  3  3  3  3  3  3  3  3  3  3  3  3
CENTRE ASSIGNMENTS    3  3  3  3  4  4  4  4  4  4  4  4  4  4  4  4  4  4  4  4
CENTRE ASSIGNMENTS    4  4  4  4  4  4  4  4  4  4  4  4  5  5  5  5  5  5  5  5
CENTRE ASSIGNMENTS    5  5  5  5  5  5  5  5  5  5  5  5  5  5  5  5  5  5  5  5
CENTRE ASSIGNMENTS    6  6  6  6  6  6  6  6  6  6  6  6  6  6  6  6  6  6  6  6
CENTRE ASSIGNMENTS    6  6  6  6  6  6  6  6  7  7  7  7  8  8  8  8  9  9  9  9
CENTRE ASSIGNMENTS    9  9  9  9  9  9  9  9  9  9  9  9  9  9  9  9  9  9  9  9
CENTRE ASSIGNMENTS    9  9  9  9 10 10 10 10 11 11 11 11 12 12 12 12 12 12 12 12
CENTRE ASSIGNMENTS   12 12 12 12 12 12 12 12 12 12 12 12 12 12 12 12 12 12 12 12
CENTRE ASSIGNMENTS   13 13 13 13 14 14 14 14 15 15 15 15
TYPE ASSIGNMENTS      1  1  1  1  1  1  1  1  1  2  2  2  3  3  3  4  4  4  1  2
TYPE ASSIGNMENTS      3  4  5  6  7  8  9 10  1  1  1  1  1  1  1  1  1  2  2  2
TYPE ASSIGNMENTS      3  3  3  4  4  4  1  2  3  4  5  6  7  8  9 10  1  1  1  1
TYPE ASSIGNMENTS      1  1  1  1  1  2  2  2  3  3  3  4  4  4  1  2  3  4  5  6
TYPE ASSIGNMENTS      7  8  9 10  1  1  1  1  1  1  1  1  1  2  2  2  3  3  3  4
TYPE ASSIGNMENTS      4  4  1  2  3  4  5  6  7  8  9 10  1  1  1  1  1  1  1  1
TYPE ASSIGNMENTS      1  2  2  2  3  3  3  4  4  4  1  2  3  4  5  6  7  8  9 10
TYPE ASSIGNMENTS      1  1  1  1  1  1  1  1  1  2  2  2  3  3  3  4  4  4  1  2
TYPE ASSIGNMENTS      3  4  5  6  7  8  9 10  1  1  1  1  1  1  1  1  1  1  1  1
TYPE ASSIGNMENTS      1  1  1  1  1  2  2  2  3  3  3  4  4  4  1  2  3  4  5  6
TYPE ASSIGNMENTS      7  8  9 10  1  1  1  1  1  1  1  1  1  1  1  1  1  1  1  1
TYPE ASSIGNMENTS      1  2  2  2  3  3  3  4  4  4  1  2  3  4  5  6  7  8  9 10
TYPE ASSIGNMENTS      1  1  1  1  1  1  1  1  1  1  1  1
EXPONENTS  0.3047525D+04 0.4573695D+03 0.1039487D+03 0.2921016D+02 0.9286663D+01
EXPONENTS  0.3163927D+01 0.7868272D+01 0.1881289D+01 0.5442493D+00 0.7868272D+01
EXPONENTS  0.1881289D+01 0.5442493D+00 0.7868272D+01 0.1881289D+01 0.5442493D+00
EXPONENTS  0.7868272D+01 0.1881289D+01 0.5442493D+00 0.1687145D+00 0.1687145D+00
EXPONENTS  0.1687145D+00 0.1687145D+00 0.8000000D+00 0.8000000D+00 0.8000000D+00
EXPONENTS  0.8000000D+00 0.8000000D+00 0.8000000D+00 0.3047525D+04 0.4573695D+03
EXPONENTS  0.1039487D+03 0.2921016D+02 0.9286663D+01 0.3163927D+01 0.7868272D+01
EXPONENTS  0.1881289D+01 0.5442493D+00 0.7868272D+01 0.1881289D+01 0.5442493D+00
EXPONENTS  0.7868272D+01 0.1881289D+01 0.5442493D+00 0.7868272D+01 0.1881289D+01
EXPONENTS  0.5442493D+00 0.1687145D+00 0.1687145D+00 0.1687145D+00 0.1687145D+00
EXPONENTS  0.8000000D+00 0.8000000D+00 0.8000000D+00 0.8000000D+00 0.8000000D+00
EXPONENTS  0.8000000D+00 0.3047525D+04 0.4573695D+03 0.1039487D+03 0.2921016D+02
EXPONENTS  0.9286663D+01 0.3163927D+01 0.7868272D+01 0.1881289D+01 0.5442493D+00
EXPONENTS  0.7868272D+01 0.1881289D+01 0.5442493D+00 0.7868272D+01 0.1881289D+01
EXPONENTS  0.5442493D+00 0.7868272D+01 0.1881289D+01 0.5442493D+00 0.1687145D+00
EXPONENTS  0.1687145D+00 0.1687145D+00 0.1687145D+00 0.8000000D+00 0.8000000D+00
EXPONENTS  0.8000000D+00 0.8000000D+00 0.8000000D+00 0.8000000D+00 0.3047525D+04
EXPONENTS  0.4573695D+03 0.1039487D+03 0.2921016D+02 0.9286663D+01 0.3163927D+01
EXPONENTS  0.7868272D+01 0.1881289D+01 0.5442493D+00 0.7868272D+01 0.1881289D+01
EXPONENTS  0.5442493D+00 0.7868272D+01 0.1881289D+01 0.5442493D+00 0.7868272D+01
EXPONENTS  0.1881289D+01 0.5442493D+00 0.1687145D+00 0.1687145D+00 0.1687145D+00
EXPONENTS  0.1687145D+00 0.8000000D+00 0.8000000D+00 0.8000000D+00 0.8000000D+00
EXPONENTS  0.8000000D+00 0.8000000D+00 0.3047525D+04 0.4573695D+03 0.1039487D+03
EXPONENTS  0.2921016D+02 0.9286663D+01 0.3163927D+01 0.7868272D+01 0.1881289D+01
EXPONENTS  0.5442493D+00 0.7868272D+01 0.1881289D+01 0.5442493D+00 0.7868272D+01
EXPONENTS  0.1881289D+01 0.5442493D+00 0.7868272D+01 0.1881289D+01 0.5442493D+00
EXPONENTS  0.1687145D+00 0.1687145D+00 0.1687145D+00 0.1687145D+00 0.8000000D+00
EXPONENTS  0.8000000D+00 0.8000000D+00 0.8000000D+00 0.8000000D+00 0.8000000D+00
EXPONENTS  0.3047525D+04 0.4573695D+03 0.1039487D+03 0.2921016D+02 0.9286663D+01
EXPONENTS  0.3163927D+01 0.7868272D+01 0.1881289D+01 0.5442493D+00 0.7868272D+01
EXPONENTS  0.1881289D+01 0.5442493D+00 0.7868272D+01 0.1881289D+01 0.5442493D+00
EXPONENTS  0.7868272D+01 0.1881289D+01 0.5442493D+00 0.1687145D+00 0.1687145D+00
EXPONENTS  0.1687145D+00 0.1687145D+00 0.8000000D+00 0.8000000D+00 0.8000000D+00
EXPONENTS  0.8000000D+00 0.8000000D+00 0.8000000D+00 0.1873114D+02 0.2825394D+01
EXPONENTS  0.6401217D+00 0.1612778D+00 0.1873114D+02 0.2825394D+01 0.6401217D+00
EXPONENTS  0.1612778D+00 0.5484672D+04 0.8252349D+03 0.1880470D+03 0.5296450D+02
EXPONENTS  0.1689757D+02 0.5799635D+01 0.1553962D+02 0.3599934D+01 0.1013762D+01
EXPONENTS  0.1553962D+02 0.3599934D+01 0.1013762D+01 0.1553962D+02 0.3599934D+01
EXPONENTS  0.1013762D+01 0.1553962D+02 0.3599934D+01 0.1013762D+01 0.2700058D+00
EXPONENTS  0.2700058D+00 0.2700058D+00 0.2700058D+00 0.8000000D+00 0.8000000D+00
EXPONENTS  0.8000000D+00 0.8000000D+00 0.8000000D+00 0.8000000D+00 0.1873114D+02
EXPONENTS  0.2825394D+01 0.6401217D+00 0.1612778D+00 0.1873114D+02 0.2825394D+01
EXPONENTS  0.6401217D+00 0.1612778D+00 0.3047525D+04 0.4573695D+03 0.1039487D+03
EXPONENTS  0.2921016D+02 0.9286663D+01 0.3163927D+01 0.7868272D+01 0.1881289D+01
EXPONENTS  0.5442493D+00 0.7868272D+01 0.1881289D+01 0.5442493D+00 0.7868272D+01
EXPONENTS  0.1881289D+01 0.5442493D+00 0.7868272D+01 0.1881289D+01 0.5442493D+00
EXPONENTS  0.1687145D+00 0.1687145D+00 0.1687145D+00 0.1687145D+00 0.8000000D+00
EXPONENTS  0.8000000D+00 0.8000000D+00 0.8000000D+00 0.8000000D+00 0.8000000D+00
EXPONENTS  0.1873114D+02 0.2825394D+01 0.6401217D+00 0.1612778D+00 0.1873114D+02
EXPONENTS  0.2825394D+01 0.6401217D+00 0.1612778D+00 0.1873114D+02 0.2825394D+01
EXPONENTS  0.6401217D+00 0.1612778D+00
MO    1     MO 0.0        OCC NO =    2.0000000  ORB. ENERGY =  -19.383081
  0.73922858D-05  0.13637324D-04  0.22014869D-04  0.28656819D-04  0.24452915D-04
  0.84430040D-05 -0.28028009D-04 -0.12918084D-04  0.36223655D-04 -0.21929597D-04
 -0.16814224D-04 -0.83914763D-05 -0.37912102D-04 -0.29068595D-04 -0.14507266D-04
  0.45241002D-08  0.34687931D-08  0.17311709D-08 -0.14039312D-03  0.46162765D-04
  0.64096350D-04 -0.14168802D-08  0.61235732D-05 -0.12486385D-04  0.39298535D-04
  0.47956281D-04  0.67866366D-07 -0.83859634D-07 -0.37632092D-05 -0.69423862D-05
 -0.11207164D-04 -0.14588397D-04 -0.12448306D-04 -0.42981009D-05  0.22541563D-04
  0.10389386D-04 -0.29132922D-04 -0.71781754D-04 -0.55037696D-04 -0.27467668D-04
 -0.61463355D-04 -0.47126202D-04 -0.23519278D-04  0.91959811D-07  0.70508950D-07
  0.35188908D-07  0.29653001D-03 -0.63247014D-04 -0.10233460D-03  0.39830877D-07
  0.49348186D-04  0.24524328D-05 -0.58572776D-05  0.42303546D-04 -0.15293108D-06
 -0.36559345D-07  0.14329233D-04  0.26434636D-04  0.42673699D-04  0.55548477D-04
  0.47399616D-04  0.16365948D-04 -0.86976666D-04 -0.40087466D-04  0.11240944D-03
  0.30967181D-05  0.23743670D-05  0.11849755D-05  0.11719212D-03  0.89855485D-04
  0.44844185D-04  0.62291426D-07  0.47761115D-07  0.23836144D-07 -0.58243549D-03
 -0.20530829D-03  0.54422562D-04 -0.47479468D-08 -0.75866200D-04 -0.64233261D-04
  0.68585562D-04 -0.30809815D-04 -0.28349028D-07  0.14830477D-06 -0.22849446D-04
 -0.42152767D-04 -0.68047636D-04 -0.88577803D-04 -0.75583600D-04 -0.26097201D-04
 -0.80097077D-04 -0.36916670D-04  0.10351820D-03 -0.41043872D-03 -0.31469838D-03
 -0.15705655D-03 -0.38490690D-03 -0.29512220D-03 -0.14728666D-03 -0.32864165D-06
 -0.25198157D-06 -0.12575647D-06 -0.12148982D-03  0.44271278D-03  0.45131498D-03
  0.23094384D-06 -0.10866699D-03  0.14172509D-05 -0.92876078D-04 -0.96397861D-05
 -0.16600034D-06 -0.97608643D-07  0.93394100D-06  0.17229388D-05  0.27813574D-05
  0.36205009D-05  0.30893800D-05  0.10666887D-05 -0.37808804D-04 -0.17426043D-04
  0.48864444D-04 -0.31948074D-04 -0.24495756D-04 -0.12225099D-04  0.21239661D-04
  0.16285225D-04  0.81274686D-05  0.21901114D-07  0.16792385D-07  0.83805771D-08
 -0.62909063D-04 -0.31729746D-04 -0.18650412D-03 -0.12905551D-06 -0.61338585D-04
 -0.67126655D-04  0.11945380D-04  0.33177817D-04  0.54424725D-07 -0.27795962D-06
  0.38498891D-05  0.71022936D-05  0.11465304D-04  0.14924419D-04  0.12735034D-04
  0.43971012D-05 -0.51975963D-05 -0.23955674D-05  0.67174210D-05 -0.88040162D-04
 -0.67503612D-04 -0.33689034D-04 -0.45574418D-05 -0.34943573D-05 -0.17439292D-05
  0.14312917D-06  0.10974237D-06  0.54769133D-07  0.18106944D-03  0.15450348D-04
  0.35080755D-04 -0.33504489D-08  0.12642204D-04  0.38181591D-04  0.31289568D-04
  0.16584920D-05  0.60491824D-07 -0.61958387D-07  0.88832489D-06  0.15067672D-05
  0.17154011D-05  0.11701209D-04 -0.40464438D-05 -0.68635346D-05 -0.78138915D-05
 -0.10681878D-03  0.82564726D+00  0.15196317D+01  0.24590510D+01  0.32324913D+01
  0.27724890D+01  0.94796108D+00 -0.15846340D-01 -0.70706061D-02  0.20879594D-01
  0.71566613D-04  0.55138217D-04  0.24208647D-04  0.35285439D-02  0.27185529D-02
  0.11935911D-02  0.39976566D-05  0.30799789D-05  0.13522766D-05  0.37225808D-02
  0.31636378D-03  0.95481508D-04  0.12074712D-06 -0.90822111D-02 -0.92122652D-02
 -0.91416381D-02  0.99415059D-04  0.14783088D-06 -0.10997368D-06  0.89841453D-04
  0.15238811D-03  0.17348848D-03 -0.19137414D-03 -0.38129063D-05 -0.64674108D-05
 -0.73629186D-05 -0.21820263D-04  0.49123280D-05  0.90622859D-05  0.14629339D-04
  0.19043053D-04  0.16249472D-04  0.56105521D-05 -0.17950665D-04 -0.82734452D-05
  0.23199604D-04  0.92966031D-05  0.71280456D-05  0.35573943D-05 -0.74398519D-05
 -0.57044065D-05 -0.28468986D-05 -0.16785833D-06 -0.12870312D-06 -0.64231877D-07
 -0.60274922D-04  0.11330604D-04 -0.17531516D-04  0.13330133D-06  0.77106657D-05
  0.95228336D-06  0.19996148D-04  0.25541976D-04  0.15491962D-06  0.31038156D-06
  0.18312283D-05  0.31061098D-05  0.35361962D-05  0.24277739D-05  0.18005762D-05
  0.30541180D-05  0.34770054D-05  0.24824559D-05  0.35797309D-05  0.60719012D-05
  0.69126449D-05  0.77463550D-05
MO    2     MO 0.0        OCC NO =    2.0000000  ORB. ENERGY =  -10.518285
  0.39581434D-04  0.73020016D-04  0.11787695D-03  0.15344076D-03  0.13093128D-03
  0.45207424D-04 -0.74528765D-04 -0.34350240D-04  0.96321658D-04  0.46321731D-04
  0.35516565D-04  0.17725255D-04 -0.26323331D-04 -0.20183061D-04 -0.10072762D-04
  0.34392759D-07  0.26370186D-07  0.13160571D-07 -0.10559815D-02  0.46084858D-03
  0.25499939D-03 -0.13289427D-06  0.95212281D-04  0.24760296D-04  0.64443129D-04
 -0.53554418D-04 -0.14028195D-06 -0.16153859D-06  0.21838305D-02  0.40287409D-02
  0.65036370D-02  0.84658029D-02  0.72238850D-02  0.24942339D-02  0.28874954D-03
  0.13308440D-03 -0.37318254D-03  0.30411499D-03  0.23317609D-03  0.11637121D-03
  0.27447393D-03  0.21044920D-03  0.10502890D-03 -0.20147872D-06 -0.15448111D-06
 -0.77096899D-07  0.19313373D-02 -0.19776618D-03 -0.88799291D-03  0.73914168D-07
 -0.44581755D-03 -0.13538415D-03 -0.35822138D-03  0.10851680D-03  0.22769983D-07
 -0.53262559D-07  0.53246433D+00  0.98229271D+00  0.15857250D+01  0.20641428D+01
  0.17613368D+01  0.60814726D+00 -0.19689595D-01 -0.90749165D-02  0.25447013D-01
 -0.47823151D-03 -0.36667759D-03 -0.18299782D-03  0.73405023D-04  0.56282316D-04
  0.28088820D-04 -0.12197708D-05 -0.93524290D-06 -0.46675175D-06 -0.41303565D-02
 -0.71420805D-03  0.52899753D-03  0.49933600D-06 -0.10633443D-01 -0.10196553D-01
 -0.10401714D-01  0.72331157D-03  0.13560341D-06 -0.98723075D-07  0.87090937D-02
  0.16066577D-01  0.25936437D-01  0.33761535D-01  0.28808779D-01  0.99469791D-02
  0.45669617D-04  0.21049085D-04 -0.59023831D-04  0.13162535D-04  0.10092197D-04
  0.50367138D-05 -0.45991393D-03 -0.35263283D-03 -0.17598850D-03 -0.69310358D-07
 -0.53142787D-07 -0.26521975D-07  0.19341329D-02  0.52501384D-03  0.86032881D-03
 -0.68504294D-07 -0.50603286D-03 -0.57714367D-03 -0.50383329D-03  0.28989114D-03
 -0.25546641D-07 -0.21271332D-06  0.49824705D-04  0.91916852D-04  0.14838230D-03
  0.19314967D-03  0.16481496D-03  0.56906645D-04 -0.40019105D-04 -0.18444769D-04
  0.51721057D-04  0.32951483D-04  0.25265107D-04  0.12609059D-04 -0.28516602D-04
 -0.21864722D-04 -0.10912029D-04  0.82033180D-07  0.62897840D-07  0.31390430D-07
 -0.89624517D-03 -0.13517663D-03 -0.50839072D-03 -0.15167992D-06  0.11574675D-03
  0.35891710D-04  0.33290344D-04 -0.12359944D-03 -0.17923472D-06  0.15286140D-08
 -0.51571380D-04 -0.95139126D-04 -0.15358405D-03 -0.19992080D-03 -0.17059278D-03
 -0.58901587D-04  0.12906432D-03  0.59485628D-04 -0.16680391D-03  0.75260984D-04
  0.57705349D-04  0.28799014D-04 -0.29596069D-04 -0.22692389D-04 -0.11325092D-04
  0.60056315D-07  0.46047373D-07  0.22980866D-07  0.98112484D-03 -0.49871128D-03
  0.22697385D-03  0.18258469D-06  0.16563105D-04  0.34265906D-04 -0.11029215D-03
  0.29096149D-04 -0.31504199D-06  0.11375241D-06  0.15247796D-04  0.25863148D-04
  0.29444280D-04  0.25932465D-03 -0.28474917D-04 -0.48298849D-04 -0.54986533D-04
 -0.12402459D-03 -0.38898486D-04 -0.71593979D-04 -0.11585257D-03 -0.15229145D-03
 -0.13061949D-03 -0.44661023D-04  0.15572001D-03  0.69481963D-04 -0.20518117D-03
 -0.19627120D-03 -0.15121638D-03 -0.66392134D-04  0.52541851D-04  0.40480664D-04
  0.17773192D-04 -0.20255721D-06 -0.15605941D-06 -0.68518487D-07  0.43248451D-03
  0.16817985D-03 -0.38042715D-04  0.18333201D-06 -0.11497536D-03 -0.10314954D-03
 -0.15804823D-03  0.27947435D-04  0.35941322D-06  0.21667596D-08  0.11032978D-05
  0.18714019D-05  0.21305249D-05  0.62203787D-04 -0.22913798D-04 -0.38866138D-04
 -0.44247724D-04 -0.12808643D-03 -0.19573759D-05 -0.36109764D-05 -0.58292356D-05
 -0.75879327D-05 -0.64747967D-05 -0.22355917D-05  0.15558564D-04  0.71709278D-05
 -0.20108030D-04 -0.37273008D-04 -0.28578579D-04 -0.14262714D-04  0.37033598D-04
  0.28395014D-04  0.14171102D-04 -0.86946518D-07 -0.66665075D-07 -0.33270545D-07
  0.22409954D-03 -0.60109082D-04  0.32350034D-04 -0.23070060D-06 -0.13554534D-05
  0.36598292D-05 -0.50469353D-05  0.21736446D-05  0.41714252D-06  0.18190568D-06
 -0.47341552D-05 -0.80300233D-05 -0.91418977D-05 -0.33255941D-05 -0.48575104D-05
 -0.82392571D-05 -0.93801030D-05 -0.33552873D-05 -0.30100381D-05 -0.51055944D-05
 -0.58125387D-05 -0.34644883D-05
MO    3     MO 0.0        OCC NO =    2.0000000  ORB. ENERGY =  -10.500346
 -0.45958091D-04 -0.84783703D-04 -0.13686719D-03 -0.17816041D-03 -0.15202460D-03
 -0.52490441D-04  0.93597700D-04  0.43139095D-04 -0.12096652D-03  0.10648529D-03
  0.81646163D-04  0.40747157D-04  0.28024982D-04  0.21487779D-04  0.10723908D-04
 -0.35380539D-06 -0.27127553D-06 -0.13538550D-06  0.65704048D-03 -0.36324799D-03
 -0.13811876D-03  0.24706233D-06 -0.42911081D-04 -0.74783345D-05 -0.11436891D-03
 -0.52455736D-04 -0.78082724D-07  0.38457683D-07 -0.55095308D-04 -0.10164008D-03
 -0.16407861D-03 -0.21358160D-03 -0.18224957D-03 -0.62926395D-04 -0.35409502D-04
 -0.16320207D-04  0.45763564D-04  0.39966609D-04  0.30643861D-04  0.15293434D-04
  0.11906020D-03  0.91287809D-04  0.45559014D-04 -0.36967518D-07 -0.28344348D-07
 -0.14145816D-07 -0.94603857D-03 -0.85320495D-06  0.35139447D-03 -0.27524576D-07
  0.85455857D-04  0.88050270D-04  0.89405961D-05  0.11364141D-03 -0.12684272D-06
  0.24548096D-07 -0.90117886D-02 -0.16624990D-01 -0.26837889D-01 -0.34934958D-01
 -0.29810063D-01 -0.10292698D-01  0.60936964D-03  0.28085791D-03 -0.78755490D-03
  0.76308040D-04  0.58508165D-04  0.29199675D-04  0.35591055D-03  0.27288964D-03
  0.13619105D-03 -0.41625177D-07 -0.31915546D-07 -0.15928094D-07  0.23183817D-02
  0.44199957D-03 -0.55188742D-03 -0.26708035D-06 -0.14026015D-03 -0.50014080D-03
 -0.13135612D-03 -0.28603828D-03  0.12467107D-06  0.99418314D-07  0.53249775D+00
  0.98235437D+00  0.15858245D+01  0.20642724D+01  0.17614473D+01  0.60818544D+00
 -0.19674393D-01 -0.90679100D-02  0.25427366D-01 -0.73308971D-03 -0.56208669D-03
 -0.28052065D-03  0.33907658D-03  0.25998241D-03  0.12974945D-03 -0.86761952D-06
 -0.66523562D-06 -0.33199920D-06 -0.34384672D-02 -0.12413262D-02 -0.97996431D-03
  0.42951293D-06 -0.95788378D-02 -0.96323022D-02 -0.10420581D-01  0.75927298D-03
  0.90960116D-06  0.98926782D-06  0.13471914D-02  0.24853051D-02  0.40120531D-02
  0.52225011D-02  0.44563696D-02  0.15386773D-02  0.26547961D-03  0.12235931D-03
 -0.34310828D-03  0.26121280D-03  0.20028141D-03  0.99954460D-04 -0.30475361D-03
 -0.23366574D-03 -0.11661558D-03 -0.10030506D-06 -0.76907558D-07 -0.38382262D-07
  0.20652594D-02 -0.21122895D-04  0.10019938D-02  0.38784765D-06 -0.43598557D-03
 -0.22334898D-03 -0.32198099D-03 -0.25895336D-05  0.30388256D-06  0.15769524D-06
  0.26066139D-04  0.48086936D-04  0.77627225D-04  0.10104758D-03  0.86224085D-04
  0.29771104D-04 -0.77253555D-04 -0.35606093D-04  0.99843201D-04  0.11717864D-03
  0.89845152D-04  0.44839028D-04  0.50525065D-05  0.38739415D-05  0.19333683D-05
 -0.16760298D-06 -0.12850734D-06 -0.64134167D-07 -0.11939634D-02  0.48999672D-03
 -0.22027282D-04 -0.32125941D-06  0.23293453D-04  0.30499041D-04  0.41238069D-04
  0.18353229D-04 -0.24650642D-06  0.31572486D-06 -0.60464258D-05 -0.10255883D-04
 -0.11675960D-04 -0.39795493D-04  0.39933863D-04  0.67735390D-04  0.77114347D-04
  0.28979788D-03  0.10158471D-03  0.18697009D-03  0.30255289D-03  0.39771425D-03
  0.34111720D-03  0.11663376D-03 -0.59930646D-03 -0.26740938D-03  0.78966347D-03
 -0.33646566D-04 -0.25922865D-04 -0.11381534D-04 -0.57888360D-04 -0.44599861D-04
 -0.19581741D-04  0.10406818D-05  0.80178920D-06  0.35202864D-06 -0.14554305D-02
 -0.58848626D-03 -0.34723908D-03 -0.83665192D-06 -0.14856810D-03  0.39904871D-03
  0.88280213D-03 -0.93788166D-03 -0.14387149D-05 -0.11582038D-05  0.34641140D-04
  0.58757930D-04  0.66893826D-04 -0.25890009D-04  0.21709066D-04  0.36822685D-04
  0.41921325D-04  0.11643772D-03 -0.17037589D-04 -0.31431025D-04 -0.50739421D-04
 -0.66047650D-04 -0.56358579D-04 -0.19459263D-04  0.48501650D-04  0.22354366D-04
 -0.62683976D-04  0.18032576D-04  0.13826236D-04  0.69002606D-05 -0.33995971D-05
 -0.26065954D-05 -0.13008738D-05 -0.25454149D-06 -0.19516627D-06 -0.97401646D-07
  0.33331733D-05 -0.40092696D-04 -0.47966563D-04  0.45744229D-06  0.28130042D-04
 -0.90686746D-04 -0.32257323D-04 -0.17217361D-04  0.11722126D-05  0.21468363D-05
 -0.84792162D-05 -0.14382355D-04 -0.16373803D-04 -0.16431405D-04 -0.86513827D-05
 -0.14674383D-04 -0.16706266D-04 -0.16675290D-04  0.11418355D-05  0.19367691D-05
  0.22049432D-05  0.22450097D-04
MO    4     MO 0.0        OCC NO =    2.0000000  ORB. ENERGY =  -10.441698
  0.42362452D-02  0.78150453D-02  0.12615906D-01  0.16422161D-01  0.14013060D-01
  0.48383729D-02  0.10538836D-03  0.48573398D-04 -0.13620488D-03  0.39925729D-03
  0.30612517D-03  0.15277791D-03 -0.12823517D-03 -0.98322595D-04 -0.49069866D-04
 -0.11743157D-06 -0.90039078D-07 -0.44935810D-07  0.16353153D-02 -0.63344645D-03
 -0.16247711D-03  0.24884266D-06 -0.45477340D-03 -0.39654829D-03 -0.31812985D-03
  0.18103697D-03  0.18239652D-06 -0.41639369D-07  0.53246579D+00  0.98229541D+00
  0.15857294D+01  0.20641485D+01  0.17613416D+01  0.60814894D+00 -0.19919033D-01
 -0.91806639D-02  0.25743540D-01 -0.55339020D-03 -0.42430450D-03 -0.21175768D-03
 -0.74892968D-03 -0.57423178D-03 -0.28658190D-03  0.76888573D-06  0.58953281D-06
  0.29421819D-06 -0.35321600D-02  0.30345576D-04  0.77736888D-03 -0.23503731D-07
 -0.10180052D-01 -0.10279133D-01 -0.10664459D-01  0.26020008D-03 -0.32565878D-06
 -0.29207214D-06 -0.24776450D-02 -0.45707712D-02 -0.73786419D-02 -0.96047994D-02
 -0.81957927D-02 -0.28298103D-02  0.33200335D-03  0.15302004D-03 -0.42908417D-03
 -0.45273021D-03 -0.34712481D-03 -0.17323961D-03 -0.28821618D-03 -0.22098589D-03
 -0.11028745D-03  0.13483135D-06  0.10338013D-06  0.51593930D-07  0.17370066D-02
  0.49800177D-03 -0.67672690D-05 -0.23311462D-06 -0.47006683D-03 -0.40184170D-03
 -0.18567992D-03 -0.35740348D-03  0.15490269D-06  0.15325245D-06  0.46127881D-04
  0.85096932D-04  0.13737283D-03  0.17881861D-03  0.15258625D-03  0.52684364D-04
 -0.27052065D-04 -0.12468272D-04  0.34962336D-04 -0.26550387D-04 -0.20357153D-04
 -0.10159646D-04  0.74545747D-05  0.57156951D-05  0.28525324D-05  0.13377878D-06
  0.10257308D-06  0.51191157D-07 -0.65388949D-03 -0.14709316D-03 -0.16745738D-03
  0.32265592D-07  0.11290182D-05  0.10864555D-03  0.21618440D-04 -0.12960565D-04
 -0.14801771D-06  0.31386146D-07 -0.61864347D-04 -0.11412764D-03 -0.18423740D-03
 -0.23982235D-03 -0.20464085D-03 -0.70657566D-04  0.61860648D-04  0.28511516D-04
 -0.79949267D-04  0.22373998D-04  0.17154963D-04  0.85615286D-05 -0.58036177D-04
 -0.44498459D-04 -0.22207850D-04 -0.16006206D-06 -0.12272543D-06 -0.61248592D-07
  0.44769163D-03  0.52654050D-05  0.26077365D-03  0.20419226D-06 -0.37464466D-05
 -0.26249509D-04 -0.67313174D-04  0.23367938D-04  0.27439854D-07  0.86876708D-07
  0.57402107D-04  0.10589568D-03  0.17094846D-03  0.22252410D-03  0.18988022D-03
  0.65561077D-04 -0.52980034D-04 -0.24418449D-04  0.68471880D-04 -0.24163536D-05
 -0.18527067D-05 -0.92463049D-06 -0.39419294D-04 -0.30224215D-04 -0.15084001D-04
  0.14454472D-06  0.11082772D-06  0.55310802D-07 -0.76169220D-03  0.25430152D-03
 -0.23414295D-03 -0.36640426D-06  0.36694103D-04  0.61572368D-04  0.50188616D-04
 -0.20289753D-04 -0.13584609D-06  0.47555134D-07 -0.10050680D-03 -0.17047856D-03
 -0.19408381D-03  0.13727879D-03  0.14032788D-04  0.23802265D-04  0.27098038D-04
  0.80416906D-04 -0.99956465D-05 -0.18397326D-04 -0.29770345D-04 -0.39133952D-04
 -0.33564964D-04 -0.11476431D-04  0.36326037D-04  0.16208607D-04 -0.47864233D-04
 -0.50545692D-04 -0.38942731D-04 -0.17097956D-04 -0.58147447D-04 -0.44799473D-04
 -0.19669382D-04 -0.43072826D-07 -0.33185290D-07 -0.14570130D-07  0.36033227D-04
  0.36098647D-04  0.55947326D-04 -0.41680315D-08 -0.37630400D-04 -0.22891054D-05
 -0.56794818D-04  0.69341373D-04 -0.57188497D-07  0.79836010D-07 -0.81091059D-05
 -0.13754578D-04 -0.15659101D-04  0.22463638D-04  0.10286589D-04  0.17448002D-04
  0.19863934D-04  0.14111416D-03 -0.88762551D-05 -0.16374957D-04 -0.26434259D-04
 -0.34409550D-04 -0.29361732D-04 -0.10137900D-04  0.22648547D-04  0.10438694D-04
 -0.29271189D-04  0.23367626D-04  0.17916813D-04  0.89417455D-05 -0.18105434D-04
 -0.13882098D-04 -0.69281399D-05 -0.37519622D-06 -0.28767667D-06 -0.14357082D-06
 -0.51029027D-04  0.18318794D-04  0.22892649D-04  0.54946892D-06 -0.33046009D-04
  0.17555823D-04 -0.38127331D-04 -0.41529591D-04 -0.89768408D-06 -0.15537792D-05
  0.59746234D-07  0.10134092D-06  0.11537306D-06  0.38735888D-05  0.35085908D-06
  0.59512341D-06  0.67752697D-06  0.48142287D-05 -0.64939807D-05 -0.11015020D-04
 -0.12540211D-04 -0.14400673D-06
MO    5     MO 0.0        OCC NO =    2.0000000  ORB. ENERGY =  -10.410784
  0.52506337D+00  0.96863940D+00  0.15636843D+01  0.20354524D+01  0.17368552D+01
  0.59969437D+00 -0.19579353D-01 -0.90241057D-02  0.25304534D-01 -0.93220136D-03
 -0.71475288D-03 -0.35671178D-03  0.18826283D-03  0.14434800D-03  0.72039768D-04
  0.84956202D-07  0.65139027D-07  0.32508940D-07 -0.34004002D-02  0.67390484D-03
  0.35813412D-03 -0.93560805D-07 -0.10116172D-01 -0.10198368D-01 -0.10473822D-01
 -0.24807033D-03 -0.55435879D-06 -0.97670224D-07 -0.44257518D-02 -0.81646478D-02
 -0.13180273D-01 -0.17156799D-01 -0.14639928D-01 -0.50548153D-02  0.38379284D-03
  0.17688977D-03 -0.49601738D-03 -0.41148784D-03 -0.31550278D-03 -0.15745800D-03
  0.33179918D-03  0.25440257D-03  0.12696471D-03  0.19935439D-06  0.15285230D-06
  0.76284010D-07  0.15713674D-02  0.21082622D-03 -0.56408541D-03 -0.12734906D-06
 -0.55584362D-03 -0.21601847D-03 -0.14040428D-03  0.29321694D-03  0.29822541D-06
 -0.14999148D-06  0.15950079D-04  0.29424781D-04  0.47500720D-04  0.61831823D-04
  0.52761207D-04  0.18217177D-04  0.15861009D-05  0.73103245D-06 -0.20498913D-05
 -0.69372531D-04 -0.53190457D-04 -0.26545766D-04  0.98817086D-05  0.75766674D-05
  0.37812880D-05 -0.42667393D-08 -0.32714651D-08 -0.16326904D-08 -0.72442065D-03
 -0.21575893D-03  0.87697363D-04  0.11935228D-06  0.12777674D-03  0.67487084D-04
  0.39510766D-06  0.46601898D-04 -0.90132230D-07 -0.21886167D-08 -0.19187769D-04
 -0.35397687D-04 -0.57142843D-04 -0.74383002D-04 -0.63471151D-04 -0.21915063D-04
  0.93164912D-04  0.42939623D-04 -0.12040718D-03 -0.14947669D-04 -0.11460924D-04
 -0.57198044D-05 -0.37706446D-04 -0.28910911D-04 -0.14428571D-04 -0.10452464D-06
 -0.80142868D-07 -0.39996908D-07  0.56285455D-03  0.27847104D-03  0.16584633D-03
 -0.54596184D-07 -0.31302433D-04 -0.35862774D-04 -0.97769652D-04 -0.44762963D-04
 -0.13410847D-06 -0.33083799D-07  0.44561633D-02  0.82207511D-02  0.13270841D-01
  0.17274692D-01  0.14740526D-01  0.50895494D-02 -0.15879865D-03 -0.73190153D-04
  0.20523283D-03 -0.11793979D-03 -0.90428752D-04 -0.45130285D-04 -0.75834965D-04
 -0.58145441D-04 -0.29018650D-04  0.19551157D-06  0.14990587D-06  0.74813537D-07
 -0.54231682D-03  0.49318368D-04 -0.33165509D-03 -0.19322448D-06 -0.95587655D-04
 -0.78854395D-04 -0.95438637D-04 -0.28444264D-05  0.99516797D-07  0.56658958D-07
  0.88221510D-01  0.16275146D+00  0.26273132D+00  0.34199811D+00  0.29182761D+00
  0.10076106D+00 -0.30229377D-02 -0.13932692D-02  0.39068724D-02  0.67116363D-04
  0.51460570D-04  0.25682431D-04 -0.42210697D-03 -0.32364485D-03 -0.16152147D-03
  0.15415257D-06  0.11819441D-06  0.58987294D-07  0.10537556D-02 -0.47850324D-03
  0.59361058D-03  0.23792397D-06 -0.19511104D-02 -0.20661510D-02 -0.19534542D-02
 -0.27015637D-04  0.42492203D-07 -0.94159845D-07  0.37970359D-05  0.64404916D-05
  0.73322721D-05  0.12113278D-03 -0.20242816D-04 -0.34335647D-04 -0.39089920D-04
 -0.90265225D-04 -0.24211924D-04 -0.44562865D-04 -0.72111128D-04 -0.94792096D-04
 -0.81302630D-04 -0.27798750D-04  0.81801885D-04  0.36499842D-04 -0.10778452D-03
 -0.31463637D-04 -0.24241036D-04 -0.10643121D-04 -0.78816209D-05 -0.60723640D-05
 -0.26660949D-05 -0.10228342D-06 -0.78803861D-07 -0.34599140D-07  0.24072323D-03
  0.51804004D-04  0.27382319D-04  0.86855690D-07 -0.76282490D-04 -0.87717729D-04
 -0.89143726D-04  0.75288257D-05  0.72906280D-07  0.43153874D-07 -0.10424153D-05
 -0.17681337D-05 -0.20129577D-05  0.55453363D-05 -0.95761240D-04 -0.16242919D-03
 -0.18491989D-03  0.12006180D-03  0.13883128D-03  0.25611660D-03  0.41345160D-03
  0.53819114D-03  0.45923947D-03  0.15856435D-03  0.53582950D-04  0.24696333D-04
 -0.69251095D-04 -0.13031054D-04 -0.99913855D-05 -0.49864016D-05 -0.27516060D-04
 -0.21097570D-04 -0.10529166D-04  0.84674301D-06  0.64922883D-06  0.32401069D-06
  0.35578551D-03 -0.11634204D-03  0.45842362D-04 -0.90783336D-06 -0.10659066D-04
 -0.14028457D-04 -0.37453408D-04  0.25348087D-04  0.47634828D-06  0.30564427D-06
 -0.10489526D-04 -0.17792222D-04 -0.20255816D-04  0.67924886D-05 -0.10362702D-04
 -0.17577104D-04 -0.20010912D-04  0.56162961D-05 -0.75158206D-05 -0.12748254D-04
 -0.14513437D-04 -0.10053084D-04
MO    6     MO 0.0        OCC NO =    2.0000000  ORB. ENERGY =  -10.409144
 -0.88541282D-01 -0.16334138D+00 -0.26368363D+00 -0.34323773D+00 -0.29288538D+00
 -0.10112628D+00  0.35304681D-02  0.16271895D-02 -0.45628092D-02  0.23189751D-03
  0.17780430D-03  0.88736809D-04  0.44764888D-03  0.34322877D-03  0.17129521D-03
  0.38665365D-06  0.29646149D-06  0.14795506D-06  0.20401947D-02 -0.37080282D-03
 -0.57643299D-03 -0.19364959D-06  0.14388431D-02  0.11640862D-02  0.15502170D-02
  0.11085492D-03  0.29564187D-06 -0.91836821D-07  0.72342297D-03  0.13345741D-02
  0.21544164D-02  0.28044101D-02  0.23930082D-02  0.82624823D-03 -0.88723608D-04
 -0.40892630D-04  0.11466720D-03  0.42067077D-05  0.32254367D-05  0.16097189D-05
 -0.30963775D-04 -0.23741059D-04 -0.11848452D-04 -0.84905014D-08 -0.65099779D-08
 -0.32489352D-08 -0.82177608D-03  0.16015657D-04  0.36126624D-03  0.75968098D-07
  0.16403085D-03  0.11136139D-03  0.58195702D-04 -0.11592558D-03  0.48326677D-07
  0.66583555D-07  0.19447635D-05  0.35877089D-05  0.57916745D-05  0.75390394D-05
  0.64330760D-05  0.22211865D-05  0.68092098D-04  0.31383586D-04 -0.88002850D-04
  0.32794659D-04  0.25144864D-04  0.12549050D-04 -0.17307131D-05 -0.13270010D-05
 -0.66226652D-06  0.66755996D-07  0.51184263D-07  0.25544535D-07  0.62006181D-03
  0.20582638D-03 -0.34762578D-04 -0.17169991D-06 -0.30550375D-04 -0.23892655D-04
 -0.80780746D-04  0.17516343D-05 -0.96208159D-07  0.52003365D-07 -0.10920544D-03
 -0.20146272D-03 -0.32522330D-03 -0.42334410D-03 -0.36124029D-03 -0.12472759D-03
 -0.20875159D-04 -0.96213415D-05  0.26979246D-04 -0.51927423D-04 -0.39814654D-04
 -0.19870303D-04  0.33762528D-04  0.25886965D-04  0.12919410D-04  0.92166159D-07
  0.70667165D-07  0.35267868D-07 -0.55556384D-03 -0.22800887D-03 -0.68531353D-04