 Entering Link 1 = D:\Gaussian\G16W\l1.exe PID=     40912.
  
 Copyright (c) 1988,1990,1992,1993,1995,1998,2003,2009,2016,
            Gaussian, Inc.  All Rights Reserved.
  
 This is part of the Gaussian(R) 16 program.  It is based on
 the Gaussian(R) 09 system (copyright 2009, Gaussian, Inc.),
 the Gaussian(R) 03 system (copyright 2003, Gaussian, Inc.),
 the Gaussian(R) 98 system (copyright 1998, Gaussian, Inc.),
 the Gaussian(R) 94 system (copyright 1995, Gaussian, Inc.),
 the Gaussian 92(TM) system (copyright 1992, Gaussian, Inc.),
 the Gaussian 90(TM) system (copyright 1990, Gaussian, Inc.),
 the Gaussian 88(TM) system (copyright 1988, Gaussian, Inc.),
 the Gaussian 86(TM) system (copyright 1986, Carnegie Mellon
 University), and the Gaussian 82(TM) system (copyright 1983,
 Carnegie Mellon University). Gaussian is a federally registered
 trademark of Gaussian, Inc.
  
 This software contains proprietary and confidential information,
 including trade secrets, belonging to Gaussian, Inc.
  
 This software is provided under written license and may be
 used, copied, transmitted, or stored only in accord with that
 written license.
  
 The following legend is applicable only to US Government
 contracts under FAR:
  
                    RESTRICTED RIGHTS LEGEND
  
 Use, reproduction and disclosure by the US Government is
 subject to restrictions as set forth in subparagraphs (a)
 and (c) of the Commercial Computer Software - Restricted
 Rights clause in FAR 52.227-19.
  
 Gaussian, Inc.
 340 Quinnipiac St., Bldg. 40, Wallingford CT 06492
  
  
 ---------------------------------------------------------------
 Warning -- This program may not be used in any manner that
 competes with the business of Gaussian, Inc. or will provide
 assistance to any competitor of Gaussian, Inc.  The licensee
 of this program is prohibited from giving any competitor of
 Gaussian, Inc. access to this program.  By using this program,
 the user acknowledges that Gaussian, Inc. is engaged in the
 business of creating and licensing software in the field of
 computational chemistry and represents and warrants to the
 licensee that it is not a competitor of Gaussian, Inc. and that
 it will not use this program in any manner prohibited above.
 ---------------------------------------------------------------
  

 Cite this work as:
 Gaussian 16, Revision A.03,
 M. J. Frisch, G. W. Trucks, H. B. Schlegel, G. E. Scuseria, 
 M. A. Robb, J. R. Cheeseman, G. Scalmani, V. Barone, 
 G. A. Petersson, H. Nakatsuji, X. Li, M. Caricato, A. V. Marenich, 
 J. Bloino, B. G. Janesko, R. Gomperts, B. Mennucci, H. P. Hratchian, 
 J. V. Ortiz, A. F. Izmaylov, J. L. Sonnenberg, D. Williams-Young, 
 F. Ding, F. Lipparini, F. Egidi, J. Goings, B. Peng, A. Petrone, 
 T. Henderson, D. Ranasinghe, V. G. Zakrzewski, J. Gao, N. Rega, 
 G. Zheng, W. Liang, M. Hada, M. Ehara, K. Toyota, R. Fukuda, 
 J. Hasegawa, M. Ishida, T. Nakajima, Y. Honda, O. Kitao, H. Nakai, 
 T. Vreven, K. Throssell, J. A. Montgomery, Jr., J. E. Peralta, 
 F. Ogliaro, M. J. Bearpark, J. J. Heyd, E. N. Brothers, K. N. Kudin, 
 V. N. Staroverov, T. A. Keith, R. Kobayashi, J. Normand, 
 K. Raghavachari, A. P. Rendell, J. C. Burant, S. S. Iyengar, 
 J. Tomasi, M. Cossi, J. M. Millam, M. Klene, C. Adamo, R. Cammi, 
 J. W. Ochterski, R. L. Martin, K. Morokuma, O. Farkas, 
 J. B. Foresman, and D. J. Fox, Gaussian, Inc., Wallingford CT, 2016.
 
 ******************************************
 Gaussian 16:  EM64W-G16RevA.03 17-Dec-2016
                03-Dec-2025 
 ******************************************
 %nprocs=   4
 Will use up to    4 processors via shared memory.
 ------------------------------------
 #P B3LYP/6-31G* SCF=conver=7 out=wfn
 ------------------------------------
 1/38=1,172=1/1;
 2/12=2,17=6,18=5,40=1/2;
 3/5=1,6=6,7=1,11=2,25=1,30=1,74=-5/1,2,3;
 4//1;
 5/5=2,6=7,38=5/2;
 6/7=2,8=2,9=2,10=2,28=1/1;
 99/5=1,6=100,9=1/99;
 Leave Link    1 at Wed Dec 03 16:56:06 2025, MaxMem=           0 cpu:               1.0 elap:               0.1
 (Enter D:\Gaussian\G16W\l101.exe)
 ----------------------------------------------------
 Generated by Multiwfn (http://sobereva.com/multiwfn)
 ----------------------------------------------------
 Symbolic Z-matrix:
 Charge =  1 Multiplicity = 1
 C                     1.12397   1.15417  -0.00047 
 C                    -0.09904   1.84229   0.00009 
 C                    -1.24118   1.08842   0.00061 
 C                    -1.28421  -0.29166   0.00044 
 C                    -0.05355  -0.95596  -0.00054 
 C                     1.15102  -0.24405  -0.00087 
 H                    -0.12665   2.92655  -0.00006 
 H                    -0.06075  -2.04174  -0.00124 
 O                    -2.43372  -1.02629  -0.00014 
 H                    -3.18098  -0.41797   0.00052 
 H                     2.0522    1.71556  -0.00094 
 C                     2.46411  -0.9926    0.00056 
 H                     2.56231  -1.61747   0.89361 
 H                     2.54474  -1.65258  -0.86844 
 H                     3.31212  -0.30565  -0.02124 
 
 ITRead=  0  0  0  0  0  0  0  0  0  0  0  0  0  0  0
 MicOpt= -1 -1 -1 -1 -1 -1 -1 -1 -1 -1 -1 -1 -1 -1 -1
 NAtoms=     15 NQM=       15 NQMF=       0 NMMI=      0 NMMIF=      0
                NMic=       0 NMicF=      0.
                    Isotopes and Nuclear Properties:
 (Nuclear quadrupole moments (NQMom) in fm**2, nuclear magnetic moments (NMagM)
  in nuclear magnetons)

  Atom         1           2           3           4           5           6           7           8           9          10
 IAtWgt=          12          12          12          12          12          12           1           1          16           1
 AtmWgt=  12.0000000  12.0000000  12.0000000  12.0000000  12.0000000  12.0000000   1.0078250   1.0078250  15.9949146   1.0078250
 NucSpn=           0           0           0           0           0           0           1           1           0           1
 AtZEff=   0.0000000   0.0000000   0.0000000   0.0000000   0.0000000   0.0000000   0.0000000   0.0000000   0.0000000   0.0000000
 NQMom=    0.0000000   0.0000000   0.0000000   0.0000000   0.0000000   0.0000000   0.0000000   0.0000000   0.0000000   0.0000000
 NMagM=    0.0000000   0.0000000   0.0000000   0.0000000   0.0000000   0.0000000   2.7928460   2.7928460   0.0000000   2.7928460
 AtZNuc=   6.0000000   6.0000000   6.0000000   6.0000000   6.0000000   6.0000000   1.0000000   1.0000000   8.0000000   1.0000000

  Atom        11          12          13          14          15
 IAtWgt=           1          12           1           1           1
 AtmWgt=   1.0078250  12.0000000   1.0078250   1.0078250   1.0078250
 NucSpn=           1           0           1           1           1
 AtZEff=   0.0000000   0.0000000   0.0000000   0.0000000   0.0000000
 NQMom=    0.0000000   0.0000000   0.0000000   0.0000000   0.0000000
 NMagM=    2.7928460   0.0000000   2.7928460   2.7928460   2.7928460
 AtZNuc=   1.0000000   6.0000000   1.0000000   1.0000000   1.0000000
 Leave Link  101 at Wed Dec 03 16:56:06 2025, MaxMem=   104857600 cpu:               0.0 elap:               0.1
 (Enter D:\Gaussian\G16W\l202.exe)
                          Input orientation:                          
 ---------------------------------------------------------------------
 Center     Atomic      Atomic             Coordinates (Angstroms)
 Number     Number       Type             X           Y           Z
 ---------------------------------------------------------------------
      1          6           0        1.123969    1.154173   -0.000474
      2          6           0       -0.099039    1.842288    0.000093
      3          6           0       -1.241183    1.088421    0.000613
      4          6           0       -1.284209   -0.291664    0.000438
      5          6           0       -0.053550   -0.955960   -0.000542
      6          6           0        1.151023   -0.244050   -0.000866
      7          1           0       -0.126650    2.926554   -0.000056
      8          1           0       -0.060746   -2.041742   -0.001237
      9          8           0       -2.433715   -1.026292   -0.000144
     10          1           0       -3.180980   -0.417971    0.000519
     11          1           0        2.052201    1.715563   -0.000942
     12          6           0        2.464111   -0.992604    0.000562
     13          1           0        2.562312   -1.617468    0.893605
     14          1           0        2.544737   -1.652581   -0.868441
     15          1           0        3.312118   -0.305647   -0.021243
 ---------------------------------------------------------------------
                    Distance matrix (angstroms):
                    1          2          3          4          5
     1  C    0.000000
     2  C    1.403300   0.000000
     3  C    2.366066   1.368506   0.000000
     4  C    2.808873   2.440979   1.380756   0.000000
     5  C    2.416446   2.798618   2.364311   1.398503   0.000000
     6  C    1.398485   2.432172   2.738271   2.435698   1.399218
     7  H    2.169189   1.084618   2.149632   3.420069   3.883202
     8  H    3.408434   3.884219   3.345348   2.135331   1.085806
     9  O    4.172714   3.698576   2.427786   1.364200   2.381204
    10  H    4.583037   3.821928   2.456019   1.900972   3.173366
    11  H    1.084792   2.154970   3.352564   3.893661   3.401650
    12  C    2.530738   3.821826   4.249690   3.813295   2.517928
    13  H    3.248107   4.455453   4.752457   4.165480   2.842503
    14  H    3.263406   4.467439   4.754107   4.155463   2.826592
    15  H    2.630495   4.031138   4.761980   4.596399   3.427981
                    6          7          8          9         10
     6  C    0.000000
     7  H    3.418359   0.000000
     8  H    2.167967   4.968733   0.000000
     9  O    3.669094   4.576848   2.581109   0.000000
    10  H    4.335493   4.529324   3.517456   0.963566   0.000000
    11  H    2.156897   2.492768   4.310671   5.257491   5.651385
    12  C    1.511468   4.698068   2.734154   4.897942   5.674263
    13  H    2.162890   5.355117   2.803780   5.109654   5.934796
    14  H    2.163119   5.372046   2.773451   5.092265   5.921418
    15  H    2.162069   4.719396   3.793499   5.790887   6.494106
                   11         12         13         14         15
    11  H    0.000000
    12  C    2.739314   0.000000
    13  H    3.488484   1.094360   0.000000
    14  H    3.512768   1.094183   1.762483   0.000000
    15  H    2.381826   1.091559   1.766361   1.766593   0.000000
 Stoichiometry    C7H7O(1+)
 Framework group  C1[X(C7H7O)]
 Deg. of freedom    39
 Full point group                 C1      NOp   1
 Largest Abelian subgroup         C1      NOp   1
 Largest concise Abelian subgroup C1      NOp   1
                         Standard orientation:                         
 ---------------------------------------------------------------------
 Center     Atomic      Atomic             Coordinates (Angstroms)
 Number     Number       Type             X           Y           Z
 ---------------------------------------------------------------------
      1          6           0        1.123969    1.154173   -0.000474
      2          6           0       -0.099039    1.842288    0.000093
      3          6           0       -1.241183    1.088421    0.000613
      4          6           0       -1.284209   -0.291664    0.000438
      5          6           0       -0.053550   -0.955960   -0.000542
      6          6           0        1.151023   -0.244050   -0.000866
      7          1           0       -0.126651    2.926554   -0.000056
      8          1           0       -0.060746   -2.041742   -0.001237
      9          8           0       -2.433715   -1.026292   -0.000144
     10          1           0       -3.180980   -0.417971    0.000519
     11          1           0        2.052201    1.715563   -0.000942
     12          6           0        2.464111   -0.992604    0.000562
     13          1           0        2.562312   -1.617468    0.893605
     14          1           0        2.544737   -1.652581   -0.868441
     15          1           0        3.312118   -0.305646   -0.021243
 ---------------------------------------------------------------------
 Rotational constants (GHZ):           3.7395318           1.8243860           1.2355625
 Leave Link  202 at Wed Dec 03 16:56:06 2025, MaxMem=   104857600 cpu:               0.0 elap:               0.0
 (Enter D:\Gaussian\G16W\l301.exe)
 Standard basis: 6-31G(d) (6D, 7F)
 Ernie: Thresh=  0.10000D-02 Tol=  0.10000D-05 Strict=F.
 There are   134 symmetry adapted cartesian basis functions of A   symmetry.
 There are   134 symmetry adapted basis functions of A   symmetry.
   134 basis functions,   252 primitive gaussians,   134 cartesian basis functions
    28 alpha electrons       28 beta electrons
       nuclear repulsion energy       331.9229837224 Hartrees.
 IExCor=  402 DFT=T Ex+Corr=B3LYP ExCW=0 ScaHFX=  0.200000
 ScaDFX=  0.800000  0.720000  1.000000  0.810000 ScalE2=  1.000000  1.000000
 IRadAn=      5 IRanWt=     -1 IRanGd=            0 ICorTp=0 IEmpDi=  4
 NAtoms=   15 NActive=   15 NUniq=   15 SFac= 1.00D+00 NAtFMM=   60 NAOKFM=F Big=F
 Integral buffers will be    131072 words long.
 Raffenetti 2 integral format.
 Two-electron integral symmetry is turned on.
 Leave Link  301 at Wed Dec 03 16:56:06 2025, MaxMem=   104857600 cpu:               0.0 elap:               0.1
 (Enter D:\Gaussian\G16W\l302.exe)
 NPDir=0 NMtPBC=     1 NCelOv=     1 NCel=       1 NClECP=     1 NCelD=      1
         NCelK=      1 NCelE2=     1 NClLst=     1 CellRange=     0.0.
 One-electron integrals computed using PRISM.
 One-electron integral symmetry used in STVInt
 NBasis=   134 RedAO= T EigKep=  5.71D-04  NBF=   134
 NBsUse=   134 1.00D-06 EigRej= -1.00D+00 NBFU=   134
 Precomputing XC quadrature grid using
 IXCGrd= 4 IRadAn=           5 IRanWt=          -1 IRanGd=           0 AccXCQ= 0.00D+00.
 Generated NRdTot=       0 NPtTot=           0 NUsed=           0 NTot=          32
 NSgBfM=   134   134   134   134   134 MxSgAt=    15 MxSgA2=    15.
 Leave Link  302 at Wed Dec 03 16:56:06 2025, MaxMem=   104857600 cpu:               0.0 elap:               0.2
 (Enter D:\Gaussian\G16W\l303.exe)
 DipDrv:  MaxL=1.
 Leave Link  303 at Wed Dec 03 16:56:06 2025, MaxMem=   104857600 cpu:               0.0 elap:               0.1
 (Enter D:\Gaussian\G16W\l401.exe)
 ExpMin= 1.61D-01 ExpMax= 5.48D+03 ExpMxC= 8.25D+02 IAcc=3 IRadAn=         5 AccDes= 0.00D+00
 Harris functional with IExCor=  402 and IRadAn=       5 diagonalized for initial guess.
 HarFok:  IExCor=  402 AccDes= 0.00D+00 IRadAn=         5 IDoV= 1 UseB2=F ITyADJ=14
 ICtDFT=  3500011 ScaDFX=  1.000000  1.000000  1.000000  1.000000
 FoFCou: FMM=F IPFlag=           0 FMFlag=      100000 FMFlg1=           0
         NFxFlg=           0 DoJE=T BraDBF=F KetDBF=T FulRan=T
         wScrn=  0.000000 ICntrl=       500 IOpCl=  0 I1Cent=   200000004 NGrid=           0
         NMat0=    1 NMatS0=      1 NMatT0=    0 NMatD0=    1 NMtDS0=    0 NMtDT0=    0
 Petite list used in FoFCou.
 Harris En= -345.832372012916    
 JPrj=0 DoOrth=F DoCkMO=F.
 Leave Link  401 at Wed Dec 03 16:56:07 2025, MaxMem=   104857600 cpu:               1.0 elap:               0.7
 (Enter D:\Gaussian\G16W\l502.exe)
 Keep R1 ints in memory in canonical form, NReq=44746278.
 FoFCou: FMM=F IPFlag=           0 FMFlag=           0 FMFlg1=           0
         NFxFlg=           0 DoJE=F BraDBF=F KetDBF=F FulRan=T
         wScrn=  0.000000 ICntrl=       600 IOpCl=  0 I1Cent=           0 NGrid=           0
         NMat0=    1 NMatS0=   9045 NMatT0=    0 NMatD0=    1 NMtDS0=    0 NMtDT0=    0
 Symmetry not used in FoFCou.
 Two-electron integral symmetry not used.
 Closed shell SCF:
 Using DIIS extrapolation, IDIIS=  1040.
 NGot=   104857600 LenX=    63908728 LenY=    63890331
 Requested convergence on RMS density matrix=1.00D-07 within 128 cycles.
 Requested convergence on MAX density matrix=1.00D-05.
 Requested convergence on             energy=1.00D-05.
 No special actions if energy rises.
 Integral accuracy reduced to 1.0D-05 until final iterations.

 Cycle   1  Pass 0  IDiag  1:
 E= -345.511989385133    
 DIIS: error= 3.48D-02 at cycle   1 NSaved=   1.
 NSaved= 1 IEnMin= 1 EnMin= -345.511989385133     IErMin= 1 ErrMin= 3.48D-02
 ErrMax= 3.48D-02  0.00D+00 EMaxC= 1.00D-01 BMatC= 2.30D-01 BMatP= 2.30D-01
 IDIUse=3 WtCom= 6.52D-01 WtEn= 3.48D-01
 Coeff-Com:  0.100D+01
 Coeff-En:   0.100D+01
 Coeff:      0.100D+01
 Gap=    -0.144 Goal=   None    Shift=    0.000
 GapD=   -0.144 DampG=0.250 DampE=0.500 DampFc=0.2500 IDamp=-1.
 Damping current iteration by 2.50D-01
 RMSDP=1.14D-02 MaxDP=3.27D-01              OVMax= 7.21D-01

 Cycle   2  Pass 0  IDiag  1:
 E= -345.586265357382     Delta-E=       -0.074275972249 Rises=F Damp=T
 DIIS: error= 1.87D-02 at cycle   2 NSaved=   2.
 NSaved= 2 IEnMin= 2 EnMin= -345.586265357382     IErMin= 2 ErrMin= 1.87D-02
 ErrMax= 1.87D-02  0.00D+00 EMaxC= 1.00D-01 BMatC= 4.01D-02 BMatP= 2.30D-01
 IDIUse=3 WtCom= 8.13D-01 WtEn= 1.87D-01
 Coeff-Com: -0.113D+00 0.111D+01
 Coeff-En:   0.260D+00 0.740D+00
 Coeff:     -0.436D-01 0.104D+01
 Gap=    -0.052 Goal=   None    Shift=    0.000
 RMSDP=4.03D-03 MaxDP=8.97D-02 DE=-7.43D-02 OVMax= 7.25D-01

 Cycle   3  Pass 0  IDiag  1:
 E= -345.648125765059     Delta-E=       -0.061860407677 Rises=F Damp=F
 DIIS: error= 3.16D-02 at cycle   3 NSaved=   3.
 NSaved= 3 IEnMin= 3 EnMin= -345.648125765059     IErMin= 2 ErrMin= 1.87D-02
 ErrMax= 3.16D-02  0.00D+00 EMaxC= 1.00D-01 BMatC= 8.54D-02 BMatP= 4.01D-02
 IDIUse=2 WtCom= 0.00D+00 WtEn= 1.00D+00
 Coeff-En:   0.000D+00 0.308D+00 0.692D+00
 Coeff:      0.000D+00 0.308D+00 0.692D+00
 Gap=    -0.045 Goal=   None    Shift=    0.000
 RMSDP=8.53D-03 MaxDP=2.73D-01 DE=-6.19D-02 OVMax= 8.99D-01

 Cycle   4  Pass 0  IDiag  1:
 E= -344.803754652188     Delta-E=        0.844371112871 Rises=F Damp=F
 DIIS: error= 7.38D-02 at cycle   4 NSaved=   4.
 NSaved= 4 IEnMin= 3 EnMin= -345.648125765059     IErMin= 2 ErrMin= 1.87D-02
 ErrMax= 7.38D-02  0.00D+00 EMaxC= 1.00D-01 BMatC= 6.68D-01 BMatP= 4.01D-02
 IDIUse=2 WtCom= 0.00D+00 WtEn= 1.00D+00
 EnCoef did     4 forward-backward iterations
 Coeff-En:   0.680D-02 0.000D+00 0.800D+00 0.193D+00
 Coeff:      0.680D-02 0.000D+00 0.800D+00 0.193D+00
 Gap=     0.010 Goal=   None    Shift=    0.000
 RMSDP=7.64D-03 MaxDP=2.53D-01 DE= 8.44D-01 OVMax= 9.35D-01

 Cycle   5  Pass 0  IDiag  1:
 E= -345.724057346046     Delta-E=       -0.920302693859 Rises=F Damp=F
 DIIS: error= 1.45D-02 at cycle   5 NSaved=   5.
 NSaved= 5 IEnMin= 5 EnMin= -345.724057346046     IErMin= 5 ErrMin= 1.45D-02
 ErrMax= 1.45D-02  0.00D+00 EMaxC= 1.00D-01 BMatC= 3.55D-02 BMatP= 4.01D-02
 IDIUse=3 WtCom= 8.55D-01 WtEn= 1.45D-01
 EnCoef did     4 forward-backward iterations
 Coeff-Com: -0.224D+00 0.472D+00 0.369D+00-0.460D-03 0.384D+00
 Coeff-En:   0.000D+00 0.000D+00 0.223D+00 0.112D-01 0.766D+00
 Coeff:     -0.192D+00 0.404D+00 0.347D+00 0.123D-02 0.439D+00
 Gap=     0.023 Goal=   None    Shift=    0.000
 RMSDP=1.57D-03 MaxDP=5.74D-02 DE=-9.20D-01 OVMax= 6.82D-02

 Cycle   6  Pass 0  IDiag  1:
 E= -345.754632966930     Delta-E=       -0.030575620884 Rises=F Damp=F
 DIIS: error= 5.18D-03 at cycle   6 NSaved=   6.
 NSaved= 6 IEnMin= 6 EnMin= -345.754632966930     IErMin= 6 ErrMin= 5.18D-03
 ErrMax= 5.18D-03  0.00D+00 EMaxC= 1.00D-01 BMatC= 4.43D-03 BMatP= 3.55D-02
 IDIUse=3 WtCom= 9.48D-01 WtEn= 5.18D-02
 Coeff-Com: -0.152D+00 0.227D+00 0.116D+00-0.162D-01 0.300D+00 0.525D+00
 Coeff-En:   0.000D+00 0.000D+00 0.000D+00 0.000D+00 0.701D-01 0.930D+00
 Coeff:     -0.144D+00 0.215D+00 0.110D+00-0.154D-01 0.288D+00 0.546D+00
 Gap=     0.027 Goal=   None    Shift=    0.000
 RMSDP=4.98D-04 MaxDP=1.43D-02 DE=-3.06D-02 OVMax= 2.55D-02

 Cycle   7  Pass 0  IDiag  1:
 E= -345.759579517173     Delta-E=       -0.004946550243 Rises=F Damp=F
 DIIS: error= 1.04D-03 at cycle   7 NSaved=   7.
 NSaved= 7 IEnMin= 7 EnMin= -345.759579517173     IErMin= 7 ErrMin= 1.04D-03
 ErrMax= 1.04D-03  0.00D+00 EMaxC= 1.00D-01 BMatC= 1.59D-04 BMatP= 4.43D-03
 IDIUse=3 WtCom= 9.90D-01 WtEn= 1.04D-02
 Coeff-Com: -0.277D-01 0.341D-01-0.188D-01-0.251D-02 0.329D-01 0.140D+00
 Coeff-Com:  0.842D+00
 Coeff-En:   0.000D+00 0.000D+00 0.000D+00 0.000D+00 0.000D+00 0.000D+00
 Coeff-En:   0.100D+01
 Coeff:     -0.274D-01 0.337D-01-0.186D-01-0.249D-02 0.325D-01 0.139D+00
 Coeff:      0.843D+00
 Gap=     0.028 Goal=   None    Shift=    0.000
 RMSDP=1.14D-04 MaxDP=2.48D-03 DE=-4.95D-03 OVMax= 5.72D-03

 Cycle   8  Pass 0  IDiag  1:
 E= -345.759735348629     Delta-E=       -0.000155831456 Rises=F Damp=F
 DIIS: error= 4.42D-04 at cycle   8 NSaved=   8.
 NSaved= 8 IEnMin= 8 EnMin= -345.759735348629     IErMin= 8 ErrMin= 4.42D-04
 ErrMax= 4.42D-04  0.00D+00 EMaxC= 1.00D-01 BMatC= 3.21D-05 BMatP= 1.59D-04
 IDIUse=3 WtCom= 9.96D-01 WtEn= 4.42D-03
 Coeff-Com: -0.753D-02 0.924D-02-0.197D-01-0.118D-02-0.425D-02 0.334D-01
 Coeff-Com:  0.468D+00 0.522D+00
 Coeff-En:   0.000D+00 0.000D+00 0.000D+00 0.000D+00 0.000D+00 0.000D+00
 Coeff-En:   0.000D+00 0.100D+01
 Coeff:     -0.750D-02 0.920D-02-0.196D-01-0.118D-02-0.423D-02 0.332D-01
 Coeff:      0.466D+00 0.524D+00
 Gap=     0.029 Goal=   None    Shift=    0.000
 RMSDP=5.32D-05 MaxDP=1.09D-03 DE=-1.56D-04 OVMax= 2.86D-03

 Cycle   9  Pass 0  IDiag  1:
 E= -345.759766787905     Delta-E=       -0.000031439277 Rises=F Damp=F
 DIIS: error= 1.42D-04 at cycle   9 NSaved=   9.
 NSaved= 9 IEnMin= 9 EnMin= -345.759766787905     IErMin= 9 ErrMin= 1.42D-04
 ErrMax= 1.42D-04  0.00D+00 EMaxC= 1.00D-01 BMatC= 3.80D-06 BMatP= 3.21D-05
 IDIUse=3 WtCom= 9.99D-01 WtEn= 1.42D-03
 Coeff-Com:  0.387D-03-0.797D-03-0.435D-02 0.404D-04-0.263D-02-0.370D-02
 Coeff-Com:  0.722D-01 0.280D+00 0.659D+00
 Coeff-En:   0.000D+00 0.000D+00 0.000D+00 0.000D+00 0.000D+00 0.000D+00
 Coeff-En:   0.000D+00 0.802D-01 0.920D+00
 Coeff:      0.387D-03-0.796D-03-0.434D-02 0.403D-04-0.263D-02-0.369D-02
 Coeff:      0.721D-01 0.280D+00 0.659D+00
 Gap=     0.029 Goal=   None    Shift=    0.000
 RMSDP=2.84D-05 MaxDP=5.16D-04 DE=-3.14D-05 OVMax= 3.31D-03

 Cycle  10  Pass 0  IDiag  1:
 E= -345.759772357985     Delta-E=       -0.000005570080 Rises=F Damp=F
 DIIS: error= 4.63D-05 at cycle  10 NSaved=  10.
 NSaved=10 IEnMin=10 EnMin= -345.759772357985     IErMin=10 ErrMin= 4.63D-05
 ErrMax= 4.63D-05  0.00D+00 EMaxC= 1.00D-01 BMatC= 3.98D-07 BMatP= 3.80D-06
 IDIUse=1 WtCom= 1.00D+00 WtEn= 0.00D+00
 Coeff-Com:  0.519D-03-0.547D-03-0.627D-03 0.301D-05-0.690D-03-0.404D-02
 Coeff-Com:  0.818D-02 0.124D+00 0.356D+00 0.518D+00
 Coeff:      0.519D-03-0.547D-03-0.627D-03 0.301D-05-0.690D-03-0.404D-02
 Coeff:      0.818D-02 0.124D+00 0.356D+00 0.518D+00
 Gap=     0.029 Goal=   None    Shift=    0.000
 RMSDP=2.62D-05 MaxDP=5.48D-04 DE=-5.57D-06 OVMax= 3.43D-03

 Cycle  11  Pass 0  IDiag  1:
 E= -345.759775489023     Delta-E=       -0.000003131037 Rises=F Damp=F
 DIIS: error= 6.08D-05 at cycle  11 NSaved=  11.
 NSaved=11 IEnMin=11 EnMin= -345.759775489023     IErMin=10 ErrMin= 4.63D-05
 ErrMax= 6.08D-05  0.00D+00 EMaxC= 1.00D-01 BMatC= 1.57D-07 BMatP= 3.98D-07
 IDIUse=1 WtCom= 1.00D+00 WtEn= 0.00D+00
 Coeff-Com:  0.430D-03-0.437D-03-0.210D-03 0.227D-05-0.367D-03-0.294D-02
 Coeff-Com:  0.508D-02 0.822D-01 0.234D+00 0.376D+00 0.307D+00
 Coeff:      0.430D-03-0.437D-03-0.210D-03 0.227D-05-0.367D-03-0.294D-02
 Coeff:      0.508D-02 0.822D-01 0.234D+00 0.376D+00 0.307D+00
 Gap=     0.029 Goal=   None    Shift=    0.000
 RMSDP=1.97D-05 MaxDP=4.17D-04 DE=-3.13D-06 OVMax= 2.60D-03

 Cycle  12  Pass 0  IDiag  1:
 E= -345.759778241439     Delta-E=       -0.000002752416 Rises=F Damp=F
 DIIS: error= 7.18D-05 at cycle  12 NSaved=  12.
 NSaved=12 IEnMin=12 EnMin= -345.759778241439     IErMin=10 ErrMin= 4.63D-05
 ErrMax= 7.18D-05  0.00D+00 EMaxC= 1.00D-01 BMatC= 1.71D-07 BMatP= 1.57D-07
 IDIUse=1 WtCom= 1.00D+00 WtEn= 0.00D+00
 Coeff-Com:  0.677D-03-0.491D-03 0.514D-03-0.103D-04-0.549D-03-0.463D-02
 Coeff-Com: -0.661D-02 0.739D-01 0.235D+00 0.601D+00 0.278D+01-0.268D+01
 Coeff:      0.677D-03-0.491D-03 0.514D-03-0.103D-04-0.549D-03-0.463D-02
 Coeff:     -0.661D-02 0.739D-01 0.235D+00 0.601D+00 0.278D+01-0.268D+01
 Gap=     0.029 Goal=   None    Shift=    0.000
 RMSDP=8.97D-05 MaxDP=1.90D-03 DE=-2.75D-06 OVMax= 1.19D-02

 Cycle  13  Pass 0  IDiag  1:
 E= -345.759769477456     Delta-E=        0.000008763983 Rises=F Damp=F
 DIIS: error= 2.40D-05 at cycle  13 NSaved=  13.
 NSaved=13 IEnMin=12 EnMin= -345.759778241439     IErMin=13 ErrMin= 2.40D-05
 ErrMax= 2.40D-05  0.00D+00 EMaxC= 1.00D-01 BMatC= 7.15D-08 BMatP= 1.57D-07
 IDIUse=1 WtCom= 1.00D+00 WtEn= 0.00D+00
 Coeff-Com:  0.461D-03-0.562D-03 0.717D-03 0.262D-04 0.341D-03-0.170D-02
 Coeff-Com: -0.548D-02 0.179D-01 0.553D-01 0.283D+00 0.199D+01-0.211D+01
 Coeff-Com:  0.774D+00
 Coeff:      0.461D-03-0.562D-03 0.717D-03 0.262D-04 0.341D-03-0.170D-02
 Coeff:     -0.548D-02 0.179D-01 0.553D-01 0.283D+00 0.199D+01-0.211D+01
 Coeff:      0.774D+00
 Gap=     0.029 Goal=   None    Shift=    0.000
 RMSDP=3.55D-05 MaxDP=7.52D-04 DE= 8.76D-06 OVMax= 4.70D-03

 Cycle  14  Pass 0  IDiag  1:
 E= -345.759768664312     Delta-E=        0.000000813144 Rises=F Damp=F
 DIIS: error= 1.50D-05 at cycle  14 NSaved=  14.
 NSaved=14 IEnMin=12 EnMin= -345.759778241439     IErMin=14 ErrMin= 1.50D-05
 ErrMax= 1.50D-05  0.00D+00 EMaxC= 1.00D-01 BMatC= 2.17D-08 BMatP= 7.15D-08
 IDIUse=1 WtCom= 1.00D+00 WtEn= 0.00D+00
 Coeff-Com:  0.118D-03-0.148D-03 0.344D-03 0.676D-05 0.356D-03 0.111D-03
 Coeff-Com:  0.211D-02 0.517D-03-0.112D-01 0.187D-01 0.138D+00-0.209D+00
 Coeff-Com:  0.211D+00 0.849D+00
 Coeff:      0.118D-03-0.148D-03 0.344D-03 0.676D-05 0.356D-03 0.111D-03
 Coeff:      0.211D-02 0.517D-03-0.112D-01 0.187D-01 0.138D+00-0.209D+00
 Coeff:      0.211D+00 0.849D+00
 Gap=     0.029 Goal=   None    Shift=    0.000
 RMSDP=3.51D-06 MaxDP=7.06D-05 DE= 8.13D-07 OVMax= 4.44D-04

 Initial convergence to 1.0D-05 achieved.  Increase integral accuracy.
 Cycle  15  Pass 1  IDiag  1:
 E= -345.759758147490     Delta-E=        0.000010516822 Rises=F Damp=F
 DIIS: error= 3.92D-06 at cycle   1 NSaved=   1.
 NSaved= 1 IEnMin= 1 EnMin= -345.759758147490     IErMin= 1 ErrMin= 3.92D-06
 ErrMax= 3.92D-06  0.00D+00 EMaxC= 1.00D-01 BMatC= 2.60D-09 BMatP= 2.60D-09
 IDIUse=1 WtCom= 1.00D+00 WtEn= 0.00D+00
 Coeff-Com:  0.100D+01
 Coeff:      0.100D+01
 Gap=     0.029 Goal=   None    Shift=    0.000
 RMSDP=3.51D-06 MaxDP=7.06D-05 DE= 1.05D-05 OVMax= 9.62D-05

 Cycle  16  Pass 1  IDiag  1:
 E= -345.759758140532     Delta-E=        0.000000006958 Rises=F Damp=F
 DIIS: error= 9.13D-06 at cycle   2 NSaved=   2.
 NSaved= 2 IEnMin= 1 EnMin= -345.759758147490     IErMin= 1 ErrMin= 3.92D-06
 ErrMax= 9.13D-06  0.00D+00 EMaxC= 1.00D-01 BMatC= 1.00D-08 BMatP= 2.60D-09
 IDIUse=1 WtCom= 1.00D+00 WtEn= 0.00D+00
 Coeff-Com:  0.678D+00 0.322D+00
 Coeff:      0.678D+00 0.322D+00
 Gap=     0.029 Goal=   None    Shift=    0.000
 RMSDP=8.45D-07 MaxDP=2.50D-05 DE= 6.96D-09 OVMax= 4.43D-05

 Cycle  17  Pass 1  IDiag  1:
 E= -345.759758152548     Delta-E=       -0.000000012015 Rises=F Damp=F
 DIIS: error= 1.49D-06 at cycle   3 NSaved=   3.
 NSaved= 3 IEnMin= 3 EnMin= -345.759758152548     IErMin= 3 ErrMin= 1.49D-06
 ErrMax= 1.49D-06  0.00D+00 EMaxC= 1.00D-01 BMatC= 2.59D-10 BMatP= 2.60D-09
 IDIUse=1 WtCom= 1.00D+00 WtEn= 0.00D+00
 Coeff-Com:  0.157D+00 0.147D+00 0.696D+00
 Coeff:      0.157D+00 0.147D+00 0.696D+00
 Gap=     0.029 Goal=   None    Shift=    0.000
 RMSDP=5.70D-07 MaxDP=1.32D-05 DE=-1.20D-08 OVMax= 5.71D-05

 Cycle  18  Pass 1  IDiag  1:
 E= -345.759758153996     Delta-E=       -0.000000001448 Rises=F Damp=F
 DIIS: error= 1.08D-06 at cycle   4 NSaved=   4.
 NSaved= 4 IEnMin= 4 EnMin= -345.759758153996     IErMin= 4 ErrMin= 1.08D-06
 ErrMax= 1.08D-06  0.00D+00 EMaxC= 1.00D-01 BMatC= 1.26D-10 BMatP= 2.59D-10
 IDIUse=1 WtCom= 1.00D+00 WtEn= 0.00D+00
 Coeff-Com: -0.145D-01 0.424D-01 0.463D+00 0.509D+00
 Coeff:     -0.145D-01 0.424D-01 0.463D+00 0.509D+00
 Gap=     0.029 Goal=   None    Shift=    0.000
 RMSDP=5.62D-07 MaxDP=1.27D-05 DE=-1.45D-09 OVMax= 6.53D-05

 Cycle  19  Pass 1  IDiag  1:
 E= -345.759758155518     Delta-E=       -0.000000001522 Rises=F Damp=F
 DIIS: error= 1.12D-06 at cycle   5 NSaved=   5.
 NSaved= 5 IEnMin= 5 EnMin= -345.759758155518     IErMin= 4 ErrMin= 1.08D-06
 ErrMax= 1.12D-06  0.00D+00 EMaxC= 1.00D-01 BMatC= 3.84D-11 BMatP= 1.26D-10
 IDIUse=1 WtCom= 1.00D+00 WtEn= 0.00D+00
 Coeff-Com: -0.133D-01 0.394D-01 0.427D+00 0.470D+00 0.768D-01
 Coeff:     -0.133D-01 0.394D-01 0.427D+00 0.470D+00 0.768D-01
 Gap=     0.029 Goal=   None    Shift=    0.000
 RMSDP=8.87D-08 MaxDP=1.83D-06 DE=-1.52D-09 OVMax= 1.12D-05

 SCF Done:  E(RB3LYP) =  -345.759758156     A.U. after   19 cycles
            NFock= 19  Conv=0.89D-07     -V/T= 2.0097
 KE= 3.424539127802D+02 PE=-1.455573219723D+03 EE= 4.354365650650D+02
 Leave Link  502 at Wed Dec 03 16:56:18 2025, MaxMem=   104857600 cpu:              11.0 elap:              11.3
 (Enter D:\Gaussian\G16W\l601.exe)
 Copying SCF densities to generalized density rwf, IOpCl= 0 IROHF=0.

 **********************************************************************

            Population analysis using the SCF density.

 **********************************************************************

 Orbital symmetries:
       Occupied  (A) (A) (A) (A) (A) (A) (A) (A) (A) (A) (A) (A)
                 (A) (A) (A) (A) (A) (A) (A) (A) (A) (A) (A) (A)
                 (A) (A) (A) (A)
       Virtual   (A) (A) (A) (A) (A) (A) (A) (A) (A) (A) (A) (A)
                 (A) (A) (A) (A) (A) (A) (A) (A) (A) (A) (A) (A)
                 (A) (A) (A) (A) (A) (A) (A) (A) (A) (A) (A) (A)
                 (A) (A) (A) (A) (A) (A) (A) (A) (A) (A) (A) (A)
                 (A) (A) (A) (A) (A) (A) (A) (A) (A) (A) (A) (A)
                 (A) (A) (A) (A) (A) (A) (A) (A) (A) (A) (A) (A)
                 (A) (A) (A) (A) (A) (A) (A) (A) (A) (A) (A) (A)
                 (A) (A) (A) (A) (A) (A) (A) (A) (A) (A) (A) (A)
                 (A) (A) (A) (A) (A) (A) (A) (A) (A) (A)
 The electronic state is 1-A.
 Alpha  occ. eigenvalues --  -19.38308 -10.51828 -10.50035 -10.44170 -10.41078
 Alpha  occ. eigenvalues --  -10.40914 -10.40554 -10.34568  -1.26806  -1.08983
 Alpha  occ. eigenvalues --   -0.98416  -0.96973  -0.87554  -0.83384  -0.81064
 Alpha  occ. eigenvalues --   -0.73213  -0.70531  -0.67567  -0.65587  -0.62943
 Alpha  occ. eigenvalues --   -0.59629  -0.57931  -0.57379  -0.55899  -0.54263
 Alpha  occ. eigenvalues --   -0.54081  -0.46181  -0.43938
 Alpha virt. eigenvalues --   -0.41056  -0.22042  -0.20107  -0.09659  -0.06830
 Alpha virt. eigenvalues --   -0.05387  -0.03230  -0.02086  -0.00143   0.01488
 Alpha virt. eigenvalues --    0.03764   0.04307   0.05633   0.10677   0.12656
 Alpha virt. eigenvalues --    0.13498   0.16898   0.26284   0.27933   0.30487
 Alpha virt. eigenvalues --    0.31348   0.35963   0.36200   0.36676   0.37980
 Alpha virt. eigenvalues --    0.39341   0.39833   0.41676   0.42262   0.44013
 Alpha virt. eigenvalues --    0.47850   0.49956   0.52941   0.53223   0.57726
 Alpha virt. eigenvalues --    0.58696   0.59408   0.63913   0.67464   0.68863
 Alpha virt. eigenvalues --    0.71956   0.72892   0.75394   0.76842   0.76932
 Alpha virt. eigenvalues --    0.77510   0.81248   0.84252   0.86975   0.91260
 Alpha virt. eigenvalues --    0.96573   1.00631   1.01268   1.06091   1.12594
 Alpha virt. eigenvalues --    1.13060   1.17295   1.19631   1.21599   1.24647
 Alpha virt. eigenvalues --    1.26926   1.27887   1.44601   1.53271   1.54285
 Alpha virt. eigenvalues --    1.56071   1.56311   1.60997   1.66903   1.70273
 Alpha virt. eigenvalues --    1.70703   1.72553   1.75093   1.75174   1.86152
 Alpha virt. eigenvalues --    1.89256   1.90691   1.91964   2.01479   2.01703
 Alpha virt. eigenvalues --    2.06153   2.10148   2.14255   2.15371   2.19754
 Alpha virt. eigenvalues --    2.20470   2.29793   2.29891   2.35879   2.44299
 Alpha virt. eigenvalues --    2.45848   2.53323   2.56312   2.60934   2.63190
 Alpha virt. eigenvalues --    2.72967   2.90351   3.16426   3.74130   3.82623
 Alpha virt. eigenvalues --    3.89610   3.94081   4.04267   4.14360   4.22487
 Alpha virt. eigenvalues --    4.51604
          Condensed to atoms (all electrons):
               1          2          3          4          5          6
     1  C    4.928317   0.482784  -0.030891  -0.032050  -0.047642   0.550843
     2  C    0.482784   4.946606   0.471707  -0.030935  -0.031763  -0.024514
     3  C   -0.030891   0.471707   5.175715   0.415324  -0.066183  -0.035186
     4  C   -0.032050  -0.030935   0.415324   4.514278   0.491759  -0.003306
     5  C   -0.047642  -0.031763  -0.066183   0.491759   5.049888   0.524008
     6  C    0.550843  -0.024514  -0.035186  -0.003306   0.524008   4.596549
     7  H   -0.014732   0.342575  -0.030747   0.002088   0.000590   0.002939
     8  H    0.004556  -0.000041   0.004547  -0.032178   0.351886  -0.030831
     9  O    0.000268   0.003725  -0.056706   0.301629  -0.042019   0.002172
    10  H   -0.000045   0.000752  -0.008264  -0.021301   0.004891  -0.000140
    11  H    0.361015  -0.036740   0.003345   0.000078   0.005141  -0.028152
    12  C   -0.041503   0.006138   0.001497   0.004926  -0.051957   0.345096
    13  H    0.000409  -0.000181  -0.000014  -0.000007  -0.004351  -0.023722
    14  H    0.000654  -0.000181  -0.000015   0.000016  -0.004379  -0.024038
    15  H   -0.003485   0.000330  -0.000015  -0.000167   0.003711  -0.030708
               7          8          9         10         11         12
     1  C   -0.014732   0.004556   0.000268  -0.000045   0.361015  -0.041503
     2  C    0.342575  -0.000041   0.003725   0.000752  -0.036740   0.006138
     3  C   -0.030747   0.004547  -0.056706  -0.008264   0.003345   0.001497
     4  C    0.002088  -0.032178   0.301629  -0.021301   0.000078   0.004926
     5  C    0.000590   0.351886  -0.042019   0.004891   0.005141  -0.051957
     6  C    0.002939  -0.030831   0.002172  -0.000140  -0.028152   0.345096
     7  H    0.431028   0.000003  -0.000037   0.000009  -0.005497  -0.000095
     8  H    0.000003   0.450665  -0.002089  -0.000013  -0.000136  -0.004210
     9  O   -0.000037  -0.002089   8.114302   0.249821   0.000001  -0.000041
    10  H    0.000009  -0.000013   0.249821   0.321710   0.000000   0.000002
    11  H   -0.005497  -0.000136   0.000001   0.000000   0.463726  -0.004766
    12  C   -0.000095  -0.004210  -0.000041   0.000002  -0.004766   5.176357
    13  H    0.000001   0.000943   0.000000   0.000000   0.000034   0.368541
    14  H    0.000001   0.001054   0.000000   0.000000   0.000027   0.368844
    15  H   -0.000005   0.000032   0.000000   0.000000   0.004715   0.373384
              13         14         15
     1  C    0.000409   0.000654  -0.003485
     2  C   -0.000181  -0.000181   0.000330
     3  C   -0.000014  -0.000015  -0.000015
     4  C   -0.000007   0.000016  -0.000167
     5  C   -0.004351  -0.004379   0.003711
     6  C   -0.023722  -0.024038  -0.030708
     7  H    0.000001   0.000001  -0.000005
     8  H    0.000943   0.001054   0.000032
     9  O    0.000000   0.000000   0.000000
    10  H    0.000000   0.000000   0.000000
    11  H    0.000034   0.000027   0.004715
    12  C    0.368541   0.368844   0.373384
    13  H    0.483070  -0.023401  -0.022370
    14  H   -0.023401   0.483755  -0.022434
    15  H   -0.022370  -0.022434   0.494775
 Mulliken charges:
               1
     1  C   -0.158498
     2  C   -0.130262
     3  C    0.155884
     4  C    0.389847
     5  C   -0.183579
     6  C    0.178991
     7  H    0.271877
     8  H    0.255811
     9  O   -0.571026
    10  H    0.452578
    11  H    0.237210
    12  C   -0.542212
    13  H    0.221047
    14  H    0.220096
    15  H    0.202235
 Sum of Mulliken charges =   1.00000
 Mulliken charges with hydrogens summed into heavy atoms:
               1
     1  C    0.078712
     2  C    0.141615
     3  C    0.155884
     4  C    0.389847
     5  C    0.072232
     6  C    0.178991
     9  O   -0.118449
    12  C    0.101167
 Electronic spatial extent (au):  <R**2>=            915.1460
 Charge=              1.0000 electrons
 Dipole moment (field-independent basis, Debye):
    X=             -1.3455    Y=              3.0173    Z=              0.0050  Tot=              3.3037
 Quadrupole moment (field-independent basis, Debye-Ang):
   XX=            -20.8567   YY=            -30.2227   ZZ=            -46.6610
   XY=             -5.4275   XZ=              0.0060   YZ=             -0.0046
 Traceless Quadrupole moment (field-independent basis, Debye-Ang):
   XX=             11.7235   YY=              2.3574   ZZ=            -14.0809
   XY=             -5.4275   XZ=              0.0060   YZ=             -0.0046
 Octapole moment (field-independent basis, Debye-Ang**2):
  XXX=            -33.5728  YYY=             16.3751  ZZZ=              0.0594  XYY=              4.0039
  XXY=              6.5299  XXZ=              0.0342  XZZ=             -1.7617  YZZ=             -4.2390
  YYZ=             -0.0371  XYZ=             -0.0344
 Hexadecapole moment (field-independent basis, Debye-Ang**3):
 XXXX=           -492.9124 YYYY=           -295.0823 ZZZZ=            -51.1334 XXXY=             -8.0074
 XXXZ=             -0.0442 YYYX=             -4.3055 YYYZ=              0.1413 ZZZX=              0.1717
 ZZZY=             -0.0791 XXYY=           -168.7389 XXZZ=           -129.4343 YYZZ=            -75.8280
 XXYZ=             -0.1491 YYXZ=             -0.0423 ZZXY=             -1.1993
 N-N= 3.319229837224D+02 E-N=-1.455573219407D+03  KE= 3.424539127802D+02
 No NMR shielding tensors so no spin-rotation constants.
 Leave Link  601 at Wed Dec 03 16:56:18 2025, MaxMem=   104857600 cpu:               0.0 elap:               0.1
 (Enter D:\Gaussian\G16W\l9999.exe)
 1|1|UNPC-PC-20250526LCFF|SP|RB3LYP|6-31G(d)|C7H7O1(1+)|ADMINISTRATOR|0
 3-Dec-2025|0||#P B3LYP/6-31G* SCF=conver=7 out=wfn||Generated by Multi
 wfn (http://sobereva.com/multiwfn)||1,1|C,0,1.123969,1.154173,-0.00047
 4|C,0,-0.099039,1.842288,0.000093|C,0,-1.241183,1.088421,0.000613|C,0,
 -1.284209,-0.291664,0.000438|C,0,-0.05355,-0.95596,-0.000542|C,0,1.151
 023,-0.24405,-0.000866|H,0,-0.12665,2.926554,-0.000056|H,0,-0.060746,-
 2.041742,-0.001237|O,0,-2.433715,-1.026292,-0.000144|H,0,-3.18098,-0.4
 17971,0.000519|H,0,2.052201,1.715563,-0.000942|C,0,2.464111,-0.992604,
 0.000562|H,0,2.562312,-1.617468,0.893605|H,0,2.544737,-1.652581,-0.868
 441|H,0,3.312118,-0.305647,-0.021243||Version=EM64W-G16RevA.03|State=1
 -A|HF=-345.7597582|RMSD=8.867e-008|Dipole=-0.5293448,1.1871128,0.00197
 1|Quadrupole=8.7161203,1.7526705,-10.4687907,-4.0351841,0.0044481,-0.0
 033951|PG=C01 [X(C7H7O1)]||@

 Writing a WFN file to "N-1.wfn"



 IN THIS SHORT LIFE

 THAT ONLY LASTS AN HOUR

 HOW MUCH, HOW LITTLE, IS WITHIN OUR POWER....


 EMILY DICKINSON BOLTS OF MELODY NO. 521
 Job cpu time:       0 days  0 hours  0 minutes 13.0 seconds.
 Elapsed time:       0 days  0 hours  0 minutes 12.8 seconds.
 File lengths (MBytes):  RWF=     10 Int=      0 D2E=      0 Chk=      2 Scr=      1
 Normal termination of Gaussian 16 at Wed Dec 03 16:56:18 2025.
