 Entering Link 1 = D:\Gaussian\G16W\l1.exe PID=     40100.
  
 Copyright (c) 1988,1990,1992,1993,1995,1998,2003,2009,2016,
            Gaussian, Inc.  All Rights Reserved.
  
 This is part of the Gaussian(R) 16 program.  It is based on
 the Gaussian(R) 09 system (copyright 2009, Gaussian, Inc.),
 the Gaussian(R) 03 system (copyright 2003, Gaussian, Inc.),
 the Gaussian(R) 98 system (copyright 1998, Gaussian, Inc.),
 the Gaussian(R) 94 system (copyright 1995, Gaussian, Inc.),
 the Gaussian 92(TM) system (copyright 1992, Gaussian, Inc.),
 the Gaussian 90(TM) system (copyright 1990, Gaussian, Inc.),
 the Gaussian 88(TM) system (copyright 1988, Gaussian, Inc.),
 the Gaussian 86(TM) system (copyright 1986, Carnegie Mellon
 University), and the Gaussian 82(TM) system (copyright 1983,
 Carnegie Mellon University). Gaussian is a federally registered
 trademark of Gaussian, Inc.
  
 This software contains proprietary and confidential information,
 including trade secrets, belonging to Gaussian, Inc.
  
 This software is provided under written license and may be
 used, copied, transmitted, or stored only in accord with that
 written license.
  
 The following legend is applicable only to US Government
 contracts under FAR:
  
                    RESTRICTED RIGHTS LEGEND
  
 Use, reproduction and disclosure by the US Government is
 subject to restrictions as set forth in subparagraphs (a)
 and (c) of the Commercial Computer Software - Restricted
 Rights clause in FAR 52.227-19.
  
 Gaussian, Inc.
 340 Quinnipiac St., Bldg. 40, Wallingford CT 06492
  
  
 ---------------------------------------------------------------
 Warning -- This program may not be used in any manner that
 competes with the business of Gaussian, Inc. or will provide
 assistance to any competitor of Gaussian, Inc.  The licensee
 of this program is prohibited from giving any competitor of
 Gaussian, Inc. access to this program.  By using this program,
 the user acknowledges that Gaussian, Inc. is engaged in the
 business of creating and licensing software in the field of
 computational chemistry and represents and warrants to the
 licensee that it is not a competitor of Gaussian, Inc. and that
 it will not use this program in any manner prohibited above.
 ---------------------------------------------------------------
  

 Cite this work as:
 Gaussian 16, Revision A.03,
 M. J. Frisch, G. W. Trucks, H. B. Schlegel, G. E. Scuseria, 
 M. A. Robb, J. R. Cheeseman, G. Scalmani, V. Barone, 
 G. A. Petersson, H. Nakatsuji, X. Li, M. Caricato, A. V. Marenich, 
 J. Bloino, B. G. Janesko, R. Gomperts, B. Mennucci, H. P. Hratchian, 
 J. V. Ortiz, A. F. Izmaylov, J. L. Sonnenberg, D. Williams-Young, 
 F. Ding, F. Lipparini, F. Egidi, J. Goings, B. Peng, A. Petrone, 
 T. Henderson, D. Ranasinghe, V. G. Zakrzewski, J. Gao, N. Rega, 
 G. Zheng, W. Liang, M. Hada, M. Ehara, K. Toyota, R. Fukuda, 
 J. Hasegawa, M. Ishida, T. Nakajima, Y. Honda, O. Kitao, H. Nakai, 
 T. Vreven, K. Throssell, J. A. Montgomery, Jr., J. E. Peralta, 
 F. Ogliaro, M. J. Bearpark, J. J. Heyd, E. N. Brothers, K. N. Kudin, 
 V. N. Staroverov, T. A. Keith, R. Kobayashi, J. Normand, 
 K. Raghavachari, A. P. Rendell, J. C. Burant, S. S. Iyengar, 
 J. Tomasi, M. Cossi, J. M. Millam, M. Klene, C. Adamo, R. Cammi, 
 J. W. Ochterski, R. L. Martin, K. Morokuma, O. Farkas, 
 J. B. Foresman, and D. J. Fox, Gaussian, Inc., Wallingford CT, 2016.
 
 ******************************************
 Gaussian 16:  EM64W-G16RevA.03 17-Dec-2016
                03-Dec-2025 
 ******************************************
 %nprocs=   4
 Will use up to    4 processors via shared memory.
 ------------------------------------
 #P B3LYP/6-31G* SCF=conver=7 out=wfn
 ------------------------------------
 1/38=1,172=1/1;
 2/12=2,17=6,18=5,40=1/2;
 3/5=1,6=6,7=1,11=2,25=1,30=1,74=-5/1,2,3;
 4//1;
 5/5=2,6=7,38=5/2;
 6/7=2,8=2,9=2,10=2,28=1/1;
 99/5=1,6=100,9=1/99;
 Leave Link    1 at Wed Dec 03 16:55:04 2025, MaxMem=           0 cpu:               0.0 elap:               0.1
 (Enter D:\Gaussian\G16W\l101.exe)
 ----------------------------------------------------
 Generated by Multiwfn (http://sobereva.com/multiwfn)
 ----------------------------------------------------
 Symbolic Z-matrix:
 Charge =  0 Multiplicity = 2
 C                     1.12397   1.15417  -0.00047 
 C                    -0.09904   1.84229   0.00009 
 C                    -1.24118   1.08842   0.00061 
 C                    -1.28421  -0.29166   0.00044 
 C                    -0.05355  -0.95596  -0.00054 
 C                     1.15102  -0.24405  -0.00087 
 H                    -0.12665   2.92655  -0.00006 
 H                    -0.06075  -2.04174  -0.00124 
 O                    -2.43372  -1.02629  -0.00014 
 H                    -3.18098  -0.41797   0.00052 
 H                     2.0522    1.71556  -0.00094 
 C                     2.46411  -0.9926    0.00056 
 H                     2.56231  -1.61747   0.89361 
 H                     2.54474  -1.65258  -0.86844 
 H                     3.31212  -0.30565  -0.02124 
 
 ITRead=  0  0  0  0  0  0  0  0  0  0  0  0  0  0  0
 MicOpt= -1 -1 -1 -1 -1 -1 -1 -1 -1 -1 -1 -1 -1 -1 -1
 NAtoms=     15 NQM=       15 NQMF=       0 NMMI=      0 NMMIF=      0
                NMic=       0 NMicF=      0.
                    Isotopes and Nuclear Properties:
 (Nuclear quadrupole moments (NQMom) in fm**2, nuclear magnetic moments (NMagM)
  in nuclear magnetons)

  Atom         1           2           3           4           5           6           7           8           9          10
 IAtWgt=          12          12          12          12          12          12           1           1          16           1
 AtmWgt=  12.0000000  12.0000000  12.0000000  12.0000000  12.0000000  12.0000000   1.0078250   1.0078250  15.9949146   1.0078250
 NucSpn=           0           0           0           0           0           0           1           1           0           1
 AtZEff=   0.0000000   0.0000000   0.0000000   0.0000000   0.0000000   0.0000000   0.0000000   0.0000000   0.0000000   0.0000000
 NQMom=    0.0000000   0.0000000   0.0000000   0.0000000   0.0000000   0.0000000   0.0000000   0.0000000   0.0000000   0.0000000
 NMagM=    0.0000000   0.0000000   0.0000000   0.0000000   0.0000000   0.0000000   2.7928460   2.7928460   0.0000000   2.7928460
 AtZNuc=   6.0000000   6.0000000   6.0000000   6.0000000   6.0000000   6.0000000   1.0000000   1.0000000   8.0000000   1.0000000

  Atom        11          12          13          14          15
 IAtWgt=           1          12           1           1           1
 AtmWgt=   1.0078250  12.0000000   1.0078250   1.0078250   1.0078250
 NucSpn=           1           0           1           1           1
 AtZEff=   0.0000000   0.0000000   0.0000000   0.0000000   0.0000000
 NQMom=    0.0000000   0.0000000   0.0000000   0.0000000   0.0000000
 NMagM=    2.7928460   0.0000000   2.7928460   2.7928460   2.7928460
 AtZNuc=   1.0000000   6.0000000   1.0000000   1.0000000   1.0000000
 Leave Link  101 at Wed Dec 03 16:55:04 2025, MaxMem=   104857600 cpu:               0.0 elap:               0.1
 (Enter D:\Gaussian\G16W\l202.exe)
                          Input orientation:                          
 ---------------------------------------------------------------------
 Center     Atomic      Atomic             Coordinates (Angstroms)
 Number     Number       Type             X           Y           Z
 ---------------------------------------------------------------------
      1          6           0        1.123969    1.154173   -0.000474
      2          6           0       -0.099039    1.842288    0.000093
      3          6           0       -1.241183    1.088421    0.000613
      4          6           0       -1.284209   -0.291664    0.000438
      5          6           0       -0.053550   -0.955960   -0.000542
      6          6           0        1.151023   -0.244050   -0.000866
      7          1           0       -0.126650    2.926554   -0.000056
      8          1           0       -0.060746   -2.041742   -0.001237
      9          8           0       -2.433715   -1.026292   -0.000144
     10          1           0       -3.180980   -0.417971    0.000519
     11          1           0        2.052201    1.715563   -0.000942
     12          6           0        2.464111   -0.992604    0.000562
     13          1           0        2.562312   -1.617468    0.893605
     14          1           0        2.544737   -1.652581   -0.868441
     15          1           0        3.312118   -0.305647   -0.021243
 ---------------------------------------------------------------------
                    Distance matrix (angstroms):
                    1          2          3          4          5
     1  C    0.000000
     2  C    1.403300   0.000000
     3  C    2.366066   1.368506   0.000000
     4  C    2.808873   2.440979   1.380756   0.000000
     5  C    2.416446   2.798618   2.364311   1.398503   0.000000
     6  C    1.398485   2.432172   2.738271   2.435698   1.399218
     7  H    2.169189   1.084618   2.149632   3.420069   3.883202
     8  H    3.408434   3.884219   3.345348   2.135331   1.085806
     9  O    4.172714   3.698576   2.427786   1.364200   2.381204
    10  H    4.583037   3.821928   2.456019   1.900972   3.173366
    11  H    1.084792   2.154970   3.352564   3.893661   3.401650
    12  C    2.530738   3.821826   4.249690   3.813295   2.517928
    13  H    3.248107   4.455453   4.752457   4.165480   2.842503
    14  H    3.263406   4.467439   4.754107   4.155463   2.826592
    15  H    2.630495   4.031138   4.761980   4.596399   3.427981
                    6          7          8          9         10
     6  C    0.000000
     7  H    3.418359   0.000000
     8  H    2.167967   4.968733   0.000000
     9  O    3.669094   4.576848   2.581109   0.000000
    10  H    4.335493   4.529324   3.517456   0.963566   0.000000
    11  H    2.156897   2.492768   4.310671   5.257491   5.651385
    12  C    1.511468   4.698068   2.734154   4.897942   5.674263
    13  H    2.162890   5.355117   2.803780   5.109654   5.934796
    14  H    2.163119   5.372046   2.773451   5.092265   5.921418
    15  H    2.162069   4.719396   3.793499   5.790887   6.494106
                   11         12         13         14         15
    11  H    0.000000
    12  C    2.739314   0.000000
    13  H    3.488484   1.094360   0.000000
    14  H    3.512768   1.094183   1.762483   0.000000
    15  H    2.381826   1.091559   1.766361   1.766593   0.000000
 Stoichiometry    C7H7O(2)
 Framework group  C1[X(C7H7O)]
 Deg. of freedom    39
 Full point group                 C1      NOp   1
 Largest Abelian subgroup         C1      NOp   1
 Largest concise Abelian subgroup C1      NOp   1
                         Standard orientation:                         
 ---------------------------------------------------------------------
 Center     Atomic      Atomic             Coordinates (Angstroms)
 Number     Number       Type             X           Y           Z
 ---------------------------------------------------------------------
      1          6           0        1.123969    1.154173   -0.000474
      2          6           0       -0.099039    1.842288    0.000093
      3          6           0       -1.241183    1.088421    0.000613
      4          6           0       -1.284209   -0.291664    0.000438
      5          6           0       -0.053550   -0.955960   -0.000542
      6          6           0        1.151023   -0.244050   -0.000866
      7          1           0       -0.126651    2.926554   -0.000056
      8          1           0       -0.060746   -2.041742   -0.001237
      9          8           0       -2.433715   -1.026292   -0.000144
     10          1           0       -3.180980   -0.417971    0.000519
     11          1           0        2.052201    1.715563   -0.000942
     12          6           0        2.464111   -0.992604    0.000562
     13          1           0        2.562312   -1.617468    0.893605
     14          1           0        2.544737   -1.652581   -0.868441
     15          1           0        3.312118   -0.305646   -0.021243
 ---------------------------------------------------------------------
 Rotational constants (GHZ):           3.7395318           1.8243860           1.2355625
 Leave Link  202 at Wed Dec 03 16:55:04 2025, MaxMem=   104857600 cpu:               0.0 elap:               0.0
 (Enter D:\Gaussian\G16W\l301.exe)
 Standard basis: 6-31G(d) (6D, 7F)
 Ernie: Thresh=  0.10000D-02 Tol=  0.10000D-05 Strict=F.
 There are   134 symmetry adapted cartesian basis functions of A   symmetry.
 There are   134 symmetry adapted basis functions of A   symmetry.
   134 basis functions,   252 primitive gaussians,   134 cartesian basis functions
    29 alpha electrons       28 beta electrons
       nuclear repulsion energy       331.9229837224 Hartrees.
 IExCor=  402 DFT=T Ex+Corr=B3LYP ExCW=0 ScaHFX=  0.200000
 ScaDFX=  0.800000  0.720000  1.000000  0.810000 ScalE2=  1.000000  1.000000
 IRadAn=      5 IRanWt=     -1 IRanGd=            0 ICorTp=0 IEmpDi=  4
 NAtoms=   15 NActive=   15 NUniq=   15 SFac= 1.00D+00 NAtFMM=   60 NAOKFM=F Big=F
 Integral buffers will be    131072 words long.
 Raffenetti 2 integral format.
 Two-electron integral symmetry is turned on.
 Leave Link  301 at Wed Dec 03 16:55:04 2025, MaxMem=   104857600 cpu:               0.0 elap:               0.1
 (Enter D:\Gaussian\G16W\l302.exe)
 NPDir=0 NMtPBC=     1 NCelOv=     1 NCel=       1 NClECP=     1 NCelD=      1
         NCelK=      1 NCelE2=     1 NClLst=     1 CellRange=     0.0.
 One-electron integrals computed using PRISM.
 One-electron integral symmetry used in STVInt
 NBasis=   134 RedAO= T EigKep=  5.71D-04  NBF=   134
 NBsUse=   134 1.00D-06 EigRej= -1.00D+00 NBFU=   134
 Precomputing XC quadrature grid using
 IXCGrd= 4 IRadAn=           5 IRanWt=          -1 IRanGd=           0 AccXCQ= 0.00D+00.
 Generated NRdTot=       0 NPtTot=           0 NUsed=           0 NTot=          32
 NSgBfM=   134   134   134   134   134 MxSgAt=    15 MxSgA2=    15.
 Leave Link  302 at Wed Dec 03 16:55:05 2025, MaxMem=   104857600 cpu:               0.0 elap:               0.2
 (Enter D:\Gaussian\G16W\l303.exe)
 DipDrv:  MaxL=1.
 Leave Link  303 at Wed Dec 03 16:55:05 2025, MaxMem=   104857600 cpu:               0.0 elap:               0.1
 (Enter D:\Gaussian\G16W\l401.exe)
 ExpMin= 1.61D-01 ExpMax= 5.48D+03 ExpMxC= 8.25D+02 IAcc=3 IRadAn=         5 AccDes= 0.00D+00
 Harris functional with IExCor=  402 and IRadAn=       5 diagonalized for initial guess.
 HarFok:  IExCor=  402 AccDes= 0.00D+00 IRadAn=         5 IDoV= 1 UseB2=F ITyADJ=14
 ICtDFT=  3500011 ScaDFX=  1.000000  1.000000  1.000000  1.000000
 FoFCou: FMM=F IPFlag=           0 FMFlag=      100000 FMFlg1=           0
         NFxFlg=           0 DoJE=T BraDBF=F KetDBF=T FulRan=T
         wScrn=  0.000000 ICntrl=       500 IOpCl=  0 I1Cent=   200000004 NGrid=           0
         NMat0=    1 NMatS0=      1 NMatT0=    0 NMatD0=    1 NMtDS0=    0 NMtDT0=    0
 Petite list used in FoFCou.
 Harris En= -346.101999169732    
 JPrj=0 DoOrth=F DoCkMO=F.
 Initial guess <Sx>= 0.0000 <Sy>= 0.0000 <Sz>= 0.5000 <S**2>= 0.7500 S= 0.5000
 Leave Link  401 at Wed Dec 03 16:55:06 2025, MaxMem=   104857600 cpu:               1.0 elap:               0.7
 (Enter D:\Gaussian\G16W\l502.exe)
 Keep R1 and R2 ints in memory in canonical form, NReq=85656813.
 FoFCou: FMM=F IPFlag=           0 FMFlag=           0 FMFlg1=           0
         NFxFlg=           0 DoJE=F BraDBF=F KetDBF=F FulRan=T
         wScrn=  0.000000 ICntrl=       600 IOpCl=  0 I1Cent=           0 NGrid=           0
         NMat0=    1 NMatS0=   9045 NMatT0=    0 NMatD0=    1 NMtDS0=    0 NMtDT0=    0
 Symmetry not used in FoFCou.
 Two-electron integral symmetry not used.
 UHF open shell SCF:
 Using DIIS extrapolation, IDIIS=  1040.
 NGot=   104857600 LenX=    22998193 LenY=    22979796
 Requested convergence on RMS density matrix=1.00D-07 within 128 cycles.
 Requested convergence on MAX density matrix=1.00D-05.
 Requested convergence on             energy=1.00D-05.
 No special actions if energy rises.
 Integral accuracy reduced to 1.0D-05 until final iterations.

 Cycle   1  Pass 0  IDiag  1:
 E= -345.888987511734    
 DIIS: error= 4.03D-02 at cycle   1 NSaved=   1.
 NSaved= 1 IEnMin= 1 EnMin= -345.888987511734     IErMin= 1 ErrMin= 4.03D-02
 ErrMax= 4.03D-02  0.00D+00 EMaxC= 1.00D-01 BMatC= 8.00D-01 BMatP= 8.00D-01
 IDIUse=3 WtCom= 5.97D-01 WtEn= 4.03D-01
 Coeff-Com:  0.100D+01
 Coeff-En:   0.100D+01
 Coeff:      0.100D+01
 Gap=     0.308 Goal=   None    Shift=    0.000
 Gap=     0.081 Goal=   None    Shift=    0.000
 GapD=    0.081 DampG=0.500 DampE=0.500 DampFc=0.2500 IDamp=-1.
 Damping current iteration by 2.50D-01
 RMSDP=7.85D-03 MaxDP=1.63D-01              OVMax= 1.68D-01

 Cycle   2  Pass 0  IDiag  1:
 E= -345.962750580358     Delta-E=       -0.073763068624 Rises=F Damp=T
 DIIS: error= 2.18D-02 at cycle   2 NSaved=   2.
 NSaved= 2 IEnMin= 2 EnMin= -345.962750580358     IErMin= 2 ErrMin= 2.18D-02
 ErrMax= 2.18D-02  0.00D+00 EMaxC= 1.00D-01 BMatC= 2.11D-01 BMatP= 8.00D-01
 IDIUse=3 WtCom= 7.82D-01 WtEn= 2.18D-01
 Coeff-Com: -0.878D+00 0.188D+01
 Coeff-En:   0.000D+00 0.100D+01
 Coeff:     -0.686D+00 0.169D+01
 Gap=     0.225 Goal=   None    Shift=    0.000
 Gap=     0.138 Goal=   None    Shift=    0.000
 RMSDP=2.82D-03 MaxDP=6.38D-02 DE=-7.38D-02 OVMax= 1.33D-01

 Cycle   3  Pass 0  IDiag  1:
 E= -346.084701191444     Delta-E=       -0.121950611086 Rises=F Damp=F
 DIIS: error= 7.26D-03 at cycle   3 NSaved=   3.
 NSaved= 3 IEnMin= 3 EnMin= -346.084701191444     IErMin= 3 ErrMin= 7.26D-03
 ErrMax= 7.26D-03  0.00D+00 EMaxC= 1.00D-01 BMatC= 3.27D-02 BMatP= 2.11D-01
 IDIUse=3 WtCom= 9.27D-01 WtEn= 7.26D-02
 Coeff-Com: -0.353D+00 0.792D+00 0.560D+00
 Coeff-En:   0.000D+00 0.000D+00 0.100D+01
 Coeff:     -0.327D+00 0.735D+00 0.592D+00
 Gap=     0.223 Goal=   None    Shift=    0.000
 Gap=     0.118 Goal=   None    Shift=    0.000
 RMSDP=1.24D-03 MaxDP=3.22D-02 DE=-1.22D-01 OVMax= 6.01D-02

 Cycle   4  Pass 0  IDiag  1:
 E= -346.091292014131     Delta-E=       -0.006590822687 Rises=F Damp=F
 DIIS: error= 4.57D-03 at cycle   4 NSaved=   4.
 NSaved= 4 IEnMin= 4 EnMin= -346.091292014131     IErMin= 4 ErrMin= 4.57D-03
 ErrMax= 4.57D-03  0.00D+00 EMaxC= 1.00D-01 BMatC= 1.03D-02 BMatP= 3.27D-02
 IDIUse=3 WtCom= 9.54D-01 WtEn= 4.57D-02
 Coeff-Com:  0.484D-02 0.258D-01 0.359D+00 0.610D+00
 Coeff-En:   0.000D+00 0.000D+00 0.263D+00 0.737D+00
 Coeff:      0.462D-02 0.247D-01 0.355D+00 0.616D+00
 Gap=     0.222 Goal=   None    Shift=    0.000
 Gap=     0.126 Goal=   None    Shift=    0.000
 RMSDP=4.64D-04 MaxDP=1.09D-02 DE=-6.59D-03 OVMax= 2.52D-02

 Cycle   5  Pass 0  IDiag  1:
 E= -346.094235230513     Delta-E=       -0.002943216381 Rises=F Damp=F
 DIIS: error= 9.60D-04 at cycle   5 NSaved=   5.
 NSaved= 5 IEnMin= 5 EnMin= -346.094235230513     IErMin= 5 ErrMin= 9.60D-04
 ErrMax= 9.60D-04  0.00D+00 EMaxC= 1.00D-01 BMatC= 3.97D-04 BMatP= 1.03D-02
 IDIUse=3 WtCom= 9.90D-01 WtEn= 9.60D-03
 Coeff-Com:  0.163D-01-0.191D-01 0.150D+00 0.306D+00 0.547D+00
 Coeff-En:   0.000D+00 0.000D+00 0.000D+00 0.000D+00 0.100D+01
 Coeff:      0.162D-01-0.189D-01 0.148D+00 0.303D+00 0.551D+00
 Gap=     0.222 Goal=   None    Shift=    0.000
 Gap=     0.126 Goal=   None    Shift=    0.000
 RMSDP=1.02D-04 MaxDP=2.43D-03 DE=-2.94D-03 OVMax= 5.74D-03

 Cycle   6  Pass 0  IDiag  1:
 E= -346.094326027255     Delta-E=       -0.000090796742 Rises=F Damp=F
 DIIS: error= 4.43D-04 at cycle   6 NSaved=   6.
 NSaved= 6 IEnMin= 6 EnMin= -346.094326027255     IErMin= 6 ErrMin= 4.43D-04
 ErrMax= 4.43D-04  0.00D+00 EMaxC= 1.00D-01 BMatC= 6.68D-05 BMatP= 3.97D-04
 IDIUse=3 WtCom= 9.96D-01 WtEn= 4.43D-03
 Coeff-Com:  0.646D-02-0.123D-01 0.189D-01 0.575D-01 0.306D+00 0.624D+00
 Coeff-En:   0.000D+00 0.000D+00 0.000D+00 0.000D+00 0.465D-01 0.953D+00
 Coeff:      0.643D-02-0.122D-01 0.188D-01 0.572D-01 0.304D+00 0.625D+00
 Gap=     0.222 Goal=   None    Shift=    0.000
 Gap=     0.126 Goal=   None    Shift=    0.000
 RMSDP=4.14D-05 MaxDP=1.28D-03 DE=-9.08D-05 OVMax= 2.81D-03

 Cycle   7  Pass 0  IDiag  1:
 E= -346.094347166576     Delta-E=       -0.000021139322 Rises=F Damp=F
 DIIS: error= 1.39D-04 at cycle   7 NSaved=   7.
 NSaved= 7 IEnMin= 7 EnMin= -346.094347166576     IErMin= 7 ErrMin= 1.39D-04
 ErrMax= 1.39D-04  0.00D+00 EMaxC= 1.00D-01 BMatC= 6.02D-06 BMatP= 6.68D-05
 IDIUse=3 WtCom= 9.99D-01 WtEn= 1.39D-03
 Coeff-Com: -0.189D-03-0.112D-02-0.118D-01-0.185D-01 0.290D-01 0.181D+00
 Coeff-Com:  0.822D+00
 Coeff-En:   0.000D+00 0.000D+00 0.000D+00 0.000D+00 0.000D+00 0.000D+00
 Coeff-En:   0.100D+01
 Coeff:     -0.188D-03-0.112D-02-0.118D-01-0.184D-01 0.290D-01 0.181D+00
 Coeff:      0.822D+00
 Gap=     0.222 Goal=   None    Shift=    0.000
 Gap=     0.127 Goal=   None    Shift=    0.000
 RMSDP=2.26D-05 MaxDP=8.26D-04 DE=-2.11D-05 OVMax= 1.95D-03

 Cycle   8  Pass 0  IDiag  1:
 E= -346.094352029560     Delta-E=       -0.000004862984 Rises=F Damp=F
 DIIS: error= 1.03D-04 at cycle   8 NSaved=   8.
 NSaved= 8 IEnMin= 8 EnMin= -346.094352029560     IErMin= 8 ErrMin= 1.03D-04
 ErrMax= 1.03D-04  0.00D+00 EMaxC= 1.00D-01 BMatC= 4.18D-06 BMatP= 6.02D-06
 IDIUse=3 WtCom= 9.99D-01 WtEn= 1.03D-03
 Coeff-Com: -0.282D-02 0.432D-02-0.156D-01-0.365D-01-0.114D+00-0.149D+00
 Coeff-Com:  0.566D+00 0.747D+00
 Coeff-En:   0.000D+00 0.000D+00 0.000D+00 0.000D+00 0.000D+00 0.000D+00
 Coeff-En:   0.000D+00 0.100D+01
 Coeff:     -0.281D-02 0.432D-02-0.156D-01-0.365D-01-0.114D+00-0.149D+00
 Coeff:      0.565D+00 0.748D+00
 Gap=     0.222 Goal=   None    Shift=    0.000
 Gap=     0.127 Goal=   None    Shift=    0.000
 RMSDP=1.98D-05 MaxDP=7.43D-04 DE=-4.86D-06 OVMax= 1.67D-03

 Cycle   9  Pass 0  IDiag  1:
 E= -346.094355476558     Delta-E=       -0.000003446998 Rises=F Damp=F
 DIIS: error= 5.00D-05 at cycle   9 NSaved=   9.
 NSaved= 9 IEnMin= 9 EnMin= -346.094355476558     IErMin= 9 ErrMin= 5.00D-05
 ErrMax= 5.00D-05  0.00D+00 EMaxC= 1.00D-01 BMatC= 7.55D-07 BMatP= 4.18D-06
 IDIUse=1 WtCom= 1.00D+00 WtEn= 0.00D+00
 Coeff-Com: -0.102D-02 0.190D-02-0.330D-02-0.101D-01-0.516D-01-0.938D-01
 Coeff-Com:  0.214D-01 0.296D+00 0.840D+00
 Coeff:     -0.102D-02 0.190D-02-0.330D-02-0.101D-01-0.516D-01-0.938D-01
 Coeff:      0.214D-01 0.296D+00 0.840D+00
 Gap=     0.222 Goal=   None    Shift=    0.000
 Gap=     0.127 Goal=   None    Shift=    0.000
 RMSDP=1.09D-05 MaxDP=3.86D-04 DE=-3.45D-06 OVMax= 9.31D-04

 Cycle  10  Pass 0  IDiag  1:
 E= -346.094356356129     Delta-E=       -0.000000879571 Rises=F Damp=F
 DIIS: error= 3.09D-05 at cycle  10 NSaved=  10.
 NSaved=10 IEnMin=10 EnMin= -346.094356356129     IErMin=10 ErrMin= 3.09D-05
 ErrMax= 3.09D-05  0.00D+00 EMaxC= 1.00D-01 BMatC= 4.25D-07 BMatP= 7.55D-07
 IDIUse=1 WtCom= 1.00D+00 WtEn= 0.00D+00
 Coeff-Com:  0.621D-03-0.682D-03 0.513D-02 0.103D-01 0.173D-01 0.362D-02
 Coeff-Com: -0.254D+00-0.149D+00 0.598D+00 0.769D+00
 Coeff:      0.621D-03-0.682D-03 0.513D-02 0.103D-01 0.173D-01 0.362D-02
 Coeff:     -0.254D+00-0.149D+00 0.598D+00 0.769D+00
 Gap=     0.222 Goal=   None    Shift=    0.000
 Gap=     0.127 Goal=   None    Shift=    0.000
 RMSDP=7.95D-06 MaxDP=3.03D-04 DE=-8.80D-07 OVMax= 7.11D-04

 Initial convergence to 1.0D-05 achieved.  Increase integral accuracy.
 Cycle  11  Pass 1  IDiag  1:
 E= -346.094346804606     Delta-E=        0.000009551523 Rises=F Damp=F
 DIIS: error= 8.19D-06 at cycle   1 NSaved=   1.
 NSaved= 1 IEnMin= 1 EnMin= -346.094346804606     IErMin= 1 ErrMin= 8.19D-06
 ErrMax= 8.19D-06  0.00D+00 EMaxC= 1.00D-01 BMatC= 4.47D-08 BMatP= 4.47D-08
 IDIUse=1 WtCom= 1.00D+00 WtEn= 0.00D+00
 Coeff-Com:  0.100D+01
 Coeff:      0.100D+01
 Gap=     0.222 Goal=   None    Shift=    0.000
 Gap=     0.126 Goal=   None    Shift=    0.000
 RMSDP=7.95D-06 MaxDP=3.03D-04 DE= 9.55D-06 OVMax= 1.54D-04

 Cycle  12  Pass 1  IDiag  1:
 E= -346.094346825253     Delta-E=       -0.000000020646 Rises=F Damp=F
 DIIS: error= 1.15D-05 at cycle   2 NSaved=   2.
 NSaved= 2 IEnMin= 2 EnMin= -346.094346825253     IErMin= 1 ErrMin= 8.19D-06
 ErrMax= 1.15D-05  0.00D+00 EMaxC= 1.00D-01 BMatC= 5.95D-08 BMatP= 4.47D-08
 IDIUse=1 WtCom= 1.00D+00 WtEn= 0.00D+00
 Coeff-Com:  0.547D+00 0.453D+00
 Coeff:      0.547D+00 0.453D+00
 Gap=     0.222 Goal=   None    Shift=    0.000
 Gap=     0.127 Goal=   None    Shift=    0.000
 RMSDP=1.04D-06 MaxDP=4.53D-05 DE=-2.06D-08 OVMax= 6.82D-05

 Cycle  13  Pass 1  IDiag  1:
 E= -346.094346842490     Delta-E=       -0.000000017237 Rises=F Damp=F
 DIIS: error= 4.32D-06 at cycle   3 NSaved=   3.
 NSaved= 3 IEnMin= 3 EnMin= -346.094346842490     IErMin= 3 ErrMin= 4.32D-06
 ErrMax= 4.32D-06  0.00D+00 EMaxC= 1.00D-01 BMatC= 6.35D-09 BMatP= 4.47D-08
 IDIUse=1 WtCom= 1.00D+00 WtEn= 0.00D+00
 Coeff-Com: -0.165D+00 0.900D-01 0.108D+01
 Coeff:     -0.165D+00 0.900D-01 0.108D+01
 Gap=     0.222 Goal=   None    Shift=    0.000
 Gap=     0.127 Goal=   None    Shift=    0.000
 RMSDP=9.52D-07 MaxDP=3.81D-05 DE=-1.72D-08 OVMax= 7.75D-05

 Cycle  14  Pass 1  IDiag  1:
 E= -346.094346850661     Delta-E=       -0.000000008171 Rises=F Damp=F
 DIIS: error= 3.09D-06 at cycle   4 NSaved=   4.
 NSaved= 4 IEnMin= 4 EnMin= -346.094346850661     IErMin= 4 ErrMin= 3.09D-06
 ErrMax= 3.09D-06  0.00D+00 EMaxC= 1.00D-01 BMatC= 3.14D-09 BMatP= 6.35D-09
 IDIUse=1 WtCom= 1.00D+00 WtEn= 0.00D+00
 Coeff-Com: -0.274D+00-0.102D+00 0.596D+00 0.780D+00
 Coeff:     -0.274D+00-0.102D+00 0.596D+00 0.780D+00
 Gap=     0.222 Goal=   None    Shift=    0.000
 Gap=     0.126 Goal=   None    Shift=    0.000
 RMSDP=6.71D-07 MaxDP=2.39D-05 DE=-8.17D-09 OVMax= 5.58D-05

 Cycle  15  Pass 1  IDiag  1:
 E= -346.094346854018     Delta-E=       -0.000000003357 Rises=F Damp=F
 DIIS: error= 1.88D-06 at cycle   5 NSaved=   5.
 NSaved= 5 IEnMin= 5 EnMin= -346.094346854018     IErMin= 5 ErrMin= 1.88D-06
 ErrMax= 1.88D-06  0.00D+00 EMaxC= 1.00D-01 BMatC= 1.17D-09 BMatP= 3.14D-09
 IDIUse=1 WtCom= 1.00D+00 WtEn= 0.00D+00
 Coeff-Com: -0.126D+00-0.993D-01 0.302D-01 0.488D+00 0.707D+00
 Coeff:     -0.126D+00-0.993D-01 0.302D-01 0.488D+00 0.707D+00
 Gap=     0.222 Goal=   None    Shift=    0.000
 Gap=     0.126 Goal=   None    Shift=    0.000
 RMSDP=3.88D-07 MaxDP=1.34D-05 DE=-3.36D-09 OVMax= 3.17D-05

 Cycle  16  Pass 1  IDiag  1:
 E= -346.094346855063     Delta-E=       -0.000000001045 Rises=F Damp=F
 DIIS: error= 7.49D-07 at cycle   6 NSaved=   6.
 NSaved= 6 IEnMin= 6 EnMin= -346.094346855063     IErMin= 6 ErrMin= 7.49D-07
 ErrMax= 7.49D-07  0.00D+00 EMaxC= 1.00D-01 BMatC= 2.08D-10 BMatP= 1.17D-09
 IDIUse=1 WtCom= 1.00D+00 WtEn= 0.00D+00
 Coeff-Com:  0.184D-01-0.200D-01-0.150D+00 0.204D-01 0.307D+00 0.824D+00
 Coeff:      0.184D-01-0.200D-01-0.150D+00 0.204D-01 0.307D+00 0.824D+00
 Gap=     0.222 Goal=   None    Shift=    0.000
 Gap=     0.126 Goal=   None    Shift=    0.000
 RMSDP=1.86D-07 MaxDP=6.18D-06 DE=-1.04D-09 OVMax= 1.53D-05

 Cycle  17  Pass 1  IDiag  1:
 E= -346.094346855256     Delta-E=       -0.000000000194 Rises=F Damp=F
 DIIS: error= 4.25D-07 at cycle   7 NSaved=   7.
 NSaved= 7 IEnMin= 7 EnMin= -346.094346855256     IErMin= 7 ErrMin= 4.25D-07
 ErrMax= 4.25D-07  0.00D+00 EMaxC= 1.00D-01 BMatC= 8.28D-11 BMatP= 2.08D-10
 IDIUse=1 WtCom= 1.00D+00 WtEn= 0.00D+00
 Coeff-Com:  0.444D-01 0.167D-01-0.908D-01-0.127D+00-0.318D-01 0.499D+00
 Coeff-Com:  0.690D+00
 Coeff:      0.444D-01 0.167D-01-0.908D-01-0.127D+00-0.318D-01 0.499D+00
 Coeff:      0.690D+00
 Gap=     0.222 Goal=   None    Shift=    0.000
 Gap=     0.126 Goal=   None    Shift=    0.000
 RMSDP=8.46D-08 MaxDP=3.21D-06 DE=-1.94D-10 OVMax= 7.21D-06

 SCF Done:  E(UB3LYP) =  -346.094346855     A.U. after   17 cycles
            NFock= 17  Conv=0.85D-07     -V/T= 2.0093
 <Sx>= 0.0000 <Sy>= 0.0000 <Sz>= 0.5000 <S**2>= 0.7573 S= 0.5036
 <L.S>= 0.000000000000E+00
 KE= 3.429167740903D+02 PE=-1.468319357425D+03 EE= 4.473852527576D+02
 Annihilation of the first spin contaminant:
 S**2 before annihilation     0.7573,   after     0.7500
 Leave Link  502 at Wed Dec 03 16:55:26 2025, MaxMem=   104857600 cpu:              20.0 elap:              20.7
 (Enter D:\Gaussian\G16W\l601.exe)
 Copying SCF densities to generalized density rwf, IOpCl= 1 IROHF=0.

 **********************************************************************

            Population analysis using the SCF density.

 **********************************************************************

 Orbital symmetries:
 Alpha Orbitals:
       Occupied  (A) (A) (A) (A) (A) (A) (A) (A) (A) (A) (A) (A)
                 (A) (A) (A) (A) (A) (A) (A) (A) (A) (A) (A) (A)
                 (A) (A) (A) (A) (A)
       Virtual   (A) (A) (A) (A) (A) (A) (A) (A) (A) (A) (A) (A)
                 (A) (A) (A) (A) (A) (A) (A) (A) (A) (A) (A) (A)
                 (A) (A) (A) (A) (A) (A) (A) (A) (A) (A) (A) (A)
                 (A) (A) (A) (A) (A) (A) (A) (A) (A) (A) (A) (A)
                 (A) (A) (A) (A) (A) (A) (A) (A) (A) (A) (A) (A)
                 (A) (A) (A) (A) (A) (A) (A) (A) (A) (A) (A) (A)
                 (A) (A) (A) (A) (A) (A) (A) (A) (A) (A) (A) (A)
                 (A) (A) (A) (A) (A) (A) (A) (A) (A) (A) (A) (A)
                 (A) (A) (A) (A) (A) (A) (A) (A) (A)
 Beta  Orbitals:
       Occupied  (A) (A) (A) (A) (A) (A) (A) (A) (A) (A) (A) (A)
                 (A) (A) (A) (A) (A) (A) (A) (A) (A) (A) (A) (A)
                 (A) (A) (A) (A)
       Virtual   (A) (A) (A) (A) (A) (A) (A) (A) (A) (A) (A) (A)
                 (A) (A) (A) (A) (A) (A) (A) (A) (A) (A) (A) (A)
                 (A) (A) (A) (A) (A) (A) (A) (A) (A) (A) (A) (A)
                 (A) (A) (A) (A) (A) (A) (A) (A) (A) (A) (A) (A)
                 (A) (A) (A) (A) (A) (A) (A) (A) (A) (A) (A) (A)
                 (A) (A) (A) (A) (A) (A) (A) (A) (A) (A) (A) (A)
                 (A) (A) (A) (A) (A) (A) (A) (A) (A) (A) (A) (A)
                 (A) (A) (A) (A) (A) (A) (A) (A) (A) (A) (A) (A)
                 (A) (A) (A) (A) (A) (A) (A) (A) (A) (A)
 The electronic state is 2-A.
 Alpha  occ. eigenvalues --  -19.17853 -10.25331 -10.20633 -10.19680 -10.19603
 Alpha  occ. eigenvalues --  -10.18581 -10.18473 -10.18219  -1.06143  -0.85789
 Alpha  occ. eigenvalues --   -0.76971  -0.74476  -0.68021  -0.60842  -0.60583
 Alpha  occ. eigenvalues --   -0.51954  -0.48936  -0.46584  -0.44104  -0.42186
 Alpha  occ. eigenvalues --   -0.40085  -0.40006  -0.37775  -0.37037  -0.35198
 Alpha  occ. eigenvalues --   -0.32854  -0.24979  -0.24564  -0.22304
 Alpha virt. eigenvalues --   -0.00089   0.01684   0.08170   0.10983   0.12628
 Alpha virt. eigenvalues --    0.15181   0.15274   0.16220   0.18894   0.20490
 Alpha virt. eigenvalues --    0.23790   0.24778   0.31336   0.32726   0.33648
 Alpha virt. eigenvalues --    0.37604   0.46463   0.48208   0.51689   0.53088
 Alpha virt. eigenvalues --    0.55148   0.55463   0.57723   0.58507   0.60256
 Alpha virt. eigenvalues --    0.61332   0.62746   0.63538   0.64491   0.67889
 Alpha virt. eigenvalues --    0.70370   0.71873   0.71969   0.75695   0.78316
 Alpha virt. eigenvalues --    0.78453   0.84226   0.86416   0.88253   0.88464
 Alpha virt. eigenvalues --    0.91610   0.92295   0.95318   0.96350   0.96550
 Alpha virt. eigenvalues --    0.98002   1.04350   1.07097   1.11187   1.16217
 Alpha virt. eigenvalues --    1.20436   1.24630   1.24928   1.31957   1.35111
 Alpha virt. eigenvalues --    1.37738   1.39545   1.43647   1.44675   1.49893
 Alpha virt. eigenvalues --    1.50498   1.66326   1.73148   1.74534   1.78599
 Alpha virt. eigenvalues --    1.78961   1.81693   1.86635   1.89424   1.89892
 Alpha virt. eigenvalues --    1.94614   1.96082   1.97095   2.07873   2.10976
 Alpha virt. eigenvalues --    2.12850   2.13226   2.22302   2.23525   2.28665
 Alpha virt. eigenvalues --    2.32251   2.32735   2.34876   2.40193   2.40604
 Alpha virt. eigenvalues --    2.50851   2.51838   2.58340   2.67204   2.67921
 Alpha virt. eigenvalues --    2.76089   2.78994   2.82251   2.85098   2.94217
 Alpha virt. eigenvalues --    3.13179   3.39254   3.94045   4.07864   4.11063
 Alpha virt. eigenvalues --    4.16380   4.23047   4.36392   4.43997   4.74179
  Beta  occ. eigenvalues --  -19.17825 -10.25319 -10.19731 -10.19635 -10.19168
  Beta  occ. eigenvalues --  -10.18452 -10.18383 -10.18214  -1.06021  -0.85091
  Beta  occ. eigenvalues --   -0.76188  -0.74139  -0.67135  -0.60597  -0.59920
  Beta  occ. eigenvalues --   -0.51490  -0.48198  -0.45838  -0.43573  -0.42183
  Beta  occ. eigenvalues --   -0.39932  -0.39922  -0.37323  -0.36670  -0.34590
  Beta  occ. eigenvalues --   -0.32684  -0.24152  -0.21861
  Beta virt. eigenvalues --   -0.09211   0.00220   0.02111   0.08668   0.11351
  Beta virt. eigenvalues --    0.12763   0.15419   0.15671   0.16364   0.19057
  Beta virt. eigenvalues --    0.20708   0.23880   0.25321   0.31969   0.33365
  Beta virt. eigenvalues --    0.34111   0.38187   0.47635   0.49804   0.51859
  Beta virt. eigenvalues --    0.53830   0.55391   0.55640   0.58108   0.59953
  Beta virt. eigenvalues --    0.60239   0.61966   0.63598   0.65083   0.66605
  Beta virt. eigenvalues --    0.68023   0.70641   0.71977   0.72582   0.75749
  Beta virt. eigenvalues --    0.78603   0.78847   0.84649   0.86656   0.88258
  Beta virt. eigenvalues --    0.88718   0.91682   0.92923   0.95409   0.96373
  Beta virt. eigenvalues --    0.96725   0.98375   1.04943   1.07597   1.11619
  Beta virt. eigenvalues --    1.16469   1.20658   1.24917   1.25085   1.33057
  Beta virt. eigenvalues --    1.35758   1.37949   1.39527   1.43817   1.44970
  Beta virt. eigenvalues --    1.49978   1.53462   1.68221   1.73410   1.75165
  Beta virt. eigenvalues --    1.79023   1.80728   1.82601   1.86806   1.89630
  Beta virt. eigenvalues --    1.90055   1.95331   1.96378   1.98319   2.08769
  Beta virt. eigenvalues --    2.11554   2.13513   2.14148   2.22982   2.23958
  Beta virt. eigenvalues --    2.28824   2.32447   2.33066   2.35181   2.40403
  Beta virt. eigenvalues --    2.41252   2.51869   2.52325   2.58943   2.67745
  Beta virt. eigenvalues --    2.68343   2.76622   2.80292   2.82823   2.85709
  Beta virt. eigenvalues --    2.94509   3.14427   3.40201   3.94157   4.08880
  Beta virt. eigenvalues --    4.11839   4.17058   4.23347   4.36801   4.44399
  Beta virt. eigenvalues --    4.74888
          Condensed to atoms (all electrons):
               1          2          3          4          5          6
     1  C    4.939966   0.519370  -0.030192  -0.036487  -0.038623   0.559063
     2  C    0.519370   4.944120   0.481911  -0.034507  -0.039227  -0.009790
     3  C   -0.030192   0.481911   5.357496   0.463349  -0.059933  -0.064525
     4  C   -0.036487  -0.034507   0.463349   4.525674   0.539571   0.004312
     5  C   -0.038623  -0.039227  -0.059933   0.539571   5.036415   0.524310
     6  C    0.559063  -0.009790  -0.064525   0.004312   0.524310   4.631766
     7  H   -0.034433   0.348900  -0.035004   0.002598   0.000969   0.003255
     8  H    0.006742  -0.000710   0.009463  -0.046069   0.348409  -0.052822
     9  O    0.000430   0.003697  -0.059709   0.277310  -0.043818   0.001705
    10  H   -0.000090   0.000969   0.003637  -0.032333   0.006114   0.000061
    11  H    0.353993  -0.053132   0.007270  -0.000136   0.007356  -0.041816
    12  C   -0.053237   0.007773   0.000391   0.006209  -0.067728   0.352122
    13  H    0.000402  -0.000186   0.000035  -0.000037  -0.002875  -0.026774
    14  H    0.000647  -0.000187   0.000034  -0.000022  -0.002868  -0.026896
    15  H   -0.002897   0.000082   0.000027  -0.000169   0.003827  -0.029386
               7          8          9         10         11         12
     1  C   -0.034433   0.006742   0.000430  -0.000090   0.353993  -0.053237
     2  C    0.348900  -0.000710   0.003697   0.000969  -0.053132   0.007773
     3  C   -0.035004   0.009463  -0.059709   0.003637   0.007270   0.000391
     4  C    0.002598  -0.046069   0.277310  -0.032333  -0.000136   0.006209
     5  C    0.000969   0.348409  -0.043818   0.006114   0.007356  -0.067728
     6  C    0.003255  -0.052822   0.001705   0.000061  -0.041816   0.352122
     7  H    0.574309   0.000016  -0.000046  -0.000014  -0.005300  -0.000187
     8  H    0.000016   0.606587  -0.000981  -0.000527  -0.000130  -0.008840
     9  O   -0.000046  -0.000981   8.212521   0.242525   0.000002  -0.000055
    10  H   -0.000014  -0.000527   0.242525   0.370039  -0.000002   0.000004
    11  H   -0.005300  -0.000130   0.000002  -0.000002   0.612285  -0.010983
    12  C   -0.000187  -0.008840  -0.000055   0.000004  -0.010983   5.209545
    13  H    0.000003   0.001835   0.000000   0.000000   0.000143   0.364093
    14  H    0.000003   0.002022   0.000000   0.000000   0.000129   0.364185
    15  H   -0.000007   0.000081   0.000000   0.000000   0.007076   0.365018
              13         14         15
     1  C    0.000402   0.000647  -0.002897
     2  C   -0.000186  -0.000187   0.000082
     3  C    0.000035   0.000034   0.000027
     4  C   -0.000037  -0.000022  -0.000169
     5  C   -0.002875  -0.002868   0.003827
     6  C   -0.026774  -0.026896  -0.029386
     7  H    0.000003   0.000003  -0.000007
     8  H    0.001835   0.002022   0.000081
     9  O    0.000000   0.000000   0.000000
    10  H    0.000000   0.000000   0.000000
    11  H    0.000143   0.000129   0.007076
    12  C    0.364093   0.364185   0.365018
    13  H    0.559560  -0.032668  -0.027885
    14  H   -0.032668   0.559502  -0.027763
    15  H   -0.027885  -0.027763   0.557326
          Atomic-Atomic Spin Densities.
               1          2          3          4          5          6
     1  C    0.075876   0.019845  -0.010107   0.000295   0.002390  -0.009504
     2  C    0.019845  -0.079148  -0.026830   0.003296  -0.000571   0.011749
     3  C   -0.010107  -0.026830   1.061089  -0.016525  -0.008191  -0.028151
     4  C    0.000295   0.003296  -0.016525  -0.057451   0.010779   0.006784
     5  C    0.002390  -0.000571  -0.008191   0.010779   0.061439  -0.010014
     6  C   -0.009504   0.011749  -0.028151   0.006784  -0.010014  -0.002867
     7  H   -0.006461   0.008542  -0.004154  -0.000363   0.000103  -0.000648
     8  H    0.000821  -0.000374   0.003473  -0.001659  -0.006837  -0.009064
     9  O    0.000046  -0.000402  -0.006926   0.013772  -0.002852  -0.000384
    10  H   -0.000016   0.000202   0.010939  -0.002890   0.001416   0.000166
    11  H   -0.009069  -0.002551   0.003316  -0.000135   0.000910  -0.004412
    12  C   -0.001891   0.000006  -0.000472  -0.000118  -0.002434   0.005964
    13  H    0.000134  -0.000010   0.000019  -0.000013   0.000196   0.000462
    14  H    0.000135  -0.000010   0.000020  -0.000013   0.000211   0.000414
    15  H    0.000157  -0.000019   0.000024  -0.000001   0.000144  -0.000157
               7          8          9         10         11         12
     1  C   -0.006461   0.000821   0.000046  -0.000016  -0.009069  -0.001891
     2  C    0.008542  -0.000374  -0.000402   0.000202  -0.002551   0.000006
     3  C   -0.004154   0.003473  -0.006926   0.010939   0.003316  -0.000472
     4  C   -0.000363  -0.001659   0.013772  -0.002890  -0.000135  -0.000118
     5  C    0.000103  -0.006837  -0.002852   0.001416   0.000910  -0.002434
     6  C   -0.000648  -0.009064  -0.000384   0.000166  -0.004412   0.005964
     7  H    0.021746   0.000007   0.000008  -0.000019   0.001712  -0.000012
     8  H    0.000007   0.028652   0.000392  -0.000354   0.000062  -0.000699
     9  O    0.000008   0.000392   0.010612  -0.008228   0.000001  -0.000002
    10  H   -0.000019  -0.000354  -0.008228   0.011598  -0.000001   0.000001
    11  H    0.001712   0.000062   0.000001  -0.000001   0.020203  -0.001220
    12  C   -0.000012  -0.000699  -0.000002   0.000001  -0.001220   0.005396
    13  H    0.000000   0.000151   0.000000   0.000000   0.000040  -0.000532
    14  H    0.000000   0.000166   0.000000   0.000000   0.000040  -0.000555
    15  H    0.000002   0.000029   0.000000   0.000000   0.000297  -0.000648
              13         14         15
     1  C    0.000134   0.000135   0.000157
     2  C   -0.000010  -0.000010  -0.000019
     3  C    0.000019   0.000020   0.000024
     4  C   -0.000013  -0.000013  -0.000001
     5  C    0.000196   0.000211   0.000144
     6  C    0.000462   0.000414  -0.000157
     7  H    0.000000   0.000000   0.000002
     8  H    0.000151   0.000166   0.000029
     9  O    0.000000   0.000000   0.000000
    10  H    0.000000   0.000000   0.000000
    11  H    0.000040   0.000040   0.000297
    12  C   -0.000532  -0.000555  -0.000648
    13  H   -0.002720   0.000747   0.000121
    14  H    0.000747  -0.002573   0.000097
    15  H    0.000121   0.000097  -0.000052
 Mulliken charges and spin densities:
               1          2
     1  C   -0.184655   0.062649
     2  C   -0.169081  -0.066276
     3  C   -0.074250   0.977523
     4  C    0.330738  -0.044242
     5  C   -0.211901   0.046689
     6  C    0.175415  -0.039661
     7  H    0.144938   0.020462
     8  H    0.134924   0.014765
     9  O   -0.633581   0.006038
    10  H    0.409617   0.012813
    11  H    0.123242   0.009192
    12  C   -0.528311   0.002784
    13  H    0.164355  -0.001405
    14  H    0.163882  -0.001322
    15  H    0.154669  -0.000007
 Sum of Mulliken charges =   0.00000   1.00000
 Mulliken charges and spin densities with hydrogens summed into heavy atoms:
               1          2
     1  C   -0.061413   0.071840
     2  C   -0.024143  -0.045814
     3  C   -0.074250   0.977523
     4  C    0.330738  -0.044242
     5  C   -0.076977   0.061454
     6  C    0.175415  -0.039661
     9  O   -0.223965   0.018851
    12  C   -0.045405   0.000049
 Electronic spatial extent (au):  <R**2>=            941.4534
 Charge=              0.0000 electrons
 Dipole moment (field-independent basis, Debye):
    X=              0.1643    Y=              0.6706    Z=              0.0032  Tot=              0.6905
 Quadrupole moment (field-independent basis, Debye-Ang):
   XX=            -39.0827   YY=            -44.9805   ZZ=            -49.0617
   XY=             -2.3023   XZ=              0.0007   YZ=             -0.0026
 Traceless Quadrupole moment (field-independent basis, Debye-Ang):
   XX=              5.2923   YY=             -0.6055   ZZ=             -4.6868
   XY=             -2.3023   XZ=              0.0007   YZ=             -0.0026
 Octapole moment (field-independent basis, Debye-Ang**2):
  XXX=            -30.2857  YYY=              1.5927  ZZZ=              0.0409  XYY=              5.6826
  XXY=              3.8719  XXZ=              0.0123  XZZ=             -2.6819  YZZ=             -4.2521
  YYZ=             -0.0291  XYZ=             -0.0145
 Hexadecapole moment (field-independent basis, Debye-Ang**3):
 XXXX=           -636.4515 YYYY=           -386.3546 ZZZZ=            -55.3586 XXXY=              8.5361
 XXXZ=             -0.0891 YYYX=              6.5836 YYYZ=              0.0989 ZZZX=              0.1151
 ZZZY=             -0.0523 XXYY=           -209.4395 XXZZ=           -138.6816 YYZZ=            -82.6298
 XXYZ=             -0.0874 YYXZ=             -0.0390 ZZXY=              1.0760
 N-N= 3.319229837224D+02 E-N=-1.468319370696D+03  KE= 3.429167740903D+02
                          Isotropic Fermi Contact Couplings
        Atom                 a.u.       MegaHertz       Gauss      10(-4) cm-1
     1  C(13)              0.03708      41.68163      14.87304      13.90349
     2  C(13)             -0.00174      -1.95406      -0.69726      -0.65180
     3  C(13)              0.31179     350.51154     125.07123     116.91807
     4  C(13)             -0.00567      -6.37502      -2.27476      -2.12648
     5  C(13)              0.02283      25.66072       9.15638       8.55950
     6  C(13)             -0.00459      -5.15457      -1.83928      -1.71938
     7  H(1)               0.01225      54.75744      19.53882      18.26512
     8  H(1)               0.00600      26.83255       9.57452       8.95037
     9  O(17)              0.01827     -11.07659      -3.95240      -3.69475
    10  H(1)               0.00024       1.06250       0.37913       0.35441
    11  H(1)               0.00296      13.23201       4.72151       4.41372
    12  C(13)              0.00280       3.15253       1.12490       1.05157
    13  H(1)              -0.00076      -3.41623      -1.21899      -1.13953
    14  H(1)              -0.00073      -3.24530      -1.15800      -1.08252
    15  H(1)              -0.00005      -0.22626      -0.08074      -0.07547
 --------------------------------------------------------
       Center         ----  Spin Dipole Couplings  ----
                      3XX-RR        3YY-RR        3ZZ-RR
 --------------------------------------------------------
     1   Atom        0.038698     -0.022949     -0.015749
     2   Atom        0.095290     -0.000759     -0.094532
     3   Atom        0.552968     -0.162931     -0.390037
     4   Atom       -0.037379      0.140854     -0.103475
     5   Atom        0.012600     -0.003899     -0.008701
     6   Atom        0.025499      0.017960     -0.043459
     7   Atom        0.002914      0.009507     -0.012421
     8   Atom       -0.003397      0.008930     -0.005534
     9   Atom       -0.007131      0.067077     -0.059946
    10   Atom        0.005237      0.006981     -0.012218
    11   Atom        0.008670     -0.002605     -0.006066
    12   Atom        0.001820      0.000456     -0.002276
    13   Atom        0.001315     -0.000110     -0.001206
    14   Atom        0.001317     -0.000107     -0.001209
    15   Atom        0.001905     -0.000457     -0.001448
 --------------------------------------------------------
                        XY            XZ            YZ
 --------------------------------------------------------
     1   Atom       -0.038880     -0.000118      0.000078
     2   Atom        0.032153     -0.000092     -0.000016
     3   Atom       -0.606983      0.000034      0.000011
     4   Atom       -0.005313     -0.000019      0.000163
     5   Atom       -0.037097     -0.000055      0.000037
     6   Atom       -0.005141     -0.000005     -0.000001
     7   Atom        0.016232     -0.000008     -0.000010
     8   Atom       -0.002150     -0.000002      0.000007
     9   Atom        0.037458     -0.000028     -0.000032
    10   Atom        0.013986     -0.000004      0.000003
    11   Atom        0.004675     -0.000009      0.000000
    12   Atom       -0.001755      0.000018     -0.000022
    13   Atom       -0.001305      0.000666     -0.000264
    14   Atom       -0.001320     -0.000657      0.000260
    15   Atom       -0.001243     -0.000019      0.000011
 --------------------------------------------------------


 ---------------------------------------------------------------------------------
              Anisotropic Spin Dipole Couplings in Principal Axis System
 ---------------------------------------------------------------------------------

       Atom             a.u.   MegaHertz   Gauss  10(-4) cm-1        Axes

              Baa    -0.0417    -5.601    -1.999    -1.868  0.4352  0.9003 -0.0007
     1 C(13)  Bbb    -0.0157    -2.113    -0.754    -0.705  0.0020 -0.0002  1.0000
              Bcc     0.0575     7.715     2.753     2.573  0.9003 -0.4352 -0.0019
 
              Baa    -0.0945   -12.685    -4.526    -4.231  0.0005  0.0000  1.0000
     2 C(13)  Bbb    -0.0105    -1.413    -0.504    -0.471 -0.2907  0.9568  0.0001
              Bcc     0.1051    14.098     5.031     4.703  0.9568  0.2907 -0.0005
 
              Baa    -0.5096   -68.390   -24.403   -22.812  0.4960  0.8683 -0.0002
     3 C(13)  Bbb    -0.3900   -52.339   -18.676   -17.458  0.0001  0.0002  1.0000
              Bcc     0.8997   120.729    43.079    40.271  0.8683 -0.4960  0.0000
 
              Baa    -0.1035   -13.885    -4.955    -4.632  0.0002 -0.0007  1.0000
     4 C(13)  Bbb    -0.0375    -5.037    -1.797    -1.680  0.9996  0.0298 -0.0002
              Bcc     0.1410    18.923     6.752     6.312 -0.0298  0.9996  0.0007
 
              Baa    -0.0337    -4.516    -1.611    -1.506  0.6257  0.7801  0.0002
     5 C(13)  Bbb    -0.0087    -1.168    -0.417    -0.389  0.0009 -0.0010  1.0000
              Bcc     0.0424     5.683     2.028     1.896  0.7801 -0.6257 -0.0013
 
              Baa    -0.0435    -5.832    -2.081    -1.945  0.0001  0.0000  1.0000
     6 C(13)  Bbb     0.0154     2.060     0.735     0.687  0.4520  0.8920  0.0000
              Bcc     0.0281     3.771     1.346     1.258  0.8920 -0.4520 -0.0001
 
              Baa    -0.0124    -6.627    -2.365    -2.211  0.0000  0.0005  1.0000
     7 H(1)   Bbb    -0.0104    -5.524    -1.971    -1.843  0.7743 -0.6328  0.0003
              Bcc     0.0228    12.151     4.336     4.053  0.6328  0.7743 -0.0004
 
              Baa    -0.0055    -2.952    -1.053    -0.985  0.0006 -0.0004  1.0000
     8 H(1)   Bbb    -0.0038    -2.007    -0.716    -0.669  0.9859  0.1671 -0.0005
              Bcc     0.0093     4.959     1.770     1.654 -0.1671  0.9859  0.0005
 
              Baa    -0.0599     4.338     1.548     1.447  0.0005  0.0001  1.0000
     9 O(17)  Bbb    -0.0228     1.646     0.587     0.549  0.9230 -0.3849 -0.0004
              Bcc     0.0827    -5.984    -2.135    -1.996  0.3849  0.9230 -0.0003
 
              Baa    -0.0122    -6.519    -2.326    -2.175  0.0008 -0.0007  1.0000
    10 H(1)   Bbb    -0.0079    -4.217    -1.505    -1.407  0.7288 -0.6847 -0.0011
              Bcc     0.0201    10.737     3.831     3.581  0.6847  0.7288  0.0000
 
              Baa    -0.0061    -3.236    -1.155    -1.080  0.0011 -0.0015  1.0000
    11 H(1)   Bbb    -0.0043    -2.290    -0.817    -0.764 -0.3393  0.9407  0.0018
              Bcc     0.0104     5.526     1.972     1.843  0.9407  0.3393 -0.0005
 
              Baa    -0.0023    -0.305    -0.109    -0.102 -0.0012  0.0072  1.0000
    12 C(13)  Bbb    -0.0007    -0.100    -0.036    -0.033  0.5648  0.8252 -0.0052
              Bcc     0.0030     0.405     0.145     0.135  0.8252 -0.5648  0.0051
 
              Baa    -0.0014    -0.734    -0.262    -0.245 -0.2796 -0.0884  0.9561
    13 H(1)   Bbb    -0.0009    -0.458    -0.164    -0.153  0.4539  0.8653  0.2127
              Bcc     0.0022     1.193     0.426     0.398  0.8460 -0.4935  0.2018
 
              Baa    -0.0014    -0.734    -0.262    -0.245  0.2800  0.0959  0.9552
    14 H(1)   Bbb    -0.0009    -0.464    -0.166    -0.155  0.4550  0.8629 -0.2200
              Bcc     0.0022     1.198     0.427     0.400  0.8453 -0.4962 -0.1980
 
              Baa    -0.0014    -0.773    -0.276    -0.258  0.0031 -0.0067  1.0000
    15 H(1)   Bbb    -0.0010    -0.528    -0.189    -0.176  0.3944  0.9189  0.0050
              Bcc     0.0024     1.301     0.464     0.434  0.9189 -0.3944 -0.0055
 

 ---------------------------------------------------------------------------------

 No NMR shielding tensors so no spin-rotation constants.
 Leave Link  601 at Wed Dec 03 16:55:27 2025, MaxMem=   104857600 cpu:               1.0 elap:               0.3
 (Enter D:\Gaussian\G16W\l9999.exe)
 1|1|UNPC-PC-20250526LCFF|SP|UB3LYP|6-31G(d)|C7H7O1(2)|ADMINISTRATOR|03
 -Dec-2025|0||#P B3LYP/6-31G* SCF=conver=7 out=wfn||Generated by Multiw
 fn (http://sobereva.com/multiwfn)||0,2|C,0,1.123969,1.154173,-0.000474
 |C,0,-0.099039,1.842288,0.000093|C,0,-1.241183,1.088421,0.000613|C,0,-
 1.284209,-0.291664,0.000438|C,0,-0.05355,-0.95596,-0.000542|C,0,1.1510
 23,-0.24405,-0.000866|H,0,-0.12665,2.926554,-0.000056|H,0,-0.060746,-2
 .041742,-0.001237|O,0,-2.433715,-1.026292,-0.000144|H,0,-3.18098,-0.41
 7971,0.000519|H,0,2.052201,1.715563,-0.000942|C,0,2.464111,-0.992604,0
 .000562|H,0,2.562312,-1.617468,0.893605|H,0,2.544737,-1.652581,-0.8684
 41|H,0,3.312118,-0.305647,-0.021243||Version=EM64W-G16RevA.03|State=2-
 A|HF=-346.0943469|S2=0.757261|S2-1=0.|S2A=0.750028|RMSD=8.455e-008|Dip
 ole=0.064649,0.2638426,0.0012614|Quadrupole=3.9346736,-0.4501898,-3.48
 44839,-1.7116957,0.0005492,-0.0019223|PG=C01 [X(C7H7O1)]||@

 Writing a WFN file to "N.wfn"


 I WOULD TAKE COUNSEL OF MYSELF.
 I WOULD STOP AND LOOK WITHIN
 AND LOOKING WITHIN, LOOK BACK, ALSO
 THAT I MAY LOOK AHEAD WITH CLEARER UNDERSTANDING
 OF THE WAY I HAVE BEEN MOVING, AND IN WHAT DIRECTION.
 I NEED TO KNOW IF I AM GOING FORWARD OR RETREATING,
 WHETHER I HAVE BEEN WASTING, OR ENJOYING
 THE PRECIOUS MOMENTS OF LIFE.  THERE HAVE BEEN FRICTIONS,
 ANNOYANCES AND SOMETIMES WRATH,
 BUT WERE THEY BECAUSE I WAS RIGHT AND OTHERS WRONG.....
 HAVE I HAD MY THOUGHTS TOO SHARPLY FOCUSED
 ON THAT WHICH PLEASED ME, SERVED MY SELF-ESTEEM,
 UNDERGIRDED MY SECURITY,
 OF WHICH I DID NOT INQUIRE WHETHER IT SERVED OR HAMPERED OTHERS.....
 HAVE I BEEN TRYING TO STOP THE CLOCK
 TO HOLD THE WORLD
 IN PERPETUATION OF WHAT WAS AN IS ALREADY SLIPPING AWAY.....
 HAVE I BEEN CRITICAL OF OTHERS FOR WHAT REALLY NEEDED CHANGING IN ME...
 LET ME INDEED TAKE COUNSEL OF MYSELF
 AND SET MY DIRECTIONS STRAIGHT.

                          R.T. WESTON AS ADAPTED BY D. OSBORN 1967
 Job cpu time:       0 days  0 hours  0 minutes 23.0 seconds.
 Elapsed time:       0 days  0 hours  0 minutes 22.4 seconds.
 File lengths (MBytes):  RWF=     15 Int=      0 D2E=      0 Chk=      2 Scr=      1
 Normal termination of Gaussian 16 at Wed Dec 03 16:55:27 2025.
