 Generated by Multiwfn (http://sobereva.com/multiwfn)
GAUSSIAN             57 MOL ORBITALS    252 PRIMITIVES       15 NUCLEI
  C    1    (CENTRE  1)   2.12399312  2.18107133 -0.00089563  CHARGE =  6.0
  C    2    (CENTRE  2)  -0.18715725  3.48141987  0.00017584  CHARGE =  6.0
  C    3    (CENTRE  3)  -2.34549639  2.05681737  0.00115850  CHARGE =  6.0
  C    4    (CENTRE  4)  -2.42680335 -0.55116532  0.00082780  CHARGE =  6.0
  C    5    (CENTRE  5)  -0.10119469 -1.80650247 -0.00102413  CHARGE =  6.0
  C    6    (CENTRE  6)   2.17511817 -0.46118720 -0.00163640  CHARGE =  6.0
  H    7    (CENTRE  7)  -0.23933479  5.53038565 -0.00010573  CHARGE =  1.0
  H    8    (CENTRE  8)  -0.11479285 -3.85833308 -0.00233749  CHARGE =  1.0
  O    9    (CENTRE  9)  -4.59905465 -1.93941137 -0.00027202  CHARGE =  8.0
  H   10    (CENTRE 10)  -6.01118102 -0.78985150  0.00098087  CHARGE =  1.0
  H   11    (CENTRE 11)   3.87809722  3.24194494 -0.00178002  CHARGE =  1.0
  C   12    (CENTRE 12)   4.65649508 -1.87574887  0.00106213  CHARGE =  6.0
  H   13    (CENTRE 13)   4.84206826 -3.05657067  1.68866881  CHARGE =  1.0
  H   14    (CENTRE 14)   4.80885633 -3.12292463 -1.64111555  CHARGE =  1.0
  H   15    (CENTRE 15)   6.25899587 -0.57758804 -0.04014335  CHARGE =  1.0
CENTRE ASSIGNMENTS    1  1  1  1  1  1  1  1  1  1  1  1  1  1  1  1  1  1  1  1
CENTRE ASSIGNMENTS    1  1  1  1  1  1  1  1  2  2  2  2  2  2  2  2  2  2  2  2
CENTRE ASSIGNMENTS    2  2  2  2  2  2  2  2  2  2  2  2  2  2  2  2  3  3  3  3
CENTRE ASSIGNMENTS    3  3  3  3  3  3  3  3  3  3  3  3  3  3  3  3  3  3  3  3
CENTRE ASSIGNMENTS    3  3  3  3  4  4  4  4  4  4  4  4  4  4  4  4  4  4  4  4
CENTRE ASSIGNMENTS    4  4  4  4  4  4  4  4  4  4  4  4  5  5  5  5  5  5  5  5
CENTRE ASSIGNMENTS    5  5  5  5  5  5  5  5  5  5  5  5  5  5  5  5  5  5  5  5
CENTRE ASSIGNMENTS    6  6  6  6  6  6  6  6  6  6  6  6  6  6  6  6  6  6  6  6
CENTRE ASSIGNMENTS    6  6  6  6  6  6  6  6  7  7  7  7  8  8  8  8  9  9  9  9
CENTRE ASSIGNMENTS    9  9  9  9  9  9  9  9  9  9  9  9  9  9  9  9  9  9  9  9
CENTRE ASSIGNMENTS    9  9  9  9 10 10 10 10 11 11 11 11 12 12 12 12 12 12 12 12
CENTRE ASSIGNMENTS   12 12 12 12 12 12 12 12 12 12 12 12 12 12 12 12 12 12 12 12
CENTRE ASSIGNMENTS   13 13 13 13 14 14 14 14 15 15 15 15
TYPE ASSIGNMENTS      1  1  1  1  1  1  1  1  1  2  2  2  3  3  3  4  4  4  1  2
TYPE ASSIGNMENTS      3  4  5  6  7  8  9 10  1  1  1  1  1  1  1  1  1  2  2  2
TYPE ASSIGNMENTS      3  3  3  4  4  4  1  2  3  4  5  6  7  8  9 10  1  1  1  1
TYPE ASSIGNMENTS      1  1  1  1  1  2  2  2  3  3  3  4  4  4  1  2  3  4  5  6
TYPE ASSIGNMENTS      7  8  9 10  1  1  1  1  1  1  1  1  1  2  2  2  3  3  3  4
TYPE ASSIGNMENTS      4  4  1  2  3  4  5  6  7  8  9 10  1  1  1  1  1  1  1  1
TYPE ASSIGNMENTS      1  2  2  2  3  3  3  4  4  4  1  2  3  4  5  6  7  8  9 10
TYPE ASSIGNMENTS      1  1  1  1  1  1  1  1  1  2  2  2  3  3  3  4  4  4  1  2
TYPE ASSIGNMENTS      3  4  5  6  7  8  9 10  1  1  1  1  1  1  1  1  1  1  1  1
TYPE ASSIGNMENTS      1  1  1  1  1  2  2  2  3  3  3  4  4  4  1  2  3  4  5  6
TYPE ASSIGNMENTS      7  8  9 10  1  1  1  1  1  1  1  1  1  1  1  1  1  1  1  1
TYPE ASSIGNMENTS      1  2  2  2  3  3  3  4  4  4  1  2  3  4  5  6  7  8  9 10
TYPE ASSIGNMENTS      1  1  1  1  1  1  1  1  1  1  1  1
EXPONENTS  0.3047525D+04 0.4573695D+03 0.1039487D+03 0.2921016D+02 0.9286663D+01
EXPONENTS  0.3163927D+01 0.7868272D+01 0.1881289D+01 0.5442493D+00 0.7868272D+01
EXPONENTS  0.1881289D+01 0.5442493D+00 0.7868272D+01 0.1881289D+01 0.5442493D+00
EXPONENTS  0.7868272D+01 0.1881289D+01 0.5442493D+00 0.1687145D+00 0.1687145D+00
EXPONENTS  0.1687145D+00 0.1687145D+00 0.8000000D+00 0.8000000D+00 0.8000000D+00
EXPONENTS  0.8000000D+00 0.8000000D+00 0.8000000D+00 0.3047525D+04 0.4573695D+03
EXPONENTS  0.1039487D+03 0.2921016D+02 0.9286663D+01 0.3163927D+01 0.7868272D+01
EXPONENTS  0.1881289D+01 0.5442493D+00 0.7868272D+01 0.1881289D+01 0.5442493D+00
EXPONENTS  0.7868272D+01 0.1881289D+01 0.5442493D+00 0.7868272D+01 0.1881289D+01
EXPONENTS  0.5442493D+00 0.1687145D+00 0.1687145D+00 0.1687145D+00 0.1687145D+00
EXPONENTS  0.8000000D+00 0.8000000D+00 0.8000000D+00 0.8000000D+00 0.8000000D+00
EXPONENTS  0.8000000D+00 0.3047525D+04 0.4573695D+03 0.1039487D+03 0.2921016D+02
EXPONENTS  0.9286663D+01 0.3163927D+01 0.7868272D+01 0.1881289D+01 0.5442493D+00
EXPONENTS  0.7868272D+01 0.1881289D+01 0.5442493D+00 0.7868272D+01 0.1881289D+01
EXPONENTS  0.5442493D+00 0.7868272D+01 0.1881289D+01 0.5442493D+00 0.1687145D+00
EXPONENTS  0.1687145D+00 0.1687145D+00 0.1687145D+00 0.8000000D+00 0.8000000D+00
EXPONENTS  0.8000000D+00 0.8000000D+00 0.8000000D+00 0.8000000D+00 0.3047525D+04
EXPONENTS  0.4573695D+03 0.1039487D+03 0.2921016D+02 0.9286663D+01 0.3163927D+01
EXPONENTS  0.7868272D+01 0.1881289D+01 0.5442493D+00 0.7868272D+01 0.1881289D+01
EXPONENTS  0.5442493D+00 0.7868272D+01 0.1881289D+01 0.5442493D+00 0.7868272D+01
EXPONENTS  0.1881289D+01 0.5442493D+00 0.1687145D+00 0.1687145D+00 0.1687145D+00
EXPONENTS  0.1687145D+00 0.8000000D+00 0.8000000D+00 0.8000000D+00 0.8000000D+00
EXPONENTS  0.8000000D+00 0.8000000D+00 0.3047525D+04 0.4573695D+03 0.1039487D+03
EXPONENTS  0.2921016D+02 0.9286663D+01 0.3163927D+01 0.7868272D+01 0.1881289D+01
EXPONENTS  0.5442493D+00 0.7868272D+01 0.1881289D+01 0.5442493D+00 0.7868272D+01
EXPONENTS  0.1881289D+01 0.5442493D+00 0.7868272D+01 0.1881289D+01 0.5442493D+00
EXPONENTS  0.1687145D+00 0.1687145D+00 0.1687145D+00 0.1687145D+00 0.8000000D+00
EXPONENTS  0.8000000D+00 0.8000000D+00 0.8000000D+00 0.8000000D+00 0.8000000D+00
EXPONENTS  0.3047525D+04 0.4573695D+03 0.1039487D+03 0.2921016D+02 0.9286663D+01
EXPONENTS  0.3163927D+01 0.7868272D+01 0.1881289D+01 0.5442493D+00 0.7868272D+01
EXPONENTS  0.1881289D+01 0.5442493D+00 0.7868272D+01 0.1881289D+01 0.5442493D+00
EXPONENTS  0.7868272D+01 0.1881289D+01 0.5442493D+00 0.1687145D+00 0.1687145D+00
EXPONENTS  0.1687145D+00 0.1687145D+00 0.8000000D+00 0.8000000D+00 0.8000000D+00
EXPONENTS  0.8000000D+00 0.8000000D+00 0.8000000D+00 0.1873114D+02 0.2825394D+01
EXPONENTS  0.6401217D+00 0.1612778D+00 0.1873114D+02 0.2825394D+01 0.6401217D+00
EXPONENTS  0.1612778D+00 0.5484672D+04 0.8252349D+03 0.1880470D+03 0.5296450D+02
EXPONENTS  0.1689757D+02 0.5799635D+01 0.1553962D+02 0.3599934D+01 0.1013762D+01
EXPONENTS  0.1553962D+02 0.3599934D+01 0.1013762D+01 0.1553962D+02 0.3599934D+01
EXPONENTS  0.1013762D+01 0.1553962D+02 0.3599934D+01 0.1013762D+01 0.2700058D+00
EXPONENTS  0.2700058D+00 0.2700058D+00 0.2700058D+00 0.8000000D+00 0.8000000D+00
EXPONENTS  0.8000000D+00 0.8000000D+00 0.8000000D+00 0.8000000D+00 0.1873114D+02
EXPONENTS  0.2825394D+01 0.6401217D+00 0.1612778D+00 0.1873114D+02 0.2825394D+01
EXPONENTS  0.6401217D+00 0.1612778D+00 0.3047525D+04 0.4573695D+03 0.1039487D+03
EXPONENTS  0.2921016D+02 0.9286663D+01 0.3163927D+01 0.7868272D+01 0.1881289D+01
EXPONENTS  0.5442493D+00 0.7868272D+01 0.1881289D+01 0.5442493D+00 0.7868272D+01
EXPONENTS  0.1881289D+01 0.5442493D+00 0.7868272D+01 0.1881289D+01 0.5442493D+00
EXPONENTS  0.1687145D+00 0.1687145D+00 0.1687145D+00 0.1687145D+00 0.8000000D+00
EXPONENTS  0.8000000D+00 0.8000000D+00 0.8000000D+00 0.8000000D+00 0.8000000D+00
EXPONENTS  0.1873114D+02 0.2825394D+01 0.6401217D+00 0.1612778D+00 0.1873114D+02
EXPONENTS  0.2825394D+01 0.6401217D+00 0.1612778D+00 0.1873114D+02 0.2825394D+01
EXPONENTS  0.6401217D+00 0.1612778D+00
MO    1     MO 0.0        OCC NO =    1.0000000  ORB. ENERGY =  -19.178527
  0.73914446D-05  0.13635772D-04  0.22012364D-04  0.28653557D-04  0.24450132D-04
  0.84420432D-05 -0.27872951D-04 -0.12846617D-04  0.36023256D-04 -0.22415454D-04
 -0.17186749D-04 -0.85773921D-05 -0.37686007D-04 -0.28895240D-04 -0.14420750D-04
  0.56498828D-08  0.43319718D-08  0.21619575D-08 -0.13893112D-03  0.45225229D-04
  0.63745083D-04 -0.18597276D-08  0.63357544D-05 -0.12261415D-04  0.39405720D-04
  0.47729295D-04  0.68674564D-07 -0.81178089D-07 -0.35301331D-05 -0.65124063D-05
 -0.10513043D-04 -0.13684858D-04 -0.11677314D-04 -0.40318961D-05  0.21593857D-04
  0.99525891D-05 -0.27908099D-04 -0.71112972D-04 -0.54524916D-04 -0.27211755D-04
 -0.61967624D-04 -0.47512843D-04 -0.23712239D-04  0.94117475D-07  0.72163310D-07
  0.36014549D-07  0.29366233D-03 -0.62946597D-04 -0.10008526D-03  0.39093774D-07
  0.48026518D-04  0.30097248D-05 -0.44886921D-05  0.40715074D-04 -0.14949846D-06
 -0.35573945D-07  0.14446623D-04  0.26651199D-04  0.43023299D-04  0.56003551D-04
  0.47787932D-04  0.16500024D-04 -0.86470989D-04 -0.39854400D-04  0.11175590D-03
  0.17247952D-05  0.13224636D-05  0.66000201D-06  0.11436421D-03  0.87687224D-04
  0.43762071D-04  0.60267125D-07  0.46209009D-07  0.23061534D-07 -0.57706893D-03
 -0.20549743D-03  0.53350926D-04 -0.32586307D-08 -0.75442408D-04 -0.63027169D-04
  0.70096535D-04 -0.21247942D-04 -0.27851820D-07  0.14327945D-06 -0.22927281D-04
 -0.42296357D-04 -0.68279435D-04 -0.88879537D-04 -0.75841070D-04 -0.26186099D-04
 -0.72387291D-04 -0.33363236D-04  0.93553998D-04 -0.41632100D-03 -0.31920854D-03
 -0.15930743D-03 -0.38368565D-03 -0.29418582D-03 -0.14681934D-03 -0.32547536D-06
 -0.24955387D-06 -0.12454487D-06 -0.12868738D-03  0.45266127D-03  0.45015835D-03
  0.22397794D-06 -0.87297842D-04  0.83092090D-05 -0.90265682D-04  0.16909472D-04
 -0.15189970D-06 -0.81920814D-07  0.13382350D-05  0.24687824D-05  0.39853802D-05
  0.51877809D-05  0.44267428D-05  0.15284479D-05 -0.39295963D-04 -0.18111473D-04
  0.50786461D-04 -0.33004606D-04 -0.25305838D-04 -0.12629387D-04  0.20248703D-04
  0.15525421D-04  0.77482732D-05  0.19474237D-07  0.14931610D-07  0.74519197D-08
 -0.69994510D-04 -0.29165440D-04 -0.18911146D-03 -0.13196981D-06 -0.59210774D-04
 -0.69877920D-04  0.14798398D-04  0.36181326D-04  0.55478799D-07 -0.28920119D-06
  0.39036641D-05  0.72014980D-05  0.11625451D-04  0.15132882D-04  0.12912916D-04
  0.44585196D-05 -0.52629488D-05 -0.24256883D-05  0.68018832D-05 -0.89035370D-04
 -0.68266674D-04 -0.34069855D-04 -0.46675044D-05 -0.35787463D-05 -0.17860452D-05
  0.14262719D-06  0.10935748D-06  0.54577048D-07  0.18147140D-03  0.16113516D-04
  0.34949786D-04 -0.67843726D-09  0.13312034D-04  0.37556000D-04  0.31790136D-04
  0.14069481D-06  0.65236420D-07 -0.65507219D-07  0.76815986D-06  0.13029445D-05
  0.14833563D-05  0.10758358D-04 -0.38902453D-05 -0.65985923D-05 -0.75122641D-05
 -0.10745109D-03  0.82563833D+00  0.15196153D+01  0.24590244D+01  0.32324564D+01
  0.27724590D+01  0.94795083D+00 -0.15843837D-01 -0.70694894D-02  0.20876297D-01
 -0.16489475D-03 -0.12704251D-03 -0.55778507D-04  0.32482290D-02  0.25025853D-02
  0.10987697D-02  0.30696689D-05  0.23650144D-05  0.10383687D-05  0.37529790D-02
  0.32931401D-03  0.11103024D-03  0.16127953D-06 -0.91115444D-02 -0.92345992D-02
 -0.91705980D-02  0.10292315D-03  0.16179541D-06 -0.91377783D-07  0.88603148D-04
  0.15028771D-03  0.17109725D-03 -0.19048138D-03 -0.37192155D-05 -0.63084933D-05
 -0.71819967D-05 -0.21557429D-04  0.50547337D-05  0.93249968D-05  0.15053436D-04
  0.19595101D-04  0.16720535D-04  0.57731990D-05 -0.18445940D-04 -0.85017169D-05
  0.23839702D-04  0.90341237D-05  0.69267931D-05  0.34569552D-05 -0.80140278D-05
 -0.61446482D-05 -0.30666101D-05 -0.15647678D-06 -0.11997647D-06 -0.59876668D-07
 -0.61660795D-04  0.11995445D-04 -0.17464884D-04  0.12555206D-06  0.77093419D-05
  0.13594194D-05  0.20419192D-04  0.26217658D-04  0.14187074D-06  0.29427226D-06
  0.19397512D-05  0.32901851D-05  0.37457595D-05  0.25474651D-05  0.19128419D-05
  0.32445418D-05  0.36937962D-05  0.25920921D-05  0.35739975D-05  0.60621762D-05
  0.69015733D-05  0.75667699D-05
MO    2     MO 0.0        OCC NO =    1.0000000  ORB. ENERGY =  -10.253307
 -0.55983092D-04 -0.10327787D-03 -0.16672251D-03 -0.21702317D-03 -0.18518627D-03
 -0.63940367D-04  0.92508071D-04  0.42636886D-04 -0.11955828D-03  0.97707375D-04
  0.74915818D-04  0.37388244D-04  0.28860348D-04  0.22128284D-04  0.11043565D-04
 -0.33068112D-06 -0.25354531D-06 -0.12653688D-06  0.64329247D-03 -0.34527136D-03
 -0.13818320D-03  0.23729701D-06 -0.36345404D-04 -0.38829794D-05 -0.11006260D-03
 -0.55527283D-04 -0.85247920D-07  0.25123239D-07  0.31786114D-04  0.58639174D-04
  0.94661809D-04  0.12322155D-03  0.10514517D-03  0.36304101D-04 -0.36822684D-04
 -0.16971541D-04  0.47589973D-04  0.44359248D-04  0.34011858D-04  0.16974301D-04
  0.11551042D-03  0.88566065D-04  0.44200674D-04 -0.40676089D-07 -0.31187845D-07
 -0.15564921D-07 -0.89726699D-03 -0.36499558D-05  0.33765350D-03 -0.21296150D-07
  0.63956107D-04  0.83673804D-04  0.87486220D-05  0.11933024D-03 -0.10919237D-06
  0.88894024D-08  0.33751201D-02  0.62264375D-02  0.10051401D-01  0.13083937D-01
  0.11164547D-01  0.38548499D-02  0.16502463D-03  0.76059703D-04 -0.21327935D-03
  0.12249103D-03  0.93918355D-04  0.46871841D-04  0.25846177D-03  0.19817209D-03
  0.98901761D-04 -0.61494632D-07 -0.47150183D-07 -0.23531246D-07  0.21627295D-02
  0.42604948D-03 -0.52587784D-03 -0.26173526D-06 -0.38596935D-03 -0.58786153D-03
 -0.37433069D-03 -0.30285564D-03  0.10076690D-06  0.17106431D-06  0.53254488D+00
  0.98244132D+00  0.15859649D+01  0.20644551D+01  0.17616033D+01  0.60823927D+00
 -0.19696675D-01 -0.90781795D-02  0.25456163D-01 -0.10356976D-02 -0.79410726D-03
 -0.39631518D-03 -0.31085627D-03 -0.23834487D-03 -0.11895080D-03 -0.10686840D-05
 -0.81939912D-06 -0.40893759D-06 -0.33592925D-02 -0.12178587D-02 -0.88454279D-03
  0.44169838D-06 -0.95651191D-02 -0.96788440D-02 -0.10471087D-01  0.81786027D-03
  0.89935497D-06  0.11418597D-05  0.19548653D-02  0.36063448D-02  0.58217588D-02
  0.75782001D-02  0.64664919D-02  0.22327243D-02  0.23477006D-03  0.10820531D-03
 -0.30341897D-03  0.27479280D-03  0.21069369D-03  0.10515092D-03 -0.29175721D-03
 -0.22370092D-03 -0.11164244D-03 -0.59153391D-07 -0.45355068D-07 -0.22635358D-07
  0.20227235D-02 -0.65461095D-04  0.96202785D-03  0.40858225D-06 -0.46665452D-03
 -0.23002516D-03 -0.33507516D-03 -0.20535989D-04  0.26141257D-06  0.18840992D-06
  0.30133885D-04  0.55591134D-04  0.89741328D-04  0.11681654D-03  0.99679769D-04
  0.34417029D-04 -0.72021248D-04 -0.33194527D-04  0.93080919D-04  0.10959097D-03
  0.84027404D-04  0.41935564D-04  0.29718545D-05  0.22786295D-05  0.11371958D-05
 -0.14482730D-06 -0.11104439D-06 -0.55418932D-07 -0.11312475D-02  0.45782484D-03
 -0.37412007D-04 -0.33252493D-06  0.28841174D-04  0.33429608D-04  0.37582628D-04
  0.33288346D-04 -0.27636199D-06  0.31117044D-06 -0.67564219D-05 -0.11460170D-04
 -0.13046999D-04 -0.38122135D-04  0.34061386D-04  0.57774557D-04  0.65774291D-04
  0.27960286D-03  0.99096723D-04  0.18239087D-03  0.29514286D-03  0.38797355D-03
  0.33276266D-03  0.11377720D-03 -0.61018279D-03 -0.27226237D-03  0.80399442D-03
 -0.92697193D-04 -0.71418190D-04 -0.31356432D-04 -0.73559947D-04 -0.56673974D-04
 -0.24882927D-04  0.95650274D-06  0.73693380D-06  0.32355363D-06 -0.14358016D-02
 -0.60946817D-03 -0.37753185D-03 -0.83545638D-06 -0.25247929D-03  0.37550292D-03
  0.90825999D-03 -0.10884193D-02 -0.15475302D-05 -0.12448284D-05  0.35859322D-04
  0.60824197D-04  0.69246199D-04 -0.27112063D-04  0.20224367D-04  0.34304354D-04
  0.39054294D-04  0.11121937D-03 -0.20865025D-04 -0.38491896D-04 -0.62137856D-04
 -0.80885025D-04 -0.69019338D-04 -0.23830719D-04  0.49570804D-04  0.22847138D-04
 -0.64065760D-04  0.21484209D-04  0.16472729D-04  0.82210460D-05  0.10469251D-06
  0.80271573D-07  0.40061141D-07 -0.33159766D-06 -0.25424805D-06 -0.12688760D-06
  0.86370088D-05 -0.40389325D-04 -0.44976207D-04  0.50941873D-06  0.23879689D-04
 -0.86942195D-04 -0.34593851D-04 -0.19376597D-04  0.11519130D-05  0.20542733D-05
 -0.86694702D-05 -0.14705062D-04 -0.16741194D-04 -0.16111676D-04 -0.88429109D-05
 -0.14999251D-04 -0.17076117D-04 -0.16223947D-04  0.10288877D-05  0.17451883D-05
  0.19868352D-05  0.22102343D-04
MO    3     MO 0.0        OCC NO =    1.0000000  ORB. ENERGY =  -10.206328
  0.19992882D-03  0.36882964D-03  0.59540539D-03  0.77504091D-03  0.66134381D-03
  0.22834613D-03 -0.37450024D-04 -0.17260682D-04  0.48400754D-04  0.72460754D-04
  0.55558310D-04  0.27727491D-04 -0.27976169D-04 -0.21450352D-04 -0.10705229D-04
  0.15852974D-07  0.12155055D-07  0.60662243D-08 -0.85246469D-03  0.35844121D-03
  0.18305026D-03 -0.10389839D-06  0.10372642D-03  0.62071954D-05  0.26589826D-04
 -0.17445628D-04 -0.17614202D-06 -0.14951016D-06  0.17299966D-01  0.31915059D-01
  0.51520802D-01  0.67064775D-01  0.57226494D-01  0.19758933D-01 -0.33797806D-03
 -0.15577378D-03  0.43680593D-03  0.31919294D-03  0.24473690D-03  0.12214087D-03
  0.31465691D-03  0.24125896D-03  0.12040513D-03 -0.20749218D-06 -0.15909184D-06
 -0.79397980D-07  0.16750158D-02 -0.16817402D-03 -0.75159589D-03  0.74865641D-07
 -0.79067961D-03 -0.58045705D-03 -0.62592073D-03 -0.71208737D-04  0.18442062D-06
  0.60925207D-07  0.53208412D+00  0.98159131D+00  0.15845927D+01  0.20626689D+01
  0.17600791D+01  0.60771302D+00 -0.20406912D-01 -0.94055270D-02  0.26374079D-01
  0.41791641D-03  0.32043180D-03  0.15991792D-03 -0.41011249D-03 -0.31444825D-03
 -0.15693171D-03 -0.55053579D-06 -0.42211592D-06 -0.21066543D-06 -0.38664277D-02
 -0.69280997D-03  0.53096483D-03  0.42265280D-06 -0.10839959D-01 -0.10753781D-01
 -0.11193566D-01  0.11335629D-03  0.15361213D-06 -0.18841558D-06 -0.36674100D-02
 -0.67656554D-02 -0.10921866D-01 -0.14217024D-01 -0.12131412D-01 -0.41886851D-02
  0.43292784D-03  0.19953604D-03 -0.55951989D-03  0.42548613D-05  0.32623578D-05
  0.16281452D-05 -0.48500732D-03 -0.37187285D-03 -0.18559062D-03 -0.96054498D-07
 -0.73648496D-07 -0.36755761D-07  0.18274583D-02  0.42684916D-03  0.75849642D-03
 -0.54796026D-07 -0.29748506D-03 -0.48220008D-03 -0.22408449D-03  0.12476430D-03
 -0.10056448D-07 -0.31532904D-06 -0.61268807D-04 -0.11302898D-03 -0.18246383D-03
 -0.23751369D-03 -0.20267086D-03 -0.69977378D-04 -0.33841018D-05 -0.15597294D-05
  0.43736441D-05  0.26532526D-04  0.20343458D-04  0.10152811D-04 -0.38548723D-04
 -0.29556716D-04 -0.14750873D-04  0.15035120D-07  0.11527976D-07  0.57532680D-08
 -0.73521045D-03 -0.10352113D-03 -0.39135051D-03 -0.11660976D-06  0.10869513D-03
  0.74130753D-04  0.95306569D-05 -0.13291835D-03 -0.19062779D-06  0.37788102D-07
 -0.22854205D-03 -0.42161545D-03 -0.68061807D-03 -0.88596250D-03 -0.75599340D-03
 -0.26102635D-03  0.11873314D-03  0.54723996D-04 -0.15345180D-03  0.96594627D-04
  0.74062633D-04  0.36962445D-04 -0.38766506D-04 -0.29723698D-04 -0.14834208D-04
  0.27890795D-09  0.21384893D-09  0.10672560D-09  0.75948783D-03 -0.42468882D-03
  0.18943787D-03  0.15042379D-06  0.80442661D-05  0.33988225D-04 -0.10323374D-03
  0.34002883D-04 -0.27797061D-06  0.10276403D-06  0.12406557D-04  0.21043869D-04
  0.23957701D-04  0.21002556D-03 -0.20783721D-04 -0.35253124D-04 -0.40134435D-04
 -0.84292590D-04 -0.22331526D-04 -0.41101929D-04 -0.66510679D-04 -0.87430150D-04
 -0.74988331D-04 -0.25639784D-04  0.10672528D-03  0.47620613D-04 -0.14062431D-03
 -0.11524744D-03 -0.88791943D-04 -0.38984446D-04  0.86435725D-04  0.66594066D-04
  0.29238382D-04 -0.11532149D-06 -0.88848988D-07 -0.39009492D-07  0.29197890D-03
  0.13433620D-03 -0.51266177D-04  0.13981732D-06 -0.15301354D-04 -0.53294884D-04
 -0.10914060D-03  0.58506710D-04  0.36862773D-06  0.10477299D-07  0.47144806D-05
  0.79966514D-05  0.91039050D-05  0.48495115D-04 -0.16704260D-04 -0.28333587D-04
 -0.32256788D-04 -0.86665957D-04 -0.63740537D-05 -0.11758884D-04 -0.18982485D-04
 -0.24709556D-04 -0.21084709D-04 -0.72800433D-05  0.21161869D-04  0.97534859D-05
 -0.27349792D-04 -0.38051435D-04 -0.29175427D-04 -0.14560583D-04  0.34398011D-04
  0.26374213D-04  0.13162581D-04  0.17019058D-07  0.13049135D-07  0.65124327D-08
  0.21559081D-03 -0.57107939D-04  0.32518780D-04 -0.25336251D-06  0.37004938D-06
  0.91108602D-06 -0.95749244D-05 -0.83199531D-05  0.34817819D-06  0.14415662D-06
 -0.49686985D-05 -0.84278530D-05 -0.95948128D-05 -0.39294623D-05 -0.50749200D-05
 -0.86080249D-05 -0.97999320D-05 -0.40072649D-05 -0.34400896D-05 -0.58350430D-05
 -0.66429902D-05 -0.59083798D-05
MO    4     MO 0.0        OCC NO =    1.0000000  ORB. ENERGY =  -10.196796
  0.13048551D-01  0.24072029D-01  0.38859719D-01  0.50583808D-01  0.43163255D-01
  0.14903235D-01 -0.25684209D-03 -0.11837828D-03  0.33194507D-03  0.63698937D-04
  0.48840305D-04  0.24374735D-04  0.44968125D-03  0.34478706D-03  0.17207291D-03
  0.36771213D-06  0.28193834D-06  0.14070699D-06  0.13614318D-02 -0.23315182D-03
 -0.50171025D-03 -0.18789313D-06 -0.52061545D-03 -0.76226199D-03 -0.47125971D-03
  0.61060330D-04  0.16871068D-06 -0.77827872D-07  0.43520860D-02  0.80287489D-02
  0.12960890D-01  0.16871228D-01  0.14396249D-01  0.49706789D-02 -0.18740931D-03
 -0.86376779D-04  0.24220950D-03 -0.69990795D-04 -0.53664502D-04 -0.26782348D-04
  0.16389487D-04  0.12566419D-04  0.62715237D-05  0.26537815D-07  0.20347513D-07
  0.10154835D-07 -0.54682133D-03  0.61077869D-04  0.26685198D-03  0.40080915D-07
 -0.26948902D-04 -0.16326915D-04 -0.49907713D-04 -0.61816864D-04  0.95942681D-07
  0.37026699D-07  0.39530721D-04  0.72926462D-04  0.11772592D-03  0.15324417D-03
  0.13076353D-03  0.45149504D-04  0.64620258D-04  0.29783418D-04 -0.83515813D-04
  0.24954653D-04  0.19133645D-04  0.95490299D-05 -0.83674259D-05 -0.64156114D-05
 -0.32018397D-05  0.47447348D-07  0.36379617D-07  0.18155979D-07  0.51898547D-03
  0.17268154D-03 -0.22455023D-04 -0.14207849D-06 -0.10902546D-04 -0.21626830D-04
 -0.76249880D-04  0.93436721D-05 -0.95749276D-07  0.41107258D-07 -0.45141026D-04
 -0.83276379D-04 -0.13443390D-03 -0.17499299D-03 -0.14932183D-03 -0.51557241D-04
 -0.18055670D-04 -0.83218419D-05  0.23335313D-04 -0.18888918D-04 -0.14482824D-04
 -0.72279444D-05  0.12442931D-04  0.95404504D-05  0.47613534D-05  0.43346249D-07
  0.33235154D-07  0.16586671D-07 -0.49637275D-03 -0.20222076D-03 -0.52951618D-04
  0.16281594D-06  0.74607904D-04  0.30117642D-04  0.30178956D-04 -0.53014921D-04
 -0.62083373D-07 -0.11443875D-07  0.11700380D-01  0.21584917D-01  0.34844749D-01
  0.45357510D-01  0.38703646D-01  0.13363439D-01 -0.22178222D-03 -0.10221922D-03
  0.28663337D-03 -0.39539881D-03 -0.30316673D-03 -0.15130144D-03 -0.28690342D-03
 -0.21997934D-03 -0.10978511D-03  0.15447020D-06  0.11843795D-06  0.59108839D-07
  0.12813082D-02  0.19499579D-03  0.41383795D-03  0.35389139D-09 -0.72291317D-03
 -0.53908340D-03 -0.43700800D-03 -0.22099811D-03  0.24003544D-06 -0.11856602D-06
  0.53219181D+00  0.98178998D+00  0.15849134D+01  0.20630864D+01  0.17604353D+01
  0.60783602D+00 -0.19767033D-01 -0.91106074D-02  0.25547094D-01 -0.81408999D-04
 -0.62419257D-04 -0.31151584D-04  0.28722685D-05  0.22022733D-05  0.10990887D-05
  0.18481093D-05  0.14170130D-05  0.70718880D-06 -0.35376004D-02  0.29419864D-03
 -0.27155272D-03  0.14705004D-06 -0.10102625D-01 -0.10004977D-01 -0.10415866D-01
  0.17642414D-03  0.21880000D-05 -0.12706765D-05 -0.12939454D-04 -0.21947763D-04
 -0.24986753D-04 -0.54109047D-04 -0.32639174D-05 -0.55362216D-05 -0.63027926D-05
  0.65800292D-04 -0.59556180D-05 -0.10961516D-04 -0.17737803D-04 -0.23316838D-04
 -0.19998716D-04 -0.68379008D-05  0.16380461D-04  0.73089297D-05 -0.21583367D-04
 -0.69598697D-04 -0.53622044D-04 -0.23542965D-04  0.34819333D-04  0.26826419D-04
  0.11778243D-04  0.78944083D-07  0.60822160D-07  0.26704204D-07 -0.46423837D-05
  0.50011450D-04 -0.21494707D-04 -0.83557993D-07  0.13671298D-04 -0.49451161D-04
 -0.34182568D-04  0.15561711D-04 -0.53914219D-07 -0.12423704D-06  0.45162973D-05
  0.76604950D-05  0.87212028D-05  0.65288512D-05 -0.46136898D-05 -0.78256912D-05
 -0.89092728D-05  0.91539423D-04  0.43745398D-02  0.80701717D-02  0.13027759D-01
  0.16958272D-01  0.14470524D-01  0.49963242D-02 -0.12889083D-03 -0.59405665D-04
  0.16657969D-03  0.28813039D-03  0.22092011D-03  0.11025462D-03 -0.27766004D-03
 -0.21289211D-03 -0.10624808D-03  0.71142664D-05  0.54547682D-05  0.27223116D-05
  0.40501925D-03 -0.13790967D-03  0.17901772D-03 -0.45214334D-05 -0.54817033D-03
 -0.30380452D-03 -0.11949701D-03  0.36369610D-03 -0.23002758D-05  0.19406637D-06
 -0.30464455D-04 -0.51673481D-04 -0.58828432D-04  0.85093676D-04 -0.29601596D-04
 -0.50209909D-04 -0.57162207D-04  0.78784956D-04 -0.18257573D-04 -0.30968300D-04
 -0.35256315D-04 -0.63314468D-04
MO    5     MO 0.0        OCC NO =    1.0000000  ORB. ENERGY =  -10.196032
  0.13372754D-01  0.24670121D-01  0.39825224D-01  0.51840609D-01  0.44235685D-01
  0.15273519D-01 -0.24933572D-03 -0.11491861D-03  0.32224377D-03  0.39104102D-03
  0.29982545D-03  0.14963391D-03 -0.14542341D-03 -0.11150144D-03 -0.55647035D-04
 -0.10992362D-06 -0.84282456D-07 -0.42062853D-07  0.15495235D-02 -0.61704711D-03
 -0.12261538D-03  0.24639902D-06 -0.64051062D-03 -0.58642061D-03 -0.49825138D-03
  0.20278041D-03  0.15746179D-06 -0.49533745D-07  0.53201943D+00  0.98147196D+00
  0.15844001D+01  0.20624181D+01  0.17598651D+01  0.60763913D+00 -0.19866266D-01
 -0.91563438D-02  0.25675344D-01 -0.25371320D-03 -0.19453119D-03 -0.97084699D-04
 -0.37819951D-03 -0.28997940D-03 -0.14472004D-03  0.12605799D-07  0.96653272D-08
  0.48236757D-08 -0.35622230D-02  0.17917555D-04  0.72903032D-03  0.22440051D-07
 -0.10131135D-01 -0.10261490D-01 -0.10612869D-01  0.18087620D-03 -0.41647609D-06
 -0.21395954D-06 -0.17582513D-01 -0.32436303D-01 -0.52362251D-01 -0.68160092D-01
 -0.58161130D-01 -0.20081641D-01  0.93340052D-03  0.43020345D-03 -0.12063354D-02
 -0.38118035D-03 -0.29226492D-03 -0.14586068D-03 -0.26527527D-03 -0.20339625D-03
 -0.10150898D-03  0.14987573D-06  0.11491520D-06  0.57350740D-07  0.18159591D-02
  0.51705393D-03 -0.17984915D-04 -0.25351659D-06 -0.54824129D-04 -0.66380213D-04
  0.13826888D-03 -0.25039175D-03  0.13361571D-06  0.13635483D-06  0.11826830D-03
  0.21818193D-03  0.35221328D-03  0.45847704D-03  0.39121929D-03  0.13507862D-03
 -0.45010452D-04 -0.20745276D-04  0.58171920D-04 -0.19298158D-04 -0.14796603D-04
 -0.73845421D-05  0.26674702D-04  0.20452469D-04  0.10207216D-04  0.12427749D-06
  0.95288100D-07  0.47555440D-07 -0.69247958D-03 -0.17262689D-03 -0.19890866D-03
  0.38022094D-07  0.12065158D-04  0.12277237D-03  0.37625817D-04 -0.25889147D-05
 -0.12612655D-06  0.50219851D-07 -0.27646374D-03 -0.51002162D-03 -0.82333304D-03
 -0.10717350D-02 -0.91451340D-03 -0.31575950D-03  0.67393223D-04  0.31061475D-04
 -0.87099618D-04  0.15472757D-04  0.11863528D-04  0.59207321D-05 -0.47482500D-04
 -0.36406569D-04 -0.18169430D-04 -0.12951859D-06 -0.99306638D-07 -0.49560972D-07
  0.46170066D-03  0.13651714D-04  0.26528958D-03  0.19723315D-06  0.46916133D-05
 -0.17194160D-04 -0.58305593D-04  0.25588900D-04  0.31431611D-07  0.98414538D-07
 -0.46478452D-02 -0.85743668D-02 -0.13841687D-01 -0.18017763D-01 -0.15374590D-01
 -0.53084764D-02  0.12453255D-03  0.57396940D-04 -0.16094701D-03 -0.31143416D-05
 -0.23878796D-05 -0.11917193D-05 -0.39497016D-04 -0.30283806D-04 -0.15113742D-04
  0.13565165D-06  0.10400908D-06  0.51907820D-07 -0.69775966D-03  0.25943788D-03
 -0.20479113D-03 -0.36508090D-06  0.11846330D-03  0.14907707D-03  0.14057843D-03
 -0.20899397D-04 -0.15407252D-06  0.85883095D-07 -0.10302418D-03 -0.17474851D-03
 -0.19894500D-03  0.17464346D-03  0.14196059D-04  0.24079202D-04  0.27413321D-04
  0.80269279D-04 -0.61592403D-05 -0.11336290D-04 -0.18344257D-04 -0.24114040D-04
 -0.20682472D-04 -0.70716883D-05  0.22175368D-04  0.98946062D-05 -0.29218904D-04
 -0.42440953D-04 -0.32698466D-04 -0.14356388D-04 -0.61645688D-04 -0.47494679D-04
 -0.20852722D-04 -0.12619715D-07 -0.97228100D-08 -0.42688373D-08 -0.32866607D-05
  0.22786658D-04  0.53615201D-04 -0.19795186D-07 -0.30029397D-04  0.14137331D-04
 -0.42504039D-04  0.62302370D-04 -0.81947721D-07  0.78413794D-07 -0.84630745D-05
 -0.14354976D-04 -0.16342633D-04  0.20997233D-04  0.54786683D-05  0.92928585D-05
  0.10579591D-04  0.13570967D-03 -0.56251132D-04 -0.10377235D-03 -0.16752076D-03
 -0.21806225D-03 -0.18607291D-03 -0.64246505D-04  0.23735444D-04  0.10939645D-04
 -0.30675905D-04  0.21020489D-04  0.16117177D-04  0.80436011D-05 -0.17126075D-04
 -0.13131188D-04 -0.65533831D-05 -0.49228912D-06 -0.37745607D-06 -0.18837703D-06
 -0.57125647D-04  0.17561449D-04  0.17281601D-04  0.62108165D-06 -0.24089258D-04
  0.17895130D-04 -0.36005427D-04 -0.42000928D-04 -0.79256000D-06 -0.14442673D-05
  0.37922755D-06  0.64324170D-06  0.73230794D-06  0.25910595D-05  0.65624315D-06
  0.11131126D-05  0.12672393D-05  0.35729967D-05 -0.60118337D-05 -0.10197208D-04
 -0.11609161D-04  0.30112809D-05
MO    6     MO 0.0        OCC NO =    1.0000000  ORB. ENERGY =  -10.185808
  0.53214651D+00  0.98170640D+00  0.15847785D+01  0.20629108D+01  0.17602855D+01
  0.60778428D+00 -0.19941611D-01 -0.91910702D-02  0.25772720D-01 -0.42365087D-03
 -0.32482862D-03 -0.16211225D-03 -0.62439029D-04 -0.47874287D-04 -0.23892625D-04
  0.46570171D-06  0.35707054D-06  0.17820322D-06 -0.37368775D-02  0.66678028D-03
  0.45347772D-03 -0.69965091D-07 -0.10277213D-01 -0.10260024D-01 -0.10610294D-01
 -0.23204504D-03 -0.67214608D-06 -0.53225307D-08 -0.13729480D-01 -0.25328209D-01
 -0.40887583D-01 -0.53223485D-01 -0.45415696D-01 -0.15680948D-01  0.75834673D-03
  0.34952132D-03 -0.98009425D-03 -0.32212641D-03 -0.24698610D-03 -0.12326338D-03
  0.30414830D-03  0.23320163D-03  0.11638396D-03  0.96045067D-07  0.73641265D-07
  0.36752153D-07  0.17170922D-02  0.20385227D-03 -0.63288311D-03 -0.12936730D-06
 -0.27960091D-03 -0.21549228D-04  0.35897380D-04  0.18889297D-03  0.11373315D-06
 -0.58799671D-07  0.27211564D-03  0.50200023D-03  0.81038402D-03  0.10548792D-02
  0.90013034D-03  0.31079337D-03 -0.38907189D-04 -0.17932288D-04  0.50284007D-04
 -0.78631429D-04 -0.60289592D-04 -0.30088732D-04  0.16748419D-04  0.12841625D-04
  0.64088711D-05 -0.28337094D-07 -0.21727086D-07 -0.10843339D-07 -0.87102859D-03
 -0.26103253D-03  0.10371812D-03  0.15670256D-06  0.12462868D-03  0.65361293D-04
  0.29935104D-04  0.46808247D-04 -0.52024525D-07 -0.38555645D-07  0.17945071D-04
  0.33105152D-04  0.53441980D-04  0.69565579D-04  0.59360435D-04  0.20495732D-04
  0.93119087D-04  0.42918502D-04 -0.12034796D-03 -0.37161651D-05 -0.28493197D-05
 -0.14220102D-05 -0.34740390D-04 -0.26636728D-04 -0.13293594D-04 -0.11868740D-06
 -0.91001970D-07 -0.45416361D-07  0.66783648D-03  0.30136053D-03  0.18109647D-03