Title Card Required                                                     
SP        UB3LYP                                                      6-311G(d,p)         
Number of atoms                            I               15
Info1-9                                    I   N=           9
          41          40           0           0           0         110
           1          18        -502
Full Title                                 C   N=           2
Title Card Required     
Route                                      C   N=           5
# ub3lyp/6-311g(d,p) geom=connectivity temperature=823.15   
Charge                                     I                0
Multiplicity                               I                2
Number of electrons                        I               57
Number of alpha electrons                  I               29
Number of beta electrons                   I               28
Number of basis functions                  I              186
Number of independent functions            I              186
Number of point charges in /Mol/           I                0
Number of translation vectors              I                0
Atomic numbers                             I   N=          15
           6           6           6           6           6           6
           1           1           8           1           1           6
           1           1           1
Nuclear charges                            R   N=          15
  6.00000000E+00  6.00000000E+00  6.00000000E+00  6.00000000E+00  6.00000000E+00
  6.00000000E+00  1.00000000E+00  1.00000000E+00  8.00000000E+00  1.00000000E+00
  1.00000000E+00  6.00000000E+00  1.00000000E+00  1.00000000E+00  1.00000000E+00
Current cartesian coordinates              R   N=          45
  2.12399358E+00  2.18107087E+00 -8.95730183E-04 -1.87156586E-01  3.48141976E+00
  1.75744530E-04 -2.34549594E+00  2.05681760E+00  1.15840211E-03 -2.42680330E+00
 -5.51165080E-01  8.27700043E-04 -1.01194834E-01 -1.80650259E+00 -1.02423156E-03
  2.17511823E+00 -4.61187661E-01 -1.63650282E-03 -2.39333814E-01  5.53038555E+00
 -1.05824663E-04 -1.14793303E-01 -3.85833320E+00 -2.33759122E-03 -4.59905482E+00
 -1.93941080E+00 -2.72120562E-04 -6.01118101E+00 -7.89850718E-01  9.80767859E-04
  3.87809784E+00  3.24194422E+00 -1.78012201E-03  4.65649493E+00 -1.87574971E+00
  1.06202608E-03  4.84206793E+00 -3.05657154E+00  1.68866871E+00  4.80885599E+00
 -3.12292549E+00 -1.64111565E+00  6.25899591E+00 -5.77589121E-01 -4.01434521E-02
Number of symbols in /Mol/                 I                0
Force Field                                I                0
Atom Types                                 C   N=          15
                                                            
                                                            
                                                            
Int Atom Types                             I   N=          15
           0           0           0           0           0           0
           0           0           0           0           0           0
           0           0           0
MM charges                                 R   N=          15
  0.00000000E+00  0.00000000E+00  0.00000000E+00  0.00000000E+00  0.00000000E+00
  0.00000000E+00  0.00000000E+00  0.00000000E+00  0.00000000E+00  0.00000000E+00
  0.00000000E+00  0.00000000E+00  0.00000000E+00  0.00000000E+00  0.00000000E+00
Integer atomic weights                     I   N=          15
          12          12          12          12          12          12
           1           1          16           1           1          12
           1           1           1
Real atomic weights                        R   N=          15
  1.20000000E+01  1.20000000E+01  1.20000000E+01  1.20000000E+01  1.20000000E+01
  1.20000000E+01  1.00782504E+00  1.00782504E+00  1.59949146E+01  1.00782504E+00
  1.00782504E+00  1.20000000E+01  1.00782504E+00  1.00782504E+00  1.00782504E+00
Atom fragment info                         I   N=          15
           0           0           0           0           0           0
           0           0           0           0           0           0
           0           0           0
Atom residue num                           I   N=          15
           0           0           0           0           0           0
           0           0           0           0           0           0
           0           0           0
Nuclear spins                              I   N=          15
           0           0           0           0           0           0
           1           1           0           1           1           0
           1           1           1
Nuclear ZEff                               R   N=          15
 -3.60000000E+00 -3.60000000E+00 -3.60000000E+00 -3.60000000E+00 -3.60000000E+00
 -3.60000000E+00 -1.00000000E+00 -1.00000000E+00 -5.60000000E+00 -1.00000000E+00
 -1.00000000E+00 -3.60000000E+00 -1.00000000E+00 -1.00000000E+00 -1.00000000E+00
Nuclear ZNuc                               R   N=          15
  6.00000000E+00  6.00000000E+00  6.00000000E+00  6.00000000E+00  6.00000000E+00
  6.00000000E+00  1.00000000E+00  1.00000000E+00  8.00000000E+00  1.00000000E+00
  1.00000000E+00  6.00000000E+00  1.00000000E+00  1.00000000E+00  1.00000000E+00
Nuclear QMom                               R   N=          15
  0.00000000E+00  0.00000000E+00  0.00000000E+00  0.00000000E+00  0.00000000E+00
  0.00000000E+00  0.00000000E+00  0.00000000E+00  0.00000000E+00  0.00000000E+00
  0.00000000E+00  0.00000000E+00  0.00000000E+00  0.00000000E+00  0.00000000E+00
Nuclear GFac                               R   N=          15
  0.00000000E+00  0.00000000E+00  0.00000000E+00  0.00000000E+00  0.00000000E+00
  0.00000000E+00  2.79284600E+00  2.79284600E+00  0.00000000E+00  2.79284600E+00
  2.79284600E+00  0.00000000E+00  2.79284600E+00  2.79284600E+00  2.79284600E+00
MicOpt                                     I   N=          15
          -1          -1          -1          -1          -1          -1
          -1          -1          -1          -1          -1          -1
          -1          -1          -1
Number of residues                         I                0
Number of secondary structures             I                0
SymInf integers                            I   N=          26
           1           1           1           1           1           0
           0           0           0           0           0           0
           0           0           0           0           0           0
           0           0           0           0           0           0
           0           0
RotTr to input orientation                 R   N=          12
  1.00000000E+00 -1.51816886E-07  0.00000000E+00  1.51816886E-07  1.00000000E+00
  0.00000000E+00  0.00000000E+00  0.00000000E+00  1.00000000E+00  1.32612360E-07
 -1.32612360E-07 -9.94592697E-08
Number of contracted shells                I               68
Number of primitive shells                 I              138
Pure/Cartesian d shells                    I                0
Pure/Cartesian f shells                    I                0
Highest angular momentum                   I                2
Largest degree of contraction              I                6
Shell types                                I   N=          68
           0          -1          -1          -1          -2           0
          -1          -1          -1          -2           0          -1
          -1          -1          -2           0          -1          -1
          -1          -2           0          -1          -1          -1
          -2           0          -1          -1          -1          -2
           0           0           0           1           0           0
           0           1           0          -1          -1          -1
          -2           0           0           0           1           0
           0           0           1           0          -1          -1
          -1          -2           0           0           0           1
           0           0           0           1           0           0
           0           1
Number of primitives per shell             I   N=          68
           6           3           1           1           1           6
           3           1           1           1           6           3
           1           1           1           6           3           1
           1           1           6           3           1           1
           1           6           3           1           1           1
           3           1           1           1           3           1
           1           1           6           3           1           1
           1           3           1           1           1           3
           1           1           1           6           3           1
           1           1           3           1           1           1
           3           1           1           1           3           1
           1           1
Shell to atom map                          I   N=          68
           1           1           1           1           1           2
           2           2           2           2           3           3
           3           3           3           4           4           4
           4           4           5           5           5           5
           5           6           6           6           6           6
           7           7           7           7           8           8
           8           8           9           9           9           9
           9          10          10          10          10          11
          11          11          11          12          12          12
          12          12          13          13          13          13
          14          14          14          14          15          15
          15          15
Primitive exponents                        R   N=         138
  4.56324000E+03  6.82024000E+02  1.54973000E+02  4.44553000E+01  1.30290000E+01
  1.82773000E+00  2.09642000E+01  4.80331000E+00  1.45933000E+00  4.83456000E-01
  1.45585000E-01  6.26000000E-01  4.56324000E+03  6.82024000E+02  1.54973000E+02
  4.44553000E+01  1.30290000E+01  1.82773000E+00  2.09642000E+01  4.80331000E+00
  1.45933000E+00  4.83456000E-01  1.45585000E-01  6.26000000E-01  4.56324000E+03
  6.82024000E+02  1.54973000E+02  4.44553000E+01  1.30290000E+01  1.82773000E+00
  2.09642000E+01  4.80331000E+00  1.45933000E+00  4.83456000E-01  1.45585000E-01
  6.26000000E-01  4.56324000E+03  6.82024000E+02  1.54973000E+02  4.44553000E+01
  1.30290000E+01  1.82773000E+00  2.09642000E+01  4.80331000E+00  1.45933000E+00
  4.83456000E-01  1.45585000E-01  6.26000000E-01  4.56324000E+03  6.82024000E+02
  1.54973000E+02  4.44553000E+01  1.30290000E+01  1.82773000E+00  2.09642000E+01
  4.80331000E+00  1.45933000E+00  4.83456000E-01  1.45585000E-01  6.26000000E-01
  4.56324000E+03  6.82024000E+02  1.54973000E+02  4.44553000E+01  1.30290000E+01
  1.82773000E+00  2.09642000E+01  4.80331000E+00  1.45933000E+00  4.83456000E-01
  1.45585000E-01  6.26000000E-01  3.38650000E+01  5.09479000E+00  1.15879000E+00
  3.25840000E-01  1.02741000E-01  7.50000000E-01  3.38650000E+01  5.09479000E+00
  1.15879000E+00  3.25840000E-01  1.02741000E-01  7.50000000E-01  8.58850000E+03
  1.29723000E+03  2.99296000E+02  8.73771000E+01  2.56789000E+01  3.74004000E+00
  4.21175000E+01  9.62837000E+00  2.85332000E+00  9.05661000E-01  2.55611000E-01
  1.29200000E+00  3.38650000E+01  5.09479000E+00  1.15879000E+00  3.25840000E-01
  1.02741000E-01  7.50000000E-01  3.38650000E+01  5.09479000E+00  1.15879000E+00
  3.25840000E-01  1.02741000E-01  7.50000000E-01  4.56324000E+03  6.82024000E+02
  1.54973000E+02  4.44553000E+01  1.30290000E+01  1.82773000E+00  2.09642000E+01
  4.80331000E+00  1.45933000E+00  4.83456000E-01  1.45585000E-01  6.26000000E-01
  3.38650000E+01  5.09479000E+00  1.15879000E+00  3.25840000E-01  1.02741000E-01
  7.50000000E-01  3.38650000E+01  5.09479000E+00  1.15879000E+00  3.25840000E-01
  1.02741000E-01  7.50000000E-01  3.38650000E+01  5.09479000E+00  1.15879000E+00
  3.25840000E-01  1.02741000E-01  7.50000000E-01
Contraction coefficients                   R   N=         138
  1.96665025E-03  1.52306019E-02  7.61269097E-02  2.60801033E-01  6.16462078E-01
  2.21006028E-01  1.14660081E-01  9.19999648E-01 -3.03068213E-03  1.00000000E+00
  1.00000000E+00  1.00000000E+00  1.96665025E-03  1.52306019E-02  7.61269097E-02
  2.60801033E-01  6.16462078E-01  2.21006028E-01  1.14660081E-01  9.19999648E-01
 -3.03068213E-03  1.00000000E+00  1.00000000E+00  1.00000000E+00  1.96665025E-03
  1.52306019E-02  7.61269097E-02  2.60801033E-01  6.16462078E-01  2.21006028E-01
  1.14660081E-01  9.19999648E-01 -3.03068213E-03  1.00000000E+00  1.00000000E+00
  1.00000000E+00  1.96665025E-03  1.52306019E-02  7.61269097E-02  2.60801033E-01
  6.16462078E-01  2.21006028E-01  1.14660081E-01  9.19999648E-01 -3.03068213E-03
  1.00000000E+00  1.00000000E+00  1.00000000E+00  1.96665025E-03  1.52306019E-02
  7.61269097E-02  2.60801033E-01  6.16462078E-01  2.21006028E-01  1.14660081E-01
  9.19999648E-01 -3.03068213E-03  1.00000000E+00  1.00000000E+00  1.00000000E+00
  1.96665025E-03  1.52306019E-02  7.61269097E-02  2.60801033E-01  6.16462078E-01
  2.21006028E-01  1.14660081E-01  9.19999648E-01 -3.03068213E-03  1.00000000E+00
  1.00000000E+00  1.00000000E+00  2.54938145E-02  1.90373109E-01  8.52161486E-01
  1.00000000E+00  1.00000000E+00  1.00000000E+00  2.54938145E-02  1.90373109E-01
  8.52161486E-01  1.00000000E+00  1.00000000E+00  1.00000000E+00  1.89515008E-03
  1.43859006E-02  7.07320031E-02  2.40001011E-01  5.94797026E-01  2.80802012E-01
  1.13889012E-01  9.20811101E-01 -3.27447036E-03  1.00000000E+00  1.00000000E+00
  1.00000000E+00  2.54938145E-02  1.90373109E-01  8.52161486E-01  1.00000000E+00
  1.00000000E+00  1.00000000E+00  2.54938145E-02  1.90373109E-01  8.52161486E-01
  1.00000000E+00  1.00000000E+00  1.00000000E+00  1.96665025E-03  1.52306019E-02
  7.61269097E-02  2.60801033E-01  6.16462078E-01  2.21006028E-01  1.14660081E-01
  9.19999648E-01 -3.03068213E-03  1.00000000E+00  1.00000000E+00  1.00000000E+00
  2.54938145E-02  1.90373109E-01  8.52161486E-01  1.00000000E+00  1.00000000E+00
  1.00000000E+00  2.54938145E-02  1.90373109E-01  8.52161486E-01  1.00000000E+00
  1.00000000E+00  1.00000000E+00  2.54938145E-02  1.90373109E-01  8.52161486E-01
  1.00000000E+00  1.00000000E+00  1.00000000E+00
P(S=P) Contraction coefficients            R   N=         138
  0.00000000E+00  0.00000000E+00  0.00000000E+00  0.00000000E+00  0.00000000E+00
  0.00000000E+00  4.02486927E-02  2.37593957E-01  8.15853851E-01  1.00000000E+00
  1.00000000E+00  0.00000000E+00  0.00000000E+00  0.00000000E+00  0.00000000E+00
  0.00000000E+00  0.00000000E+00  0.00000000E+00  4.02486927E-02  2.37593957E-01
  8.15853851E-01  1.00000000E+00  1.00000000E+00  0.00000000E+00  0.00000000E+00
  0.00000000E+00  0.00000000E+00  0.00000000E+00  0.00000000E+00  0.00000000E+00
  4.02486927E-02  2.37593957E-01  8.15853851E-01  1.00000000E+00  1.00000000E+00
  0.00000000E+00  0.00000000E+00  0.00000000E+00  0.00000000E+00  0.00000000E+00
  0.00000000E+00  0.00000000E+00  4.02486927E-02  2.37593957E-01  8.15853851E-01
  1.00000000E+00  1.00000000E+00  0.00000000E+00  0.00000000E+00  0.00000000E+00
  0.00000000E+00  0.00000000E+00  0.00000000E+00  0.00000000E+00  4.02486927E-02
  2.37593957E-01  8.15853851E-01  1.00000000E+00  1.00000000E+00  0.00000000E+00
  0.00000000E+00  0.00000000E+00  0.00000000E+00  0.00000000E+00  0.00000000E+00
  0.00000000E+00  4.02486927E-02  2.37593957E-01  8.15853851E-01  1.00000000E+00
  1.00000000E+00  0.00000000E+00  0.00000000E+00  0.00000000E+00  0.00000000E+00
  0.00000000E+00  0.00000000E+00  0.00000000E+00  0.00000000E+00  0.00000000E+00
  0.00000000E+00  0.00000000E+00  0.00000000E+00  0.00000000E+00  0.00000000E+00
  0.00000000E+00  0.00000000E+00  0.00000000E+00  0.00000000E+00  0.00000000E+00
  3.65113974E-02  2.37152983E-01  8.19701941E-01  1.00000000E+00  1.00000000E+00
  0.00000000E+00  0.00000000E+00  0.00000000E+00  0.00000000E+00  0.00000000E+00
  0.00000000E+00  0.00000000E+00  0.00000000E+00  0.00000000E+00  0.00000000E+00
  0.00000000E+00  0.00000000E+00  0.00000000E+00  0.00000000E+00  0.00000000E+00
  0.00000000E+00  0.00000000E+00  0.00000000E+00  0.00000000E+00  4.02486927E-02
  2.37593957E-01  8.15853851E-01  1.00000000E+00  1.00000000E+00  0.00000000E+00
  0.00000000E+00  0.00000000E+00  0.00000000E+00  0.00000000E+00  0.00000000E+00
  0.00000000E+00  0.00000000E+00  0.00000000E+00  0.00000000E+00  0.00000000E+00
  0.00000000E+00  0.00000000E+00  0.00000000E+00  0.00000000E+00  0.00000000E+00
  0.00000000E+00  0.00000000E+00  0.00000000E+00
Coordinates of each shell                  R   N=         204
  2.12399312E+00  2.18107133E+00 -8.95630724E-04  2.12399312E+00  2.18107133E+00
 -8.95630724E-04  2.12399312E+00  2.18107133E+00 -8.95630724E-04  2.12399312E+00
  2.18107133E+00 -8.95630724E-04  2.12399312E+00  2.18107133E+00 -8.95630724E-04
 -1.87157247E-01  3.48141987E+00  1.75843989E-04 -1.87157247E-01  3.48141987E+00
  1.75843989E-04 -1.87157247E-01  3.48141987E+00  1.75843989E-04 -1.87157247E-01
  3.48141987E+00  1.75843989E-04 -1.87157247E-01  3.48141987E+00  1.75843989E-04
 -2.34549639E+00  2.05681737E+00  1.15850157E-03 -2.34549639E+00  2.05681737E+00
  1.15850157E-03 -2.34549639E+00  2.05681737E+00  1.15850157E-03 -2.34549639E+00
  2.05681737E+00  1.15850157E-03 -2.34549639E+00  2.05681737E+00  1.15850157E-03
 -2.42680335E+00 -5.51165316E-01  8.27799502E-04 -2.42680335E+00 -5.51165316E-01
  8.27799502E-04 -2.42680335E+00 -5.51165316E-01  8.27799502E-04 -2.42680335E+00
 -5.51165316E-01  8.27799502E-04 -2.42680335E+00 -5.51165316E-01  8.27799502E-04
 -1.01194692E-01 -1.80650247E+00 -1.02413210E-03 -1.01194692E-01 -1.80650247E+00
 -1.02413210E-03 -1.01194692E-01 -1.80650247E+00 -1.02413210E-03 -1.01194692E-01
 -1.80650247E+00 -1.02413210E-03 -1.01194692E-01 -1.80650247E+00 -1.02413210E-03
  2.17511817E+00 -4.61187198E-01 -1.63640336E-03  2.17511817E+00 -4.61187198E-01
 -1.63640336E-03  2.17511817E+00 -4.61187198E-01 -1.63640336E-03  2.17511817E+00
 -4.61187198E-01 -1.63640336E-03  2.17511817E+00 -4.61187198E-01 -1.63640336E-03
 -2.39334786E-01  5.53038565E+00 -1.05725204E-04 -2.39334786E-01  5.53038565E+00
 -1.05725204E-04 -2.39334786E-01  5.53038565E+00 -1.05725204E-04 -2.39334786E-01
  5.53038565E+00 -1.05725204E-04 -1.14792850E-01 -3.85833308E+00 -2.33749176E-03
 -1.14792850E-01 -3.85833308E+00 -2.33749176E-03 -1.14792850E-01 -3.85833308E+00
 -2.33749176E-03 -1.14792850E-01 -3.85833308E+00 -2.33749176E-03 -4.59905465E+00
 -1.93941137E+00 -2.72021103E-04 -4.59905465E+00 -1.93941137E+00 -2.72021103E-04
 -4.59905465E+00 -1.93941137E+00 -2.72021103E-04 -4.59905465E+00 -1.93941137E+00
 -2.72021103E-04 -4.59905465E+00 -1.93941137E+00 -2.72021103E-04 -6.01118102E+00
 -7.89851498E-01  9.80867318E-04 -6.01118102E+00 -7.89851498E-01  9.80867318E-04
 -6.01118102E+00 -7.89851498E-01  9.80867318E-04 -6.01118102E+00 -7.89851498E-01
  9.80867318E-04  3.87809722E+00  3.24194494E+00 -1.78002255E-03  3.87809722E+00
  3.24194494E+00 -1.78002255E-03  3.87809722E+00  3.24194494E+00 -1.78002255E-03
  3.87809722E+00  3.24194494E+00 -1.78002255E-03  4.65649508E+00 -1.87574887E+00
  1.06212554E-03  4.65649508E+00 -1.87574887E+00  1.06212554E-03  4.65649508E+00
 -1.87574887E+00  1.06212554E-03  4.65649508E+00 -1.87574887E+00  1.06212554E-03
  4.65649508E+00 -1.87574887E+00  1.06212554E-03  4.84206826E+00 -3.05657067E+00
  1.68866881E+00  4.84206826E+00 -3.05657067E+00  1.68866881E+00  4.84206826E+00
 -3.05657067E+00  1.68866881E+00  4.84206826E+00 -3.05657067E+00  1.68866881E+00
  4.80885633E+00 -3.12292463E+00 -1.64111555E+00  4.80885633E+00 -3.12292463E+00
 -1.64111555E+00  4.80885633E+00 -3.12292463E+00 -1.64111555E+00  4.80885633E+00
 -3.12292463E+00 -1.64111555E+00  6.25899587E+00 -5.77588038E-01 -4.01433526E-02
  6.25899587E+00 -5.77588038E-01 -4.01433526E-02  6.25899587E+00 -5.77588038E-01
 -4.01433526E-02  6.25899587E+00 -5.77588038E-01 -4.01433526E-02
Num ILSW                                   I              100
ILSW                                       I   N=         100
           1           0           0           0           2           0
           0           0           0           0         402          -1
           5           0           0           0           0           0
           0           0           1           0           0           0
           1           0           0           0           0           0
           0           0      100000           0          -1           0
           0           0           0           0           0           0
           0           0           0           1           0           0
           0 -2000000000           1           0           0           0
           0           0           4          52           0           0
           0           0           5           0           0           0
           0           0           0           0           0           1
           0           0           0           0           0           0
           0           0           0           0           0           0
           0           0           0           0           0           0
           0           0           0           0           0           0
           0           0           0           0
Num RLSW                                   I               52
RLSW                                       R   N=          52
  8.00000000E-01  7.20000000E-01  1.00000000E+00  8.10000000E-01  2.00000000E-01
  0.00000000E+00  0.00000000E+00  1.00000000E+00  0.00000000E+00  0.00000000E+00
  0.00000000E+00  0.00000000E+00  1.00000000E+00  0.00000000E+00  0.00000000E+00
  0.00000000E+00  0.00000000E+00  1.00000000E+00  0.00000000E+00  0.00000000E+00
  0.00000000E+00  0.00000000E+00  1.00000000E+00  0.00000000E+00  0.00000000E+00
  0.00000000E+00  0.00000000E+00  1.00000000E+00  0.00000000E+00  0.00000000E+00
  0.00000000E+00  0.00000000E+00  1.00000000E+00  0.00000000E+00  0.00000000E+00
  0.00000000E+00  0.00000000E+00  0.00000000E+00  1.00000000E+00  1.00000000E+00
  0.00000000E+00  1.00000000E+00  0.00000000E+00  0.00000000E+00  0.00000000E+00
  0.00000000E+00  0.00000000E+00  0.00000000E+00  0.00000000E+00  0.00000000E+00
  0.00000000E+00  0.00000000E+00
MxBond                                     I                4
NBond                                      I   N=          15
           3           3           2           3           3           3
           1           1           2           1           1           4
           1           1           1
IBond                                      I   N=          60
           2           6          11           0           1           3
           7           0           2           4           0           0
           3           5           9           0           4           6
           8           0           1           5          12           0
           2           0           0           0           5           0
           0           0           4          10           0           0
           9           0           0           0           1           0
           0           0           6          13          14          15
          12           0           0           0          12           0
           0           0          12           0           0           0
RBond                                      R   N=          60
  1.50000000E+00  1.50000000E+00  1.00000000E+00  0.00000000E+00  1.50000000E+00
  2.00000000E+00  1.00000000E+00  0.00000000E+00  2.00000000E+00  2.00000000E+00
  0.00000000E+00  0.00000000E+00  2.00000000E+00  1.50000000E+00  1.00000000E+00
  0.00000000E+00  1.50000000E+00  1.50000000E+00  1.00000000E+00  0.00000000E+00
  1.50000000E+00  1.50000000E+00  1.00000000E+00  0.00000000E+00  1.00000000E+00
  0.00000000E+00  0.00000000E+00  0.00000000E+00  1.00000000E+00  0.00000000E+00
  0.00000000E+00  0.00000000E+00  1.00000000E+00  1.00000000E+00  0.00000000E+00
  0.00000000E+00  1.00000000E+00  0.00000000E+00  0.00000000E+00  0.00000000E+00
  1.00000000E+00  0.00000000E+00  0.00000000E+00  0.00000000E+00  1.00000000E+00
  1.00000000E+00  1.00000000E+00  1.00000000E+00  1.00000000E+00  0.00000000E+00
  0.00000000E+00  0.00000000E+00  1.00000000E+00  0.00000000E+00  0.00000000E+00
  0.00000000E+00  1.00000000E+00  0.00000000E+00  0.00000000E+00  0.00000000E+00
Virial Ratio                               R      2.003940971807940E+00
SCF Energy                                 R     -3.461895244851015E+02
Total Energy                               R     -3.461895244851015E+02
S**2                                       R      7.570878019535243E-01
S**2 after annihilation                    R      7.500277807159227E-01
RMS Density                                R      3.272083598222592E-09
Job Status                                 I                1
Nuclear derivative order                   I                0
External E-field                           R   N=          35
  0.00000000E+00  0.00000000E+00  0.00000000E+00  0.00000000E+00  0.00000000E+00
  0.00000000E+00  0.00000000E+00  0.00000000E+00  0.00000000E+00  0.00000000E+00
  0.00000000E+00  0.00000000E+00  0.00000000E+00  0.00000000E+00  0.00000000E+00
  0.00000000E+00  0.00000000E+00  0.00000000E+00  0.00000000E+00  0.00000000E+00
  0.00000000E+00  0.00000000E+00  0.00000000E+00  0.00000000E+00  0.00000000E+00
  0.00000000E+00  0.00000000E+00  0.00000000E+00  0.00000000E+00  0.00000000E+00
  0.00000000E+00  0.00000000E+00  0.00000000E+00  0.00000000E+00  0.00000000E+00
IOpCl                                      I                1
IROHF                                      I                0
Alpha Orbital Energies                     R   N=         186
 -1.91515953E+01 -1.02431481E+01 -1.01962303E+01 -1.01864803E+01 -1.01843106E+01
 -1.01737145E+01 -1.01731784E+01 -1.01697215E+01 -1.06815645E+00 -8.66529776E-01
 -7.77129606E-01 -7.52441089E-01 -6.86867044E-01 -6.15980569E-01 -6.13411056E-01
 -5.27460946E-01 -4.98080474E-01 -4.74426980E-01 -4.47724701E-01 -4.28907814E-01
 -4.08278207E-01 -4.07912717E-01 -3.85509316E-01 -3.77987486E-01 -3.60204385E-01
 -3.37979688E-01 -2.58845900E-01 -2.55040207E-01 -2.32705506E-01 -1.42853154E-02
  4.20669948E-03  4.31171922E-02  5.38906325E-02  6.81656006E-02  9.31367706E-02
  1.07753808E-01  1.12314632E-01  1.39065522E-01  1.69928867E-01  1.96587863E-01
  2.18744622E-01  2.54938277E-01  2.78822127E-01  2.92015468E-01  3.05787596E-01
  3.11865585E-01  3.44049564E-01  3.60542855E-01  3.77862752E-01  3.90964400E-01
  4.02154705E-01  4.22002956E-01  4.31670068E-01  4.34211856E-01  4.50069169E-01
  4.65301563E-01  4.76983113E-01  4.83683060E-01  4.96156774E-01  5.17788193E-01
  5.25045206E-01  5.55392296E-01  5.56728276E-01  5.85601476E-01  5.93767270E-01
  6.12509514E-01  6.21475548E-01  6.30740430E-01  6.35566604E-01  6.59772543E-01
  6.75827124E-01  7.08776404E-01  7.58834852E-01  7.71527328E-01  8.08780365E-01
  8.12490147E-01  8.30263982E-01  8.58207178E-01  8.68979454E-01  8.88089506E-01
  9.50888549E-01  9.58797132E-01  9.83554924E-01  1.00319940E+00  1.00425099E+00
  1.05373907E+00  1.05518529E+00  1.10626366E+00  1.17230974E+00  1.18140938E+00
  1.20654517E+00  1.31482956E+00  1.33394107E+00  1.34578386E+00  1.38897186E+00
  1.42356342E+00  1.45370812E+00  1.46316830E+00  1.47219102E+00  1.49600142E+00
  1.50809000E+00  1.53296999E+00  1.55953708E+00  1.56176846E+00  1.57658605E+00
  1.60078150E+00  1.62063344E+00  1.66377139E+00  1.67909529E+00  1.68290380E+00
  1.70267310E+00  1.75622716E+00  1.77454600E+00  1.81226762E+00  1.84353594E+00
  1.87116382E+00  1.88939314E+00  1.89631083E+00  1.92773819E+00  1.93197232E+00
  1.95174906E+00  1.97395492E+00  2.00734156E+00  2.02749114E+00  2.05205505E+00
  2.11831982E+00  2.12598060E+00  2.20664183E+00  2.25938687E+00  2.29152021E+00
  2.31986488E+00  2.33819207E+00  2.36015043E+00  2.36440686E+00  2.43949334E+00
  2.44562721E+00  2.47997268E+00  2.52846122E+00  2.53231606E+00  2.54356398E+00
  2.56595322E+00  2.58076798E+00  2.61097074E+00  2.62641327E+00  2.64442182E+00
  2.69099654E+00  2.69646477E+00  2.73219160E+00  2.78628587E+00  2.84432654E+00
  2.85907919E+00  2.87107318E+00  2.87434775E+00  2.93558572E+00  3.02144368E+00
  3.04852315E+00  3.09061356E+00  3.12806634E+00  3.16782380E+00  3.18923089E+00
  3.30196177E+00  3.35069731E+00  3.38836326E+00  3.50176763E+00  3.58368139E+00
  3.61231181E+00  3.71267345E+00  3.78377917E+00  3.81038590E+00  3.84663515E+00
  3.98476983E+00  4.08923062E+00  4.10930925E+00  4.30754008E+00  4.80749648E+00
  4.81372885E+00  5.31759246E+00  5.68268090E+00  2.34085218E+01  2.38517642E+01
  2.39259869E+01  2.39304578E+01  2.40553703E+01  2.40901197E+01  2.41723229E+01
  4.98995687E+01
Beta Orbital Energies                      R   N=         186
 -1.91513236E+01 -1.02429686E+01 -1.01869896E+01 -1.01845759E+01 -1.01810645E+01
 -1.01723971E+01 -1.01722720E+01 -1.01696712E+01 -1.06689642E+00 -8.59569327E-01
 -7.69302282E-01 -7.49092440E-01 -6.78156465E-01 -6.13431956E-01 -6.06997029E-01
 -5.22694888E-01 -4.91019541E-01 -4.66976287E-01 -4.42384323E-01 -4.28738317E-01
 -4.07701222E-01 -4.06232316E-01 -3.80770114E-01 -3.74723003E-01 -3.54254086E-01
 -3.36257477E-01 -2.51059978E-01 -2.28329128E-01 -1.04660121E-01 -1.13225311E-02
  8.17063853E-03  4.62968088E-02  5.74644509E-02  6.92188188E-02  9.41306769E-02
  1.09013982E-01  1.14486284E-01  1.39643929E-01  1.74881605E-01  1.98269881E-01
  2.23769375E-01  2.57512936E-01  2.86462773E-01  2.97535615E-01  3.05789688E-01
  3.16347362E-01  3.46669849E-01  3.67469416E-01  3.81854291E-01  3.93635936E-01