 Entering Link 1 = D:\Gaussian\G16W\l1.exe PID=     38300.
  
 Copyright (c) 1988,1990,1992,1993,1995,1998,2003,2009,2016,
            Gaussian, Inc.  All Rights Reserved.
  
 This is part of the Gaussian(R) 16 program.  It is based on
 the Gaussian(R) 09 system (copyright 2009, Gaussian, Inc.),
 the Gaussian(R) 03 system (copyright 2003, Gaussian, Inc.),
 the Gaussian(R) 98 system (copyright 1998, Gaussian, Inc.),
 the Gaussian(R) 94 system (copyright 1995, Gaussian, Inc.),
 the Gaussian 92(TM) system (copyright 1992, Gaussian, Inc.),
 the Gaussian 90(TM) system (copyright 1990, Gaussian, Inc.),
 the Gaussian 88(TM) system (copyright 1988, Gaussian, Inc.),
 the Gaussian 86(TM) system (copyright 1986, Carnegie Mellon
 University), and the Gaussian 82(TM) system (copyright 1983,
 Carnegie Mellon University). Gaussian is a federally registered
 trademark of Gaussian, Inc.
  
 This software contains proprietary and confidential information,
 including trade secrets, belonging to Gaussian, Inc.
  
 This software is provided under written license and may be
 used, copied, transmitted, or stored only in accord with that
 written license.
  
 The following legend is applicable only to US Government
 contracts under FAR:
  
                    RESTRICTED RIGHTS LEGEND
  
 Use, reproduction and disclosure by the US Government is
 subject to restrictions as set forth in subparagraphs (a)
 and (c) of the Commercial Computer Software - Restricted
 Rights clause in FAR 52.227-19.
  
 Gaussian, Inc.
 340 Quinnipiac St., Bldg. 40, Wallingford CT 06492
  
  
 ---------------------------------------------------------------
 Warning -- This program may not be used in any manner that
 competes with the business of Gaussian, Inc. or will provide
 assistance to any competitor of Gaussian, Inc.  The licensee
 of this program is prohibited from giving any competitor of
 Gaussian, Inc. access to this program.  By using this program,
 the user acknowledges that Gaussian, Inc. is engaged in the
 business of creating and licensing software in the field of
 computational chemistry and represents and warrants to the
 licensee that it is not a competitor of Gaussian, Inc. and that
 it will not use this program in any manner prohibited above.
 ---------------------------------------------------------------
  

 Cite this work as:
 Gaussian 16, Revision A.03,
 M. J. Frisch, G. W. Trucks, H. B. Schlegel, G. E. Scuseria, 
 M. A. Robb, J. R. Cheeseman, G. Scalmani, V. Barone, 
 G. A. Petersson, H. Nakatsuji, X. Li, M. Caricato, A. V. Marenich, 
 J. Bloino, B. G. Janesko, R. Gomperts, B. Mennucci, H. P. Hratchian, 
 J. V. Ortiz, A. F. Izmaylov, J. L. Sonnenberg, D. Williams-Young, 
 F. Ding, F. Lipparini, F. Egidi, J. Goings, B. Peng, A. Petrone, 
 T. Henderson, D. Ranasinghe, V. G. Zakrzewski, J. Gao, N. Rega, 
 G. Zheng, W. Liang, M. Hada, M. Ehara, K. Toyota, R. Fukuda, 
 J. Hasegawa, M. Ishida, T. Nakajima, Y. Honda, O. Kitao, H. Nakai, 
 T. Vreven, K. Throssell, J. A. Montgomery, Jr., J. E. Peralta, 
 F. Ogliaro, M. J. Bearpark, J. J. Heyd, E. N. Brothers, K. N. Kudin, 
 V. N. Staroverov, T. A. Keith, R. Kobayashi, J. Normand, 
 K. Raghavachari, A. P. Rendell, J. C. Burant, S. S. Iyengar, 
 J. Tomasi, M. Cossi, J. M. Millam, M. Klene, C. Adamo, R. Cammi, 
 J. W. Ochterski, R. L. Martin, K. Morokuma, O. Farkas, 
 J. B. Foresman, and D. J. Fox, Gaussian, Inc., Wallingford CT, 2016.
 
 ******************************************
 Gaussian 16:  EM64W-G16RevA.03 17-Dec-2016
                02-Dec-2025 
 ******************************************
 %nprocshared=14
 Will use up to   14 processors via shared memory.
 %mem=58339MB
 %chk=SR-8.chk
 ---------------------------------------------------------
 # ub3lyp/6-311g(d,p) geom=connectivity temperature=823.15
 ---------------------------------------------------------
 1/38=1,57=2,112=823150,172=1/1;
 2/12=2,17=6,18=5,40=1/2;
 3/5=4,6=6,7=101,11=2,25=1,30=1,74=-5,116=2/1,2,3;
 4//1;
 5/5=2,38=5/2;
 6/7=2,8=2,9=2,10=2,28=1/1;
 99/5=1,9=1/99;
 -------------------
 Title Card Required
 -------------------
 Symbolic Z-matrix:
 Charge =  0 Multiplicity = 2
 C                     1.12397   1.15417  -0.00047 
 C                    -0.09904   1.84229   0.00009 
 C                    -1.24118   1.08842   0.00061 
 C                    -1.28421  -0.29166   0.00044 
 C                    -0.05355  -0.95596  -0.00054 
 C                     1.15102  -0.24405  -0.00087 
 H                    -0.12665   2.92655  -0.00006 
 H                    -0.06075  -2.04174  -0.00124 
 O                    -2.43372  -1.02629  -0.00014 
 H                    -3.18098  -0.41797   0.00052 
 H                     2.0522    1.71556  -0.00094 
 C                     2.46411  -0.9926    0.00056 
 H                     2.56231  -1.61747   0.89361 
 H                     2.54474  -1.65258  -0.86844 
 H                     3.31212  -0.30565  -0.02124 
 
                          Input orientation:                          
 ---------------------------------------------------------------------
 Center     Atomic      Atomic             Coordinates (Angstroms)
 Number     Number       Type             X           Y           Z
 ---------------------------------------------------------------------
      1          6           0        1.123969    1.154173   -0.000474
      2          6           0       -0.099039    1.842288    0.000093
      3          6           0       -1.241183    1.088421    0.000613
      4          6           0       -1.284209   -0.291664    0.000438
      5          6           0       -0.053550   -0.955960   -0.000542
      6          6           0        1.151023   -0.244050   -0.000866
      7          1           0       -0.126650    2.926554   -0.000056
      8          1           0       -0.060746   -2.041742   -0.001237
      9          8           0       -2.433715   -1.026292   -0.000144
     10          1           0       -3.180980   -0.417971    0.000519
     11          1           0        2.052201    1.715563   -0.000942
     12          6           0        2.464111   -0.992604    0.000562
     13          1           0        2.562312   -1.617468    0.893605
     14          1           0        2.544737   -1.652581   -0.868441
     15          1           0        3.312118   -0.305647   -0.021243
 ---------------------------------------------------------------------
                    Distance matrix (angstroms):
                    1          2          3          4          5
     1  C    0.000000
     2  C    1.403300   0.000000
     3  C    2.366066   1.368506   0.000000
     4  C    2.808873   2.440979   1.380756   0.000000
     5  C    2.416446   2.798618   2.364311   1.398503   0.000000
     6  C    1.398485   2.432172   2.738271   2.435698   1.399218
     7  H    2.169189   1.084618   2.149632   3.420069   3.883202
     8  H    3.408434   3.884219   3.345348   2.135331   1.085806
     9  O    4.172714   3.698576   2.427786   1.364200   2.381204
    10  H    4.583037   3.821928   2.456019   1.900972   3.173366
    11  H    1.084792   2.154970   3.352564   3.893661   3.401650
    12  C    2.530738   3.821826   4.249690   3.813295   2.517928
    13  H    3.248107   4.455453   4.752457   4.165480   2.842503
    14  H    3.263406   4.467439   4.754107   4.155463   2.826592
    15  H    2.630495   4.031138   4.761980   4.596399   3.427981
                    6          7          8          9         10
     6  C    0.000000
     7  H    3.418359   0.000000
     8  H    2.167967   4.968733   0.000000
     9  O    3.669094   4.576848   2.581109   0.000000
    10  H    4.335493   4.529324   3.517456   0.963566   0.000000
    11  H    2.156897   2.492768   4.310671   5.257491   5.651385
    12  C    1.511468   4.698068   2.734154   4.897942   5.674263
    13  H    2.162890   5.355117   2.803780   5.109654   5.934796
    14  H    2.163119   5.372046   2.773451   5.092265   5.921418
    15  H    2.162069   4.719396   3.793499   5.790887   6.494106
                   11         12         13         14         15
    11  H    0.000000
    12  C    2.739314   0.000000
    13  H    3.488484   1.094360   0.000000
    14  H    3.512768   1.094183   1.762483   0.000000
    15  H    2.381826   1.091559   1.766361   1.766593   0.000000
 Stoichiometry    C7H7O(2)
 Framework group  C1[X(C7H7O)]
 Deg. of freedom    39
 Full point group                 C1      NOp   1
 Largest Abelian subgroup         C1      NOp   1
 Largest concise Abelian subgroup C1      NOp   1
                         Standard orientation:                         
 ---------------------------------------------------------------------
 Center     Atomic      Atomic             Coordinates (Angstroms)
 Number     Number       Type             X           Y           Z
 ---------------------------------------------------------------------
      1          6           0        1.123969    1.154173   -0.000474
      2          6           0       -0.099039    1.842288    0.000093
      3          6           0       -1.241183    1.088421    0.000613
      4          6           0       -1.284209   -0.291664    0.000438
      5          6           0       -0.053550   -0.955960   -0.000542
      6          6           0        1.151023   -0.244050   -0.000866
      7          1           0       -0.126651    2.926554   -0.000056
      8          1           0       -0.060746   -2.041742   -0.001237
      9          8           0       -2.433715   -1.026292   -0.000144
     10          1           0       -3.180980   -0.417971    0.000519
     11          1           0        2.052201    1.715563   -0.000942
     12          6           0        2.464111   -0.992604    0.000562
     13          1           0        2.562312   -1.617468    0.893605
     14          1           0        2.544737   -1.652581   -0.868441
     15          1           0        3.312118   -0.305646   -0.021243
 ---------------------------------------------------------------------
 Rotational constants (GHZ):           3.7395318           1.8243860           1.2355625
 Standard basis: 6-311G(d,p) (5D, 7F)
 There are   194 symmetry adapted cartesian basis functions of A   symmetry.
 There are   186 symmetry adapted basis functions of A   symmetry.
   186 basis functions,   312 primitive gaussians,   194 cartesian basis functions
    29 alpha electrons       28 beta electrons
       nuclear repulsion energy       331.9229837224 Hartrees.
 NAtoms=   15 NActive=   15 NUniq=   15 SFac= 1.00D+00 NAtFMM=   60 NAOKFM=F Big=F
 Integral buffers will be    131072 words long.
 Raffenetti 2 integral format.
 Two-electron integral symmetry is turned on.
 One-electron integrals computed using PRISM.
 NBasis=   186 RedAO= T EigKep=  2.53D-04  NBF=   186
 NBsUse=   186 1.00D-06 EigRej= -1.00D+00 NBFU=   186
 ExpMin= 1.03D-01 ExpMax= 8.59D+03 ExpMxC= 1.30D+03 IAcc=3 IRadAn=         5 AccDes= 0.00D+00
 Harris functional with IExCor=  402 and IRadAn=       5 diagonalized for initial guess.
 HarFok:  IExCor=  402 AccDes= 0.00D+00 IRadAn=         5 IDoV= 1 UseB2=F ITyADJ=14
 ICtDFT=  3500011 ScaDFX=  1.000000  1.000000  1.000000  1.000000
 FoFCou: FMM=F IPFlag=           0 FMFlag=      100000 FMFlg1=           0
         NFxFlg=           0 DoJE=T BraDBF=F KetDBF=T FulRan=T
         wScrn=  0.000000 ICntrl=       500 IOpCl=  0 I1Cent=   200000004 NGrid=           0
         NMat0=    1 NMatS0=      1 NMatT0=    0 NMatD0=    1 NMtDS0=    0 NMtDT0=    0
 Petite list used in FoFCou.
 Initial guess <Sx>= 0.0000 <Sy>= 0.0000 <Sz>= 0.5000 <S**2>= 0.7500 S= 0.5000
 Requested convergence on RMS density matrix=1.00D-08 within 128 cycles.
 Requested convergence on MAX density matrix=1.00D-06.
 Requested convergence on             energy=1.00D-06.
 No special actions if energy rises.
 Integral accuracy reduced to 1.0D-05 until final iterations.
 Initial convergence to 1.0D-05 achieved.  Increase integral accuracy.
 SCF Done:  E(UB3LYP) =  -346.189524485     A.U. after   19 cycles
            NFock= 19  Conv=0.33D-08     -V/T= 2.0039
 <Sx>= 0.0000 <Sy>= 0.0000 <Sz>= 0.5000 <S**2>= 0.7571 S= 0.5035
 <L.S>= 0.000000000000E+00
 Annihilation of the first spin contaminant:
 S**2 before annihilation     0.7571,   after     0.7500

 **********************************************************************

            Population analysis using the SCF density.

 **********************************************************************

 Orbital symmetries:
 Alpha Orbitals:
       Occupied  (A) (A) (A) (A) (A) (A) (A) (A) (A) (A) (A) (A)
                 (A) (A) (A) (A) (A) (A) (A) (A) (A) (A) (A) (A)
                 (A) (A) (A) (A) (A)
       Virtual   (A) (A) (A) (A) (A) (A) (A) (A) (A) (A) (A) (A)
                 (A) (A) (A) (A) (A) (A) (A) (A) (A) (A) (A) (A)
                 (A) (A) (A) (A) (A) (A) (A) (A) (A) (A) (A) (A)
                 (A) (A) (A) (A) (A) (A) (A) (A) (A) (A) (A) (A)
                 (A) (A) (A) (A) (A) (A) (A) (A) (A) (A) (A) (A)
                 (A) (A) (A) (A) (A) (A) (A) (A) (A) (A) (A) (A)
                 (A) (A) (A) (A) (A) (A) (A) (A) (A) (A) (A) (A)
                 (A) (A) (A) (A) (A) (A) (A) (A) (A) (A) (A) (A)
                 (A) (A) (A) (A) (A) (A) (A) (A) (A) (A) (A) (A)
                 (A) (A) (A) (A) (A) (A) (A) (A) (A) (A) (A) (A)
                 (A) (A) (A) (A) (A) (A) (A) (A) (A) (A) (A) (A)
                 (A) (A) (A) (A) (A) (A) (A) (A) (A) (A) (A) (A)
                 (A) (A) (A) (A) (A) (A) (A) (A) (A) (A) (A) (A)
                 (A)
 Beta  Orbitals:
       Occupied  (A) (A) (A) (A) (A) (A) (A) (A) (A) (A) (A) (A)
                 (A) (A) (A) (A) (A) (A) (A) (A) (A) (A) (A) (A)
                 (A) (A) (A) (A)
       Virtual   (A) (A) (A) (A) (A) (A) (A) (A) (A) (A) (A) (A)
                 (A) (A) (A) (A) (A) (A) (A) (A) (A) (A) (A) (A)
                 (A) (A) (A) (A) (A) (A) (A) (A) (A) (A) (A) (A)
                 (A) (A) (A) (A) (A) (A) (A) (A) (A) (A) (A) (A)
                 (A) (A) (A) (A) (A) (A) (A) (A) (A) (A) (A) (A)
                 (A) (A) (A) (A) (A) (A) (A) (A) (A) (A) (A) (A)
                 (A) (A) (A) (A) (A) (A) (A) (A) (A) (A) (A) (A)
                 (A) (A) (A) (A) (A) (A) (A) (A) (A) (A) (A) (A)
                 (A) (A) (A) (A) (A) (A) (A) (A) (A) (A) (A) (A)
                 (A) (A) (A) (A) (A) (A) (A) (A) (A) (A) (A) (A)
                 (A) (A) (A) (A) (A) (A) (A) (A) (A) (A) (A) (A)
                 (A) (A) (A) (A) (A) (A) (A) (A) (A) (A) (A) (A)
                 (A) (A) (A) (A) (A) (A) (A) (A) (A) (A) (A) (A)
                 (A) (A)
 The electronic state is 2-A.
 Alpha  occ. eigenvalues --  -19.15160 -10.24315 -10.19623 -10.18648 -10.18431
 Alpha  occ. eigenvalues --  -10.17371 -10.17318 -10.16972  -1.06816  -0.86653
 Alpha  occ. eigenvalues --   -0.77713  -0.75244  -0.68687  -0.61598  -0.61341
 Alpha  occ. eigenvalues --   -0.52746  -0.49808  -0.47443  -0.44772  -0.42891
 Alpha  occ. eigenvalues --   -0.40828  -0.40791  -0.38551  -0.37799  -0.36020
 Alpha  occ. eigenvalues --   -0.33798  -0.25885  -0.25504  -0.23271
 Alpha virt. eigenvalues --   -0.01429   0.00421   0.04312   0.05389   0.06817
 Alpha virt. eigenvalues --    0.09314   0.10775   0.11231   0.13907   0.16993
 Alpha virt. eigenvalues --    0.19659   0.21874   0.25494   0.27882   0.29202
 Alpha virt. eigenvalues --    0.30579   0.31187   0.34405   0.36054   0.37786
 Alpha virt. eigenvalues --    0.39096   0.40215   0.42200   0.43167   0.43421
 Alpha virt. eigenvalues --    0.45007   0.46530   0.47698   0.48368   0.49616
 Alpha virt. eigenvalues --    0.51779   0.52505   0.55539   0.55673   0.58560
 Alpha virt. eigenvalues --    0.59377   0.61251   0.62148   0.63074   0.63557
 Alpha virt. eigenvalues --    0.65977   0.67583   0.70878   0.75883   0.77153
 Alpha virt. eigenvalues --    0.80878   0.81249   0.83026   0.85821   0.86898
 Alpha virt. eigenvalues --    0.88809   0.95089   0.95880   0.98355   1.00320
 Alpha virt. eigenvalues --    1.00425   1.05374   1.05519   1.10626   1.17231
 Alpha virt. eigenvalues --    1.18141   1.20655   1.31483   1.33394   1.34578
 Alpha virt. eigenvalues --    1.38897   1.42356   1.45371   1.46317   1.47219
 Alpha virt. eigenvalues --    1.49600   1.50809   1.53297   1.55954   1.56177
 Alpha virt. eigenvalues --    1.57659   1.60078   1.62063   1.66377   1.67910
 Alpha virt. eigenvalues --    1.68290   1.70267   1.75623   1.77455   1.81227
 Alpha virt. eigenvalues --    1.84354   1.87116   1.88939   1.89631   1.92774
 Alpha virt. eigenvalues --    1.93197   1.95175   1.97395   2.00734   2.02749
 Alpha virt. eigenvalues --    2.05206   2.11832   2.12598   2.20664   2.25939
 Alpha virt. eigenvalues --    2.29152   2.31986   2.33819   2.36015   2.36441
 Alpha virt. eigenvalues --    2.43949   2.44563   2.47997   2.52846   2.53232
 Alpha virt. eigenvalues --    2.54356   2.56595   2.58077   2.61097   2.62641
 Alpha virt. eigenvalues --    2.64442   2.69100   2.69646   2.73219   2.78629
 Alpha virt. eigenvalues --    2.84433   2.85908   2.87107   2.87435   2.93559
 Alpha virt. eigenvalues --    3.02144   3.04852   3.09061   3.12807   3.16782
 Alpha virt. eigenvalues --    3.18923   3.30196   3.35070   3.38836   3.50177
 Alpha virt. eigenvalues --    3.58368   3.61231   3.71267   3.78378   3.81039
 Alpha virt. eigenvalues --    3.84664   3.98477   4.08923   4.10931   4.30754
 Alpha virt. eigenvalues --    4.80750   4.81373   5.31759   5.68268  23.40852
 Alpha virt. eigenvalues --   23.85176  23.92599  23.93046  24.05537  24.09012
 Alpha virt. eigenvalues --   24.17232  49.89957
  Beta  occ. eigenvalues --  -19.15132 -10.24297 -10.18699 -10.18458 -10.18106
  Beta  occ. eigenvalues --  -10.17240 -10.17227 -10.16967  -1.06690  -0.85957
  Beta  occ. eigenvalues --   -0.76930  -0.74909  -0.67816  -0.61343  -0.60700
  Beta  occ. eigenvalues --   -0.52269  -0.49102  -0.46698  -0.44238  -0.42874
  Beta  occ. eigenvalues --   -0.40770  -0.40623  -0.38077  -0.37472  -0.35425
  Beta  occ. eigenvalues --   -0.33626  -0.25106  -0.22833
  Beta virt. eigenvalues --   -0.10466  -0.01132   0.00817   0.04630   0.05746
  Beta virt. eigenvalues --    0.06922   0.09413   0.10901   0.11449   0.13964
  Beta virt. eigenvalues --    0.17488   0.19827   0.22377   0.25751   0.28646
  Beta virt. eigenvalues --    0.29754   0.30579   0.31635   0.34667   0.36747
  Beta virt. eigenvalues --    0.38185   0.39364   0.41729   0.42721   0.43487
  Beta virt. eigenvalues --    0.44215   0.45014   0.47393   0.48225   0.49216
  Beta virt. eigenvalues --    0.50111   0.52460   0.52738   0.55717   0.55799
  Beta virt. eigenvalues --    0.59192   0.59413   0.61447   0.62408   0.63378
  Beta virt. eigenvalues --    0.64016   0.66839   0.68125   0.71325   0.76386
  Beta virt. eigenvalues --    0.77573   0.81438   0.81880   0.83110   0.86149
  Beta virt. eigenvalues --    0.87237   0.89125   0.95187   0.96256   0.98509
  Beta virt. eigenvalues --    1.00667   1.00725   1.05846   1.05920   1.10757
  Beta virt. eigenvalues --    1.17877   1.18503   1.22833   1.32181   1.34369
  Beta virt. eigenvalues --    1.34594   1.39217   1.42933   1.45358   1.47030
  Beta virt. eigenvalues --    1.47465   1.49634   1.52026   1.53571   1.56177
  Beta virt. eigenvalues --    1.56329   1.57832   1.60774   1.62665   1.66854
  Beta virt. eigenvalues --    1.68647   1.69088   1.71183   1.75742   1.77615
  Beta virt. eigenvalues --    1.81584   1.84521   1.87840   1.89647   1.89864
  Beta virt. eigenvalues --    1.93365   1.93554   1.95450   1.97921   2.00849
  Beta virt. eigenvalues --    2.03703   2.05530   2.11962   2.13040   2.20968
  Beta virt. eigenvalues --    2.26795   2.29505   2.32788   2.34531   2.36170
  Beta virt. eigenvalues --    2.36632   2.44461   2.44604   2.48139   2.53454
  Beta virt. eigenvalues --    2.53589   2.54422   2.56724   2.58736   2.61468
  Beta virt. eigenvalues --    2.62911   2.64925   2.69689   2.70332   2.73986
  Beta virt. eigenvalues --    2.79216   2.84517   2.87000   2.87259   2.88787
  Beta virt. eigenvalues --    2.95172   3.02648   3.05055   3.09110   3.13175
  Beta virt. eigenvalues --    3.16774   3.19228   3.30634   3.35344   3.39024
  Beta virt. eigenvalues --    3.50595   3.58964   3.61803   3.71822   3.78364
  Beta virt. eigenvalues --    3.81046   3.84784   3.98644   4.09176   4.11280
  Beta virt. eigenvalues --    4.30754   4.80716   4.81712   5.31884   5.68320
  Beta virt. eigenvalues --   23.41262  23.85446  23.92649  23.93233  24.05770
  Beta virt. eigenvalues --   24.09273  24.17751  49.89987
          Condensed to atoms (all electrons):
               1          2          3          4          5          6
     1  C    4.844879   0.519794  -0.049306  -0.026971  -0.066853   0.538448
     2  C    0.519794   4.875147   0.430573  -0.032946  -0.026165  -0.044850
     3  C   -0.049306   0.430573   5.521311   0.402018  -0.054140  -0.065958
     4  C   -0.026971  -0.032946   0.402018   4.699836   0.533557  -0.044641
     5  C   -0.066853  -0.026165  -0.054140   0.533557   4.883981   0.517439
     6  C    0.538448  -0.044850  -0.065958  -0.044641   0.517439   5.028467
     7  H   -0.033566   0.404094  -0.035680   0.003290   0.000199   0.006820
     8  H    0.008808  -0.002595   0.013613  -0.047538   0.407530  -0.046379
     9  O    0.000036   0.005308  -0.077488   0.366951  -0.054486   0.002780
    10  H   -0.000044   0.001785   0.003083  -0.050251   0.007920  -0.000237
    11  H    0.413035  -0.044576   0.011009  -0.001039   0.009018  -0.044998
    12  C   -0.056519   0.006959  -0.000013   0.005603  -0.058576   0.359850
    13  H    0.000788  -0.000317   0.000066   0.000154  -0.004956  -0.036626
    14  H    0.001220  -0.000322   0.000061   0.000197  -0.005078  -0.036840
    15  H   -0.007447   0.000458   0.000060  -0.000400   0.007056  -0.034946
               7          8          9         10         11         12
     1  C   -0.033566   0.008808   0.000036  -0.000044   0.413035  -0.056519
     2  C    0.404094  -0.002595   0.005308   0.001785  -0.044576   0.006959
     3  C   -0.035680   0.013613  -0.077488   0.003083   0.011009  -0.000013
     4  C    0.003290  -0.047538   0.366951  -0.050251  -0.001039   0.005603
     5  C    0.000199   0.407530  -0.054486   0.007920   0.009018  -0.058576
     6  C    0.006820  -0.046379   0.002780  -0.000237  -0.044998   0.359850
     7  H    0.552638   0.000069  -0.000097  -0.000065  -0.007390  -0.000328
     8  H    0.000069   0.570766   0.004965  -0.001229  -0.000225  -0.006928
     9  O   -0.000097   0.004965   7.786248   0.322502   0.000011  -0.000076
    10  H   -0.000065  -0.001229   0.322502   0.467318  -0.000016   0.000026
    11  H   -0.007390  -0.000225   0.000011  -0.000016   0.585273  -0.009813
    12  C   -0.000328  -0.006928  -0.000076   0.000026  -0.009813   4.805855
    13  H    0.000018   0.000968  -0.000005   0.000000   0.000116   0.402049
    14  H    0.000018   0.001035  -0.000006   0.000000   0.000105   0.402649
    15  H   -0.000024   0.000146   0.000002  -0.000001   0.003992   0.407273
              13         14         15
     1  C    0.000788   0.001220  -0.007447
     2  C   -0.000317  -0.000322   0.000458
     3  C    0.000066   0.000061   0.000060
     4  C    0.000154   0.000197  -0.000400
     5  C   -0.004956  -0.005078   0.007056
     6  C   -0.036626  -0.036840  -0.034946
     7  H    0.000018   0.000018  -0.000024
     8  H    0.000968   0.001035   0.000146
     9  O   -0.000005  -0.000006   0.000002
    10  H    0.000000   0.000000  -0.000001
    11  H    0.000116   0.000105   0.003992
    12  C    0.402049   0.402649   0.407273
    13  H    0.571455  -0.030893  -0.026998
    14  H   -0.030893   0.571380  -0.027039
    15  H   -0.026998  -0.027039   0.572165
          Atomic-Atomic Spin Densities.
               1          2          3          4          5          6
     1  C    0.075804   0.022132  -0.019851  -0.001144   0.002686  -0.007120
     2  C    0.022132  -0.073795  -0.027001   0.005121  -0.000222   0.011607
     3  C   -0.019851  -0.027001   1.087141  -0.042198  -0.008725  -0.021575
     4  C   -0.001144   0.005121  -0.042198  -0.038706   0.011421   0.008943
     5  C    0.002686  -0.000222  -0.008725   0.011421   0.047125  -0.006289
     6  C   -0.007120   0.011607  -0.021575   0.008943  -0.006289  -0.017944
     7  H   -0.007593   0.007581  -0.003440  -0.000001   0.000016  -0.000500
     8  H    0.000507  -0.000578   0.003718  -0.003993   0.000260  -0.007471
     9  O    0.000002  -0.000550  -0.008138   0.015050  -0.002103  -0.000296
    10  H    0.000071   0.000371   0.013887  -0.005042   0.001486   0.000273
    11  H   -0.005137  -0.002615   0.004223  -0.000162   0.000596  -0.003899
    12  C   -0.001262  -0.000077  -0.000446  -0.000130  -0.001622   0.005076
    13  H    0.000145  -0.000026   0.000050  -0.000042   0.000171   0.000470
    14  H    0.000145  -0.000026   0.000053  -0.000044   0.000189   0.000419
    15  H    0.000129  -0.000039   0.000052  -0.000009   0.000111  -0.000205
               7          8          9         10         11         12
     1  C   -0.007593   0.000507   0.000002   0.000071  -0.005137  -0.001262
     2  C    0.007581  -0.000578  -0.000550   0.000371  -0.002615  -0.000077
     3  C   -0.003440   0.003718  -0.008138   0.013887   0.004223  -0.000446
     4  C   -0.000001  -0.003993   0.015050  -0.005042  -0.000162  -0.000130
     5  C    0.000016   0.000260  -0.002103   0.001486   0.000596  -0.001622
     6  C   -0.000500  -0.007471  -0.000296   0.000273  -0.003899   0.005076
     7  H    0.024341   0.000025   0.000018  -0.000069   0.001574  -0.000019
     8  H    0.000025   0.021404   0.000407  -0.000620   0.000148  -0.000234
     9  O    0.000018   0.000407   0.007666  -0.005303   0.000005  -0.000002
    10  H   -0.000069  -0.000620  -0.005303   0.008560  -0.000012   0.000003
    11  H    0.001574   0.000148   0.000005  -0.000012   0.014717  -0.000892
    12  C   -0.000019  -0.000234  -0.000002   0.000003  -0.000892   0.003426
    13  H    0.000001   0.000143   0.000001  -0.000001   0.000059  -0.000361
    14  H    0.000001   0.000157   0.000001  -0.000001   0.000060  -0.000376
    15  H    0.000004   0.000041   0.000000   0.000000   0.000193  -0.000295
              13         14         15
     1  C    0.000145   0.000145   0.000129
     2  C   -0.000026  -0.000026  -0.000039
     3  C    0.000050   0.000053   0.000052
     4  C   -0.000042  -0.000044  -0.000009
     5  C    0.000171   0.000189   0.000111
     6  C    0.000470   0.000419  -0.000205
     7  H    0.000001   0.000001   0.000004
     8  H    0.000143   0.000157   0.000041
     9  O    0.000001   0.000001   0.000000
    10  H   -0.000001  -0.000001   0.000000
    11  H    0.000059   0.000060   0.000193
    12  C   -0.000361  -0.000376  -0.000295
    13  H   -0.002840   0.000799   0.000081
    14  H    0.000799  -0.002697   0.000053
    15  H    0.000081   0.000053  -0.000157
 Mulliken charges and spin densities:
               1          2
     1  C   -0.086303   0.059515
     2  C   -0.092346  -0.058118
     3  C   -0.099208   0.977749
     4  C    0.192181  -0.050936
     5  C   -0.096447   0.045098
     6  C   -0.098329  -0.038512
     7  H    0.110003   0.021940
     8  H    0.096994   0.013912
     9  O   -0.356644   0.006759
    10  H    0.249210   0.013603
    11  H    0.085498   0.008860
    12  C   -0.258009   0.002789
    13  H    0.124182  -0.001351
    14  H    0.123514  -0.001266
    15  H    0.105704  -0.000042
 Sum of Mulliken charges =   0.00000   1.00000
 Mulliken charges and spin densities with hydrogens summed into heavy atoms:
               1          2
     1  C   -0.000805   0.068375
     2  C    0.017658  -0.036178
     3  C   -0.099208   0.977749
     4  C    0.192181  -0.050936
     5  C    0.000547   0.059010
     6  C   -0.098329  -0.038512
     9  O   -0.107434   0.020362
    12  C    0.095390   0.000130
 Electronic spatial extent (au):  <R**2>=            943.4196
 Charge=              0.0000 electrons
 Dipole moment (field-independent basis, Debye):
    X=              0.2565    Y=              0.6023    Z=              0.0030  Tot=              0.6546
 Quadrupole moment (field-independent basis, Debye-Ang):
   XX=            -39.9368   YY=            -45.5707   ZZ=            -50.2618
   XY=             -2.1083   XZ=              0.0006   YZ=             -0.0024
 Traceless Quadrupole moment (field-independent basis, Debye-Ang):
   XX=              5.3197   YY=             -0.3143   ZZ=             -5.0054
   XY=             -2.1083   XZ=              0.0006   YZ=             -0.0024
 Octapole moment (field-independent basis, Debye-Ang**2):
  XXX=            -29.3380  YYY=              1.4994  ZZZ=              0.0455  XYY=              6.0603
  XXY=              3.3349  XXZ=              0.0091  XZZ=             -2.8277  YZZ=             -4.7651
  YYZ=             -0.0346  XYZ=             -0.0152
 Hexadecapole moment (field-independent basis, Debye-Ang**3):
 XXXX=           -651.2319 YYYY=           -392.3187 ZZZZ=            -61.0517 XXXY=             10.6447
 XXXZ=             -0.1043 YYYX=              8.4035 YYYZ=              0.1146 ZZZX=              0.1311
 ZZZY=             -0.0596 XXYY=           -213.7727 XXZZ=           -142.7748 YYZZ=            -85.8379
 XXYZ=             -0.0943 YYXZ=             -0.0477 ZZXY=              1.3972
 N-N= 3.319229837224D+02 E-N=-1.470255239221D+03  KE= 3.448305569815D+02
                          Isotropic Fermi Contact Couplings
        Atom                 a.u.       MegaHertz       Gauss      10(-4) cm-1
     1  C(13)              0.03918      44.04997      15.71812      14.69349
     2  C(13)              0.00469       5.27598       1.88260       1.75988
     3  C(13)              0.30090     338.26743     120.70223     112.83387
     4  C(13)             -0.00115      -1.29785      -0.46311      -0.43292
     5  C(13)              0.02336      26.26626       9.37246       8.76148
     6  C(13)             -0.00348      -3.91158      -1.39575      -1.30476
     7  H(1)               0.01224      54.72394      19.52686      18.25394
     8  H(1)               0.00572      25.58811       9.13048       8.53528
     9  O(17)              0.01919     -11.63115      -4.15028      -3.87974
    10  H(1)               0.00012       0.52722       0.18812       0.17586
    11  H(1)               0.00270      12.05292       4.30078       4.02042
    12  C(13)              0.00314       3.53022       1.25967       1.17755
    13  H(1)              -0.00073      -3.27081      -1.16711      -1.09103
    14  H(1)              -0.00070      -3.10821      -1.10909      -1.03679
    15  H(1)              -0.00005      -0.22128      -0.07896      -0.07381
 --------------------------------------------------------
       Center         ----  Spin Dipole Couplings  ----
                      3XX-RR        3YY-RR        3ZZ-RR
 --------------------------------------------------------
     1   Atom        0.042131     -0.023688     -0.018443
     2   Atom        0.100314     -0.003504     -0.096810
     3   Atom        0.596127     -0.171948     -0.424179
     4   Atom       -0.039800      0.146211     -0.106412
     5   Atom        0.013711     -0.003536     -0.010175
     6   Atom        0.025875      0.018831     -0.044705
     7   Atom        0.002857      0.009364     -0.012221
     8   Atom       -0.003112      0.008345     -0.005234
     9   Atom       -0.007202      0.070862     -0.063660
    10   Atom        0.005131      0.007123     -0.012254
    11   Atom        0.008498     -0.002579     -0.005920
    12   Atom        0.001792      0.000525     -0.002316
    13   Atom        0.001284     -0.000096     -0.001188
    14   Atom        0.001285     -0.000092     -0.001192
    15   Atom        0.001917     -0.000463     -0.001454
 --------------------------------------------------------
                        XY            XZ            YZ
 --------------------------------------------------------
     1   Atom       -0.042447     -0.000127      0.000083
     2   Atom        0.029257     -0.000094     -0.000013
     3   Atom       -0.652476      0.000025      0.000017
     4   Atom       -0.008328     -0.000020      0.000168
     5   Atom       -0.040108     -0.000057      0.000038
     6   Atom       -0.004964     -0.000002     -0.000001
     7   Atom        0.015857     -0.000008     -0.000010
     8   Atom       -0.002151     -0.000002      0.000007
     9   Atom        0.038840     -0.000030     -0.000036
    10   Atom        0.013569     -0.000004      0.000003
    11   Atom        0.004373     -0.000009      0.000000
    12   Atom       -0.001768      0.000020     -0.000023
    13   Atom       -0.001324      0.000690     -0.000283
    14   Atom       -0.001340     -0.000678      0.000277
    15   Atom       -0.001229     -0.000019      0.000010
 --------------------------------------------------------


 ---------------------------------------------------------------------------------
              Anisotropic Spin Dipole Couplings in Principal Axis System
 ---------------------------------------------------------------------------------

       Atom             a.u.   MegaHertz   Gauss  10(-4) cm-1        Axes

              Baa    -0.0445    -5.970    -2.130    -1.991  0.4400  0.8980 -0.0007
     1 C(13)  Bbb    -0.0184    -2.475    -0.883    -0.826  0.0020 -0.0002  1.0000
              Bcc     0.0629     8.445     3.013     2.817  0.8980 -0.4400 -0.0018
 
              Baa    -0.0968   -12.991    -4.636    -4.333  0.0005  0.0000  1.0000
     2 C(13)  Bbb    -0.0112    -1.500    -0.535    -0.500 -0.2538  0.9673  0.0001
              Bcc     0.1080    14.491     5.171     4.834  0.9673  0.2538 -0.0005
 
              Baa    -0.5450   -73.136   -26.097   -24.396  0.4964  0.8681 -0.0002
     3 C(13)  Bbb    -0.4242   -56.921   -20.311   -18.987  0.0001  0.0002  1.0000
              Bcc     0.9692   130.057    46.408    43.382  0.8681 -0.4964  0.0000
 
              Baa    -0.1064   -14.279    -5.095    -4.763  0.0002 -0.0007  1.0000
     4 C(13)  Bbb    -0.0402    -5.391    -1.924    -1.798  0.9990  0.0446 -0.0002
              Bcc     0.1466    19.670     7.019     6.561 -0.0446  0.9990  0.0007
 
              Baa    -0.0359    -4.822    -1.721    -1.609  0.6284  0.7779  0.0002
     5 C(13)  Bbb    -0.0102    -1.365    -0.487    -0.455  0.0008 -0.0009  1.0000
              Bcc     0.0461     6.188     2.208     2.064  0.7779 -0.6284 -0.0012
 
              Baa    -0.0447    -5.999    -2.141    -2.001  0.0000  0.0000  1.0000
     6 C(13)  Bbb     0.0163     2.183     0.779     0.728  0.4590  0.8884  0.0000
              Bcc     0.0284     3.816     1.362     1.273  0.8884 -0.4590  0.0000
 
              Baa    -0.0122    -6.521    -2.327    -2.175  0.0001  0.0004  1.0000
     7 H(1)   Bbb    -0.0101    -5.376    -1.918    -1.793  0.7749 -0.6321  0.0002
              Bcc     0.0223    11.897     4.245     3.968  0.6321  0.7749 -0.0004
 
              Baa    -0.0052    -2.793    -0.996    -0.932  0.0004 -0.0004  1.0000
     8 H(1)   Bbb    -0.0035    -1.868    -0.667    -0.623  0.9839  0.1786 -0.0003
              Bcc     0.0087     4.661     1.663     1.555 -0.1786  0.9839  0.0005
 
              Baa    -0.0637     4.606     1.644     1.537  0.0004  0.0001  1.0000
     9 O(17)  Bbb    -0.0232     1.681     0.600     0.561  0.9244 -0.3815 -0.0003
              Bcc     0.0869    -6.288    -2.244    -2.097  0.3815  0.9244 -0.0003
 
              Baa    -0.0123    -6.538    -2.333    -2.181  0.0008 -0.0007  1.0000
    10 H(1)   Bbb    -0.0075    -3.990    -1.424    -1.331  0.7325 -0.6807 -0.0011
              Bcc     0.0197    10.529     3.757     3.512  0.6807  0.7325  0.0000
 
              Baa    -0.0059    -3.159    -1.127    -1.054  0.0010 -0.0015  1.0000
    11 H(1)   Bbb    -0.0041    -2.186    -0.780    -0.729 -0.3280  0.9447  0.0017
              Bcc     0.0100     5.344     1.907     1.783  0.9447  0.3280 -0.0005
 
              Baa    -0.0023    -0.311    -0.111    -0.104 -0.0017  0.0072  1.0000
    12 C(13)  Bbb    -0.0007    -0.097    -0.034    -0.032  0.5756  0.8177 -0.0049
              Bcc     0.0030     0.407     0.145     0.136  0.8177 -0.5756  0.0055
 
              Baa    -0.0014    -0.733    -0.261    -0.244 -0.2937 -0.0940  0.9513
    13 H(1)   Bbb    -0.0009    -0.465    -0.166    -0.155  0.4562  0.8607  0.2259
              Bcc     0.0022     1.198     0.427     0.400  0.8400 -0.5003  0.2099
 
              Baa    -0.0014    -0.732    -0.261    -0.244  0.2938  0.1020  0.9504
    14 H(1)   Bbb    -0.0009    -0.471    -0.168    -0.157  0.4575  0.8580 -0.2335
              Bcc     0.0023     1.203     0.429     0.401  0.8393 -0.5034 -0.2054
 
              Baa    -0.0015    -0.776    -0.277    -0.259  0.0037 -0.0054  1.0000
    15 H(1)   Bbb    -0.0010    -0.525    -0.187    -0.175  0.3902  0.9207  0.0035
              Bcc     0.0024     1.301     0.464     0.434  0.9207 -0.3902 -0.0055
 

 ---------------------------------------------------------------------------------

 1|1|UNPC-PC-20250526LCFF|SP|UB3LYP|6-311G(d,p)|C7H7O1(2)|ADMINISTRATOR
 |02-Dec-2025|0||# ub3lyp/6-311g(d,p) geom=connectivity temperature=823
 .15||Title Card Required||0,2|C,0,1.123969,1.154173,-0.000474|C,0,-0.0
 99039,1.842288,0.000093|C,0,-1.241183,1.088421,0.000613|C,0,-1.284209,
 -0.291664,0.000438|C,0,-0.05355,-0.95596,-0.000542|C,0,1.151023,-0.244
 05,-0.000866|H,0,-0.12665,2.926554,-0.000056|H,0,-0.060746,-2.041742,-
 0.001237|O,0,-2.433715,-1.026292,-0.000144|H,0,-3.18098,-0.417971,0.00
 0519|H,0,2.052201,1.715563,-0.000942|C,0,2.464111,-0.992604,0.000562|H
 ,0,2.562312,-1.617468,0.893605|H,0,2.544737,-1.652581,-0.868441|H,0,3.
 312118,-0.305647,-0.021243||Version=EM64W-G16RevA.03|State=2-A|HF=-346
 .1895245|S2=0.757088|S2-1=0.|S2A=0.750028|RMSD=3.272e-009|Dipole=0.100
 9109,0.2369536,0.001168|Quadrupole=3.9550468,-0.2336664,-3.7213804,-1.
 5674998,0.0004325,-0.0017698|PG=C01 [X(C7H7O1)]||@


                                                                                    A
                                                                                  AA
                                                                                 AAA
                                                                                AAAA
                                                                               AAAAA
                                                                              AAAAAA   KKKKKKKK
                                                                             AAAAAAA   KKKKKKKK
                                                                            AAAAAAAA   KKKKKKKK
                                       ZZZZZZZZZZZZZZZZZZZZ                AAAA  AAA   KKKKKKKK
                                       ZZZZZZZZZZZZZZZZZZZ                AAAA   AAA   KKKKKKKK          K
                                       ZZZZZZZZZZZZZZZZZZ                AAAA    AAA   KKKKKKKK         KKK
                                       ZZZZZZZZZZZZZZZZZ                AAAA     AAA   KKKKKKKK        KKKKK
                                       ZZZZZZZZZZZZZZZZ                AAAA      AAA   KKKKKKKK       KKKKKKK
                                                ZZZZZZ                AAAA       AAA   KKKKKKKK      KKKKKKK
                                               ZZZZZZ                AAAA        AAA   KKKKKKKK     KKKKKKK
                                              ZZZZZZ                AAAA         AAA   KKKKKKKK    KKKKKKK
                                             ZZZZZZ                AAAA          AAA   KKKKKKKK   KKKKKKK
                                            ZZZZZZ                AAAAAAAAAAAAAAAAAA   KKKKKKKK  KKKKKKK
                                           ZZZZZZ                AAAAAAAAAAAAAAAAAAA   KKKKKKKK KKKKKKK
                                          ZZZZZZ                AAAAAAAAAAAAAAAAAAAA   KKKKKKKKKKKKKKK
                                         ZZZZZZ                AAAAAAAAAAAAAAAAAAAAA   KKKKKKKKKKKKKK
                                        ZZZZZZ                AAAAAA        AAAAAAAA   KKKKKKKKKKKKK
                                       ZZZZZZ                AAAAAA         AAAAAAAA   KKKKKKKKKKKK
                                      ZZZZZZ                AAAAAA          AAAAAAAA   KKKKKKKKKKK
                                     ZZZZZZ                AAAAAA           AAAAAAAA   KKKKKKKKKKKK
                                    ZZZZZZ                AAAAAA            AAAAAAAA   KKKKKKKKKKKKK
                                   ZZZZZZ                AAAAAA             AAAAAAAA   KKKKKKKKKKKKKK
                                  ZZZZZZ                AAAAAA              AAAAAAAA   KKKKKKKKKKKKKKK
                                 ZZZZZZ                AAAAAA               AAAAAAAA   KKKKK KKKKKKKKKK
                                ZZZZZZ                AAAAAA                AAAAAAAA   KKKKK  KKKKKKKKKK
                               ZZZZZZ                AAAAAA                            KKKKK   KKKKKKKKKK
                              ZZZZZZ                AAAAAA                             KKKKK    KKKKKKKKKK
                             ZZZZZZ                                                    KKKKK     KKKKKKKKKK
                            ZZZZZZ                                                     KKKKK      KKKKKKKKKK
                           ZZZZZZ                                                      KKKKK       KKKKKKKKKK
                          ZZZZZZ                                                       KKKKK        KKKKKKKKKK
                         ZZZZZZZZZZZZZZZZZZZZZZZZZZZZZZZZZZZZZZZZ                      KKKKK         KKKKKKKKKK
                        ZZZZZZZZZZZZZZZZZZZZZZZZZZZZZZZZZZZZZZZZZ                      KKKKK          KKKKKKKKKK
                       ZZZZZZZZZZZZZZZZZZZZZZZZZZZZZZZZZZZZZZZZZZ                      KKKKK           KKKKKKKKKK
                       ZZZZZZZZZZZZZZZZZZZZZZZZZZZZZZZZZZZZZZZZZZ                      KKKKK            KKKKKKKKKK
                       ZZZZZZZZZZZZZZZZZZZZZZZZZZZZZZZZZZZZZZZZZZ                      KKKKK             KKKKKKKKKK
                       ZZZZZZZZZZZZZZZZZZZZZZZZZZZZZZZZZZZZZZZZZZ                      KKKKK              KKKKKKKKKK
                       ZZZZZZZZZZZZZZZZZZZZZZZZZZZZZZZZZZZZZZZZZZ                      KKKKK               KKKKKKKKKK
                       ZZZZZZZZZZZZZZZZZZZZZZZZZZZZZZZZZZZZZZZZZZ                      KKKKK                KKKKKKKKKK
                       ZZZZZZZZZZZZZZZZZZZZZZZZZZZZZZZZZZZZZZZZZZ                      KKKKK
                                                                                       KKKKK
                                                                                          (J.P.)
 Job cpu time:       0 days  0 hours  0 minutes 26.0 seconds.
 Elapsed time:       0 days  0 hours  0 minutes 25.8 seconds.
 File lengths (MBytes):  RWF=     38 Int=      0 D2E=      0 Chk=      4 Scr=      1
 Normal termination of Gaussian 16 at Tue Dec 02 11:28:07 2025.
