 Generated by Multiwfn (http://sobereva.com/multiwfn)
GAUSSIAN             59 MOL ORBITALS    256 PRIMITIVES       16 NUCLEI
  C    1    (CENTRE  1)  -2.27686648 -0.40697284 -0.02294300  CHARGE =  6.0
  C    2    (CENTRE  2)  -0.07409994 -1.85391766 -0.01841522  CHARGE =  6.0
  C    3    (CENTRE  3)   2.29623478 -0.69810681  0.00133998  CHARGE =  6.0
  C    4    (CENTRE  4)   2.48716377  1.93227664  0.01423358  CHARGE =  6.0
  C    5    (CENTRE  5)   0.28969225  3.38042900  0.00473771  CHARGE =  6.0
  C    6    (CENTRE  6)  -2.07465960  2.23184824 -0.01603794  CHARGE =  6.0
  H    7    (CENTRE  7)  -3.77064889  3.38229116 -0.03069655  CHARGE =  1.0
  O    8    (CENTRE  8)   4.36604773 -2.24590440  0.00239634  CHARGE =  8.0
  H    9    (CENTRE  9)   5.87157005 -1.22507464  0.00680507  CHARGE =  1.0
  H   10    (CENTRE 10)   4.33068060  2.83466208  0.02374079  CHARGE =  1.0
  C   11    (CENTRE 11)  -4.83435592 -1.67435307  0.01815854  CHARGE =  6.0
  H   12    (CENTRE 12)  -4.77855833 -3.51612552 -0.91223867  CHARGE =  1.0
  H   13    (CENTRE 13)  -5.47431551 -1.98075125  1.96297207  CHARGE =  1.0
  H   14    (CENTRE 14)  -6.26072664 -0.51855473 -0.92685570  CHARGE =  1.0
  H   15    (CENTRE 15)  -0.15778308 -3.90113732 -0.03515819  CHARGE =  1.0
  H   16    (CENTRE 16)   0.43274680  5.42470445  0.00581863  CHARGE =  1.0
CENTRE ASSIGNMENTS    1  1  1  1  1  1  1  1  1  1  1  1  1  1  1  1  1  1  1  1
CENTRE ASSIGNMENTS    1  1  1  1  1  1  1  1  2  2  2  2  2  2  2  2  2  2  2  2
CENTRE ASSIGNMENTS    2  2  2  2  2  2  2  2  2  2  2  2  2  2  2  2  3  3  3  3
CENTRE ASSIGNMENTS    3  3  3  3  3  3  3  3  3  3  3  3  3  3  3  3  3  3  3  3
CENTRE ASSIGNMENTS    3  3  3  3  4  4  4  4  4  4  4  4  4  4  4  4  4  4  4  4
CENTRE ASSIGNMENTS    4  4  4  4  4  4  4  4  4  4  4  4  5  5  5  5  5  5  5  5
CENTRE ASSIGNMENTS    5  5  5  5  5  5  5  5  5  5  5  5  5  5  5  5  5  5  5  5
CENTRE ASSIGNMENTS    6  6  6  6  6  6  6  6  6  6  6  6  6  6  6  6  6  6  6  6
CENTRE ASSIGNMENTS    6  6  6  6  6  6  6  6  7  7  7  7  8  8  8  8  8  8  8  8
CENTRE ASSIGNMENTS    8  8  8  8  8  8  8  8  8  8  8  8  8  8  8  8  8  8  8  8
CENTRE ASSIGNMENTS    9  9  9  9 10 10 10 10 11 11 11 11 11 11 11 11 11 11 11 11
CENTRE ASSIGNMENTS   11 11 11 11 11 11 11 11 11 11 11 11 11 11 11 11 12 12 12 12
CENTRE ASSIGNMENTS   13 13 13 13 14 14 14 14 15 15 15 15 16 16 16 16
TYPE ASSIGNMENTS      1  1  1  1  1  1  1  1  1  2  2  2  3  3  3  4  4  4  1  2
TYPE ASSIGNMENTS      3  4  5  6  7  8  9 10  1  1  1  1  1  1  1  1  1  2  2  2
TYPE ASSIGNMENTS      3  3  3  4  4  4  1  2  3  4  5  6  7  8  9 10  1  1  1  1
TYPE ASSIGNMENTS      1  1  1  1  1  2  2  2  3  3  3  4  4  4  1  2  3  4  5  6
TYPE ASSIGNMENTS      7  8  9 10  1  1  1  1  1  1  1  1  1  2  2  2  3  3  3  4
TYPE ASSIGNMENTS      4  4  1  2  3  4  5  6  7  8  9 10  1  1  1  1  1  1  1  1
TYPE ASSIGNMENTS      1  2  2  2  3  3  3  4  4  4  1  2  3  4  5  6  7  8  9 10
TYPE ASSIGNMENTS      1  1  1  1  1  1  1  1  1  2  2  2  3  3  3  4  4  4  1  2
TYPE ASSIGNMENTS      3  4  5  6  7  8  9 10  1  1  1  1  1  1  1  1  1  1  1  1
TYPE ASSIGNMENTS      1  2  2  2  3  3  3  4  4  4  1  2  3  4  5  6  7  8  9 10
TYPE ASSIGNMENTS      1  1  1  1  1  1  1  1  1  1  1  1  1  1  1  1  1  2  2  2
TYPE ASSIGNMENTS      3  3  3  4  4  4  1  2  3  4  5  6  7  8  9 10  1  1  1  1
TYPE ASSIGNMENTS      1  1  1  1  1  1  1  1  1  1  1  1  1  1  1  1
EXPONENTS  0.3047525D+04 0.4573695D+03 0.1039487D+03 0.2921016D+02 0.9286663D+01
EXPONENTS  0.3163927D+01 0.7868272D+01 0.1881289D+01 0.5442493D+00 0.7868272D+01
EXPONENTS  0.1881289D+01 0.5442493D+00 0.7868272D+01 0.1881289D+01 0.5442493D+00
EXPONENTS  0.7868272D+01 0.1881289D+01 0.5442493D+00 0.1687145D+00 0.1687145D+00
EXPONENTS  0.1687145D+00 0.1687145D+00 0.8000000D+00 0.8000000D+00 0.8000000D+00
EXPONENTS  0.8000000D+00 0.8000000D+00 0.8000000D+00 0.3047525D+04 0.4573695D+03
EXPONENTS  0.1039487D+03 0.2921016D+02 0.9286663D+01 0.3163927D+01 0.7868272D+01
EXPONENTS  0.1881289D+01 0.5442493D+00 0.7868272D+01 0.1881289D+01 0.5442493D+00
EXPONENTS  0.7868272D+01 0.1881289D+01 0.5442493D+00 0.7868272D+01 0.1881289D+01
EXPONENTS  0.5442493D+00 0.1687145D+00 0.1687145D+00 0.1687145D+00 0.1687145D+00
EXPONENTS  0.8000000D+00 0.8000000D+00 0.8000000D+00 0.8000000D+00 0.8000000D+00
EXPONENTS  0.8000000D+00 0.3047525D+04 0.4573695D+03 0.1039487D+03 0.2921016D+02
EXPONENTS  0.9286663D+01 0.3163927D+01 0.7868272D+01 0.1881289D+01 0.5442493D+00
EXPONENTS  0.7868272D+01 0.1881289D+01 0.5442493D+00 0.7868272D+01 0.1881289D+01
EXPONENTS  0.5442493D+00 0.7868272D+01 0.1881289D+01 0.5442493D+00 0.1687145D+00
EXPONENTS  0.1687145D+00 0.1687145D+00 0.1687145D+00 0.8000000D+00 0.8000000D+00
EXPONENTS  0.8000000D+00 0.8000000D+00 0.8000000D+00 0.8000000D+00 0.3047525D+04
EXPONENTS  0.4573695D+03 0.1039487D+03 0.2921016D+02 0.9286663D+01 0.3163927D+01
EXPONENTS  0.7868272D+01 0.1881289D+01 0.5442493D+00 0.7868272D+01 0.1881289D+01
EXPONENTS  0.5442493D+00 0.7868272D+01 0.1881289D+01 0.5442493D+00 0.7868272D+01
EXPONENTS  0.1881289D+01 0.5442493D+00 0.1687145D+00 0.1687145D+00 0.1687145D+00
EXPONENTS  0.1687145D+00 0.8000000D+00 0.8000000D+00 0.8000000D+00 0.8000000D+00
EXPONENTS  0.8000000D+00 0.8000000D+00 0.3047525D+04 0.4573695D+03 0.1039487D+03
EXPONENTS  0.2921016D+02 0.9286663D+01 0.3163927D+01 0.7868272D+01 0.1881289D+01
EXPONENTS  0.5442493D+00 0.7868272D+01 0.1881289D+01 0.5442493D+00 0.7868272D+01
EXPONENTS  0.1881289D+01 0.5442493D+00 0.7868272D+01 0.1881289D+01 0.5442493D+00
EXPONENTS  0.1687145D+00 0.1687145D+00 0.1687145D+00 0.1687145D+00 0.8000000D+00
EXPONENTS  0.8000000D+00 0.8000000D+00 0.8000000D+00 0.8000000D+00 0.8000000D+00
EXPONENTS  0.3047525D+04 0.4573695D+03 0.1039487D+03 0.2921016D+02 0.9286663D+01
EXPONENTS  0.3163927D+01 0.7868272D+01 0.1881289D+01 0.5442493D+00 0.7868272D+01
EXPONENTS  0.1881289D+01 0.5442493D+00 0.7868272D+01 0.1881289D+01 0.5442493D+00
EXPONENTS  0.7868272D+01 0.1881289D+01 0.5442493D+00 0.1687145D+00 0.1687145D+00
EXPONENTS  0.1687145D+00 0.1687145D+00 0.8000000D+00 0.8000000D+00 0.8000000D+00
EXPONENTS  0.8000000D+00 0.8000000D+00 0.8000000D+00 0.1873114D+02 0.2825394D+01
EXPONENTS  0.6401217D+00 0.1612778D+00 0.5484672D+04 0.8252349D+03 0.1880470D+03
EXPONENTS  0.5296450D+02 0.1689757D+02 0.5799635D+01 0.1553962D+02 0.3599934D+01
EXPONENTS  0.1013762D+01 0.1553962D+02 0.3599934D+01 0.1013762D+01 0.1553962D+02
EXPONENTS  0.3599934D+01 0.1013762D+01 0.1553962D+02 0.3599934D+01 0.1013762D+01
EXPONENTS  0.2700058D+00 0.2700058D+00 0.2700058D+00 0.2700058D+00 0.8000000D+00
EXPONENTS  0.8000000D+00 0.8000000D+00 0.8000000D+00 0.8000000D+00 0.8000000D+00
EXPONENTS  0.1873114D+02 0.2825394D+01 0.6401217D+00 0.1612778D+00 0.1873114D+02
EXPONENTS  0.2825394D+01 0.6401217D+00 0.1612778D+00 0.3047525D+04 0.4573695D+03
EXPONENTS  0.1039487D+03 0.2921016D+02 0.9286663D+01 0.3163927D+01 0.7868272D+01
EXPONENTS  0.1881289D+01 0.5442493D+00 0.7868272D+01 0.1881289D+01 0.5442493D+00
EXPONENTS  0.7868272D+01 0.1881289D+01 0.5442493D+00 0.7868272D+01 0.1881289D+01
EXPONENTS  0.5442493D+00 0.1687145D+00 0.1687145D+00 0.1687145D+00 0.1687145D+00
EXPONENTS  0.8000000D+00 0.8000000D+00 0.8000000D+00 0.8000000D+00 0.8000000D+00
EXPONENTS  0.8000000D+00 0.1873114D+02 0.2825394D+01 0.6401217D+00 0.1612778D+00
EXPONENTS  0.1873114D+02 0.2825394D+01 0.6401217D+00 0.1612778D+00 0.1873114D+02
EXPONENTS  0.2825394D+01 0.6401217D+00 0.1612778D+00 0.1873114D+02 0.2825394D+01
EXPONENTS  0.6401217D+00 0.1612778D+00 0.1873114D+02 0.2825394D+01 0.6401217D+00
EXPONENTS  0.1612778D+00
MO    1     MO 0.0        OCC NO =    1.0000000  ORB. ENERGY =  -18.993233
  0.43523799D-05  0.80292910D-05  0.12961765D-04  0.16872367D-04  0.14397221D-04
  0.49710146D-05 -0.64831680D-05 -0.29880862D-05  0.83789056D-05  0.90639319D-04
  0.69496481D-04  0.34683615D-04 -0.11686137D-04 -0.89601888D-05 -0.44717622D-05
  0.54905466D-06  0.42098029D-06  0.21009867D-06  0.18833934D-03 -0.17172748D-04
  0.55667356D-04  0.67100046D-06  0.12818261D-04  0.41521396D-04  0.35154701D-04
  0.31257356D-05 -0.18576497D-05 -0.61502392D-06  0.30547398D-05  0.56353985D-05
  0.90972805D-05  0.11841956D-04  0.10104763D-04  0.34889317D-05 -0.52568969D-04
 -0.24228990D-04  0.67940617D-04  0.30902295D-04  0.23693920D-04  0.11824927D-04
  0.75485970D-05  0.57877854D-05  0.28885105D-05  0.55713010D-06  0.42717203D-06
  0.21318878D-06 -0.12091579D-03 -0.19664343D-04 -0.20509116D-03 -0.15682097D-05
 -0.84007295D-04 -0.78303697D-04  0.22357683D-04 -0.53555712D-04 -0.12876540D-05
 -0.17386844D-05 -0.23601922D-04 -0.43540937D-04 -0.70288573D-04 -0.91494837D-04
 -0.78072710D-04 -0.26956631D-04 -0.56084972D-04 -0.25849512D-04  0.72484730D-04
  0.40817708D-03  0.31296430D-03  0.15619112D-03 -0.39375908D-03 -0.30190949D-03
 -0.15067400D-03  0.13569624D-06  0.10404327D-06  0.51924882D-07 -0.60090519D-04
 -0.48367142D-03  0.47131426D-03 -0.59366908D-07 -0.53870640D-04  0.29588132D-04
 -0.84168112D-04 -0.22759143D-04  0.28941038D-06  0.58249260D-06  0.14582535D-04
  0.26901930D-04  0.43428057D-04  0.56530426D-04  0.48237515D-04  0.16655255D-04
 -0.90041821D-04 -0.41500193D-04  0.11637087D-03 -0.52893440D-04 -0.40555335D-04
 -0.20239954D-04  0.86553165D-04  0.66363477D-04  0.33120026D-04  0.73801710D-06
  0.56586470D-06  0.28240615D-06 -0.54801906D-03  0.31217558D-03  0.72676227D-04
  0.18340285D-05 -0.69636310D-04 -0.75804064D-04  0.66194813D-04  0.31470901D-04
 -0.19574141D-05 -0.89813541D-06 -0.31701331D-05 -0.58482766D-05 -0.94409317D-05
 -0.12289288D-04 -0.10486472D-04 -0.36207267D-05  0.21688705D-04  0.99963045D-05
 -0.28030681D-04  0.78658441D-04  0.60310304D-04  0.30099068D-04 -0.65098963D-04
 -0.49913756D-04 -0.24910462D-04  0.43677491D-06  0.33489130D-06  0.16713423D-06
  0.34361262D-03  0.62707055D-04 -0.12520393D-03  0.11594047D-06  0.54265208D-04
  0.15642937D-05  0.12737589D-05 -0.47605998D-04  0.95119810D-06 -0.40807610D-06
  0.88282351D-05  0.16286370D-04  0.26291251D-04  0.34223397D-04  0.29202887D-04
  0.10083055D-04 -0.34658177D-04 -0.15973922D-04  0.44792545D-04  0.17026857D-04
  0.13055114D-04  0.65154170D-05 -0.42287356D-04 -0.32423263D-04 -0.16181481D-04
 -0.71859725D-06 -0.55097479D-06 -0.27497504D-06 -0.17903686D-03 -0.52789627D-04
  0.80625274D-04 -0.17348311D-06 -0.29655753D-06 -0.11997826D-04  0.45705698D-04
 -0.52623443D-04 -0.11290569D-05 -0.48987403D-06 -0.41428423D-05 -0.70270447D-05
 -0.80000420D-05 -0.26166501D-04  0.82563551D+00  0.15196101D+01  0.24590160D+01
  0.32324453D+01  0.27724495D+01  0.94794759D+00 -0.15824348D-01 -0.70607932D-02
  0.20850617D-01  0.71424760D-03  0.55028927D-03  0.24160663D-03  0.30302236D-02
  0.23346240D-02  0.10250257D-02  0.47645182D-05  0.36708044D-05  0.16116809D-05
  0.37901152D-02 -0.33678179D-03  0.15287867D-03 -0.32211772D-06 -0.91461918D-02
 -0.92379247D-02 -0.91818788D-02 -0.11693735D-03 -0.22221365D-06 -0.59006164D-06
  0.87182961D-04  0.14787880D-03  0.16835479D-03 -0.18365877D-03 -0.21734501D-04
 -0.36865827D-04 -0.41970441D-04 -0.80253859D-04  0.61334772D-05  0.11315068D-04
  0.18266028D-04  0.23776941D-04  0.20288907D-04  0.70052719D-05 -0.21498144D-04
 -0.99084751D-05  0.27784399D-04 -0.30641841D-05 -0.23494220D-05 -0.11725262D-05
 -0.10676879D-04 -0.81863532D-05 -0.40855640D-05  0.16879642D-06  0.12942239D-06
  0.64590841D-07 -0.65095413D-04 -0.15095180D-04 -0.17340624D-04 -0.33568060D-07
  0.10742714D-04  0.61645718D-05  0.23616256D-04 -0.32358093D-04 -0.17749113D-05
  0.47214838D-05  0.20941369D-05  0.35520525D-05  0.40438863D-05  0.17008403D-05
  0.26198212D-05  0.44437126D-05  0.50590097D-05  0.45440845D-05  0.34464444D-05
  0.58458221D-05  0.66552618D-05  0.58345736D-05 -0.14449539D-05 -0.24509153D-05
 -0.27902804D-05 -0.11443092D-03  0.18308423D-05  0.31054550D-05  0.35354508D-05
  0.17559443D-04
MO    2     MO 0.0        OCC NO =    1.0000000  ORB. ENERGY =  -10.032457
  0.33385909D-04  0.61590484D-04  0.99426138D-04  0.12942329D-03  0.11043713D-03
  0.38131286D-04 -0.97810827D-04 -0.45080921D-04  0.12641161D-03 -0.10847679D-03
 -0.83173124D-04 -0.41509218D-04  0.84396288D-05  0.64709721D-05  0.32294686D-05
  0.26503300D-06  0.20321050D-06  0.10141628D-06 -0.14144786D-02 -0.57018400D-03
 -0.99285046D-04 -0.58226400D-05  0.33910309D-04  0.27201025D-04  0.53657822D-04
 -0.41952838D-04  0.48270469D-05  0.38586957D-05  0.14490581D-02  0.26732293D-02
  0.43154210D-02  0.56173959D-02  0.47933341D-02  0.16550231D-02  0.30308251D-03
  0.13969045D-03 -0.39170661D-03 -0.28065593D-03 -0.21518917D-03 -0.10739448D-03
 -0.25893752D-03 -0.19853687D-03 -0.99083813D-04 -0.10704146D-05 -0.82072599D-06
 -0.40959979D-06  0.23668959D-02  0.15590687D-03  0.11270999D-02  0.70266679D-05
 -0.46271174D-03 -0.18824497D-03 -0.36517768D-03  0.96057115D-04 -0.81670069D-06
  0.30221352D-05  0.53259037D+00  0.98252524D+00  0.15861004D+01  0.20646314D+01
  0.17617537D+01  0.60829123D+00 -0.19622659D-01 -0.90440657D-02  0.25360504D-01
  0.12748329D-02  0.97746100D-03  0.48782154D-03 -0.85411903D-03 -0.65488430D-03
 -0.32683316D-03 -0.35805260D-05 -0.27453203D-05 -0.13701072D-05 -0.37423648D-02
  0.13952175D-02 -0.10471664D-02  0.33701437D-05 -0.94251956D-02 -0.95906047D-02
 -0.10341601D-01 -0.86239554D-03  0.31252122D-05  0.55169830D-05  0.16009938D-02
  0.29535209D-02  0.47678985D-02  0.62063872D-02  0.52959215D-02  0.18285544D-02
  0.27965764D-03  0.12889395D-03 -0.36143210D-03  0.16987881D-03  0.13025230D-03
  0.65005026D-04  0.34933890D-03  0.26785091D-03  0.13367638D-03  0.11527642D-05
  0.88386649D-06  0.44111132D-06  0.23287340D-02 -0.94162382D-03 -0.68683786D-03
 -0.78199411D-05 -0.26256001D-03 -0.45224079D-03 -0.34980786D-03  0.25540633D-03
  0.30200523D-05  0.14292800D-05  0.27946672D-04  0.51556153D-04  0.83227616D-04
  0.10833763D-03  0.92444694D-04  0.31918931D-04 -0.70555706D-04 -0.32519061D-04
  0.91186840D-04 -0.11650958D-03 -0.89332158D-04 -0.44583008D-04  0.12048957D-03
  0.92383758D-04  0.46105970D-04  0.45401839D-06  0.34811250D-06  0.17373254D-06
 -0.13412170D-02  0.37572855D-04  0.57164399D-03  0.92958803D-06  0.31507090D-04
  0.68356142D-04  0.32846311D-04 -0.68753201D-04  0.71618951D-06  0.53064313D-06
 -0.67070274D-04 -0.12373156D-03 -0.19974110D-03 -0.26000356D-03 -0.22186151D-03
 -0.76603449D-04  0.14168102D-03  0.65300651D-04 -0.18310984D-03 -0.70963741D-04
 -0.54410495D-04 -0.27154651D-04  0.52276246D-04  0.40082110D-04  0.20003782D-04
 -0.34809570D-05 -0.26689770D-05 -0.13320066D-05  0.10121838D-02  0.48554128D-03
 -0.25500450D-03  0.51051481D-05 -0.76089275D-05  0.10885593D-05 -0.14799499D-03
  0.63799766D-04  0.36176322D-05 -0.11037747D-06  0.25022540D-04  0.42442964D-04
  0.48319815D-04  0.16448093D-03  0.11348561D-03  0.20887411D-03  0.33799774D-03
  0.44430748D-03  0.38107995D-03  0.13029771D-03 -0.67805515D-03 -0.30254689D-03
  0.89342501D-03  0.56313042D-04  0.43386163D-04  0.19048862D-04 -0.11124838D-03
 -0.85710883D-04 -0.37631694D-04  0.23662985D-05  0.18231054D-05  0.80044147D-06
 -0.16100563D-02  0.65735017D-03 -0.47572006D-03 -0.87124049D-06 -0.16661176D-03
  0.29231298D-03  0.96696638D-03  0.13325782D-02 -0.14526927D-05 -0.19455418D-05
  0.38245554D-04  0.64871698D-04  0.73854135D-04 -0.61606296D-04  0.35431281D-04
  0.60098158D-04  0.68419629D-04  0.36005742D-03 -0.35963653D-04 -0.66345918D-04
 -0.10710288D-03 -0.13941613D-03 -0.11896404D-03 -0.41075423D-04  0.56757533D-04
  0.26159495D-04 -0.73353955D-04 -0.33552410D-04 -0.25725860D-04 -0.12839007D-04
 -0.97784530D-05 -0.74974976D-05 -0.37417767D-05 -0.66116130D-05 -0.50693655D-05
 -0.25299687D-05 -0.22903381D-04  0.27027119D-04 -0.39379293D-04  0.10082143D-04
  0.23653722D-04 -0.79190680D-04 -0.61533570D-04  0.41995965D-05 -0.14404706D-04
  0.28632065D-04 -0.99447859D-05 -0.16868239D-04 -0.19203894D-04 -0.11489671D-04
 -0.66988520D-05 -0.11362521D-04 -0.12935829D-04 -0.11932461D-04 -0.51639885D-06
 -0.87591019D-06 -0.99719280D-06  0.15709215D-04  0.37200757D-04  0.63099526D-04
  0.71836580D-04  0.33174302D-03 -0.17033117D-04 -0.28891391D-04 -0.32891827D-04
 -0.11728654D-03
MO    3     MO 0.0        OCC NO =    1.0000000  ORB. ENERGY =  -10.004243
  0.12379297D-02  0.22837385D-02  0.36866621D-02  0.47989386D-02  0.40949430D-02
  0.14138854D-02  0.48080653D-04  0.22160329D-04 -0.62139875D-04  0.27378292D-03
  0.20991938D-03  0.10476448D-03  0.12999697D-03  0.99673432D-04  0.49744028D-04
  0.23517783D-04  0.18031944D-04  0.89992038D-05  0.83699008D-03 -0.41912323D-03
 -0.20365503D-03 -0.10337480D-04 -0.34247836D-03 -0.23052834D-03 -0.17295107D-03
 -0.14713905D-03 -0.15624632D-04 -0.55718364D-05 -0.12911115D-04 -0.23818486D-04
 -0.38450422D-04 -0.50051024D-04 -0.42708630D-04 -0.14746264D-04  0.22183343D-04
  0.10224282D-04 -0.28669955D-04  0.10168040D-03  0.77962081D-04  0.38908542D-04
  0.70659604D-04  0.54177303D-04  0.27038271D-04 -0.27403530D-04 -0.21011289D-04
 -0.10486106D-04 -0.18516598D-03 -0.12787767D-03 -0.63455774D-04  0.16367348D-04
 -0.21059904D-04  0.75247518D-04 -0.55921734D-04 -0.13775781D-03 -0.20071482D-04
  0.76050043D-06 -0.54499067D-06 -0.10054014D-05 -0.16230296D-05 -0.21127022D-05
 -0.18027726D-05 -0.62245407D-06  0.71043737D-04  0.32743993D-04 -0.91817575D-04
  0.12877300D-04  0.98734972D-05  0.49275671D-05  0.21800644D-04  0.16715351D-04
  0.83421318D-05  0.17019998D-04  0.13049855D-04  0.65127921D-05  0.30749484D-03
 -0.21518923D-03  0.22530641D-04 -0.14339463D-04  0.23801283D-05 -0.41591798D-04
 -0.82813469D-04  0.56567474D-04  0.72257951D-05  0.30739769D-05  0.21485863D-05
  0.39637221D-05  0.63986765D-05  0.83291756D-05  0.71073006D-05  0.24539801D-05
 -0.50580105D-05 -0.23312324D-05  0.65370191D-05  0.20168610D-04  0.15464011D-04
  0.77176252D-05  0.67301888D-05  0.51602819D-05  0.25753423D-05 -0.41136645D-05
 -0.31540970D-05 -0.15741155D-05 -0.15138452D-03  0.12595858D-03  0.33502373D-04
  0.86478217D-05 -0.97029397D-05  0.12831359D-04 -0.13733797D-04 -0.22708611D-04
 -0.64466107D-05 -0.47453947D-05 -0.21563768D-04 -0.39780941D-04 -0.64218774D-04
 -0.83593762D-04 -0.71330709D-04 -0.24628780D-04  0.65265567D-04  0.30080840D-04
 -0.84349816D-04  0.93048568D-05  0.71343740D-05  0.35605526D-05  0.18029981D-04
  0.13824246D-04  0.68992676D-05  0.13751906D-04  0.10544089D-04  0.52622395D-05
  0.32033195D-03 -0.64169395D-04 -0.14426193D-03 -0.11500085D-04  0.19073228D-04
  0.34176035D-05 -0.75080996D-04  0.51649392D-04  0.66816349D-05  0.11698392D-04
 -0.17058086D-04 -0.31468838D-04 -0.50800461D-04 -0.66127106D-04 -0.56426380D-04
 -0.19482673D-04  0.24722385D-04  0.11394525D-04 -0.31951436D-04  0.12210498D-03
  0.93622350D-04  0.46724114D-04  0.41293718D-04  0.31661404D-04  0.15801259D-04
 -0.27178471D-04 -0.20838728D-04 -0.10399986D-04 -0.13981067D-03 -0.10487857D-03
 -0.55926370D-04  0.15531534D-04 -0.26696470D-04  0.77537067D-04 -0.58988874D-04
 -0.13560349D-03 -0.13101554D-04 -0.16486302D-04 -0.12627340D-04 -0.21418359D-04
 -0.24384045D-04 -0.14921486D-04 -0.20962108D-04 -0.38581468D-04 -0.62432099D-04
 -0.82068741D-04 -0.70389883D-04 -0.24067496D-04  0.69239606D-04  0.30894577D-04
 -0.91232100D-04  0.54298878D-04  0.41834358D-04  0.18367537D-04 -0.22238875D-04
 -0.17133854D-04 -0.75226849D-05 -0.10450978D-04 -0.80519148D-05 -0.35352243D-05
  0.17593988D-03 -0.37210332D-04  0.43383459D-04  0.60536205D-05 -0.78301865D-04
 -0.55730615D-04 -0.92830590D-04 -0.20971341D-04 -0.60077320D-05  0.77153419D-05
 -0.28473882D-05 -0.48297093D-05 -0.54984534D-05  0.12851148D-04 -0.11255814D-04
 -0.19091991D-04 -0.21735557D-04 -0.38570630D-04  0.53256326D+00  0.98247523D+00
  0.15860196D+01  0.20645263D+01  0.17616641D+01  0.60826026D+00 -0.19985548D-01
 -0.92113209D-02  0.25829505D-01 -0.34132081D-03 -0.26170315D-03 -0.13060821D-03
 -0.16408842D-03 -0.12581259D-03 -0.62789300D-04  0.27454925D-04  0.21050695D-04
  0.10505772D-04 -0.33983636D-02 -0.17126582D-03 -0.84700450D-04 -0.92374421D-05
 -0.10243263D-01 -0.10112165D-01 -0.10072397D-01 -0.17621364D-03  0.33044471D-04
  0.17329583D-04 -0.70115565D-05 -0.11892927D-04 -0.13539677D-04  0.49686502D-03
 -0.58947215D-05 -0.99985633D-05 -0.11383011D-04  0.51735745D-03 -0.76168143D-05
 -0.12919559D-04 -0.14708461D-04  0.49752153D-03 -0.12356696D-04 -0.20959295D-04
 -0.23861416D-04 -0.17518967D-04  0.89096688D-06  0.15112485D-05  0.17205030D-05
  0.53560635D-04
MO    4     MO 0.0        OCC NO =    1.0000000  ORB. ENERGY =   -9.966633
  0.10797378D-01  0.19919055D-01  0.32155530D-01  0.41856946D-01  0.35716608D-01
  0.12332086D-01 -0.15325039D-03 -0.70632965D-04  0.19806221D-03 -0.12152505D-03
 -0.93177699D-04 -0.46502202D-04 -0.48159347D-03 -0.36925532D-03 -0.18428429D-03
  0.13049748D-05  0.10005719D-05  0.49935552D-06  0.16086361D-02  0.54059874D-03
  0.62213673D-03  0.15046395D-05 -0.48546082D-03 -0.65228524D-03 -0.43504344D-03
  0.69724942D-04  0.20450082D-05  0.10523794D-05  0.12063871D-03  0.22255486D-03
  0.35927255D-03  0.46766611D-03  0.39906034D-03  0.13778594D-03 -0.40994115D-04
 -0.18894150D-04  0.52981169D-04  0.29139951D-04  0.22342667D-04  0.11150556D-04
 -0.20971015D-04 -0.16079244D-04 -0.80246696D-05  0.24307429D-05  0.18637395D-05
  0.93013662D-06 -0.77000780D-03 -0.50336160D-04 -0.43673390D-03 -0.27819228D-05
  0.73305695D-04  0.53325539D-04  0.37598223D-04 -0.55715223D-04 -0.14361601D-05
  0.56156971D-06  0.20108933D-05  0.37097056D-05  0.59886150D-05  0.77953974D-05
  0.66518267D-05  0.22967159D-05  0.10931600D-03  0.50383646D-04 -0.14128100D-03
  0.13192705D-04  0.10115329D-04  0.50482583D-05 -0.89609852D-05 -0.68707151D-05
 -0.34289684D-05 -0.45986191D-06 -0.35259295D-06 -0.17596859D-06  0.80395654D-03
 -0.33295514D-03  0.24587423D-03 -0.36385117D-06 -0.31064486D-04 -0.14741326D-04
 -0.10425555D-03  0.34780148D-04  0.95763307D-06  0.91627932D-06  0.15543368D-03
  0.28674479D-03  0.46289500D-03  0.60255175D-03  0.51415850D-03  0.17752658D-03
 -0.58760292D-04 -0.27082565D-04  0.75942339D-04  0.39617339D-04  0.30376063D-04
  0.15159784D-04 -0.28435916D-04 -0.21802857D-04 -0.10881154D-04  0.10760348D-05
  0.82503525D-06  0.41175041D-06 -0.86149645D-03  0.38326702D-03  0.19376492D-03
  0.27337186D-05  0.86228541D-04  0.29927647D-04  0.50013133D-04 -0.35322381D-04
  0.21681842D-06 -0.52798648D-06  0.96295281D-02  0.17764599D-01  0.28677571D-01
  0.37329677D-01  0.31853481D-01  0.10998241D-01 -0.90140054D-04 -0.41545468D-04
  0.11649783D-03  0.36293059D-03  0.27827216D-03  0.13887731D-03  0.25206567D-03
  0.19326797D-03  0.96454260D-04  0.15777537D-05  0.12097215D-05  0.60373580D-06
  0.16777080D-02 -0.27315016D-03 -0.64446467D-03 -0.35806351D-05 -0.65958668D-03
 -0.43886063D-03 -0.42924145D-03 -0.94883278D-04 -0.22125026D-05  0.13140609D-05
  0.53231377D+00  0.98201497D+00  0.15852766D+01  0.20635592D+01  0.17608388D+01
  0.60797531D+00 -0.19782043D-01 -0.91175253D-02  0.25566493D-01 -0.18447747D-04
 -0.14144562D-04 -0.70591278D-05  0.75015489D-04  0.57517119D-04  0.28705074D-04
  0.12712970D-04  0.97474988D-05  0.48646851D-05 -0.37574537D-02 -0.61295755D-03
  0.45335996D-03 -0.34357214D-05 -0.10156026D-01 -0.10167319D-01 -0.10521860D-01
  0.12701382D-03  0.83259034D-05 -0.27927945D-05 -0.11072407D-03 -0.18780899D-03
 -0.21381389D-03  0.18103897D-03 -0.22138612D-04 -0.40746864D-04 -0.65936118D-04
 -0.86674872D-04 -0.74340534D-04 -0.25418291D-04  0.75950729D-04  0.33889067D-04
 -0.10007487D-03  0.31958438D-04  0.24622254D-04  0.10810496D-04 -0.12774489D-06
 -0.98420550D-07 -0.43211923D-07  0.20634661D-06  0.15897894D-06  0.69800316D-07
  0.24460611D-03 -0.47997531D-04  0.25420957D-04 -0.68191393D-07 -0.77882970D-04
 -0.78556758D-04 -0.73776153D-04  0.34475179D-05  0.93730141D-07 -0.33021581D-07
 -0.51772412D-06 -0.87815810D-06 -0.99975196D-06  0.10653195D-04 -0.19028354D-04
 -0.32275690D-04 -0.36744732D-04 -0.10412261D-03 -0.19350871D-04 -0.35698578D-04
 -0.57628573D-04 -0.75015279D-04 -0.64010674D-04 -0.22101347D-04  0.49703158D-04
  0.22908140D-04 -0.64236816D-04  0.31349591D-04  0.24036878D-04  0.11996087D-04
 -0.11091215D-04 -0.85040402D-05 -0.42441121D-05 -0.23068834D-05 -0.17687718D-05
 -0.88274111D-06  0.26280395D-03  0.99916404D-04  0.18109541D-04 -0.31279433D-05
  0.58550330D-04  0.33057028D-04 -0.29298856D-04  0.13080521D-04 -0.99710991D-05
  0.15121804D-05 -0.52731011D-05 -0.89441775D-05 -0.10182630D-04  0.17072225D-05
 -0.72805762D-05 -0.12349235D-04 -0.14059168D-04  0.74041796D-05 -0.68294267D-05
 -0.11584000D-04 -0.13187975D-04  0.92058046D-05 -0.22796423D-04 -0.38667048D-04
 -0.44021068D-04 -0.11925540D-03  0.75711877D-05  0.12842167D-04  0.14620354D-04
  0.15938204D-03
MO    5     MO 0.0        OCC NO =    1.0000000  ORB. ENERGY =   -9.953739
  0.53222640D+00  0.98185378D+00  0.15850164D+01  0.20632204D+01  0.17605497D+01
  0.60787552D+00 -0.20160706D-01 -0.92920508D-02  0.26055880D-01 -0.42948639D-04
 -0.32930292D-04 -0.16434524D-04 -0.14967491D-03 -0.11476123D-03 -0.57273896D-04
  0.53826367D-04  0.41270644D-04  0.20596944D-04 -0.37606588D-02 -0.41204839D-03
 -0.17671856D-03  0.22035073D-05 -0.10522457D-01 -0.10429306D-01 -0.10485740D-01
 -0.12584375D-03 -0.30040000D-04 -0.14441823D-04  0.10930925D-01  0.20165422D-01
  0.32553244D-01  0.42374651D-01  0.36158367D-01  0.12484615D-01 -0.16855470D-03
 -0.77686706D-04  0.21784163D-03  0.34879227D-03  0.26743179D-03  0.13346721D-03
 -0.28559638D-03 -0.21897719D-03 -0.10928496D-03  0.21078407D-05  0.16161586D-05
  0.80657641D-06  0.15426823D-02 -0.22600486D-03  0.52377640D-03 -0.35443819D-06
 -0.64592729D-03 -0.51989613D-03 -0.45694883D-03  0.19075751D-03  0.14038635D-05
 -0.31377371D-05 -0.22488807D-04 -0.41487457D-04 -0.66973619D-04 -0.87179752D-04
 -0.74390641D-04 -0.25685300D-04 -0.45494064D-04 -0.20968173D-04  0.58796945D-04
  0.58855095D-05  0.45126354D-05  0.22521213D-05  0.34457211D-05  0.26419604D-05
  0.13185234D-05 -0.83532631D-06 -0.64047523D-06 -0.31964203D-06 -0.67703779D-03
  0.29123707D-03 -0.14031399D-03  0.19873052D-05  0.84668509D-04  0.20403681D-04
  0.51081495D-04  0.33141515D-04 -0.39952325D-06 -0.51037951D-06 -0.30330844D-03
 -0.55954485D-03 -0.90327888D-03 -0.11758007D-02 -0.10033129D-02 -0.34641983D-03
  0.92474677D-04  0.42621494D-04 -0.11951512D-03  0.24619511D-04  0.18876680D-04
  0.94207861D-05  0.20152047D-04  0.15451311D-04  0.77112872D-05  0.13047936D-06
  0.10004330D-06  0.49928619D-07  0.62378052D-03 -0.30999495D-03 -0.10410755D-03
 -0.26218700D-05  0.13197637D-05  0.32000351D-05 -0.76177462D-04 -0.15119748D-04
  0.15236478D-05  0.10380198D-05 -0.18816578D-02 -0.34712912D-02 -0.56037404D-02
 -0.72944049D-02 -0.62243290D-02 -0.21491112D-02  0.19238823D-04  0.88671559D-05
 -0.24864431D-04  0.26930690D-04  0.20648745D-04  0.10305171D-04  0.27479170D-05
  0.21069285D-05  0.10515050D-05 -0.29045519D-06 -0.22270262D-06 -0.11114421D-06
 -0.71731205D-03 -0.11036123D-04  0.35263338D-03  0.14658313D-05  0.11030384D-03
  0.10966859D-03  0.92185448D-04  0.79593610D-04  0.10413083D-06 -0.76294203D-06
 -0.11006176D-01 -0.20304245D-01 -0.32777347D-01 -0.42666367D-01 -0.36407289D-01
 -0.12570562D-01  0.64718020D-03  0.29828476D-03 -0.83642160D-03 -0.37451514D-04
 -0.28715446D-04 -0.14331020D-04  0.40518247D-03  0.31066822D-03  0.15504521D-03
  0.10527179D-05  0.80715728D-06  0.40282805D-06  0.15420900D-02  0.28570942D-03
 -0.51467183D-03 -0.42316731D-06 -0.45250437D-04 -0.23108929D-03  0.18718058D-06
 -0.86970781D-04 -0.14669112D-05  0.31108874D-05  0.42096658D-05  0.71403900D-05
  0.81290816D-05  0.91492984D-04 -0.47757086D-06 -0.87898531D-06 -0.14223642D-05
 -0.18697375D-05 -0.16036630D-05 -0.54831961D-06 -0.45338884D-05 -0.20230122D-05
  0.59739821D-05  0.62074497D-04  0.47825054D-04  0.20997775D-04  0.34718528D-04
  0.26748754D-04  0.11744144D-04  0.11341105D-05  0.87377101D-06  0.38363254D-06
 -0.77540343D-04 -0.34776673D-04 -0.32364005D-04 -0.82018906D-06  0.33552708D-04
 -0.32726812D-04 -0.19511210D-04 -0.17033286D-04  0.93111052D-06 -0.84560237D-06
  0.69222985D-05  0.11741528D-04  0.13367315D-04 -0.23513998D-05  0.14430034D-04
  0.24476069D-04  0.27865140D-04  0.94956953D-04 -0.13507406D-02 -0.24918526D-02
 -0.40226227D-02 -0.52362595D-02 -0.44681097D-02 -0.15427309D-02  0.88725444D-04
  0.40893476D-04 -0.11466958D-03 -0.34574392D-03 -0.26509451D-03 -0.13230074D-03
 -0.16646723D-03 -0.12763652D-03 -0.63699567D-04  0.10782871D-03  0.82676215D-04
  0.41261226D-04  0.44087431D-03  0.19548904D-03  0.86069633D-04 -0.68907623D-04
 -0.44259166D-03 -0.19542465D-03 -0.81101922D-05 -0.34295296D-03  0.24032941D-04
  0.20342271D-04 -0.22964054D-04 -0.38951382D-04 -0.44344772D-04 -0.17782027D-04
 -0.36890324D-04 -0.62572971D-04 -0.71237116D-04  0.11706338D-03 -0.20614958D-04
 -0.34966871D-04 -0.39808547D-04 -0.11341108D-04 -0.28185586D-05 -0.47808089D-05
 -0.54427820D-05  0.90974318D-04 -0.14106468D-04 -0.23927239D-04 -0.27240316D-04
 -0.82584818D-04
MO    6     MO 0.0        OCC NO =    1.0000000  ORB. ENERGY =   -9.951266
  0.17469822D-02  0.32228410D-02  0.52026647D-02  0.67723236D-02  0.57788360D-02
  0.19952932D-02 -0.12069638D-03 -0.55628853D-04  0.15598911D-03 -0.14675201D-04
 -0.11252013D-04 -0.56155431D-05 -0.21146908D-04 -0.16214108D-04 -0.80919760D-05
  0.82165647D-06  0.62999407D-06  0.31441119D-06 -0.81717366D-03 -0.28145161D-03
 -0.21885288D-03 -0.42355922D-05 -0.76182744D-06  0.45295185D-04  0.10608420D-04
  0.15514451D-04  0.45690381D-05  0.17076240D-05 -0.78277005D-04 -0.14440579D-03
 -0.23311572D-03 -0.30344740D-03 -0.25893222D-03 -0.89403073D-04  0.84283578D-04
  0.38846224D-04 -0.10892887D-03 -0.11409429D-04 -0.87480268D-05 -0.43658785D-05
 -0.55065198D-04 -0.42220502D-04 -0.21070989D-04 -0.26800178D-05 -0.20548677D-05
 -0.10255230D-05  0.53834061D-03  0.16305693D-04  0.30557718D-03  0.32144750D-05
  0.97289491D-05 -0.55759870D-05 -0.81581539D-04  0.78489603D-05  0.79071713D-06
  0.20470650D-05 -0.23967484D-03 -0.44215328D-03 -0.71377249D-03 -0.92911970D-03
 -0.79281952D-03 -0.27374153D-03 -0.57211736D-05 -0.26368837D-05  0.73940971D-05
  0.15140079D-05  0.11608452D-05  0.57934311D-06 -0.80999571D-04 -0.62105334D-04
 -0.30994914D-04  0.21253480D-06  0.16295821D-06  0.81327566D-07 -0.63258825D-03