 Entering Link 1 = D:\Gaussian\G16W\l1.exe PID=     42620.
  
 Copyright (c) 1988,1990,1992,1993,1995,1998,2003,2009,2016,
            Gaussian, Inc.  All Rights Reserved.
  
 This is part of the Gaussian(R) 16 program.  It is based on
 the Gaussian(R) 09 system (copyright 2009, Gaussian, Inc.),
 the Gaussian(R) 03 system (copyright 2003, Gaussian, Inc.),
 the Gaussian(R) 98 system (copyright 1998, Gaussian, Inc.),
 the Gaussian(R) 94 system (copyright 1995, Gaussian, Inc.),
 the Gaussian 92(TM) system (copyright 1992, Gaussian, Inc.),
 the Gaussian 90(TM) system (copyright 1990, Gaussian, Inc.),
 the Gaussian 88(TM) system (copyright 1988, Gaussian, Inc.),
 the Gaussian 86(TM) system (copyright 1986, Carnegie Mellon
 University), and the Gaussian 82(TM) system (copyright 1983,
 Carnegie Mellon University). Gaussian is a federally registered
 trademark of Gaussian, Inc.
  
 This software contains proprietary and confidential information,
 including trade secrets, belonging to Gaussian, Inc.
  
 This software is provided under written license and may be
 used, copied, transmitted, or stored only in accord with that
 written license.
  
 The following legend is applicable only to US Government
 contracts under FAR:
  
                    RESTRICTED RIGHTS LEGEND
  
 Use, reproduction and disclosure by the US Government is
 subject to restrictions as set forth in subparagraphs (a)
 and (c) of the Commercial Computer Software - Restricted
 Rights clause in FAR 52.227-19.
  
 Gaussian, Inc.
 340 Quinnipiac St., Bldg. 40, Wallingford CT 06492
  
  
 ---------------------------------------------------------------
 Warning -- This program may not be used in any manner that
 competes with the business of Gaussian, Inc. or will provide
 assistance to any competitor of Gaussian, Inc.  The licensee
 of this program is prohibited from giving any competitor of
 Gaussian, Inc. access to this program.  By using this program,
 the user acknowledges that Gaussian, Inc. is engaged in the
 business of creating and licensing software in the field of
 computational chemistry and represents and warrants to the
 licensee that it is not a competitor of Gaussian, Inc. and that
 it will not use this program in any manner prohibited above.
 ---------------------------------------------------------------
  

 Cite this work as:
 Gaussian 16, Revision A.03,
 M. J. Frisch, G. W. Trucks, H. B. Schlegel, G. E. Scuseria, 
 M. A. Robb, J. R. Cheeseman, G. Scalmani, V. Barone, 
 G. A. Petersson, H. Nakatsuji, X. Li, M. Caricato, A. V. Marenich, 
 J. Bloino, B. G. Janesko, R. Gomperts, B. Mennucci, H. P. Hratchian, 
 J. V. Ortiz, A. F. Izmaylov, J. L. Sonnenberg, D. Williams-Young, 
 F. Ding, F. Lipparini, F. Egidi, J. Goings, B. Peng, A. Petrone, 
 T. Henderson, D. Ranasinghe, V. G. Zakrzewski, J. Gao, N. Rega, 
 G. Zheng, W. Liang, M. Hada, M. Ehara, K. Toyota, R. Fukuda, 
 J. Hasegawa, M. Ishida, T. Nakajima, Y. Honda, O. Kitao, H. Nakai, 
 T. Vreven, K. Throssell, J. A. Montgomery, Jr., J. E. Peralta, 
 F. Ogliaro, M. J. Bearpark, J. J. Heyd, E. N. Brothers, K. N. Kudin, 
 V. N. Staroverov, T. A. Keith, R. Kobayashi, J. Normand, 
 K. Raghavachari, A. P. Rendell, J. C. Burant, S. S. Iyengar, 
 J. Tomasi, M. Cossi, J. M. Millam, M. Klene, C. Adamo, R. Cammi, 
 J. W. Ochterski, R. L. Martin, K. Morokuma, O. Farkas, 
 J. B. Foresman, and D. J. Fox, Gaussian, Inc., Wallingford CT, 2016.
 
 ******************************************
 Gaussian 16:  EM64W-G16RevA.03 17-Dec-2016
                03-Dec-2025 
 ******************************************
 %nprocs=   4
 Will use up to    4 processors via shared memory.
 ------------------------------------
 #P B3LYP/6-31G* SCF=conver=7 out=wfn
 ------------------------------------
 1/38=1,172=1/1;
 2/12=2,17=6,18=5,40=1/2;
 3/5=1,6=6,7=1,11=2,25=1,30=1,74=-5/1,2,3;
 4//1;
 5/5=2,6=7,38=5/2;
 6/7=2,8=2,9=2,10=2,28=1/1;
 99/5=1,6=100,9=1/99;
 Leave Link    1 at Wed Dec 03 16:24:28 2025, MaxMem=           0 cpu:               0.0 elap:               0.1
 (Enter D:\Gaussian\G16W\l101.exe)
 ----------------------------------------------------
 Generated by Multiwfn (http://sobereva.com/multiwfn)
 ----------------------------------------------------
 Symbolic Z-matrix:
 Charge = -1 Multiplicity = 2
 C                    -1.20487  -0.21536  -0.01214 
 C                    -0.03921  -0.98105  -0.00975 
 C                     1.21512  -0.36942   0.00071 
 C                     1.31615   1.02252   0.00753 
 C                     0.1533    1.78885   0.00251 
 C                    -1.09786   1.18104  -0.00849 
 H                    -1.99534   1.78983  -0.01624 
 O                     2.31041  -1.18848   0.00127 
 H                     3.1071   -0.64828   0.0036 
 H                     2.2917    1.50004   0.01256 
 C                    -2.55823  -0.88603   0.00961 
 H                    -2.5287   -1.86065  -0.48274 
 H                    -2.89688  -1.04817   1.03876 
 H                    -3.31303  -0.27441  -0.49047 
 H                    -0.0835   -2.06439  -0.01861 
 H                     0.229     2.87063   0.00308 
 
 ITRead=  0  0  0  0  0  0  0  0  0  0  0  0  0  0  0  0
 MicOpt= -1 -1 -1 -1 -1 -1 -1 -1 -1 -1 -1 -1 -1 -1 -1 -1
 NAtoms=     16 NQM=       16 NQMF=       0 NMMI=      0 NMMIF=      0
                NMic=       0 NMicF=      0.
                    Isotopes and Nuclear Properties:
 (Nuclear quadrupole moments (NQMom) in fm**2, nuclear magnetic moments (NMagM)
  in nuclear magnetons)

  Atom         1           2           3           4           5           6           7           8           9          10
 IAtWgt=          12          12          12          12          12          12           1          16           1           1
 AtmWgt=  12.0000000  12.0000000  12.0000000  12.0000000  12.0000000  12.0000000   1.0078250  15.9949146   1.0078250   1.0078250
 NucSpn=           0           0           0           0           0           0           1           0           1           1
 AtZEff=   0.0000000   0.0000000   0.0000000   0.0000000   0.0000000   0.0000000   0.0000000   0.0000000   0.0000000   0.0000000
 NQMom=    0.0000000   0.0000000   0.0000000   0.0000000   0.0000000   0.0000000   0.0000000   0.0000000   0.0000000   0.0000000
 NMagM=    0.0000000   0.0000000   0.0000000   0.0000000   0.0000000   0.0000000   2.7928460   0.0000000   2.7928460   2.7928460
 AtZNuc=   6.0000000   6.0000000   6.0000000   6.0000000   6.0000000   6.0000000   1.0000000   8.0000000   1.0000000   1.0000000

  Atom        11          12          13          14          15          16
 IAtWgt=          12           1           1           1           1           1
 AtmWgt=  12.0000000   1.0078250   1.0078250   1.0078250   1.0078250   1.0078250
 NucSpn=           0           1           1           1           1           1
 AtZEff=   0.0000000   0.0000000   0.0000000   0.0000000   0.0000000   0.0000000
 NQMom=    0.0000000   0.0000000   0.0000000   0.0000000   0.0000000   0.0000000
 NMagM=    0.0000000   2.7928460   2.7928460   2.7928460   2.7928460   2.7928460
 AtZNuc=   6.0000000   1.0000000   1.0000000   1.0000000   1.0000000   1.0000000
 Leave Link  101 at Wed Dec 03 16:24:28 2025, MaxMem=   104857600 cpu:               0.0 elap:               0.1
 (Enter D:\Gaussian\G16W\l202.exe)
                          Input orientation:                          
 ---------------------------------------------------------------------
 Center     Atomic      Atomic             Coordinates (Angstroms)
 Number     Number       Type             X           Y           Z
 ---------------------------------------------------------------------
      1          6           0       -1.204866   -0.215361   -0.012141
      2          6           0       -0.039212   -0.981051   -0.009745
      3          6           0        1.215115   -0.369422    0.000709
      4          6           0        1.316150    1.022517    0.007532
      5          6           0        0.153298    1.788846    0.002507
      6          6           0       -1.097863    1.181043   -0.008487
      7          1           0       -1.995342    1.789831   -0.016244
      8          8           0        2.310413   -1.188481    0.001268
      9          1           0        3.107101   -0.648281    0.003601
     10          1           0        2.291697    1.500039    0.012563
     11          6           0       -2.558231   -0.886030    0.009609
     12          1           0       -2.528704   -1.860654   -0.482736
     13          1           0       -2.896883   -1.048169    1.038760
     14          1           0       -3.313034   -0.274408   -0.490471
     15          1           0       -0.083495   -2.064393   -0.018605
     16          1           0        0.228999    2.870630    0.003079
 ---------------------------------------------------------------------
                    Distance matrix (angstroms):
                    1          2          3          4          5
     1  C    0.000000
     2  C    1.394646   0.000000
     3  C    2.424914   1.395541   0.000000
     4  C    2.808603   2.419006   1.395618   0.000000
     5  C    2.421089   2.776606   2.405323   1.392663   0.000000
     6  C    1.400502   2.407362   2.784581   2.419266   1.391025
     7  H    2.155380   3.391795   3.869069   3.399311   2.148722
     8  O    3.647510   2.358789   1.367675   2.424275   3.676632
     9  H    4.333674   3.163890   1.912428   2.449303   3.829431
    10  H    3.894761   3.404327   2.157326   1.086160   2.157837
    11  C    1.510585   2.520885   3.808557   4.318956   3.808858
    12  H    2.163561   2.682348   4.058777   4.830729   4.554936
    13  H    2.158908   3.044692   4.294971   4.806331   4.292561
    14  H    2.162558   3.383541   4.555702   4.833153   4.063927
    15  H    2.162506   1.084283   2.135343   3.389499   3.860566
    16  H    3.402872   3.861029   3.386793   2.144164   1.084430
                    6          7          8          9         10
     6  C    0.000000
     7  H    1.084505   0.000000
     8  O    4.151034   5.235473   0.000000
     9  H    4.585662   5.655060   0.962566   0.000000
    10  H    3.404603   4.296919   2.688609   2.297878   0.000000
    11  C    2.530967   2.734546   4.878037   5.670322   5.405103
    12  H    3.394722   3.718619   4.909494   5.785211   5.897105
    13  H    3.050014   3.159122   5.311498   6.105677   5.870929
    14  H    2.693999   2.494451   5.718434   6.449963   5.900400
    15  H    3.400279   4.302349   2.549198   3.490812   4.283420
    16  H    2.148348   2.473094   4.561652   4.546010   2.476557
                   11         12         13         14         15
    11  C    0.000000
    12  H    1.092322   0.000000
    13  H    1.095503   1.763700   0.000000
    14  H    1.092652   1.769579   1.763643   0.000000
    15  H    2.741104   2.497193   3.172678   3.722449   0.000000
    16  H    4.677733   5.497817   5.118668   4.762442   4.944954
                   16
    16  H    0.000000
 Stoichiometry    C7H8O(1-,2)
 Framework group  C1[X(C7H8O)]
 Deg. of freedom    42
 Full point group                 C1      NOp   1
 Largest Abelian subgroup         C1      NOp   1
 Largest concise Abelian subgroup C1      NOp   1
                         Standard orientation:                         
 ---------------------------------------------------------------------
 Center     Atomic      Atomic             Coordinates (Angstroms)
 Number     Number       Type             X           Y           Z
 ---------------------------------------------------------------------
      1          6           0       -1.204866   -0.215361   -0.012141
      2          6           0       -0.039212   -0.981051   -0.009745
      3          6           0        1.215115   -0.369422    0.000709
      4          6           0        1.316150    1.022517    0.007532
      5          6           0        0.153299    1.788846    0.002507
      6          6           0       -1.097863    1.181043   -0.008487
      7          1           0       -1.995341    1.789831   -0.016244
      8          8           0        2.310413   -1.188481    0.001268
      9          1           0        3.107101   -0.648282    0.003601
     10          1           0        2.291697    1.500039    0.012563
     11          6           0       -2.558231   -0.886029    0.009609
     12          1           0       -2.528704   -1.860653   -0.482736
     13          1           0       -2.896883   -1.048168    1.038760
     14          1           0       -3.313034   -0.274407   -0.490471
     15          1           0       -0.083495   -2.064393   -0.018605
     16          1           0        0.229000    2.870630    0.003079
 ---------------------------------------------------------------------
 Rotational constants (GHZ):           3.6664935           1.7962120           1.2146986
 Leave Link  202 at Wed Dec 03 16:24:28 2025, MaxMem=   104857600 cpu:               0.0 elap:               0.1
 (Enter D:\Gaussian\G16W\l301.exe)
 Standard basis: 6-31G(d) (6D, 7F)
 Ernie: Thresh=  0.10000D-02 Tol=  0.10000D-05 Strict=F.
 There are   136 symmetry adapted cartesian basis functions of A   symmetry.
 There are   136 symmetry adapted basis functions of A   symmetry.
   136 basis functions,   256 primitive gaussians,   136 cartesian basis functions
    30 alpha electrons       29 beta electrons
       nuclear repulsion energy       343.3849832138 Hartrees.
 IExCor=  402 DFT=T Ex+Corr=B3LYP ExCW=0 ScaHFX=  0.200000
 ScaDFX=  0.800000  0.720000  1.000000  0.810000 ScalE2=  1.000000  1.000000
 IRadAn=      5 IRanWt=     -1 IRanGd=            0 ICorTp=0 IEmpDi=  4
 NAtoms=   16 NActive=   16 NUniq=   16 SFac= 1.00D+00 NAtFMM=   60 NAOKFM=F Big=F
 Integral buffers will be    131072 words long.
 Raffenetti 2 integral format.
 Two-electron integral symmetry is turned on.
 Leave Link  301 at Wed Dec 03 16:24:28 2025, MaxMem=   104857600 cpu:               0.0 elap:               0.1
 (Enter D:\Gaussian\G16W\l302.exe)
 NPDir=0 NMtPBC=     1 NCelOv=     1 NCel=       1 NClECP=     1 NCelD=      1
         NCelK=      1 NCelE2=     1 NClLst=     1 CellRange=     0.0.
 One-electron integrals computed using PRISM.
 One-electron integral symmetry used in STVInt
 NBasis=   136 RedAO= T EigKep=  4.39D-04  NBF=   136
 NBsUse=   136 1.00D-06 EigRej= -1.00D+00 NBFU=   136
 Precomputing XC quadrature grid using
 IXCGrd= 4 IRadAn=           5 IRanWt=          -1 IRanGd=           0 AccXCQ= 0.00D+00.
 Generated NRdTot=       0 NPtTot=           0 NUsed=           0 NTot=          32
 NSgBfM=   136   136   136   136   136 MxSgAt=    16 MxSgA2=    16.
 Leave Link  302 at Wed Dec 03 16:24:29 2025, MaxMem=   104857600 cpu:               1.0 elap:               0.2
 (Enter D:\Gaussian\G16W\l303.exe)
 DipDrv:  MaxL=1.
 Leave Link  303 at Wed Dec 03 16:24:29 2025, MaxMem=   104857600 cpu:               0.0 elap:               0.1
 (Enter D:\Gaussian\G16W\l401.exe)
 ExpMin= 1.61D-01 ExpMax= 5.48D+03 ExpMxC= 8.25D+02 IAcc=3 IRadAn=         5 AccDes= 0.00D+00
 Harris functional with IExCor=  402 and IRadAn=       5 diagonalized for initial guess.
 HarFok:  IExCor=  402 AccDes= 0.00D+00 IRadAn=         5 IDoV= 1 UseB2=F ITyADJ=14
 ICtDFT=  3500011 ScaDFX=  1.000000  1.000000  1.000000  1.000000
 FoFCou: FMM=F IPFlag=           0 FMFlag=      100000 FMFlg1=           0
         NFxFlg=           0 DoJE=T BraDBF=F KetDBF=T FulRan=T
         wScrn=  0.000000 ICntrl=       500 IOpCl=  0 I1Cent=   200000004 NGrid=           0
         NMat0=    1 NMatS0=      1 NMatT0=    0 NMatD0=    1 NMtDS0=    0 NMtDT0=    0
 Petite list used in FoFCou.
 Harris En= -346.977669324833    
 JPrj=0 DoOrth=F DoCkMO=F.
 Initial guess <Sx>= 0.0000 <Sy>= 0.0000 <Sz>= 0.5000 <S**2>= 0.7500 S= 0.5000
 Leave Link  401 at Wed Dec 03 16:24:29 2025, MaxMem=   104857600 cpu:               0.0 elap:               0.8
 (Enter D:\Gaussian\G16W\l502.exe)
 Keep R1 and R2 ints in memory in canonical form, NReq=90649204.
 FoFCou: FMM=F IPFlag=           0 FMFlag=           0 FMFlg1=           0
         NFxFlg=           0 DoJE=F BraDBF=F KetDBF=F FulRan=T
         wScrn=  0.000000 ICntrl=       600 IOpCl=  0 I1Cent=           0 NGrid=           0
         NMat0=    1 NMatS0=   9316 NMatT0=    0 NMatD0=    1 NMtDS0=    0 NMtDT0=    0
 Symmetry not used in FoFCou.
 Two-electron integral symmetry not used.
 UHF open shell SCF:
 Using DIIS extrapolation, IDIIS=  1040.
 NGot=   104857600 LenX=    18020952 LenY=    18002015
 Requested convergence on RMS density matrix=1.00D-07 within 128 cycles.
 Requested convergence on MAX density matrix=1.00D-05.
 Requested convergence on             energy=1.00D-05.
 No special actions if energy rises.
 Integral accuracy reduced to 1.0D-05 until final iterations.

 Cycle   1  Pass 0  IDiag  1:
 E= -346.309083654265    
 DIIS: error= 6.12D-02 at cycle   1 NSaved=   1.
 NSaved= 1 IEnMin= 1 EnMin= -346.309083654265     IErMin= 1 ErrMin= 6.12D-02
 ErrMax= 6.12D-02  0.00D+00 EMaxC= 1.00D-01 BMatC= 1.39D+00 BMatP= 1.39D+00
 IDIUse=3 WtCom= 3.88D-01 WtEn= 6.12D-01
 Coeff-Com:  0.100D+01
 Coeff-En:   0.100D+01
 Coeff:      0.100D+01
 Gap=     0.035 Goal=   None    Shift=    0.000
 Gap=     0.280 Goal=   None    Shift=    0.000
 GapD=    0.035 DampG=0.250 DampE=0.500 DampFc=0.2500 IDamp=-1.
 Damping current iteration by 2.50D-01
 RMSDP=2.84D-02 MaxDP=2.54D+00              OVMax= 9.78D-01

 Cycle   2  Pass 0  IDiag  1:
 E= -346.448784589928     Delta-E=       -0.139700935663 Rises=F Damp=T
 DIIS: error= 2.73D-02 at cycle   2 NSaved=   2.
 NSaved= 2 IEnMin= 2 EnMin= -346.448784589928     IErMin= 2 ErrMin= 2.73D-02
 ErrMax= 2.73D-02  0.00D+00 EMaxC= 1.00D-01 BMatC= 2.98D-01 BMatP= 1.39D+00
 IDIUse=3 WtCom= 7.27D-01 WtEn= 2.73D-01
 Coeff-Com: -0.669D+00 0.167D+01
 Coeff-En:   0.000D+00 0.100D+01
 Coeff:     -0.486D+00 0.149D+01
 Gap=    -0.035 Goal=   None    Shift=    0.000
 Gap=     0.330 Goal=   None    Shift=    0.000
 RMSDP=7.93D-03 MaxDP=5.92D-01 DE=-1.40D-01 OVMax= 9.92D-01

 Cycle   3  Pass 0  IDiag  1:
 E= -346.648370903245     Delta-E=       -0.199586313316 Rises=F Damp=F
 DIIS: error= 2.63D-02 at cycle   3 NSaved=   3.
 NSaved= 3 IEnMin= 3 EnMin= -346.648370903245     IErMin= 3 ErrMin= 2.63D-02
 ErrMax= 2.63D-02  0.00D+00 EMaxC= 1.00D-01 BMatC= 2.16D-01 BMatP= 2.98D-01
 IDIUse=3 WtCom= 7.37D-01 WtEn= 2.63D-01
 Coeff-Com: -0.428D+00 0.106D+01 0.372D+00
 Coeff-En:   0.000D+00 0.000D+00 0.100D+01
 Coeff:     -0.316D+00 0.779D+00 0.537D+00
 Gap=     0.057 Goal=   None    Shift=    0.000
 Gap=     0.261 Goal=   None    Shift=    0.000
 RMSDP=2.71D-03 MaxDP=7.35D-02 DE=-2.00D-01 OVMax= 1.11D-01

 Cycle   4  Pass 0  IDiag  1:
 E= -346.692898491980     Delta-E=       -0.044527588736 Rises=F Damp=F
 DIIS: error= 9.86D-03 at cycle   4 NSaved=   4.
 NSaved= 4 IEnMin= 4 EnMin= -346.692898491980     IErMin= 4 ErrMin= 9.86D-03
 ErrMax= 9.86D-03  0.00D+00 EMaxC= 1.00D-01 BMatC= 4.59D-02 BMatP= 2.16D-01
 IDIUse=3 WtCom= 9.01D-01 WtEn= 9.86D-02
 Coeff-Com: -0.163D+00 0.347D+00 0.298D+00 0.518D+00
 Coeff-En:   0.000D+00 0.000D+00 0.112D+00 0.888D+00
 Coeff:     -0.147D+00 0.313D+00 0.279D+00 0.555D+00
 Gap=     0.065 Goal=   None    Shift=    0.000
 Gap=     0.235 Goal=   None    Shift=    0.000
 RMSDP=8.55D-04 MaxDP=2.52D-02 DE=-4.45D-02 OVMax= 3.51D-02

 Cycle   5  Pass 0  IDiag  1:
 E= -346.701086035701     Delta-E=       -0.008187543720 Rises=F Damp=F
 DIIS: error= 3.35D-03 at cycle   5 NSaved=   5.
 NSaved= 5 IEnMin= 5 EnMin= -346.701086035701     IErMin= 5 ErrMin= 3.35D-03
 ErrMax= 3.35D-03  0.00D+00 EMaxC= 1.00D-01 BMatC= 3.53D-03 BMatP= 4.59D-02
 IDIUse=3 WtCom= 9.67D-01 WtEn= 3.35D-02
 Coeff-Com: -0.586D-01 0.870D-01 0.272D-01 0.206D+00 0.738D+00
 Coeff-En:   0.000D+00 0.000D+00 0.000D+00 0.000D+00 0.100D+01
 Coeff:     -0.566D-01 0.841D-01 0.262D-01 0.199D+00 0.747D+00
 Gap=     0.068 Goal=   None    Shift=    0.000
 Gap=     0.235 Goal=   None    Shift=    0.000
 RMSDP=3.50D-04 MaxDP=9.05D-03 DE=-8.19D-03 OVMax= 1.70D-02

 Cycle   6  Pass 0  IDiag  1:
 E= -346.701834116220     Delta-E=       -0.000748080519 Rises=F Damp=F
 DIIS: error= 1.50D-03 at cycle   6 NSaved=   6.
 NSaved= 6 IEnMin= 6 EnMin= -346.701834116220     IErMin= 6 ErrMin= 1.50D-03
 ErrMax= 1.50D-03  0.00D+00 EMaxC= 1.00D-01 BMatC= 8.55D-04 BMatP= 3.53D-03
 IDIUse=3 WtCom= 9.85D-01 WtEn= 1.50D-02
 Coeff-Com: -0.275D-01 0.334D-01-0.210D-01 0.577D-01 0.478D+00 0.479D+00
 Coeff-En:   0.000D+00 0.000D+00 0.000D+00 0.000D+00 0.961D-01 0.904D+00
 Coeff:     -0.270D-01 0.329D-01-0.206D-01 0.568D-01 0.473D+00 0.485D+00
 Gap=     0.069 Goal=   None    Shift=    0.000
 Gap=     0.234 Goal=   None    Shift=    0.000
 RMSDP=1.95D-04 MaxDP=5.47D-03 DE=-7.48D-04 OVMax= 1.34D-02

 Cycle   7  Pass 0  IDiag  1:
 E= -346.702058943947     Delta-E=       -0.000224827727 Rises=F Damp=F
 DIIS: error= 4.33D-04 at cycle   7 NSaved=   7.
 NSaved= 7 IEnMin= 7 EnMin= -346.702058943947     IErMin= 7 ErrMin= 4.33D-04
 ErrMax= 4.33D-04  0.00D+00 EMaxC= 1.00D-01 BMatC= 9.89D-05 BMatP= 8.55D-04
 IDIUse=3 WtCom= 9.96D-01 WtEn= 4.33D-03
 Coeff-Com: -0.814D-02 0.819D-02-0.196D-01-0.716D-02 0.132D+00 0.278D+00
 Coeff-Com:  0.617D+00
 Coeff-En:   0.000D+00 0.000D+00 0.000D+00 0.000D+00 0.000D+00 0.000D+00
 Coeff-En:   0.100D+01
 Coeff:     -0.811D-02 0.815D-02-0.195D-01-0.713D-02 0.132D+00 0.277D+00
 Coeff:      0.618D+00
 Gap=     0.069 Goal=   None    Shift=    0.000
 Gap=     0.234 Goal=   None    Shift=    0.000
 RMSDP=6.91D-05 MaxDP=1.81D-03 DE=-2.25D-04 OVMax= 4.53D-03

 Cycle   8  Pass 0  IDiag  1:
 E= -346.702091924293     Delta-E=       -0.000032980346 Rises=F Damp=F
 DIIS: error= 1.89D-04 at cycle   8 NSaved=   8.
 NSaved= 8 IEnMin= 8 EnMin= -346.702091924293     IErMin= 8 ErrMin= 1.89D-04
 ErrMax= 1.89D-04  0.00D+00 EMaxC= 1.00D-01 BMatC= 1.91D-05 BMatP= 9.89D-05
 IDIUse=3 WtCom= 9.98D-01 WtEn= 1.89D-03
 Coeff-Com:  0.127D-02-0.210D-02-0.582D-02-0.172D-01-0.526D-01 0.412D-01
 Coeff-Com:  0.349D+00 0.687D+00
 Coeff-En:   0.000D+00 0.000D+00 0.000D+00 0.000D+00 0.000D+00 0.000D+00
 Coeff-En:   0.000D+00 0.100D+01
 Coeff:      0.127D-02-0.210D-02-0.581D-02-0.172D-01-0.525D-01 0.411D-01
 Coeff:      0.348D+00 0.687D+00
 Gap=     0.070 Goal=   None    Shift=    0.000
 Gap=     0.235 Goal=   None    Shift=    0.000
 RMSDP=4.89D-05 MaxDP=1.50D-03 DE=-3.30D-05 OVMax= 4.25D-03

 Cycle   9  Pass 0  IDiag  1:
 E= -346.702101925648     Delta-E=       -0.000010001355 Rises=F Damp=F
 DIIS: error= 7.70D-05 at cycle   9 NSaved=   9.
 NSaved= 9 IEnMin= 9 EnMin= -346.702101925648     IErMin= 9 ErrMin= 7.70D-05
 ErrMax= 7.70D-05  0.00D+00 EMaxC= 1.00D-01 BMatC= 2.35D-06 BMatP= 1.91D-05
 IDIUse=1 WtCom= 1.00D+00 WtEn= 0.00D+00
 Coeff-Com:  0.216D-02-0.254D-02 0.213D-02-0.391D-02-0.438D-01-0.298D-01
 Coeff-Com: -0.211D-01 0.195D+00 0.902D+00
 Coeff:      0.216D-02-0.254D-02 0.213D-02-0.391D-02-0.438D-01-0.298D-01
 Coeff:     -0.211D-01 0.195D+00 0.902D+00
 Gap=     0.070 Goal=   None    Shift=    0.000
 Gap=     0.234 Goal=   None    Shift=    0.000
 RMSDP=4.36D-05 MaxDP=1.06D-03 DE=-1.00D-05 OVMax= 4.45D-03

 Cycle  10  Pass 0  IDiag  1:
 E= -346.702105456819     Delta-E=       -0.000003531172 Rises=F Damp=F
 DIIS: error= 5.46D-05 at cycle  10 NSaved=  10.
 NSaved=10 IEnMin=10 EnMin= -346.702105456819     IErMin=10 ErrMin= 5.46D-05
 ErrMax= 5.46D-05  0.00D+00 EMaxC= 1.00D-01 BMatC= 1.68D-06 BMatP= 2.35D-06
 IDIUse=1 WtCom= 1.00D+00 WtEn= 0.00D+00
 Coeff-Com:  0.995D-03-0.104D-02 0.271D-02 0.179D-02-0.126D-01-0.155D-01
 Coeff-Com: -0.890D-01-0.487D-01 0.552D+00 0.609D+00
 Coeff:      0.995D-03-0.104D-02 0.271D-02 0.179D-02-0.126D-01-0.155D-01
 Coeff:     -0.890D-01-0.487D-01 0.552D+00 0.609D+00
 Gap=     0.070 Goal=   None    Shift=    0.000
 Gap=     0.234 Goal=   None    Shift=    0.000
 RMSDP=2.64D-05 MaxDP=6.68D-04 DE=-3.53D-06 OVMax= 2.71D-03

 Cycle  11  Pass 0  IDiag  1:
 E= -346.702107170364     Delta-E=       -0.000001713544 Rises=F Damp=F
 DIIS: error= 3.88D-05 at cycle  11 NSaved=  11.
 NSaved=11 IEnMin=11 EnMin= -346.702107170364     IErMin=11 ErrMin= 3.88D-05
 ErrMax= 3.88D-05  0.00D+00 EMaxC= 1.00D-01 BMatC= 5.31D-07 BMatP= 1.68D-06
 IDIUse=1 WtCom= 1.00D+00 WtEn= 0.00D+00
 Coeff-Com: -0.172D-03 0.677D-04 0.103D-03 0.202D-02 0.135D-01 0.189D-01
 Coeff-Com: -0.351D-01-0.116D+00-0.129D+00 0.773D-01 0.117D+01
 Coeff:     -0.172D-03 0.677D-04 0.103D-03 0.202D-02 0.135D-01 0.189D-01
 Coeff:     -0.351D-01-0.116D+00-0.129D+00 0.773D-01 0.117D+01
 Gap=     0.070 Goal=   None    Shift=    0.000
 Gap=     0.234 Goal=   None    Shift=    0.000
 RMSDP=3.78D-05 MaxDP=9.87D-04 DE=-1.71D-06 OVMax= 3.96D-03

 Cycle  12  Pass 0  IDiag  1:
 E= -346.702108835388     Delta-E=       -0.000001665024 Rises=F Damp=F
 DIIS: error= 2.86D-05 at cycle  12 NSaved=  12.
 NSaved=12 IEnMin=12 EnMin= -346.702108835388     IErMin=12 ErrMin= 2.86D-05
 ErrMax= 2.86D-05  0.00D+00 EMaxC= 1.00D-01 BMatC= 2.06D-07 BMatP= 5.31D-07
 IDIUse=1 WtCom= 1.00D+00 WtEn= 0.00D+00
 Coeff-Com: -0.546D-03 0.701D-03-0.101D-02-0.180D-03 0.617D-02 0.162D-01
 Coeff-Com:  0.195D-01 0.234D-02-0.139D+00-0.283D+00-0.109D+00 0.149D+01
 Coeff:     -0.546D-03 0.701D-03-0.101D-02-0.180D-03 0.617D-02 0.162D-01
 Coeff:      0.195D-01 0.234D-02-0.139D+00-0.283D+00-0.109D+00 0.149D+01
 Gap=     0.070 Goal=   None    Shift=    0.000
 Gap=     0.234 Goal=   None    Shift=    0.000
 RMSDP=4.05D-05 MaxDP=1.05D-03 DE=-1.67D-06 OVMax= 4.27D-03

 Cycle  13  Pass 0  IDiag  1:
 E= -346.702109925158     Delta-E=       -0.000001089770 Rises=F Damp=F
 DIIS: error= 2.04D-05 at cycle  13 NSaved=  13.
 NSaved=13 IEnMin=13 EnMin= -346.702109925158     IErMin=13 ErrMin= 2.04D-05
 ErrMax= 2.04D-05  0.00D+00 EMaxC= 1.00D-01 BMatC= 1.80D-07 BMatP= 2.06D-07
 IDIUse=1 WtCom= 1.00D+00 WtEn= 0.00D+00
 Coeff-Com: -0.311D-03 0.461D-03-0.917D-03-0.128D-02-0.311D-02 0.285D-02
 Coeff-Com:  0.248D-01 0.585D-01 0.109D-02-0.254D+00-0.861D+00 0.124D+01
 Coeff-Com:  0.788D+00
 Coeff:     -0.311D-03 0.461D-03-0.917D-03-0.128D-02-0.311D-02 0.285D-02
 Coeff:      0.248D-01 0.585D-01 0.109D-02-0.254D+00-0.861D+00 0.124D+01
 Coeff:      0.788D+00
 Gap=     0.070 Goal=   None    Shift=    0.000
 Gap=     0.234 Goal=   None    Shift=    0.000
 RMSDP=3.21D-05 MaxDP=8.36D-04 DE=-1.09D-06 OVMax= 3.36D-03

 Cycle  14  Pass 0  IDiag  1:
 E= -346.702110375927     Delta-E=       -0.000000450769 Rises=F Damp=F
 DIIS: error= 6.30D-06 at cycle  14 NSaved=  14.
 NSaved=14 IEnMin=14 EnMin= -346.702110375927     IErMin=14 ErrMin= 6.30D-06
 ErrMax= 6.30D-06  0.00D+00 EMaxC= 1.00D-01 BMatC= 1.38D-08 BMatP= 1.80D-07
 IDIUse=1 WtCom= 1.00D+00 WtEn= 0.00D+00
 Coeff-Com:  0.442D-04-0.473D-04-0.610D-05-0.315D-03-0.281D-02-0.334D-02
 Coeff-Com: -0.240D-02 0.166D-01 0.632D-01 0.237D-01-0.260D+00 0.105D-01
 Coeff-Com:  0.268D-01 0.113D+01
 Coeff:      0.442D-04-0.473D-04-0.610D-05-0.315D-03-0.281D-02-0.334D-02
 Coeff:     -0.240D-02 0.166D-01 0.632D-01 0.237D-01-0.260D+00 0.105D-01
 Coeff:      0.268D-01 0.113D+01
 Gap=     0.070 Goal=   None    Shift=    0.000
 Gap=     0.234 Goal=   None    Shift=    0.000
 RMSDP=1.30D-05 MaxDP=3.35D-04 DE=-4.51D-07 OVMax= 1.37D-03

 Cycle  15  Pass 0  IDiag  1:
 E= -346.702110436796     Delta-E=       -0.000000060869 Rises=F Damp=F
 DIIS: error= 2.00D-06 at cycle  15 NSaved=  15.
 NSaved=15 IEnMin=15 EnMin= -346.702110436796     IErMin=15 ErrMin= 2.00D-06
 ErrMax= 2.00D-06  0.00D+00 EMaxC= 1.00D-01 BMatC= 3.13D-09 BMatP= 1.38D-08
 IDIUse=1 WtCom= 1.00D+00 WtEn= 0.00D+00
 Coeff-Com:  0.499D-04-0.639D-04 0.108D-03 0.403D-04-0.512D-03-0.117D-02
 Coeff-Com: -0.353D-02-0.500D-03 0.206D-01 0.290D-01 0.407D-02-0.115D+00
 Coeff-Com: -0.119D+00 0.371D+00 0.815D+00
 Coeff:      0.499D-04-0.639D-04 0.108D-03 0.403D-04-0.512D-03-0.117D-02
 Coeff:     -0.353D-02-0.500D-03 0.206D-01 0.290D-01 0.407D-02-0.115D+00
 Coeff:     -0.119D+00 0.371D+00 0.815D+00
 Gap=     0.070 Goal=   None    Shift=    0.000
 Gap=     0.234 Goal=   None    Shift=    0.000
 RMSDP=3.50D-06 MaxDP=9.27D-05 DE=-6.09D-08 OVMax= 3.64D-04

 Initial convergence to 1.0D-05 achieved.  Increase integral accuracy.
 Cycle  16  Pass 1  IDiag  1:
 E= -346.702108222861     Delta-E=        0.000002213935 Rises=F Damp=F
 DIIS: error= 5.87D-06 at cycle   1 NSaved=   1.
 NSaved= 1 IEnMin= 1 EnMin= -346.702108222861     IErMin= 1 ErrMin= 5.87D-06
 ErrMax= 5.87D-06  0.00D+00 EMaxC= 1.00D-01 BMatC= 8.09D-09 BMatP= 8.09D-09
 IDIUse=1 WtCom= 1.00D+00 WtEn= 0.00D+00
 Coeff-Com:  0.100D+01
 Coeff:      0.100D+01
 Gap=     0.070 Goal=   None    Shift=    0.000
 Gap=     0.234 Goal=   None    Shift=    0.000
 RMSDP=3.50D-06 MaxDP=9.27D-05 DE= 2.21D-06 OVMax= 2.19D-05

 Cycle  17  Pass 1  IDiag  1:
 E= -346.702108225609     Delta-E=       -0.000000002747 Rises=F Damp=F
 DIIS: error= 1.50D-06 at cycle   2 NSaved=   2.
 NSaved= 2 IEnMin= 2 EnMin= -346.702108225609     IErMin= 2 ErrMin= 1.50D-06
 ErrMax= 1.50D-06  0.00D+00 EMaxC= 1.00D-01 BMatC= 1.55D-09 BMatP= 8.09D-09
 IDIUse=1 WtCom= 1.00D+00 WtEn= 0.00D+00
 Coeff-Com:  0.190D+00 0.810D+00
 Coeff:      0.190D+00 0.810D+00
 Gap=     0.070 Goal=   None    Shift=    0.000
 Gap=     0.234 Goal=   None    Shift=    0.000
 RMSDP=3.16D-07 MaxDP=8.92D-06 DE=-2.75D-09 OVMax= 1.30D-05

 Cycle  18  Pass 1  IDiag  1:
 E= -346.702108225746     Delta-E=       -0.000000000137 Rises=F Damp=F
 DIIS: error= 1.68D-06 at cycle   3 NSaved=   3.
 NSaved= 3 IEnMin= 3 EnMin= -346.702108225746     IErMin= 2 ErrMin= 1.50D-06
 ErrMax= 1.68D-06  0.00D+00 EMaxC= 1.00D-01 BMatC= 1.51D-09 BMatP= 1.55D-09
 IDIUse=1 WtCom= 1.00D+00 WtEn= 0.00D+00
 Coeff-Com: -0.338D-01 0.505D+00 0.529D+00
 Coeff:     -0.338D-01 0.505D+00 0.529D+00
 Gap=     0.070 Goal=   None    Shift=    0.000
 Gap=     0.234 Goal=   None    Shift=    0.000
 RMSDP=1.71D-07 MaxDP=4.62D-06 DE=-1.37D-10 OVMax= 8.66D-06

 Cycle  19  Pass 1  IDiag  1:
 E= -346.702108226140     Delta-E=       -0.000000000394 Rises=F Damp=F
 DIIS: error= 4.05D-07 at cycle   4 NSaved=   4.
 NSaved= 4 IEnMin= 4 EnMin= -346.702108226140     IErMin= 4 ErrMin= 4.05D-07
 ErrMax= 4.05D-07  0.00D+00 EMaxC= 1.00D-01 BMatC= 4.54D-11 BMatP= 1.51D-09
 IDIUse=1 WtCom= 1.00D+00 WtEn= 0.00D+00
 Coeff-Com: -0.185D-01 0.152D+00 0.189D+00 0.677D+00
 Coeff:     -0.185D-01 0.152D+00 0.189D+00 0.677D+00
 Gap=     0.070 Goal=   None    Shift=    0.000
 Gap=     0.234 Goal=   None    Shift=    0.000
 RMSDP=8.34D-08 MaxDP=2.46D-06 DE=-3.94D-10 OVMax= 7.07D-06

 SCF Done:  E(UB3LYP) =  -346.702108226     A.U. after   19 cycles
            NFock= 19  Conv=0.83D-07     -V/T= 2.0079
 <Sx>= 0.0000 <Sy>= 0.0000 <Sz>= 0.5000 <S**2>= 0.7607 S= 0.5053
 <L.S>= 0.000000000000E+00
 KE= 3.439746606809D+02 PE=-1.504934081492D+03 EE= 4.708723293708D+02
 Annihilation of the first spin contaminant:
 S**2 before annihilation     0.7607,   after     0.7501
 Leave Link  502 at Wed Dec 03 16:24:51 2025, MaxMem=   104857600 cpu:              22.0 elap:              21.5
 (Enter D:\Gaussian\G16W\l601.exe)
 Copying SCF densities to generalized density rwf, IOpCl= 1 IROHF=0.

 **********************************************************************

            Population analysis using the SCF density.

 **********************************************************************

 Orbital symmetries:
 Alpha Orbitals:
       Occupied  (A) (A) (A) (A) (A) (A) (A) (A) (A) (A) (A) (A)
                 (A) (A) (A) (A) (A) (A) (A) (A) (A) (A) (A) (A)
                 (A) (A) (A) (A) (A) (A)
       Virtual   (A) (A) (A) (A) (A) (A) (A) (A) (A) (A) (A) (A)
                 (A) (A) (A) (A) (A) (A) (A) (A) (A) (A) (A) (A)
                 (A) (A) (A) (A) (A) (A) (A) (A) (A) (A) (A) (A)
                 (A) (A) (A) (A) (A) (A) (A) (A) (A) (A) (A) (A)
                 (A) (A) (A) (A) (A) (A) (A) (A) (A) (A) (A) (A)
                 (A) (A) (A) (A) (A) (A) (A) (A) (A) (A) (A) (A)
                 (A) (A) (A) (A) (A) (A) (A) (A) (A) (A) (A) (A)
                 (A) (A) (A) (A) (A) (A) (A) (A) (A) (A) (A) (A)
                 (A) (A) (A) (A) (A) (A) (A) (A) (A) (A)
 Beta  Orbitals:
       Occupied  (A) (A) (A) (A) (A) (A) (A) (A) (A) (A) (A) (A)
                 (A) (A) (A) (A) (A) (A) (A) (A) (A) (A) (A) (A)
                 (A) (A) (A) (A) (A)
       Virtual   (A) (A) (A) (A) (A) (A) (A) (A) (A) (A) (A) (A)
                 (A) (A) (A) (A) (A) (A) (A) (A) (A) (A) (A) (A)
                 (A) (A) (A) (A) (A) (A) (A) (A) (A) (A) (A) (A)
                 (A) (A) (A) (A) (A) (A) (A) (A) (A) (A) (A) (A)
                 (A) (A) (A) (A) (A) (A) (A) (A) (A) (A) (A) (A)
                 (A) (A) (A) (A) (A) (A) (A) (A) (A) (A) (A) (A)
                 (A) (A) (A) (A) (A) (A) (A) (A) (A) (A) (A) (A)
                 (A) (A) (A) (A) (A) (A) (A) (A) (A) (A) (A) (A)
                 (A) (A) (A) (A) (A) (A) (A) (A) (A) (A) (A)
 The electronic state is 2-A.
 Alpha  occ. eigenvalues --  -18.99323 -10.03246 -10.00424  -9.96663  -9.95374
 Alpha  occ. eigenvalues --   -9.95127  -9.94928  -9.94121  -0.87299  -0.62974
 Alpha  occ. eigenvalues --   -0.56174  -0.52342  -0.48449  -0.41007  -0.38798
 Alpha  occ. eigenvalues --   -0.31994  -0.28885  -0.26525  -0.23945  -0.23393
 Alpha  occ. eigenvalues --   -0.20654  -0.20613  -0.19690  -0.17471  -0.14526
 Alpha  occ. eigenvalues --   -0.12493  -0.12315  -0.03760  -0.01631   0.15656
 Alpha virt. eigenvalues --    0.22653   0.23103   0.26904   0.28896   0.31581
 Alpha virt. eigenvalues --    0.32288   0.34385   0.35222   0.36972   0.38858
 Alpha virt. eigenvalues --    0.42624   0.45109   0.50728   0.52858   0.55188
 Alpha virt. eigenvalues --    0.58790   0.63375   0.70675   0.71983   0.72942
 Alpha virt. eigenvalues --    0.74812   0.77288   0.78535   0.80515   0.81137
 Alpha virt. eigenvalues --    0.82105   0.83095   0.84278   0.84964   0.86695
 Alpha virt. eigenvalues --    0.91217   0.92754   0.93763   0.95218   0.97266
 Alpha virt. eigenvalues --    1.02885   1.03955   1.05382   1.06271   1.08069
 Alpha virt. eigenvalues --    1.08673   1.10330   1.12692   1.13495   1.15239
 Alpha virt. eigenvalues --    1.18134   1.20644   1.25365   1.32061   1.35923
 Alpha virt. eigenvalues --    1.37418   1.41653   1.45507   1.47251   1.54887
 Alpha virt. eigenvalues --    1.56742   1.58572   1.60909   1.67690   1.68615
 Alpha virt. eigenvalues --    1.70715   1.71926   1.91577   1.91677   1.99917
 Alpha virt. eigenvalues --    2.00557   2.05271   2.08881   2.09090   2.10432
 Alpha virt. eigenvalues --    2.12987   2.14684   2.18740   2.19650   2.29317
 Alpha virt. eigenvalues --    2.31860   2.34482   2.37512   2.42315   2.43845
 Alpha virt. eigenvalues --    2.48718   2.53612   2.55818   2.56586   2.59160
 Alpha virt. eigenvalues --    2.61322   2.71795   2.75813   2.82713   2.88667
 Alpha virt. eigenvalues --    2.88872   2.97363   2.98807   3.04997   3.09875
 Alpha virt. eigenvalues --    3.17058   3.34407   3.64851   4.12239   4.31648
 Alpha virt. eigenvalues --    4.34145   4.39694   4.43565   4.58409   4.65859
 Alpha virt. eigenvalues --    4.97052
  Beta  occ. eigenvalues --  -18.99343 -10.03370 -10.00467  -9.96818  -9.94898
  Beta  occ. eigenvalues --   -9.94704  -9.94536  -9.93734  -0.87341  -0.62296
  Beta  occ. eigenvalues --   -0.55589  -0.51792  -0.47956  -0.40801  -0.38023
  Beta  occ. eigenvalues --   -0.31597  -0.28597  -0.26298  -0.23429  -0.23136
  Beta  occ. eigenvalues --   -0.20481  -0.20469  -0.19396  -0.17252  -0.14284
  Beta  occ. eigenvalues --   -0.12261  -0.10811  -0.00490  -0.00395
  Beta virt. eigenvalues --    0.23002   0.23141   0.23767   0.27027   0.29129
  Beta virt. eigenvalues --    0.31766   0.32971   0.34588   0.35623   0.37309
  Beta virt. eigenvalues --    0.41179   0.43208   0.45233   0.50987   0.53147
  Beta virt. eigenvalues --    0.55363   0.59362   0.63526   0.71461   0.72766
  Beta virt. eigenvalues --    0.73159   0.75632   0.77607   0.78875   0.81211
  Beta virt. eigenvalues --    0.81872   0.82509   0.83592   0.85334   0.85668
  Beta virt. eigenvalues --    0.87519   0.92613   0.93111   0.93929   0.95731
  Beta virt. eigenvalues --    0.98552   1.03051   1.04330   1.05676   1.06657
  Beta virt. eigenvalues --    1.08181   1.08823   1.10671   1.12894   1.13475
  Beta virt. eigenvalues --    1.15428   1.18520   1.20978   1.25678   1.32638
  Beta virt. eigenvalues --    1.36094   1.37824   1.42115   1.45742   1.48409
  Beta virt. eigenvalues --    1.55187   1.57135   1.58728   1.61741   1.68376
  Beta virt. eigenvalues --    1.69547   1.72418   1.72912   1.91743   1.91903
  Beta virt. eigenvalues --    2.00637   2.00859   2.05802   2.09125   2.09417
  Beta virt. eigenvalues --    2.10893   2.13419   2.15164   2.19689   2.20050
  Beta virt. eigenvalues --    2.29646   2.32827   2.34942   2.38410   2.43214
  Beta virt. eigenvalues --    2.44776   2.49728   2.54467   2.56177   2.57386
  Beta virt. eigenvalues --    2.60135   2.61731   2.72253   2.76047   2.84154
  Beta virt. eigenvalues --    2.89004   2.90239   2.97716   2.99312   3.05356
  Beta virt. eigenvalues --    3.10074   3.17724   3.34620   3.65158   4.12250
  Beta virt. eigenvalues --    4.32212   4.35006   4.39996   4.43885   4.59212
  Beta virt. eigenvalues --    4.66277   4.97601
          Condensed to atoms (all electrons):
               1          2          3          4          5          6
     1  C    4.810470   0.406137   0.009944  -0.020308  -0.039847   0.553934
     2  C    0.406137   5.289567   0.534996  -0.110046  -0.030782  -0.027155
     3  C    0.009944   0.534996   4.535802   0.522258   0.013662  -0.055129
     4  C   -0.020308  -0.110046   0.522258   5.337136   0.362728  -0.034626
     5  C   -0.039847  -0.030782   0.013662   0.362728   5.114035   0.541056
     6  C    0.553934  -0.027155  -0.055129  -0.034626   0.541056   4.985993
     7  H   -0.056695   0.007209   0.001037   0.006068  -0.058606   0.324431
     8  O    0.001788  -0.041967   0.240930  -0.062768   0.004395   0.000654
     9  H   -0.000009   0.006298  -0.038295  -0.005697   0.000440  -0.000079
    10  H    0.000966   0.006585  -0.058927   0.312212  -0.047921   0.006215
    11  C    0.354443  -0.074506   0.008825   0.001057   0.007871  -0.070753
    12  H   -0.031604  -0.001245  -0.000213  -0.000032  -0.000122   0.003854
    13  H   -0.054216   0.006712  -0.000140  -0.000065   0.000312  -0.003272
    14  H   -0.028881   0.002882  -0.000177   0.000002   0.000018  -0.003191
    15  H   -0.058373   0.317882  -0.053362   0.008940   0.000126   0.008477
    16  H    0.004584   0.001572   0.004386  -0.049581   0.324528  -0.049225
               7          8          9         10         11         12
     1  C   -0.056695   0.001788  -0.000009   0.000966   0.354443  -0.031604
     2  C    0.007209  -0.041967   0.006298   0.006585  -0.074506  -0.001245
     3  C    0.001037   0.240930  -0.038295  -0.058927   0.008825  -0.000213
     4  C    0.006068  -0.062768  -0.005697   0.312212   0.001057  -0.000032
     5  C   -0.058606   0.004395   0.000440  -0.047921   0.007871  -0.000122
     6  C    0.324431   0.000654  -0.000079   0.006215  -0.070753   0.003854
     7  H    0.778093   0.000004  -0.000002  -0.000274  -0.014705   0.000175
     8  O    0.000004   8.317696   0.232957  -0.008195  -0.000080  -0.000001
     9  H   -0.000002   0.232957   0.425518   0.011220   0.000008   0.000000
    10  H   -0.000274  -0.008195   0.011220   0.798612   0.000011   0.000000
    11  C   -0.014705  -0.000080   0.000008   0.000011   5.324703   0.323704
    12  H    0.000175  -0.000001   0.000000   0.000000   0.323704   0.703165
    13  H    0.000301   0.000000   0.000000   0.000000   0.323684  -0.070956
    14  H    0.007850   0.000001   0.000000   0.000000   0.346805  -0.025101
    15  H   -0.000243  -0.002016  -0.000579  -0.000286  -0.017200   0.008371
    16  H   -0.008401  -0.000082  -0.000022  -0.009530  -0.000313   0.000004
              13         14         15         16
     1  C   -0.054216  -0.028881  -0.058373   0.004584
     2  C    0.006712   0.002882   0.317882   0.001572
     3  C   -0.000140  -0.000177  -0.053362   0.004386
     4  C   -0.000065   0.000002   0.008940  -0.049581
     5  C    0.000312   0.000018   0.000126   0.324528
     6  C   -0.003272  -0.003191   0.008477  -0.049225
     7  H    0.000301   0.007850  -0.000243  -0.008401
     8  O    0.000000   0.000001  -0.002016  -0.000082
     9  H    0.000000   0.000000  -0.000579  -0.000022
    10  H    0.000000   0.000000  -0.000286  -0.009530
    11  C    0.323684   0.346805  -0.017200  -0.000313
    12  H   -0.070956  -0.025101   0.008371   0.000004
    13  H    0.765972  -0.051885   0.000344   0.000004
    14  H   -0.051885   0.658890   0.000152  -0.000008
    15  H    0.000344   0.000152   0.778300   0.000027
    16  H    0.000004  -0.000008   0.000027   0.779380
          Atomic-Atomic Spin Densities.
               1          2          3          4          5          6
     1  C    0.512479  -0.170792  -0.004706   0.017170  -0.034641   0.009774
     2  C   -0.170792   0.479660   0.007287  -0.034995   0.019248  -0.003409
     3  C   -0.004706   0.007287  -0.099385  -0.002889  -0.001406   0.004324
     4  C    0.017170  -0.034995  -0.002889   0.501085  -0.187312  -0.001064
     5  C   -0.034641   0.019248  -0.001406  -0.187312   0.523740   0.003213
     6  C    0.009774  -0.003409   0.004324  -0.001064   0.003213  -0.142030
     7  H   -0.002344   0.000169  -0.000057   0.000252  -0.001073   0.001886
     8  O    0.000147  -0.001879   0.010328  -0.000985   0.000098  -0.000023
     9  H   -0.000018   0.000095   0.000206   0.000043   0.000022   0.000000
    10  H   -0.000063  -0.000023  -0.001039   0.005106  -0.000580  -0.000163
    11  C    0.044952  -0.009371  -0.000219   0.000162  -0.000803  -0.000385
    12  H   -0.010334   0.002139  -0.000043  -0.000029   0.000056   0.000732
    13  H   -0.030613   0.008872   0.000049  -0.000114   0.000442  -0.001699
    14  H   -0.006022   0.000270  -0.000003  -0.000010   0.000079   0.000822
    15  H   -0.000136   0.003483  -0.000878  -0.000046  -0.000055  -0.000151
    16  H    0.000058  -0.000087  -0.000116  -0.000784   0.005004  -0.000716
               7          8          9         10         11         12
     1  C   -0.002344   0.000147  -0.000018  -0.000063   0.044952  -0.010334
     2  C    0.000169  -0.001879   0.000095  -0.000023  -0.009371   0.002139
     3  C   -0.000057   0.010328   0.000206  -0.001039  -0.000219  -0.000043
     4  C    0.000252  -0.000985   0.000043   0.005106   0.000162  -0.000029
     5  C   -0.001073   0.000098   0.000022  -0.000580  -0.000803   0.000056
     6  C    0.001886  -0.000023   0.000000  -0.000163  -0.000385   0.000732
     7  H    0.004611   0.000000   0.000000   0.000006   0.001121   0.000127
     8  O    0.000000  -0.012846   0.000348   0.000337   0.000001   0.000000
     9  H    0.000000   0.000348  -0.000899  -0.000268   0.000000   0.000000
    10  H    0.000006   0.000337  -0.000268  -0.023174   0.000000   0.000000
    11  C    0.001121   0.000001   0.000000   0.000000  -0.019967  -0.022111
    12  H    0.000127   0.000000   0.000000   0.000000  -0.022111   0.069403
    13  H   -0.000534   0.000000   0.000000   0.000000  -0.024796  -0.031734
    14  H    0.000338   0.000000   0.000000   0.000000   0.002334   0.008046
    15  H    0.000008   0.000295  -0.000015   0.000005   0.000295   0.001120
    16  H    0.000315   0.000002   0.000001   0.000409   0.000002   0.000000
              13         14         15         16
     1  C   -0.030613  -0.006022  -0.000136   0.000058
     2  C    0.008872   0.000270   0.003483  -0.000087
     3  C    0.000049  -0.000003  -0.000878  -0.000116
     4  C   -0.000114  -0.000010  -0.000046  -0.000784
     5  C    0.000442   0.000079  -0.000055   0.005004
     6  C   -0.001699   0.000822  -0.000151  -0.000716
     7  H   -0.000534   0.000338   0.000008   0.000315
     8  O    0.000000   0.000000   0.000295   0.000002
     9  H    0.000000   0.000000  -0.000015   0.000001
    10  H    0.000000   0.000000   0.000005   0.000409
    11  C   -0.024796   0.002334   0.000295   0.000002
    12  H   -0.031734   0.008046   0.001120   0.000000
    13  H    0.127781  -0.011065  -0.000490   0.000000
    14  H   -0.011065   0.009572   0.000029   0.000000
    15  H   -0.000490   0.000029  -0.022306  -0.000001
    16  H    0.000000   0.000000  -0.000001  -0.024791
 Mulliken charges and spin densities:
               1          2
     1  C    0.147671   0.324912
     2  C   -0.294139   0.300666
     3  C    0.334403  -0.088546
     4  C   -0.267277   0.295591
     5  C   -0.191890   0.326030
     6  C   -0.181185  -0.128891
     7  H    0.013759   0.004823
     8  O   -0.683315  -0.004178
     9  H    0.368244  -0.000486
    10  H   -0.010687  -0.019447
    11  C   -0.513551  -0.028787
    12  H    0.090002   0.017372
    13  H    0.083205   0.036098
    14  H    0.092644   0.004389
    15  H    0.009441  -0.018843
    16  H    0.002678  -0.020704
 Sum of Mulliken charges =  -1.00000   1.00000
 Mulliken charges and spin densities with hydrogens summed into heavy atoms:
               1          2
     1  C    0.147671   0.324912
     2  C   -0.284698   0.281823
     3  C    0.334403  -0.088546
     4  C   -0.277965   0.276144
     5  C   -0.189212   0.305326
     6  C   -0.167427  -0.124067
     8  O   -0.315071  -0.004664
    11  C   -0.247701   0.029072
 Electronic spatial extent (au):  <R**2>=            995.2621
 Charge=             -1.0000 electrons
 Dipole moment (field-independent basis, Debye):
    X=              1.0974    Y=             -0.2370    Z=             -0.0284  Tot=              1.1231
 Quadrupole moment (field-independent basis, Debye-Ang):
   XX=            -55.2795   YY=            -60.3285   ZZ=            -54.3473
   XY=              0.5881   XZ=              0.2507   YZ=              0.0846
 Traceless Quadrupole moment (field-independent basis, Debye-Ang):
   XX=              1.3723   YY=             -3.6767   ZZ=              2.3045
   XY=              0.5881   XZ=              0.2507   YZ=              0.0846
 Octapole moment (field-independent basis, Debye-Ang**2):
  XXX=             46.6821  YYY=             -9.6896  ZZZ=              0.0550  XYY=             -1.5995
  XXY=              7.0358  XXZ=             -1.1106  XZZ=              4.1691  YZZ=             -4.4049
  YYZ=             -0.2856  XYZ=             -0.3027
 Hexadecapole moment (field-independent basis, Debye-Ang**3):
 XXXX=           -817.0831 YYYY=           -492.2280 ZZZZ=            -64.3863 XXXY=            -32.6637
 XXXZ=              4.7546 YYYX=             -9.1128 YYYZ=              0.6495 ZZZX=              0.1630
 ZZZY=              0.0410 XXYY=           -246.3668 XXZZ=           -157.7343 YYZZ=            -95.9825
 XXYZ=              0.8593 YYXZ=              0.8322 ZZXY=             -6.3361
 N-N= 3.433849832138D+02 E-N=-1.504934104293D+03  KE= 3.439746606809D+02
                          Isotropic Fermi Contact Couplings
        Atom                 a.u.       MegaHertz       Gauss      10(-4) cm-1
     1  C(13)              0.03299      37.08899      13.23427      12.37155
     2  C(13)              0.02579      28.98833      10.34376       9.66947
     3  C(13)             -0.02044     -22.98113      -8.20024      -7.66568
     4  C(13)              0.02625      29.50467      10.52800       9.84170
     5  C(13)              0.02979      33.49382      11.95143      11.17234
     6  C(13)             -0.02328     -26.16657      -9.33688      -8.72823
     7  H(1)               0.00112       4.99796       1.78340       1.66714
     8  O(17)             -0.00290       1.76056       0.62821       0.58726
     9  H(1)              -0.00015      -0.67164      -0.23966      -0.22403
    10  H(1)              -0.00498     -22.24316      -7.93691      -7.41952
    11  C(13)             -0.01356     -15.24300      -5.43908      -5.08452
    12  H(1)               0.00349      15.59290       5.56393       5.20123
    13  H(1)               0.01072      47.91248      17.09637      15.98188
    14  H(1)               0.00229      10.21631       3.64543       3.40779
    15  H(1)              -0.00508     -22.71775      -8.10626      -7.57783
    16  H(1)              -0.00541     -24.16185      -8.62155      -8.05953
 --------------------------------------------------------
       Center         ----  Spin Dipole Couplings  ----
                      3XX-RR        3YY-RR        3ZZ-RR
 --------------------------------------------------------
     1   Atom       -0.187078     -0.195508      0.382586
     2   Atom       -0.159835     -0.156096      0.315931
     3   Atom        0.032844      0.037186     -0.070030
     4   Atom       -0.155509     -0.163667      0.319177
     5   Atom       -0.173856     -0.167282      0.341138
     6   Atom        0.041961      0.049805     -0.091766
     7   Atom        0.002227      0.004258     -0.006485
     8   Atom        0.020886      0.014859     -0.035745
     9   Atom        0.002719      0.000314     -0.003033
    10   Atom        0.015709     -0.014338     -0.001371
    11   Atom        0.006512     -0.002652     -0.003860
    12   Atom        0.002834      0.001276     -0.004109
    13   Atom        0.005942     -0.001905     -0.004037
    14   Atom        0.008675     -0.005559     -0.003116
    15   Atom       -0.023480      0.025127     -0.001647
    16   Atom       -0.025057      0.026546     -0.001489
 --------------------------------------------------------
                        XY            XZ            YZ
 --------------------------------------------------------
     1   Atom       -0.000116      0.005435      0.001942
     2   Atom       -0.003308      0.001193     -0.018832
     3   Atom        0.006394      0.000793      0.000364
     4   Atom       -0.000440     -0.001697     -0.000566
     5   Atom       -0.002574      0.001817      0.001979
     6   Atom        0.009360      0.001865      0.000777
     7   Atom        0.001772     -0.000025      0.000189
     8   Atom       -0.004211     -0.000124      0.000542
     9   Atom       -0.005174     -0.000004     -0.000034
    10   Atom        0.019773      0.000188      0.000186
    11   Atom        0.005359      0.000805      0.002101
    12   Atom        0.006778      0.001404      0.000842
    13   Atom        0.004795     -0.004025     -0.001592
    14   Atom        0.001204      0.001674      0.000543
    15   Atom        0.002045      0.000501      0.001930
    16   Atom        0.003871     -0.000034      0.000058
 --------------------------------------------------------


 ---------------------------------------------------------------------------------
              Anisotropic Spin Dipole Couplings in Principal Axis System
 ---------------------------------------------------------------------------------

       Atom             a.u.   MegaHertz   Gauss  10(-4) cm-1        Axes

              Baa    -0.1955   -26.236    -9.362    -8.752  0.0160  0.9999 -0.0035
     1 C(13)  Bbb    -0.1871   -25.111    -8.960    -8.376  0.9998 -0.0161 -0.0095
              Bcc     0.3826    51.347    18.322    17.128  0.0095  0.0034  0.9999
 
              Baa    -0.1619   -21.729    -7.753    -7.248  0.8418  0.5394  0.0192
     2 C(13)  Bbb    -0.1548   -20.767    -7.410    -6.927 -0.5397  0.8411  0.0350
              Bcc     0.3167    42.496    15.164    14.175  0.0028 -0.0398  0.9992
 
              Baa    -0.0700    -9.398    -3.354    -3.135 -0.0075 -0.0029  1.0000
     3 C(13)  Bbb     0.0283     3.793     1.353     1.265  0.8127 -0.5827  0.0044
              Bcc     0.0418     5.606     2.000     1.870  0.5826  0.8127  0.0068
 
              Baa    -0.1637   -21.966    -7.838    -7.327  0.0540  0.9985  0.0014
     4 C(13)  Bbb    -0.1555   -20.865    -7.445    -6.960  0.9985 -0.0540  0.0035
              Bcc     0.3192    42.831    15.283    14.287 -0.0036 -0.0012  1.0000
 
              Baa    -0.1748   -23.450    -8.368    -7.822  0.9451  0.3267 -0.0046
     5 C(13)  Bbb    -0.1664   -22.329    -7.968    -7.448 -0.3267  0.9451 -0.0025
              Bcc     0.3412    45.779    16.335    15.270  0.0035  0.0039  1.0000
 
              Baa    -0.0918   -12.318    -4.395    -4.109 -0.0136 -0.0046  0.9999
     6 C(13)  Bbb     0.0357     4.796     1.712     1.600  0.8322 -0.5545  0.0088
              Bcc     0.0561     7.522     2.684     2.509  0.5544  0.8322  0.0114
 
              Baa    -0.0065    -3.462    -1.235    -1.155  0.0067 -0.0187  0.9998
     7 H(1)   Bbb     0.0012     0.641     0.229     0.214  0.8654 -0.5008 -0.0151
              Bcc     0.0053     2.821     1.007     0.941  0.5010  0.8654  0.0128
 
              Baa    -0.0358     2.587     0.923     0.863  0.0014 -0.0106  0.9999
     8 O(17)  Bbb     0.0127    -0.919    -0.328    -0.306  0.4575  0.8892  0.0088
              Bcc     0.0231    -1.668    -0.595    -0.556  0.8892 -0.4574 -0.0061
 
              Baa    -0.0038    -2.026    -0.723    -0.676  0.6214  0.7826  0.0380
     9 H(1)   Bbb    -0.0030    -1.618    -0.577    -0.540 -0.0251 -0.0286  0.9993
              Bcc     0.0068     3.643     1.300     1.215  0.7831 -0.6219  0.0018
 
              Baa    -0.0241   -12.884    -4.597    -4.298 -0.4444  0.8958 -0.0036
    10 H(1)   Bbb    -0.0014    -0.733    -0.261    -0.244 -0.0100 -0.0009  0.9999
              Bcc     0.0255    13.617     4.859     4.542  0.8958  0.4444  0.0093
 
              Baa    -0.0062    -0.837    -0.299    -0.279 -0.2847  0.7642 -0.5787
    11 C(13)  Bbb    -0.0029    -0.395    -0.141    -0.132 -0.3423  0.4829  0.8060
              Bcc     0.0092     1.232     0.440     0.411  0.8954  0.4275  0.1241
 
              Baa    -0.0049    -2.624    -0.936    -0.875  0.6348 -0.6348 -0.4406
    12 H(1)   Bbb    -0.0042    -2.217    -0.791    -0.740  0.2133 -0.4041  0.8895
              Bcc     0.0091     4.841     1.728     1.615  0.7427  0.6586  0.1211
 
              Baa    -0.0055    -2.915    -1.040    -0.972  0.3548 -0.0609  0.9329
    13 H(1)   Bbb    -0.0041    -2.199    -0.784    -0.733 -0.3571  0.9134  0.1955
              Bcc     0.0096     5.114     1.825     1.706  0.8640  0.4025 -0.3024
 
              Baa    -0.0057    -3.056    -1.090    -1.019 -0.0632  0.9844 -0.1644
    14 H(1)   Bbb    -0.0033    -1.756    -0.627    -0.586 -0.1520  0.1533  0.9764
              Bcc     0.0090     4.812     1.717     1.605  0.9864  0.0867  0.1400
 
              Baa    -0.0236   -12.578    -4.488    -4.196  0.9990 -0.0412 -0.0192
    15 H(1)   Bbb    -0.0018    -0.950    -0.339    -0.317  0.0162 -0.0728  0.9972
              Bcc     0.0254    13.527     4.827     4.512  0.0425  0.9965  0.0720
 
              Baa    -0.0253   -13.524    -4.826    -4.511  0.9972 -0.0744  0.0016
    16 H(1)   Bbb    -0.0015    -0.794    -0.283    -0.265 -0.0017 -0.0018  1.0000
              Bcc     0.0268    14.318     5.109     4.776  0.0744  0.9972  0.0019
 

 ---------------------------------------------------------------------------------

 No NMR shielding tensors so no spin-rotation constants.
 Leave Link  601 at Wed Dec 03 16:24:51 2025, MaxMem=   104857600 cpu:               0.0 elap:               0.2
 (Enter D:\Gaussian\G16W\l9999.exe)
 1|1|UNPC-PC-20250526LCFF|SP|UB3LYP|6-31G(d)|C7H8O1(1-,2)|ADMINISTRATOR
 |03-Dec-2025|0||#P B3LYP/6-31G* SCF=conver=7 out=wfn||Generated by Mul
 tiwfn (http://sobereva.com/multiwfn)||-1,2|C,0,-1.204866,-0.215361,-0.
 012141|C,0,-0.039212,-0.981051,-0.009745|C,0,1.215115,-0.369422,0.0007
 09|C,0,1.31615,1.022517,0.007532|C,0,0.153298,1.788846,0.002507|C,0,-1
 .097863,1.181043,-0.008487|H,0,-1.995342,1.789831,-0.016244|O,0,2.3104
 13,-1.188481,0.001268|H,0,3.107101,-0.648281,0.003601|H,0,2.291697,1.5
 00039,0.012563|C,0,-2.558231,-0.88603,0.009609|H,0,-2.528704,-1.860654
 ,-0.482736|H,0,-2.896883,-1.048169,1.03876|H,0,-3.313034,-0.274408,-0.
 490471|H,0,-0.083495,-2.064393,-0.018605|H,0,0.228999,2.87063,0.003079
 ||Version=EM64W-G16RevA.03|State=2-A|HF=-346.7021082|S2=0.760716|S2-1=
 0.|S2A=0.750074|RMSD=8.337e-008|Dipole=0.4317483,-0.0932444,-0.0111574
 |Quadrupole=1.0202538,-2.7335671,1.7133133,0.4372023,0.1863817,0.06286
 25|PG=C01 [X(C7H8O1)]||@

 Writing a WFN file to "N+1.wfn"


 A warm smile is the universal language of kindness.
                             -- William Arthur Ward
 Job cpu time:       0 days  0 hours  0 minutes 23.0 seconds.
 Elapsed time:       0 days  0 hours  0 minutes 23.2 seconds.
 File lengths (MBytes):  RWF=     15 Int=      0 D2E=      0 Chk=      2 Scr=      1
 Normal termination of Gaussian 16 at Wed Dec 03 16:24:51 2025.
