 Entering Link 1 = D:\Gaussian\G16W\l1.exe PID=     35108.
  
 Copyright (c) 1988,1990,1992,1993,1995,1998,2003,2009,2016,
            Gaussian, Inc.  All Rights Reserved.
  
 This is part of the Gaussian(R) 16 program.  It is based on
 the Gaussian(R) 09 system (copyright 2009, Gaussian, Inc.),
 the Gaussian(R) 03 system (copyright 2003, Gaussian, Inc.),
 the Gaussian(R) 98 system (copyright 1998, Gaussian, Inc.),
 the Gaussian(R) 94 system (copyright 1995, Gaussian, Inc.),
 the Gaussian 92(TM) system (copyright 1992, Gaussian, Inc.),
 the Gaussian 90(TM) system (copyright 1990, Gaussian, Inc.),
 the Gaussian 88(TM) system (copyright 1988, Gaussian, Inc.),
 the Gaussian 86(TM) system (copyright 1986, Carnegie Mellon
 University), and the Gaussian 82(TM) system (copyright 1983,
 Carnegie Mellon University). Gaussian is a federally registered
 trademark of Gaussian, Inc.
  
 This software contains proprietary and confidential information,
 including trade secrets, belonging to Gaussian, Inc.
  
 This software is provided under written license and may be
 used, copied, transmitted, or stored only in accord with that
 written license.
  
 The following legend is applicable only to US Government
 contracts under FAR:
  
                    RESTRICTED RIGHTS LEGEND
  
 Use, reproduction and disclosure by the US Government is
 subject to restrictions as set forth in subparagraphs (a)
 and (c) of the Commercial Computer Software - Restricted
 Rights clause in FAR 52.227-19.
  
 Gaussian, Inc.
 340 Quinnipiac St., Bldg. 40, Wallingford CT 06492
  
  
 ---------------------------------------------------------------
 Warning -- This program may not be used in any manner that
 competes with the business of Gaussian, Inc. or will provide
 assistance to any competitor of Gaussian, Inc.  The licensee
 of this program is prohibited from giving any competitor of
 Gaussian, Inc. access to this program.  By using this program,
 the user acknowledges that Gaussian, Inc. is engaged in the
 business of creating and licensing software in the field of
 computational chemistry and represents and warrants to the
 licensee that it is not a competitor of Gaussian, Inc. and that
 it will not use this program in any manner prohibited above.
 ---------------------------------------------------------------
  

 Cite this work as:
 Gaussian 16, Revision A.03,
 M. J. Frisch, G. W. Trucks, H. B. Schlegel, G. E. Scuseria, 
 M. A. Robb, J. R. Cheeseman, G. Scalmani, V. Barone, 
 G. A. Petersson, H. Nakatsuji, X. Li, M. Caricato, A. V. Marenich, 
 J. Bloino, B. G. Janesko, R. Gomperts, B. Mennucci, H. P. Hratchian, 
 J. V. Ortiz, A. F. Izmaylov, J. L. Sonnenberg, D. Williams-Young, 
 F. Ding, F. Lipparini, F. Egidi, J. Goings, B. Peng, A. Petrone, 
 T. Henderson, D. Ranasinghe, V. G. Zakrzewski, J. Gao, N. Rega, 
 G. Zheng, W. Liang, M. Hada, M. Ehara, K. Toyota, R. Fukuda, 
 J. Hasegawa, M. Ishida, T. Nakajima, Y. Honda, O. Kitao, H. Nakai, 
 T. Vreven, K. Throssell, J. A. Montgomery, Jr., J. E. Peralta, 
 F. Ogliaro, M. J. Bearpark, J. J. Heyd, E. N. Brothers, K. N. Kudin, 
 V. N. Staroverov, T. A. Keith, R. Kobayashi, J. Normand, 
 K. Raghavachari, A. P. Rendell, J. C. Burant, S. S. Iyengar, 
 J. Tomasi, M. Cossi, J. M. Millam, M. Klene, C. Adamo, R. Cammi, 
 J. W. Ochterski, R. L. Martin, K. Morokuma, O. Farkas, 
 J. B. Foresman, and D. J. Fox, Gaussian, Inc., Wallingford CT, 2016.
 
 ******************************************
 Gaussian 16:  EM64W-G16RevA.03 17-Dec-2016
                03-Dec-2025 
 ******************************************
 %nprocs=   4
 Will use up to    4 processors via shared memory.
 ------------------------------------
 #P B3LYP/6-31G* SCF=conver=7 out=wfn
 ------------------------------------
 1/38=1,172=1/1;
 2/12=2,17=6,18=5,40=1/2;
 3/5=1,6=6,7=1,11=2,25=1,30=1,74=-5/1,2,3;
 4//1;
 5/5=2,6=7,38=5/2;
 6/7=2,8=2,9=2,10=2,28=1/1;
 99/5=1,6=100,9=1/99;
 Leave Link    1 at Wed Dec 03 16:25:07 2025, MaxMem=           0 cpu:               0.0 elap:               0.1
 (Enter D:\Gaussian\G16W\l101.exe)
 ----------------------------------------------------
 Generated by Multiwfn (http://sobereva.com/multiwfn)
 ----------------------------------------------------
 Symbolic Z-matrix:
 Charge =  1 Multiplicity = 2
 C                    -1.20487  -0.21536  -0.01214 
 C                    -0.03921  -0.98105  -0.00975 
 C                     1.21512  -0.36942   0.00071 
 C                     1.31615   1.02252   0.00753 
 C                     0.1533    1.78885   0.00251 
 C                    -1.09786   1.18104  -0.00849 
 H                    -1.99534   1.78983  -0.01624 
 O                     2.31041  -1.18848   0.00127 
 H                     3.1071   -0.64828   0.0036 
 H                     2.2917    1.50004   0.01256 
 C                    -2.55823  -0.88603   0.00961 
 H                    -2.5287   -1.86065  -0.48274 
 H                    -2.89688  -1.04817   1.03876 
 H                    -3.31303  -0.27441  -0.49047 
 H                    -0.0835   -2.06439  -0.01861 
 H                     0.229     2.87063   0.00308 
 
 ITRead=  0  0  0  0  0  0  0  0  0  0  0  0  0  0  0  0
 MicOpt= -1 -1 -1 -1 -1 -1 -1 -1 -1 -1 -1 -1 -1 -1 -1 -1
 NAtoms=     16 NQM=       16 NQMF=       0 NMMI=      0 NMMIF=      0
                NMic=       0 NMicF=      0.
                    Isotopes and Nuclear Properties:
 (Nuclear quadrupole moments (NQMom) in fm**2, nuclear magnetic moments (NMagM)
  in nuclear magnetons)

  Atom         1           2           3           4           5           6           7           8           9          10
 IAtWgt=          12          12          12          12          12          12           1          16           1           1
 AtmWgt=  12.0000000  12.0000000  12.0000000  12.0000000  12.0000000  12.0000000   1.0078250  15.9949146   1.0078250   1.0078250
 NucSpn=           0           0           0           0           0           0           1           0           1           1
 AtZEff=   0.0000000   0.0000000   0.0000000   0.0000000   0.0000000   0.0000000   0.0000000   0.0000000   0.0000000   0.0000000
 NQMom=    0.0000000   0.0000000   0.0000000   0.0000000   0.0000000   0.0000000   0.0000000   0.0000000   0.0000000   0.0000000
 NMagM=    0.0000000   0.0000000   0.0000000   0.0000000   0.0000000   0.0000000   2.7928460   0.0000000   2.7928460   2.7928460
 AtZNuc=   6.0000000   6.0000000   6.0000000   6.0000000   6.0000000   6.0000000   1.0000000   8.0000000   1.0000000   1.0000000

  Atom        11          12          13          14          15          16
 IAtWgt=          12           1           1           1           1           1
 AtmWgt=  12.0000000   1.0078250   1.0078250   1.0078250   1.0078250   1.0078250
 NucSpn=           0           1           1           1           1           1
 AtZEff=   0.0000000   0.0000000   0.0000000   0.0000000   0.0000000   0.0000000
 NQMom=    0.0000000   0.0000000   0.0000000   0.0000000   0.0000000   0.0000000
 NMagM=    0.0000000   2.7928460   2.7928460   2.7928460   2.7928460   2.7928460
 AtZNuc=   6.0000000   1.0000000   1.0000000   1.0000000   1.0000000   1.0000000
 Leave Link  101 at Wed Dec 03 16:25:07 2025, MaxMem=   104857600 cpu:               0.0 elap:               0.1
 (Enter D:\Gaussian\G16W\l202.exe)
                          Input orientation:                          
 ---------------------------------------------------------------------
 Center     Atomic      Atomic             Coordinates (Angstroms)
 Number     Number       Type             X           Y           Z
 ---------------------------------------------------------------------
      1          6           0       -1.204866   -0.215361   -0.012141
      2          6           0       -0.039212   -0.981051   -0.009745
      3          6           0        1.215115   -0.369422    0.000709
      4          6           0        1.316150    1.022517    0.007532
      5          6           0        0.153298    1.788846    0.002507
      6          6           0       -1.097863    1.181043   -0.008487
      7          1           0       -1.995342    1.789831   -0.016244
      8          8           0        2.310413   -1.188481    0.001268
      9          1           0        3.107101   -0.648281    0.003601
     10          1           0        2.291697    1.500039    0.012563
     11          6           0       -2.558231   -0.886030    0.009609
     12          1           0       -2.528704   -1.860654   -0.482736
     13          1           0       -2.896883   -1.048169    1.038760
     14          1           0       -3.313034   -0.274408   -0.490471
     15          1           0       -0.083495   -2.064393   -0.018605
     16          1           0        0.228999    2.870630    0.003079
 ---------------------------------------------------------------------
                    Distance matrix (angstroms):
                    1          2          3          4          5
     1  C    0.000000
     2  C    1.394646   0.000000
     3  C    2.424914   1.395541   0.000000
     4  C    2.808603   2.419006   1.395618   0.000000
     5  C    2.421089   2.776606   2.405323   1.392663   0.000000
     6  C    1.400502   2.407362   2.784581   2.419266   1.391025
     7  H    2.155380   3.391795   3.869069   3.399311   2.148722
     8  O    3.647510   2.358789   1.367675   2.424275   3.676632
     9  H    4.333674   3.163890   1.912428   2.449303   3.829431
    10  H    3.894761   3.404327   2.157326   1.086160   2.157837
    11  C    1.510585   2.520885   3.808557   4.318956   3.808858
    12  H    2.163561   2.682348   4.058777   4.830729   4.554936
    13  H    2.158908   3.044692   4.294971   4.806331   4.292561
    14  H    2.162558   3.383541   4.555702   4.833153   4.063927
    15  H    2.162506   1.084283   2.135343   3.389499   3.860566
    16  H    3.402872   3.861029   3.386793   2.144164   1.084430
                    6          7          8          9         10
     6  C    0.000000
     7  H    1.084505   0.000000
     8  O    4.151034   5.235473   0.000000
     9  H    4.585662   5.655060   0.962566   0.000000
    10  H    3.404603   4.296919   2.688609   2.297878   0.000000
    11  C    2.530967   2.734546   4.878037   5.670322   5.405103
    12  H    3.394722   3.718619   4.909494   5.785211   5.897105
    13  H    3.050014   3.159122   5.311498   6.105677   5.870929
    14  H    2.693999   2.494451   5.718434   6.449963   5.900400
    15  H    3.400279   4.302349   2.549198   3.490812   4.283420
    16  H    2.148348   2.473094   4.561652   4.546010   2.476557
                   11         12         13         14         15
    11  C    0.000000
    12  H    1.092322   0.000000
    13  H    1.095503   1.763700   0.000000
    14  H    1.092652   1.769579   1.763643   0.000000
    15  H    2.741104   2.497193   3.172678   3.722449   0.000000
    16  H    4.677733   5.497817   5.118668   4.762442   4.944954
                   16
    16  H    0.000000
 Stoichiometry    C7H8O(1+,2)
 Framework group  C1[X(C7H8O)]
 Deg. of freedom    42
 Full point group                 C1      NOp   1
 Largest Abelian subgroup         C1      NOp   1
 Largest concise Abelian subgroup C1      NOp   1
                         Standard orientation:                         
 ---------------------------------------------------------------------
 Center     Atomic      Atomic             Coordinates (Angstroms)
 Number     Number       Type             X           Y           Z
 ---------------------------------------------------------------------
      1          6           0       -1.204866   -0.215361   -0.012141
      2          6           0       -0.039212   -0.981051   -0.009745
      3          6           0        1.215115   -0.369422    0.000709
      4          6           0        1.316150    1.022517    0.007532
      5          6           0        0.153299    1.788846    0.002507
      6          6           0       -1.097863    1.181043   -0.008487
      7          1           0       -1.995341    1.789831   -0.016244
      8          8           0        2.310413   -1.188481    0.001268
      9          1           0        3.107101   -0.648282    0.003601
     10          1           0        2.291697    1.500039    0.012563
     11          6           0       -2.558231   -0.886029    0.009609
     12          1           0       -2.528704   -1.860653   -0.482736
     13          1           0       -2.896883   -1.048168    1.038760
     14          1           0       -3.313034   -0.274407   -0.490471
     15          1           0       -0.083495   -2.064393   -0.018605
     16          1           0        0.229000    2.870630    0.003079
 ---------------------------------------------------------------------
 Rotational constants (GHZ):           3.6664935           1.7962120           1.2146986
 Leave Link  202 at Wed Dec 03 16:25:07 2025, MaxMem=   104857600 cpu:               0.0 elap:               0.1
 (Enter D:\Gaussian\G16W\l301.exe)
 Standard basis: 6-31G(d) (6D, 7F)
 Ernie: Thresh=  0.10000D-02 Tol=  0.10000D-05 Strict=F.
 There are   136 symmetry adapted cartesian basis functions of A   symmetry.
 There are   136 symmetry adapted basis functions of A   symmetry.
   136 basis functions,   256 primitive gaussians,   136 cartesian basis functions
    29 alpha electrons       28 beta electrons
       nuclear repulsion energy       343.3849832138 Hartrees.
 IExCor=  402 DFT=T Ex+Corr=B3LYP ExCW=0 ScaHFX=  0.200000
 ScaDFX=  0.800000  0.720000  1.000000  0.810000 ScalE2=  1.000000  1.000000
 IRadAn=      5 IRanWt=     -1 IRanGd=            0 ICorTp=0 IEmpDi=  4
 NAtoms=   16 NActive=   16 NUniq=   16 SFac= 1.00D+00 NAtFMM=   60 NAOKFM=F Big=F
 Integral buffers will be    131072 words long.
 Raffenetti 2 integral format.
 Two-electron integral symmetry is turned on.
 Leave Link  301 at Wed Dec 03 16:25:07 2025, MaxMem=   104857600 cpu:               0.0 elap:               0.1
 (Enter D:\Gaussian\G16W\l302.exe)
 NPDir=0 NMtPBC=     1 NCelOv=     1 NCel=       1 NClECP=     1 NCelD=      1
         NCelK=      1 NCelE2=     1 NClLst=     1 CellRange=     0.0.
 One-electron integrals computed using PRISM.
 One-electron integral symmetry used in STVInt
 NBasis=   136 RedAO= T EigKep=  4.39D-04  NBF=   136
 NBsUse=   136 1.00D-06 EigRej= -1.00D+00 NBFU=   136
 Precomputing XC quadrature grid using
 IXCGrd= 4 IRadAn=           5 IRanWt=          -1 IRanGd=           0 AccXCQ= 0.00D+00.
 Generated NRdTot=       0 NPtTot=           0 NUsed=           0 NTot=          32
 NSgBfM=   136   136   136   136   136 MxSgAt=    16 MxSgA2=    16.
 Leave Link  302 at Wed Dec 03 16:25:07 2025, MaxMem=   104857600 cpu:               0.0 elap:               0.2
 (Enter D:\Gaussian\G16W\l303.exe)
 DipDrv:  MaxL=1.
 Leave Link  303 at Wed Dec 03 16:25:07 2025, MaxMem=   104857600 cpu:               0.0 elap:               0.1
 (Enter D:\Gaussian\G16W\l401.exe)
 ExpMin= 1.61D-01 ExpMax= 5.48D+03 ExpMxC= 8.25D+02 IAcc=3 IRadAn=         5 AccDes= 0.00D+00
 Harris functional with IExCor=  402 and IRadAn=       5 diagonalized for initial guess.
 HarFok:  IExCor=  402 AccDes= 0.00D+00 IRadAn=         5 IDoV= 1 UseB2=F ITyADJ=14
 ICtDFT=  3500011 ScaDFX=  1.000000  1.000000  1.000000  1.000000
 FoFCou: FMM=F IPFlag=           0 FMFlag=      100000 FMFlg1=           0
         NFxFlg=           0 DoJE=T BraDBF=F KetDBF=T FulRan=T
         wScrn=  0.000000 ICntrl=       500 IOpCl=  0 I1Cent=   200000004 NGrid=           0
         NMat0=    1 NMatS0=      1 NMatT0=    0 NMatD0=    1 NMtDS0=    0 NMtDT0=    0
 Petite list used in FoFCou.
 Harris En= -346.518027350499    
 JPrj=0 DoOrth=F DoCkMO=F.
 Initial guess <Sx>= 0.0000 <Sy>= 0.0000 <Sz>= 0.5000 <S**2>= 0.7500 S= 0.5000
 Leave Link  401 at Wed Dec 03 16:25:08 2025, MaxMem=   104857600 cpu:               1.0 elap:               0.8
 (Enter D:\Gaussian\G16W\l502.exe)
 Keep R1 and R2 ints in memory in canonical form, NReq=90649204.
 FoFCou: FMM=F IPFlag=           0 FMFlag=           0 FMFlg1=           0
         NFxFlg=           0 DoJE=F BraDBF=F KetDBF=F FulRan=T
         wScrn=  0.000000 ICntrl=       600 IOpCl=  0 I1Cent=           0 NGrid=           0
         NMat0=    1 NMatS0=   9316 NMatT0=    0 NMatD0=    1 NMtDS0=    0 NMtDT0=    0
 Symmetry not used in FoFCou.
 Two-electron integral symmetry not used.
 UHF open shell SCF:
 Using DIIS extrapolation, IDIIS=  1040.
 NGot=   104857600 LenX=    18020952 LenY=    18002015
 Requested convergence on RMS density matrix=1.00D-07 within 128 cycles.
 Requested convergence on MAX density matrix=1.00D-05.
 Requested convergence on             energy=1.00D-05.
 No special actions if energy rises.
 Integral accuracy reduced to 1.0D-05 until final iterations.

 Cycle   1  Pass 0  IDiag  1:
 E= -346.343892896131    
 DIIS: error= 3.48D-02 at cycle   1 NSaved=   1.
 NSaved= 1 IEnMin= 1 EnMin= -346.343892896131     IErMin= 1 ErrMin= 3.48D-02
 ErrMax= 3.48D-02  0.00D+00 EMaxC= 1.00D-01 BMatC= 5.66D-01 BMatP= 5.66D-01
 IDIUse=3 WtCom= 6.52D-01 WtEn= 3.48D-01
 Coeff-Com:  0.100D+01
 Coeff-En:   0.100D+01
 Coeff:      0.100D+01
 Gap=     0.276 Goal=   None    Shift=    0.000
 Gap=     0.033 Goal=   None    Shift=    0.000
 GapD=    0.033 DampG=0.250 DampE=0.500 DampFc=0.2500 IDamp=-1.
 Damping current iteration by 2.50D-01
 RMSDP=5.74D-03 MaxDP=1.30D-01              OVMax= 2.64D-01

 Cycle   2  Pass 0  IDiag  1:
 E= -346.394240542954     Delta-E=       -0.050347646823 Rises=F Damp=T
 DIIS: error= 1.92D-02 at cycle   2 NSaved=   2.
 NSaved= 2 IEnMin= 2 EnMin= -346.394240542954     IErMin= 2 ErrMin= 1.92D-02
 ErrMax= 1.92D-02  0.00D+00 EMaxC= 1.00D-01 BMatC= 1.64D-01 BMatP= 5.66D-01
 IDIUse=3 WtCom= 8.08D-01 WtEn= 1.92D-01
 Coeff-Com: -0.901D+00 0.190D+01
 Coeff-En:   0.000D+00 0.100D+01
 Coeff:     -0.728D+00 0.173D+01
 Gap=     0.246 Goal=   None    Shift=    0.000
 Gap=     0.061 Goal=   None    Shift=    0.000
 RMSDP=2.57D-03 MaxDP=4.29D-02 DE=-5.03D-02 OVMax= 2.52D-01

 Cycle   3  Pass 0  IDiag  1:
 E= -346.471259467032     Delta-E=       -0.077018924078 Rises=F Damp=F
 DIIS: error= 1.47D-02 at cycle   3 NSaved=   3.
 NSaved= 3 IEnMin= 3 EnMin= -346.471259467032     IErMin= 3 ErrMin= 1.47D-02
 ErrMax= 1.47D-02  0.00D+00 EMaxC= 1.00D-01 BMatC= 5.72D-02 BMatP= 1.64D-01
 IDIUse=3 WtCom= 8.53D-01 WtEn= 1.47D-01
 Coeff-Com: -0.499D+00 0.103D+01 0.471D+00
 Coeff-En:   0.000D+00 0.000D+00 0.100D+01
 Coeff:     -0.425D+00 0.877D+00 0.549D+00
 Gap=     0.252 Goal=   None    Shift=    0.000
 Gap=     0.064 Goal=   None    Shift=    0.000
 RMSDP=1.44D-03 MaxDP=3.37D-02 DE=-7.70D-02 OVMax= 1.38D-01

 Cycle   4  Pass 0  IDiag  1:
 E= -346.479482330472     Delta-E=       -0.008222863441 Rises=F Damp=F
 DIIS: error= 9.56D-03 at cycle   4 NSaved=   4.
 NSaved= 4 IEnMin= 4 EnMin= -346.479482330472     IErMin= 4 ErrMin= 9.56D-03
 ErrMax= 9.56D-03  0.00D+00 EMaxC= 1.00D-01 BMatC= 2.90D-02 BMatP= 5.72D-02
 IDIUse=3 WtCom= 9.04D-01 WtEn= 9.56D-02
 Coeff-Com: -0.826D-01 0.171D+00 0.403D+00 0.509D+00
 Coeff-En:   0.000D+00 0.000D+00 0.372D+00 0.628D+00
 Coeff:     -0.747D-01 0.154D+00 0.400D+00 0.521D+00
 Gap=     0.240 Goal=   None    Shift=    0.000
 Gap=     0.067 Goal=   None    Shift=    0.000
 RMSDP=6.67D-04 MaxDP=2.07D-02 DE=-8.22D-03 OVMax= 6.85D-02

 Cycle   5  Pass 0  IDiag  1:
 E= -346.487390390843     Delta-E=       -0.007908060371 Rises=F Damp=F
 DIIS: error= 1.84D-03 at cycle   5 NSaved=   5.
 NSaved= 5 IEnMin= 5 EnMin= -346.487390390843     IErMin= 5 ErrMin= 1.84D-03
 ErrMax= 1.84D-03  0.00D+00 EMaxC= 1.00D-01 BMatC= 1.31D-03 BMatP= 2.90D-02
 IDIUse=3 WtCom= 9.82D-01 WtEn= 1.84D-02
 Coeff-Com: -0.899D-02 0.206D-01 0.190D+00 0.301D+00 0.498D+00
 Coeff-En:   0.000D+00 0.000D+00 0.000D+00 0.000D+00 0.100D+01
 Coeff:     -0.882D-02 0.202D-01 0.186D+00 0.295D+00 0.507D+00
 Gap=     0.239 Goal=   None    Shift=    0.000
 Gap=     0.070 Goal=   None    Shift=    0.000
 RMSDP=1.53D-04 MaxDP=6.11D-03 DE=-7.91D-03 OVMax= 1.01D-02

 Cycle   6  Pass 0  IDiag  1:
 E= -346.487691492456     Delta-E=       -0.000301101613 Rises=F Damp=F
 DIIS: error= 7.02D-04 at cycle   6 NSaved=   6.
 NSaved= 6 IEnMin= 6 EnMin= -346.487691492456     IErMin= 6 ErrMin= 7.02D-04
 ErrMax= 7.02D-04  0.00D+00 EMaxC= 1.00D-01 BMatC= 1.73D-04 BMatP= 1.31D-03
 IDIUse=3 WtCom= 9.93D-01 WtEn= 7.02D-03
 Coeff-Com:  0.274D-02-0.649D-02 0.506D-01 0.951D-01 0.297D+00 0.561D+00
 Coeff-En:   0.000D+00 0.000D+00 0.000D+00 0.000D+00 0.200D-01 0.980D+00
 Coeff:      0.272D-02-0.645D-02 0.502D-01 0.944D-01 0.295D+00 0.564D+00
 Gap=     0.239 Goal=   None    Shift=    0.000
 Gap=     0.071 Goal=   None    Shift=    0.000
 RMSDP=5.20D-05 MaxDP=2.24D-03 DE=-3.01D-04 OVMax= 3.04D-03

 Cycle   7  Pass 0  IDiag  1:
 E= -346.487731094409     Delta-E=       -0.000039601953 Rises=F Damp=F
 DIIS: error= 2.19D-04 at cycle   7 NSaved=   7.
 NSaved= 7 IEnMin= 7 EnMin= -346.487731094409     IErMin= 7 ErrMin= 2.19D-04
 ErrMax= 2.19D-04  0.00D+00 EMaxC= 1.00D-01 BMatC= 2.70D-05 BMatP= 1.73D-04
 IDIUse=3 WtCom= 9.98D-01 WtEn= 2.19D-03
 Coeff-Com:  0.366D-02-0.831D-02-0.154D-01-0.163D-01 0.611D-01 0.306D+00
 Coeff-Com:  0.669D+00
 Coeff-En:   0.000D+00 0.000D+00 0.000D+00 0.000D+00 0.000D+00 0.000D+00
 Coeff-En:   0.100D+01
 Coeff:      0.366D-02-0.830D-02-0.153D-01-0.163D-01 0.609D-01 0.306D+00
 Coeff:      0.670D+00
 Gap=     0.238 Goal=   None    Shift=    0.000
 Gap=     0.071 Goal=   None    Shift=    0.000
 RMSDP=2.71D-05 MaxDP=1.16D-03 DE=-3.96D-05 OVMax= 2.14D-03

 Cycle   8  Pass 0  IDiag  1:
 E= -346.487742070792     Delta-E=       -0.000010976383 Rises=F Damp=F
 DIIS: error= 8.59D-05 at cycle   8 NSaved=   8.
 NSaved= 8 IEnMin= 8 EnMin= -346.487742070792     IErMin= 8 ErrMin= 8.59D-05
 ErrMax= 8.59D-05  0.00D+00 EMaxC= 1.00D-01 BMatC= 3.56D-06 BMatP= 2.70D-05
 IDIUse=1 WtCom= 1.00D+00 WtEn= 0.00D+00
 Coeff-Com: -0.757D-03 0.114D-02-0.165D-01-0.285D-01-0.646D-01-0.925D-01
 Coeff-Com:  0.171D+00 0.103D+01
 Coeff:     -0.757D-03 0.114D-02-0.165D-01-0.285D-01-0.646D-01-0.925D-01
 Coeff:      0.171D+00 0.103D+01
 Gap=     0.238 Goal=   None    Shift=    0.000
 Gap=     0.071 Goal=   None    Shift=    0.000
 RMSDP=2.00D-05 MaxDP=8.53D-04 DE=-1.10D-05 OVMax= 1.80D-03

 Cycle   9  Pass 0  IDiag  1:
 E= -346.487745363544     Delta-E=       -0.000003292752 Rises=F Damp=F
 DIIS: error= 4.41D-05 at cycle   9 NSaved=   9.
 NSaved= 9 IEnMin= 9 EnMin= -346.487745363544     IErMin= 9 ErrMin= 4.41D-05
 ErrMax= 4.41D-05  0.00D+00 EMaxC= 1.00D-01 BMatC= 1.19D-06 BMatP= 3.56D-06
 IDIUse=1 WtCom= 1.00D+00 WtEn= 0.00D+00
 Coeff-Com: -0.873D-03 0.160D-02-0.664D-02-0.121D-01-0.409D-01-0.860D-01
 Coeff-Com:  0.337D-02 0.540D+00 0.602D+00
 Coeff:     -0.873D-03 0.160D-02-0.664D-02-0.121D-01-0.409D-01-0.860D-01
 Coeff:      0.337D-02 0.540D+00 0.602D+00
 Gap=     0.238 Goal=   None    Shift=    0.000
 Gap=     0.071 Goal=   None    Shift=    0.000
 RMSDP=7.78D-06 MaxDP=2.99D-04 DE=-3.29D-06 OVMax= 7.24D-04

 Initial convergence to 1.0D-05 achieved.  Increase integral accuracy.
 Cycle  10  Pass 1  IDiag  1:
 E= -346.487746049490     Delta-E=       -0.000000685946 Rises=F Damp=F
 DIIS: error= 2.95D-05 at cycle   1 NSaved=   1.
 NSaved= 1 IEnMin= 1 EnMin= -346.487746049490     IErMin= 1 ErrMin= 2.95D-05
 ErrMax= 2.95D-05  0.00D+00 EMaxC= 1.00D-01 BMatC= 2.43D-07 BMatP= 2.43D-07
 IDIUse=1 WtCom= 1.00D+00 WtEn= 0.00D+00
 Coeff-Com:  0.100D+01
 Coeff:      0.100D+01
 Gap=     0.238 Goal=   None    Shift=    0.000
 Gap=     0.071 Goal=   None    Shift=    0.000
 RMSDP=7.78D-06 MaxDP=2.99D-04 DE=-6.86D-07 OVMax= 8.33D-04

 Cycle  11  Pass 1  IDiag  1:
 E= -346.487746199615     Delta-E=       -0.000000150125 Rises=F Damp=F
 DIIS: error= 2.99D-05 at cycle   2 NSaved=   2.
 NSaved= 2 IEnMin= 2 EnMin= -346.487746199615     IErMin= 1 ErrMin= 2.95D-05
 ErrMax= 2.99D-05  0.00D+00 EMaxC= 1.00D-01 BMatC= 4.28D-07 BMatP= 2.43D-07
 IDIUse=1 WtCom= 1.00D+00 WtEn= 0.00D+00
 Coeff-Com:  0.597D+00 0.403D+00
 Coeff:      0.597D+00 0.403D+00
 Gap=     0.238 Goal=   None    Shift=    0.000
 Gap=     0.071 Goal=   None    Shift=    0.000
 RMSDP=2.95D-06 MaxDP=9.73D-05 DE=-1.50D-07 OVMax= 2.16D-04

 Cycle  12  Pass 1  IDiag  1:
 E= -346.487746347276     Delta-E=       -0.000000147661 Rises=F Damp=F
 DIIS: error= 1.53D-05 at cycle   3 NSaved=   3.
 NSaved= 3 IEnMin= 3 EnMin= -346.487746347276     IErMin= 3 ErrMin= 1.53D-05
 ErrMax= 1.53D-05  0.00D+00 EMaxC= 1.00D-01 BMatC= 4.34D-08 BMatP= 2.43D-07
 IDIUse=1 WtCom= 1.00D+00 WtEn= 0.00D+00
 Coeff-Com: -0.239D+00 0.154D-01 0.122D+01
 Coeff:     -0.239D+00 0.154D-01 0.122D+01
 Gap=     0.238 Goal=   None    Shift=    0.000
 Gap=     0.071 Goal=   None    Shift=    0.000
 RMSDP=3.86D-06 MaxDP=1.47D-04 DE=-1.48D-07 OVMax= 6.51D-04

 Cycle  13  Pass 1  IDiag  1:
 E= -346.487746429153     Delta-E=       -0.000000081877 Rises=F Damp=F
 DIIS: error= 1.50D-05 at cycle   4 NSaved=   4.
 NSaved= 4 IEnMin= 4 EnMin= -346.487746429153     IErMin= 4 ErrMin= 1.50D-05
 ErrMax= 1.50D-05  0.00D+00 EMaxC= 1.00D-01 BMatC= 6.48D-08 BMatP= 4.34D-08
 IDIUse=1 WtCom= 1.00D+00 WtEn= 0.00D+00
 Coeff-Com: -0.500D+00-0.189D+00 0.113D+01 0.561D+00
 Coeff:     -0.500D+00-0.189D+00 0.113D+01 0.561D+00
 Gap=     0.238 Goal=   None    Shift=    0.000
 Gap=     0.071 Goal=   None    Shift=    0.000
 RMSDP=2.72D-06 MaxDP=1.31D-04 DE=-8.19D-08 OVMax= 4.57D-04

 Cycle  14  Pass 1  IDiag  1:
 E= -346.487746481352     Delta-E=       -0.000000052199 Rises=F Damp=F
 DIIS: error= 4.89D-06 at cycle   5 NSaved=   5.
 NSaved= 5 IEnMin= 5 EnMin= -346.487746481352     IErMin= 5 ErrMin= 4.89D-06
 ErrMax= 4.89D-06  0.00D+00 EMaxC= 1.00D-01 BMatC= 7.52D-09 BMatP= 4.34D-08
 IDIUse=1 WtCom= 1.00D+00 WtEn= 0.00D+00
 Coeff-Com: -0.200D+00-0.121D+00 0.288D+00 0.276D+00 0.757D+00
 Coeff:     -0.200D+00-0.121D+00 0.288D+00 0.276D+00 0.757D+00
 Gap=     0.238 Goal=   None    Shift=    0.000
 Gap=     0.071 Goal=   None    Shift=    0.000
 RMSDP=1.54D-06 MaxDP=5.63D-05 DE=-5.22D-08 OVMax= 2.91D-04

 Cycle  15  Pass 1  IDiag  1:
 E= -346.487746494554     Delta-E=       -0.000000013202 Rises=F Damp=F
 DIIS: error= 3.84D-06 at cycle   6 NSaved=   6.
 NSaved= 6 IEnMin= 6 EnMin= -346.487746494554     IErMin= 6 ErrMin= 3.84D-06
 ErrMax= 3.84D-06  0.00D+00 EMaxC= 1.00D-01 BMatC= 3.34D-09 BMatP= 7.52D-09
 IDIUse=1 WtCom= 1.00D+00 WtEn= 0.00D+00
 Coeff-Com:  0.581D-01-0.177D-01-0.177D+00-0.585D-01 0.415D+00 0.780D+00
 Coeff:      0.581D-01-0.177D-01-0.177D+00-0.585D-01 0.415D+00 0.780D+00
 Gap=     0.238 Goal=   None    Shift=    0.000
 Gap=     0.071 Goal=   None    Shift=    0.000
 RMSDP=1.00D-06 MaxDP=3.58D-05 DE=-1.32D-08 OVMax= 1.98D-04

 Cycle  16  Pass 1  IDiag  1:
 E= -346.487746500688     Delta-E=       -0.000000006134 Rises=F Damp=F
 DIIS: error= 2.85D-06 at cycle   7 NSaved=   7.
 NSaved= 7 IEnMin= 7 EnMin= -346.487746500688     IErMin= 7 ErrMin= 2.85D-06
 ErrMax= 2.85D-06  0.00D+00 EMaxC= 1.00D-01 BMatC= 1.75D-09 BMatP= 3.34D-09
 IDIUse=1 WtCom= 1.00D+00 WtEn= 0.00D+00
 Coeff-Com:  0.122D+00 0.289D-01-0.196D+00-0.190D+00-0.853D-01 0.429D+00
 Coeff-Com:  0.891D+00
 Coeff:      0.122D+00 0.289D-01-0.196D+00-0.190D+00-0.853D-01 0.429D+00
 Coeff:      0.891D+00
 Gap=     0.238 Goal=   None    Shift=    0.000
 Gap=     0.071 Goal=   None    Shift=    0.000
 RMSDP=9.26D-07 MaxDP=3.15D-05 DE=-6.13D-09 OVMax= 1.85D-04

 Cycle  17  Pass 1  IDiag  1:
 E= -346.487746504619     Delta-E=       -0.000000003931 Rises=F Damp=F
 DIIS: error= 1.59D-06 at cycle   8 NSaved=   8.
 NSaved= 8 IEnMin= 8 EnMin= -346.487746504619     IErMin= 8 ErrMin= 1.59D-06
 ErrMax= 1.59D-06  0.00D+00 EMaxC= 1.00D-01 BMatC= 8.71D-10 BMatP= 1.75D-09
 IDIUse=1 WtCom= 1.00D+00 WtEn= 0.00D+00
 Coeff-Com:  0.482D-01 0.218D-01-0.521D-02-0.125D+00-0.321D+00-0.205D+00
 Coeff-Com:  0.634D+00 0.952D+00
 Coeff:      0.482D-01 0.218D-01-0.521D-02-0.125D+00-0.321D+00-0.205D+00
 Coeff:      0.634D+00 0.952D+00
 Gap=     0.238 Goal=   None    Shift=    0.000
 Gap=     0.071 Goal=   None    Shift=    0.000
 RMSDP=9.76D-07 MaxDP=3.04D-05 DE=-3.93D-09 OVMax= 1.93D-04

 Cycle  18  Pass 1  IDiag  1:
 E= -346.487746506947     Delta-E=       -0.000000002328 Rises=F Damp=F
 DIIS: error= 9.52D-07 at cycle   9 NSaved=   9.
 NSaved= 9 IEnMin= 9 EnMin= -346.487746506947     IErMin= 9 ErrMin= 9.52D-07
 ErrMax= 9.52D-07  0.00D+00 EMaxC= 1.00D-01 BMatC= 1.64D-10 BMatP= 8.71D-10
 IDIUse=1 WtCom= 1.00D+00 WtEn= 0.00D+00
 Coeff-Com: -0.233D-01-0.462D-02 0.861D-01 0.462D-02-0.101D+00-0.236D+00
 Coeff-Com: -0.498D-01 0.434D+00 0.890D+00
 Coeff:     -0.233D-01-0.462D-02 0.861D-01 0.462D-02-0.101D+00-0.236D+00
 Coeff:     -0.498D-01 0.434D+00 0.890D+00
 Gap=     0.238 Goal=   None    Shift=    0.000
 Gap=     0.071 Goal=   None    Shift=    0.000
 RMSDP=3.97D-07 MaxDP=1.49D-05 DE=-2.33D-09 OVMax= 8.02D-05

 Cycle  19  Pass 1  IDiag  1:
 E= -346.487746507350     Delta-E=       -0.000000000403 Rises=F Damp=F
 DIIS: error= 5.25D-07 at cycle  10 NSaved=  10.
 NSaved=10 IEnMin=10 EnMin= -346.487746507350     IErMin=10 ErrMin= 5.25D-07
 ErrMax= 5.25D-07  0.00D+00 EMaxC= 1.00D-01 BMatC= 6.99D-11 BMatP= 1.64D-10
 IDIUse=1 WtCom= 1.00D+00 WtEn= 0.00D+00
 Coeff-Com: -0.196D-01-0.641D-02 0.452D-01 0.185D-01-0.567D-02-0.106D+00
 Coeff-Com: -0.155D+00 0.591D-01 0.527D+00 0.642D+00
 Coeff:     -0.196D-01-0.641D-02 0.452D-01 0.185D-01-0.567D-02-0.106D+00
 Coeff:     -0.155D+00 0.591D-01 0.527D+00 0.642D+00
 Gap=     0.238 Goal=   None    Shift=    0.000
 Gap=     0.071 Goal=   None    Shift=    0.000
 RMSDP=2.23D-07 MaxDP=6.26D-06 DE=-4.03D-10 OVMax= 4.31D-05

 Cycle  20  Pass 1  IDiag  1:
 E= -346.487746507417     Delta-E=       -0.000000000067 Rises=F Damp=F
 DIIS: error= 1.36D-07 at cycle  11 NSaved=  11.
 NSaved=11 IEnMin=11 EnMin= -346.487746507417     IErMin=11 ErrMin= 1.36D-07
 ErrMax= 1.36D-07  0.00D+00 EMaxC= 1.00D-01 BMatC= 7.61D-12 BMatP= 6.99D-11
 IDIUse=1 WtCom= 1.00D+00 WtEn= 0.00D+00
 Coeff-Com: -0.215D-02-0.253D-02-0.118D-02 0.434D-02 0.351D-01 0.264D-01
 Coeff-Com: -0.418D-01-0.107D+00 0.142D-01 0.240D+00 0.835D+00
 Coeff:     -0.215D-02-0.253D-02-0.118D-02 0.434D-02 0.351D-01 0.264D-01
 Coeff:     -0.418D-01-0.107D+00 0.142D-01 0.240D+00 0.835D+00
 Gap=     0.238 Goal=   None    Shift=    0.000
 Gap=     0.071 Goal=   None    Shift=    0.000
 RMSDP=2.08D-08 MaxDP=8.48D-07 DE=-6.66D-11 OVMax= 1.93D-06

 SCF Done:  E(UB3LYP) =  -346.487746507     A.U. after   20 cycles
            NFock= 20  Conv=0.21D-07     -V/T= 2.0093
 <Sx>= 0.0000 <Sy>= 0.0000 <Sz>= 0.5000 <S**2>= 0.7639 S= 0.5069
 <L.S>= 0.000000000000E+00
 KE= 3.432977461331D+02 PE=-1.480056418507D+03 EE= 4.468859426530D+02
 Annihilation of the first spin contaminant:
 S**2 before annihilation     0.7639,   after     0.7501
 Leave Link  502 at Wed Dec 03 16:25:37 2025, MaxMem=   104857600 cpu:              29.0 elap:              28.9
 (Enter D:\Gaussian\G16W\l601.exe)
 Copying SCF densities to generalized density rwf, IOpCl= 1 IROHF=0.

 **********************************************************************

            Population analysis using the SCF density.

 **********************************************************************

 Orbital symmetries:
 Alpha Orbitals:
       Occupied  (A) (A) (A) (A) (A) (A) (A) (A) (A) (A) (A) (A)
                 (A) (A) (A) (A) (A) (A) (A) (A) (A) (A) (A) (A)
                 (A) (A) (A) (A) (A)
       Virtual   (A) (A) (A) (A) (A) (A) (A) (A) (A) (A) (A) (A)
                 (A) (A) (A) (A) (A) (A) (A) (A) (A) (A) (A) (A)
                 (A) (A) (A) (A) (A) (A) (A) (A) (A) (A) (A) (A)
                 (A) (A) (A) (A) (A) (A) (A) (A) (A) (A) (A) (A)
                 (A) (A) (A) (A) (A) (A) (A) (A) (A) (A) (A) (A)
                 (A) (A) (A) (A) (A) (A) (A) (A) (A) (A) (A) (A)
                 (A) (A) (A) (A) (A) (A) (A) (A) (A) (A) (A) (A)
                 (A) (A) (A) (A) (A) (A) (A) (A) (A) (A) (A) (A)
                 (A) (A) (A) (A) (A) (A) (A) (A) (A) (A) (A)
 Beta  Orbitals:
       Occupied  (A) (A) (A) (A) (A) (A) (A) (A) (A) (A) (A) (A)
                 (A) (A) (A) (A) (A) (A) (A) (A) (A) (A) (A) (A)
                 (A) (A) (A) (A)
       Virtual   (A) (A) (A) (A) (A) (A) (A) (A) (A) (A) (A) (A)
                 (A) (A) (A) (A) (A) (A) (A) (A) (A) (A) (A) (A)
                 (A) (A) (A) (A) (A) (A) (A) (A) (A) (A) (A) (A)
                 (A) (A) (A) (A) (A) (A) (A) (A) (A) (A) (A) (A)
                 (A) (A) (A) (A) (A) (A) (A) (A) (A) (A) (A) (A)
                 (A) (A) (A) (A) (A) (A) (A) (A) (A) (A) (A) (A)
                 (A) (A) (A) (A) (A) (A) (A) (A) (A) (A) (A) (A)
                 (A) (A) (A) (A) (A) (A) (A) (A) (A) (A) (A) (A)
                 (A) (A) (A) (A) (A) (A) (A) (A) (A) (A) (A) (A)
 The electronic state is 2-A.
 Alpha  occ. eigenvalues --  -19.42534 -10.49302 -10.42125 -10.41635 -10.41031
 Alpha  occ. eigenvalues --  -10.40288 -10.39568 -10.34409  -1.29701  -1.07800
 Alpha  occ. eigenvalues --   -0.97903  -0.96515  -0.88108  -0.82473  -0.81499
 Alpha  occ. eigenvalues --   -0.73856  -0.70989  -0.68669  -0.64459  -0.63814
 Alpha  occ. eigenvalues --   -0.61263  -0.60964  -0.58958  -0.56909  -0.54542
 Alpha  occ. eigenvalues --   -0.54386  -0.53907  -0.46002  -0.45296
 Alpha virt. eigenvalues --   -0.21484  -0.20956  -0.11350  -0.08559  -0.05620
 Alpha virt. eigenvalues --   -0.03220  -0.02698  -0.00929   0.01807   0.02082
 Alpha virt. eigenvalues --    0.03703   0.04232   0.06520   0.10377   0.13544
 Alpha virt. eigenvalues --    0.15642   0.17327   0.25437   0.30483   0.31002
 Alpha virt. eigenvalues --    0.33025   0.35754   0.36677   0.37559   0.39571
 Alpha virt. eigenvalues --    0.40239   0.40559   0.41853   0.43510   0.45141
 Alpha virt. eigenvalues --    0.46200   0.52347   0.55030   0.56267   0.56816
 Alpha virt. eigenvalues --    0.58383   0.64245   0.64809   0.67496   0.69672
 Alpha virt. eigenvalues --    0.70920   0.73173   0.73836   0.75002   0.76171
 Alpha virt. eigenvalues --    0.77367   0.81035   0.81404   0.84619   0.92440
 Alpha virt. eigenvalues --    0.95580   0.97816   1.01561   1.02036   1.06829
 Alpha virt. eigenvalues --    1.12937   1.16314   1.18442   1.19977   1.23333
 Alpha virt. eigenvalues --    1.26353   1.27361   1.28238   1.50285   1.51166
 Alpha virt. eigenvalues --    1.56003   1.57402   1.63703   1.67683   1.69933
 Alpha virt. eigenvalues --    1.70791   1.71490   1.72904   1.75110   1.76957
 Alpha virt. eigenvalues --    1.86584   1.89109   1.91050   1.95032   2.01185
 Alpha virt. eigenvalues --    2.02855   2.06535   2.08970   2.15751   2.16678
 Alpha virt. eigenvalues --    2.18592   2.20731   2.27938   2.32666   2.39842
 Alpha virt. eigenvalues --    2.44189   2.45032   2.53417   2.54935   2.62721
 Alpha virt. eigenvalues --    2.66540   2.74736   2.90433   3.20806   3.71494
 Alpha virt. eigenvalues --    3.87287   3.90907   3.95391   4.05732   4.15109
 Alpha virt. eigenvalues --    4.22828   4.53191
  Beta  occ. eigenvalues --  -19.41915 -10.48987 -10.41522 -10.41353 -10.41064
  Beta  occ. eigenvalues --  -10.40388 -10.39467 -10.34403  -1.28433  -1.06918
  Beta  occ. eigenvalues --   -0.97257  -0.95506  -0.87608  -0.82043  -0.81094
  Beta  occ. eigenvalues --   -0.73437  -0.70621  -0.68290  -0.63579  -0.61490
  Beta  occ. eigenvalues --   -0.61079  -0.60455  -0.57848  -0.56661  -0.54446
  Beta  occ. eigenvalues --   -0.53707  -0.51864  -0.44589
  Beta virt. eigenvalues --   -0.37450  -0.19734  -0.18293  -0.11127  -0.08318
  Beta virt. eigenvalues --   -0.03927  -0.02914  -0.02608  -0.00803   0.02080
  Beta virt. eigenvalues --    0.02352   0.04020   0.04763   0.06740   0.10681
  Beta virt. eigenvalues --    0.13801   0.15986   0.17682   0.25568   0.31142
  Beta virt. eigenvalues --    0.32146   0.33354   0.35983   0.37398   0.38101
  Beta virt. eigenvalues --    0.40390   0.40644   0.41276   0.42152   0.43897
  Beta virt. eigenvalues --    0.46040   0.47083   0.52665   0.55421   0.56682
  Beta virt. eigenvalues --    0.57074   0.58814   0.64453   0.65094   0.67701
  Beta virt. eigenvalues --    0.69888   0.71025   0.73352   0.75151   0.75813
  Beta virt. eigenvalues --    0.76549   0.77701   0.81184   0.81466   0.85115
  Beta virt. eigenvalues --    0.92598   0.96110   0.98116   1.01699   1.03287
  Beta virt. eigenvalues --    1.07181   1.14152   1.16668   1.18940   1.20516
  Beta virt. eigenvalues --    1.24671   1.27156   1.28434   1.28627   1.51561
  Beta virt. eigenvalues --    1.51672   1.56831   1.57760   1.64552   1.68100
  Beta virt. eigenvalues --    1.70513   1.71063   1.72121   1.73417   1.76331
  Beta virt. eigenvalues --    1.77342   1.86996   1.89325   1.92363   1.95726
  Beta virt. eigenvalues --    2.01714   2.03558   2.07316   2.10116   2.16148
  Beta virt. eigenvalues --    2.17060   2.19278   2.21570   2.29200   2.33407
  Beta virt. eigenvalues --    2.40427   2.45320   2.46114   2.53669   2.55094
  Beta virt. eigenvalues --    2.63048   2.66783   2.75451   2.90650   3.21049
  Beta virt. eigenvalues --    3.72354   3.87872   3.91189   3.96309   4.05910
  Beta virt. eigenvalues --    4.15506   4.23322   4.53745
          Condensed to atoms (all electrons):
               1          2          3          4          5          6
     1  C    4.641026   0.555216  -0.002519  -0.026213  -0.027196   0.479940
     2  C    0.555216   5.037662   0.457867  -0.089989  -0.033664  -0.042190
     3  C   -0.002519   0.457867   4.546070   0.431637  -0.006336  -0.036294
     4  C   -0.026213  -0.089989   0.431637   5.045696   0.529248  -0.040678
     5  C   -0.027196  -0.033664  -0.006336   0.529248   4.867041   0.476139
     6  C    0.479940  -0.042190  -0.036294  -0.040678   0.476139   4.969906
     7  H   -0.036151   0.004812   0.000331   0.004123  -0.036208   0.362468
     8  O    0.002153  -0.044647   0.309424  -0.051317   0.003744   0.000177
     9  H   -0.000141   0.005456  -0.022054  -0.002230   0.000441  -0.000009
    10  H    0.000302   0.004122  -0.042149   0.356264  -0.022793   0.003804
    11  C    0.360576  -0.049733   0.005669   0.000414   0.005997  -0.056408
    12  H   -0.028075  -0.003425   0.000244   0.000005  -0.000177   0.003220
    13  H   -0.022289  -0.003053  -0.000212   0.000021  -0.000142  -0.000837
    14  H   -0.029370   0.003007  -0.000179   0.000003   0.000243  -0.003006
    15  H   -0.032632   0.358116  -0.037271   0.005641  -0.000320   0.005406
    16  H    0.002972   0.000631   0.002807  -0.027956   0.363003  -0.030859
               7          8          9         10         11         12
     1  C   -0.036151   0.002153  -0.000141   0.000302   0.360576  -0.028075
     2  C    0.004812  -0.044647   0.005456   0.004122  -0.049733  -0.003425
     3  C    0.000331   0.309424  -0.022054  -0.042149   0.005669   0.000244
     4  C    0.004123  -0.051317  -0.002230   0.356264   0.000414   0.000005
     5  C   -0.036208   0.003744   0.000441  -0.022793   0.005997  -0.000177
     6  C    0.362468   0.000177  -0.000009   0.003804  -0.056408   0.003220
     7  H    0.477043   0.000002  -0.000001  -0.000112  -0.005586   0.000037
     8  O    0.000002   8.055540   0.242571  -0.004053  -0.000052  -0.000001
     9  H   -0.000001   0.242571   0.306797   0.005252   0.000003   0.000000
    10  H   -0.000112  -0.004053   0.005252   0.485978   0.000005   0.000000
    11  C   -0.005586  -0.000052   0.000003   0.000005   5.179672   0.371740
    12  H    0.000037  -0.000001   0.000000   0.000000   0.371740   0.486854
    13  H    0.000411   0.000001   0.000000   0.000000   0.364712  -0.021219
    14  H    0.003584   0.000000   0.000000   0.000000   0.370658  -0.023220
    15  H   -0.000092  -0.001872  -0.000178  -0.000116  -0.006831   0.003331
    16  H   -0.003605  -0.000042  -0.000009  -0.004238  -0.000141   0.000002
              13         14         15         16
     1  C   -0.022289  -0.029370  -0.032632   0.002972
     2  C   -0.003053   0.003007   0.358116   0.000631
     3  C   -0.000212  -0.000179  -0.037271   0.002807
     4  C    0.000021   0.000003   0.005641  -0.027956
     5  C   -0.000142   0.000243  -0.000320   0.363003
     6  C   -0.000837  -0.003006   0.005406  -0.030859
     7  H    0.000411   0.003584  -0.000092  -0.003605
     8  O    0.000001   0.000000  -0.001872  -0.000042
     9  H    0.000000   0.000000  -0.000178  -0.000009
    10  H    0.000000   0.000000  -0.000116  -0.004238
    11  C    0.364712   0.370658  -0.006831  -0.000141
    12  H   -0.021219  -0.023220   0.003331   0.000002
    13  H    0.479118  -0.022848   0.000381   0.000002
    14  H   -0.022848   0.496716   0.000078  -0.000001
    15  H    0.000381   0.000078   0.482827   0.000011
    16  H    0.000002  -0.000001   0.000011   0.471082
          Atomic-Atomic Spin Densities.
               1          2          3          4          5          6
     1  C   -0.034669  -0.022059  -0.003178  -0.001586  -0.002785   0.022519
     2  C   -0.022059   0.069855   0.033996   0.000572   0.000027  -0.007553
     3  C   -0.003178   0.033996   0.211521   0.042541  -0.005207  -0.006819
     4  C   -0.001586   0.000572   0.042541   0.206108  -0.024786  -0.010061
     5  C   -0.002785   0.000027  -0.005207  -0.024786  -0.084240   0.022183
     6  C    0.022519  -0.007553  -0.006819  -0.010061   0.022183   0.442559
     7  H   -0.000001  -0.000052  -0.000019  -0.000025   0.000276  -0.000868
     8  O    0.000188  -0.004280  -0.060393  -0.006039   0.000157   0.000079
     9  H   -0.000005  -0.000093   0.000712   0.000204  -0.000003   0.000002
    10  H   -0.000064   0.000032  -0.000646   0.000453   0.000428   0.000064
    11  C    0.001221   0.001530   0.000050  -0.000016   0.000017  -0.003314
    12  H    0.000012   0.000157   0.000016   0.000004  -0.000005  -0.000019
    13  H   -0.000017   0.000523   0.000017   0.000008  -0.000015  -0.000826
    14  H    0.000152  -0.000006  -0.000001   0.000001   0.000002  -0.000183
    15  H    0.000377   0.000927  -0.000485   0.000032  -0.000054   0.000069
    16  H    0.000065  -0.000042   0.000070  -0.000107   0.001340  -0.000974
               7          8          9         10         11         12
     1  C   -0.000001   0.000188  -0.000005  -0.000064   0.001221   0.000012
     2  C   -0.000052  -0.004280  -0.000093   0.000032   0.001530   0.000157
     3  C   -0.000019  -0.060393   0.000712  -0.000646   0.000050   0.000016
     4  C   -0.000025  -0.006039   0.000204   0.000453  -0.000016   0.000004
     5  C    0.000276   0.000157  -0.000003   0.000428   0.000017  -0.000005
     6  C   -0.000868   0.000079   0.000002   0.000064  -0.003314  -0.000019
     7  H   -0.018230   0.000000   0.000000   0.000004   0.000187  -0.000004
     8  O    0.000000   0.283366  -0.002067   0.000064  -0.000001   0.000000
     9  H    0.000000  -0.002067  -0.005399  -0.000125   0.000000   0.000000
    10  H    0.000004   0.000064  -0.000125  -0.010041   0.000000   0.000000
    11  C    0.000187  -0.000001   0.000000   0.000000   0.002329  -0.000044
    12  H   -0.000004   0.000000   0.000000   0.000000  -0.000044   0.001410
    13  H   -0.000006   0.000000   0.000000   0.000000   0.001204  -0.000651
    14  H   -0.000011   0.000000   0.000000   0.000000   0.000589   0.000162
    15  H    0.000003  -0.000092   0.000006   0.000004   0.000111  -0.000061
    16  H    0.000088   0.000000   0.000000   0.000113   0.000001   0.000000
              13         14         15         16
     1  C   -0.000017   0.000152   0.000377   0.000065
     2  C    0.000523  -0.000006   0.000927  -0.000042
     3  C    0.000017  -0.000001  -0.000485   0.000070
     4  C    0.000008   0.000001   0.000032  -0.000107
     5  C   -0.000015   0.000002  -0.000054   0.001340
     6  C   -0.000826  -0.000183   0.000069  -0.000974
     7  H   -0.000006  -0.000011   0.000003   0.000088
     8  O    0.000000   0.000000  -0.000092   0.000000
     9  H    0.000000   0.000000   0.000006   0.000000
    10  H    0.000000   0.000000   0.000004   0.000113
    11  C    0.001204   0.000589   0.000111   0.000001
    12  H   -0.000651   0.000162  -0.000061   0.000000
    13  H    0.003726   0.000085   0.000005   0.000000
    14  H    0.000085  -0.000662   0.000000   0.000000
    15  H    0.000005   0.000000  -0.005031  -0.000001
    16  H    0.000000   0.000000  -0.000001   0.001401
 Mulliken charges and spin densities:
               1          2
     1  C    0.162399  -0.039830
     2  C   -0.160188   0.073533
     3  C    0.392966   0.212175
     4  C   -0.134669   0.207304
     5  C   -0.119019  -0.092666
     6  C   -0.090779   0.456858
     7  H    0.228944  -0.018659
     8  O   -0.511631   0.210982
     9  H    0.464101  -0.006769
    10  H    0.217735  -0.009713
    11  C   -0.540694   0.003863
    12  H    0.210682   0.000976
    13  H    0.225954   0.004054
    14  H    0.204334   0.000128
    15  H    0.223521  -0.004190
    16  H    0.226343   0.001955
 Sum of Mulliken charges =   1.00000   1.00000
 Mulliken charges and spin densities with hydrogens summed into heavy atoms:
               1          2
     1  C    0.162399  -0.039830
     2  C    0.063333   0.069343
     3  C    0.392966   0.212175
     4  C    0.083066   0.197591
     5  C    0.107324  -0.090711
     6  C    0.138165   0.438199
     8  O   -0.047530   0.204213
    11  C    0.100277   0.009020
 Electronic spatial extent (au):  <R**2>=            942.6855
 Charge=              1.0000 electrons
 Dipole moment (field-independent basis, Debye):
    X=              1.3857    Y=              1.8147    Z=              0.0723  Tot=              2.2844
 Quadrupole moment (field-independent basis, Debye-Ang):
   XX=            -19.0424   YY=            -34.1572   ZZ=            -46.0386
   XY=              1.7246   XZ=             -0.1583   YZ=             -0.0624
 Traceless Quadrupole moment (field-independent basis, Debye-Ang):
   XX=             14.0370   YY=             -1.0778   ZZ=            -12.9592
   XY=              1.7246   XZ=             -0.1583   YZ=             -0.0624
 Octapole moment (field-independent basis, Debye-Ang**2):
  XXX=             38.3269  YYY=             10.1570  ZZZ=              0.9249  XYY=             -3.4406
  XXY=             -0.4392  XXZ=              0.5685  XZZ=              1.6662  YZZ=             -3.1297
  YYZ=             -0.5338  XYZ=              0.5390
 Hexadecapole moment (field-independent basis, Debye-Ang**3):
 XXXX=           -501.1664 YYYY=           -331.0636 ZZZZ=            -49.8039 XXXY=            -12.2704
 XXXZ=             -0.1329 YYYX=              0.9978 YYYZ=              1.9698 ZZZX=             -2.6891
 ZZZY=             -1.0250 XXYY=           -171.0400 XXZZ=           -128.9822 YYZZ=            -78.0235
 XXYZ=             -2.1372 YYXZ=              1.0419 ZZXY=             -2.5792
 N-N= 3.433849832138D+02 E-N=-1.480056414708D+03  KE= 3.432977461331D+02
                          Isotropic Fermi Contact Couplings
        Atom                 a.u.       MegaHertz       Gauss      10(-4) cm-1
     1  C(13)             -0.00969     -10.89595      -3.88794      -3.63450
     2  C(13)              0.00379       4.26105       1.52045       1.42133
     3  C(13)              0.01216      13.66799       4.87708       4.55915
     4  C(13)              0.01706      19.17998       6.84389       6.39775
     5  C(13)             -0.01650     -18.54863      -6.61861      -6.18716
     6  C(13)              0.04410      49.57729      17.69041      16.53720
     7  H(1)              -0.00680     -30.40314     -10.84860     -10.14139
     8  O(17)              0.04091     -24.80245      -8.85013      -8.27321
     9  H(1)              -0.00356     -15.89483      -5.67167      -5.30194
    10  H(1)              -0.00354     -15.81145      -5.64192      -5.27413
    11  C(13)             -0.00047      -0.53030      -0.18922      -0.17689
    12  H(1)               0.00030       1.35448       0.48331       0.45180
    13  H(1)               0.00238      10.66044       3.80391       3.55594
    14  H(1)               0.00051       2.26405       0.80787       0.75521
    15  H(1)              -0.00157      -7.01679      -2.50376      -2.34055
    16  H(1)               0.00063       2.80287       1.00013       0.93494
 --------------------------------------------------------
       Center         ----  Spin Dipole Couplings  ----
                      3XX-RR        3YY-RR        3ZZ-RR
 --------------------------------------------------------
     1   Atom       -0.001964      0.008571     -0.006607
     2   Atom       -0.042473     -0.043363      0.085836
     3   Atom       -0.137555     -0.133189      0.270744
     4   Atom       -0.117615     -0.109959      0.227574
     5   Atom        0.033272      0.021434     -0.054706
     6   Atom       -0.231388     -0.234575      0.465962
     7   Atom        0.014396     -0.009001     -0.005396
     8   Atom       -0.457242     -0.470733      0.927975
     9   Atom        0.025624     -0.009030     -0.016594
    10   Atom        0.007555     -0.001422     -0.006133
    11   Atom       -0.002063     -0.001661      0.003724
    12   Atom        0.000595      0.001875     -0.002470
    13   Atom        0.001295     -0.000335     -0.000960
    14   Atom        0.004317     -0.001028     -0.003288
    15   Atom       -0.004123      0.009921     -0.005798
    16   Atom        0.002389      0.003477     -0.005866
 --------------------------------------------------------
                        XY            XZ            YZ
 --------------------------------------------------------
     1   Atom        0.001444      0.000965     -0.001108
     2   Atom        0.004565      0.000691     -0.003001
     3   Atom       -0.005005     -0.002360     -0.002558
     4   Atom        0.003737     -0.001968     -0.001459
     5   Atom        0.001898      0.000465      0.000024
     6   Atom       -0.004025     -0.004925     -0.000125
     7   Atom       -0.030547     -0.000070     -0.000195
     8   Atom       -0.000564     -0.005789     -0.004606
     9   Atom        0.030539      0.000200      0.000141
    10   Atom        0.017833      0.000127      0.000094
    11   Atom        0.004635      0.001292     -0.001562
    12   Atom        0.002171      0.000455      0.000676
    13   Atom        0.002938     -0.002433     -0.001347
    14   Atom        0.002882      0.001324      0.000383
    15   Atom        0.007262      0.000119      0.000246
    16   Atom        0.004526      0.000064      0.000067
 --------------------------------------------------------


 ---------------------------------------------------------------------------------
              Anisotropic Spin Dipole Couplings in Principal Axis System
 ---------------------------------------------------------------------------------

       Atom             a.u.   MegaHertz   Gauss  10(-4) cm-1        Axes

              Baa    -0.0069    -0.929    -0.331    -0.310 -0.2154  0.0896  0.9724
     1 C(13)  Bbb    -0.0019    -0.255    -0.091    -0.085  0.9683 -0.1098  0.2246
              Bcc     0.0088     1.184     0.423     0.395  0.1269  0.9899 -0.0631
 
              Baa    -0.0476    -6.382    -2.277    -2.129 -0.6693  0.7427  0.0202
     2 C(13)  Bbb    -0.0383    -5.146    -1.836    -1.717  0.7429  0.6692  0.0120
              Bcc     0.0859    11.528     4.113     3.845  0.0046 -0.0230  0.9997
 
              Baa    -0.1409   -18.902    -6.745    -6.305  0.8362  0.5483  0.0082
     3 C(13)  Bbb    -0.1299   -17.433    -6.221    -5.815 -0.5483  0.8363  0.0021
              Bcc     0.2708    36.335    12.965    12.120 -0.0057 -0.0063  1.0000
 
              Baa    -0.1191   -15.988    -5.705    -5.333  0.9264 -0.3764  0.0037
     4 C(13)  Bbb    -0.1085   -14.553    -5.193    -4.854  0.3764  0.9264  0.0062
              Bcc     0.2276    30.541    10.898    10.187 -0.0057 -0.0044  1.0000
 
              Baa    -0.0547    -7.341    -2.620    -2.449 -0.0053 -0.0002  1.0000
     5 C(13)  Bbb     0.0211     2.836     1.012     0.946 -0.1545  0.9880 -0.0006
              Bcc     0.0336     4.505     1.607     1.503  0.9880  0.1545  0.0052
 
              Baa    -0.2373   -31.846   -11.364   -10.623  0.5637  0.8260  0.0041
     6 C(13)  Bbb    -0.2287   -30.686   -10.950   -10.236  0.8260 -0.5637  0.0058
              Bcc     0.4660    62.532    22.313    20.859 -0.0071 -0.0001  1.0000
 
              Baa    -0.0300   -16.014    -5.714    -5.342  0.5667  0.8239  0.0081
     7 H(1)   Bbb    -0.0054    -2.878    -1.027    -0.960 -0.0057 -0.0060  1.0000
              Bcc     0.0354    18.892     6.741     6.302  0.8239 -0.5667  0.0013
 
              Baa    -0.4708    34.065    12.155    11.363  0.0431  0.9991  0.0035
     8 O(17)  Bbb    -0.4572    33.086    11.806    11.036  0.9991 -0.0431  0.0040
              Bcc     0.9280   -67.150   -23.961   -22.399 -0.0042 -0.0033  1.0000
 
              Baa    -0.0268   -14.307    -5.105    -4.772 -0.5032  0.8641 -0.0021
     9 H(1)   Bbb    -0.0166    -8.854    -3.159    -2.953 -0.0046 -0.0002  1.0000
              Bcc     0.0434    23.161     8.265     7.726  0.8641  0.5033  0.0041
 
              Baa    -0.0153    -8.175    -2.917    -2.727 -0.6148  0.7887  0.0004
    10 H(1)   Bbb    -0.0061    -3.273    -1.168    -1.092 -0.0043 -0.0038  1.0000
              Bcc     0.0215    11.448     4.085     3.819  0.7887  0.6148  0.0057
 
              Baa    -0.0069    -0.924    -0.330    -0.308  0.7064 -0.6828 -0.1866
    11 C(13)  Bbb     0.0027     0.368     0.131     0.123  0.7076  0.6877  0.1625
              Bcc     0.0041     0.556     0.198     0.186  0.0174 -0.2468  0.9689
 
              Baa    -0.0026    -1.376    -0.491    -0.459 -0.0587 -0.1216  0.9908
    12 H(1)   Bbb    -0.0010    -0.548    -0.196    -0.183  0.8034 -0.5950 -0.0254
              Bcc     0.0036     1.924     0.687     0.642  0.5926  0.7945  0.1327
 
              Baa    -0.0028    -1.500    -0.535    -0.500  0.6796 -0.5304  0.5068
    13 H(1)   Bbb    -0.0020    -1.082    -0.386    -0.361 -0.0395  0.6634  0.7472
              Bcc     0.0048     2.582     0.921     0.861  0.7325  0.5278 -0.4299
 
              Baa    -0.0035    -1.878    -0.670    -0.626 -0.1915  0.0710  0.9789
    14 H(1)   Bbb    -0.0023    -1.207    -0.431    -0.402 -0.3737  0.9170 -0.1396
              Bcc     0.0058     3.084     1.101     1.029  0.9076  0.3926  0.1490
 
              Baa    -0.0072    -3.843    -1.371    -1.282  0.9206 -0.3903 -0.0097
    15 H(1)   Bbb    -0.0058    -3.096    -1.105    -1.033  0.0033 -0.0172  0.9998
              Bcc     0.0130     6.939     2.476     2.315  0.3904  0.9205  0.0145
 
              Baa    -0.0059    -3.130    -1.117    -1.044 -0.0053 -0.0046  1.0000
    16 H(1)   Bbb    -0.0016    -0.867    -0.309    -0.289  0.7481 -0.6636  0.0009
              Bcc     0.0075     3.997     1.426     1.333  0.6635  0.7481  0.0069
 

 ---------------------------------------------------------------------------------

 No NMR shielding tensors so no spin-rotation constants.
 Leave Link  601 at Wed Dec 03 16:25:37 2025, MaxMem=   104857600 cpu:               0.0 elap:               0.3
 (Enter D:\Gaussian\G16W\l9999.exe)
 1|1|UNPC-PC-20250526LCFF|SP|UB3LYP|6-31G(d)|C7H8O1(1+,2)|ADMINISTRATOR
 |03-Dec-2025|0||#P B3LYP/6-31G* SCF=conver=7 out=wfn||Generated by Mul
 tiwfn (http://sobereva.com/multiwfn)||1,2|C,0,-1.204866,-0.215361,-0.0
 12141|C,0,-0.039212,-0.981051,-0.009745|C,0,1.215115,-0.369422,0.00070
 9|C,0,1.31615,1.022517,0.007532|C,0,0.153298,1.788846,0.002507|C,0,-1.
 097863,1.181043,-0.008487|H,0,-1.995342,1.789831,-0.016244|O,0,2.31041
 3,-1.188481,0.001268|H,0,3.107101,-0.648281,0.003601|H,0,2.291697,1.50
 0039,0.012563|C,0,-2.558231,-0.88603,0.009609|H,0,-2.528704,-1.860654,
 -0.482736|H,0,-2.896883,-1.048169,1.03876|H,0,-3.313034,-0.274408,-0.4
 90471|H,0,-0.083495,-2.064393,-0.018605|H,0,0.228999,2.87063,0.003079|
 |Version=EM64W-G16RevA.03|State=2-A|HF=-346.4877465|S2=0.763897|S2-1=0
 .|S2A=0.750108|RMSD=2.079e-008|Dipole=0.5451795,0.7139713,0.0284255|Qu
 adrupole=10.4361796,-0.8013081,-9.6348715,1.28219,-0.1176734,-0.046387
 8|PG=C01 [X(C7H8O1)]||@

 Writing a WFN file to "N-1.wfn"


 In the race for quality, there is no finish line.
                               -- David T. Kearns
 Job cpu time:       0 days  0 hours  0 minutes 31.0 seconds.
 Elapsed time:       0 days  0 hours  0 minutes 30.7 seconds.
 File lengths (MBytes):  RWF=     15 Int=      0 D2E=      0 Chk=      2 Scr=      1
 Normal termination of Gaussian 16 at Wed Dec 03 16:25:38 2025.
