 Generated by Multiwfn (http://sobereva.com/multiwfn)
GAUSSIAN             57 MOL ORBITALS    256 PRIMITIVES       16 NUCLEI
  C    1    (CENTRE  1)  -2.27686648 -0.40697284 -0.02294300  CHARGE =  6.0
  C    2    (CENTRE  2)  -0.07409994 -1.85391766 -0.01841522  CHARGE =  6.0
  C    3    (CENTRE  3)   2.29623478 -0.69810681  0.00133998  CHARGE =  6.0
  C    4    (CENTRE  4)   2.48716377  1.93227664  0.01423358  CHARGE =  6.0
  C    5    (CENTRE  5)   0.28969225  3.38042900  0.00473771  CHARGE =  6.0
  C    6    (CENTRE  6)  -2.07465960  2.23184824 -0.01603794  CHARGE =  6.0
  H    7    (CENTRE  7)  -3.77064889  3.38229116 -0.03069655  CHARGE =  1.0
  O    8    (CENTRE  8)   4.36604773 -2.24590440  0.00239634  CHARGE =  8.0
  H    9    (CENTRE  9)   5.87157005 -1.22507464  0.00680507  CHARGE =  1.0
  H   10    (CENTRE 10)   4.33068060  2.83466208  0.02374079  CHARGE =  1.0
  C   11    (CENTRE 11)  -4.83435592 -1.67435307  0.01815854  CHARGE =  6.0
  H   12    (CENTRE 12)  -4.77855833 -3.51612552 -0.91223867  CHARGE =  1.0
  H   13    (CENTRE 13)  -5.47431551 -1.98075125  1.96297207  CHARGE =  1.0
  H   14    (CENTRE 14)  -6.26072664 -0.51855473 -0.92685570  CHARGE =  1.0
  H   15    (CENTRE 15)  -0.15778308 -3.90113732 -0.03515819  CHARGE =  1.0
  H   16    (CENTRE 16)   0.43274680  5.42470445  0.00581863  CHARGE =  1.0
CENTRE ASSIGNMENTS    1  1  1  1  1  1  1  1  1  1  1  1  1  1  1  1  1  1  1  1
CENTRE ASSIGNMENTS    1  1  1  1  1  1  1  1  2  2  2  2  2  2  2  2  2  2  2  2
CENTRE ASSIGNMENTS    2  2  2  2  2  2  2  2  2  2  2  2  2  2  2  2  3  3  3  3
CENTRE ASSIGNMENTS    3  3  3  3  3  3  3  3  3  3  3  3  3  3  3  3  3  3  3  3
CENTRE ASSIGNMENTS    3  3  3  3  4  4  4  4  4  4  4  4  4  4  4  4  4  4  4  4
CENTRE ASSIGNMENTS    4  4  4  4  4  4  4  4  4  4  4  4  5  5  5  5  5  5  5  5
CENTRE ASSIGNMENTS    5  5  5  5  5  5  5  5  5  5  5  5  5  5  5  5  5  5  5  5
CENTRE ASSIGNMENTS    6  6  6  6  6  6  6  6  6  6  6  6  6  6  6  6  6  6  6  6
CENTRE ASSIGNMENTS    6  6  6  6  6  6  6  6  7  7  7  7  8  8  8  8  8  8  8  8
CENTRE ASSIGNMENTS    8  8  8  8  8  8  8  8  8  8  8  8  8  8  8  8  8  8  8  8
CENTRE ASSIGNMENTS    9  9  9  9 10 10 10 10 11 11 11 11 11 11 11 11 11 11 11 11
CENTRE ASSIGNMENTS   11 11 11 11 11 11 11 11 11 11 11 11 11 11 11 11 12 12 12 12
CENTRE ASSIGNMENTS   13 13 13 13 14 14 14 14 15 15 15 15 16 16 16 16
TYPE ASSIGNMENTS      1  1  1  1  1  1  1  1  1  2  2  2  3  3  3  4  4  4  1  2
TYPE ASSIGNMENTS      3  4  5  6  7  8  9 10  1  1  1  1  1  1  1  1  1  2  2  2
TYPE ASSIGNMENTS      3  3  3  4  4  4  1  2  3  4  5  6  7  8  9 10  1  1  1  1
TYPE ASSIGNMENTS      1  1  1  1  1  2  2  2  3  3  3  4  4  4  1  2  3  4  5  6
TYPE ASSIGNMENTS      7  8  9 10  1  1  1  1  1  1  1  1  1  2  2  2  3  3  3  4
TYPE ASSIGNMENTS      4  4  1  2  3  4  5  6  7  8  9 10  1  1  1  1  1  1  1  1
TYPE ASSIGNMENTS      1  2  2  2  3  3  3  4  4  4  1  2  3  4  5  6  7  8  9 10
TYPE ASSIGNMENTS      1  1  1  1  1  1  1  1  1  2  2  2  3  3  3  4  4  4  1  2
TYPE ASSIGNMENTS      3  4  5  6  7  8  9 10  1  1  1  1  1  1  1  1  1  1  1  1
TYPE ASSIGNMENTS      1  2  2  2  3  3  3  4  4  4  1  2  3  4  5  6  7  8  9 10
TYPE ASSIGNMENTS      1  1  1  1  1  1  1  1  1  1  1  1  1  1  1  1  1  2  2  2
TYPE ASSIGNMENTS      3  3  3  4  4  4  1  2  3  4  5  6  7  8  9 10  1  1  1  1
TYPE ASSIGNMENTS      1  1  1  1  1  1  1  1  1  1  1  1  1  1  1  1
EXPONENTS  0.3047525D+04 0.4573695D+03 0.1039487D+03 0.2921016D+02 0.9286663D+01
EXPONENTS  0.3163927D+01 0.7868272D+01 0.1881289D+01 0.5442493D+00 0.7868272D+01
EXPONENTS  0.1881289D+01 0.5442493D+00 0.7868272D+01 0.1881289D+01 0.5442493D+00
EXPONENTS  0.7868272D+01 0.1881289D+01 0.5442493D+00 0.1687145D+00 0.1687145D+00
EXPONENTS  0.1687145D+00 0.1687145D+00 0.8000000D+00 0.8000000D+00 0.8000000D+00
EXPONENTS  0.8000000D+00 0.8000000D+00 0.8000000D+00 0.3047525D+04 0.4573695D+03
EXPONENTS  0.1039487D+03 0.2921016D+02 0.9286663D+01 0.3163927D+01 0.7868272D+01
EXPONENTS  0.1881289D+01 0.5442493D+00 0.7868272D+01 0.1881289D+01 0.5442493D+00
EXPONENTS  0.7868272D+01 0.1881289D+01 0.5442493D+00 0.7868272D+01 0.1881289D+01
EXPONENTS  0.5442493D+00 0.1687145D+00 0.1687145D+00 0.1687145D+00 0.1687145D+00
EXPONENTS  0.8000000D+00 0.8000000D+00 0.8000000D+00 0.8000000D+00 0.8000000D+00
EXPONENTS  0.8000000D+00 0.3047525D+04 0.4573695D+03 0.1039487D+03 0.2921016D+02
EXPONENTS  0.9286663D+01 0.3163927D+01 0.7868272D+01 0.1881289D+01 0.5442493D+00
EXPONENTS  0.7868272D+01 0.1881289D+01 0.5442493D+00 0.7868272D+01 0.1881289D+01
EXPONENTS  0.5442493D+00 0.7868272D+01 0.1881289D+01 0.5442493D+00 0.1687145D+00
EXPONENTS  0.1687145D+00 0.1687145D+00 0.1687145D+00 0.8000000D+00 0.8000000D+00
EXPONENTS  0.8000000D+00 0.8000000D+00 0.8000000D+00 0.8000000D+00 0.3047525D+04
EXPONENTS  0.4573695D+03 0.1039487D+03 0.2921016D+02 0.9286663D+01 0.3163927D+01
EXPONENTS  0.7868272D+01 0.1881289D+01 0.5442493D+00 0.7868272D+01 0.1881289D+01
EXPONENTS  0.5442493D+00 0.7868272D+01 0.1881289D+01 0.5442493D+00 0.7868272D+01
EXPONENTS  0.1881289D+01 0.5442493D+00 0.1687145D+00 0.1687145D+00 0.1687145D+00
EXPONENTS  0.1687145D+00 0.8000000D+00 0.8000000D+00 0.8000000D+00 0.8000000D+00
EXPONENTS  0.8000000D+00 0.8000000D+00 0.3047525D+04 0.4573695D+03 0.1039487D+03
EXPONENTS  0.2921016D+02 0.9286663D+01 0.3163927D+01 0.7868272D+01 0.1881289D+01
EXPONENTS  0.5442493D+00 0.7868272D+01 0.1881289D+01 0.5442493D+00 0.7868272D+01
EXPONENTS  0.1881289D+01 0.5442493D+00 0.7868272D+01 0.1881289D+01 0.5442493D+00
EXPONENTS  0.1687145D+00 0.1687145D+00 0.1687145D+00 0.1687145D+00 0.8000000D+00
EXPONENTS  0.8000000D+00 0.8000000D+00 0.8000000D+00 0.8000000D+00 0.8000000D+00
EXPONENTS  0.3047525D+04 0.4573695D+03 0.1039487D+03 0.2921016D+02 0.9286663D+01
EXPONENTS  0.3163927D+01 0.7868272D+01 0.1881289D+01 0.5442493D+00 0.7868272D+01
EXPONENTS  0.1881289D+01 0.5442493D+00 0.7868272D+01 0.1881289D+01 0.5442493D+00
EXPONENTS  0.7868272D+01 0.1881289D+01 0.5442493D+00 0.1687145D+00 0.1687145D+00
EXPONENTS  0.1687145D+00 0.1687145D+00 0.8000000D+00 0.8000000D+00 0.8000000D+00
EXPONENTS  0.8000000D+00 0.8000000D+00 0.8000000D+00 0.1873114D+02 0.2825394D+01
EXPONENTS  0.6401217D+00 0.1612778D+00 0.5484672D+04 0.8252349D+03 0.1880470D+03
EXPONENTS  0.5296450D+02 0.1689757D+02 0.5799635D+01 0.1553962D+02 0.3599934D+01
EXPONENTS  0.1013762D+01 0.1553962D+02 0.3599934D+01 0.1013762D+01 0.1553962D+02
EXPONENTS  0.3599934D+01 0.1013762D+01 0.1553962D+02 0.3599934D+01 0.1013762D+01
EXPONENTS  0.2700058D+00 0.2700058D+00 0.2700058D+00 0.2700058D+00 0.8000000D+00
EXPONENTS  0.8000000D+00 0.8000000D+00 0.8000000D+00 0.8000000D+00 0.8000000D+00
EXPONENTS  0.1873114D+02 0.2825394D+01 0.6401217D+00 0.1612778D+00 0.1873114D+02
EXPONENTS  0.2825394D+01 0.6401217D+00 0.1612778D+00 0.3047525D+04 0.4573695D+03
EXPONENTS  0.1039487D+03 0.2921016D+02 0.9286663D+01 0.3163927D+01 0.7868272D+01
EXPONENTS  0.1881289D+01 0.5442493D+00 0.7868272D+01 0.1881289D+01 0.5442493D+00
EXPONENTS  0.7868272D+01 0.1881289D+01 0.5442493D+00 0.7868272D+01 0.1881289D+01
EXPONENTS  0.5442493D+00 0.1687145D+00 0.1687145D+00 0.1687145D+00 0.1687145D+00
EXPONENTS  0.8000000D+00 0.8000000D+00 0.8000000D+00 0.8000000D+00 0.8000000D+00
EXPONENTS  0.8000000D+00 0.1873114D+02 0.2825394D+01 0.6401217D+00 0.1612778D+00
EXPONENTS  0.1873114D+02 0.2825394D+01 0.6401217D+00 0.1612778D+00 0.1873114D+02
EXPONENTS  0.2825394D+01 0.6401217D+00 0.1612778D+00 0.1873114D+02 0.2825394D+01
EXPONENTS  0.6401217D+00 0.1612778D+00 0.1873114D+02 0.2825394D+01 0.6401217D+00
EXPONENTS  0.1612778D+00
MO    1     MO 0.0        OCC NO =    1.0000000  ORB. ENERGY =  -19.425338
  0.40537200D-05  0.74783219D-05  0.12072330D-04  0.15714587D-04  0.13409286D-04
  0.46299041D-05 -0.48222535D-05 -0.22225722D-05  0.62323245D-05  0.93331597D-04
  0.71560749D-04  0.35713829D-04 -0.11584422D-04 -0.88822004D-05 -0.44328405D-05
  0.59838764D-06  0.45880569D-06  0.22897620D-06  0.20770463D-03 -0.95891524D-05
  0.55171153D-04  0.61382149D-06  0.14124677D-04  0.43061699D-04  0.34346787D-04
  0.43549312D-06 -0.17321220D-05 -0.59218533D-06  0.30553544D-05  0.56365324D-05
  0.90991109D-05  0.11844339D-04  0.10106796D-04  0.34896337D-05 -0.53879313D-04
 -0.24832926D-04  0.69634117D-04  0.25780978D-04  0.19767219D-04  0.98652277D-05
  0.95488101D-05  0.73214220D-05  0.36539027D-05  0.51199824D-06  0.39256778D-06
  0.19591883D-06 -0.13406632D-03 -0.12723865D-04 -0.21786552D-03 -0.15800222D-05
 -0.88725705D-04 -0.79636181D-04  0.21195068D-04 -0.52046930D-04 -0.13809678D-05
 -0.17064749D-05 -0.24009103D-04 -0.44292106D-04 -0.71501193D-04 -0.93073308D-04
 -0.79419623D-04 -0.27421687D-04 -0.64382451D-04 -0.29673813D-04  0.83208468D-04
  0.42032826D-03  0.32228105D-03  0.16084083D-03 -0.40661090D-03 -0.31176345D-03
 -0.15559181D-03  0.91601384D-07  0.70234132D-07  0.35051754D-07 -0.51037094D-04
 -0.49714852D-03  0.48822405D-03  0.70336390D-08 -0.67865240D-04  0.25973868D-04
 -0.89036047D-04  0.48516023D-06  0.32186785D-06  0.63708214D-06  0.15033802D-04
  0.27734428D-04  0.44771967D-04  0.58279798D-04  0.49730257D-04  0.17170663D-04
 -0.93188057D-04 -0.42950290D-04  0.12043710D-03 -0.58224388D-04 -0.44642768D-04
 -0.22279870D-04  0.94542121D-04  0.72488902D-04  0.36177042D-04  0.71390646D-06
  0.54737819D-06  0.27318008D-06 -0.57602247D-03  0.32768719D-03  0.74172398D-04
  0.18968661D-05 -0.72316434D-04 -0.79543435D-04  0.66869101D-04  0.38474921D-04
 -0.20035891D-05 -0.82722469D-06 -0.37040508D-05 -0.68332504D-05 -0.11030985D-04
 -0.14359065D-04 -0.12252616D-04 -0.42305339D-05  0.24199923D-04  0.11153722D-04
 -0.31276202D-04  0.81905776D-04  0.62800154D-04  0.31341678D-04 -0.67716343D-04
 -0.51920597D-04 -0.25912017D-04  0.45052222D-06  0.34543186D-06  0.17239471D-06
  0.36690865D-03  0.66267153D-04 -0.13402457D-03  0.13129671D-06  0.57284258D-04
  0.14704328D-05 -0.65455334D-06 -0.50903424D-04  0.10366288D-05 -0.43726913D-06
  0.92372048D-05  0.17040839D-04  0.27509198D-04  0.35808802D-04  0.30555716D-04
  0.10550154D-04 -0.36285131D-04 -0.16723784D-04  0.46895235D-04  0.17507458D-04
  0.13423608D-04  0.66993214D-05 -0.43912217D-04 -0.33669103D-04 -0.16803242D-04
 -0.69366103D-06 -0.53185528D-06 -0.26543306D-06 -0.18935038D-03 -0.59009197D-04
  0.84723119D-04 -0.20114697D-06 -0.33070012D-06 -0.12382818D-04  0.47343424D-04
 -0.54099655D-04 -0.11456231D-05 -0.57416506D-06 -0.47059062D-05 -0.79821077D-05
 -0.90873475D-05 -0.28533967D-04  0.82559594D+00  0.15195372D+01  0.24588981D+01
  0.32322904D+01  0.27723167D+01  0.94790216D+00 -0.15898589D-01 -0.70939194D-02
  0.20948439D-01  0.42459165D-03  0.32712498D-03  0.14362549D-03  0.33144066D-02
  0.25535716D-02  0.11211555D-02  0.12458949D-04  0.95989482D-05  0.42144553D-05
  0.38488536D-02 -0.33055654D-03  0.14645976D-03 -0.61239355D-06 -0.92656418D-02
 -0.93578505D-02 -0.92235046D-02 -0.11659628D-03 -0.74151578D-06 -0.12053261D-05
  0.91967121D-04  0.15599364D-03  0.17759325D-03 -0.19119666D-03 -0.23148685D-04
 -0.39264552D-04 -0.44701305D-04 -0.83674225D-04  0.61803469D-05  0.11401533D-04
  0.18405610D-04  0.23958635D-04  0.20443947D-04  0.70588036D-05 -0.21697917D-04
 -0.10000550D-04  0.28042587D-04 -0.38137548D-05 -0.29241453D-05 -0.14593535D-05
 -0.10313135D-04 -0.79074580D-05 -0.39463757D-05 -0.25360730D-06 -0.19444999D-06
 -0.97044175D-07 -0.64444112D-04 -0.14841210D-04 -0.16839023D-04  0.24558015D-06
  0.10236904D-04  0.67975815D-05  0.23621191D-04 -0.32253620D-04 -0.18658688D-05
  0.46623988D-05  0.20188770D-05  0.34243975D-05  0.38985555D-05  0.23402999D-05
  0.26393131D-05  0.44767746D-05  0.50966496D-05  0.44154154D-05  0.35030245D-05
  0.59417925D-05  0.67645208D-05  0.60230001D-05 -0.25162793D-05 -0.42680859D-05
 -0.48590650D-05 -0.11971425D-03  0.18763232D-05  0.31825993D-05  0.36232769D-05
  0.19418846D-04
MO    2     MO 0.0        OCC NO =    1.0000000  ORB. ENERGY =  -10.493024
  0.33976681D-04  0.62680342D-04  0.10118551D-03  0.13171346D-03  0.11239134D-03
  0.38806028D-04 -0.97797509D-04 -0.45074782D-04  0.12639440D-03 -0.11995369D-03
 -0.91972882D-04 -0.45900914D-04  0.77812795D-05  0.59661915D-05  0.29775477D-05
 -0.90984825D-08 -0.69761393D-08 -0.34815824D-08 -0.14228138D-02 -0.56960940D-03
 -0.85099825D-04 -0.57337378D-05  0.27118090D-04  0.24388776D-04  0.51736305D-04
 -0.33184223D-04  0.47110575D-05  0.39696785D-05  0.13709292D-02  0.25290966D-02
  0.40827462D-02  0.53145224D-02  0.45348916D-02  0.15657891D-02  0.30446789D-03
  0.14032897D-03 -0.39349708D-03 -0.25615779D-03 -0.19640555D-03 -0.98020134D-04
 -0.25424344D-03 -0.19493775D-03 -0.97287597D-04 -0.61736731D-06 -0.47335809D-06
 -0.23623886D-06  0.23814769D-02  0.14244244D-03  0.11320188D-02  0.69610308D-05
 -0.44824685D-03 -0.18994980D-03 -0.36836190D-03  0.77904992D-04 -0.10181739D-05
  0.30667898D-05  0.53253485D+00  0.98242282D+00  0.15859350D+01  0.20644162D+01
  0.17615701D+01  0.60822782D+00 -0.19910617D-01 -0.91767851D-02  0.25732663D-01
  0.84656912D-03  0.64909550D-03  0.32394415D-03 -0.42857788D-03 -0.32860634D-03
 -0.16399759D-03  0.14876003D-06  0.11405975D-06  0.56923811D-07 -0.37892754D-02
  0.13966123D-02 -0.10648891D-02  0.30989917D-05 -0.98556660D-02 -0.99535331D-02
 -0.10438510D-01 -0.69345658D-03  0.27245915D-07  0.14180407D-05  0.17815819D-02
  0.32866707D-02  0.53057056D-02  0.69064522D-02  0.58932882D-02  0.20348108D-02
  0.26717190D-03  0.12313928D-03 -0.34529541D-03  0.17039239D-03  0.13064608D-03
  0.65201548D-04  0.34472649D-03  0.26431440D-03  0.13191141D-03  0.10638604D-05
  0.81570067D-06  0.40709180D-06  0.23511539D-02 -0.93810172D-03 -0.68580128D-03
 -0.77247323D-05 -0.26470440D-03 -0.48956946D-03 -0.35999947D-03  0.23610340D-03
  0.31691098D-05  0.88461593D-06  0.25986244D-04  0.47939546D-04  0.77389291D-04
  0.10073786D-03  0.85959800D-04  0.29679853D-04 -0.67539672D-04 -0.31128973D-04
  0.87288890D-04 -0.11977744D-03 -0.91837744D-04 -0.45833471D-04  0.12947135D-03
  0.99270417D-04  0.49542896D-04  0.55516910D-06  0.42566845D-06  0.21243839D-06
 -0.13368739D-02  0.34078752D-04  0.56287458D-03  0.85697930D-06  0.28684380D-04
  0.66752412D-04  0.27787218D-04 -0.63961397D-04  0.73398703D-06  0.61988703D-06
 -0.67776256D-04 -0.12503396D-03 -0.20184358D-03 -0.26274036D-03 -0.22419683D-03
 -0.77409777D-04  0.14116513D-03  0.65062880D-04 -0.18244311D-03 -0.76661453D-04
 -0.58779139D-04 -0.29334910D-04  0.54614110D-04  0.41874636D-04  0.20898378D-04
 -0.36042335D-05 -0.27634976D-05 -0.13791790D-05  0.99485276D-03  0.48383584D-03
 -0.25062250D-03  0.51188665D-05 -0.95280877D-05 -0.36202498D-07 -0.14943000D-03
  0.65802102D-04  0.36322440D-05 -0.29119825D-07  0.25470269D-04  0.43202397D-04
  0.49184402D-04  0.16394923D-03  0.10801291D-03  0.19880142D-03  0.32169822D-03
  0.42288131D-03  0.36270284D-03  0.12401426D-03 -0.64038114D-03 -0.28573682D-03
  0.84378464D-03 -0.28389503D-04 -0.21872582D-04 -0.96032415D-05 -0.45793080D-04
 -0.35281099D-04 -0.15490303D-04  0.22448735D-05  0.17295540D-05  0.75936737D-06
 -0.15501654D-02  0.60346649D-03 -0.43431522D-03 -0.86363899D-06 -0.74649368D-04
  0.32052710D-03  0.90292504D-03  0.11171255D-02 -0.86820080D-06 -0.20502754D-05
  0.36396705D-04  0.61735700D-04  0.70283913D-04 -0.57357199D-04  0.34843335D-04
  0.59100891D-04  0.67284275D-04  0.35379500D-03 -0.20303926D-04 -0.37456779D-04
 -0.60466856D-04 -0.78709880D-04 -0.67163283D-04 -0.23189868D-04  0.56997480D-04
  0.26270086D-04 -0.73664065D-04 -0.29139871D-04 -0.22342605D-04 -0.11150526D-04
 -0.96703928D-05 -0.74146438D-05 -0.37004269D-05 -0.60910405D-05 -0.46702235D-05
 -0.23307689D-05 -0.16183330D-04  0.29466437D-04 -0.39755112D-04  0.95880776D-05
  0.26280042D-04 -0.80583732D-04 -0.61261913D-04  0.37786888D-05 -0.14631971D-04
  0.29134424D-04 -0.10129768D-04 -0.17182004D-04 -0.19561105D-04 -0.12468947D-04
 -0.68842886D-05 -0.11677056D-04 -0.13293916D-04 -0.11695711D-04 -0.72675255D-06
 -0.12327099D-05 -0.14033966D-05  0.15667945D-04  0.38090080D-04  0.64607984D-04
  0.73553907D-04  0.33027051D-03 -0.16014815D-04 -0.27164157D-04 -0.30925432D-04
 -0.11279887D-03
MO    3     MO 0.0        OCC NO =    1.0000000  ORB. ENERGY =  -10.421249
  0.12939868D-01  0.23871530D-01  0.38536051D-01  0.50162488D-01  0.42803742D-01
  0.14779104D-01 -0.22866607D-03 -0.10539198D-03  0.29553012D-03 -0.12126847D-03
 -0.92980969D-04 -0.46404020D-04 -0.44781998D-03 -0.34335996D-03 -0.17136068D-03
  0.93395230D-06  0.71609538D-06  0.35738178D-06  0.16789555D-02  0.58593883D-03
  0.63714030D-03  0.14478862D-05 -0.51392713D-03 -0.70024872D-03 -0.49027788D-03
  0.50802046D-04  0.21542754D-05  0.25838195D-05  0.14322087D-03  0.26421454D-03
  0.42652419D-03  0.55520776D-03  0.47375979D-03  0.16357787D-03 -0.36492112D-04
 -0.16819181D-04  0.47162740D-04  0.42973696D-04  0.32949504D-04  0.16444112D-04
 -0.45335202D-04 -0.34760157D-04 -0.17347755D-04  0.29755758D-05  0.22814828D-05
  0.11386198D-05 -0.80249052D-03 -0.41157755D-04 -0.44246989D-03 -0.28203717D-05
  0.62556899D-04  0.46610018D-04  0.24817765D-04 -0.44966027D-04 -0.15498153D-05
  0.58830082D-06 -0.11758272D-06 -0.21691715D-06 -0.35017154D-06 -0.45581931D-06
 -0.38895144D-06 -0.13429558D-06  0.11377659D-03  0.52439524D-04 -0.14704590D-03
  0.22069495D-04  0.16921489D-04  0.84450090D-05 -0.14486883D-04 -0.11107623D-04
 -0.55434823D-05 -0.33891822D-06 -0.25986100D-06 -0.12968885D-06  0.80720615D-03
 -0.34913639D-03  0.25899179D-03 -0.39503453D-06 -0.41720599D-04 -0.20148146D-04
 -0.11324322D-03  0.49714035D-04  0.95518855D-06  0.89278669D-06  0.40376322D-03
  0.74486431D-03  0.12024419D-02  0.15652221D-02  0.13356069D-02  0.46115296D-03
 -0.65539226D-04 -0.30206970D-04  0.84703496D-04  0.64821566D-04  0.49701065D-04
  0.24804315D-04 -0.31424213D-04 -0.24094093D-04 -0.12024641D-04  0.93944175D-06
  0.72030435D-06  0.35948235D-06 -0.91079680D-03  0.39682614D-03  0.18670200D-03
  0.28411005D-05  0.73065758D-04  0.21206011D-04  0.34918744D-04 -0.25793427D-04
  0.35400440D-06 -0.14583616D-06  0.81887650D-02  0.15106672D-01  0.24386853D-01
  0.31744437D-01  0.27087586D-01  0.93526924D-02 -0.33881694D-04 -0.15616042D-04
  0.43789011D-04  0.33132371D-03  0.25403801D-03  0.12678277D-03  0.24105577D-03
  0.18482628D-03  0.92241265D-04  0.27132311D-05  0.20803335D-05  0.10382322D-05
  0.17714551D-02 -0.26376102D-03 -0.69254519D-03 -0.39472570D-05 -0.63339381D-03
 -0.41038803D-03 -0.41656500D-03 -0.12375320D-03 -0.32659507D-05  0.41927492D-06
  0.53219956D+00  0.98180427D+00  0.15849365D+01  0.20631164D+01  0.17604610D+01
  0.60784487D+00 -0.20269917D-01 -0.93423861D-02  0.26197026D-01  0.50827131D-03
  0.38971020D-03  0.19449270D-03 -0.28692236D-03 -0.21999387D-03 -0.10979236D-03
 -0.11930218D-05 -0.91473341D-06 -0.45651608D-06 -0.38104267D-02 -0.72273337D-03
  0.52855664D-03 -0.29974209D-05 -0.10728681D-01 -0.10717812D-01 -0.10687751D-01
  0.18222772D-03  0.19730613D-05 -0.11144872D-05 -0.91935672D-04 -0.15594030D-03
 -0.17753252D-03  0.96712717D-04 -0.25757788D-04 -0.47408080D-04 -0.76715223D-04
 -0.10084431D-03 -0.86493576D-04 -0.29573623D-04  0.88271592D-04  0.39386612D-04
 -0.11630919D-03  0.36314845D-04  0.27978630D-04  0.12284126D-04 -0.27015707D-05
 -0.20814146D-05 -0.91385310D-06  0.12891393D-06  0.99321235D-07  0.43607372D-07
  0.27708975D-03 -0.56700840D-04  0.31942215D-04 -0.49611148D-07 -0.86934303D-04
 -0.91370267D-04 -0.88191504D-04 -0.55105979D-05  0.47315645D-07 -0.72159539D-07
 -0.10328851D-05 -0.17519685D-05 -0.19945543D-05  0.10794307D-04 -0.18250400D-04
 -0.30956132D-04 -0.35242463D-04 -0.10188592D-03  0.32436968D-05  0.59839872D-05
  0.96600107D-05  0.12574464D-04  0.10729813D-04  0.37047465D-05  0.46890253D-04
  0.21611675D-04 -0.60601392D-04  0.35621064D-04  0.27311973D-04  0.13630589D-04
 -0.63562332D-05 -0.48735564D-05 -0.24322462D-05 -0.27951797D-05 -0.21431665D-05
 -0.10695903D-05  0.27850555D-03  0.10681231D-03  0.18158201D-04 -0.31309087D-05
  0.62185830D-04  0.30091174D-04 -0.26464809D-04  0.89775925D-05 -0.11320972D-04
  0.37057537D-05 -0.58166060D-05 -0.98660646D-05 -0.11232166D-04  0.82551965D-06
 -0.73912084D-05 -0.12536888D-04 -0.14272804D-04  0.79331951D-05 -0.68557396D-05
 -0.11628632D-04 -0.13238786D-04  0.12303780D-04 -0.22144203D-04 -0.37560760D-04
 -0.42761597D-04 -0.11676079D-03  0.10253562D-04  0.17391983D-04  0.19800157D-04
  0.17277378D-03
MO    4     MO 0.0        OCC NO =    1.0000000  ORB. ENERGY =  -10.416349
 -0.35295812D-03 -0.65113882D-03 -0.10511399D-02 -0.13682719D-02 -0.11675489D-02
 -0.40312657D-03  0.10635872D-03  0.49020636D-04 -0.13745898D-03 -0.84469828D-04
 -0.64766106D-04 -0.32322826D-04 -0.20156180D-04 -0.15454480D-04 -0.77128687D-05
 -0.37974348D-06 -0.29116321D-06 -0.14531085D-06  0.73137691D-03  0.38401842D-03
  0.17450067D-03  0.17254266D-05 -0.10341413D-04  0.33585946D-04 -0.86384783D-04
 -0.29567403D-04  0.15001236D-05  0.11884504D-05 -0.46767565D-04 -0.86277025D-04
 -0.13927787D-03 -0.18129840D-03 -0.15470226D-03 -0.53414971D-04 -0.16034444D-04
 -0.73902606D-05  0.20723062D-04 -0.18715638D-04 -0.14349964D-04 -0.71616379D-05
 -0.39017883D-04 -0.29916438D-04 -0.14930399D-04  0.72707985D-06  0.55747871D-06
  0.27822095D-06 -0.68715389D-03  0.51585313D-04 -0.36967216D-03 -0.19044150D-05
  0.10737905D-03  0.59781968D-04  0.17842979D-04  0.98081277D-04  0.15530121D-05
  0.12050374D-05 -0.20591347D-02 -0.37987014D-02 -0.61322819D-02 -0.79824090D-02
 -0.68114041D-02 -0.23518141D-02  0.32310576D-03  0.14891915D-03 -0.41758484D-03
 -0.42494693D-04 -0.32582235D-04 -0.16260819D-04 -0.49304368D-03 -0.37803462D-03
 -0.18866577D-03 -0.28205442D-05 -0.21626144D-05 -0.10792961D-05  0.17482069D-02
 -0.29937026D-03  0.67413312D-03  0.13913328D-05 -0.30084320D-03 -0.58798002D-03
 -0.21180199D-03 -0.13814540D-03 -0.19080246D-05 -0.48384881D-05  0.53232883D+00
  0.98204274D+00  0.15853215D+01  0.20636175D+01  0.17608886D+01  0.60799251D+00
 -0.20139757D-01 -0.92823958D-02  0.26028807D-01 -0.34221169D-03 -0.26238622D-03
 -0.13094911D-03 -0.67458920D-03 -0.51723221D-03 -0.25813512D-03 -0.72969369D-05
 -0.55948284D-05 -0.27922115D-05 -0.37612441D-02  0.70268587D-03  0.46239686D-03
  0.68698819D-05 -0.10603212D-01 -0.10428270D-01 -0.10689516D-01 -0.69226921D-04
 -0.14265263D-05  0.34559589D-06  0.10973128D-01  0.20243278D-01  0.32678927D-01
  0.42538254D-01  0.36297969D-01  0.12532816D-01 -0.13293122D-03 -0.61267876D-04
  0.17180152D-03 -0.26533146D-03 -0.20343933D-03 -0.10153049D-03  0.27475504D-03
  0.21066474D-03  0.10513647D-03 -0.15212859D-05 -0.11664256D-05 -0.58212810D-06
  0.16733848D-02  0.14620802D-03 -0.70372543D-03 -0.11245257D-05 -0.60999922D-03
 -0.47571691D-03 -0.46659113D-03  0.12755565D-03 -0.16699108D-05  0.17536584D-05
 -0.53292762D-03 -0.98314740D-03 -0.15871047D-02 -0.20659388D-02 -0.17628693D-02
 -0.60867641D-03 -0.32795234D-04 -0.15115293D-04  0.42384860D-04 -0.71419694D-04
 -0.54760091D-04 -0.27329123D-04 -0.32344540D-04 -0.24799742D-04 -0.12376809D-04
 -0.27468465D-06 -0.21061077D-06 -0.10510953D-06 -0.86667156D-03 -0.36055607D-03
  0.22204720D-03 -0.22608373D-05  0.93675600D-04  0.23855780D-04  0.59594007D-04
 -0.11514078D-05  0.20281066D-06 -0.28813793D-06 -0.17553840D-04 -0.29774634D-04
 -0.33897369D-04 -0.10043025D-03 -0.15209692D-04 -0.27993952D-04 -0.45299499D-04
 -0.59547459D-04 -0.51073510D-04 -0.17462900D-04  0.81463010D-04  0.36348637D-04
 -0.10733801D-03  0.55442794D-04  0.42715684D-04  0.18754486D-04  0.49062830D-04
  0.37800266D-04  0.16596353D-04  0.34044215D-06  0.26229232D-06  0.11516046D-06
  0.19688701D-03 -0.77856982D-04 -0.37940506D-04 -0.29366869D-06 -0.23032159D-05
 -0.12390888D-04 -0.92380812D-04 -0.39640862D-04  0.30456030D-06  0.59076638D-06
  0.40850936D-05  0.69290920D-05  0.78885263D-05  0.20215458D-04 -0.91743892D-04
 -0.15561501D-03 -0.17716218D-03  0.12408854D-03 -0.10210252D-05 -0.18835921D-05
 -0.30407017D-05 -0.39580901D-05 -0.33774454D-05 -0.11661507D-05  0.11587855D-04
  0.53408320D-05 -0.14976250D-04  0.38471337D-04  0.29497381D-04  0.14721260D-04
  0.29717716D-04  0.22785659D-04  0.11371641D-04  0.12938510D-05  0.99204289D-06
  0.49509893D-06  0.17457511D-03  0.49758170D-04  0.17921634D-04 -0.42491742D-05
  0.95731372D-05  0.49564501D-05 -0.22734670D-05  0.49371620D-07 -0.53371081D-05
  0.45880689D-05 -0.44978333D-05 -0.76291767D-05 -0.86855480D-05 -0.59456303D-05
 -0.24106874D-05 -0.40889821D-05 -0.46551616D-05 -0.92707478D-06 -0.16464029D-05
 -0.27926109D-05 -0.31792888D-05 -0.28088267D-05 -0.18159518D-04 -0.30801979D-04
 -0.35066965D-04 -0.82003296D-04  0.12914140D-04  0.21904826D-04  0.24937871D-04
  0.17364756D-03
MO    5     MO 0.0        OCC NO =    1.0000000  ORB. ENERGY =  -10.410309
  0.53226978D+00  0.98193380D+00  0.15851456D+01  0.20633886D+01  0.17606932D+01
  0.60792506D+00 -0.19820646D-01 -0.91353176D-02  0.25616384D-01  0.41293849D-03
  0.31661504D-03  0.15801310D-03  0.43083879D-03  0.33033986D-03  0.16486274D-03
  0.13144986D-04  0.10078741D-04  0.50299982D-05 -0.37269917D-02 -0.51607819D-03
 -0.29122232D-03  0.52068945D-05 -0.10155678D-01 -0.99691100D-02 -0.10416814D-01
 -0.16175280D-03 -0.32579027D-04 -0.17359795D-04  0.99725126D-02  0.18397338D-01
  0.29699009D-01  0.38659285D-01  0.32988038D-01  0.11389977D-01 -0.12355574D-03
 -0.56946729D-04  0.15968457D-03  0.36731675D-03  0.28163518D-03  0.14055570D-03
 -0.30769040D-03 -0.23591748D-03 -0.11773936D-03  0.28221209D-05  0.21638233D-05
  0.10798995D-05  0.16005868D-02 -0.17169368D-03  0.57140248D-03 -0.45618198D-06
 -0.65464905D-03 -0.52543436D-03 -0.42990076D-03  0.23310021D-03 -0.18461538D-06
 -0.25147593D-05 -0.22020735D-04 -0.40623957D-04 -0.65579663D-04 -0.85365235D-04
 -0.72842310D-04 -0.25150699D-04 -0.43385787D-04 -0.19996470D-04  0.56072188D-04
  0.19439013D-04  0.14904602D-04  0.74384411D-05  0.22825703D-05  0.17501301D-05
  0.87343757D-06 -0.22208069D-06 -0.17027739D-06 -0.84980352D-07 -0.73450525D-03
  0.30905291D-03 -0.10624295D-03  0.22763521D-05  0.78171248D-04  0.19917256D-04
  0.47228674D-04  0.30582698D-04 -0.42774514D-06 -0.10230976D-05  0.30796085D-03
  0.56812764D-03  0.91713416D-03  0.11938362D-02  0.10187026D-02  0.35173352D-03
  0.68744646D-04  0.31684344D-04 -0.88846209D-04  0.39669845D-04  0.30416321D-04
  0.15179876D-04  0.19754375D-04  0.15146402D-04  0.75591162D-05  0.50373765D-06
  0.38623408D-06  0.19275787D-06  0.59641639D-03 -0.31186895D-03 -0.95365730D-04
 -0.27954919D-05 -0.18329428D-04 -0.13352324D-04 -0.93748911D-04 -0.13593546D-04
  0.17594295D-05  0.99187401D-06 -0.51527331D-03 -0.95057864D-03 -0.15345287D-02
 -0.19975004D-02 -0.17044707D-02 -0.58851277D-03 -0.21124885D-04 -0.97364401D-05
  0.27301994D-04  0.31954773D-04  0.24500893D-04  0.12227663D-04  0.19074990D-04
  0.14625492D-04  0.72991456D-05  0.11941659D-06  0.91561069D-07  0.45695390D-07
 -0.74196346D-03 -0.45606377D-05  0.34086808D-03  0.18078218D-05  0.95657400D-04
  0.87635656D-04  0.53786487D-04  0.80042002D-04 -0.31778467D-06 -0.51968101D-06
 -0.13178430D-01 -0.24311630D-01 -0.39246509D-01 -0.51087294D-01 -0.43592881D-01
 -0.15051574D-01  0.72725553D-03  0.33519141D-03 -0.93991169D-03 -0.50865960D-04
 -0.39000792D-04 -0.19464129D-04  0.50345180D-03  0.38601490D-03  0.19264849D-03
  0.36724143D-05  0.28157744D-05  0.14052687D-05  0.16386918D-02  0.31314586D-03
 -0.52892220D-03 -0.14025404D-05 -0.50170277D-05 -0.34687308D-03  0.44467519D-04
 -0.12024268D-03 -0.23493581D-05 -0.38436863D-06  0.47909164D-05  0.81263010D-05
  0.92515064D-05  0.97619187D-04 -0.32309792D-05 -0.59467265D-05 -0.96229259D-05
 -0.12649605D-04 -0.10849493D-04 -0.37096260D-05  0.51562458D-05  0.23007068D-05
 -0.67940181D-05  0.66158915D-04  0.50971878D-04  0.22379400D-04  0.35172481D-04
  0.27098501D-04  0.11897701D-04  0.58913634D-06  0.45389779D-06  0.19928558D-06
 -0.49205031D-04 -0.46578095D-04 -0.31161106D-04 -0.73989735D-06  0.29165583D-04
 -0.47545761D-04 -0.28010658D-04 -0.23516022D-04  0.78922964D-06 -0.99911681D-06
  0.67126294D-05  0.11385890D-04  0.12962433D-04 -0.24981726D-05  0.15381495D-04
  0.26089927D-04  0.29702459D-04  0.95944821D-04  0.94419674D-03  0.17418586D-02
  0.28118999D-02  0.36602582D-02  0.31233049D-02  0.10784021D-02  0.94304817D-06
  0.43465004D-06 -0.12188041D-05 -0.34141594D-03 -0.26177609D-03 -0.13064462D-03
 -0.16292484D-03 -0.12492044D-03 -0.62344053D-04  0.10261749D-03  0.78680581D-04
  0.39267124D-04  0.30739816D-03  0.15546472D-03  0.78453002D-04 -0.64382299D-04
 -0.43644204D-03 -0.21631533D-03 -0.44681348D-04 -0.28654355D-03  0.25725489D-04
  0.13004966D-04 -0.17870937D-04 -0.30312492D-04 -0.34509701D-04 -0.84599548D-05
 -0.32310649D-04 -0.54804976D-04 -0.62393528D-04  0.11571925D-03 -0.17275740D-04
 -0.29302925D-04 -0.33360344D-04 -0.88462074D-05  0.30068630D-05  0.51002087D-05
  0.58064073D-05  0.10926466D-03 -0.12125182D-04 -0.20566604D-04 -0.23414352D-04
 -0.72686268D-04
MO    6     MO 0.0        OCC NO =    1.0000000  ORB. ENERGY =  -10.402880
  0.36324168D-03  0.67010997D-03  0.10817653D-02  0.14081370D-02  0.12015658D-02
  0.41487180D-03 -0.69044183D-04 -0.31822401D-04  0.89233334D-04 -0.21594518D-04
 -0.16557307D-04 -0.82632566D-05 -0.25613140D-04 -0.19638531D-04 -0.98010034D-05
  0.31631143D-06  0.24252754D-06  0.12103824D-06 -0.90093583D-03 -0.30052728D-03
 -0.22883341D-03 -0.41846233D-05  0.34637314D-04  0.82540317D-04  0.42526630D-04
  0.17662638D-04  0.47475005D-05  0.15801028D-05 -0.26440222D-03 -0.48777046D-03
 -0.78741277D-03 -0.10249775D-02 -0.87461513D-03 -0.30198359D-03  0.91124595D-04
  0.41999242D-04 -0.11777026D-03 -0.23267385D-05 -0.17839955D-05 -0.89033877D-06
 -0.61337005D-04 -0.47029325D-04 -0.23470929D-04 -0.25141528D-05 -0.19276929D-05
 -0.96205387D-06  0.59253414D-03  0.49191356D-06  0.34740184D-03  0.32916152D-05
 -0.57511820D-05 -0.14113485D-04 -0.83039619D-04 -0.16694310D-05  0.66969894D-06
  0.18961840D-05  0.55538111D-04  0.10245697D-03  0.16539732D-03  0.21529816D-03
  0.18371431D-03  0.63432137D-04 -0.52560345D-04 -0.24225015D-04  0.67929471D-04
  0.84325957D-05  0.64655795D-05  0.32267773D-05 -0.18761034D-04 -0.14384771D-04
 -0.71790087D-05  0.57488166D-06  0.44078280D-06  0.21998151D-06 -0.91173374D-03