 Entering Link 1 = D:\Gaussian\G16W\l1.exe PID=     43400.
  
 Copyright (c) 1988,1990,1992,1993,1995,1998,2003,2009,2016,
            Gaussian, Inc.  All Rights Reserved.
  
 This is part of the Gaussian(R) 16 program.  It is based on
 the Gaussian(R) 09 system (copyright 2009, Gaussian, Inc.),
 the Gaussian(R) 03 system (copyright 2003, Gaussian, Inc.),
 the Gaussian(R) 98 system (copyright 1998, Gaussian, Inc.),
 the Gaussian(R) 94 system (copyright 1995, Gaussian, Inc.),
 the Gaussian 92(TM) system (copyright 1992, Gaussian, Inc.),
 the Gaussian 90(TM) system (copyright 1990, Gaussian, Inc.),
 the Gaussian 88(TM) system (copyright 1988, Gaussian, Inc.),
 the Gaussian 86(TM) system (copyright 1986, Carnegie Mellon
 University), and the Gaussian 82(TM) system (copyright 1983,
 Carnegie Mellon University). Gaussian is a federally registered
 trademark of Gaussian, Inc.
  
 This software contains proprietary and confidential information,
 including trade secrets, belonging to Gaussian, Inc.
  
 This software is provided under written license and may be
 used, copied, transmitted, or stored only in accord with that
 written license.
  
 The following legend is applicable only to US Government
 contracts under FAR:
  
                    RESTRICTED RIGHTS LEGEND
  
 Use, reproduction and disclosure by the US Government is
 subject to restrictions as set forth in subparagraphs (a)
 and (c) of the Commercial Computer Software - Restricted
 Rights clause in FAR 52.227-19.
  
 Gaussian, Inc.
 340 Quinnipiac St., Bldg. 40, Wallingford CT 06492
  
  
 ---------------------------------------------------------------
 Warning -- This program may not be used in any manner that
 competes with the business of Gaussian, Inc. or will provide
 assistance to any competitor of Gaussian, Inc.  The licensee
 of this program is prohibited from giving any competitor of
 Gaussian, Inc. access to this program.  By using this program,
 the user acknowledges that Gaussian, Inc. is engaged in the
 business of creating and licensing software in the field of
 computational chemistry and represents and warrants to the
 licensee that it is not a competitor of Gaussian, Inc. and that
 it will not use this program in any manner prohibited above.
 ---------------------------------------------------------------
  

 Cite this work as:
 Gaussian 16, Revision A.03,
 M. J. Frisch, G. W. Trucks, H. B. Schlegel, G. E. Scuseria, 
 M. A. Robb, J. R. Cheeseman, G. Scalmani, V. Barone, 
 G. A. Petersson, H. Nakatsuji, X. Li, M. Caricato, A. V. Marenich, 
 J. Bloino, B. G. Janesko, R. Gomperts, B. Mennucci, H. P. Hratchian, 
 J. V. Ortiz, A. F. Izmaylov, J. L. Sonnenberg, D. Williams-Young, 
 F. Ding, F. Lipparini, F. Egidi, J. Goings, B. Peng, A. Petrone, 
 T. Henderson, D. Ranasinghe, V. G. Zakrzewski, J. Gao, N. Rega, 
 G. Zheng, W. Liang, M. Hada, M. Ehara, K. Toyota, R. Fukuda, 
 J. Hasegawa, M. Ishida, T. Nakajima, Y. Honda, O. Kitao, H. Nakai, 
 T. Vreven, K. Throssell, J. A. Montgomery, Jr., J. E. Peralta, 
 F. Ogliaro, M. J. Bearpark, J. J. Heyd, E. N. Brothers, K. N. Kudin, 
 V. N. Staroverov, T. A. Keith, R. Kobayashi, J. Normand, 
 K. Raghavachari, A. P. Rendell, J. C. Burant, S. S. Iyengar, 
 J. Tomasi, M. Cossi, J. M. Millam, M. Klene, C. Adamo, R. Cammi, 
 J. W. Ochterski, R. L. Martin, K. Morokuma, O. Farkas, 
 J. B. Foresman, and D. J. Fox, Gaussian, Inc., Wallingford CT, 2016.
 
 ******************************************
 Gaussian 16:  EM64W-G16RevA.03 17-Dec-2016
                03-Dec-2025 
 ******************************************
 %nprocs=   4
 Will use up to    4 processors via shared memory.
 ------------------------------------
 #P B3LYP/6-31G* SCF=conver=7 out=wfn
 ------------------------------------
 1/38=1,172=1/1;
 2/12=2,17=6,18=5,40=1/2;
 3/5=1,6=6,7=1,11=2,25=1,30=1,74=-5/1,2,3;
 4//1;
 5/5=2,6=7,38=5/2;
 6/7=2,8=2,9=2,10=2,28=1/1;
 99/5=1,6=100,9=1/99;
 Leave Link    1 at Wed Dec 03 16:24:05 2025, MaxMem=           0 cpu:               0.0 elap:               0.1
 (Enter D:\Gaussian\G16W\l101.exe)
 ----------------------------------------------------
 Generated by Multiwfn (http://sobereva.com/multiwfn)
 ----------------------------------------------------
 Symbolic Z-matrix:
 Charge =  0 Multiplicity = 1
 C                    -1.20487  -0.21536  -0.01214 
 C                    -0.03921  -0.98105  -0.00975 
 C                     1.21512  -0.36942   0.00071 
 C                     1.31615   1.02252   0.00753 
 C                     0.1533    1.78885   0.00251 
 C                    -1.09786   1.18104  -0.00849 
 H                    -1.99534   1.78983  -0.01624 
 O                     2.31041  -1.18848   0.00127 
 H                     3.1071   -0.64828   0.0036 
 H                     2.2917    1.50004   0.01256 
 C                    -2.55823  -0.88603   0.00961 
 H                    -2.5287   -1.86065  -0.48274 
 H                    -2.89688  -1.04817   1.03876 
 H                    -3.31303  -0.27441  -0.49047 
 H                    -0.0835   -2.06439  -0.01861 
 H                     0.229     2.87063   0.00308 
 
 ITRead=  0  0  0  0  0  0  0  0  0  0  0  0  0  0  0  0
 MicOpt= -1 -1 -1 -1 -1 -1 -1 -1 -1 -1 -1 -1 -1 -1 -1 -1
 NAtoms=     16 NQM=       16 NQMF=       0 NMMI=      0 NMMIF=      0
                NMic=       0 NMicF=      0.
                    Isotopes and Nuclear Properties:
 (Nuclear quadrupole moments (NQMom) in fm**2, nuclear magnetic moments (NMagM)
  in nuclear magnetons)

  Atom         1           2           3           4           5           6           7           8           9          10
 IAtWgt=          12          12          12          12          12          12           1          16           1           1
 AtmWgt=  12.0000000  12.0000000  12.0000000  12.0000000  12.0000000  12.0000000   1.0078250  15.9949146   1.0078250   1.0078250
 NucSpn=           0           0           0           0           0           0           1           0           1           1
 AtZEff=   0.0000000   0.0000000   0.0000000   0.0000000   0.0000000   0.0000000   0.0000000   0.0000000   0.0000000   0.0000000
 NQMom=    0.0000000   0.0000000   0.0000000   0.0000000   0.0000000   0.0000000   0.0000000   0.0000000   0.0000000   0.0000000
 NMagM=    0.0000000   0.0000000   0.0000000   0.0000000   0.0000000   0.0000000   2.7928460   0.0000000   2.7928460   2.7928460
 AtZNuc=   6.0000000   6.0000000   6.0000000   6.0000000   6.0000000   6.0000000   1.0000000   8.0000000   1.0000000   1.0000000

  Atom        11          12          13          14          15          16
 IAtWgt=          12           1           1           1           1           1
 AtmWgt=  12.0000000   1.0078250   1.0078250   1.0078250   1.0078250   1.0078250
 NucSpn=           0           1           1           1           1           1
 AtZEff=   0.0000000   0.0000000   0.0000000   0.0000000   0.0000000   0.0000000
 NQMom=    0.0000000   0.0000000   0.0000000   0.0000000   0.0000000   0.0000000
 NMagM=    0.0000000   2.7928460   2.7928460   2.7928460   2.7928460   2.7928460
 AtZNuc=   6.0000000   1.0000000   1.0000000   1.0000000   1.0000000   1.0000000
 Leave Link  101 at Wed Dec 03 16:24:05 2025, MaxMem=   104857600 cpu:               0.0 elap:               0.1
 (Enter D:\Gaussian\G16W\l202.exe)
                          Input orientation:                          
 ---------------------------------------------------------------------
 Center     Atomic      Atomic             Coordinates (Angstroms)
 Number     Number       Type             X           Y           Z
 ---------------------------------------------------------------------
      1          6           0       -1.204866   -0.215361   -0.012141
      2          6           0       -0.039212   -0.981051   -0.009745
      3          6           0        1.215115   -0.369422    0.000709
      4          6           0        1.316150    1.022517    0.007532
      5          6           0        0.153298    1.788846    0.002507
      6          6           0       -1.097863    1.181043   -0.008487
      7          1           0       -1.995342    1.789831   -0.016244
      8          8           0        2.310413   -1.188481    0.001268
      9          1           0        3.107101   -0.648281    0.003601
     10          1           0        2.291697    1.500039    0.012563
     11          6           0       -2.558231   -0.886030    0.009609
     12          1           0       -2.528704   -1.860654   -0.482736
     13          1           0       -2.896883   -1.048169    1.038760
     14          1           0       -3.313034   -0.274408   -0.490471
     15          1           0       -0.083495   -2.064393   -0.018605
     16          1           0        0.228999    2.870630    0.003079
 ---------------------------------------------------------------------
                    Distance matrix (angstroms):
                    1          2          3          4          5
     1  C    0.000000
     2  C    1.394646   0.000000
     3  C    2.424914   1.395541   0.000000
     4  C    2.808603   2.419006   1.395618   0.000000
     5  C    2.421089   2.776606   2.405323   1.392663   0.000000
     6  C    1.400502   2.407362   2.784581   2.419266   1.391025
     7  H    2.155380   3.391795   3.869069   3.399311   2.148722
     8  O    3.647510   2.358789   1.367675   2.424275   3.676632
     9  H    4.333674   3.163890   1.912428   2.449303   3.829431
    10  H    3.894761   3.404327   2.157326   1.086160   2.157837
    11  C    1.510585   2.520885   3.808557   4.318956   3.808858
    12  H    2.163561   2.682348   4.058777   4.830729   4.554936
    13  H    2.158908   3.044692   4.294971   4.806331   4.292561
    14  H    2.162558   3.383541   4.555702   4.833153   4.063927
    15  H    2.162506   1.084283   2.135343   3.389499   3.860566
    16  H    3.402872   3.861029   3.386793   2.144164   1.084430
                    6          7          8          9         10
     6  C    0.000000
     7  H    1.084505   0.000000
     8  O    4.151034   5.235473   0.000000
     9  H    4.585662   5.655060   0.962566   0.000000
    10  H    3.404603   4.296919   2.688609   2.297878   0.000000
    11  C    2.530967   2.734546   4.878037   5.670322   5.405103
    12  H    3.394722   3.718619   4.909494   5.785211   5.897105
    13  H    3.050014   3.159122   5.311498   6.105677   5.870929
    14  H    2.693999   2.494451   5.718434   6.449963   5.900400
    15  H    3.400279   4.302349   2.549198   3.490812   4.283420
    16  H    2.148348   2.473094   4.561652   4.546010   2.476557
                   11         12         13         14         15
    11  C    0.000000
    12  H    1.092322   0.000000
    13  H    1.095503   1.763700   0.000000
    14  H    1.092652   1.769579   1.763643   0.000000
    15  H    2.741104   2.497193   3.172678   3.722449   0.000000
    16  H    4.677733   5.497817   5.118668   4.762442   4.944954
                   16
    16  H    0.000000
 Stoichiometry    C7H8O
 Framework group  C1[X(C7H8O)]
 Deg. of freedom    42
 Full point group                 C1      NOp   1
 Largest Abelian subgroup         C1      NOp   1
 Largest concise Abelian subgroup C1      NOp   1
                         Standard orientation:                         
 ---------------------------------------------------------------------
 Center     Atomic      Atomic             Coordinates (Angstroms)
 Number     Number       Type             X           Y           Z
 ---------------------------------------------------------------------
      1          6           0       -1.204866   -0.215361   -0.012141
      2          6           0       -0.039212   -0.981051   -0.009745
      3          6           0        1.215115   -0.369422    0.000709
      4          6           0        1.316150    1.022517    0.007532
      5          6           0        0.153299    1.788846    0.002507
      6          6           0       -1.097863    1.181043   -0.008487
      7          1           0       -1.995341    1.789831   -0.016244
      8          8           0        2.310413   -1.188481    0.001268
      9          1           0        3.107101   -0.648282    0.003601
     10          1           0        2.291697    1.500039    0.012563
     11          6           0       -2.558231   -0.886029    0.009609
     12          1           0       -2.528704   -1.860653   -0.482736
     13          1           0       -2.896883   -1.048168    1.038760
     14          1           0       -3.313034   -0.274407   -0.490471
     15          1           0       -0.083495   -2.064393   -0.018605
     16          1           0        0.229000    2.870630    0.003079
 ---------------------------------------------------------------------
 Rotational constants (GHZ):           3.6664935           1.7962120           1.2146986
 Leave Link  202 at Wed Dec 03 16:24:05 2025, MaxMem=   104857600 cpu:               0.0 elap:               0.1
 (Enter D:\Gaussian\G16W\l301.exe)
 Standard basis: 6-31G(d) (6D, 7F)
 Ernie: Thresh=  0.10000D-02 Tol=  0.10000D-05 Strict=F.
 There are   136 symmetry adapted cartesian basis functions of A   symmetry.
 There are   136 symmetry adapted basis functions of A   symmetry.
   136 basis functions,   256 primitive gaussians,   136 cartesian basis functions
    29 alpha electrons       29 beta electrons
       nuclear repulsion energy       343.3849832138 Hartrees.
 IExCor=  402 DFT=T Ex+Corr=B3LYP ExCW=0 ScaHFX=  0.200000
 ScaDFX=  0.800000  0.720000  1.000000  0.810000 ScalE2=  1.000000  1.000000
 IRadAn=      5 IRanWt=     -1 IRanGd=            0 ICorTp=0 IEmpDi=  4
 NAtoms=   16 NActive=   16 NUniq=   16 SFac= 1.00D+00 NAtFMM=   60 NAOKFM=F Big=F
 Integral buffers will be    131072 words long.
 Raffenetti 2 integral format.
 Two-electron integral symmetry is turned on.
 Leave Link  301 at Wed Dec 03 16:24:05 2025, MaxMem=   104857600 cpu:               0.0 elap:               0.1
 (Enter D:\Gaussian\G16W\l302.exe)
 NPDir=0 NMtPBC=     1 NCelOv=     1 NCel=       1 NClECP=     1 NCelD=      1
         NCelK=      1 NCelE2=     1 NClLst=     1 CellRange=     0.0.
 One-electron integrals computed using PRISM.
 One-electron integral symmetry used in STVInt
 NBasis=   136 RedAO= T EigKep=  4.39D-04  NBF=   136
 NBsUse=   136 1.00D-06 EigRej= -1.00D+00 NBFU=   136
 Precomputing XC quadrature grid using
 IXCGrd= 4 IRadAn=           5 IRanWt=          -1 IRanGd=           0 AccXCQ= 0.00D+00.
 Generated NRdTot=       0 NPtTot=           0 NUsed=           0 NTot=          32
 NSgBfM=   136   136   136   136   136 MxSgAt=    16 MxSgA2=    16.
 Leave Link  302 at Wed Dec 03 16:24:05 2025, MaxMem=   104857600 cpu:               0.0 elap:               0.2
 (Enter D:\Gaussian\G16W\l303.exe)
 DipDrv:  MaxL=1.
 Leave Link  303 at Wed Dec 03 16:24:05 2025, MaxMem=   104857600 cpu:               0.0 elap:               0.1
 (Enter D:\Gaussian\G16W\l401.exe)
 ExpMin= 1.61D-01 ExpMax= 5.48D+03 ExpMxC= 8.25D+02 IAcc=3 IRadAn=         5 AccDes= 0.00D+00
 Harris functional with IExCor=  402 and IRadAn=       5 diagonalized for initial guess.
 HarFok:  IExCor=  402 AccDes= 0.00D+00 IRadAn=         5 IDoV= 1 UseB2=F ITyADJ=14
 ICtDFT=  3500011 ScaDFX=  1.000000  1.000000  1.000000  1.000000
 FoFCou: FMM=F IPFlag=           0 FMFlag=      100000 FMFlg1=           0
         NFxFlg=           0 DoJE=T BraDBF=F KetDBF=T FulRan=T
         wScrn=  0.000000 ICntrl=       500 IOpCl=  0 I1Cent=   200000004 NGrid=           0
         NMat0=    1 NMatS0=      1 NMatT0=    0 NMatD0=    1 NMtDS0=    0 NMtDT0=    0
 Petite list used in FoFCou.
 Harris En= -346.828211729728    
 JPrj=0 DoOrth=F DoCkMO=F.
 Leave Link  401 at Wed Dec 03 16:24:06 2025, MaxMem=   104857600 cpu:               1.0 elap:               0.8
 (Enter D:\Gaussian\G16W\l502.exe)
 Keep R1 ints in memory in canonical form, NReq=47250618.
 FoFCou: FMM=F IPFlag=           0 FMFlag=           0 FMFlg1=           0
         NFxFlg=           0 DoJE=F BraDBF=F KetDBF=F FulRan=T
         wScrn=  0.000000 ICntrl=       600 IOpCl=  0 I1Cent=           0 NGrid=           0
         NMat0=    1 NMatS0=   9316 NMatT0=    0 NMatD0=    1 NMtDS0=    0 NMtDT0=    0
 Symmetry not used in FoFCou.
 Two-electron integral symmetry not used.
 Closed shell SCF:
 Using DIIS extrapolation, IDIIS=  1040.
 NGot=   104857600 LenX=    61419538 LenY=    61400601
 Requested convergence on RMS density matrix=1.00D-07 within 128 cycles.
 Requested convergence on MAX density matrix=1.00D-05.
 Requested convergence on             energy=1.00D-05.
 No special actions if energy rises.
 Integral accuracy reduced to 1.0D-05 until final iterations.

 Cycle   1  Pass 0  IDiag  1:
 E= -346.557890343836    
 DIIS: error= 4.40D-02 at cycle   1 NSaved=   1.
 NSaved= 1 IEnMin= 1 EnMin= -346.557890343836     IErMin= 1 ErrMin= 4.40D-02
 ErrMax= 4.40D-02  0.00D+00 EMaxC= 1.00D-01 BMatC= 2.16D-01 BMatP= 2.16D-01
 IDIUse=3 WtCom= 5.60D-01 WtEn= 4.40D-01
 Coeff-Com:  0.100D+01
 Coeff-En:   0.100D+01
 Coeff:      0.100D+01
 Gap=     0.231 Goal=   None    Shift=    0.000
 GapD=    0.231 DampG=1.000 DampE=0.500 DampFc=0.5000 IDamp=-1.
 Damping current iteration by 5.00D-01
 RMSDP=7.60D-03 MaxDP=1.32D-01              OVMax= 1.68D-01

 Cycle   2  Pass 0  IDiag  1:
 E= -346.663379503880     Delta-E=       -0.105489160044 Rises=F Damp=T
 DIIS: error= 7.79D-03 at cycle   2 NSaved=   2.
 NSaved= 2 IEnMin= 2 EnMin= -346.663379503880     IErMin= 2 ErrMin= 7.79D-03
 ErrMax= 7.79D-03  0.00D+00 EMaxC= 1.00D-01 BMatC= 9.34D-03 BMatP= 2.16D-01
 IDIUse=3 WtCom= 9.22D-01 WtEn= 7.79D-02
 Coeff-Com:  0.294D-01 0.971D+00
 Coeff-En:   0.463D-01 0.954D+00
 Coeff:      0.307D-01 0.969D+00
 Gap=     0.290 Goal=   None    Shift=    0.000
 RMSDP=1.89D-03 MaxDP=3.09D-02 DE=-1.05D-01 OVMax= 1.18D-01

 Cycle   3  Pass 0  IDiag  1:
 E= -346.777333647407     Delta-E=       -0.113954143527 Rises=F Damp=F
 DIIS: error= 7.49D-03 at cycle   3 NSaved=   3.
 NSaved= 3 IEnMin= 3 EnMin= -346.777333647407     IErMin= 3 ErrMin= 7.49D-03
 ErrMax= 7.49D-03  0.00D+00 EMaxC= 1.00D-01 BMatC= 5.04D-03 BMatP= 9.34D-03
 IDIUse=3 WtCom= 9.25D-01 WtEn= 7.49D-02
 Coeff-Com: -0.171D-01 0.402D+00 0.615D+00
 Coeff-En:   0.000D+00 0.000D+00 0.100D+01
 Coeff:     -0.158D-01 0.372D+00 0.644D+00
 Gap=     0.223 Goal=   None    Shift=    0.000
 RMSDP=9.87D-04 MaxDP=2.49D-02 DE=-1.14D-01 OVMax= 5.41D-02

 Cycle   4  Pass 0  IDiag  1:
 E= -346.779288698853     Delta-E=       -0.001955051446 Rises=F Damp=F
 DIIS: error= 6.74D-03 at cycle   4 NSaved=   4.
 NSaved= 4 IEnMin= 4 EnMin= -346.779288698853     IErMin= 4 ErrMin= 6.74D-03
 ErrMax= 6.74D-03  0.00D+00 EMaxC= 1.00D-01 BMatC= 3.16D-03 BMatP= 5.04D-03
 IDIUse=3 WtCom= 9.33D-01 WtEn= 6.74D-02
 Coeff-Com: -0.137D-01 0.795D-01 0.444D+00 0.491D+00
 Coeff-En:   0.000D+00 0.000D+00 0.414D+00 0.586D+00
 Coeff:     -0.128D-01 0.742D-01 0.442D+00 0.497D+00
 Gap=     0.221 Goal=   None    Shift=    0.000
 RMSDP=4.81D-04 MaxDP=9.42D-03 DE=-1.96D-03 OVMax= 2.71D-02

 Cycle   5  Pass 0  IDiag  1:
 E= -346.782803809294     Delta-E=       -0.003515110441 Rises=F Damp=F
 DIIS: error= 4.97D-04 at cycle   5 NSaved=   5.
 NSaved= 5 IEnMin= 5 EnMin= -346.782803809294     IErMin= 5 ErrMin= 4.97D-04
 ErrMax= 4.97D-04  0.00D+00 EMaxC= 1.00D-01 BMatC= 4.69D-05 BMatP= 3.16D-03
 IDIUse=3 WtCom= 9.95D-01 WtEn= 4.97D-03
 Coeff-Com: -0.392D-02 0.140D-01 0.160D+00 0.214D+00 0.615D+00
 Coeff-En:   0.000D+00 0.000D+00 0.000D+00 0.000D+00 0.100D+01
 Coeff:     -0.390D-02 0.139D-01 0.159D+00 0.213D+00 0.617D+00
 Gap=     0.220 Goal=   None    Shift=    0.000
 RMSDP=6.31D-05 MaxDP=1.34D-03 DE=-3.52D-03 OVMax= 2.79D-03

 Cycle   6  Pass 0  IDiag  1:
 E= -346.782840969212     Delta-E=       -0.000037159918 Rises=F Damp=F
 DIIS: error= 2.69D-04 at cycle   6 NSaved=   6.
 NSaved= 6 IEnMin= 6 EnMin= -346.782840969212     IErMin= 6 ErrMin= 2.69D-04
 ErrMax= 2.69D-04  0.00D+00 EMaxC= 1.00D-01 BMatC= 8.70D-06 BMatP= 4.69D-05
 IDIUse=3 WtCom= 9.97D-01 WtEn= 2.69D-03
 Coeff-Com: -0.989D-03 0.965D-03 0.495D-01 0.743D-01 0.355D+00 0.521D+00
 Coeff-En:   0.000D+00 0.000D+00 0.000D+00 0.000D+00 0.120D+00 0.880D+00
 Coeff:     -0.986D-03 0.962D-03 0.494D-01 0.741D-01 0.354D+00 0.522D+00
 Gap=     0.220 Goal=   None    Shift=    0.000
 RMSDP=2.27D-05 MaxDP=4.24D-04 DE=-3.72D-05 OVMax= 6.19D-04

 Cycle   7  Pass 0  IDiag  1:
 E= -346.782848627492     Delta-E=       -0.000007658281 Rises=F Damp=F
 DIIS: error= 3.35D-05 at cycle   7 NSaved=   7.
 NSaved= 7 IEnMin= 7 EnMin= -346.782848627492     IErMin= 7 ErrMin= 3.35D-05
 ErrMax= 3.35D-05  0.00D+00 EMaxC= 1.00D-01 BMatC= 9.68D-08 BMatP= 8.70D-06
 IDIUse=1 WtCom= 1.00D+00 WtEn= 0.00D+00
 Coeff-Com: -0.202D-03-0.194D-03 0.139D-01 0.214D-01 0.114D+00 0.190D+00
 Coeff-Com:  0.661D+00
 Coeff:     -0.202D-03-0.194D-03 0.139D-01 0.214D-01 0.114D+00 0.190D+00
 Coeff:      0.661D+00
 Gap=     0.220 Goal=   None    Shift=    0.000
 RMSDP=3.27D-06 MaxDP=8.54D-05 DE=-7.66D-06 OVMax= 1.56D-04

 Initial convergence to 1.0D-05 achieved.  Increase integral accuracy.
 Cycle   8  Pass 1  IDiag  1:
 E= -346.782848582610     Delta-E=        0.000000044882 Rises=F Damp=F
 DIIS: error= 1.72D-05 at cycle   1 NSaved=   1.
 NSaved= 1 IEnMin= 1 EnMin= -346.782848582610     IErMin= 1 ErrMin= 1.72D-05
 ErrMax= 1.72D-05  0.00D+00 EMaxC= 1.00D-01 BMatC= 4.02D-08 BMatP= 4.02D-08
 IDIUse=1 WtCom= 1.00D+00 WtEn= 0.00D+00
 Coeff-Com:  0.100D+01
 Coeff:      0.100D+01
 Gap=     0.220 Goal=   None    Shift=    0.000
 RMSDP=3.27D-06 MaxDP=8.54D-05 DE= 4.49D-08 OVMax= 1.76D-04

 Cycle   9  Pass 1  IDiag  1:
 E= -346.782848524087     Delta-E=        0.000000058523 Rises=F Damp=F
 DIIS: error= 2.90D-05 at cycle   2 NSaved=   2.
 NSaved= 2 IEnMin= 1 EnMin= -346.782848582610     IErMin= 1 ErrMin= 1.72D-05
 ErrMax= 2.90D-05  0.00D+00 EMaxC= 1.00D-01 BMatC= 1.03D-07 BMatP= 4.02D-08
 IDIUse=1 WtCom= 1.00D+00 WtEn= 0.00D+00
 Coeff-Com:  0.617D+00 0.383D+00
 Coeff:      0.617D+00 0.383D+00
 Gap=     0.220 Goal=   None    Shift=    0.000
 RMSDP=2.28D-06 MaxDP=6.63D-05 DE= 5.85D-08 OVMax= 1.13D-04

 Cycle  10  Pass 1  IDiag  1:
 E= -346.782848620750     Delta-E=       -0.000000096663 Rises=F Damp=F
 DIIS: error= 1.93D-06 at cycle   3 NSaved=   3.
 NSaved= 3 IEnMin= 3 EnMin= -346.782848620750     IErMin= 3 ErrMin= 1.93D-06
 ErrMax= 1.93D-06  0.00D+00 EMaxC= 1.00D-01 BMatC= 5.26D-10 BMatP= 4.02D-08
 IDIUse=1 WtCom= 1.00D+00 WtEn= 0.00D+00
 Coeff-Com:  0.218D+00 0.150D+00 0.633D+00
 Coeff:      0.218D+00 0.150D+00 0.633D+00
 Gap=     0.220 Goal=   None    Shift=    0.000
 RMSDP=2.81D-07 MaxDP=7.50D-06 DE=-9.67D-08 OVMax= 1.54D-05

 Cycle  11  Pass 1  IDiag  1:
 E= -346.782848621059     Delta-E=       -0.000000000309 Rises=F Damp=F
 DIIS: error= 1.23D-06 at cycle   4 NSaved=   4.
 NSaved= 4 IEnMin= 4 EnMin= -346.782848621059     IErMin= 4 ErrMin= 1.23D-06
 ErrMax= 1.23D-06  0.00D+00 EMaxC= 1.00D-01 BMatC= 2.28D-10 BMatP= 5.26D-10
 IDIUse=1 WtCom= 1.00D+00 WtEn= 0.00D+00
 Coeff-Com: -0.417D-02 0.813D-02 0.407D+00 0.589D+00
 Coeff:     -0.417D-02 0.813D-02 0.407D+00 0.589D+00
 Gap=     0.220 Goal=   None    Shift=    0.000
 RMSDP=1.32D-07 MaxDP=3.38D-06 DE=-3.09D-10 OVMax= 8.40D-06

 Cycle  12  Pass 1  IDiag  1:
 E= -346.782848621287     Delta-E=       -0.000000000228 Rises=F Damp=F
 DIIS: error= 2.41D-07 at cycle   5 NSaved=   5.
 NSaved= 5 IEnMin= 5 EnMin= -346.782848621287     IErMin= 5 ErrMin= 2.41D-07
 ErrMax= 2.41D-07  0.00D+00 EMaxC= 1.00D-01 BMatC= 1.32D-11 BMatP= 2.28D-10
 IDIUse=1 WtCom= 1.00D+00 WtEn= 0.00D+00
 Coeff-Com: -0.102D-01-0.343D-03 0.217D+00 0.344D+00 0.449D+00
 Coeff:     -0.102D-01-0.343D-03 0.217D+00 0.344D+00 0.449D+00
 Gap=     0.220 Goal=   None    Shift=    0.000
 RMSDP=2.67D-08 MaxDP=6.69D-07 DE=-2.28D-10 OVMax= 1.15D-06

 SCF Done:  E(RB3LYP) =  -346.782848621     A.U. after   12 cycles
            NFock= 12  Conv=0.27D-07     -V/T= 2.0094
 KE= 3.435655127577D+02 PE=-1.492746966768D+03 EE= 4.590136221752D+02
 Leave Link  502 at Wed Dec 03 16:24:15 2025, MaxMem=   104857600 cpu:               9.0 elap:               8.8
 (Enter D:\Gaussian\G16W\l601.exe)
 Copying SCF densities to generalized density rwf, IOpCl= 0 IROHF=0.

 **********************************************************************

            Population analysis using the SCF density.

 **********************************************************************

 Orbital symmetries:
       Occupied  (A) (A) (A) (A) (A) (A) (A) (A) (A) (A) (A) (A)
                 (A) (A) (A) (A) (A) (A) (A) (A) (A) (A) (A) (A)
                 (A) (A) (A) (A) (A)
       Virtual   (A) (A) (A) (A) (A) (A) (A) (A) (A) (A) (A) (A)
                 (A) (A) (A) (A) (A) (A) (A) (A) (A) (A) (A) (A)
                 (A) (A) (A) (A) (A) (A) (A) (A) (A) (A) (A) (A)
                 (A) (A) (A) (A) (A) (A) (A) (A) (A) (A) (A) (A)
                 (A) (A) (A) (A) (A) (A) (A) (A) (A) (A) (A) (A)
                 (A) (A) (A) (A) (A) (A) (A) (A) (A) (A) (A) (A)
                 (A) (A) (A) (A) (A) (A) (A) (A) (A) (A) (A) (A)
                 (A) (A) (A) (A) (A) (A) (A) (A) (A) (A) (A) (A)
                 (A) (A) (A) (A) (A) (A) (A) (A) (A) (A) (A)
 The electronic state is 1-A.
 Alpha  occ. eigenvalues --  -19.17431 -10.24390 -10.19343 -10.18691 -10.18293
 Alpha  occ. eigenvalues --  -10.17935 -10.17552 -10.17482  -1.05649  -0.84725
 Alpha  occ. eigenvalues --   -0.76549  -0.73499  -0.68315  -0.60569  -0.59797
 Alpha  occ. eigenvalues --   -0.52175  -0.49270  -0.46631  -0.43294  -0.41826
 Alpha  occ. eigenvalues --   -0.40670  -0.39514  -0.39492  -0.36853  -0.35202
 Alpha  occ. eigenvalues --   -0.33203  -0.32165  -0.23961  -0.21558
 Alpha virt. eigenvalues --    0.00483   0.01950   0.07243   0.09983   0.12471
 Alpha virt. eigenvalues --    0.14790   0.15203   0.16733   0.18099   0.19647
 Alpha virt. eigenvalues --    0.20781   0.24667   0.25534   0.30881   0.33187
 Alpha virt. eigenvalues --    0.35697   0.38357   0.44543   0.51341   0.52298
 Alpha virt. eigenvalues --    0.53830   0.55552   0.56402   0.58421   0.60640
 Alpha virt. eigenvalues --    0.61160   0.62060   0.62741   0.64548   0.65158
 Alpha virt. eigenvalues --    0.66783   0.71935   0.73936   0.75658   0.76311
 Alpha virt. eigenvalues --    0.78022   0.83977   0.84352   0.86700   0.88423
 Alpha virt. eigenvalues --    0.90113   0.91008   0.91498   0.95913   0.96109
 Alpha virt. eigenvalues --    0.96643   0.98488   1.00872   1.05942   1.12433
 Alpha virt. eigenvalues --    1.16153   1.17731   1.21809   1.25426   1.27529
 Alpha virt. eigenvalues --    1.35646   1.36532   1.38885   1.40717   1.46631
 Alpha virt. eigenvalues --    1.48340   1.49034   1.50243   1.72487   1.73577
 Alpha virt. eigenvalues --    1.78544   1.79498   1.85316   1.89039   1.89916
 Alpha virt. eigenvalues --    1.90403   1.92484   1.94558   1.98173   1.98507
 Alpha virt. eigenvalues --    2.08074   2.10952   2.13676   2.16825   2.21952
 Alpha virt. eigenvalues --    2.23758   2.28121   2.32075   2.35838   2.36469
 Alpha virt. eigenvalues --    2.39047   2.42707   2.51304   2.55341   2.61721
 Alpha virt. eigenvalues --    2.67173   2.67958   2.75625   2.76800   2.84331
 Alpha virt. eigenvalues --    2.88613   2.97143   3.12883   3.43103   3.94154
 Alpha virt. eigenvalues --    4.09882   4.12386   4.18542   4.24346   4.36791
 Alpha virt. eigenvalues --    4.44750   4.75609
          Condensed to atoms (all electrons):
               1          2          3          4          5          6
     1  C    4.603088   0.544208  -0.003984  -0.033573  -0.013848   0.548844
     2  C    0.544208   5.058562   0.517941  -0.079035  -0.044156  -0.038779
     3  C   -0.003984   0.517941   4.499320   0.505854   0.001263  -0.045334
     4  C   -0.033573  -0.079035   0.505854   5.094609   0.503759  -0.046343
     5  C   -0.013848  -0.044156   0.001263   0.503759   4.869830   0.532591
     6  C    0.548844  -0.038779  -0.045334  -0.046343   0.532591   4.967210
     7  H   -0.045889   0.006068   0.000567   0.005212  -0.046490   0.356790
     8  O    0.002152  -0.046513   0.280233  -0.061005   0.004305   0.000453
     9  H   -0.000114   0.006177  -0.031272  -0.004689   0.000573  -0.000041
    10  H    0.000638   0.005253  -0.047099   0.344757  -0.036181   0.004633
    11  C    0.349437  -0.059093   0.006699   0.000607   0.007113  -0.062629
    12  H   -0.027666  -0.002796   0.000096   0.000004  -0.000182   0.003051
    13  H   -0.025529  -0.002105  -0.000177   0.000038  -0.000157  -0.001809
    14  H   -0.028098   0.002881  -0.000165   0.000009   0.000106  -0.002980
    15  H   -0.046314   0.344846  -0.040411   0.007218  -0.000118   0.006313
    16  H    0.003610   0.001020   0.003163  -0.038405   0.352662  -0.038003
               7          8          9         10         11         12
     1  C   -0.045889   0.002152  -0.000114   0.000638   0.349437  -0.027666
     2  C    0.006068  -0.046513   0.006177   0.005253  -0.059093  -0.002796
     3  C    0.000567   0.280233  -0.031272  -0.047099   0.006699   0.000096
     4  C    0.005212  -0.061005  -0.004689   0.344757   0.000607   0.000004
     5  C   -0.046490   0.004305   0.000573  -0.036181   0.007113  -0.000182
     6  C    0.356790   0.000453  -0.000041   0.004633  -0.062629   0.003051
     7  H    0.616721   0.000002  -0.000001  -0.000183  -0.009563   0.000051
     8  O    0.000002   8.227976   0.243296  -0.005606  -0.000065  -0.000001
     9  H   -0.000001   0.243296   0.372871   0.007212   0.000005   0.000000
    10  H   -0.000183  -0.005606   0.007212   0.618886   0.000008   0.000000
    11  C   -0.009563  -0.000065   0.000005   0.000008   5.214634   0.364222
    12  H    0.000051  -0.000001   0.000000   0.000000   0.364222   0.558105
    13  H    0.000561   0.000001   0.000000   0.000000   0.362871  -0.030221
    14  H    0.005052   0.000000   0.000000   0.000000   0.364796  -0.027578
    15  H   -0.000158  -0.000994  -0.000357  -0.000187  -0.010146   0.004799
    16  H   -0.005483  -0.000059  -0.000014  -0.006083  -0.000212   0.000003
              13         14         15         16
     1  C   -0.025529  -0.028098  -0.046314   0.003610
     2  C   -0.002105   0.002881   0.344846   0.001020
     3  C   -0.000177  -0.000165  -0.040411   0.003163
     4  C    0.000038   0.000009   0.007218  -0.038405
     5  C   -0.000157   0.000106  -0.000118   0.352662
     6  C   -0.001809  -0.002980   0.006313  -0.038003
     7  H    0.000561   0.005052  -0.000158  -0.005483
     8  O    0.000001   0.000000  -0.000994  -0.000059
     9  H    0.000000   0.000000  -0.000357  -0.000014
    10  H    0.000000   0.000000  -0.000187  -0.006083
    11  C    0.362871   0.364796  -0.010146  -0.000212
    12  H   -0.030221  -0.027578   0.004799   0.000003
    13  H    0.559985  -0.030499   0.000562   0.000003
    14  H   -0.030499   0.560324   0.000076  -0.000005
    15  H    0.000562   0.000076   0.605303   0.000019
    16  H    0.000003  -0.000005   0.000019   0.600026
 Mulliken charges:
               1
     1  C    0.173039
     2  C   -0.214477
     3  C    0.353309
     4  C   -0.199016
     5  C   -0.131069
     6  C   -0.183964
     7  H    0.116744
     8  O   -0.644174
     9  H    0.406357
    10  H    0.113952
    11  C   -0.528682
    12  H    0.158114
    13  H    0.166478
    14  H    0.156081
    15  H    0.129550
    16  H    0.127758
 Sum of Mulliken charges =   0.00000
 Mulliken charges with hydrogens summed into heavy atoms:
               1
     1  C    0.173039
     2  C   -0.084927
     3  C    0.353309
     4  C   -0.085064
     5  C   -0.003311
     6  C   -0.067220
     8  O   -0.237817
    11  C   -0.048009
 Electronic spatial extent (au):  <R**2>=            968.4243
 Charge=              0.0000 electrons
 Dipole moment (field-independent basis, Debye):
    X=              0.4982    Y=              0.9536    Z=              0.0432  Tot=              1.0767
 Quadrupole moment (field-independent basis, Debye-Ang):
   XX=            -37.7786   YY=            -46.1715   ZZ=            -49.9074
   XY=              3.1584   XZ=             -0.0579   YZ=             -0.0133
 Traceless Quadrupole moment (field-independent basis, Debye-Ang):
   XX=              6.8406   YY=             -1.5523   ZZ=             -5.2882
   XY=              3.1584   XZ=             -0.0579   YZ=             -0.0133
 Octapole moment (field-independent basis, Debye-Ang**2):
  XXX=             35.3985  YYY=              1.9631  ZZZ=              0.6442  XYY=             -3.2271
  XXY=              4.3502  XXZ=              0.1478  XZZ=              2.2772  YZZ=             -3.8406
  YYZ=             -0.4013  XYZ=              0.2711
 Hexadecapole moment (field-independent basis, Debye-Ang**3):
 XXXX=           -657.2808 YYYY=           -400.9528 ZZZZ=            -56.1514 XXXY=            -10.7476
 XXXZ=              0.8137 YYYX=              1.1665 YYYZ=              1.4524 ZZZX=             -1.8042
 ZZZY=             -0.6702 XXYY=           -209.1591 XXZZ=           -142.1241 YYZZ=            -85.5593
 XXYZ=             -1.2094 YYXZ=              0.8264 ZZXY=             -2.6060
 N-N= 3.433849832138D+02 E-N=-1.492746982032D+03  KE= 3.435655127577D+02
 No NMR shielding tensors so no spin-rotation constants.
 Leave Link  601 at Wed Dec 03 16:24:15 2025, MaxMem=   104857600 cpu:               0.0 elap:               0.1
 (Enter D:\Gaussian\G16W\l9999.exe)
 1|1|UNPC-PC-20250526LCFF|SP|RB3LYP|6-31G(d)|C7H8O1|ADMINISTRATOR|03-De
 c-2025|0||#P B3LYP/6-31G* SCF=conver=7 out=wfn||Generated by Multiwfn 
 (http://sobereva.com/multiwfn)||0,1|C,0,-1.204866,-0.215361,-0.012141|
 C,0,-0.039212,-0.981051,-0.009745|C,0,1.215115,-0.369422,0.000709|C,0,
 1.31615,1.022517,0.007532|C,0,0.153298,1.788846,0.002507|C,0,-1.097863
 ,1.181043,-0.008487|H,0,-1.995342,1.789831,-0.016244|O,0,2.310413,-1.1
 88481,0.001268|H,0,3.107101,-0.648281,0.003601|H,0,2.291697,1.500039,0
 .012563|C,0,-2.558231,-0.88603,0.009609|H,0,-2.528704,-1.860654,-0.482
 736|H,0,-2.896883,-1.048169,1.03876|H,0,-3.313034,-0.274408,-0.490471|
 H,0,-0.083495,-2.064393,-0.018605|H,0,0.228999,2.87063,0.003079||Versi
 on=EM64W-G16RevA.03|State=1-A|HF=-346.7828486|RMSD=2.672e-008|Dipole=0
 .1959916,0.3751614,0.0169906|Quadrupole=5.0857935,-1.1541301,-3.931663
 5,2.3481631,-0.0430503,-0.0099115|PG=C01 [X(C7H8O1)]||@

 Writing a WFN file to "N.wfn"


 Everywhere is walking distance if you have the time.
                                    -- Steven Wright
 Job cpu time:       0 days  0 hours  0 minutes 10.0 seconds.
 Elapsed time:       0 days  0 hours  0 minutes 10.4 seconds.
 File lengths (MBytes):  RWF=     11 Int=      0 D2E=      0 Chk=      2 Scr=      1
 Normal termination of Gaussian 16 at Wed Dec 03 16:24:15 2025.
