 Generated by Multiwfn (http://sobereva.com/multiwfn)
GAUSSIAN             29 MOL ORBITALS    256 PRIMITIVES       16 NUCLEI
  C    1    (CENTRE  1)  -2.27686648 -0.40697284 -0.02294300  CHARGE =  6.0
  C    2    (CENTRE  2)  -0.07409994 -1.85391766 -0.01841522  CHARGE =  6.0
  C    3    (CENTRE  3)   2.29623478 -0.69810681  0.00133998  CHARGE =  6.0
  C    4    (CENTRE  4)   2.48716377  1.93227664  0.01423358  CHARGE =  6.0
  C    5    (CENTRE  5)   0.28969225  3.38042900  0.00473771  CHARGE =  6.0
  C    6    (CENTRE  6)  -2.07465960  2.23184824 -0.01603794  CHARGE =  6.0
  H    7    (CENTRE  7)  -3.77064889  3.38229116 -0.03069655  CHARGE =  1.0
  O    8    (CENTRE  8)   4.36604773 -2.24590440  0.00239634  CHARGE =  8.0
  H    9    (CENTRE  9)   5.87157005 -1.22507464  0.00680507  CHARGE =  1.0
  H   10    (CENTRE 10)   4.33068060  2.83466208  0.02374079  CHARGE =  1.0
  C   11    (CENTRE 11)  -4.83435592 -1.67435307  0.01815854  CHARGE =  6.0
  H   12    (CENTRE 12)  -4.77855833 -3.51612552 -0.91223867  CHARGE =  1.0
  H   13    (CENTRE 13)  -5.47431551 -1.98075125  1.96297207  CHARGE =  1.0
  H   14    (CENTRE 14)  -6.26072664 -0.51855473 -0.92685570  CHARGE =  1.0
  H   15    (CENTRE 15)  -0.15778308 -3.90113732 -0.03515819  CHARGE =  1.0
  H   16    (CENTRE 16)   0.43274680  5.42470445  0.00581863  CHARGE =  1.0
CENTRE ASSIGNMENTS    1  1  1  1  1  1  1  1  1  1  1  1  1  1  1  1  1  1  1  1
CENTRE ASSIGNMENTS    1  1  1  1  1  1  1  1  2  2  2  2  2  2  2  2  2  2  2  2
CENTRE ASSIGNMENTS    2  2  2  2  2  2  2  2  2  2  2  2  2  2  2  2  3  3  3  3
CENTRE ASSIGNMENTS    3  3  3  3  3  3  3  3  3  3  3  3  3  3  3  3  3  3  3  3
CENTRE ASSIGNMENTS    3  3  3  3  4  4  4  4  4  4  4  4  4  4  4  4  4  4  4  4
CENTRE ASSIGNMENTS    4  4  4  4  4  4  4  4  4  4  4  4  5  5  5  5  5  5  5  5
CENTRE ASSIGNMENTS    5  5  5  5  5  5  5  5  5  5  5  5  5  5  5  5  5  5  5  5
CENTRE ASSIGNMENTS    6  6  6  6  6  6  6  6  6  6  6  6  6  6  6  6  6  6  6  6
CENTRE ASSIGNMENTS    6  6  6  6  6  6  6  6  7  7  7  7  8  8  8  8  8  8  8  8
CENTRE ASSIGNMENTS    8  8  8  8  8  8  8  8  8  8  8  8  8  8  8  8  8  8  8  8
CENTRE ASSIGNMENTS    9  9  9  9 10 10 10 10 11 11 11 11 11 11 11 11 11 11 11 11
CENTRE ASSIGNMENTS   11 11 11 11 11 11 11 11 11 11 11 11 11 11 11 11 12 12 12 12
CENTRE ASSIGNMENTS   13 13 13 13 14 14 14 14 15 15 15 15 16 16 16 16
TYPE ASSIGNMENTS      1  1  1  1  1  1  1  1  1  2  2  2  3  3  3  4  4  4  1  2
TYPE ASSIGNMENTS      3  4  5  6  7  8  9 10  1  1  1  1  1  1  1  1  1  2  2  2
TYPE ASSIGNMENTS      3  3  3  4  4  4  1  2  3  4  5  6  7  8  9 10  1  1  1  1
TYPE ASSIGNMENTS      1  1  1  1  1  2  2  2  3  3  3  4  4  4  1  2  3  4  5  6
TYPE ASSIGNMENTS      7  8  9 10  1  1  1  1  1  1  1  1  1  2  2  2  3  3  3  4
TYPE ASSIGNMENTS      4  4  1  2  3  4  5  6  7  8  9 10  1  1  1  1  1  1  1  1
TYPE ASSIGNMENTS      1  2  2  2  3  3  3  4  4  4  1  2  3  4  5  6  7  8  9 10
TYPE ASSIGNMENTS      1  1  1  1  1  1  1  1  1  2  2  2  3  3  3  4  4  4  1  2
TYPE ASSIGNMENTS      3  4  5  6  7  8  9 10  1  1  1  1  1  1  1  1  1  1  1  1
TYPE ASSIGNMENTS      1  2  2  2  3  3  3  4  4  4  1  2  3  4  5  6  7  8  9 10
TYPE ASSIGNMENTS      1  1  1  1  1  1  1  1  1  1  1  1  1  1  1  1  1  2  2  2
TYPE ASSIGNMENTS      3  3  3  4  4  4  1  2  3  4  5  6  7  8  9 10  1  1  1  1
TYPE ASSIGNMENTS      1  1  1  1  1  1  1  1  1  1  1  1  1  1  1  1
EXPONENTS  0.3047525D+04 0.4573695D+03 0.1039487D+03 0.2921016D+02 0.9286663D+01
EXPONENTS  0.3163927D+01 0.7868272D+01 0.1881289D+01 0.5442493D+00 0.7868272D+01
EXPONENTS  0.1881289D+01 0.5442493D+00 0.7868272D+01 0.1881289D+01 0.5442493D+00
EXPONENTS  0.7868272D+01 0.1881289D+01 0.5442493D+00 0.1687145D+00 0.1687145D+00
EXPONENTS  0.1687145D+00 0.1687145D+00 0.8000000D+00 0.8000000D+00 0.8000000D+00
EXPONENTS  0.8000000D+00 0.8000000D+00 0.8000000D+00 0.3047525D+04 0.4573695D+03
EXPONENTS  0.1039487D+03 0.2921016D+02 0.9286663D+01 0.3163927D+01 0.7868272D+01
EXPONENTS  0.1881289D+01 0.5442493D+00 0.7868272D+01 0.1881289D+01 0.5442493D+00
EXPONENTS  0.7868272D+01 0.1881289D+01 0.5442493D+00 0.7868272D+01 0.1881289D+01
EXPONENTS  0.5442493D+00 0.1687145D+00 0.1687145D+00 0.1687145D+00 0.1687145D+00
EXPONENTS  0.8000000D+00 0.8000000D+00 0.8000000D+00 0.8000000D+00 0.8000000D+00
EXPONENTS  0.8000000D+00 0.3047525D+04 0.4573695D+03 0.1039487D+03 0.2921016D+02
EXPONENTS  0.9286663D+01 0.3163927D+01 0.7868272D+01 0.1881289D+01 0.5442493D+00
EXPONENTS  0.7868272D+01 0.1881289D+01 0.5442493D+00 0.7868272D+01 0.1881289D+01
EXPONENTS  0.5442493D+00 0.7868272D+01 0.1881289D+01 0.5442493D+00 0.1687145D+00
EXPONENTS  0.1687145D+00 0.1687145D+00 0.1687145D+00 0.8000000D+00 0.8000000D+00
EXPONENTS  0.8000000D+00 0.8000000D+00 0.8000000D+00 0.8000000D+00 0.3047525D+04
EXPONENTS  0.4573695D+03 0.1039487D+03 0.2921016D+02 0.9286663D+01 0.3163927D+01
EXPONENTS  0.7868272D+01 0.1881289D+01 0.5442493D+00 0.7868272D+01 0.1881289D+01
EXPONENTS  0.5442493D+00 0.7868272D+01 0.1881289D+01 0.5442493D+00 0.7868272D+01
EXPONENTS  0.1881289D+01 0.5442493D+00 0.1687145D+00 0.1687145D+00 0.1687145D+00
EXPONENTS  0.1687145D+00 0.8000000D+00 0.8000000D+00 0.8000000D+00 0.8000000D+00
EXPONENTS  0.8000000D+00 0.8000000D+00 0.3047525D+04 0.4573695D+03 0.1039487D+03
EXPONENTS  0.2921016D+02 0.9286663D+01 0.3163927D+01 0.7868272D+01 0.1881289D+01
EXPONENTS  0.5442493D+00 0.7868272D+01 0.1881289D+01 0.5442493D+00 0.7868272D+01
EXPONENTS  0.1881289D+01 0.5442493D+00 0.7868272D+01 0.1881289D+01 0.5442493D+00
EXPONENTS  0.1687145D+00 0.1687145D+00 0.1687145D+00 0.1687145D+00 0.8000000D+00
EXPONENTS  0.8000000D+00 0.8000000D+00 0.8000000D+00 0.8000000D+00 0.8000000D+00
EXPONENTS  0.3047525D+04 0.4573695D+03 0.1039487D+03 0.2921016D+02 0.9286663D+01
EXPONENTS  0.3163927D+01 0.7868272D+01 0.1881289D+01 0.5442493D+00 0.7868272D+01
EXPONENTS  0.1881289D+01 0.5442493D+00 0.7868272D+01 0.1881289D+01 0.5442493D+00
EXPONENTS  0.7868272D+01 0.1881289D+01 0.5442493D+00 0.1687145D+00 0.1687145D+00
EXPONENTS  0.1687145D+00 0.1687145D+00 0.8000000D+00 0.8000000D+00 0.8000000D+00
EXPONENTS  0.8000000D+00 0.8000000D+00 0.8000000D+00 0.1873114D+02 0.2825394D+01
EXPONENTS  0.6401217D+00 0.1612778D+00 0.5484672D+04 0.8252349D+03 0.1880470D+03
EXPONENTS  0.5296450D+02 0.1689757D+02 0.5799635D+01 0.1553962D+02 0.3599934D+01
EXPONENTS  0.1013762D+01 0.1553962D+02 0.3599934D+01 0.1013762D+01 0.1553962D+02
EXPONENTS  0.3599934D+01 0.1013762D+01 0.1553962D+02 0.3599934D+01 0.1013762D+01
EXPONENTS  0.2700058D+00 0.2700058D+00 0.2700058D+00 0.2700058D+00 0.8000000D+00
EXPONENTS  0.8000000D+00 0.8000000D+00 0.8000000D+00 0.8000000D+00 0.8000000D+00
EXPONENTS  0.1873114D+02 0.2825394D+01 0.6401217D+00 0.1612778D+00 0.1873114D+02
EXPONENTS  0.2825394D+01 0.6401217D+00 0.1612778D+00 0.3047525D+04 0.4573695D+03
EXPONENTS  0.1039487D+03 0.2921016D+02 0.9286663D+01 0.3163927D+01 0.7868272D+01
EXPONENTS  0.1881289D+01 0.5442493D+00 0.7868272D+01 0.1881289D+01 0.5442493D+00
EXPONENTS  0.7868272D+01 0.1881289D+01 0.5442493D+00 0.7868272D+01 0.1881289D+01
EXPONENTS  0.5442493D+00 0.1687145D+00 0.1687145D+00 0.1687145D+00 0.1687145D+00
EXPONENTS  0.8000000D+00 0.8000000D+00 0.8000000D+00 0.8000000D+00 0.8000000D+00
EXPONENTS  0.8000000D+00 0.1873114D+02 0.2825394D+01 0.6401217D+00 0.1612778D+00
EXPONENTS  0.1873114D+02 0.2825394D+01 0.6401217D+00 0.1612778D+00 0.1873114D+02
EXPONENTS  0.2825394D+01 0.6401217D+00 0.1612778D+00 0.1873114D+02 0.2825394D+01
EXPONENTS  0.6401217D+00 0.1612778D+00 0.1873114D+02 0.2825394D+01 0.6401217D+00
EXPONENTS  0.1612778D+00
MO    1     MO 0.0        OCC NO =    2.0000000  ORB. ENERGY =  -19.174305
  0.42740789D-05  0.78848410D-05  0.12728578D-04  0.16568827D-04  0.14138210D-04
  0.48815841D-05 -0.62452719D-05 -0.28784401D-05  0.80714465D-05  0.90055805D-04
  0.69049079D-04  0.34460330D-04 -0.11630544D-04 -0.89175634D-05 -0.44504891D-05
  0.53845712D-06  0.41285477D-06  0.20604346D-06  0.18897804D-03 -0.16043101D-04
  0.55568397D-04  0.63924677D-06  0.12491363D-04  0.41957369D-04  0.34631213D-04
  0.18806378D-05 -0.18056639D-05 -0.59103348D-06  0.28428141D-05  0.52444368D-05
  0.84661472D-05  0.11020408D-04  0.94037342D-05  0.32468834D-05 -0.51789672D-04
 -0.23869812D-04  0.66933446D-04  0.28984199D-04  0.22223246D-04  0.11090957D-04
  0.80923888D-05  0.62047305D-05  0.30965954D-05  0.57309963D-06  0.43941645D-06
  0.21929961D-06 -0.11943457D-03 -0.18370791D-04 -0.20412547D-03 -0.15451077D-05
 -0.85983091D-04 -0.76506216D-04  0.20518433D-04 -0.51263782D-04 -0.12793410D-05
 -0.16639552D-05 -0.23605179D-04 -0.43546946D-04 -0.70298273D-04 -0.91507464D-04
 -0.78083485D-04 -0.26960351D-04 -0.62052995D-04 -0.28600169D-04  0.80197858D-04
  0.40535129D-03  0.31079766D-03  0.15510981D-03 -0.39264422D-03 -0.30105468D-03
 -0.15024739D-03  0.13300553D-06  0.10198021D-06  0.50895271D-07 -0.56643556D-04
 -0.47872002D-03  0.46872748D-03 -0.38223216D-07 -0.67455411D-04  0.22593766D-04
 -0.85968847D-04 -0.28245997D-05  0.28013762D-06  0.57032049D-06  0.14501788D-04
  0.26752968D-04  0.43187586D-04  0.56217404D-04  0.47970413D-04  0.16563031D-04
 -0.89832428D-04 -0.41403684D-04  0.11610025D-03 -0.54388615D-04 -0.41701741D-04
 -0.20812091D-04  0.88507039D-04  0.67861584D-04  0.33867687D-04  0.68434109D-06
  0.52470934D-06  0.26186673D-06 -0.54906018D-03  0.31176317D-03  0.71093041D-04
  0.18190362D-05 -0.69342585D-04 -0.76260109D-04  0.64903658D-04  0.37555865D-04
 -0.19391462D-05 -0.83095726D-06 -0.33305068D-05 -0.61441347D-05 -0.99185385D-05
 -0.12910990D-04 -0.11016971D-04 -0.38038954D-05  0.22249156D-04  0.10254615D-04
 -0.28755012D-04  0.78835256D-04  0.60445874D-04  0.30166728D-04 -0.64718749D-04
 -0.49622232D-04 -0.24764971D-04  0.45284677D-06  0.34721418D-06  0.17328421D-06
  0.34555678D-03  0.63606931D-04 -0.12605691D-03  0.12408054D-06  0.55151975D-04
  0.10187077D-05  0.32371732D-06 -0.48404867D-04  0.98049681D-06 -0.41467392D-06
  0.88270558D-05  0.16284194D-04  0.26287739D-04  0.34218825D-04  0.29198985D-04
  0.10081708D-04 -0.34701796D-04 -0.15994026D-04  0.44848919D-04  0.16737983D-04
  0.12833624D-04  0.64048777D-05 -0.42382014D-04 -0.32495840D-04 -0.16217702D-04
 -0.71987903D-06 -0.55195758D-06 -0.27546552D-06 -0.17926406D-03 -0.53314863D-04
  0.81084712D-04 -0.16907638D-06 -0.38313945D-06 -0.12170632D-04  0.45603151D-04
 -0.52640424D-04 -0.11191128D-05 -0.51104420D-06 -0.42420367D-05 -0.71952971D-05
 -0.81915914D-05 -0.26402313D-04  0.82563734D+00  0.15196135D+01  0.24590214D+01
  0.32324525D+01  0.27724557D+01  0.94794969D+00 -0.15833566D-01 -0.70649061D-02
  0.20862762D-01  0.50639115D-03  0.39014708D-03  0.17129558D-03  0.32006218D-02
  0.24659066D-02  0.10826658D-02  0.62480374D-05  0.48137760D-05  0.21135069D-05
  0.37751177D-02 -0.32510591D-03  0.14457745D-03 -0.38070825D-06 -0.91365046D-02
 -0.92290632D-02 -0.91718503D-02 -0.11694019D-03 -0.18515973D-06 -0.67380454D-06
  0.88066040D-04  0.14937667D-03  0.17006006D-03 -0.18606813D-03 -0.21945967D-04
 -0.37224514D-04 -0.42378794D-04 -0.79098684D-04  0.60527020D-05  0.11166053D-04
  0.18025472D-04  0.23463809D-04  0.20021711D-04  0.69130156D-05 -0.21197053D-04
 -0.97697024D-05  0.27395265D-04 -0.31457106D-05 -0.24119314D-05 -0.12037228D-05
 -0.10449429D-04 -0.80119591D-05 -0.39985291D-05  0.47752728D-07  0.36613763D-07
  0.18272834D-07 -0.64077375D-04 -0.14705068D-04 -0.17140497D-04  0.48565831D-07
  0.10744443D-04  0.60920790D-05  0.23272330D-04 -0.31854566D-04 -0.18369908D-05
  0.47573584D-05  0.20224347D-05  0.34304320D-05  0.39054256D-05  0.17997462D-05
  0.25832273D-05  0.43816425D-05  0.49883451D-05  0.44492200D-05  0.34245059D-05
  0.58086102D-05  0.66128974D-05  0.58758703D-05 -0.15877109D-05 -0.26930582D-05
 -0.30659516D-05 -0.11408235D-03  0.18364193D-05  0.31149147D-05  0.35462202D-05
  0.17862723D-04
MO    2     MO 0.0        OCC NO =    2.0000000  ORB. ENERGY =  -10.243903
  0.41205820D-04  0.76016692D-04  0.12271451D-03  0.15973783D-03  0.13630458D-03
  0.47062696D-04 -0.95503134D-04 -0.44017307D-04  0.12342912D-03 -0.11734301D-03
 -0.89971178D-04 -0.44901924D-04  0.56994648D-05  0.43699881D-05  0.21809303D-05
  0.74997176D-08  0.57503078D-08  0.28698066D-08 -0.14137185D-02 -0.56280529D-03
 -0.87542151D-04 -0.56984661D-05  0.32010853D-04  0.28610700D-04  0.50497066D-04
 -0.40097911D-04  0.47599824D-05  0.39273137D-05  0.19853904D-02  0.36626576D-02
  0.59126650D-02  0.76965330D-02  0.65674655D-02  0.22675880D-02  0.27863197D-03
  0.12842122D-03 -0.36010651D-03 -0.28962108D-03 -0.22206308D-03 -0.11082504D-03
 -0.26793866D-03 -0.20543837D-03 -0.10252815D-03 -0.78060022D-06 -0.59851474D-06
 -0.29870080D-06  0.23719569D-02  0.14664967D-03  0.11256306D-02  0.69268689D-05
 -0.49910684D-03 -0.20910050D-03 -0.37824840D-03  0.60361474D-04 -0.13391071D-05
  0.29718181D-05  0.53256334D+00  0.98247538D+00  0.15860199D+01  0.20645266D+01
  0.17616643D+01  0.60826036D+00 -0.19735501D-01 -0.90960745D-02  0.25506342D-01
  0.94085440D-03  0.72138748D-03  0.36002291D-03 -0.64074309D-03 -0.49128116D-03
 -0.24518373D-03 -0.36131385D-05 -0.27703254D-05 -0.13825865D-05 -0.37521479D-02
  0.14078438D-02 -0.10541672D-02  0.33876233D-05 -0.95734828D-02 -0.97065469D-02
 -0.10405642D-01 -0.74102219D-03  0.24949554D-05  0.39469706D-05  0.22468722D-02
  0.41450405D-02  0.66913806D-02  0.87101893D-02  0.74324203D-02  0.25662361D-02
  0.25261967D-03  0.11643218D-03 -0.32648798D-03  0.17409064D-03  0.13348166D-03
  0.66616702D-04  0.35574444D-03  0.27276227D-03  0.13612749D-03  0.12136727D-05
  0.93056723D-06  0.46441827D-06  0.23331587D-02 -0.94541720D-03 -0.67988440D-03
 -0.77924858D-05 -0.27496169D-03 -0.49262838D-03 -0.36502655D-03  0.24379423D-03
  0.31777554D-05  0.88849835D-06  0.33024678D-04  0.60924082D-04  0.98350359D-04
  0.12802294D-03  0.10924221D-03  0.37718710D-04 -0.68047041D-04 -0.31362819D-04
  0.87944618D-04 -0.11941316D-03 -0.91558434D-04 -0.45694075D-04  0.12650635D-03
  0.96997045D-04  0.48408324D-04  0.53989683D-06  0.41395864D-06  0.20659438D-06
 -0.13393221D-02  0.31796602D-04  0.56484096D-03  0.87019088D-06  0.30357622D-04
  0.68159237D-04  0.29418107D-04 -0.65732856D-04  0.74022527D-06  0.58757042D-06
 -0.67318034D-04 -0.12418863D-03 -0.20047895D-03 -0.26096403D-03 -0.22268108D-03
 -0.76886425D-04  0.14070818D-03  0.64852271D-04 -0.18185254D-03 -0.74370326D-04
 -0.57022449D-04 -0.28458199D-04  0.56036551D-04  0.42965273D-04  0.21442682D-04
 -0.34831720D-05 -0.26706754D-05 -0.13328542D-05  0.99379029D-03  0.48125673D-03
 -0.25139326D-03  0.50595635D-05 -0.89075470D-05 -0.10046071D-05 -0.14863452D-03
  0.64505301D-04  0.36110644D-05 -0.34568359D-07  0.25243955D-04  0.42818525D-04
  0.48747377D-04  0.16330112D-03  0.11214883D-03  0.20641372D-03  0.33401636D-03
  0.43907386D-03  0.37659110D-03  0.12876289D-03 -0.66093136D-03 -0.29490629D-03
  0.87086221D-03  0.15152480D-04  0.11674169D-04  0.51255891D-05 -0.76029228D-04
 -0.58576421D-04 -0.25718204D-04  0.24011001D-05  0.18499182D-05  0.81221373D-06
 -0.15925498D-02  0.62932930D-03 -0.45733425D-03 -0.91431410D-06 -0.11054817D-03
  0.31274548D-03  0.93859897D-03  0.12058595D-02 -0.11910838D-05 -0.19993102D-05
  0.38274290D-04  0.64920440D-04  0.73909626D-04 -0.60182501D-04  0.35933252D-04
  0.60949597D-04  0.69388962D-04  0.35848491D-03 -0.24920886D-04 -0.45974169D-04
 -0.74216564D-04 -0.96607914D-04 -0.82435708D-04 -0.28463069D-04  0.57045371D-04
  0.26292159D-04 -0.73725959D-04 -0.28845145D-04 -0.22116627D-04 -0.11037747D-04
 -0.92230169D-05 -0.70716243D-05 -0.35292362D-05 -0.60678301D-05 -0.46524273D-05
 -0.23218873D-05 -0.14368110D-04  0.29484335D-04 -0.38604722D-04  0.95385242D-05
  0.25375587D-04 -0.79686198D-04 -0.60919717D-04  0.46764238D-05 -0.14354050D-04
  0.28469879D-04 -0.10033901D-04 -0.17019395D-04 -0.19375980D-04 -0.12202025D-04
 -0.68903568D-05 -0.11687349D-04 -0.13305634D-04 -0.11696471D-04 -0.82570467D-06
 -0.14005514D-05 -0.15944783D-05  0.15314963D-04  0.37373676D-04  0.63392829D-04
  0.72170495D-04  0.32922744D-03 -0.16146639D-04 -0.27387755D-04 -0.31179991D-04
 -0.11387632D-03
MO    3     MO 0.0        OCC NO =    2.0000000  ORB. ENERGY =  -10.193428
  0.53238191D+00  0.98214066D+00  0.15854796D+01  0.20638233D+01  0.17610642D+01
  0.60805313D+00 -0.19816544D-01 -0.91334270D-02  0.25611083D-01  0.77771458D-04
  0.59630221D-04  0.29759660D-04 -0.18340111D-04 -0.14062034D-04 -0.70179406D-05
  0.22557290D-04  0.17295499D-04  0.86316662D-05 -0.36569265D-02 -0.40831248D-03
 -0.18360914D-03  0.49173451D-05 -0.10146601D-01 -0.10036906D-01 -0.10422492D-01
 -0.15233794D-03 -0.34192815D-04 -0.16493657D-04  0.81075387D-02  0.14956826D-01
  0.24144954D-01  0.31429557D-01  0.26818898D-01  0.92599208D-02 -0.57850313D-04
 -0.26663156D-04  0.74766273D-04  0.37724284D-03  0.28924588D-03  0.14435397D-03
 -0.30840994D-03 -0.23646918D-03 -0.11801469D-03  0.32522556D-05  0.24936233D-05
  0.12444928D-05  0.15259533D-02 -0.21053083D-03  0.51381978D-03 -0.83749884D-06
 -0.61632963D-03 -0.47863358D-03 -0.38475458D-03  0.21782673D-03 -0.41769971D-06
 -0.23978037D-05 -0.30410109D-04 -0.56100712D-04 -0.90563945D-04 -0.11788735D-03
 -0.10059349D-03 -0.34732514D-04 -0.39818818D-04 -0.18352457D-04  0.51462204D-04
  0.45416323D-05  0.34822356D-05  0.17378796D-05  0.95582907D-06  0.73286910D-06
  0.36575305D-06 -0.48619972D-06 -0.37278711D-06 -0.18604689D-06 -0.65773658D-03
  0.28354510D-03 -0.12091204D-03  0.20557363D-05  0.91034644D-04  0.26830695D-04
  0.48008415D-04  0.36943674D-04 -0.27500682D-06 -0.83277668D-06 -0.17911455D-03
 -0.33043136D-03 -0.53341868D-03 -0.69435262D-03 -0.59249235D-03 -0.20457337D-03
  0.84018248D-04  0.38723934D-04 -0.10858595D-03  0.31495861D-04  0.24149029D-04
  0.12052058D-04  0.16730575D-04  0.12827944D-04  0.64020430D-05  0.35635217D-06
  0.27322824D-06  0.13636004D-06  0.57721329D-03 -0.29247119D-03 -0.92332089D-04
 -0.26111253D-05 -0.12159620D-05 -0.23216330D-05 -0.78010024D-04 -0.12549312D-04
  0.16701475D-05  0.10224412D-05  0.32163730D-03  0.59335802D-03  0.95786382D-03
  0.12468541D-02  0.10639428D-02  0.36735390D-03 -0.47406445D-04 -0.21849587D-04
  0.61268523D-04  0.37372919D-04  0.28655184D-04  0.14300945D-04  0.13272846D-04
  0.10176777D-04  0.50789248D-05  0.18747386D-06  0.14374306D-06  0.71737862D-07
 -0.65229273D-03 -0.20832642D-04  0.31805818D-03  0.14607053D-05  0.57485494D-04
  0.60092835D-04  0.36605249D-04  0.78685077D-04 -0.33569437D-06 -0.47683305D-06
  0.74822749D-02  0.13803336D-01  0.22282864D-01  0.29005669D-01  0.24750590D-01
  0.85457838D-02 -0.48670742D-04 -0.22432301D-04  0.62902513D-04 -0.29900814D-04
 -0.22926048D-04 -0.11441705D-04  0.45074627D-03  0.34560365D-03  0.17248044D-03
  0.29801867D-05  0.22850182D-05  0.11403842D-05  0.14141712D-02  0.25843615D-03
 -0.49356844D-03 -0.12694668D-05 -0.40922738D-03 -0.65777644D-03 -0.36185821D-03
 -0.96431516D-04 -0.20584248D-05  0.35848104D-06 -0.30841738D-07 -0.52313426D-07
 -0.59556986D-07  0.93244370D-04 -0.14849274D-05 -0.27330590D-05 -0.44226054D-05
 -0.58136386D-05 -0.49863240D-05 -0.17049089D-05 -0.12921689D-05 -0.57656326D-06
  0.17025990D-05  0.62317347D-04  0.48012156D-04  0.21079923D-04  0.34724608D-04
  0.26753438D-04  0.11746200D-04  0.73306606D-06  0.56478788D-06  0.24797230D-06
 -0.64464914D-04 -0.37629220D-04 -0.31922228D-04 -0.73806108D-06  0.29314826D-04
 -0.37884153D-04 -0.21359233D-04 -0.16225124D-04  0.82452317D-06 -0.91802468D-06
  0.68741863D-05  0.11659921D-04  0.13274408D-04 -0.22607655D-05  0.13739531D-04
  0.23304844D-04  0.26531742D-04  0.89859909D-04  0.45728976D-02  0.84361031D-02
  0.13618486D-01  0.17727223D-01  0.15126671D-01  0.52228760D-02 -0.13698458D-03
 -0.63136067D-04  0.17704012D-03 -0.35547928D-03 -0.27255896D-03 -0.13602602D-03
 -0.17172305D-03 -0.13166634D-03 -0.65710733D-04  0.10697353D-03  0.82020515D-04
  0.40933986D-04  0.38357405D-03  0.18629603D-03  0.85072992D-04 -0.68232813D-04
 -0.56094712D-03 -0.30563745D-03 -0.11864321D-03 -0.34514777D-03  0.25695868D-04
  0.17335203D-04 -0.21614577D-04 -0.36662413D-04 -0.41738861D-04 -0.93758805D-05
 -0.35697146D-04 -0.60549117D-04 -0.68933029D-04  0.12252560D-03 -0.20089840D-04
 -0.34076170D-04 -0.38794516D-04 -0.54187837D-05 -0.16903122D-05 -0.28670894D-05
 -0.32640799D-05  0.87244183D-04 -0.13269425D-04 -0.22507456D-04 -0.25623943D-04
 -0.70922075D-04
MO    4     MO 0.0        OCC NO =    2.0000000  ORB. ENERGY =  -10.186908
 -0.45353689D-03 -0.83668701D-03 -0.13506723D-02 -0.17581740D-02 -0.15002530D-02
 -0.51800132D-03 -0.26948588D-04 -0.12420579D-04  0.34828601D-04 -0.20809582D-04
 -0.15955468D-04 -0.79628967D-05 -0.38829666D-04 -0.29772125D-04 -0.14858377D-04
  0.41920288D-06  0.32141818D-06  0.16041020D-06 -0.76338540D-03 -0.26664569D-03
 -0.19345813D-03 -0.41429172D-05  0.34529025D-04  0.75699484D-04  0.48421376D-04
  0.21074323D-04  0.47727175D-05  0.17298513D-05 -0.19320543D-03 -0.35642630D-03
 -0.57538256D-03 -0.74897713D-03 -0.63910354D-03 -0.22066709D-03  0.85802926D-04
  0.39546490D-04 -0.11089249D-03 -0.66752572D-05 -0.51181638D-05 -0.25543224D-05
 -0.55642452D-04 -0.42663103D-04 -0.21291878D-04 -0.23918858D-05 -0.18339463D-05
 -0.91526773D-06  0.52455884D-03  0.71806597D-05  0.30387436D-03  0.31163883D-05
  0.82535828D-05 -0.30631160D-05 -0.78784332D-04  0.13188902D-05  0.68721632D-06
  0.20702423D-05 -0.17072315D-03 -0.31495088D-03 -0.50842837D-03 -0.66182267D-03
 -0.56473448D-03 -0.19498925D-03 -0.19807594D-04 -0.91293020D-05  0.25599516D-04
  0.37892404D-05  0.29053492D-05  0.14499729D-05 -0.55246610D-04 -0.42359597D-04
 -0.21140408D-04  0.38234665D-06  0.29315916D-06  0.14630697D-06 -0.70868113D-03
  0.19535416D-03 -0.20279430D-03 -0.48691384D-06 -0.41154516D-05  0.53556859D-04
  0.28212988D-04 -0.49538811D-05  0.79698285D-06  0.61611150D-06  0.37339928D-01
  0.68884877D-01  0.11120155D+00  0.14475138D+00  0.12351661D+00  0.42647318D-01
 -0.11290085D-02 -0.52035899D-03  0.14591409D-02  0.41461615D-03  0.31790137D-03
  0.15865506D-03 -0.21141654D-03 -0.16210079D-03 -0.80899657D-04  0.52370753D-06
  0.40154572D-06  0.20039946D-06  0.14766262D-02 -0.62097634D-03 -0.79822736D-04
 -0.39686169D-05 -0.11044394D-02 -0.11014981D-02 -0.99601511D-03  0.25753702D-03
  0.16498717D-06  0.86837075D-06  0.53101824D+00  0.97962496D+00  0.15814184D+01
  0.20585369D+01  0.17565533D+01  0.60649563D+00 -0.19823750D-01 -0.91367485D-02
  0.25620396D-01  0.59771143D-04  0.45828721D-04  0.22871744D-04 -0.27254738D-03
 -0.20897204D-03 -0.10429169D-03 -0.40904975D-05 -0.31363341D-05 -0.15652505D-05
 -0.35268078D-02  0.59510207D-04  0.72594381D-03  0.34768842D-05 -0.10169109D-01
 -0.10334563D-01 -0.10586703D-01 -0.32113077D-04  0.51035818D-05 -0.19285800D-05
  0.12326279D-01  0.22739577D-01  0.36708728D-01  0.47783857D-01  0.40774052D-01
  0.14078300D-01 -0.18542881D-03 -0.85463968D-04  0.23964989D-03 -0.43422759D-03
 -0.33293817D-03 -0.16615948D-03 -0.13549177D-03 -0.10388650D-03 -0.51846644D-04
 -0.23120071D-05 -0.17727004D-05 -0.88470173D-06  0.16218197D-02  0.63870207D-03
 -0.17082112D-03  0.44645827D-05 -0.61182626D-03 -0.57057464D-03 -0.49133215D-03
 -0.21595527D-03 -0.20548258D-05 -0.32533147D-05  0.64318162D-05  0.10909578D-04
  0.12420169D-04  0.14752976D-03 -0.50584604D-05 -0.93102674D-05 -0.15065770D-04
 -0.19804377D-04 -0.16986099D-04 -0.58078356D-05  0.19807488D-04  0.88380625D-05
 -0.26098917D-04  0.25702604D-04  0.19802471D-04  0.86943514D-05 -0.67049392D-04
 -0.51657942D-04 -0.22680619D-04 -0.83846437D-06 -0.64599160D-06 -0.28362511D-06
 -0.22595916D-04 -0.11138374D-04  0.47215636D-04  0.41646511D-06 -0.23153521D-04
  0.22176095D-04 -0.46160820D-04 -0.53170107D-04 -0.14461401D-06  0.84374216D-06
 -0.73577115D-05 -0.12480071D-04 -0.14208120D-04  0.12852078D-04 -0.13474789D-06
 -0.22855793D-06 -0.26020512D-06  0.15348244D-03 -0.48242985D-04 -0.88998887D-04
 -0.14367180D-03 -0.18701799D-03 -0.15958279D-03 -0.55100103D-04  0.32809812D-04
  0.15122012D-04 -0.42403701D-04 -0.18233643D-04 -0.13980401D-04 -0.69772000D-05
 -0.22012634D-04 -0.16877892D-04 -0.84232509D-05 -0.69517372D-05 -0.53301511D-05
 -0.26601190D-05 -0.25653009D-04 -0.12053871D-04  0.29348497D-04  0.87242752D-05
 -0.29087352D-04 -0.29868045D-05 -0.33326093D-04  0.55809485D-04  0.99541133D-05
 -0.22056912D-04  0.15730222D-05  0.26681433D-05  0.30375869D-05  0.12674431D-04
 -0.40684524D-05 -0.69008653D-05 -0.78563913D-05 -0.78329441D-05 -0.73987715D-05
 -0.12549717D-04 -0.14287409D-04 -0.21665154D-05  0.15905150D-04  0.26978144D-04
  0.30713664D-04  0.95013367D-04 -0.10301430D-03 -0.17473175D-03 -0.19892592D-03
  0.16687441D-03
MO    5     MO 0.0        OCC NO =    2.0000000  ORB. ENERGY =  -10.182926
  0.17665009D-03  0.32588493D-03  0.52607932D-03  0.68479896D-03  0.58434019D-03
  0.20175863D-03  0.90322804D-04  0.41629698D-04 -0.11673402D-03 -0.71230207D-04
 -0.54614805D-04 -0.27256615D-04 -0.18400236D-04 -0.14108134D-04 -0.70409478D-05
 -0.23262610D-06 -0.17836294D-06 -0.89015608D-07  0.80668035D-03  0.40675390D-03
  0.18322057D-03  0.19414111D-05 -0.17503379D-04  0.13854193D-04 -0.97821573D-04
 -0.31330618D-04  0.11282507D-05  0.95945658D-06 -0.63730266D-04 -0.11756990D-03
 -0.18979427D-03 -0.24705574D-03 -0.21081311D-03 -0.72788702D-04 -0.29330729D-04
 -0.13518506D-04  0.37907302D-04 -0.16166274D-04 -0.12395274D-04 -0.61861103D-05
 -0.20695915D-04 -0.15868315D-04 -0.79194012D-05  0.81906179D-06  0.62800463D-06
  0.31341832D-06 -0.73840017D-03  0.58457064D-04 -0.40981184D-03 -0.20819013D-05
  0.10461700D-03  0.61179956D-04  0.36125413D-04  0.10108283D-03  0.13674370D-05
  0.10365575D-05 -0.25162079D-02 -0.46419123D-02 -0.74934857D-02 -0.97542918D-02
 -0.83233549D-02 -0.28738544D-02  0.35508783D-03  0.16365966D-03 -0.45891876D-03
 -0.39811354D-04 -0.30524821D-04 -0.15234025D-04 -0.46056740D-03 -0.35313387D-03
 -0.17623855D-03 -0.24887700D-05 -0.19082310D-05 -0.95234101D-06  0.17883336D-02
 -0.31188957D-03  0.69708161D-03  0.13285439D-05 -0.28917688D-03 -0.50035339D-03
 -0.20106126D-03 -0.13122595D-03 -0.19195921D-05 -0.39206956D-05  0.53116559D+00
  0.97989679D+00  0.15818573D+01  0.20591081D+01  0.17570407D+01  0.60666393D+00
 -0.19949337D-01 -0.91946310D-02  0.25782705D-01 -0.22958451D-03 -0.17603084D-03
 -0.87851726D-04 -0.23012053D-03 -0.17644183D-03 -0.88056839D-04 -0.83004203D-05
 -0.63642358D-05 -0.31761997D-05 -0.39000263D-02  0.71585403D-03  0.42837512D-03
  0.71217337D-05 -0.10307192D-01 -0.10204243D-01 -0.10598690D-01 -0.12991033D-03
  0.65364420D-06  0.10177135D-05 -0.37579739D-01 -0.69327280D-01 -0.11191573D+00
 -0.14568102D+00 -0.12430988D+00 -0.42921214D-01  0.16742571D-02  0.77166358D-03
 -0.21638252D-02 -0.31313540D-03 -0.24009236D-03 -0.11982292D-03  0.32636767D-03
  0.25023803D-03  0.12488631D-03 -0.12594743D-05 -0.96568503D-06 -0.48194451D-06
  0.19671408D-02  0.15441469D-03 -0.74162621D-03 -0.13575786D-05  0.27000492D-03
  0.45692855D-03  0.50712079D-03  0.16280775D-03 -0.26849410D-05  0.19194470D-05
 -0.13076135D-02 -0.24122915D-02 -0.38941865D-02 -0.50690738D-02 -0.43254498D-02
 -0.14934739D-02 -0.26387831D-04 -0.12162127D-04  0.34103874D-04 -0.16360017D-04
 -0.12543823D-04 -0.62602469D-05 -0.14239009D-04 -0.10917569D-04 -0.54486322D-05
  0.17087376D-06  0.13101516D-06  0.65385748D-07 -0.98298879D-03 -0.40857807D-03
  0.23620653D-03 -0.25656414D-05  0.15140447D-03  0.75666035D-04  0.98102910D-04
  0.32837750D-04  0.63109082D-06  0.13983591D-06 -0.18260095D-04 -0.30972577D-04
 -0.35261185D-04 -0.11262415D-03 -0.14825119D-04 -0.27286132D-04 -0.44154112D-04
 -0.58041817D-04 -0.49782129D-04 -0.17021355D-04  0.79562933D-04  0.35500826D-04
 -0.10483441D-03  0.48170225D-04  0.37112562D-04  0.16294414D-04  0.61128237D-04
  0.47096011D-04  0.20677686D-04  0.35191992D-06  0.27113532D-06  0.11904301D-06
  0.20343056D-03 -0.75792920D-04 -0.43922137D-04 -0.27963834D-06 -0.68578888D-05
 -0.14123507D-04 -0.84931921D-04 -0.34073443D-04  0.13964994D-06  0.53695476D-06
  0.56276139D-05  0.95454983D-05  0.10867212D-04  0.15947434D-04 -0.10047558D-03
 -0.17042560D-03 -0.19402352D-03  0.15137031D-03  0.33972611D-04  0.62672833D-04
  0.10117339D-03  0.13169769D-03  0.11237787D-03  0.38801379D-04  0.61349804D-05
  0.28276069D-05 -0.79289048D-05  0.37518953D-04  0.28767154D-04  0.14356826D-04
  0.29605507D-04  0.22699625D-04  0.11328704D-04  0.13781853D-05  0.10567051D-05
  0.52736990D-06  0.16991533D-03  0.48252809D-04  0.16465621D-04 -0.45262169D-05
  0.90390932D-05  0.63304135D-05  0.78172656D-06 -0.56626769D-05 -0.54967762D-05
  0.51146690D-05 -0.42257948D-05 -0.71677479D-05 -0.81602276D-05 -0.54715153D-05
 -0.18868907D-05 -0.32005237D-05 -0.36436831D-05 -0.14572667D-06 -0.10470468D-05
 -0.17759896D-05 -0.20219014D-05 -0.25127343D-05 -0.21025537D-04 -0.35663290D-04
 -0.40601395D-04 -0.97304891D-04  0.19095898D-04  0.32390257D-04  0.36875163D-04
  0.14773856D-03
MO    6     MO 0.0        OCC NO =    2.0000000  ORB. ENERGY =  -10.179347
 -0.46714336D-02 -0.86178828D-02 -0.13911935D-01 -0.18109206D-01 -0.15452618D-01
 -0.53354176D-02  0.25127842D-03  0.11581399D-03 -0.32475452D-03  0.28274376D-03
  0.21678998D-03  0.10819339D-03  0.13524086D-03  0.10369412D-03  0.51750631D-04
  0.20292594D-04  0.15559074D-04  0.77650682D-05  0.89294343D-03 -0.34785889D-03
 -0.16730190D-03 -0.89031518D-05 -0.31343564D-03 -0.13912787D-03 -0.60837144D-04
 -0.22931164D-03 -0.12214416D-04 -0.49932824D-05 -0.54241672D-03 -0.10006529D-02
 -0.16153641D-02 -0.21027241D-02 -0.17942583D-02 -0.61951427D-03  0.34924668D-04
  0.16096748D-04 -0.45136960D-04  0.11238104D-03  0.86166654D-04  0.43003200D-04
  0.78450175D-04  0.60150619D-04  0.30019374D-04 -0.27081851D-04 -0.20764646D-04
 -0.10363014D-04 -0.26331528D-03 -0.14982617D-03 -0.10684881D-03  0.15573317D-04
 -0.79929159D-05  0.89952347D-04 -0.40711991D-04 -0.14541929D-03 -0.19597733D-04
  0.15856185D-06 -0.99981185D-05 -0.18444576D-04 -0.29775265D-04 -0.38758548D-04
 -0.33072739D-04 -0.11419222D-04  0.75908259D-04  0.34986047D-04 -0.98104528D-04
  0.46161426D-05  0.35393654D-05  0.17663914D-05  0.22632297D-04  0.17353010D-04
  0.86603680D-05  0.16858224D-04  0.12925817D-04  0.64508886D-05  0.37179216D-03