Title Card Required                                                     
SP        UB3LYP                                                      6-311G(d,p)         
Number of atoms                            I               16
Info1-9                                    I   N=           9
          43          42           0           0           0         110
           1          18        -502
Full Title                                 C   N=           2
Title Card Required     
Route                                      C   N=           5
# ub3lyp/6-311g(d,p) geom=connectivity temperature=823.15   
Charge                                     I                0
Multiplicity                               I                1
Number of electrons                        I               58
Number of alpha electrons                  I               29
Number of beta electrons                   I               29
Number of basis functions                  I              192
Number of independent functions            I              192
Number of point charges in /Mol/           I                0
Number of translation vectors              I                0
Atomic numbers                             I   N=          16
           6           6           6           6           6           6
           1           8           1           1           6           1
           1           1           1           1
Nuclear charges                            R   N=          16
  6.00000000E+00  6.00000000E+00  6.00000000E+00  6.00000000E+00  6.00000000E+00
  6.00000000E+00  1.00000000E+00  8.00000000E+00  1.00000000E+00  1.00000000E+00
  6.00000000E+00  1.00000000E+00  1.00000000E+00  1.00000000E+00  1.00000000E+00
  1.00000000E+00
Current cartesian coordinates              R   N=          48
 -2.27686676E+00 -4.06973308E-01 -2.29431649E-02 -7.40999408E-02 -1.85391770E+00
 -1.84153811E-02  2.29623456E+00 -6.98106404E-01  1.33981582E-03  2.48716304E+00
  1.93227709E+00  1.42334172E-02  2.89691235E-01  3.38042902E+00  4.73754339E-03
 -2.07466039E+00  2.23184781E+00 -1.60381056E-02 -3.77064990E+00  3.38229040E+00
 -3.06967112E-02  4.36604780E+00 -2.24590359E+00  2.39617273E-03  5.87156993E+00
 -1.22507354E+00  6.80490377E-03  4.33067969E+00  2.83466289E+00  2.37406293E-02
 -4.83435595E+00 -1.67435404E+00  1.81583783E-02 -4.77855801E+00 -3.51612647E+00
 -9.12238830E-01 -5.47431548E+00 -1.98075234E+00  1.96297191E+00 -6.26072690E+00
 -5.18555966E-01 -9.26855862E-01 -1.57782683E-01 -3.90113738E+00 -3.51583545E-02
  4.32745393E-01  5.42470450E+00  5.81846674E-03
Number of symbols in /Mol/                 I                0
Force Field                                I                0
Atom Types                                 C   N=          16
                                                            
                                                            
                                                            
            
Int Atom Types                             I   N=          16
           0           0           0           0           0           0
           0           0           0           0           0           0
           0           0           0           0
MM charges                                 R   N=          16
  0.00000000E+00  0.00000000E+00  0.00000000E+00  0.00000000E+00  0.00000000E+00
  0.00000000E+00  0.00000000E+00  0.00000000E+00  0.00000000E+00  0.00000000E+00
  0.00000000E+00  0.00000000E+00  0.00000000E+00  0.00000000E+00  0.00000000E+00
  0.00000000E+00
Integer atomic weights                     I   N=          16
          12          12          12          12          12          12
           1          16           1           1          12           1
           1           1           1           1
Real atomic weights                        R   N=          16
  1.20000000E+01  1.20000000E+01  1.20000000E+01  1.20000000E+01  1.20000000E+01
  1.20000000E+01  1.00782504E+00  1.59949146E+01  1.00782504E+00  1.00782504E+00
  1.20000000E+01  1.00782504E+00  1.00782504E+00  1.00782504E+00  1.00782504E+00
  1.00782504E+00
Atom fragment info                         I   N=          16
           0           0           0           0           0           0
           0           0           0           0           0           0
           0           0           0           0
Atom residue num                           I   N=          16
           0           0           0           0           0           0
           0           0           0           0           0           0
           0           0           0           0
Nuclear spins                              I   N=          16
           0           0           0           0           0           0
           1           0           1           1           0           1
           1           1           1           1
Nuclear ZEff                               R   N=          16
 -3.60000000E+00 -3.60000000E+00 -3.60000000E+00 -3.60000000E+00 -3.60000000E+00
 -3.60000000E+00 -1.00000000E+00 -5.60000000E+00 -1.00000000E+00 -1.00000000E+00
 -3.60000000E+00 -1.00000000E+00 -1.00000000E+00 -1.00000000E+00 -1.00000000E+00
 -1.00000000E+00
Nuclear ZNuc                               R   N=          16
  6.00000000E+00  6.00000000E+00  6.00000000E+00  6.00000000E+00  6.00000000E+00
  6.00000000E+00  1.00000000E+00  8.00000000E+00  1.00000000E+00  1.00000000E+00
  6.00000000E+00  1.00000000E+00  1.00000000E+00  1.00000000E+00  1.00000000E+00
  1.00000000E+00
Nuclear QMom                               R   N=          16
  0.00000000E+00  0.00000000E+00  0.00000000E+00  0.00000000E+00  0.00000000E+00
  0.00000000E+00  0.00000000E+00  0.00000000E+00  0.00000000E+00  0.00000000E+00
  0.00000000E+00  0.00000000E+00  0.00000000E+00  0.00000000E+00  0.00000000E+00
  0.00000000E+00
Nuclear GFac                               R   N=          16
  0.00000000E+00  0.00000000E+00  0.00000000E+00  0.00000000E+00  0.00000000E+00
  0.00000000E+00  2.79284600E+00  0.00000000E+00  2.79284600E+00  2.79284600E+00
  0.00000000E+00  2.79284600E+00  2.79284600E+00  2.79284600E+00  2.79284600E+00
  2.79284600E+00
MicOpt                                     I   N=          16
          -1          -1          -1          -1          -1          -1
          -1          -1          -1          -1          -1          -1
          -1          -1          -1          -1
Number of residues                         I                0
Number of secondary structures             I                0
SymInf integers                            I   N=          26
           1           1           1           1           1           0
           0           0           0           0           0           0
           0           0           0           0           0           0
           0           0           0           0           0           0
           0           0
RotTr to input orientation                 R   N=          12
  1.00000000E+00  1.92773415E-07  0.00000000E+00 -1.92773415E-07  1.00000000E+00
  0.00000000E+00  0.00000000E+00  0.00000000E+00  1.00000000E+00 -3.58396334E-07
 -3.25814853E-08 -1.62907425E-07
Number of contracted shells                I               72
Number of primitive shells                 I              144
Pure/Cartesian d shells                    I                0
Pure/Cartesian f shells                    I                0
Highest angular momentum                   I                2
Largest degree of contraction              I                6
Shell types                                I   N=          72
           0          -1          -1          -1          -2           0
          -1          -1          -1          -2           0          -1
          -1          -1          -2           0          -1          -1
          -1          -2           0          -1          -1          -1
          -2           0          -1          -1          -1          -2
           0           0           0           1           0          -1
          -1          -1          -2           0           0           0
           1           0           0           0           1           0
          -1          -1          -1          -2           0           0
           0           1           0           0           0           1
           0           0           0           1           0           0
           0           1           0           0           0           1
Number of primitives per shell             I   N=          72
           6           3           1           1           1           6
           3           1           1           1           6           3
           1           1           1           6           3           1
           1           1           6           3           1           1
           1           6           3           1           1           1
           3           1           1           1           6           3
           1           1           1           3           1           1
           1           3           1           1           1           6
           3           1           1           1           3           1
           1           1           3           1           1           1
           3           1           1           1           3           1
           1           1           3           1           1           1
Shell to atom map                          I   N=          72
           1           1           1           1           1           2
           2           2           2           2           3           3
           3           3           3           4           4           4
           4           4           5           5           5           5
           5           6           6           6           6           6
           7           7           7           7           8           8
           8           8           8           9           9           9
           9          10          10          10          10          11
          11          11          11          11          12          12
          12          12          13          13          13          13
          14          14          14          14          15          15
          15          15          16          16          16          16
Primitive exponents                        R   N=         144
  4.56324000E+03  6.82024000E+02  1.54973000E+02  4.44553000E+01  1.30290000E+01
  1.82773000E+00  2.09642000E+01  4.80331000E+00  1.45933000E+00  4.83456000E-01
  1.45585000E-01  6.26000000E-01  4.56324000E+03  6.82024000E+02  1.54973000E+02
  4.44553000E+01  1.30290000E+01  1.82773000E+00  2.09642000E+01  4.80331000E+00
  1.45933000E+00  4.83456000E-01  1.45585000E-01  6.26000000E-01  4.56324000E+03
  6.82024000E+02  1.54973000E+02  4.44553000E+01  1.30290000E+01  1.82773000E+00
  2.09642000E+01  4.80331000E+00  1.45933000E+00  4.83456000E-01  1.45585000E-01
  6.26000000E-01  4.56324000E+03  6.82024000E+02  1.54973000E+02  4.44553000E+01
  1.30290000E+01  1.82773000E+00  2.09642000E+01  4.80331000E+00  1.45933000E+00
  4.83456000E-01  1.45585000E-01  6.26000000E-01  4.56324000E+03  6.82024000E+02
  1.54973000E+02  4.44553000E+01  1.30290000E+01  1.82773000E+00  2.09642000E+01
  4.80331000E+00  1.45933000E+00  4.83456000E-01  1.45585000E-01  6.26000000E-01
  4.56324000E+03  6.82024000E+02  1.54973000E+02  4.44553000E+01  1.30290000E+01
  1.82773000E+00  2.09642000E+01  4.80331000E+00  1.45933000E+00  4.83456000E-01
  1.45585000E-01  6.26000000E-01  3.38650000E+01  5.09479000E+00  1.15879000E+00
  3.25840000E-01  1.02741000E-01  7.50000000E-01  8.58850000E+03  1.29723000E+03
  2.99296000E+02  8.73771000E+01  2.56789000E+01  3.74004000E+00  4.21175000E+01
  9.62837000E+00  2.85332000E+00  9.05661000E-01  2.55611000E-01  1.29200000E+00
  3.38650000E+01  5.09479000E+00  1.15879000E+00  3.25840000E-01  1.02741000E-01
  7.50000000E-01  3.38650000E+01  5.09479000E+00  1.15879000E+00  3.25840000E-01
  1.02741000E-01  7.50000000E-01  4.56324000E+03  6.82024000E+02  1.54973000E+02
  4.44553000E+01  1.30290000E+01  1.82773000E+00  2.09642000E+01  4.80331000E+00
  1.45933000E+00  4.83456000E-01  1.45585000E-01  6.26000000E-01  3.38650000E+01
  5.09479000E+00  1.15879000E+00  3.25840000E-01  1.02741000E-01  7.50000000E-01
  3.38650000E+01  5.09479000E+00  1.15879000E+00  3.25840000E-01  1.02741000E-01
  7.50000000E-01  3.38650000E+01  5.09479000E+00  1.15879000E+00  3.25840000E-01
  1.02741000E-01  7.50000000E-01  3.38650000E+01  5.09479000E+00  1.15879000E+00
  3.25840000E-01  1.02741000E-01  7.50000000E-01  3.38650000E+01  5.09479000E+00
  1.15879000E+00  3.25840000E-01  1.02741000E-01  7.50000000E-01
Contraction coefficients                   R   N=         144
  1.96665025E-03  1.52306019E-02  7.61269097E-02  2.60801033E-01  6.16462078E-01
  2.21006028E-01  1.14660081E-01  9.19999648E-01 -3.03068213E-03  1.00000000E+00
  1.00000000E+00  1.00000000E+00  1.96665025E-03  1.52306019E-02  7.61269097E-02
  2.60801033E-01  6.16462078E-01  2.21006028E-01  1.14660081E-01  9.19999648E-01
 -3.03068213E-03  1.00000000E+00  1.00000000E+00  1.00000000E+00  1.96665025E-03
  1.52306019E-02  7.61269097E-02  2.60801033E-01  6.16462078E-01  2.21006028E-01
  1.14660081E-01  9.19999648E-01 -3.03068213E-03  1.00000000E+00  1.00000000E+00
  1.00000000E+00  1.96665025E-03  1.52306019E-02  7.61269097E-02  2.60801033E-01
  6.16462078E-01  2.21006028E-01  1.14660081E-01  9.19999648E-01 -3.03068213E-03
  1.00000000E+00  1.00000000E+00  1.00000000E+00  1.96665025E-03  1.52306019E-02
  7.61269097E-02  2.60801033E-01  6.16462078E-01  2.21006028E-01  1.14660081E-01
  9.19999648E-01 -3.03068213E-03  1.00000000E+00  1.00000000E+00  1.00000000E+00
  1.96665025E-03  1.52306019E-02  7.61269097E-02  2.60801033E-01  6.16462078E-01
  2.21006028E-01  1.14660081E-01  9.19999648E-01 -3.03068213E-03  1.00000000E+00
  1.00000000E+00  1.00000000E+00  2.54938145E-02  1.90373109E-01  8.52161486E-01
  1.00000000E+00  1.00000000E+00  1.00000000E+00  1.89515008E-03  1.43859006E-02
  7.07320031E-02  2.40001011E-01  5.94797026E-01  2.80802012E-01  1.13889012E-01
  9.20811101E-01 -3.27447036E-03  1.00000000E+00  1.00000000E+00  1.00000000E+00
  2.54938145E-02  1.90373109E-01  8.52161486E-01  1.00000000E+00  1.00000000E+00
  1.00000000E+00  2.54938145E-02  1.90373109E-01  8.52161486E-01  1.00000000E+00
  1.00000000E+00  1.00000000E+00  1.96665025E-03  1.52306019E-02  7.61269097E-02
  2.60801033E-01  6.16462078E-01  2.21006028E-01  1.14660081E-01  9.19999648E-01
 -3.03068213E-03  1.00000000E+00  1.00000000E+00  1.00000000E+00  2.54938145E-02
  1.90373109E-01  8.52161486E-01  1.00000000E+00  1.00000000E+00  1.00000000E+00
  2.54938145E-02  1.90373109E-01  8.52161486E-01  1.00000000E+00  1.00000000E+00
  1.00000000E+00  2.54938145E-02  1.90373109E-01  8.52161486E-01  1.00000000E+00
  1.00000000E+00  1.00000000E+00  2.54938145E-02  1.90373109E-01  8.52161486E-01
  1.00000000E+00  1.00000000E+00  1.00000000E+00  2.54938145E-02  1.90373109E-01
  8.52161486E-01  1.00000000E+00  1.00000000E+00  1.00000000E+00
P(S=P) Contraction coefficients            R   N=         144
  0.00000000E+00  0.00000000E+00  0.00000000E+00  0.00000000E+00  0.00000000E+00
  0.00000000E+00  4.02486927E-02  2.37593957E-01  8.15853851E-01  1.00000000E+00
  1.00000000E+00  0.00000000E+00  0.00000000E+00  0.00000000E+00  0.00000000E+00
  0.00000000E+00  0.00000000E+00  0.00000000E+00  4.02486927E-02  2.37593957E-01
  8.15853851E-01  1.00000000E+00  1.00000000E+00  0.00000000E+00  0.00000000E+00
  0.00000000E+00  0.00000000E+00  0.00000000E+00  0.00000000E+00  0.00000000E+00
  4.02486927E-02  2.37593957E-01  8.15853851E-01  1.00000000E+00  1.00000000E+00
  0.00000000E+00  0.00000000E+00  0.00000000E+00  0.00000000E+00  0.00000000E+00
  0.00000000E+00  0.00000000E+00  4.02486927E-02  2.37593957E-01  8.15853851E-01
  1.00000000E+00  1.00000000E+00  0.00000000E+00  0.00000000E+00  0.00000000E+00
  0.00000000E+00  0.00000000E+00  0.00000000E+00  0.00000000E+00  4.02486927E-02
  2.37593957E-01  8.15853851E-01  1.00000000E+00  1.00000000E+00  0.00000000E+00
  0.00000000E+00  0.00000000E+00  0.00000000E+00  0.00000000E+00  0.00000000E+00
  0.00000000E+00  4.02486927E-02  2.37593957E-01  8.15853851E-01  1.00000000E+00
  1.00000000E+00  0.00000000E+00  0.00000000E+00  0.00000000E+00  0.00000000E+00
  0.00000000E+00  0.00000000E+00  0.00000000E+00  0.00000000E+00  0.00000000E+00
  0.00000000E+00  0.00000000E+00  0.00000000E+00  0.00000000E+00  3.65113974E-02
  2.37152983E-01  8.19701941E-01  1.00000000E+00  1.00000000E+00  0.00000000E+00
  0.00000000E+00  0.00000000E+00  0.00000000E+00  0.00000000E+00  0.00000000E+00
  0.00000000E+00  0.00000000E+00  0.00000000E+00  0.00000000E+00  0.00000000E+00
  0.00000000E+00  0.00000000E+00  0.00000000E+00  0.00000000E+00  0.00000000E+00
  0.00000000E+00  0.00000000E+00  0.00000000E+00  4.02486927E-02  2.37593957E-01
  8.15853851E-01  1.00000000E+00  1.00000000E+00  0.00000000E+00  0.00000000E+00
  0.00000000E+00  0.00000000E+00  0.00000000E+00  0.00000000E+00  0.00000000E+00
  0.00000000E+00  0.00000000E+00  0.00000000E+00  0.00000000E+00  0.00000000E+00
  0.00000000E+00  0.00000000E+00  0.00000000E+00  0.00000000E+00  0.00000000E+00
  0.00000000E+00  0.00000000E+00  0.00000000E+00  0.00000000E+00  0.00000000E+00
  0.00000000E+00  0.00000000E+00  0.00000000E+00  0.00000000E+00  0.00000000E+00
  0.00000000E+00  0.00000000E+00  0.00000000E+00  0.00000000E+00
Coordinates of each shell                  R   N=         216
 -2.27686648E+00 -4.06972836E-01 -2.29430020E-02 -2.27686648E+00 -4.06972836E-01
 -2.29430020E-02 -2.27686648E+00 -4.06972836E-01 -2.29430020E-02 -2.27686648E+00
 -4.06972836E-01 -2.29430020E-02 -2.27686648E+00 -4.06972836E-01 -2.29430020E-02
 -7.40999398E-02 -1.85391766E+00 -1.84152182E-02 -7.40999398E-02 -1.85391766E+00
 -1.84152182E-02 -7.40999398E-02 -1.85391766E+00 -1.84152182E-02 -7.40999398E-02
 -1.85391766E+00 -1.84152182E-02 -7.40999398E-02 -1.85391766E+00 -1.84152182E-02
  2.29623478E+00 -6.98106814E-01  1.33997873E-03  2.29623478E+00 -6.98106814E-01
  1.33997873E-03  2.29623478E+00 -6.98106814E-01  1.33997873E-03  2.29623478E+00
 -6.98106814E-01  1.33997873E-03  2.29623478E+00 -6.98106814E-01  1.33997873E-03
  2.48716377E+00  1.93227664E+00  1.42335801E-02  2.48716377E+00  1.93227664E+00
  1.42335801E-02  2.48716377E+00  1.93227664E+00  1.42335801E-02  2.48716377E+00
  1.93227664E+00  1.42335801E-02  2.48716377E+00  1.93227664E+00  1.42335801E-02
  2.89692245E-01  3.38042900E+00  4.73770630E-03  2.89692245E-01  3.38042900E+00
  4.73770630E-03  2.89692245E-01  3.38042900E+00  4.73770630E-03  2.89692245E-01
  3.38042900E+00  4.73770630E-03  2.89692245E-01  3.38042900E+00  4.73770630E-03
 -2.07465960E+00  2.23184824E+00 -1.60379427E-02 -2.07465960E+00  2.23184824E+00
 -1.60379427E-02 -2.07465960E+00  2.23184824E+00 -1.60379427E-02 -2.07465960E+00
  2.23184824E+00 -1.60379427E-02 -2.07465960E+00  2.23184824E+00 -1.60379427E-02
 -3.77064889E+00  3.38229116E+00 -3.06965483E-02 -3.77064889E+00  3.38229116E+00
 -3.06965483E-02 -3.77064889E+00  3.38229116E+00 -3.06965483E-02 -3.77064889E+00
  3.38229116E+00 -3.06965483E-02  4.36604773E+00 -2.24590440E+00  2.39633563E-03
  4.36604773E+00 -2.24590440E+00  2.39633563E-03  4.36604773E+00 -2.24590440E+00
  2.39633563E-03  4.36604773E+00 -2.24590440E+00  2.39633563E-03  4.36604773E+00
 -2.24590440E+00  2.39633563E-03  5.87157005E+00 -1.22507464E+00  6.80506668E-03
  5.87157005E+00 -1.22507464E+00  6.80506668E-03  5.87157005E+00 -1.22507464E+00
  6.80506668E-03  5.87157005E+00 -1.22507464E+00  6.80506668E-03  4.33068060E+00
  2.83466208E+00  2.37407922E-02  4.33068060E+00  2.83466208E+00  2.37407922E-02
  4.33068060E+00  2.83466208E+00  2.37407922E-02  4.33068060E+00  2.83466208E+00
  2.37407922E-02 -4.83435592E+00 -1.67435307E+00  1.81585412E-02 -4.83435592E+00
 -1.67435307E+00  1.81585412E-02 -4.83435592E+00 -1.67435307E+00  1.81585412E-02
 -4.83435592E+00 -1.67435307E+00  1.81585412E-02 -4.83435592E+00 -1.67435307E+00
  1.81585412E-02 -4.77855833E+00 -3.51612552E+00 -9.12238668E-01 -4.77855833E+00
 -3.51612552E+00 -9.12238668E-01 -4.77855833E+00 -3.51612552E+00 -9.12238668E-01
 -4.77855833E+00 -3.51612552E+00 -9.12238668E-01 -5.47431551E+00 -1.98075125E+00
  1.96297207E+00 -5.47431551E+00 -1.98075125E+00  1.96297207E+00 -5.47431551E+00
 -1.98075125E+00  1.96297207E+00 -5.47431551E+00 -1.98075125E+00  1.96297207E+00
 -6.26072664E+00 -5.18554727E-01 -9.26855699E-01 -6.26072664E+00 -5.18554727E-01
 -9.26855699E-01 -6.26072664E+00 -5.18554727E-01 -9.26855699E-01 -6.26072664E+00
 -5.18554727E-01 -9.26855699E-01 -1.57783076E-01 -3.90113732E+00 -3.51581916E-02
 -1.57783076E-01 -3.90113732E+00 -3.51581916E-02 -1.57783076E-01 -3.90113732E+00
 -3.51581916E-02 -1.57783076E-01 -3.90113732E+00 -3.51581916E-02  4.32746797E-01
  5.42470445E+00  5.81862964E-03  4.32746797E-01  5.42470445E+00  5.81862964E-03
  4.32746797E-01  5.42470445E+00  5.81862964E-03  4.32746797E-01  5.42470445E+00
  5.81862964E-03
Num ILSW                                   I              100
ILSW                                       I   N=         100
           1           0           0           0           2           0
           0           0           0           0         402          -1
           5           0           0           0           0           0
           0           0           1           0           0           0
           1           0           0           0           0           0
           0           0      100000           0          -1           0
           0           0           0           0           0           0
           0           0           0           1           0           0
           0 -2000000000           1           0           0           0
           0           0           4          52           0           0
           0           0           5           0           0           0
           0           0           0           0           0           1
           0           0           0           0           0           0
           0           0           0           0           0           0
           0           0           0           0           0           0
           0           0           0           0           0           0
           0           0           0           0
Num RLSW                                   I               52
RLSW                                       R   N=          52
  8.00000000E-01  7.20000000E-01  1.00000000E+00  8.10000000E-01  2.00000000E-01
  0.00000000E+00  0.00000000E+00  1.00000000E+00  0.00000000E+00  0.00000000E+00
  0.00000000E+00  0.00000000E+00  1.00000000E+00  0.00000000E+00  0.00000000E+00
  0.00000000E+00  0.00000000E+00  1.00000000E+00  0.00000000E+00  0.00000000E+00
  0.00000000E+00  0.00000000E+00  1.00000000E+00  0.00000000E+00  0.00000000E+00
  0.00000000E+00  0.00000000E+00  1.00000000E+00  0.00000000E+00  0.00000000E+00
  0.00000000E+00  0.00000000E+00  1.00000000E+00  0.00000000E+00  0.00000000E+00
  0.00000000E+00  0.00000000E+00  0.00000000E+00  1.00000000E+00  1.00000000E+00
  0.00000000E+00  1.00000000E+00  0.00000000E+00  0.00000000E+00  0.00000000E+00
  0.00000000E+00  0.00000000E+00  0.00000000E+00  0.00000000E+00  0.00000000E+00
  0.00000000E+00  0.00000000E+00
MxBond                                     I                4
NBond                                      I   N=          16
           3           3           3           3           3           3
           1           2           1           1           4           1
           1           1           1           1
IBond                                      I   N=          64
           2           6          11           0           1           3
          15           0           2           4           8           0
           3           5          10           0           4           6
          16           0           1           5           7           0
           6           0           0           0           3           9
           0           0           8           0           0           0
           4           0           0           0           1          12
          13          14          11           0           0           0
          11           0           0           0          11           0
           0           0           2           0           0           0
           5           0           0           0
RBond                                      R   N=          64
  1.50000000E+00  1.50000000E+00  1.00000000E+00  0.00000000E+00  1.50000000E+00
  1.50000000E+00  1.00000000E+00  0.00000000E+00  1.50000000E+00  1.50000000E+00
  1.00000000E+00  0.00000000E+00  1.50000000E+00  1.50000000E+00  1.00000000E+00
  0.00000000E+00  1.50000000E+00  1.50000000E+00  1.00000000E+00  0.00000000E+00
  1.50000000E+00  1.50000000E+00  1.00000000E+00  0.00000000E+00  1.00000000E+00
  0.00000000E+00  0.00000000E+00  0.00000000E+00  1.00000000E+00  1.00000000E+00
  0.00000000E+00  0.00000000E+00  1.00000000E+00  0.00000000E+00  0.00000000E+00
  0.00000000E+00  1.00000000E+00  0.00000000E+00  0.00000000E+00  0.00000000E+00
  1.00000000E+00  1.00000000E+00  1.00000000E+00  1.00000000E+00  1.00000000E+00
  0.00000000E+00  0.00000000E+00  0.00000000E+00  1.00000000E+00  0.00000000E+00
  0.00000000E+00  0.00000000E+00  1.00000000E+00  0.00000000E+00  0.00000000E+00
  0.00000000E+00  1.00000000E+00  0.00000000E+00  0.00000000E+00  0.00000000E+00
  1.00000000E+00  0.00000000E+00  0.00000000E+00  0.00000000E+00
Virial Ratio                               R      2.004047168945837E+00
SCF Energy                                 R     -3.468795440222363E+02
Total Energy                               R     -3.468795440222363E+02
S**2                                       R     -8.171241461241152E-14
S**2 after annihilation                    R     -8.526512829120475E-14
RMS Density                                R      5.809142786691975E-09
Job Status                                 I                1
Nuclear derivative order                   I                0
External E-field                           R   N=          35
  0.00000000E+00  0.00000000E+00  0.00000000E+00  0.00000000E+00  0.00000000E+00
  0.00000000E+00  0.00000000E+00  0.00000000E+00  0.00000000E+00  0.00000000E+00
  0.00000000E+00  0.00000000E+00  0.00000000E+00  0.00000000E+00  0.00000000E+00
  0.00000000E+00  0.00000000E+00  0.00000000E+00  0.00000000E+00  0.00000000E+00
  0.00000000E+00  0.00000000E+00  0.00000000E+00  0.00000000E+00  0.00000000E+00
  0.00000000E+00  0.00000000E+00  0.00000000E+00  0.00000000E+00  0.00000000E+00
  0.00000000E+00  0.00000000E+00  0.00000000E+00  0.00000000E+00  0.00000000E+00
IOpCl                                      I                1
IROHF                                      I                0
Alpha Orbital Energies                     R   N=         192
 -1.91469753E+01 -1.02334960E+01 -1.01827459E+01 -1.01747260E+01 -1.01703948E+01
 -1.01666298E+01 -1.01635337E+01 -1.01623323E+01 -1.06285708E+00 -8.55247567E-01
 -7.72307901E-01 -7.42097749E-01 -6.89220194E-01 -6.12514322E-01 -6.04980569E-01
 -5.29024043E-01 -4.99209408E-01 -4.75170910E-01 -4.39060840E-01 -4.24650394E-01
 -4.13925111E-01 -4.03299379E-01 -4.01312783E-01 -3.75663342E-01 -3.59719409E-01
 -3.39794581E-01 -3.30632272E-01 -2.48661965E-01 -2.24812238E-01 -8.23469429E-03
  6.72737031E-03  3.19702535E-02  5.24079282E-02  6.55306234E-02  8.94453301E-02
  1.03405938E-01  1.14907236E-01  1.28096549E-01  1.43336383E-01  1.70852367E-01
  2.05308632E-01  2.20913417E-01  2.58839436E-01  2.69410300E-01  2.99675639E-01
  3.06209546E-01  3.32904122E-01  3.41449639E-01  3.50258624E-01  3.84419548E-01
  3.96802262E-01  4.09687325E-01  4.16435961E-01  4.33779228E-01  4.45629244E-01
  4.52850045E-01  4.64720065E-01  4.72311020E-01  4.79177986E-01  5.02248113E-01
  5.20958409E-01  5.47773866E-01  5.59822104E-01  5.63263431E-01  5.85210376E-01
  6.02879751E-01  6.16034420E-01  6.19764387E-01  6.29365565E-01  6.39319188E-01
  6.52560377E-01  6.72740370E-01  6.97744427E-01  7.49415111E-01  7.65500007E-01
  7.78205105E-01  8.06130354E-01  8.29296860E-01  8.50325020E-01  8.71479334E-01
  8.93858130E-01  8.97611978E-01  9.41106841E-01  9.68652847E-01  9.90389316E-01
  1.00895818E+00  1.02146416E+00  1.05708196E+00  1.06922004E+00  1.10933236E+00
  1.12480928E+00  1.19203848E+00  1.22616116E+00  1.32987104E+00  1.34802867E+00
  1.35906880E+00  1.39508261E+00  1.41827695E+00  1.45745356E+00  1.46183863E+00
  1.48270430E+00  1.49703297E+00  1.51240009E+00  1.53595133E+00  1.55466672E+00
  1.57283750E+00  1.58044227E+00  1.58615187E+00  1.60097483E+00  1.60711679E+00
  1.65016597E+00  1.68690616E+00  1.69635405E+00  1.74990121E+00  1.75583080E+00
  1.78185126E+00  1.80614611E+00  1.85861392E+00  1.88720172E+00  1.90369076E+00
  1.91119621E+00  1.91648418E+00  1.92865376E+00  1.96528881E+00  1.97491889E+00
  1.98279545E+00  2.00865061E+00  2.02724761E+00  2.02967787E+00  2.11509425E+00
  2.18217695E+00  2.20762714E+00  2.27161709E+00  2.29751818E+00  2.31203167E+00
  2.34412821E+00  2.37269477E+00  2.37881124E+00  2.42732978E+00  2.46395968E+00
  2.47928252E+00  2.52020625E+00  2.53713600E+00  2.54550987E+00  2.56069622E+00
  2.60386819E+00  2.61503591E+00  2.64292812E+00  2.65476445E+00  2.67152704E+00
  2.68782384E+00  2.69828959E+00  2.75595061E+00  2.77477933E+00  2.81358765E+00
  2.84283355E+00  2.85042100E+00  2.87842002E+00  2.91733167E+00  3.02215652E+00
  3.06037900E+00  3.09222382E+00  3.13237448E+00  3.17297811E+00  3.18473332E+00
  3.32004837E+00  3.35265112E+00  3.40763872E+00  3.47421143E+00  3.55379359E+00
  3.60424371E+00  3.63570143E+00  3.79006379E+00  3.81339153E+00  3.85020040E+00
  3.98756094E+00  4.02092663E+00  4.10624993E+00  4.11559660E+00  4.32232448E+00