 Entering Link 1 = D:\Gaussian\G16W\l1.exe PID=     20900.
  
 Copyright (c) 1988,1990,1992,1993,1995,1998,2003,2009,2016,
            Gaussian, Inc.  All Rights Reserved.
  
 This is part of the Gaussian(R) 16 program.  It is based on
 the Gaussian(R) 09 system (copyright 2009, Gaussian, Inc.),
 the Gaussian(R) 03 system (copyright 2003, Gaussian, Inc.),
 the Gaussian(R) 98 system (copyright 1998, Gaussian, Inc.),
 the Gaussian(R) 94 system (copyright 1995, Gaussian, Inc.),
 the Gaussian 92(TM) system (copyright 1992, Gaussian, Inc.),
 the Gaussian 90(TM) system (copyright 1990, Gaussian, Inc.),
 the Gaussian 88(TM) system (copyright 1988, Gaussian, Inc.),
 the Gaussian 86(TM) system (copyright 1986, Carnegie Mellon
 University), and the Gaussian 82(TM) system (copyright 1983,
 Carnegie Mellon University). Gaussian is a federally registered
 trademark of Gaussian, Inc.
  
 This software contains proprietary and confidential information,
 including trade secrets, belonging to Gaussian, Inc.
  
 This software is provided under written license and may be
 used, copied, transmitted, or stored only in accord with that
 written license.
  
 The following legend is applicable only to US Government
 contracts under FAR:
  
                    RESTRICTED RIGHTS LEGEND
  
 Use, reproduction and disclosure by the US Government is
 subject to restrictions as set forth in subparagraphs (a)
 and (c) of the Commercial Computer Software - Restricted
 Rights clause in FAR 52.227-19.
  
 Gaussian, Inc.
 340 Quinnipiac St., Bldg. 40, Wallingford CT 06492
  
  
 ---------------------------------------------------------------
 Warning -- This program may not be used in any manner that
 competes with the business of Gaussian, Inc. or will provide
 assistance to any competitor of Gaussian, Inc.  The licensee
 of this program is prohibited from giving any competitor of
 Gaussian, Inc. access to this program.  By using this program,
 the user acknowledges that Gaussian, Inc. is engaged in the
 business of creating and licensing software in the field of
 computational chemistry and represents and warrants to the
 licensee that it is not a competitor of Gaussian, Inc. and that
 it will not use this program in any manner prohibited above.
 ---------------------------------------------------------------
  

 Cite this work as:
 Gaussian 16, Revision A.03,
 M. J. Frisch, G. W. Trucks, H. B. Schlegel, G. E. Scuseria, 
 M. A. Robb, J. R. Cheeseman, G. Scalmani, V. Barone, 
 G. A. Petersson, H. Nakatsuji, X. Li, M. Caricato, A. V. Marenich, 
 J. Bloino, B. G. Janesko, R. Gomperts, B. Mennucci, H. P. Hratchian, 
 J. V. Ortiz, A. F. Izmaylov, J. L. Sonnenberg, D. Williams-Young, 
 F. Ding, F. Lipparini, F. Egidi, J. Goings, B. Peng, A. Petrone, 
 T. Henderson, D. Ranasinghe, V. G. Zakrzewski, J. Gao, N. Rega, 
 G. Zheng, W. Liang, M. Hada, M. Ehara, K. Toyota, R. Fukuda, 
 J. Hasegawa, M. Ishida, T. Nakajima, Y. Honda, O. Kitao, H. Nakai, 
 T. Vreven, K. Throssell, J. A. Montgomery, Jr., J. E. Peralta, 
 F. Ogliaro, M. J. Bearpark, J. J. Heyd, E. N. Brothers, K. N. Kudin, 
 V. N. Staroverov, T. A. Keith, R. Kobayashi, J. Normand, 
 K. Raghavachari, A. P. Rendell, J. C. Burant, S. S. Iyengar, 
 J. Tomasi, M. Cossi, J. M. Millam, M. Klene, C. Adamo, R. Cammi, 
 J. W. Ochterski, R. L. Martin, K. Morokuma, O. Farkas, 
 J. B. Foresman, and D. J. Fox, Gaussian, Inc., Wallingford CT, 2016.
 
 ******************************************
 Gaussian 16:  EM64W-G16RevA.03 17-Dec-2016
                01-Dec-2025 
 ******************************************
 %nprocshared=14
 Will use up to   14 processors via shared memory.
 %mem=58371MB
 %chk=P1.chk
 ---------------------------------------------------------
 # ub3lyp/6-311g(d,p) geom=connectivity temperature=823.15
 ---------------------------------------------------------
 1/38=1,57=2,112=823150,172=1/1;
 2/12=2,17=6,18=5,40=1/2;
 3/5=4,6=6,7=101,11=2,25=1,30=1,74=-5,116=2/1,2,3;
 4//1;
 5/5=2,38=5/2;
 6/7=2,8=2,9=2,10=2,28=1/1;
 99/5=1,9=1/99;
 -------------------
 Title Card Required
 -------------------
 Symbolic Z-matrix:
 Charge =  0 Multiplicity = 1
 C                    -1.20487  -0.21536  -0.01214 
 C                    -0.03921  -0.98105  -0.00975 
 C                     1.21512  -0.36942   0.00071 
 C                     1.31615   1.02252   0.00753 
 C                     0.1533    1.78885   0.00251 
 C                    -1.09786   1.18104  -0.00849 
 H                    -1.99534   1.78983  -0.01624 
 O                     2.31041  -1.18848   0.00127 
 H                     3.1071   -0.64828   0.0036 
 H                     2.2917    1.50004   0.01256 
 C                    -2.55823  -0.88603   0.00961 
 H                    -2.5287   -1.86065  -0.48274 
 H                    -2.89688  -1.04817   1.03876 
 H                    -3.31303  -0.27441  -0.49047 
 H                    -0.0835   -2.06439  -0.01861 
 H                     0.229     2.87063   0.00308 
 
                          Input orientation:                          
 ---------------------------------------------------------------------
 Center     Atomic      Atomic             Coordinates (Angstroms)
 Number     Number       Type             X           Y           Z
 ---------------------------------------------------------------------
      1          6           0       -1.204866   -0.215361   -0.012141
      2          6           0       -0.039212   -0.981051   -0.009745
      3          6           0        1.215115   -0.369422    0.000709
      4          6           0        1.316150    1.022517    0.007532
      5          6           0        0.153298    1.788846    0.002507
      6          6           0       -1.097863    1.181043   -0.008487
      7          1           0       -1.995342    1.789831   -0.016244
      8          8           0        2.310413   -1.188481    0.001268
      9          1           0        3.107101   -0.648281    0.003601
     10          1           0        2.291697    1.500039    0.012563
     11          6           0       -2.558231   -0.886030    0.009609
     12          1           0       -2.528704   -1.860654   -0.482736
     13          1           0       -2.896883   -1.048169    1.038760
     14          1           0       -3.313034   -0.274408   -0.490471
     15          1           0       -0.083495   -2.064393   -0.018605
     16          1           0        0.228999    2.870630    0.003079
 ---------------------------------------------------------------------
                    Distance matrix (angstroms):
                    1          2          3          4          5
     1  C    0.000000
     2  C    1.394646   0.000000
     3  C    2.424914   1.395541   0.000000
     4  C    2.808603   2.419006   1.395618   0.000000
     5  C    2.421089   2.776606   2.405323   1.392663   0.000000
     6  C    1.400502   2.407362   2.784581   2.419266   1.391025
     7  H    2.155380   3.391795   3.869069   3.399311   2.148722
     8  O    3.647510   2.358789   1.367675   2.424275   3.676632
     9  H    4.333674   3.163890   1.912428   2.449303   3.829431
    10  H    3.894761   3.404327   2.157326   1.086160   2.157837
    11  C    1.510585   2.520885   3.808557   4.318956   3.808858
    12  H    2.163561   2.682348   4.058777   4.830729   4.554936
    13  H    2.158908   3.044692   4.294971   4.806331   4.292561
    14  H    2.162558   3.383541   4.555702   4.833153   4.063927
    15  H    2.162506   1.084283   2.135343   3.389499   3.860566
    16  H    3.402872   3.861029   3.386793   2.144164   1.084430
                    6          7          8          9         10
     6  C    0.000000
     7  H    1.084505   0.000000
     8  O    4.151034   5.235473   0.000000
     9  H    4.585662   5.655060   0.962566   0.000000
    10  H    3.404603   4.296919   2.688609   2.297878   0.000000
    11  C    2.530967   2.734546   4.878037   5.670322   5.405103
    12  H    3.394722   3.718619   4.909494   5.785211   5.897105
    13  H    3.050014   3.159122   5.311498   6.105677   5.870929
    14  H    2.693999   2.494451   5.718434   6.449963   5.900400
    15  H    3.400279   4.302349   2.549198   3.490812   4.283420
    16  H    2.148348   2.473094   4.561652   4.546010   2.476557
                   11         12         13         14         15
    11  C    0.000000
    12  H    1.092322   0.000000
    13  H    1.095503   1.763700   0.000000
    14  H    1.092652   1.769579   1.763643   0.000000
    15  H    2.741104   2.497193   3.172678   3.722449   0.000000
    16  H    4.677733   5.497817   5.118668   4.762442   4.944954
                   16
    16  H    0.000000
 Stoichiometry    C7H8O
 Framework group  C1[X(C7H8O)]
 Deg. of freedom    42
 Full point group                 C1      NOp   1
 Largest Abelian subgroup         C1      NOp   1
 Largest concise Abelian subgroup C1      NOp   1
                         Standard orientation:                         
 ---------------------------------------------------------------------
 Center     Atomic      Atomic             Coordinates (Angstroms)
 Number     Number       Type             X           Y           Z
 ---------------------------------------------------------------------
      1          6           0       -1.204866   -0.215361   -0.012141
      2          6           0       -0.039212   -0.981051   -0.009745
      3          6           0        1.215115   -0.369422    0.000709
      4          6           0        1.316150    1.022517    0.007532
      5          6           0        0.153299    1.788846    0.002507
      6          6           0       -1.097863    1.181043   -0.008487
      7          1           0       -1.995341    1.789831   -0.016244
      8          8           0        2.310413   -1.188481    0.001268
      9          1           0        3.107101   -0.648282    0.003601
     10          1           0        2.291697    1.500039    0.012563
     11          6           0       -2.558231   -0.886029    0.009609
     12          1           0       -2.528704   -1.860653   -0.482736
     13          1           0       -2.896883   -1.048168    1.038760
     14          1           0       -3.313034   -0.274407   -0.490471
     15          1           0       -0.083495   -2.064393   -0.018605
     16          1           0        0.229000    2.870630    0.003079
 ---------------------------------------------------------------------
 Rotational constants (GHZ):           3.6664935           1.7962120           1.2146986
 Standard basis: 6-311G(d,p) (5D, 7F)
 There are   200 symmetry adapted cartesian basis functions of A   symmetry.
 There are   192 symmetry adapted basis functions of A   symmetry.
   192 basis functions,   320 primitive gaussians,   200 cartesian basis functions
    29 alpha electrons       29 beta electrons
       nuclear repulsion energy       343.3849832138 Hartrees.
 NAtoms=   16 NActive=   16 NUniq=   16 SFac= 1.00D+00 NAtFMM=   60 NAOKFM=F Big=F
 Integral buffers will be    131072 words long.
 Raffenetti 2 integral format.
 Two-electron integral symmetry is turned on.
 One-electron integrals computed using PRISM.
 NBasis=   192 RedAO= T EigKep=  1.92D-04  NBF=   192
 NBsUse=   192 1.00D-06 EigRej= -1.00D+00 NBFU=   192
 ExpMin= 1.03D-01 ExpMax= 8.59D+03 ExpMxC= 1.30D+03 IAcc=3 IRadAn=         5 AccDes= 0.00D+00
 Harris functional with IExCor=  402 and IRadAn=       5 diagonalized for initial guess.
 HarFok:  IExCor=  402 AccDes= 0.00D+00 IRadAn=         5 IDoV= 1 UseB2=F ITyADJ=14
 ICtDFT=  3500011 ScaDFX=  1.000000  1.000000  1.000000  1.000000
 FoFCou: FMM=F IPFlag=           0 FMFlag=      100000 FMFlg1=           0
         NFxFlg=           0 DoJE=T BraDBF=F KetDBF=T FulRan=T
         wScrn=  0.000000 ICntrl=       500 IOpCl=  0 I1Cent=   200000004 NGrid=           0
         NMat0=    1 NMatS0=      1 NMatT0=    0 NMatD0=    1 NMtDS0=    0 NMtDT0=    0
 Petite list used in FoFCou.
 Initial guess <Sx>= 0.0000 <Sy>= 0.0000 <Sz>= 0.0000 <S**2>= 0.0000 S= 0.0000
 Requested convergence on RMS density matrix=1.00D-08 within 128 cycles.
 Requested convergence on MAX density matrix=1.00D-06.
 Requested convergence on             energy=1.00D-06.
 No special actions if energy rises.
 Integral accuracy reduced to 1.0D-05 until final iterations.
 Initial convergence to 1.0D-05 achieved.  Increase integral accuracy.
 SCF Done:  E(UB3LYP) =  -346.879544022     A.U. after   13 cycles
            NFock= 13  Conv=0.58D-08     -V/T= 2.0040
 <Sx>= 0.0000 <Sy>= 0.0000 <Sz>= 0.0000 <S**2>= 0.0000 S= 0.0000
 <L.S>= 0.000000000000E+00
 Annihilation of the first spin contaminant:
 S**2 before annihilation     0.0000,   after     0.0000

 **********************************************************************

            Population analysis using the SCF density.

 **********************************************************************

 Orbital symmetries:
 Alpha Orbitals:
       Occupied  (A) (A) (A) (A) (A) (A) (A) (A) (A) (A) (A) (A)
                 (A) (A) (A) (A) (A) (A) (A) (A) (A) (A) (A) (A)
                 (A) (A) (A) (A) (A)
       Virtual   (A) (A) (A) (A) (A) (A) (A) (A) (A) (A) (A) (A)
                 (A) (A) (A) (A) (A) (A) (A) (A) (A) (A) (A) (A)
                 (A) (A) (A) (A) (A) (A) (A) (A) (A) (A) (A) (A)
                 (A) (A) (A) (A) (A) (A) (A) (A) (A) (A) (A) (A)
                 (A) (A) (A) (A) (A) (A) (A) (A) (A) (A) (A) (A)
                 (A) (A) (A) (A) (A) (A) (A) (A) (A) (A) (A) (A)
                 (A) (A) (A) (A) (A) (A) (A) (A) (A) (A) (A) (A)
                 (A) (A) (A) (A) (A) (A) (A) (A) (A) (A) (A) (A)
                 (A) (A) (A) (A) (A) (A) (A) (A) (A) (A) (A) (A)
                 (A) (A) (A) (A) (A) (A) (A) (A) (A) (A) (A) (A)
                 (A) (A) (A) (A) (A) (A) (A) (A) (A) (A) (A) (A)
                 (A) (A) (A) (A) (A) (A) (A) (A) (A) (A) (A) (A)
                 (A) (A) (A) (A) (A) (A) (A) (A) (A) (A) (A) (A)
                 (A) (A) (A) (A) (A) (A) (A)
 Beta  Orbitals:
       Occupied  (A) (A) (A) (A) (A) (A) (A) (A) (A) (A) (A) (A)
                 (A) (A) (A) (A) (A) (A) (A) (A) (A) (A) (A) (A)
                 (A) (A) (A) (A) (A)
       Virtual   (A) (A) (A) (A) (A) (A) (A) (A) (A) (A) (A) (A)
                 (A) (A) (A) (A) (A) (A) (A) (A) (A) (A) (A) (A)
                 (A) (A) (A) (A) (A) (A) (A) (A) (A) (A) (A) (A)
                 (A) (A) (A) (A) (A) (A) (A) (A) (A) (A) (A) (A)
                 (A) (A) (A) (A) (A) (A) (A) (A) (A) (A) (A) (A)
                 (A) (A) (A) (A) (A) (A) (A) (A) (A) (A) (A) (A)
                 (A) (A) (A) (A) (A) (A) (A) (A) (A) (A) (A) (A)
                 (A) (A) (A) (A) (A) (A) (A) (A) (A) (A) (A) (A)
                 (A) (A) (A) (A) (A) (A) (A) (A) (A) (A) (A) (A)
                 (A) (A) (A) (A) (A) (A) (A) (A) (A) (A) (A) (A)
                 (A) (A) (A) (A) (A) (A) (A) (A) (A) (A) (A) (A)
                 (A) (A) (A) (A) (A) (A) (A) (A) (A) (A) (A) (A)
                 (A) (A) (A) (A) (A) (A) (A) (A) (A) (A) (A) (A)
                 (A) (A) (A) (A) (A) (A) (A)
 The electronic state is 1-A.
 Alpha  occ. eigenvalues --  -19.14698 -10.23350 -10.18275 -10.17473 -10.17039
 Alpha  occ. eigenvalues --  -10.16663 -10.16353 -10.16233  -1.06286  -0.85525
 Alpha  occ. eigenvalues --   -0.77231  -0.74210  -0.68922  -0.61251  -0.60498
 Alpha  occ. eigenvalues --   -0.52902  -0.49921  -0.47517  -0.43906  -0.42465
 Alpha  occ. eigenvalues --   -0.41393  -0.40330  -0.40131  -0.37566  -0.35972
 Alpha  occ. eigenvalues --   -0.33979  -0.33063  -0.24866  -0.22481
 Alpha virt. eigenvalues --   -0.00823   0.00673   0.03197   0.05241   0.06553
 Alpha virt. eigenvalues --    0.08945   0.10341   0.11491   0.12810   0.14334
 Alpha virt. eigenvalues --    0.17085   0.20531   0.22091   0.25884   0.26941
 Alpha virt. eigenvalues --    0.29968   0.30621   0.33290   0.34145   0.35026
 Alpha virt. eigenvalues --    0.38442   0.39680   0.40969   0.41644   0.43378
 Alpha virt. eigenvalues --    0.44563   0.45285   0.46472   0.47231   0.47918
 Alpha virt. eigenvalues --    0.50225   0.52096   0.54777   0.55982   0.56326
 Alpha virt. eigenvalues --    0.58521   0.60288   0.61603   0.61976   0.62937
 Alpha virt. eigenvalues --    0.63932   0.65256   0.67274   0.69774   0.74942
 Alpha virt. eigenvalues --    0.76550   0.77821   0.80613   0.82930   0.85033
 Alpha virt. eigenvalues --    0.87148   0.89386   0.89761   0.94111   0.96865
 Alpha virt. eigenvalues --    0.99039   1.00896   1.02146   1.05708   1.06922
 Alpha virt. eigenvalues --    1.10933   1.12481   1.19204   1.22616   1.32987
 Alpha virt. eigenvalues --    1.34803   1.35907   1.39508   1.41828   1.45745
 Alpha virt. eigenvalues --    1.46184   1.48270   1.49703   1.51240   1.53595
 Alpha virt. eigenvalues --    1.55467   1.57284   1.58044   1.58615   1.60097
 Alpha virt. eigenvalues --    1.60712   1.65017   1.68691   1.69635   1.74990
 Alpha virt. eigenvalues --    1.75583   1.78185   1.80615   1.85861   1.88720
 Alpha virt. eigenvalues --    1.90369   1.91120   1.91648   1.92865   1.96529
 Alpha virt. eigenvalues --    1.97492   1.98280   2.00865   2.02725   2.02968
 Alpha virt. eigenvalues --    2.11509   2.18218   2.20763   2.27162   2.29752
 Alpha virt. eigenvalues --    2.31203   2.34413   2.37269   2.37881   2.42733
 Alpha virt. eigenvalues --    2.46396   2.47928   2.52021   2.53714   2.54551
 Alpha virt. eigenvalues --    2.56070   2.60387   2.61504   2.64293   2.65476
 Alpha virt. eigenvalues --    2.67153   2.68782   2.69829   2.75595   2.77478
 Alpha virt. eigenvalues --    2.81359   2.84283   2.85042   2.87842   2.91733
 Alpha virt. eigenvalues --    3.02216   3.06038   3.09222   3.13237   3.17298
 Alpha virt. eigenvalues --    3.18473   3.32005   3.35265   3.40764   3.47421
 Alpha virt. eigenvalues --    3.55379   3.60424   3.63570   3.79006   3.81339
 Alpha virt. eigenvalues --    3.85020   3.98756   4.02093   4.10625   4.11560
 Alpha virt. eigenvalues --    4.32232   4.80750   4.84036   5.32989   5.69991
 Alpha virt. eigenvalues --   23.48383  23.88569  23.91709  23.94611  24.07100
 Alpha virt. eigenvalues --   24.09793  24.18416  49.90609
  Beta  occ. eigenvalues --  -19.14698 -10.23350 -10.18275 -10.17473 -10.17039
  Beta  occ. eigenvalues --  -10.16663 -10.16353 -10.16233  -1.06286  -0.85525
  Beta  occ. eigenvalues --   -0.77231  -0.74210  -0.68922  -0.61251  -0.60498
  Beta  occ. eigenvalues --   -0.52902  -0.49921  -0.47517  -0.43906  -0.42465
  Beta  occ. eigenvalues --   -0.41393  -0.40330  -0.40131  -0.37566  -0.35972
  Beta  occ. eigenvalues --   -0.33979  -0.33063  -0.24866  -0.22481
  Beta virt. eigenvalues --   -0.00823   0.00673   0.03197   0.05241   0.06553
  Beta virt. eigenvalues --    0.08945   0.10341   0.11491   0.12810   0.14334
  Beta virt. eigenvalues --    0.17085   0.20531   0.22091   0.25884   0.26941
  Beta virt. eigenvalues --    0.29968   0.30621   0.33290   0.34145   0.35026
  Beta virt. eigenvalues --    0.38442   0.39680   0.40969   0.41644   0.43378
  Beta virt. eigenvalues --    0.44563   0.45285   0.46472   0.47231   0.47918
  Beta virt. eigenvalues --    0.50225   0.52096   0.54777   0.55982   0.56326
  Beta virt. eigenvalues --    0.58521   0.60288   0.61603   0.61976   0.62937
  Beta virt. eigenvalues --    0.63932   0.65256   0.67274   0.69774   0.74942
  Beta virt. eigenvalues --    0.76550   0.77821   0.80613   0.82930   0.85033
  Beta virt. eigenvalues --    0.87148   0.89386   0.89761   0.94111   0.96865
  Beta virt. eigenvalues --    0.99039   1.00896   1.02146   1.05708   1.06922
  Beta virt. eigenvalues --    1.10933   1.12481   1.19204   1.22616   1.32987
  Beta virt. eigenvalues --    1.34803   1.35907   1.39508   1.41828   1.45745
  Beta virt. eigenvalues --    1.46184   1.48270   1.49703   1.51240   1.53595
  Beta virt. eigenvalues --    1.55467   1.57284   1.58044   1.58615   1.60097
  Beta virt. eigenvalues --    1.60712   1.65017   1.68691   1.69635   1.74990
  Beta virt. eigenvalues --    1.75583   1.78185   1.80615   1.85861   1.88720
  Beta virt. eigenvalues --    1.90369   1.91120   1.91648   1.92865   1.96529
  Beta virt. eigenvalues --    1.97492   1.98280   2.00865   2.02725   2.02968
  Beta virt. eigenvalues --    2.11509   2.18218   2.20763   2.27162   2.29752
  Beta virt. eigenvalues --    2.31203   2.34413   2.37269   2.37881   2.42733
  Beta virt. eigenvalues --    2.46396   2.47928   2.52021   2.53714   2.54551
  Beta virt. eigenvalues --    2.56070   2.60387   2.61504   2.64293   2.65476
  Beta virt. eigenvalues --    2.67153   2.68782   2.69829   2.75595   2.77478
  Beta virt. eigenvalues --    2.81359   2.84283   2.85042   2.87842   2.91733
  Beta virt. eigenvalues --    3.02216   3.06038   3.09222   3.13237   3.17298
  Beta virt. eigenvalues --    3.18473   3.32005   3.35265   3.40764   3.47421
  Beta virt. eigenvalues --    3.55379   3.60424   3.63570   3.79006   3.81339
  Beta virt. eigenvalues --    3.85020   3.98756   4.02093   4.10625   4.11560
  Beta virt. eigenvalues --    4.32232   4.80750   4.84036   5.32989   5.69991
  Beta virt. eigenvalues --   23.48383  23.88569  23.91709  23.94611  24.07100
  Beta virt. eigenvalues --   24.09793  24.18416  49.90609
          Condensed to atoms (all electrons):
               1          2          3          4          5          6
     1  C    5.004617   0.535626  -0.047333  -0.036650  -0.050631   0.523325
     2  C    0.535626   4.862717   0.531391  -0.069573  -0.030077  -0.064385
     3  C   -0.047333   0.531391   4.760254   0.428858  -0.016569  -0.040511
     4  C   -0.036650  -0.069573   0.428858   5.122309   0.434489  -0.062890
     5  C   -0.050631  -0.030077  -0.016569   0.434489   4.863404   0.538014
     6  C    0.523325  -0.064385  -0.040511  -0.062890   0.538014   4.858693
     7  H   -0.050028   0.008020  -0.000651   0.009275  -0.040421   0.418404
     8  O    0.002800  -0.054260   0.360568  -0.072367   0.006255   0.000144
     9  H   -0.000560   0.007371  -0.050307  -0.004967   0.001190  -0.000033
    10  H    0.000120   0.005656  -0.051563   0.403468  -0.023418   0.007020
    11  C    0.359485  -0.058679   0.006826  -0.000146   0.006229  -0.057851
    12  H   -0.036337  -0.006390   0.000637  -0.000058  -0.000305   0.005161
    13  H   -0.034377  -0.003012  -0.000317   0.000122  -0.000244  -0.002859
    14  H   -0.036726   0.005591  -0.000434   0.000052   0.000457  -0.006616
    15  H   -0.040635   0.404336  -0.042895   0.011295  -0.001899   0.008411
    16  H    0.007836  -0.000151   0.006441  -0.036578   0.407709  -0.040415
               7          8          9         10         11         12
     1  C   -0.050028   0.002800  -0.000560   0.000120   0.359485  -0.036337
     2  C    0.008020  -0.054260   0.007371   0.005656  -0.058679  -0.006390
     3  C   -0.000651   0.360568  -0.050307  -0.051563   0.006826   0.000637
     4  C    0.009275  -0.072367  -0.004967   0.403468  -0.000146  -0.000058
     5  C   -0.040421   0.006255   0.001190  -0.023418   0.006229  -0.000305
     6  C    0.418404   0.000144  -0.000033   0.007020  -0.057851   0.005161
     7  H    0.588315   0.000011  -0.000010  -0.000328  -0.007383  -0.000005
     8  O    0.000011   7.796119   0.324760  -0.004185  -0.000089  -0.000020
     9  H   -0.000010   0.324760   0.472880   0.005112   0.000031   0.000002
    10  H   -0.000328  -0.004185   0.005112   0.582670   0.000038  -0.000003
    11  C   -0.007383  -0.000089   0.000031   0.000038   4.809269   0.407085
    12  H   -0.000005  -0.000020   0.000002  -0.000003   0.407085   0.571259
    13  H    0.000446   0.000002  -0.000001  -0.000001   0.397436  -0.028428
    14  H    0.002753   0.000003  -0.000001  -0.000001   0.406762  -0.028124
    15  H   -0.000301   0.005211  -0.000872  -0.000462  -0.009240   0.002164
    16  H   -0.008501  -0.000141  -0.000028  -0.008731  -0.000373   0.000021
              13         14         15         16
     1  C   -0.034377  -0.036726  -0.040635   0.007836
     2  C   -0.003012   0.005591   0.404336  -0.000151
     3  C   -0.000317  -0.000434  -0.042895   0.006441
     4  C    0.000122   0.000052   0.011295  -0.036578
     5  C   -0.000244   0.000457  -0.001899   0.407709
     6  C   -0.002859  -0.006616   0.008411  -0.040415
     7  H    0.000446   0.002753  -0.000301  -0.008501
     8  O    0.000002   0.000003   0.005211  -0.000141
     9  H   -0.000001  -0.000001  -0.000872  -0.000028
    10  H   -0.000001  -0.000001  -0.000462  -0.008731
    11  C    0.397436   0.406762  -0.009240  -0.000373
    12  H   -0.028428  -0.028124   0.002164   0.000021
    13  H    0.572086  -0.028604   0.000538   0.000016
    14  H   -0.028604   0.572452   0.000158  -0.000020
    15  H    0.000538   0.000158   0.571441   0.000091
    16  H    0.000016  -0.000020   0.000091   0.581014
          Atomic-Atomic Spin Densities.
               1          2          3          4          5          6
     1  C    0.000000   0.000000   0.000000   0.000000   0.000000   0.000000
     2  C    0.000000   0.000000   0.000000   0.000000   0.000000   0.000000
     3  C    0.000000   0.000000   0.000000   0.000000   0.000000   0.000000
     4  C    0.000000   0.000000   0.000000   0.000000   0.000000   0.000000
     5  C    0.000000   0.000000   0.000000   0.000000   0.000000   0.000000
     6  C    0.000000   0.000000   0.000000   0.000000   0.000000   0.000000
     7  H    0.000000   0.000000   0.000000   0.000000   0.000000   0.000000
     8  O    0.000000   0.000000   0.000000   0.000000   0.000000   0.000000
     9  H    0.000000   0.000000   0.000000   0.000000   0.000000   0.000000
    10  H    0.000000   0.000000   0.000000   0.000000   0.000000   0.000000
    11  C    0.000000   0.000000   0.000000   0.000000   0.000000   0.000000
    12  H    0.000000   0.000000   0.000000   0.000000   0.000000   0.000000
    13  H    0.000000   0.000000   0.000000   0.000000   0.000000   0.000000
    14  H    0.000000   0.000000   0.000000   0.000000   0.000000   0.000000
    15  H    0.000000   0.000000   0.000000   0.000000   0.000000   0.000000
    16  H    0.000000   0.000000   0.000000   0.000000   0.000000   0.000000
               7          8          9         10         11         12
     1  C    0.000000   0.000000   0.000000   0.000000   0.000000   0.000000
     2  C    0.000000   0.000000   0.000000   0.000000   0.000000   0.000000
     3  C    0.000000   0.000000   0.000000   0.000000   0.000000   0.000000
     4  C    0.000000   0.000000   0.000000   0.000000   0.000000   0.000000
     5  C    0.000000   0.000000   0.000000   0.000000   0.000000   0.000000
     6  C    0.000000   0.000000   0.000000   0.000000   0.000000   0.000000
     7  H    0.000000   0.000000   0.000000   0.000000   0.000000   0.000000
     8  O    0.000000   0.000000   0.000000   0.000000   0.000000   0.000000
     9  H    0.000000   0.000000   0.000000   0.000000   0.000000   0.000000
    10  H    0.000000   0.000000   0.000000   0.000000   0.000000   0.000000
    11  C    0.000000   0.000000   0.000000   0.000000   0.000000   0.000000
    12  H    0.000000   0.000000   0.000000   0.000000   0.000000   0.000000
    13  H    0.000000   0.000000   0.000000   0.000000   0.000000   0.000000
    14  H    0.000000   0.000000   0.000000   0.000000   0.000000   0.000000
    15  H    0.000000   0.000000   0.000000   0.000000   0.000000   0.000000
    16  H    0.000000   0.000000   0.000000   0.000000   0.000000   0.000000
              13         14         15         16
     1  C    0.000000   0.000000   0.000000   0.000000
     2  C    0.000000   0.000000   0.000000   0.000000
     3  C    0.000000   0.000000   0.000000   0.000000
     4  C    0.000000   0.000000   0.000000   0.000000
     5  C    0.000000   0.000000   0.000000   0.000000
     6  C    0.000000   0.000000   0.000000   0.000000
     7  H    0.000000   0.000000   0.000000   0.000000
     8  O    0.000000   0.000000   0.000000   0.000000
     9  H    0.000000   0.000000   0.000000   0.000000
    10  H    0.000000   0.000000   0.000000   0.000000
    11  C    0.000000   0.000000   0.000000   0.000000
    12  H    0.000000   0.000000   0.000000   0.000000
    13  H    0.000000   0.000000   0.000000   0.000000
    14  H    0.000000   0.000000   0.000000   0.000000
    15  H    0.000000   0.000000   0.000000   0.000000
    16  H    0.000000   0.000000   0.000000   0.000000
 Mulliken charges and spin densities:
               1          2
     1  C   -0.100533   0.000000
     2  C   -0.074181   0.000000
     3  C    0.155606   0.000000
     4  C   -0.126639   0.000000
     5  C   -0.094184   0.000000
     6  C   -0.083612   0.000000
     7  H    0.080404   0.000000
     8  O   -0.364812   0.000000
     9  H    0.245434   0.000000
    10  H    0.084610   0.000000
    11  C   -0.259400   0.000000
    12  H    0.113341   0.000000
    13  H    0.127198   0.000000
    14  H    0.112298   0.000000
    15  H    0.092658   0.000000
    16  H    0.091811   0.000000
 Sum of Mulliken charges =   0.00000   0.00000
 Mulliken charges and spin densities with hydrogens summed into heavy atoms:
               1          2
     1  C   -0.100533   0.000000
     2  C    0.018477   0.000000
     3  C    0.155606   0.000000
     4  C   -0.042029   0.000000
     5  C   -0.002373   0.000000
     6  C   -0.003208   0.000000
     8  O   -0.119378   0.000000
    11  C    0.093437   0.000000
 Electronic spatial extent (au):  <R**2>=            970.1952
 Charge=              0.0000 electrons
 Dipole moment (field-independent basis, Debye):
    X=              0.4805    Y=              0.9226    Z=              0.0418  Tot=              1.0411
 Quadrupole moment (field-independent basis, Debye-Ang):
   XX=            -38.4023   YY=            -46.7320   ZZ=            -51.1053
   XY=              3.1923   XZ=             -0.0484   YZ=             -0.0107
 Traceless Quadrupole moment (field-independent basis, Debye-Ang):
   XX=              7.0109   YY=             -1.3188   ZZ=             -5.6921
   XY=              3.1923   XZ=             -0.0484   YZ=             -0.0107
 Octapole moment (field-independent basis, Debye-Ang**2):
  XXX=             35.5596  YYY=              1.9548  ZZZ=              0.7232  XYY=             -3.1167
  XXY=              4.4840  XXZ=              0.0964  XZZ=              2.5013  YZZ=             -4.2385
  YYZ=             -0.4693  XYZ=              0.2912
 Hexadecapole moment (field-independent basis, Debye-Ang**3):
 XXXX=           -669.5066 YYYY=           -406.8516 ZZZZ=            -61.8863 XXXY=            -10.4960
 XXXZ=              1.1210 YYYX=              0.8453 YYYZ=              1.6650 ZZZX=             -2.0394
 ZZZY=             -0.7603 XXYY=           -212.3423 XXZZ=           -146.0013 YYZZ=            -88.9321
 XXYZ=             -1.3172 YYXZ=              0.9750 ZZXY=             -2.9342
 N-N= 3.433849832138D+02 E-N=-1.494712604087D+03  KE= 3.454813227415D+02
                          Isotropic Fermi Contact Couplings
        Atom                 a.u.       MegaHertz       Gauss      10(-4) cm-1
     1  C(13)              0.00000       0.00000       0.00000       0.00000
     2  C(13)              0.00000       0.00000       0.00000       0.00000
     3  C(13)              0.00000       0.00000       0.00000       0.00000
     4  C(13)              0.00000       0.00000       0.00000       0.00000
     5  C(13)              0.00000       0.00000       0.00000       0.00000
     6  C(13)              0.00000       0.00000       0.00000       0.00000
     7  H(1)               0.00000       0.00000       0.00000       0.00000
     8  O(17)              0.00000       0.00000       0.00000       0.00000
     9  H(1)               0.00000       0.00000       0.00000       0.00000
    10  H(1)               0.00000       0.00000       0.00000       0.00000
    11  C(13)              0.00000       0.00000       0.00000       0.00000
    12  H(1)               0.00000       0.00000       0.00000       0.00000
    13  H(1)               0.00000       0.00000       0.00000       0.00000
    14  H(1)               0.00000       0.00000       0.00000       0.00000
    15  H(1)               0.00000       0.00000       0.00000       0.00000
    16  H(1)               0.00000       0.00000       0.00000       0.00000
 --------------------------------------------------------
       Center         ----  Spin Dipole Couplings  ----
                      3XX-RR        3YY-RR        3ZZ-RR
 --------------------------------------------------------
     1   Atom        0.000000      0.000000      0.000000
     2   Atom        0.000000      0.000000      0.000000
     3   Atom        0.000000      0.000000      0.000000
     4   Atom        0.000000      0.000000      0.000000
     5   Atom        0.000000      0.000000      0.000000
     6   Atom        0.000000      0.000000      0.000000
     7   Atom        0.000000      0.000000      0.000000
     8   Atom        0.000000      0.000000      0.000000
     9   Atom        0.000000      0.000000      0.000000
    10   Atom        0.000000      0.000000      0.000000
    11   Atom        0.000000      0.000000      0.000000
    12   Atom        0.000000      0.000000      0.000000
    13   Atom        0.000000      0.000000      0.000000
    14   Atom        0.000000      0.000000      0.000000
    15   Atom        0.000000      0.000000      0.000000
    16   Atom        0.000000      0.000000      0.000000
 --------------------------------------------------------
                        XY            XZ            YZ
 --------------------------------------------------------
     1   Atom        0.000000      0.000000      0.000000
     2   Atom        0.000000      0.000000      0.000000
     3   Atom        0.000000      0.000000      0.000000
     4   Atom        0.000000      0.000000      0.000000
     5   Atom        0.000000      0.000000      0.000000
     6   Atom        0.000000      0.000000      0.000000
     7   Atom        0.000000      0.000000      0.000000
     8   Atom        0.000000      0.000000      0.000000
     9   Atom        0.000000      0.000000      0.000000
    10   Atom        0.000000      0.000000      0.000000
    11   Atom        0.000000      0.000000      0.000000
    12   Atom        0.000000      0.000000      0.000000
    13   Atom        0.000000      0.000000      0.000000
    14   Atom        0.000000      0.000000      0.000000
    15   Atom        0.000000      0.000000      0.000000
    16   Atom        0.000000      0.000000      0.000000
 --------------------------------------------------------


 ---------------------------------------------------------------------------------
              Anisotropic Spin Dipole Couplings in Principal Axis System
 ---------------------------------------------------------------------------------

       Atom             a.u.   MegaHertz   Gauss  10(-4) cm-1        Axes

              Baa     0.0000     0.000     0.000     0.000  1.0000  0.0000  0.0000
     1 C(13)  Bbb     0.0000     0.000     0.000     0.000  0.0000  1.0000  0.0000
              Bcc     0.0000     0.000     0.000     0.000  0.0000  0.0000  1.0000
 
              Baa     0.0000     0.000     0.000     0.000  1.0000  0.0000  0.0000
     2 C(13)  Bbb     0.0000     0.000     0.000     0.000  0.0000  1.0000  0.0000
              Bcc     0.0000     0.000     0.000     0.000  0.0000  0.0000  1.0000
 
              Baa     0.0000     0.000     0.000     0.000  1.0000  0.0000  0.0000
     3 C(13)  Bbb     0.0000     0.000     0.000     0.000  0.0000  1.0000  0.0000
              Bcc     0.0000     0.000     0.000     0.000  0.0000  0.0000  1.0000
 
              Baa     0.0000     0.000     0.000     0.000  1.0000  0.0000  0.0000
     4 C(13)  Bbb     0.0000     0.000     0.000     0.000  0.0000  1.0000  0.0000
              Bcc     0.0000     0.000     0.000     0.000  0.0000  0.0000  1.0000
 
              Baa     0.0000     0.000     0.000     0.000  1.0000  0.0000  0.0000
     5 C(13)  Bbb     0.0000     0.000     0.000     0.000  0.0000  1.0000  0.0000
              Bcc     0.0000     0.000     0.000     0.000  0.0000  0.0000  1.0000
 
              Baa     0.0000     0.000     0.000     0.000  1.0000  0.0000  0.0000
     6 C(13)  Bbb     0.0000     0.000     0.000     0.000  0.0000  1.0000  0.0000
              Bcc     0.0000     0.000     0.000     0.000  0.0000  0.0000  1.0000
 
              Baa     0.0000     0.000     0.000     0.000  1.0000  0.0000  0.0000
     7 H(1)   Bbb     0.0000     0.000     0.000     0.000  0.0000  1.0000  0.0000
              Bcc     0.0000     0.000     0.000     0.000  0.0000  0.0000  1.0000
 
              Baa     0.0000     0.000     0.000     0.000  1.0000  0.0000  0.0000
     8 O(17)  Bbb     0.0000     0.000     0.000     0.000  0.0000  1.0000  0.0000
              Bcc     0.0000     0.000     0.000     0.000  0.0000  0.0000  1.0000
 
              Baa     0.0000     0.000     0.000     0.000  1.0000  0.0000  0.0000
     9 H(1)   Bbb     0.0000     0.000     0.000     0.000  0.0000  1.0000  0.0000
              Bcc     0.0000     0.000     0.000     0.000  0.0000  0.0000  1.0000
 
              Baa     0.0000     0.000     0.000     0.000  1.0000  0.0000  0.0000
    10 H(1)   Bbb     0.0000     0.000     0.000     0.000  0.0000  1.0000  0.0000
              Bcc     0.0000     0.000     0.000     0.000  0.0000  0.0000  1.0000
 
              Baa     0.0000     0.000     0.000     0.000  1.0000  0.0000  0.0000
    11 C(13)  Bbb     0.0000     0.000     0.000     0.000  0.0000  1.0000  0.0000
              Bcc     0.0000     0.000     0.000     0.000  0.0000  0.0000  1.0000
 
              Baa     0.0000     0.000     0.000     0.000  1.0000  0.0000  0.0000
    12 H(1)   Bbb     0.0000     0.000     0.000     0.000  0.0000  1.0000  0.0000
              Bcc     0.0000     0.000     0.000     0.000  0.0000  0.0000  1.0000
 
              Baa     0.0000     0.000     0.000     0.000  1.0000  0.0000  0.0000
    13 H(1)   Bbb     0.0000     0.000     0.000     0.000  0.0000  1.0000  0.0000
              Bcc     0.0000     0.000     0.000     0.000  0.0000  0.0000  1.0000
 
              Baa     0.0000     0.000     0.000     0.000  1.0000  0.0000  0.0000
    14 H(1)   Bbb     0.0000     0.000     0.000     0.000  0.0000  1.0000  0.0000
              Bcc     0.0000     0.000     0.000     0.000  0.0000  0.0000  1.0000
 
              Baa     0.0000     0.000     0.000     0.000  1.0000  0.0000  0.0000
    15 H(1)   Bbb     0.0000     0.000     0.000     0.000  0.0000  1.0000  0.0000
              Bcc     0.0000     0.000     0.000     0.000  0.0000  0.0000  1.0000
 
              Baa     0.0000     0.000     0.000     0.000  1.0000  0.0000  0.0000
    16 H(1)   Bbb     0.0000     0.000     0.000     0.000  0.0000  1.0000  0.0000
              Bcc     0.0000     0.000     0.000     0.000  0.0000  0.0000  1.0000
 

 ---------------------------------------------------------------------------------

 1|1|UNPC-PC-20250526LCFF|SP|UB3LYP|6-311G(d,p)|C7H8O1|ADMINISTRATOR|01
 -Dec-2025|0||# ub3lyp/6-311g(d,p) geom=connectivity temperature=823.15
 ||Title Card Required||0,1|C,0,-1.204866,-0.215361,-0.012141|C,0,-0.03
 9212,-0.981051,-0.009745|C,0,1.215115,-0.369422,0.000709|C,0,1.31615,1
 .022517,0.007532|C,0,0.153298,1.788846,0.002507|C,0,-1.097863,1.181043
 ,-0.008487|H,0,-1.995342,1.789831,-0.016244|O,0,2.310413,-1.188481,0.0
 01268|H,0,3.107101,-0.648281,0.003601|H,0,2.291697,1.500039,0.012563|C
 ,0,-2.558231,-0.88603,0.009609|H,0,-2.528704,-1.860654,-0.482736|H,0,-
 2.896883,-1.048169,1.03876|H,0,-3.313034,-0.274408,-0.490471|H,0,-0.08
 3495,-2.064393,-0.018605|H,0,0.228999,2.87063,0.003079||Version=EM64W-
 G16RevA.03|State=1-A|HF=-346.879544|S2=0.|S2-1=0.|S2A=0.|RMSD=5.809e-0
 09|Dipole=0.1890586,0.3629714,0.0164368|Quadrupole=5.2123999,-0.980488
 7,-4.2319111,2.3733954,-0.0359802,-0.0079734|PG=C01 [X(C7H8O1)]||@


 MEMORIES ARE LIKE AN ENGLISH GRAMMER LESSON -
 PRESENT TENSE, AND PAST PERFECT.
 Job cpu time:       0 days  0 hours  0 minutes 21.0 seconds.
 Elapsed time:       0 days  0 hours  0 minutes 21.4 seconds.
 File lengths (MBytes):  RWF=     40 Int=      0 D2E=      0 Chk=      4 Scr=      1
 Normal termination of Gaussian 16 at Mon Dec 01 21:51:19 2025.
