 Entering Link 1 = D:\Gaussian\G16W\l1.exe PID=     43544.
  
 Copyright (c) 1988,1990,1992,1993,1995,1998,2003,2009,2016,
            Gaussian, Inc.  All Rights Reserved.
  
 This is part of the Gaussian(R) 16 program.  It is based on
 the Gaussian(R) 09 system (copyright 2009, Gaussian, Inc.),
 the Gaussian(R) 03 system (copyright 2003, Gaussian, Inc.),
 the Gaussian(R) 98 system (copyright 1998, Gaussian, Inc.),
 the Gaussian(R) 94 system (copyright 1995, Gaussian, Inc.),
 the Gaussian 92(TM) system (copyright 1992, Gaussian, Inc.),
 the Gaussian 90(TM) system (copyright 1990, Gaussian, Inc.),
 the Gaussian 88(TM) system (copyright 1988, Gaussian, Inc.),
 the Gaussian 86(TM) system (copyright 1986, Carnegie Mellon
 University), and the Gaussian 82(TM) system (copyright 1983,
 Carnegie Mellon University). Gaussian is a federally registered
 trademark of Gaussian, Inc.
  
 This software contains proprietary and confidential information,
 including trade secrets, belonging to Gaussian, Inc.
  
 This software is provided under written license and may be
 used, copied, transmitted, or stored only in accord with that
 written license.
  
 The following legend is applicable only to US Government
 contracts under FAR:
  
                    RESTRICTED RIGHTS LEGEND
  
 Use, reproduction and disclosure by the US Government is
 subject to restrictions as set forth in subparagraphs (a)
 and (c) of the Commercial Computer Software - Restricted
 Rights clause in FAR 52.227-19.
  
 Gaussian, Inc.
 340 Quinnipiac St., Bldg. 40, Wallingford CT 06492
  
  
 ---------------------------------------------------------------
 Warning -- This program may not be used in any manner that
 competes with the business of Gaussian, Inc. or will provide
 assistance to any competitor of Gaussian, Inc.  The licensee
 of this program is prohibited from giving any competitor of
 Gaussian, Inc. access to this program.  By using this program,
 the user acknowledges that Gaussian, Inc. is engaged in the
 business of creating and licensing software in the field of
 computational chemistry and represents and warrants to the
 licensee that it is not a competitor of Gaussian, Inc. and that
 it will not use this program in any manner prohibited above.
 ---------------------------------------------------------------
  

 Cite this work as:
 Gaussian 16, Revision A.03,
 M. J. Frisch, G. W. Trucks, H. B. Schlegel, G. E. Scuseria, 
 M. A. Robb, J. R. Cheeseman, G. Scalmani, V. Barone, 
 G. A. Petersson, H. Nakatsuji, X. Li, M. Caricato, A. V. Marenich, 
 J. Bloino, B. G. Janesko, R. Gomperts, B. Mennucci, H. P. Hratchian, 
 J. V. Ortiz, A. F. Izmaylov, J. L. Sonnenberg, D. Williams-Young, 
 F. Ding, F. Lipparini, F. Egidi, J. Goings, B. Peng, A. Petrone, 
 T. Henderson, D. Ranasinghe, V. G. Zakrzewski, J. Gao, N. Rega, 
 G. Zheng, W. Liang, M. Hada, M. Ehara, K. Toyota, R. Fukuda, 
 J. Hasegawa, M. Ishida, T. Nakajima, Y. Honda, O. Kitao, H. Nakai, 
 T. Vreven, K. Throssell, J. A. Montgomery, Jr., J. E. Peralta, 
 F. Ogliaro, M. J. Bearpark, J. J. Heyd, E. N. Brothers, K. N. Kudin, 
 V. N. Staroverov, T. A. Keith, R. Kobayashi, J. Normand, 
 K. Raghavachari, A. P. Rendell, J. C. Burant, S. S. Iyengar, 
 J. Tomasi, M. Cossi, J. M. Millam, M. Klene, C. Adamo, R. Cammi, 
 J. W. Ochterski, R. L. Martin, K. Morokuma, O. Farkas, 
 J. B. Foresman, and D. J. Fox, Gaussian, Inc., Wallingford CT, 2016.
 
 ******************************************
 Gaussian 16:  EM64W-G16RevA.03 17-Dec-2016
                03-Dec-2025 
 ******************************************
 %nprocs=   4
 Will use up to    4 processors via shared memory.
 ------------------------------------
 #P B3LYP/6-31G* SCF=conver=7 out=wfn
 ------------------------------------
 1/38=1,172=1/1;
 2/12=2,17=6,18=5,40=1/2;
 3/5=1,6=6,7=1,11=2,25=1,30=1,74=-5/1,2,3;
 4//1;
 5/5=2,6=7,38=5/2;
 6/7=2,8=2,9=2,10=2,28=1/1;
 99/5=1,6=100,9=1/99;
 Leave Link    1 at Wed Dec 03 16:57:43 2025, MaxMem=           0 cpu:               0.0 elap:               0.1
 (Enter D:\Gaussian\G16W\l101.exe)
 ----------------------------------------------------
 Generated by Multiwfn (http://sobereva.com/multiwfn)
 ----------------------------------------------------
 Symbolic Z-matrix:
 Charge = -1 Multiplicity = 2
 C                     1.05216   1.14074  -0.26032 
 C                    -0.43803   1.27993  -0.38044 
 C                    -1.21643  -0.00872  -0.18056 
 C                    -0.46537  -1.25916   0.03119 
 C                     0.88515  -1.25894   0.09894 
 C                     1.66761  -0.03547  -0.04396 
 H                     1.40041  -2.19794   0.27355 
 O                    -1.22389  -2.36386   0.17637 
 O                    -2.4417   -0.05702  -0.19745 
 H                    -2.14271  -2.04822   0.09397 
 H                    -0.66024   1.56571  -1.42158 
 C                    -1.00747   2.39771   0.52119 
 H                    -0.56296   3.36095   0.26179 
 H                    -2.08883   2.45941   0.39577 
 H                    -0.78814   2.19158   1.57146 
 H                     1.63446   2.05082  -0.36835 
 C                     3.16603  -0.15894   0.06219 
 H                     3.45757  -0.57738   1.03134 
 H                     3.55923  -0.8312   -0.70786 
 H                     3.65414   0.8103   -0.05088 
 
 ITRead=  0  0  0  0  0  0  0  0  0  0  0  0  0  0  0  0  0  0  0  0
 MicOpt= -1 -1 -1 -1 -1 -1 -1 -1 -1 -1 -1 -1 -1 -1 -1 -1 -1 -1 -1 -1
 NAtoms=     20 NQM=       20 NQMF=       0 NMMI=      0 NMMIF=      0
                NMic=       0 NMicF=      0.
                    Isotopes and Nuclear Properties:
 (Nuclear quadrupole moments (NQMom) in fm**2, nuclear magnetic moments (NMagM)
  in nuclear magnetons)

  Atom         1           2           3           4           5           6           7           8           9          10
 IAtWgt=          12          12          12          12          12          12           1          16          16           1
 AtmWgt=  12.0000000  12.0000000  12.0000000  12.0000000  12.0000000  12.0000000   1.0078250  15.9949146  15.9949146   1.0078250
 NucSpn=           0           0           0           0           0           0           1           0           0           1
 AtZEff=   0.0000000   0.0000000   0.0000000   0.0000000   0.0000000   0.0000000   0.0000000   0.0000000   0.0000000   0.0000000
 NQMom=    0.0000000   0.0000000   0.0000000   0.0000000   0.0000000   0.0000000   0.0000000   0.0000000   0.0000000   0.0000000
 NMagM=    0.0000000   0.0000000   0.0000000   0.0000000   0.0000000   0.0000000   2.7928460   0.0000000   0.0000000   2.7928460
 AtZNuc=   6.0000000   6.0000000   6.0000000   6.0000000   6.0000000   6.0000000   1.0000000   8.0000000   8.0000000   1.0000000

  Atom        11          12          13          14          15          16          17          18          19          20
 IAtWgt=           1          12           1           1           1           1          12           1           1           1
 AtmWgt=   1.0078250  12.0000000   1.0078250   1.0078250   1.0078250   1.0078250  12.0000000   1.0078250   1.0078250   1.0078250
 NucSpn=           1           0           1           1           1           1           0           1           1           1
 AtZEff=   0.0000000   0.0000000   0.0000000   0.0000000   0.0000000   0.0000000   0.0000000   0.0000000   0.0000000   0.0000000
 NQMom=    0.0000000   0.0000000   0.0000000   0.0000000   0.0000000   0.0000000   0.0000000   0.0000000   0.0000000   0.0000000
 NMagM=    2.7928460   0.0000000   2.7928460   2.7928460   2.7928460   2.7928460   0.0000000   2.7928460   2.7928460   2.7928460
 AtZNuc=   1.0000000   6.0000000   1.0000000   1.0000000   1.0000000   1.0000000   6.0000000   1.0000000   1.0000000   1.0000000
 Leave Link  101 at Wed Dec 03 16:57:43 2025, MaxMem=   104857600 cpu:               0.0 elap:               0.1
 (Enter D:\Gaussian\G16W\l202.exe)
                          Input orientation:                          
 ---------------------------------------------------------------------
 Center     Atomic      Atomic             Coordinates (Angstroms)
 Number     Number       Type             X           Y           Z
 ---------------------------------------------------------------------
      1          6           0        1.052157    1.140741   -0.260316
      2          6           0       -0.438030    1.279929   -0.380437
      3          6           0       -1.216434   -0.008717   -0.180563
      4          6           0       -0.465371   -1.259155    0.031188
      5          6           0        0.885148   -1.258939    0.098941
      6          6           0        1.667613   -0.035471   -0.043956
      7          1           0        1.400409   -2.197941    0.273554
      8          8           0       -1.223890   -2.363855    0.176368
      9          8           0       -2.441702   -0.057016   -0.197449
     10          1           0       -2.142710   -2.048218    0.093965
     11          1           0       -0.660237    1.565713   -1.421577
     12          6           0       -1.007475    2.397709    0.521193
     13          1           0       -0.562955    3.360948    0.261793
     14          1           0       -2.088833    2.459411    0.395772
     15          1           0       -0.788143    2.191577    1.571459
     16          1           0        1.634459    2.050820   -0.368347
     17          6           0        3.166027   -0.158942    0.062188
     18          1           0        3.457566   -0.577376    1.031336
     19          1           0        3.559227   -0.831199   -0.707862
     20          1           0        3.654138    0.810301   -0.050877
 ---------------------------------------------------------------------
                    Distance matrix (angstroms):
                    1          2          3          4          5
     1  C    0.000000
     2  C    1.501486   0.000000
     3  C    2.544429   1.518707   0.000000
     4  C    2.854359   2.572378   1.473950   0.000000
     5  C    2.432164   2.902836   2.461265   1.352217   0.000000
     6  C    1.345018   2.505440   2.887404   2.460217   1.459296
     7  H    3.398984   3.987874   3.441917   2.102664   1.085223
     8  O    4.201580   3.768922   2.382043   1.347884   2.382200
     9  O    3.693998   2.415700   1.226336   2.324499   3.549704
    10  H    4.527930   3.769291   2.256749   1.854731   3.129043
    11  H    2.112208   1.102280   2.080457   3.182511   3.560737
    12  C    2.536298   1.544874   2.515355   3.729160   4.139009
    13  H    2.794728   2.181446   3.460832   4.626884   4.844262
    14  H    3.469173   2.172287   2.680466   4.073854   4.770618
    15  H    2.801135   2.182563   2.845050   3.792647   4.107831
    16  H    1.085813   2.211251   3.522009   3.940158   3.425541
    17  C    2.502325   3.905828   4.391749   3.794533   2.532539
    18  H    3.225877   4.540744   4.861928   4.105430   2.819791
    19  H    3.220907   4.532343   4.874573   4.114211   2.825702
    20  H    2.631228   4.132191   4.940656   4.610828   3.459986
                    6          7          8          9         10
     6  C    0.000000
     7  H    2.201928   0.000000
     8  O    3.718965   2.631334   0.000000
     9  O    4.112237   4.423485   2.635206   0.000000
    10  H    4.311465   3.550825   0.975011   2.034503   0.000000
    11  H    3.143329   4.613548   4.279327   2.702842   4.189880
    12  C    3.660035   5.194153   4.778936   2.932427   4.608422
    13  H    4.074872   5.895438   5.763463   3.927222   5.637630
    14  H    4.530859   5.820711   4.905116   2.609374   4.518043
    15  H    3.687824   5.073676   4.784152   3.304461   4.689744
    16  H    2.111620   4.303346   5.287365   4.592087   5.593107
    17  C    1.507235   2.705476   4.913863   5.614662   5.634986
    18  H    2.157277   2.726235   5.083159   6.048310   5.865589
    19  H    2.156886   2.737089   5.099912   6.072152   5.885248
    20  H    2.159088   3.772807   5.824265   6.158976   6.464948
                   11         12         13         14         15
    11  H    0.000000
    12  C    2.141763   0.000000
    13  H    2.462939   1.092115   0.000000
    14  H    2.478374   1.090354   1.777364   0.000000
    15  H    3.060446   1.092545   1.770131   1.773632   0.000000
    16  H    2.571041   2.809169   2.634794   3.822791   3.106712
    17  C    4.451549   4.915818   5.131742   5.880528   4.841312
    18  H    5.250325   5.389617   5.680421   6.355199   5.097537
    19  H    4.904942   5.726359   5.958751   6.629231   5.764729
    20  H    4.589477   4.957597   4.938364   5.991726   4.926841
                   16         17         18         19         20
    16  H    0.000000
    17  C    2.722886   0.000000
    18  H    3.491453   1.095139   0.000000
    19  H    3.482246   1.095223   1.760560   0.000000
    20  H    2.391397   1.091086   1.770727   1.770638   0.000000
 Stoichiometry    C8H10O2(1-,2)
 Framework group  C1[X(C8H10O2)]
 Deg. of freedom    54
 Full point group                 C1      NOp   1
 Largest Abelian subgroup         C1      NOp   1
 Largest concise Abelian subgroup C1      NOp   1
                         Standard orientation:                         
 ---------------------------------------------------------------------
 Center     Atomic      Atomic             Coordinates (Angstroms)
 Number     Number       Type             X           Y           Z
 ---------------------------------------------------------------------
      1          6           0        1.052157    1.140741   -0.260316
      2          6           0       -0.438030    1.279929   -0.380437
      3          6           0       -1.216434   -0.008717   -0.180563
      4          6           0       -0.465371   -1.259155    0.031188
      5          6           0        0.885148   -1.258939    0.098941
      6          6           0        1.667613   -0.035471   -0.043956
      7          1           0        1.400409   -2.197941    0.273554
      8          8           0       -1.223890   -2.363855    0.176368
      9          8           0       -2.441702   -0.057016   -0.197449
     10          1           0       -2.142710   -2.048218    0.093965
     11          1           0       -0.660237    1.565713   -1.421577
     12          6           0       -1.007475    2.397709    0.521193
     13          1           0       -0.562955    3.360948    0.261793
     14          1           0       -2.088833    2.459411    0.395772
     15          1           0       -0.788143    2.191577    1.571459
     16          1           0        1.634459    2.050820   -0.368347
     17          6           0        3.166027   -0.158941    0.062188
     18          1           0        3.457566   -0.577375    1.031336
     19          1           0        3.559227   -0.831198   -0.707862
     20          1           0        3.654138    0.810302   -0.050877
 ---------------------------------------------------------------------
 Rotational constants (GHZ):           1.7719256           1.2700848           0.7715539
 Leave Link  202 at Wed Dec 03 16:57:43 2025, MaxMem=   104857600 cpu:               0.0 elap:               0.1
 (Enter D:\Gaussian\G16W\l301.exe)
 Standard basis: 6-31G(d) (6D, 7F)
 Ernie: Thresh=  0.10000D-02 Tol=  0.10000D-05 Strict=F.
 There are   170 symmetry adapted cartesian basis functions of A   symmetry.
 There are   170 symmetry adapted basis functions of A   symmetry.
   170 basis functions,   320 primitive gaussians,   170 cartesian basis functions
    38 alpha electrons       37 beta electrons
       nuclear repulsion energy       518.4436007741 Hartrees.
 IExCor=  402 DFT=T Ex+Corr=B3LYP ExCW=0 ScaHFX=  0.200000
 ScaDFX=  0.800000  0.720000  1.000000  0.810000 ScalE2=  1.000000  1.000000
 IRadAn=      5 IRanWt=     -1 IRanGd=            0 ICorTp=0 IEmpDi=  4
 NAtoms=   20 NActive=   20 NUniq=   20 SFac= 1.00D+00 NAtFMM=   60 NAOKFM=F Big=F
 Integral buffers will be    131072 words long.
 Raffenetti 2 integral format.
 Two-electron integral symmetry is turned on.
 Leave Link  301 at Wed Dec 03 16:57:43 2025, MaxMem=   104857600 cpu:               0.0 elap:               0.1
 (Enter D:\Gaussian\G16W\l302.exe)
 NPDir=0 NMtPBC=     1 NCelOv=     1 NCel=       1 NClECP=     1 NCelD=      1
         NCelK=      1 NCelE2=     1 NClLst=     1 CellRange=     0.0.
 One-electron integrals computed using PRISM.
 One-electron integral symmetry used in STVInt
 NBasis=   170 RedAO= T EigKep=  5.43D-04  NBF=   170
 NBsUse=   170 1.00D-06 EigRej= -1.00D+00 NBFU=   170
 Precomputing XC quadrature grid using
 IXCGrd= 4 IRadAn=           5 IRanWt=          -1 IRanGd=           0 AccXCQ= 0.00D+00.
 Generated NRdTot=       0 NPtTot=           0 NUsed=           0 NTot=          32
 NSgBfM=   170   170   170   170   170 MxSgAt=    20 MxSgA2=    20.
 Leave Link  302 at Wed Dec 03 16:57:44 2025, MaxMem=   104857600 cpu:               0.0 elap:               0.4
 (Enter D:\Gaussian\G16W\l303.exe)
 DipDrv:  MaxL=1.
 Leave Link  303 at Wed Dec 03 16:57:44 2025, MaxMem=   104857600 cpu:               0.0 elap:               0.1
 (Enter D:\Gaussian\G16W\l401.exe)
 ExpMin= 1.61D-01 ExpMax= 5.48D+03 ExpMxC= 8.25D+02 IAcc=3 IRadAn=         5 AccDes= 0.00D+00
 Harris functional with IExCor=  402 and IRadAn=       5 diagonalized for initial guess.
 HarFok:  IExCor=  402 AccDes= 0.00D+00 IRadAn=         5 IDoV= 1 UseB2=F ITyADJ=14
 ICtDFT=  3500011 ScaDFX=  1.000000  1.000000  1.000000  1.000000
 FoFCou: FMM=F IPFlag=           0 FMFlag=      100000 FMFlg1=           0
         NFxFlg=           0 DoJE=T BraDBF=F KetDBF=T FulRan=T
         wScrn=  0.000000 ICntrl=       500 IOpCl=  0 I1Cent=   200000004 NGrid=           0
         NMat0=    1 NMatS0=      1 NMatT0=    0 NMatD0=    1 NMtDS0=    0 NMtDT0=    0
 Petite list used in FoFCou.
 Harris En= -461.529317756989    
 JPrj=0 DoOrth=F DoCkMO=F.
 Initial guess <Sx>= 0.0000 <Sy>= 0.0000 <Sz>= 0.5000 <S**2>= 0.7500 S= 0.5000
 Leave Link  401 at Wed Dec 03 16:57:45 2025, MaxMem=   104857600 cpu:               1.0 elap:               1.2
 (Enter D:\Gaussian\G16W\l502.exe)
 Integral symmetry usage will be decided dynamically.
 UHF open shell SCF:
 Using DIIS extrapolation, IDIIS=  1040.
 NGot=   104857600 LenX=   104796738 LenY=   104767397
 Requested convergence on RMS density matrix=1.00D-07 within 128 cycles.
 Requested convergence on MAX density matrix=1.00D-05.
 Requested convergence on             energy=1.00D-05.
 No special actions if energy rises.
 Fock matrices will be formed incrementally for  20 cycles.
 Integral accuracy reduced to 1.0D-05 until final iterations.

 Cycle   1  Pass 0  IDiag  1:
 FoFJK:  IHMeth= 1 ICntrl=       0 DoSepK=F KAlg= 0 I1Cent=           0 FoldK=F
 IRaf= 940000000 NMat=       1 IRICut=       1 DoRegI=T DoRafI=F ISym2E= 0 IDoP0=0 IntGTp=1.
 FoFCou: FMM=F IPFlag=           0 FMFlag=      100000 FMFlg1=           0
         NFxFlg=           0 DoJE=F BraDBF=F KetDBF=F FulRan=T
         wScrn=  0.000000 ICntrl=         0 IOpCl=  1 I1Cent=           0 NGrid=           0
         NMat0=    1 NMatS0=      1 NMatT0=    0 NMatD0=    1 NMtDS0=    0 NMtDT0=    0
 Symmetry not used in FoFCou.
 E= -460.907971109610    
 DIIS: error= 3.81D-02 at cycle   1 NSaved=   1.
 NSaved= 1 IEnMin= 1 EnMin= -460.907971109610     IErMin= 1 ErrMin= 3.81D-02
 ErrMax= 3.81D-02  0.00D+00 EMaxC= 1.00D-01 BMatC= 1.49D+00 BMatP= 1.49D+00
 IDIUse=3 WtCom= 6.19D-01 WtEn= 3.81D-01
 Coeff-Com:  0.100D+01
 Coeff-En:   0.100D+01
 Coeff:      0.100D+01
 Gap=     0.132 Goal=   None    Shift=    0.000
 Gap=     0.146 Goal=   None    Shift=    0.000
 GapD=    0.132 DampG=1.000 DampE=0.500 DampFc=0.5000 IDamp=-1.
 Damping current iteration by 5.00D-01
 RMSDP=1.09D-02 MaxDP=3.06D-01              OVMax= 2.15D-01

 Cycle   2  Pass 0  IDiag  1:
 RMSU=  5.42D-03    CP:  9.85D-01
 E= -461.076618460315     Delta-E=       -0.168647350706 Rises=F Damp=T
 DIIS: error= 5.72D-03 at cycle   2 NSaved=   2.
 NSaved= 2 IEnMin= 2 EnMin= -461.076618460315     IErMin= 2 ErrMin= 5.72D-03
 ErrMax= 5.72D-03  0.00D+00 EMaxC= 1.00D-01 BMatC= 7.45D-02 BMatP= 1.49D+00
 IDIUse=3 WtCom= 9.43D-01 WtEn= 5.72D-02
 Coeff-Com:  0.844D-01 0.916D+00
 Coeff-En:   0.122D+00 0.878D+00
 Coeff:      0.866D-01 0.913D+00
 Gap=     0.162 Goal=   None    Shift=    0.000
 Gap=     0.159 Goal=   None    Shift=    0.000
 RMSDP=2.33D-03 MaxDP=7.23D-02 DE=-1.69D-01 OVMax= 1.48D-01

 Cycle   3  Pass 0  IDiag  1:
 RMSU=  2.03D-03    CP:  9.78D-01  7.92D-01
 E= -461.277770694540     Delta-E=       -0.201152234225 Rises=F Damp=F
 DIIS: error= 8.61D-03 at cycle   3 NSaved=   3.
 NSaved= 3 IEnMin= 3 EnMin= -461.277770694540     IErMin= 2 ErrMin= 5.72D-03
 ErrMax= 8.61D-03  0.00D+00 EMaxC= 1.00D-01 BMatC= 6.55D-02 BMatP= 7.45D-02
 IDIUse=3 WtCom= 9.14D-01 WtEn= 8.61D-02
 Coeff-Com:  0.146D-01 0.481D+00 0.505D+00
 Coeff-En:   0.000D+00 0.000D+00 0.100D+01
 Coeff:      0.134D-01 0.439D+00 0.547D+00
 Gap=     0.123 Goal=   None    Shift=    0.000
 Gap=     0.161 Goal=   None    Shift=    0.000
 RMSDP=1.22D-03 MaxDP=4.43D-02 DE=-2.01D-01 OVMax= 6.96D-02

 Cycle   4  Pass 0  IDiag  1:
 RMSU=  1.05D-03    CP:  9.79D-01  7.84D-01  6.91D-01
 E= -461.286629009176     Delta-E=       -0.008858314636 Rises=F Damp=F
 DIIS: error= 5.24D-03 at cycle   4 NSaved=   4.
 NSaved= 4 IEnMin= 4 EnMin= -461.286629009176     IErMin= 4 ErrMin= 5.24D-03
 ErrMax= 5.24D-03  0.00D+00 EMaxC= 1.00D-01 BMatC= 2.27D-02 BMatP= 6.55D-02
 IDIUse=3 WtCom= 9.48D-01 WtEn= 5.24D-02
 Coeff-Com: -0.431D-02 0.680D-01 0.371D+00 0.565D+00
 Coeff-En:   0.000D+00 0.000D+00 0.298D+00 0.702D+00
 Coeff:     -0.409D-02 0.644D-01 0.367D+00 0.572D+00
 Gap=     0.124 Goal=   None    Shift=    0.000
 Gap=     0.157 Goal=   None    Shift=    0.000
 RMSDP=5.94D-04 MaxDP=1.99D-02 DE=-8.86D-03 OVMax= 3.79D-02

 Cycle   5  Pass 0  IDiag  1:
 RMSU=  2.93D-04    CP:  9.79D-01  7.91D-01  7.82D-01  5.39D-01
 E= -461.291064123612     Delta-E=       -0.004435114436 Rises=F Damp=F
 DIIS: error= 9.34D-04 at cycle   5 NSaved=   5.
 NSaved= 5 IEnMin= 5 EnMin= -461.291064123612     IErMin= 5 ErrMin= 9.34D-04
 ErrMax= 9.34D-04  0.00D+00 EMaxC= 1.00D-01 BMatC= 1.37D-03 BMatP= 2.27D-02
 IDIUse=3 WtCom= 9.91D-01 WtEn= 9.34D-03
 Coeff-Com: -0.296D-02 0.153D-01 0.190D+00 0.344D+00 0.453D+00
 Coeff-En:   0.000D+00 0.000D+00 0.000D+00 0.000D+00 0.100D+01
 Coeff:     -0.293D-02 0.151D-01 0.189D+00 0.341D+00 0.458D+00
 Gap=     0.123 Goal=   None    Shift=    0.000
 Gap=     0.158 Goal=   None    Shift=    0.000
 RMSDP=1.82D-04 MaxDP=5.48D-03 DE=-4.44D-03 OVMax= 1.42D-02

 Cycle   6  Pass 0  IDiag  1:
 RMSU=  9.44D-05    CP:  9.78D-01  7.91D-01  7.92D-01  6.05D-01  5.28D-01
 E= -461.291409199617     Delta-E=       -0.000345076005 Rises=F Damp=F
 DIIS: error= 2.48D-04 at cycle   6 NSaved=   6.
 NSaved= 6 IEnMin= 6 EnMin= -461.291409199617     IErMin= 6 ErrMin= 2.48D-04
 ErrMax= 2.48D-04  0.00D+00 EMaxC= 1.00D-01 BMatC= 8.87D-05 BMatP= 1.37D-03
 IDIUse=3 WtCom= 9.98D-01 WtEn= 2.48D-03
 Coeff-Com: -0.717D-03-0.286D-02 0.409D-01 0.874D-01 0.224D+00 0.651D+00
 Coeff-En:   0.000D+00 0.000D+00 0.000D+00 0.000D+00 0.000D+00 0.100D+01
 Coeff:     -0.716D-03-0.285D-02 0.408D-01 0.871D-01 0.224D+00 0.652D+00
 Gap=     0.123 Goal=   None    Shift=    0.000
 Gap=     0.158 Goal=   None    Shift=    0.000
 RMSDP=5.36D-05 MaxDP=1.65D-03 DE=-3.45D-04 OVMax= 4.75D-03

 Cycle   7  Pass 0  IDiag  1:
 RMSU=  3.69D-05    CP:  9.78D-01  7.90D-01  7.94D-01  6.03D-01  6.34D-01
                    CP:  7.61D-01
 E= -461.291439568767     Delta-E=       -0.000030369150 Rises=F Damp=F
 DIIS: error= 1.05D-04 at cycle   7 NSaved=   7.
 NSaved= 7 IEnMin= 7 EnMin= -461.291439568767     IErMin= 7 ErrMin= 1.05D-04
 ErrMax= 1.05D-04  0.00D+00 EMaxC= 1.00D-01 BMatC= 1.24D-05 BMatP= 8.87D-05
 IDIUse=3 WtCom= 9.99D-01 WtEn= 1.05D-03
 Coeff-Com:  0.167D-03-0.278D-02-0.709D-02-0.106D-01 0.973D-02 0.251D+00
 Coeff-Com:  0.760D+00
 Coeff-En:   0.000D+00 0.000D+00 0.000D+00 0.000D+00 0.000D+00 0.000D+00
 Coeff-En:   0.100D+01
 Coeff:      0.167D-03-0.277D-02-0.708D-02-0.106D-01 0.972D-02 0.250D+00
 Coeff:      0.760D+00
 Gap=     0.123 Goal=   None    Shift=    0.000
 Gap=     0.158 Goal=   None    Shift=    0.000
 RMSDP=2.30D-05 MaxDP=7.72D-04 DE=-3.04D-05 OVMax= 1.49D-03

 Cycle   8  Pass 0  IDiag  1:
 RMSU=  1.64D-05    CP:  9.78D-01  7.89D-01  7.96D-01  6.06D-01  6.44D-01
                    CP:  9.10D-01  1.09D+00
 E= -461.291445798317     Delta-E=       -0.000006229550 Rises=F Damp=F
 DIIS: error= 5.14D-05 at cycle   8 NSaved=   8.
 NSaved= 8 IEnMin= 8 EnMin= -461.291445798317     IErMin= 8 ErrMin= 5.14D-05
 ErrMax= 5.14D-05  0.00D+00 EMaxC= 1.00D-01 BMatC= 3.28D-06 BMatP= 1.24D-05
 IDIUse=1 WtCom= 1.00D+00 WtEn= 0.00D+00
 Coeff-Com:  0.374D-03-0.428D-03-0.167D-01-0.351D-01-0.835D-01-0.103D+00
 Coeff-Com:  0.332D+00 0.905D+00
 Coeff:      0.374D-03-0.428D-03-0.167D-01-0.351D-01-0.835D-01-0.103D+00
 Coeff:      0.332D+00 0.905D+00
 Gap=     0.124 Goal=   None    Shift=    0.000
 Gap=     0.158 Goal=   None    Shift=    0.000
 RMSDP=1.66D-05 MaxDP=6.72D-04 DE=-6.23D-06 OVMax= 1.37D-03

 Cycle   9  Pass 0  IDiag  1:
 RMSU=  7.57D-06    CP:  9.78D-01  7.89D-01  7.96D-01  6.05D-01  6.63D-01
                    CP:  9.97D-01  1.38D+00  1.17D+00
 E= -461.291448223968     Delta-E=       -0.000002425651 Rises=F Damp=F
 DIIS: error= 2.51D-05 at cycle   9 NSaved=   9.
 NSaved= 9 IEnMin= 9 EnMin= -461.291448223968     IErMin= 9 ErrMin= 2.51D-05
 ErrMax= 2.51D-05  0.00D+00 EMaxC= 1.00D-01 BMatC= 6.63D-07 BMatP= 3.28D-06
 IDIUse=1 WtCom= 1.00D+00 WtEn= 0.00D+00
 Coeff-Com:  0.132D-03 0.313D-03-0.652D-02-0.147D-01-0.432D-01-0.843D-01
 Coeff-Com:  0.234D-01 0.417D+00 0.708D+00
 Coeff:      0.132D-03 0.313D-03-0.652D-02-0.147D-01-0.432D-01-0.843D-01
 Coeff:      0.234D-01 0.417D+00 0.708D+00
 Gap=     0.124 Goal=   None    Shift=    0.000
 Gap=     0.158 Goal=   None    Shift=    0.000
 RMSDP=6.44D-06 MaxDP=3.31D-04 DE=-2.43D-06 OVMax= 6.55D-04

 Initial convergence to 1.0D-05 achieved.  Increase integral accuracy.
 Cycle  10  Pass 1  IDiag  1:
 E= -461.291458226365     Delta-E=       -0.000010002398 Rises=F Damp=F
 DIIS: error= 1.16D-05 at cycle   1 NSaved=   1.
 NSaved= 1 IEnMin= 1 EnMin= -461.291458226365     IErMin= 1 ErrMin= 1.16D-05
 ErrMax= 1.16D-05  0.00D+00 EMaxC= 1.00D-01 BMatC= 2.50D-07 BMatP= 2.50D-07
 IDIUse=1 WtCom= 1.00D+00 WtEn= 0.00D+00
 Coeff-Com:  0.100D+01
 Coeff:      0.100D+01
 Gap=     0.124 Goal=   None    Shift=    0.000
 Gap=     0.158 Goal=   None    Shift=    0.000
 RMSDP=6.44D-06 MaxDP=3.31D-04 DE=-1.00D-05 OVMax= 3.17D-04

 Cycle  11  Pass 1  IDiag  1:
 RMSU=  6.19D-06    CP:  1.00D+00
 E= -461.291458225907     Delta-E=        0.000000000459 Rises=F Damp=F
 DIIS: error= 1.77D-05 at cycle   2 NSaved=   2.
 NSaved= 2 IEnMin= 1 EnMin= -461.291458226365     IErMin= 1 ErrMin= 1.16D-05
 ErrMax= 1.77D-05  0.00D+00 EMaxC= 1.00D-01 BMatC= 4.34D-07 BMatP= 2.50D-07
 IDIUse=1 WtCom= 1.00D+00 WtEn= 0.00D+00
 Coeff-Com:  0.580D+00 0.420D+00
 Coeff:      0.580D+00 0.420D+00
 Gap=     0.124 Goal=   None    Shift=    0.000
 Gap=     0.158 Goal=   None    Shift=    0.000
 RMSDP=2.58D-06 MaxDP=1.11D-04 DE= 4.59D-10 OVMax= 2.13D-04

 Cycle  12  Pass 1  IDiag  1:
 RMSU=  2.18D-06    CP:  1.00D+00  7.80D-01
 E= -461.291458335874     Delta-E=       -0.000000109967 Rises=F Damp=F
 DIIS: error= 5.32D-06 at cycle   3 NSaved=   3.
 NSaved= 3 IEnMin= 3 EnMin= -461.291458335874     IErMin= 3 ErrMin= 5.32D-06
 ErrMax= 5.32D-06  0.00D+00 EMaxC= 1.00D-01 BMatC= 2.57D-08 BMatP= 2.50D-07
 IDIUse=1 WtCom= 1.00D+00 WtEn= 0.00D+00
 Coeff-Com: -0.234D-01 0.149D+00 0.874D+00
 Coeff:     -0.234D-01 0.149D+00 0.874D+00
 Gap=     0.124 Goal=   None    Shift=    0.000
 Gap=     0.158 Goal=   None    Shift=    0.000
 RMSDP=1.28D-06 MaxDP=6.99D-05 DE=-1.10D-07 OVMax= 9.91D-05

 Cycle  13  Pass 1  IDiag  1:
 RMSU=  1.05D-06    CP:  1.00D+00  8.98D-01  9.75D-01
 E= -461.291458352208     Delta-E=       -0.000000016334 Rises=F Damp=F
 DIIS: error= 2.93D-06 at cycle   4 NSaved=   4.
 NSaved= 4 IEnMin= 4 EnMin= -461.291458352208     IErMin= 4 ErrMin= 2.93D-06
 ErrMax= 2.93D-06  0.00D+00 EMaxC= 1.00D-01 BMatC= 9.95D-09 BMatP= 2.57D-08
 IDIUse=1 WtCom= 1.00D+00 WtEn= 0.00D+00
 Coeff-Com: -0.116D+00 0.189D-01 0.485D+00 0.612D+00
 Coeff:     -0.116D+00 0.189D-01 0.485D+00 0.612D+00
 Gap=     0.124 Goal=   None    Shift=    0.000
 Gap=     0.158 Goal=   None    Shift=    0.000
 RMSDP=6.41D-07 MaxDP=3.10D-05 DE=-1.63D-08 OVMax= 7.16D-05

 Cycle  14  Pass 1  IDiag  1:
 RMSU=  5.21D-07    CP:  1.00D+00  9.26D-01  1.09D+00  1.21D+00
 E= -461.291458358204     Delta-E=       -0.000000005996 Rises=F Damp=F
 DIIS: error= 1.48D-06 at cycle   5 NSaved=   5.
 NSaved= 5 IEnMin= 5 EnMin= -461.291458358204     IErMin= 5 ErrMin= 1.48D-06
 ErrMax= 1.48D-06  0.00D+00 EMaxC= 1.00D-01 BMatC= 2.75D-09 BMatP= 9.95D-09
 IDIUse=1 WtCom= 1.00D+00 WtEn= 0.00D+00
 Coeff-Com: -0.427D-01-0.632D-01-0.252D+00 0.285D+00 0.107D+01
 Coeff:     -0.427D-01-0.632D-01-0.252D+00 0.285D+00 0.107D+01
 Gap=     0.124 Goal=   None    Shift=    0.000
 Gap=     0.158 Goal=   None    Shift=    0.000
 RMSDP=7.45D-07 MaxDP=3.64D-05 DE=-6.00D-09 OVMax= 7.29D-05

 Cycle  15  Pass 1  IDiag  1:
 RMSU=  2.19D-07    CP:  1.00D+00  9.77D-01  1.17D+00  1.76D+00  1.35D+00
 E= -461.291458361243     Delta-E=       -0.000000003038 Rises=F Damp=F
 DIIS: error= 9.62D-07 at cycle   6 NSaved=   6.
 NSaved= 6 IEnMin= 6 EnMin= -461.291458361243     IErMin= 6 ErrMin= 9.62D-07
 ErrMax= 9.62D-07  0.00D+00 EMaxC= 1.00D-01 BMatC= 1.26D-09 BMatP= 2.75D-09
 IDIUse=1 WtCom= 1.00D+00 WtEn= 0.00D+00
 Coeff-Com:  0.112D-02-0.457D-01-0.292D+00 0.420D-01 0.728D+00 0.567D+00
 Coeff:      0.112D-02-0.457D-01-0.292D+00 0.420D-01 0.728D+00 0.567D+00
 Gap=     0.124 Goal=   None    Shift=    0.000
 Gap=     0.158 Goal=   None    Shift=    0.000
 RMSDP=2.61D-07 MaxDP=1.20D-05 DE=-3.04D-09 OVMax= 2.84D-05

 Cycle  16  Pass 1  IDiag  1:
 RMSU=  7.33D-08    CP:  1.00D+00  9.89D-01  1.20D+00  1.95D+00  1.51D+00
                    CP:  6.48D-01
 E= -461.291458361729     Delta-E=       -0.000000000487 Rises=F Damp=F
 DIIS: error= 2.64D-07 at cycle   7 NSaved=   7.
 NSaved= 7 IEnMin= 7 EnMin= -461.291458361729     IErMin= 7 ErrMin= 2.64D-07
 ErrMax= 2.64D-07  0.00D+00 EMaxC= 1.00D-01 BMatC= 7.52D-11 BMatP= 1.26D-09
 IDIUse=1 WtCom= 1.00D+00 WtEn= 0.00D+00
 Coeff-Com:  0.318D-02-0.216D-01-0.145D+00 0.450D-02 0.335D+00 0.308D+00
 Coeff-Com:  0.516D+00
 Coeff:      0.318D-02-0.216D-01-0.145D+00 0.450D-02 0.335D+00 0.308D+00
 Coeff:      0.516D+00
 Gap=     0.124 Goal=   None    Shift=    0.000
 Gap=     0.158 Goal=   None    Shift=    0.000
 RMSDP=5.37D-08 MaxDP=1.63D-06 DE=-4.87D-10 OVMax= 4.35D-06

 SCF Done:  E(UB3LYP) =  -461.291458362     A.U. after   16 cycles
            NFock= 16  Conv=0.54D-07     -V/T= 2.0082
 <Sx>= 0.0000 <Sy>= 0.0000 <Sz>= 0.5000 <S**2>= 0.7583 S= 0.5042
 <L.S>= 0.000000000000E+00
 KE= 4.575230299345D+02 PE=-2.125678697800D+03 EE= 6.884206087297D+02
 Annihilation of the first spin contaminant:
 S**2 before annihilation     0.7583,   after     0.7500
 Leave Link  502 at Wed Dec 03 16:58:20 2025, MaxMem=   104857600 cpu:              35.0 elap:              35.2
 (Enter D:\Gaussian\G16W\l601.exe)
 Copying SCF densities to generalized density rwf, IOpCl= 1 IROHF=0.

 **********************************************************************

            Population analysis using the SCF density.

 **********************************************************************

 Orbital symmetries:
 Alpha Orbitals:
       Occupied  (A) (A) (A) (A) (A) (A) (A) (A) (A) (A) (A) (A)
                 (A) (A) (A) (A) (A) (A) (A) (A) (A) (A) (A) (A)
                 (A) (A) (A) (A) (A) (A) (A) (A) (A) (A) (A) (A)
                 (A) (A)
       Virtual   (A) (A) (A) (A) (A) (A) (A) (A) (A) (A) (A) (A)
                 (A) (A) (A) (A) (A) (A) (A) (A) (A) (A) (A) (A)
                 (A) (A) (A) (A) (A) (A) (A) (A) (A) (A) (A) (A)
                 (A) (A) (A) (A) (A) (A) (A) (A) (A) (A) (A) (A)
                 (A) (A) (A) (A) (A) (A) (A) (A) (A) (A) (A) (A)
                 (A) (A) (A) (A) (A) (A) (A) (A) (A) (A) (A) (A)
                 (A) (A) (A) (A) (A) (A) (A) (A) (A) (A) (A) (A)
                 (A) (A) (A) (A) (A) (A) (A) (A) (A) (A) (A) (A)
                 (A) (A) (A) (A) (A) (A) (A) (A) (A) (A) (A) (A)
                 (A) (A) (A) (A) (A) (A) (A) (A) (A) (A) (A) (A)
                 (A) (A) (A) (A) (A) (A) (A) (A) (A) (A) (A) (A)
 Beta  Orbitals:
       Occupied  (A) (A) (A) (A) (A) (A) (A) (A) (A) (A) (A) (A)
                 (A) (A) (A) (A) (A) (A) (A) (A) (A) (A) (A) (A)
                 (A) (A) (A) (A) (A) (A) (A) (A) (A) (A) (A) (A)
                 (A)
       Virtual   (A) (A) (A) (A) (A) (A) (A) (A) (A) (A) (A) (A)
                 (A) (A) (A) (A) (A) (A) (A) (A) (A) (A) (A) (A)
                 (A) (A) (A) (A) (A) (A) (A) (A) (A) (A) (A) (A)
                 (A) (A) (A) (A) (A) (A) (A) (A) (A) (A) (A) (A)
                 (A) (A) (A) (A) (A) (A) (A) (A) (A) (A) (A) (A)
                 (A) (A) (A) (A) (A) (A) (A) (A) (A) (A) (A) (A)
                 (A) (A) (A) (A) (A) (A) (A) (A) (A) (A) (A) (A)
                 (A) (A) (A) (A) (A) (A) (A) (A) (A) (A) (A) (A)
                 (A) (A) (A) (A) (A) (A) (A) (A) (A) (A) (A) (A)
                 (A) (A) (A) (A) (A) (A) (A) (A) (A) (A) (A) (A)
                 (A) (A) (A) (A) (A) (A) (A) (A) (A) (A) (A) (A)
                 (A)
 The electronic state is 2-A.
 Alpha  occ. eigenvalues --  -18.98130 -18.90982 -10.03823 -10.03227 -10.02973
 Alpha  occ. eigenvalues --  -10.01851 -10.01536 -10.01146  -9.98750  -9.97596
 Alpha  occ. eigenvalues --   -0.87392  -0.81379  -0.65450  -0.60201  -0.56269
 Alpha  occ. eigenvalues --   -0.51632  -0.47426  -0.41250  -0.39693  -0.33839
 Alpha  occ. eigenvalues --   -0.30445  -0.28855  -0.28057  -0.27088  -0.25080
 Alpha  occ. eigenvalues --   -0.24276  -0.23075  -0.22590  -0.20366  -0.19492
 Alpha  occ. eigenvalues --   -0.19130  -0.17186  -0.15357  -0.14802  -0.10708
 Alpha  occ. eigenvalues --   -0.04769  -0.02063   0.08384
 Alpha virt. eigenvalues --    0.20748   0.24506   0.25468   0.28008   0.28294
 Alpha virt. eigenvalues --    0.29094   0.30341   0.31173   0.31952   0.33468
 Alpha virt. eigenvalues --    0.34045   0.35166   0.39461   0.40740   0.41546
 Alpha virt. eigenvalues --    0.44644   0.48637   0.50643   0.53496   0.57417
 Alpha virt. eigenvalues --    0.64494   0.65771   0.67886   0.68361   0.70442
 Alpha virt. eigenvalues --    0.71117   0.74664   0.75554   0.76865   0.77329
 Alpha virt. eigenvalues --    0.80220   0.81887   0.83796   0.85132   0.85793
 Alpha virt. eigenvalues --    0.89461   0.90062   0.91591   0.92543   0.93073
 Alpha virt. eigenvalues --    0.94220   0.96794   0.98224   0.99411   1.02133
 Alpha virt. eigenvalues --    1.03836   1.04879   1.05048   1.06087   1.07218
 Alpha virt. eigenvalues --    1.09866   1.11204   1.12383   1.13398   1.15252
 Alpha virt. eigenvalues --    1.16225   1.18539   1.24750   1.24995   1.27602
 Alpha virt. eigenvalues --    1.30849   1.34143   1.34731   1.39327   1.43748
 Alpha virt. eigenvalues --    1.45212   1.49198   1.49397   1.57812   1.59133
 Alpha virt. eigenvalues --    1.60470   1.63277   1.66981   1.74713   1.80587
 Alpha virt. eigenvalues --    1.85757   1.89099   1.90491   1.93096   1.94183
 Alpha virt. eigenvalues --    1.98138   2.00606   2.01477   2.03931   2.05866
 Alpha virt. eigenvalues --    2.07997   2.09569   2.11979   2.12811   2.16137
 Alpha virt. eigenvalues --    2.18242   2.19464   2.21850   2.25193   2.29919
 Alpha virt. eigenvalues --    2.32078   2.34483   2.36448   2.41437   2.46159
 Alpha virt. eigenvalues --    2.48414   2.51192   2.52460   2.53324   2.55914
 Alpha virt. eigenvalues --    2.57585   2.63137   2.65702   2.71024   2.72814
 Alpha virt. eigenvalues --    2.78872   2.82790   2.87883   2.90102   2.94965
 Alpha virt. eigenvalues --    2.98520   3.01727   3.09756   3.13713   3.21789
 Alpha virt. eigenvalues --    3.42989   3.51223   4.06837   4.27573   4.33825
 Alpha virt. eigenvalues --    4.36605   4.39498   4.44065   4.50125   4.71963
 Alpha virt. eigenvalues --    4.75408   5.15624
  Beta  occ. eigenvalues --  -18.98077 -18.90416 -10.03819 -10.02873 -10.02838
  Beta  occ. eigenvalues --  -10.01744 -10.01609 -10.01186  -9.98465  -9.97287
  Beta  occ. eigenvalues --   -0.87163  -0.80375  -0.65057  -0.59987  -0.55895
  Beta  occ. eigenvalues --   -0.51263  -0.46823  -0.40735  -0.39130  -0.33678
  Beta  occ. eigenvalues --   -0.30227  -0.28548  -0.27645  -0.27006  -0.24830
  Beta  occ. eigenvalues --   -0.23926  -0.22693  -0.21929  -0.19810  -0.19166
  Beta  occ. eigenvalues --   -0.18809  -0.16919  -0.14736  -0.12573  -0.09494
  Beta  occ. eigenvalues --   -0.04250  -0.00086
  Beta virt. eigenvalues --    0.15758   0.22739   0.24577   0.25847   0.28246
  Beta virt. eigenvalues --    0.28585   0.29622   0.30576   0.31316   0.32162
  Beta virt. eigenvalues --    0.33712   0.34357   0.36144   0.39611   0.41383
  Beta virt. eigenvalues --    0.41928   0.45175   0.48898   0.50982   0.53931
  Beta virt. eigenvalues --    0.57843   0.64817   0.66220   0.68366   0.68571
  Beta virt. eigenvalues --    0.71027   0.71676   0.74938   0.75945   0.77193
  Beta virt. eigenvalues --    0.77742   0.80447   0.82918   0.84714   0.85513
  Beta virt. eigenvalues --    0.85984   0.89938   0.90315   0.92102   0.92763
  Beta virt. eigenvalues --    0.93448   0.94464   0.97017   0.98851   0.99772
  Beta virt. eigenvalues --    1.02207   1.03980   1.05111   1.05362   1.06278
  Beta virt. eigenvalues --    1.07375   1.09921   1.11426   1.12567   1.13868
  Beta virt. eigenvalues --    1.15546   1.16436   1.18796   1.25281   1.26509
  Beta virt. eigenvalues --    1.27869   1.31113   1.34393   1.35094   1.39620
  Beta virt. eigenvalues --    1.43922   1.46034   1.49621   1.49782   1.58186
  Beta virt. eigenvalues --    1.59559   1.60839   1.64267   1.67845   1.75069
  Beta virt. eigenvalues --    1.80954   1.86408   1.89411   1.90804   1.93554
  Beta virt. eigenvalues --    1.94621   1.98511   2.01519   2.01799   2.04190
  Beta virt. eigenvalues --    2.06437   2.08546   2.10087   2.12576   2.13194
  Beta virt. eigenvalues --    2.16455   2.19014   2.20213   2.22570   2.25863
  Beta virt. eigenvalues --    2.30132   2.32444   2.35001   2.36962   2.41616
  Beta virt. eigenvalues --    2.46702   2.48641   2.51697   2.52853   2.53640
  Beta virt. eigenvalues --    2.56403   2.58124   2.63450   2.66533   2.71624
  Beta virt. eigenvalues --    2.73247   2.79718   2.83725   2.88946   2.90630
  Beta virt. eigenvalues --    2.95369   2.98711   3.02128   3.09942   3.14017
  Beta virt. eigenvalues --    3.22372   3.43210   3.51424   4.07287   4.27907
  Beta virt. eigenvalues --    4.34301   4.36940   4.40000   4.44448   4.50480
  Beta virt. eigenvalues --    4.72149   4.75750   5.16143
          Condensed to atoms (all electrons):
               1          2          3          4          5          6
     1  C    5.223579   0.297812  -0.006653  -0.024271  -0.040605   0.635555
     2  C    0.297812   5.256401   0.316926  -0.059045  -0.051584   0.002807
     3  C   -0.006653   0.316926   4.712141   0.445836  -0.044134  -0.025663
     4  C   -0.024271  -0.059045   0.445836   4.811839   0.459560  -0.006375
     5  C   -0.040605  -0.051584  -0.044134   0.459560   5.292589   0.473706
     6  C    0.635555   0.002807  -0.025663  -0.006375   0.473706   4.547606
     7  H    0.008334  -0.000884   0.008014  -0.039544   0.315030  -0.065681
     8  O   -0.000026   0.004475  -0.057636   0.272303  -0.050965   0.003064
     9  O    0.003388  -0.086916   0.431202  -0.076070   0.007381   0.000303
    10  H   -0.000300   0.003770  -0.013772  -0.066275   0.007972   0.000172
    11  H   -0.051368   0.314165  -0.050964  -0.001920   0.003732  -0.003059
    12  C   -0.054561   0.298711  -0.036669  -0.000204   0.002252  -0.000597
    13  H   -0.001864  -0.029621   0.004231  -0.000046  -0.000049   0.000081
    14  H    0.005622  -0.030462  -0.005331   0.000726  -0.000165   0.000078
    15  H    0.005169  -0.029338   0.001574   0.001070  -0.000279   0.000134
    16  H    0.322859  -0.058639   0.002877   0.000200   0.007475  -0.036434
    17  C   -0.064636   0.009939  -0.000344   0.008605  -0.080900   0.335086
    18  H   -0.000598  -0.000152   0.000035  -0.000150  -0.000038  -0.028183
    19  H   -0.000639  -0.000271   0.000031  -0.000089   0.000551  -0.027583
    20  H   -0.002559  -0.000097   0.000001  -0.000117   0.003793  -0.026726
               7          8          9         10         11         12
     1  C    0.008334  -0.000026   0.003388  -0.000300  -0.051368  -0.054561
     2  C   -0.000884   0.004475  -0.086916   0.003770   0.314165   0.298711
     3  C    0.008014  -0.057636   0.431202  -0.013772  -0.050964  -0.036669
     4  C   -0.039544   0.272303  -0.076070  -0.066275  -0.001920  -0.000204
     5  C    0.315030  -0.050965   0.007381   0.007972   0.003732   0.002252
     6  C   -0.065681   0.003064   0.000303   0.000172  -0.003059  -0.000597
     7  H    0.756690  -0.002675  -0.000128  -0.000875   0.000044   0.000019
     8  O   -0.002675   8.336921  -0.025482   0.218088  -0.000034  -0.000035
     9  O   -0.000128  -0.025482   8.312632   0.065725   0.003579  -0.000465
    10  H   -0.000875   0.218088   0.065725   0.404378  -0.000106  -0.000042
    11  H    0.000044  -0.000034   0.003579  -0.000106   0.786898  -0.089176
    12  C    0.000019  -0.000035  -0.000465  -0.000042  -0.089176   5.291543
    13  H    0.000000   0.000000   0.000105   0.000001  -0.001186   0.338805
    14  H    0.000000   0.000006   0.014292  -0.000070   0.002554   0.340610
    15  H    0.000004  -0.000010  -0.000588  -0.000014   0.009102   0.334015
    16  H   -0.000249   0.000002  -0.000073   0.000001   0.000391  -0.003256
    17  C   -0.013097  -0.000049  -0.000001   0.000006  -0.000326  -0.000206
    18  H    0.002860  -0.000002   0.000000   0.000000  -0.000004   0.000011
    19  H    0.002900  -0.000002   0.000000   0.000000   0.000030  -0.000001
    20  H    0.000070   0.000000   0.000000   0.000000  -0.000007  -0.000002
              13         14         15         16         17         18
     1  C   -0.001864   0.005622   0.005169   0.322859  -0.064636  -0.000598
     2  C   -0.029621  -0.030462  -0.029338  -0.058639   0.009939  -0.000152
     3  C    0.004231  -0.005331   0.001574   0.002877  -0.000344   0.000035
     4  C   -0.000046   0.000726   0.001070   0.000200   0.008605  -0.000150
     5  C   -0.000049  -0.000165  -0.000279   0.007475  -0.080900  -0.000038
     6  C    0.000081   0.000078   0.000134  -0.036434   0.335086  -0.028183
     7  H    0.000000   0.000000   0.000004  -0.000249  -0.013097   0.002860
     8  O    0.000000   0.000006  -0.000010   0.000002  -0.000049  -0.000002
     9  O    0.000105   0.014292  -0.000588  -0.000073  -0.000001   0.000000
    10  H    0.000001  -0.000070  -0.000014   0.000001   0.000006   0.000000
    11  H   -0.001186   0.002554   0.009102   0.000391  -0.000326  -0.000004
    12  C    0.338805   0.340610   0.334015  -0.003256  -0.000206   0.000011
    13  H    0.670299  -0.034472  -0.033917   0.004507   0.000001   0.000000
    14  H   -0.034472   0.602219  -0.025251  -0.000255   0.000004   0.000000
    15  H   -0.033917  -0.025251   0.626441   0.000198  -0.000031  -0.000003
    16  H    0.004507  -0.000255   0.000198   0.738949  -0.018684   0.000284
    17  C    0.000001   0.000004  -0.000031  -0.018684   5.297601   0.349553
    18  H    0.000000   0.000000  -0.000003   0.000284   0.349553   0.636894
    19  H    0.000000   0.000000   0.000001   0.000243   0.347527  -0.046159
    20  H    0.000001   0.000000  -0.000001   0.009916   0.348896  -0.032809
              19         20
     1  C   -0.000639  -0.002559
     2  C   -0.000271  -0.000097
     3  C    0.000031   0.000001
     4  C   -0.000089  -0.000117
     5  C    0.000551   0.003793
     6  C   -0.027583  -0.026726
     7  H    0.002900   0.000070
     8  O   -0.000002   0.000000
     9  O    0.000000   0.000000
    10  H    0.000000   0.000000
    11  H    0.000030  -0.000007
    12  C   -0.000001  -0.000002
    13  H    0.000000   0.000001
    14  H    0.000000   0.000000
    15  H    0.000001  -0.000001
    16  H    0.000243   0.009916
    17  C    0.347527   0.348896
    18  H   -0.046159  -0.032809
    19  H    0.639031  -0.032992
    20  H   -0.032992   0.621003
          Atomic-Atomic Spin Densities.
               1          2          3          4          5          6
     1  C    0.280333   0.021375   0.010664   0.006135  -0.017144  -0.045557
     2  C    0.021375  -0.042295   0.031956   0.002809  -0.003027  -0.003192
     3  C    0.010664   0.031956   0.325400   0.079194  -0.021124  -0.002976
     4  C    0.006135   0.002809   0.079194   0.136763  -0.103914  -0.006909
     5  C   -0.017144  -0.003027  -0.021124  -0.103914   0.327986   0.048514
     6  C   -0.045557  -0.003192  -0.002976  -0.006909   0.048514  -0.031631
     7  H    0.000064  -0.000025  -0.000090  -0.000449   0.003240   0.000241
     8  O   -0.000054  -0.000027  -0.007510  -0.021847   0.007324   0.000033
     9  O   -0.000417  -0.003150  -0.108612  -0.012210   0.000951   0.000057
    10  H    0.000002  -0.000084  -0.000328   0.000921  -0.000016  -0.000013
    11  H   -0.017469  -0.021756  -0.029657  -0.004015   0.002033   0.000809
    12  C   -0.026418  -0.033078  -0.021442  -0.001603   0.000965   0.002121
    13  H    0.001592   0.002983   0.000281   0.000013  -0.000011  -0.000060
    14  H    0.000528   0.003715   0.001121   0.000060  -0.000014  -0.000030
    15  H    0.006428   0.007656   0.005501   0.000670  -0.000427  -0.000646
    16  H    0.002091   0.000127   0.000072  -0.000075   0.000054  -0.000121
    17  C    0.001061   0.000056  -0.000007   0.000262  -0.003928  -0.004276
    18  H    0.000222  -0.000008   0.000004   0.000015  -0.000657   0.001511
    19  H    0.000212   0.000004   0.000003  -0.000009  -0.000658   0.001520
    20  H   -0.000045   0.000006   0.000001  -0.000008   0.000055   0.000227
               7          8          9         10         11         12
     1  C    0.000064  -0.000054  -0.000417   0.000002  -0.017469  -0.026418
     2  C   -0.000025  -0.000027  -0.003150  -0.000084  -0.021756  -0.033078
     3  C   -0.000090  -0.007510  -0.108612  -0.000328  -0.029657  -0.021442
     4  C   -0.000449  -0.021847  -0.012210   0.000921  -0.004015  -0.001603
     5  C    0.003240   0.007324   0.000951  -0.000016   0.002033   0.000965
     6  C    0.000241   0.000033   0.000057  -0.000013   0.000809   0.002121
     7  H   -0.017787   0.000170   0.000001   0.000029   0.000004  -0.000002
     8  O    0.000170   0.033309   0.002238   0.001659   0.000040   0.000018
     9  O    0.000001   0.002238   0.313726  -0.001257   0.004812   0.005752
    10  H    0.000029   0.001659  -0.001257  -0.003579  -0.000002   0.000001
    11  H    0.000004   0.000040   0.004812  -0.000002   0.160926  -0.048547
    12  C   -0.000002   0.000018   0.005752   0.000001  -0.048547   0.213773
    13  H    0.000000   0.000000  -0.000069   0.000000   0.004019  -0.015795
    14  H    0.000000  -0.000001  -0.001464   0.000002   0.003526  -0.014980
    15  H    0.000000  -0.000007  -0.001206   0.000000   0.002850  -0.036780
    16  H    0.000004   0.000000   0.000000   0.000000   0.001080  -0.000973
    17  C    0.000183  -0.000001   0.000000   0.000000  -0.000039   0.000000
    18  H   -0.000006   0.000000   0.000000   0.000000   0.000001  -0.000002
    19  H   -0.000029   0.000000   0.000000   0.000000  -0.000003   0.000001
    20  H   -0.000008   0.000000   0.000000   0.000000   0.000000   0.000000
              13         14         15         16         17         18
     1  C    0.001592   0.000528   0.006428   0.002091   0.001061   0.000222
     2  C    0.002983   0.003715   0.007656   0.000127   0.000056  -0.000008
     3  C    0.000281   0.001121   0.005501   0.000072  -0.000007   0.000004
     4  C    0.000013   0.000060   0.000670  -0.000075   0.000262   0.000015
     5  C   -0.000011  -0.000014  -0.000427   0.000054  -0.003928  -0.000657
     6  C   -0.000060  -0.000030  -0.000646  -0.000121  -0.004276   0.001511
     7  H    0.000000   0.000000   0.000000   0.000004   0.000183  -0.000006
     8  O    0.000000  -0.000001  -0.000007   0.000000  -0.000001   0.000000
     9  O   -0.000069  -0.001464  -0.001206   0.000000   0.000000   0.000000
    10  H    0.000000   0.000002   0.000000   0.000000   0.000000   0.000000
    11  H    0.004019   0.003526   0.002850   0.001080  -0.000039   0.000001
    12  C   -0.015795  -0.014980  -0.036780  -0.000973   0.000000  -0.000002
    13  H    0.002551   0.002083   0.004134   0.000114   0.000000   0.000000
    14  H    0.002083   0.003254   0.003683   0.000021   0.000000   0.000000
    15  H    0.004134   0.003683   0.014959   0.000182   0.000004   0.000001
    16  H    0.000114   0.000021   0.000182  -0.014615   0.000238   0.000006
    17  C    0.000000   0.000000   0.000004   0.000238   0.004423   0.001385
    18  H    0.000000   0.000000   0.000001   0.000006   0.001385  -0.006402
    19  H    0.000000   0.000000   0.000000  -0.000001   0.001695   0.002120
    20  H    0.000000   0.000000   0.000000  -0.000184   0.000055   0.000096
              19         20
     1  C    0.000212  -0.000045
     2  C    0.000004   0.000006
     3  C    0.000003   0.000001
     4  C   -0.000009  -0.000008
     5  C   -0.000658   0.000055
     6  C    0.001520   0.000227
     7  H   -0.000029  -0.000008
     8  O    0.000000   0.000000
     9  O    0.000000   0.000000
    10  H    0.000000   0.000000
    11  H   -0.000003   0.000000
    12  C    0.000001   0.000000
    13  H    0.000000   0.000000
    14  H    0.000000   0.000000
    15  H    0.000000   0.000000
    16  H   -0.000001  -0.000184
    17  C    0.001695   0.000055
    18  H    0.002120   0.000096
    19  H   -0.006845   0.000119
    20  H    0.000119  -0.000925
 Mulliken charges and spin densities:
               1          2
     1  C   -0.254238   0.223603
     2  C   -0.157997  -0.035954
     3  C    0.318299   0.262452
     4  C    0.273968   0.075803
     5  C   -0.305325   0.240204
     6  C    0.221709  -0.040381
     7  H    0.029169  -0.014459
     8  O   -0.697945   0.015343
     9  O   -0.648886   0.199152
    10  H    0.381342  -0.002665
    11  H    0.077656   0.058614
    12  C   -0.420753   0.023009
    13  H    0.083127   0.001836
    14  H    0.129893   0.001503
    15  H    0.111724   0.007004
    16  H    0.029688  -0.011981
    17  C   -0.518944   0.001112
    18  H    0.118461  -0.001713
    19  H    0.117421  -0.001871
    20  H    0.111630  -0.000610
 Sum of Mulliken charges =  -1.00000   1.00000
 Mulliken charges and spin densities with hydrogens summed into heavy atoms:
               1          2
     1  C   -0.224550   0.211621
     2  C   -0.080341   0.022660
     3  C    0.318299   0.262452
     4  C    0.273968   0.075803
     5  C   -0.276156   0.225744
     6  C    0.221709  -0.040381
     8  O   -0.316603   0.012678
     9  O   -0.648886   0.199152
    12  C   -0.096009   0.033352
    17  C   -0.171431  -0.003083
 Electronic spatial extent (au):  <R**2>=           1532.4941
 Charge=             -1.0000 electrons
 Dipole moment (field-independent basis, Debye):
    X=              2.6494    Y=              1.3528    Z=              0.1539  Tot=              2.9788
 Quadrupole moment (field-independent basis, Debye-Ang):
   XX=            -78.8189   YY=            -73.7038   ZZ=            -64.2007
   XY=              0.3849   XZ=             -0.5290   YZ=              0.1622
 Traceless Quadrupole moment (field-independent basis, Debye-Ang):
   XX=             -6.5778   YY=             -1.4627   ZZ=              8.0405
   XY=              0.3849   XZ=             -0.5290   YZ=              0.1622
 Octapole moment (field-independent basis, Debye-Ang**2):
  XXX=             -3.0896  YYY=             -0.2915  ZZZ=              0.7592  XYY=             -1.4191
  XXY=            -10.4092  XXZ=              3.1444  XZZ=             -6.9212  YZZ=             -4.1500
  YYZ=             -3.6904  XYZ=             -0.0482
 Hexadecapole moment (field-independent basis, Debye-Ang**3):
 XXXX=          -1265.2752 YYYY=           -913.6580 ZZZZ=           -114.8220 XXXY=             39.7124
 XXXZ=             -9.2815 YYYX=             13.7441 YYYZ=             -5.0161 ZZZX=              2.4063
 ZZZY=             -0.4243 XXYY=           -318.1812 XXZZ=           -210.4166 YYZZ=           -163.5657
 XXYZ=             -1.3393 YYXZ=              4.4357 ZZXY=              4.7572
 N-N= 5.184436007741D+02 E-N=-2.125678696987D+03  KE= 4.575230299345D+02
                          Isotropic Fermi Contact Couplings
        Atom                 a.u.       MegaHertz       Gauss      10(-4) cm-1
     1  C(13)              0.02375      26.69908       9.52690       8.90586
     2  C(13)             -0.01949     -21.91603      -7.82018      -7.31040
     3  C(13)              0.02301      25.86989       9.23102       8.62927
     4  C(13)             -0.00048      -0.53844      -0.19213      -0.17960
     5  C(13)              0.02300      25.85487       9.22566       8.62426
     6  C(13)             -0.01029     -11.56869      -4.12800      -3.85890
     7  H(1)              -0.00397     -17.74355      -6.33134      -5.91861
     8  O(17)              0.00238      -1.44427      -0.51535      -0.48176
     9  O(17)              0.03493     -21.17381      -7.55534      -7.06282
    10  H(1)              -0.00048      -2.15136      -0.76766      -0.71762
    11  H(1)               0.02154      96.25900      34.34760      32.10855
    12  C(13)              0.06697      75.29033      26.86546      25.11415
    13  H(1)              -0.00062      -2.78813      -0.99487      -0.93002
    14  H(1)              -0.00016      -0.73371      -0.26180      -0.24474
    15  H(1)              -0.00063      -2.83295      -1.01087      -0.94497
    16  H(1)              -0.00339     -15.17080      -5.41332      -5.06044
    17  C(13)              0.00051       0.57698       0.20588       0.19246
    18  H(1)               0.00005       0.22765       0.08123       0.07594
    19  H(1)              -0.00001      -0.04204      -0.01500      -0.01402
    20  H(1)              -0.00018      -0.82489      -0.29434      -0.27515
 --------------------------------------------------------
       Center         ----  Spin Dipole Couplings  ----
                      3XX-RR        3YY-RR        3ZZ-RR
 --------------------------------------------------------
     1   Atom       -0.108792     -0.103130      0.211922
     2   Atom        0.003244      0.005873     -0.009117
     3   Atom       -0.144476     -0.157620      0.302096
     4   Atom       -0.054099     -0.053221      0.107320
     5   Atom       -0.121284     -0.115597      0.236881
     6   Atom        0.003194      0.008418     -0.011613
     7   Atom       -0.011201      0.013276     -0.002075
     8   Atom       -0.047071     -0.038821      0.085892
     9   Atom       -0.430118     -0.384546      0.814664
    10   Atom        0.001532      0.006196     -0.007727
    11   Atom       -0.000734      0.003418     -0.002684
    12   Atom       -0.004160      0.015097     -0.010937
    13   Atom       -0.003453      0.007745     -0.004292
    14   Atom        0.001123      0.003787     -0.004910
    15   Atom       -0.004491     -0.000152      0.004643
    16   Atom       -0.004121      0.006898     -0.002777
    17   Atom        0.004074     -0.002991     -0.001083
    18   Atom        0.003904     -0.002136     -0.001769
    19   Atom        0.004245     -0.001884     -0.002361
    20   Atom        0.003378     -0.001168     -0.002209
 --------------------------------------------------------
                        XY            XZ            YZ
 --------------------------------------------------------
     1   Atom        0.004492     -0.016150      0.046179
     2   Atom        0.001888     -0.001245      0.001952
     3   Atom       -0.003265     -0.016027      0.054755
     4   Atom       -0.006747     -0.008873      0.028070
     5   Atom       -0.007611     -0.018200      0.056307
     6   Atom       -0.000188      0.000664     -0.005181
     7   Atom       -0.015032      0.001808     -0.003282
     8   Atom        0.000613     -0.006532      0.023197
     9   Atom       -0.003332     -0.022701      0.189613
    10   Atom        0.002866      0.000024     -0.001961
    11   Atom        0.001103     -0.000281     -0.004884
    12   Atom       -0.020522     -0.012077      0.017980
    13   Atom        0.000016     -0.000246      0.000875
    14   Atom       -0.003327     -0.000753      0.002118
    15   Atom       -0.000449     -0.000880      0.005188
    16   Atom        0.016246     -0.002171      0.000070
    17   Atom        0.001305      0.000028      0.000349
    18   Atom        0.000179      0.002068     -0.000371
    19   Atom       -0.000371     -0.001362      0.000348
    20   Atom        0.000944      0.000181     -0.000102
 --------------------------------------------------------


 ---------------------------------------------------------------------------------
              Anisotropic Spin Dipole Couplings in Principal Axis System
 ---------------------------------------------------------------------------------

       Atom             a.u.   MegaHertz   Gauss  10(-4) cm-1        Axes

              Baa    -0.1164   -15.616    -5.572    -5.209 -0.6998  0.7018 -0.1331
     1 C(13)  Bbb    -0.1029   -13.808    -4.927    -4.606  0.7128  0.6982 -0.0659
              Bcc     0.2193    29.424    10.499     9.815 -0.0468  0.1410  0.9889
 
              Baa    -0.0095    -1.280    -0.457    -0.427  0.1163 -0.1388  0.9835
     2 C(13)  Bbb     0.0026     0.348     0.124     0.116  0.8940 -0.4167 -0.1646
              Bcc     0.0069     0.932     0.333     0.311  0.4326  0.8984  0.0757
 
              Baa    -0.1642   -22.027    -7.860    -7.348  0.0716  0.9909 -0.1139
     3 C(13)  Bbb    -0.1450   -19.453    -6.941    -6.489  0.9968 -0.0670  0.0439
              Bcc     0.3091    41.480    14.801    13.836 -0.0359  0.1167  0.9925
 
              Baa    -0.0618    -8.286    -2.957    -2.764  0.5886  0.8020 -0.1023
     4 C(13)  Bbb    -0.0509    -6.833    -2.438    -2.279  0.8063 -0.5730  0.1469
              Bcc     0.1127    15.119     5.395     5.043 -0.0592  0.1689  0.9839
 
              Baa    -0.1282   -17.197    -6.136    -5.736  0.6250  0.7756 -0.0885
     5 C(13)  Bbb    -0.1185   -15.902    -5.674    -5.304  0.7789 -0.6120  0.1369
              Bcc     0.2467    33.099    11.810    11.041 -0.0520  0.1545  0.9866
 
              Baa    -0.0129    -1.730    -0.617    -0.577 -0.0373  0.2357  0.9711
     6 C(13)  Bbb     0.0032     0.429     0.153     0.143  0.9979  0.0596  0.0239
              Bcc     0.0097     1.301     0.464     0.434 -0.0522  0.9700 -0.2375
 
              Baa    -0.0183    -9.790    -3.493    -3.266  0.9036  0.4280 -0.0141
     7 H(1)   Bbb    -0.0027    -1.429    -0.510    -0.477 -0.0559  0.1504  0.9870
              Bcc     0.0210    11.219     4.003     3.742 -0.4246  0.8911 -0.1598
 
              Baa    -0.0480     3.472     1.239     1.158  0.9421 -0.3197  0.1014
     8 O(17)  Bbb    -0.0424     3.066     1.094     1.023  0.3322  0.9310 -0.1514
              Bcc     0.0904    -6.538    -2.333    -2.181 -0.0460  0.1764  0.9833
 
              Baa    -0.4305    31.153    11.116    10.392  0.9998 -0.0073  0.0193
     9 O(17)  Bbb    -0.4138    29.943    10.684     9.988  0.0102  0.9883 -0.1524
              Bcc     0.8443   -61.096   -21.801   -20.379 -0.0180  0.1525  0.9881
 
              Baa    -0.0080    -4.278    -1.526    -1.427 -0.0462  0.1457  0.9883
    10 H(1)   Bbb     0.0003     0.137     0.049     0.046  0.9087 -0.4048  0.1022
              Bcc     0.0078     4.140     1.477     1.381  0.4149  0.9027 -0.1136
 
              Baa    -0.0054    -2.887    -1.030    -0.963 -0.0630  0.4891  0.8699
    11 H(1)   Bbb    -0.0009    -0.474    -0.169    -0.158  0.9859 -0.1047  0.1303
              Bcc     0.0063     3.361     1.199     1.121  0.1548  0.8659 -0.4757
 
              Baa    -0.0206    -2.769    -0.988    -0.924  0.3376 -0.2611  0.9043
    12 C(13)  Bbb    -0.0171    -2.298    -0.820    -0.767  0.8016  0.5834 -0.1308
              Bcc     0.0378     5.068     1.808     1.690 -0.4935  0.7690  0.4063
 
              Baa    -0.0044    -2.358    -0.841    -0.786  0.2477 -0.0698  0.9663
    13 H(1)   Bbb    -0.0034    -1.809    -0.645    -0.603  0.9688  0.0180 -0.2470
              Bcc     0.0078     4.166     1.487     1.390 -0.0001  0.9974  0.0721
 
              Baa    -0.0054    -2.880    -1.028    -0.961 -0.0026 -0.2256  0.9742
    14 H(1)   Bbb    -0.0011    -0.565    -0.201    -0.188  0.8425  0.5244  0.1237
              Bcc     0.0065     3.445     1.229     1.149 -0.5387  0.8211  0.1887
 
              Baa    -0.0046    -2.442    -0.871    -0.815  0.9932 -0.0307  0.1122
    15 H(1)   Bbb    -0.0035    -1.847    -0.659    -0.616  0.0860  0.8433 -0.5305
              Bcc     0.0080     4.289     1.530     1.431 -0.0783  0.5366  0.8402
 
              Baa    -0.0160    -8.544    -3.049    -2.850  0.8080 -0.5734  0.1356
    16 H(1)   Bbb    -0.0026    -1.387    -0.495    -0.462 -0.0773  0.1249  0.9892
              Bcc     0.0186     9.930     3.543     3.312  0.5841  0.8097 -0.0566
 
              Baa    -0.0033    -0.440    -0.157    -0.147 -0.1722  0.9732 -0.1526
    17 C(13)  Bbb    -0.0010    -0.138    -0.049    -0.046 -0.0432  0.1473  0.9881
              Bcc     0.0043     0.578     0.206     0.193  0.9841  0.1768  0.0166
 
              Baa    -0.0027    -1.454    -0.519    -0.485 -0.2588  0.5695  0.7802
    18 H(1)   Bbb    -0.0019    -0.989    -0.353    -0.330  0.1698  0.8220 -0.5437
              Bcc     0.0046     2.443     0.872     0.815  0.9509  0.0083  0.3094
 
              Baa    -0.0027    -1.451    -0.518    -0.484  0.1660 -0.3152  0.9344
    19 H(1)   Bbb    -0.0018    -0.973    -0.347    -0.325  0.1246  0.9466  0.2972
              Bcc     0.0045     2.424     0.865     0.809  0.9782 -0.0671 -0.1964
 
              Baa    -0.0022    -1.192    -0.425    -0.398 -0.0560  0.1437  0.9880
    20 H(1)   Bbb    -0.0013    -0.713    -0.254    -0.238 -0.1884  0.9703 -0.1518
              Bcc     0.0036     1.905     0.680     0.635  0.9805  0.1947  0.0272
 

 ---------------------------------------------------------------------------------

 No NMR shielding tensors so no spin-rotation constants.
 Leave Link  601 at Wed Dec 03 16:58:21 2025, MaxMem=   104857600 cpu:               1.0 elap:               0.2
 (Enter D:\Gaussian\G16W\l9999.exe)
 1|1|UNPC-PC-20250526LCFF|SP|UB3LYP|6-31G(d)|C8H10O2(1-,2)|ADMINISTRATO
 R|03-Dec-2025|0||#P B3LYP/6-31G* SCF=conver=7 out=wfn||Generated by Mu
 ltiwfn (http://sobereva.com/multiwfn)||-1,2|C,0,1.052157,1.140741,-0.2
 60316|C,0,-0.43803,1.279929,-0.380437|C,0,-1.216434,-0.008717,-0.18056
 3|C,0,-0.465371,-1.259155,0.031188|C,0,0.885148,-1.258939,0.098941|C,0
 ,1.667613,-0.035471,-0.043956|H,0,1.400409,-2.197941,0.273554|O,0,-1.2
 2389,-2.363855,0.176368|O,0,-2.441702,-0.057016,-0.197449|H,0,-2.14271
 ,-2.048218,0.093965|H,0,-0.660237,1.565713,-1.421577|C,0,-1.007475,2.3
 97709,0.521193|H,0,-0.562955,3.360948,0.261793|H,0,-2.088833,2.459411,
 0.395772|H,0,-0.788143,2.191577,1.571459|H,0,1.634459,2.05082,-0.36834
 7|C,0,3.166027,-0.158942,0.062188|H,0,3.457566,-0.577376,1.031336|H,0,
 3.559227,-0.831199,-0.707862|H,0,3.654138,0.810301,-0.050877||Version=
 EM64W-G16RevA.03|State=2-A|HF=-461.2914584|S2=0.758341|S2-1=0.|S2A=0.7
 50037|RMSD=5.368e-008|Dipole=1.0423534,0.5322159,0.0605575|Quadrupole=
 -4.8904254,-1.087471,5.9778964,0.2861567,-0.3933267,0.120559|PG=C01 [X
 (C8H10O2)]||@

 Writing a WFN file to "N+1.wfn"


 THAT'S WHAT MAKES US A GREAT COUNTRY.
 THE LITTLE THINGS ARE SERIOUS AND THE BIG ONES ARE NOT.
           WILL ROGERS
 Job cpu time:       0 days  0 hours  0 minutes 38.0 seconds.
 Elapsed time:       0 days  0 hours  0 minutes 37.5 seconds.
 File lengths (MBytes):  RWF=     33 Int=      0 D2E=      0 Chk=      3 Scr=      1
 Normal termination of Gaussian 16 at Wed Dec 03 16:58:21 2025.
