 Generated by Multiwfn (http://sobereva.com/multiwfn)
GAUSSIAN             75 MOL ORBITALS    320 PRIMITIVES       20 NUCLEI
  C    1    (CENTRE  1)   1.98828836  2.15568843 -0.49192584  CHARGE =  6.0
  C    2    (CENTRE  2)  -0.82775698  2.41871519 -0.71892164  CHARGE =  6.0
  C    3    (CENTRE  3)  -2.29872698 -0.01647305 -0.34121452  CHARGE =  6.0
  C    4    (CENTRE  4)  -0.87942324 -2.37945818  0.05893688  CHARGE =  6.0
  C    5    (CENTRE  5)   1.67268780 -2.37904961  0.18697149  CHARGE =  6.0
  C    6    (CENTRE  6)   3.15133199 -0.06702994 -0.08306470  CHARGE =  6.0
  H    7    (CENTRE  7)   2.64639024 -4.15350607  0.51694224  CHARGE =  1.0
  O    8    (CENTRE  8)  -2.31281609 -4.46703886  0.33328732  CHARGE =  8.0
  O    9    (CENTRE  9)  -4.61414791 -0.10774529 -0.37312443  CHARGE =  8.0
  H   10    (CENTRE 10)  -4.04913434 -3.87057164  0.17756822  CHARGE =  1.0
  H   11    (CENTRE 11)  -1.24766744  2.95876862 -2.68639109  CHARGE =  1.0
  C   12    (CENTRE 12)  -1.90385240  4.53101309  0.98491213  CHARGE =  6.0
  H   13    (CENTRE 13)  -1.06383163  6.35127113  0.49471717  CHARGE =  1.0
  H   14    (CENTRE 14)  -3.94732288  4.64761266  0.74790079  CHARGE =  1.0
  H   15    (CENTRE 15)  -1.48937493  4.14148013  2.96962723  CHARGE =  1.0
  H   16    (CENTRE 16)   3.08867940  3.87548866 -0.69607485  CHARGE =  1.0
  C   17    (CENTRE 17)   5.98292411 -0.30035587  0.11751839  CHARGE =  6.0
  H   18    (CENTRE 18)   6.53385309 -1.09108145  1.94894268  CHARGE =  1.0
  H   19    (CENTRE 19)   6.72596462 -1.57073737 -1.33766521  CHARGE =  1.0
  H   20    (CENTRE 20)   6.90531993  1.53124809 -0.09614349  CHARGE =  1.0
CENTRE ASSIGNMENTS    1  1  1  1  1  1  1  1  1  1  1  1  1  1  1  1  1  1  1  1
CENTRE ASSIGNMENTS    1  1  1  1  1  1  1  1  2  2  2  2  2  2  2  2  2  2  2  2
CENTRE ASSIGNMENTS    2  2  2  2  2  2  2  2  2  2  2  2  2  2  2  2  3  3  3  3
CENTRE ASSIGNMENTS    3  3  3  3  3  3  3  3  3  3  3  3  3  3  3  3  3  3  3  3
CENTRE ASSIGNMENTS    3  3  3  3  4  4  4  4  4  4  4  4  4  4  4  4  4  4  4  4
CENTRE ASSIGNMENTS    4  4  4  4  4  4  4  4  4  4  4  4  5  5  5  5  5  5  5  5
CENTRE ASSIGNMENTS    5  5  5  5  5  5  5  5  5  5  5  5  5  5  5  5  5  5  5  5
CENTRE ASSIGNMENTS    6  6  6  6  6  6  6  6  6  6  6  6  6  6  6  6  6  6  6  6
CENTRE ASSIGNMENTS    6  6  6  6  6  6  6  6  7  7  7  7  8  8  8  8  8  8  8  8
CENTRE ASSIGNMENTS    8  8  8  8  8  8  8  8  8  8  8  8  8  8  8  8  8  8  8  8
CENTRE ASSIGNMENTS    9  9  9  9  9  9  9  9  9  9  9  9  9  9  9  9  9  9  9  9
CENTRE ASSIGNMENTS    9  9  9  9  9  9  9  9 10 10 10 10 11 11 11 11 12 12 12 12
CENTRE ASSIGNMENTS   12 12 12 12 12 12 12 12 12 12 12 12 12 12 12 12 12 12 12 12
CENTRE ASSIGNMENTS   12 12 12 12 13 13 13 13 14 14 14 14 15 15 15 15 16 16 16 16
CENTRE ASSIGNMENTS   17 17 17 17 17 17 17 17 17 17 17 17 17 17 17 17 17 17 17 17
CENTRE ASSIGNMENTS   17 17 17 17 17 17 17 17 18 18 18 18 19 19 19 19 20 20 20 20
TYPE ASSIGNMENTS      1  1  1  1  1  1  1  1  1  2  2  2  3  3  3  4  4  4  1  2
TYPE ASSIGNMENTS      3  4  5  6  7  8  9 10  1  1  1  1  1  1  1  1  1  2  2  2
TYPE ASSIGNMENTS      3  3  3  4  4  4  1  2  3  4  5  6  7  8  9 10  1  1  1  1
TYPE ASSIGNMENTS      1  1  1  1  1  2  2  2  3  3  3  4  4  4  1  2  3  4  5  6
TYPE ASSIGNMENTS      7  8  9 10  1  1  1  1  1  1  1  1  1  2  2  2  3  3  3  4
TYPE ASSIGNMENTS      4  4  1  2  3  4  5  6  7  8  9 10  1  1  1  1  1  1  1  1
TYPE ASSIGNMENTS      1  2  2  2  3  3  3  4  4  4  1  2  3  4  5  6  7  8  9 10
TYPE ASSIGNMENTS      1  1  1  1  1  1  1  1  1  2  2  2  3  3  3  4  4  4  1  2
TYPE ASSIGNMENTS      3  4  5  6  7  8  9 10  1  1  1  1  1  1  1  1  1  1  1  1
TYPE ASSIGNMENTS      1  2  2  2  3  3  3  4  4  4  1  2  3  4  5  6  7  8  9 10
TYPE ASSIGNMENTS      1  1  1  1  1  1  1  1  1  2  2  2  3  3  3  4  4  4  1  2
TYPE ASSIGNMENTS      3  4  5  6  7  8  9 10  1  1  1  1  1  1  1  1  1  1  1  1
TYPE ASSIGNMENTS      1  1  1  1  1  2  2  2  3  3  3  4  4  4  1  2  3  4  5  6
TYPE ASSIGNMENTS      7  8  9 10  1  1  1  1  1  1  1  1  1  1  1  1  1  1  1  1
TYPE ASSIGNMENTS      1  1  1  1  1  1  1  1  1  2  2  2  3  3  3  4  4  4  1  2
TYPE ASSIGNMENTS      3  4  5  6  7  8  9 10  1  1  1  1  1  1  1  1  1  1  1  1
EXPONENTS  0.3047525D+04 0.4573695D+03 0.1039487D+03 0.2921016D+02 0.9286663D+01
EXPONENTS  0.3163927D+01 0.7868272D+01 0.1881289D+01 0.5442493D+00 0.7868272D+01
EXPONENTS  0.1881289D+01 0.5442493D+00 0.7868272D+01 0.1881289D+01 0.5442493D+00
EXPONENTS  0.7868272D+01 0.1881289D+01 0.5442493D+00 0.1687145D+00 0.1687145D+00
EXPONENTS  0.1687145D+00 0.1687145D+00 0.8000000D+00 0.8000000D+00 0.8000000D+00
EXPONENTS  0.8000000D+00 0.8000000D+00 0.8000000D+00 0.3047525D+04 0.4573695D+03
EXPONENTS  0.1039487D+03 0.2921016D+02 0.9286663D+01 0.3163927D+01 0.7868272D+01
EXPONENTS  0.1881289D+01 0.5442493D+00 0.7868272D+01 0.1881289D+01 0.5442493D+00
EXPONENTS  0.7868272D+01 0.1881289D+01 0.5442493D+00 0.7868272D+01 0.1881289D+01
EXPONENTS  0.5442493D+00 0.1687145D+00 0.1687145D+00 0.1687145D+00 0.1687145D+00
EXPONENTS  0.8000000D+00 0.8000000D+00 0.8000000D+00 0.8000000D+00 0.8000000D+00
EXPONENTS  0.8000000D+00 0.3047525D+04 0.4573695D+03 0.1039487D+03 0.2921016D+02
EXPONENTS  0.9286663D+01 0.3163927D+01 0.7868272D+01 0.1881289D+01 0.5442493D+00
EXPONENTS  0.7868272D+01 0.1881289D+01 0.5442493D+00 0.7868272D+01 0.1881289D+01
EXPONENTS  0.5442493D+00 0.7868272D+01 0.1881289D+01 0.5442493D+00 0.1687145D+00
EXPONENTS  0.1687145D+00 0.1687145D+00 0.1687145D+00 0.8000000D+00 0.8000000D+00
EXPONENTS  0.8000000D+00 0.8000000D+00 0.8000000D+00 0.8000000D+00 0.3047525D+04
EXPONENTS  0.4573695D+03 0.1039487D+03 0.2921016D+02 0.9286663D+01 0.3163927D+01
EXPONENTS  0.7868272D+01 0.1881289D+01 0.5442493D+00 0.7868272D+01 0.1881289D+01
EXPONENTS  0.5442493D+00 0.7868272D+01 0.1881289D+01 0.5442493D+00 0.7868272D+01
EXPONENTS  0.1881289D+01 0.5442493D+00 0.1687145D+00 0.1687145D+00 0.1687145D+00
EXPONENTS  0.1687145D+00 0.8000000D+00 0.8000000D+00 0.8000000D+00 0.8000000D+00
EXPONENTS  0.8000000D+00 0.8000000D+00 0.3047525D+04 0.4573695D+03 0.1039487D+03
EXPONENTS  0.2921016D+02 0.9286663D+01 0.3163927D+01 0.7868272D+01 0.1881289D+01
EXPONENTS  0.5442493D+00 0.7868272D+01 0.1881289D+01 0.5442493D+00 0.7868272D+01
EXPONENTS  0.1881289D+01 0.5442493D+00 0.7868272D+01 0.1881289D+01 0.5442493D+00
EXPONENTS  0.1687145D+00 0.1687145D+00 0.1687145D+00 0.1687145D+00 0.8000000D+00
EXPONENTS  0.8000000D+00 0.8000000D+00 0.8000000D+00 0.8000000D+00 0.8000000D+00
EXPONENTS  0.3047525D+04 0.4573695D+03 0.1039487D+03 0.2921016D+02 0.9286663D+01
EXPONENTS  0.3163927D+01 0.7868272D+01 0.1881289D+01 0.5442493D+00 0.7868272D+01
EXPONENTS  0.1881289D+01 0.5442493D+00 0.7868272D+01 0.1881289D+01 0.5442493D+00
EXPONENTS  0.7868272D+01 0.1881289D+01 0.5442493D+00 0.1687145D+00 0.1687145D+00
EXPONENTS  0.1687145D+00 0.1687145D+00 0.8000000D+00 0.8000000D+00 0.8000000D+00
EXPONENTS  0.8000000D+00 0.8000000D+00 0.8000000D+00 0.1873114D+02 0.2825394D+01
EXPONENTS  0.6401217D+00 0.1612778D+00 0.5484672D+04 0.8252349D+03 0.1880470D+03
EXPONENTS  0.5296450D+02 0.1689757D+02 0.5799635D+01 0.1553962D+02 0.3599934D+01
EXPONENTS  0.1013762D+01 0.1553962D+02 0.3599934D+01 0.1013762D+01 0.1553962D+02
EXPONENTS  0.3599934D+01 0.1013762D+01 0.1553962D+02 0.3599934D+01 0.1013762D+01
EXPONENTS  0.2700058D+00 0.2700058D+00 0.2700058D+00 0.2700058D+00 0.8000000D+00
EXPONENTS  0.8000000D+00 0.8000000D+00 0.8000000D+00 0.8000000D+00 0.8000000D+00
EXPONENTS  0.5484672D+04 0.8252349D+03 0.1880470D+03 0.5296450D+02 0.1689757D+02
EXPONENTS  0.5799635D+01 0.1553962D+02 0.3599934D+01 0.1013762D+01 0.1553962D+02
EXPONENTS  0.3599934D+01 0.1013762D+01 0.1553962D+02 0.3599934D+01 0.1013762D+01
EXPONENTS  0.1553962D+02 0.3599934D+01 0.1013762D+01 0.2700058D+00 0.2700058D+00
EXPONENTS  0.2700058D+00 0.2700058D+00 0.8000000D+00 0.8000000D+00 0.8000000D+00
EXPONENTS  0.8000000D+00 0.8000000D+00 0.8000000D+00 0.1873114D+02 0.2825394D+01
EXPONENTS  0.6401217D+00 0.1612778D+00 0.1873114D+02 0.2825394D+01 0.6401217D+00
EXPONENTS  0.1612778D+00 0.3047525D+04 0.4573695D+03 0.1039487D+03 0.2921016D+02
EXPONENTS  0.9286663D+01 0.3163927D+01 0.7868272D+01 0.1881289D+01 0.5442493D+00
EXPONENTS  0.7868272D+01 0.1881289D+01 0.5442493D+00 0.7868272D+01 0.1881289D+01
EXPONENTS  0.5442493D+00 0.7868272D+01 0.1881289D+01 0.5442493D+00 0.1687145D+00
EXPONENTS  0.1687145D+00 0.1687145D+00 0.1687145D+00 0.8000000D+00 0.8000000D+00
EXPONENTS  0.8000000D+00 0.8000000D+00 0.8000000D+00 0.8000000D+00 0.1873114D+02
EXPONENTS  0.2825394D+01 0.6401217D+00 0.1612778D+00 0.1873114D+02 0.2825394D+01
EXPONENTS  0.6401217D+00 0.1612778D+00 0.1873114D+02 0.2825394D+01 0.6401217D+00
EXPONENTS  0.1612778D+00 0.1873114D+02 0.2825394D+01 0.6401217D+00 0.1612778D+00
EXPONENTS  0.3047525D+04 0.4573695D+03 0.1039487D+03 0.2921016D+02 0.9286663D+01
EXPONENTS  0.3163927D+01 0.7868272D+01 0.1881289D+01 0.5442493D+00 0.7868272D+01
EXPONENTS  0.1881289D+01 0.5442493D+00 0.7868272D+01 0.1881289D+01 0.5442493D+00
EXPONENTS  0.7868272D+01 0.1881289D+01 0.5442493D+00 0.1687145D+00 0.1687145D+00
EXPONENTS  0.1687145D+00 0.1687145D+00 0.8000000D+00 0.8000000D+00 0.8000000D+00
EXPONENTS  0.8000000D+00 0.8000000D+00 0.8000000D+00 0.1873114D+02 0.2825394D+01
EXPONENTS  0.6401217D+00 0.1612778D+00 0.1873114D+02 0.2825394D+01 0.6401217D+00
EXPONENTS  0.1612778D+00 0.1873114D+02 0.2825394D+01 0.6401217D+00 0.1612778D+00
MO    1     MO 0.0        OCC NO =    1.0000000  ORB. ENERGY =  -18.981301
  0.81560151D-05  0.15046255D-04  0.24289321D-04  0.31617479D-04  0.26979252D-04
  0.93152875D-05 -0.31637708D-04 -0.14581791D-04  0.40888863D-04 -0.30226736D-05
 -0.23175944D-05 -0.11566420D-05 -0.18542069D-04 -0.14216882D-04 -0.70952207D-05
 -0.52320601D-06 -0.40116118D-06 -0.20020755D-06 -0.22179091D-03  0.83023037D-04
  0.64667821D-04 -0.62478623D-05 -0.19536733D-04  0.13825943D-04  0.36063959D-04
  0.39955777D-04 -0.68255060D-05  0.71169020D-05 -0.11043166D-04 -0.20372485D-04
 -0.32887507D-04 -0.42809762D-04 -0.36529648D-04 -0.12612810D-04  0.54201463D-04
  0.24981405D-04 -0.70050466D-04 -0.44941119D-04 -0.34458000D-04 -0.17196957D-04
 -0.92894503D-04 -0.71225613D-04 -0.35546573D-04 -0.15057695D-05 -0.11545285D-05
 -0.57619064D-06  0.37651477D-03  0.74827518D-04 -0.12521517D-03  0.43570214D-04
 -0.15435364D-04  0.43228843D-04 -0.11591503D-04 -0.11016764D-04 -0.95034888D-06
 -0.16057889D-04  0.27376561D-04  0.50504409D-04  0.81529775D-04  0.10612754D-03
  0.90558824D-04  0.31267786D-04 -0.12740633D-03 -0.58721463D-04  0.16466111D-03
 -0.51094554D-04 -0.39176064D-04 -0.19551601D-04  0.76477190D-04  0.58637858D-04
  0.29264401D-04 -0.25429938D-04 -0.19498063D-04 -0.97309001D-05 -0.36446144D-03
 -0.48060864D-03 -0.28701187D-05 -0.82249218D-05  0.57105528D-04 -0.56463596D-04
  0.70220635D-04  0.33093814D-04 -0.97826403D-05  0.39969616D-04 -0.30572042D-04
 -0.56399448D-04 -0.91046197D-04 -0.11851510D-03 -0.10112915D-03 -0.34917464D-04
 -0.57206307D-04 -0.26366335D-04  0.73933955D-04 -0.26775956D-03 -0.20530105D-03
 -0.10245961D-03 -0.50173291D-03 -0.38469697D-03 -0.19199075D-03  0.73869971D-04
  0.56638808D-04  0.28266735D-04  0.40099732D-04  0.37947698D-03  0.72614220D-03
 -0.10014010D-03 -0.10922268D-03 -0.82392819D-04 -0.12028493D-03 -0.11566689D-03
  0.24063265D-04 -0.13229960D-04  0.77800479D-05  0.14352669D-04  0.23169658D-04
  0.30160011D-04  0.25735592D-04  0.88858814D-05 -0.63876838D-04 -0.29440776D-04
  0.82555009D-04  0.44839104D-05  0.34379781D-05  0.17157920D-05  0.20628784D-04
  0.15816843D-04  0.78937134D-05 -0.45905309D-05 -0.35197279D-05 -0.17565909D-05
 -0.40218592D-03  0.10386666D-03 -0.30462330D-03  0.54751943D-04 -0.64648284D-04
 -0.51938910D-04  0.30104306D-04  0.94461011D-05 -0.15530559D-04  0.29363857D-04
 -0.81510450D-06 -0.15037086D-05 -0.24274520D-05 -0.31598212D-05 -0.26962812D-05
 -0.93096110D-06  0.16469867D-04  0.75909468D-05 -0.21285807D-04 -0.62793524D-04
 -0.48146091D-04 -0.24028274D-04 -0.51176457D-04 -0.39238861D-04 -0.19582942D-04
  0.31749475D-05  0.24343483D-05  0.12149104D-05  0.30095842D-03 -0.86173152D-04
 -0.40758985D-04  0.10048962D-05  0.19242827D-04  0.45332215D-04  0.15216506D-04
  0.24051794D-04 -0.20541448D-05 -0.58528384D-05 -0.12331632D-04 -0.20916781D-04
 -0.23813016D-04 -0.13022699D-03  0.82560302D+00  0.15195503D+01  0.24589192D+01
  0.32323181D+01  0.27723405D+01  0.94791028D+00 -0.15757517D-01 -0.70309732D-02
  0.20762558D-01 -0.11368997D-02 -0.87591993D-03 -0.38457603D-03  0.27048695D-02
  0.20839561D-02  0.91496898D-03 -0.47237687D-03 -0.36394092D-03 -0.15978966D-03
  0.40406172D-02  0.26081837D-03  0.30027802D-03 -0.37631048D-04 -0.92740604D-02
 -0.92852817D-02 -0.92870693D-02  0.18817788D-03 -0.27734129D-04  0.67104570D-05
  0.35842115D-04  0.65968625D-04  0.10674969D-03  0.14032545D-03  0.12035633D-03
  0.41151872D-04 -0.17858541D-03 -0.79684462D-04  0.23530928D-03  0.85469193D-04
  0.65849406D-04  0.28911436D-04  0.92454273D-04  0.71231033D-04  0.31274260D-04
 -0.15613768D-04 -0.12029567D-04 -0.52816277D-05 -0.56426018D-03 -0.16181965D-03
 -0.70157538D-04  0.75734288D-05  0.11159290D-03  0.22999152D-03  0.18919385D-03
 -0.13448314D-04 -0.26709039D-05 -0.81710432D-05  0.80174199D-04  0.13599062D-03
  0.15482051D-03 -0.21634832D-03 -0.40982788D-05 -0.69514565D-05 -0.79139875D-05
  0.86211080D-05  0.11950357D-05  0.22046074D-05  0.35589200D-05  0.46326564D-05
  0.39530541D-05  0.13648946D-05 -0.10779142D-04 -0.49680966D-05  0.13931061D-04
 -0.20164205D-04 -0.15460633D-04 -0.77159395D-05  0.77095976D-05  0.59112304D-05
  0.29501183D-05  0.20287740D-04  0.15555353D-04  0.77632111D-05 -0.11124413D-04
 -0.48116736D-05  0.23654420D-04 -0.21222484D-04 -0.14855242D-04 -0.20958533D-04
  0.11256262D-04  0.24442150D-04 -0.76680668D-05 -0.15121724D-04 -0.27815198D-05
 -0.47179840D-05 -0.53712580D-05 -0.71785430D-05  0.34739678D-05  0.58925069D-05
  0.67084108D-05 -0.12748208D-04  0.30112864D-05  0.51077117D-05  0.58149493D-05
  0.18391015D-04 -0.34943204D-05 -0.59270288D-05 -0.67477129D-05 -0.22871121D-04
  0.50448333D-05  0.93067323D-05  0.15023952D-04  0.19556721D-04  0.16687785D-04
  0.57618913D-05 -0.17442619D-04 -0.80392873D-05  0.22543001D-04 -0.46737187D-06
 -0.35835110D-06 -0.17884232D-06  0.47018666D-06  0.36050931D-06  0.17991941D-06
 -0.26803679D-06 -0.20551361D-06 -0.10256570D-06 -0.28058415D-04  0.12161779D-04
  0.74035072D-05 -0.19050149D-06 -0.46424996D-05  0.20903422D-04  0.17969933D-04
 -0.57752627D-05 -0.17788138D-05 -0.78927511D-06  0.20383764D-05  0.34574722D-05
  0.39362099D-05  0.47247597D-05  0.18965089D-05  0.32168380D-05  0.36622564D-05
  0.53121365D-05  0.21973655D-05  0.37271478D-05  0.42432260D-05 -0.32385816D-05
MO    2     MO 0.0        OCC NO =    1.0000000  ORB. ENERGY =  -18.909821
  0.34605297D-05  0.63840015D-05  0.10305758D-04  0.13415035D-04  0.11447073D-04
  0.39523994D-05 -0.61777578D-05 -0.28473229D-05  0.79841907D-05 -0.86840006D-04
 -0.66583409D-04 -0.33229787D-04 -0.50046843D-04 -0.38372745D-04 -0.19150689D-04
  0.19317889D-05  0.14811732D-05  0.73920922D-06  0.22055295D-03 -0.10227917D-03
  0.11153961D-04 -0.77160300D-05  0.35454249D-04  0.25056193D-06  0.38564234D-04
 -0.59345046D-04  0.11058282D-04  0.14708378D-04  0.26228169D-04  0.48385851D-04
  0.78109766D-04  0.10167571D-03  0.86760065D-04  0.29956165D-04 -0.11103867D-03
 -0.51177623D-04  0.14350740D-03  0.42608457D-04  0.32669463D-04  0.16304352D-04
  0.80917004D-04  0.62042026D-04  0.30963319D-04  0.12519476D-05  0.95991399D-06
  0.47906436D-06 -0.57521198D-03 -0.13720000D-03  0.18772728D-03 -0.48620913D-04
  0.31481772D-04  0.33829947D-05  0.73094447D-04  0.35796805D-04 -0.35789596D-05
  0.36125189D-04 -0.29990470D-04 -0.55326561D-04 -0.89314224D-04 -0.11626058D-03
 -0.99205366D-04 -0.34253229D-04 -0.10785090D-03 -0.49708383D-04  0.13938749D-03
 -0.93353279D-04 -0.71577373D-04 -0.35722126D-04 -0.22973603D-04 -0.17614702D-04
 -0.87909707D-05  0.18208286D-04  0.13960959D-04  0.69674969D-05 -0.37421213D-03
  0.10095191D-02  0.93961873D-04  0.14143235D-06 -0.10375163D-02 -0.97940483D-04
 -0.14879011D-03 -0.13710249D-03 -0.58326176D-05 -0.18601007D-04  0.20794749D-04
  0.38362251D-04  0.61928567D-04  0.80612594D-04  0.68786873D-04  0.23750454D-04
 -0.90918152D-04 -0.41904093D-04  0.11750345D-03  0.26896859D-04  0.20622805D-04
  0.10292225D-04 -0.69417453D-04 -0.53224900D-04 -0.26562955D-04  0.63664470D-05
  0.48813878D-05  0.24361546D-05 -0.32711622D-03 -0.36356452D-03 -0.41250965D-03
  0.55434601D-04 -0.39481912D-04  0.92425941D-04  0.50761269D-04  0.16046813D-03
 -0.37318108D-04 -0.46207909D-05  0.26774505D-05  0.49393734D-05  0.79736802D-05
  0.10379362D-04  0.88567287D-05  0.30580156D-05 -0.19516268D-05 -0.89950303D-06
  0.25223004D-05 -0.13292919D-03 -0.10192167D-03 -0.50866058D-04  0.27449538D-04
  0.21046564D-04  0.10503711D-04 -0.10028156D-04 -0.76889538D-05 -0.38373268D-05
  0.45871483D-03 -0.71613404D-04  0.16221659D-03 -0.32316026D-04  0.33454794D-04
  0.20082394D-04  0.31918177D-04  0.26950476D-04  0.66065495D-05  0.34956465D-05
  0.71777186D-05  0.13241489D-04  0.21375869D-04  0.27825031D-04  0.23743149D-04
  0.81979388D-05 -0.27323193D-04 -0.12593235D-04  0.35312745D-04 -0.70227842D-04
 -0.53846255D-04 -0.26873055D-04  0.10710368D-04  0.82120307D-05  0.40983789D-05
 -0.43603405D-05 -0.33432325D-05 -0.16685073D-05 -0.14651521D-03  0.15163407D-03
  0.68631814D-04 -0.16087195D-05  0.30515531D-04 -0.39120032D-04  0.37501746D-04
 -0.32855792D-04  0.52326877D-05  0.20312706D-04  0.72338972D-05  0.12270059D-04
  0.13969028D-04  0.32105277D-04  0.65980702D-04  0.12143971D-03  0.19651238D-03
  0.25832103D-03  0.22156044D-03  0.75755278D-04 -0.17695738D-03 -0.78958039D-04
  0.23316415D-03  0.15205377D-03  0.11714924D-03  0.51434824D-04  0.10781171D-03
  0.83063112D-04  0.36469180D-04 -0.61713545D-05 -0.47546959D-05 -0.20875676D-05
 -0.53435221D-03 -0.19503947D-03 -0.15458634D-03  0.15181497D-04  0.21232228D-03
  0.11963484D-03  0.18985282D-03 -0.16211214D-03  0.25366754D-04  0.13603992D-04
  0.82554446D+00  0.15194425D+01  0.24587448D+01  0.32320888D+01  0.27721438D+01
  0.94784305D+00 -0.15673493D-01 -0.69934820D-02  0.20651846D-01  0.32337713D-02
  0.24914465D-02  0.10938792D-02 -0.71474197D-05 -0.55067016D-05 -0.24177386D-05
  0.45488256D-04  0.35046249D-04  0.15387191D-04  0.46100558D-02  0.65819918D-03
  0.81704195D-05  0.16025732D-04 -0.89369025D-02 -0.95663090D-02 -0.94959668D-02
  0.43858414D-04  0.22157656D-04  0.25817362D-04 -0.73826534D-05 -0.12522377D-04
 -0.14256284D-04 -0.10327258D-03  0.10823676D-04  0.18359002D-04  0.20901075D-04
  0.91111276D-05 -0.45415469D-05 -0.83782672D-05 -0.13525121D-04 -0.17605689D-04
 -0.15022966D-04 -0.51870692D-05  0.32912988D-04  0.15169566D-04 -0.42537047D-04
  0.29280243D-04  0.22450233D-04  0.11204240D-04 -0.52289735D-04 -0.40092452D-04
 -0.20008943D-04 -0.42614494D-04 -0.32674091D-04 -0.16306661D-04  0.56974993D-04
 -0.13967157D-04 -0.25538680D-04  0.38023267D-04  0.11476844D-04  0.52202440D-04
 -0.17208714D-04 -0.28545266D-05  0.29304202D-04 -0.10048352D-04  0.13425989D-05
  0.22773018D-05  0.25926276D-05  0.48183221D-05  0.12344837D-04  0.20939179D-04
  0.23838516D-04 -0.45438908D-04 -0.12314216D-04 -0.20887241D-04 -0.23779385D-04
 -0.20740500D-04 -0.20721446D-05 -0.35147494D-05 -0.40014180D-05 -0.16720087D-04
  0.30484580D-05  0.56238098D-05  0.90785728D-05  0.11817604D-04  0.10083983D-04
  0.34817571D-05 -0.13381360D-04 -0.61674567D-05  0.17294192D-04  0.30573155D-04
  0.23441556D-04  0.11698979D-04 -0.49913908D-05 -0.38270819D-05 -0.19099821D-05
  0.19763523D-05  0.15153416D-05  0.75626165D-06 -0.96092144D-04  0.24453120D-04
 -0.17931984D-04  0.43256727D-05 -0.86226825D-05  0.40737643D-05  0.97242079D-05
  0.25139182D-04 -0.60173816D-05  0.21063069D-05  0.18942176D-05  0.32129516D-05
  0.36578318D-05  0.51424265D-06  0.23238396D-05  0.39416718D-05  0.44874541D-05
  0.18242202D-07  0.21311377D-05  0.36148129D-05  0.41153367D-05  0.15985248D-04
MO    3     MO 0.0        OCC NO =    1.0000000  ORB. ENERGY =  -10.038232
 -0.87990475D-05 -0.16232524D-04 -0.26204328D-04 -0.34110248D-04 -0.29106337D-04
 -0.10049719D-04  0.31209461D-04  0.14384412D-04 -0.40335392D-04 -0.13765648D-03
 -0.10554626D-03 -0.52674980D-04 -0.84407218D-05 -0.64718101D-05 -0.32298868D-05
 -0.80212250D-05 -0.61501666D-05 -0.30693642D-05 -0.12845177D-03  0.68517734D-05
  0.26565524D-04 -0.44334705D-05 -0.50793445D-04  0.81483520D-04 -0.72761054D-04
  0.54519568D-04 -0.33873857D-05 -0.45683061D-04 -0.44581167D-04 -0.82243549D-04
 -0.13276659D-03 -0.17282265D-03 -0.14746988D-03 -0.50917806D-04  0.79190238D-04
  0.36498708D-04 -0.10234619D-03 -0.13644273D-04 -0.10461563D-04 -0.52210532D-05
 -0.83776248D-05 -0.64234313D-05 -0.32057424D-05 -0.67657735D-05 -0.51875660D-05
 -0.25889590D-05  0.27549788D-03  0.42896620D-05 -0.78680255D-04  0.20236779D-04
 -0.68944339D-05 -0.33187863D-04 -0.73795914D-04 -0.93972666D-05  0.10166917D-04
 -0.16444987D-04 -0.31609196D-04 -0.58312794D-04 -0.94134930D-04 -0.12253571D-03
 -0.10455994D-03 -0.36102036D-04  0.15944572D-04  0.73488387D-05 -0.20606911D-04
  0.77850277D-05  0.59690654D-05  0.29789820D-05  0.22651401D-04  0.17367658D-04
  0.86676784D-05 -0.33613113D-05 -0.25772403D-05 -0.12862235D-05 -0.12440029D-04
 -0.60139800D-04 -0.15502405D-03  0.21059894D-04 -0.44599425D-04  0.24048536D-04
 -0.26888716D-04 -0.72975327D-05  0.21502000D-05 -0.14531758D-04 -0.90892710D-04
 -0.16767930D-03 -0.27068639D-03 -0.35235325D-03 -0.30066366D-03 -0.10381194D-03
  0.74209171D-04  0.34202939D-04 -0.95908612D-04 -0.35026227D-04 -0.26855889D-04
 -0.13402971D-04  0.24957987D-04  0.19136201D-04  0.95503055D-05 -0.45514006D-05
 -0.34897253D-05 -0.17416175D-05  0.37083334D-03  0.37438251D-03 -0.11469384D-05
  0.16992524D-04  0.30737596D-04 -0.67269043D-04 -0.81473616D-04  0.95890777D-05
  0.13615036D-04 -0.42507277D-05 -0.17402548D-05 -0.32104302D-05 -0.51826298D-05
 -0.67462442D-05 -0.57565824D-05 -0.19876096D-05  0.12527115D-04  0.57737358D-05
 -0.16190158D-04 -0.13014514D-03 -0.99787039D-04 -0.49800726D-04 -0.76385024D-05
 -0.58567192D-05 -0.29229133D-05 -0.73440143D-05 -0.56309244D-05 -0.28102259D-05
 -0.33247574D-03  0.32455531D-03  0.74632404D-04  0.59300718D-05 -0.57362293D-04
  0.12440934D-03 -0.35298490D-04  0.27995248D-04 -0.48013128D-05 -0.48907300D-04
  0.24089580D-02  0.44440572D-02  0.71740863D-02  0.93385287D-02  0.79685835D-02
  0.27513604D-02  0.34758994D-05  0.16020389D-05 -0.44922842D-05 -0.29562461D-03
 -0.22666620D-03 -0.11312232D-03 -0.52866648D-04 -0.40534792D-04 -0.20229702D-04
 -0.97869598D-05 -0.75040201D-05 -0.37450319D-05  0.82190827D-03  0.44497608D-03
  0.11443705D-03  0.87532083D-05 -0.43112900D-03 -0.21200361D-03 -0.20208701D-03
 -0.65657015D-05 -0.25903028D-04  0.26893778D-05 -0.15790064D-04 -0.26782937D-04
 -0.30491427D-04  0.66020953D-05 -0.21081048D-04 -0.38800381D-04 -0.62786341D-04
 -0.82534403D-04 -0.70789278D-04 -0.24204056D-04  0.70736966D-04  0.31562697D-04
 -0.93205066D-04 -0.12790613D-04 -0.98544774D-05 -0.43266464D-05 -0.49047791D-04
 -0.37788679D-04 -0.16591265D-04  0.93887070D-05  0.72334926D-05  0.31758929D-05
  0.18498771D-03 -0.19560403D-04  0.74278130D-04 -0.13470401D-04 -0.10346059D-03
 -0.31527823D-04 -0.90344695D-04 -0.24434416D-04  0.41277761D-05 -0.21955751D-04
 -0.88298561D-05 -0.16251649D-04 -0.26298236D-04 -0.34569767D-04 -0.29650288D-04
 -0.10137937D-04  0.27800496D-04  0.12404527D-04 -0.36630735D-04 -0.29484438D-04
 -0.22716170D-04 -0.99736223D-05 -0.32515049D-05 -0.25051093D-05 -0.10998779D-05
  0.17518230D-05  0.13496852D-05  0.59258451D-06  0.13173082D-04  0.23411474D-04
  0.24141423D-04 -0.32078561D-05 -0.20756052D-05 -0.27119843D-04 -0.64358550D-04
  0.23680944D-04 -0.42638226D-06 -0.11129885D-04 -0.66236814D-05 -0.11235017D-04
 -0.12790670D-04  0.92968482D-05 -0.78056598D-05 -0.13239876D-04 -0.15073131D-04
 -0.50690080D-05 -0.60211972D-05 -0.11107933D-04 -0.17931648D-04 -0.23341678D-04
 -0.19917496D-04 -0.68770327D-05  0.11208193D-05  0.51658457D-06 -0.14485571D-05
 -0.10845764D-04 -0.83158442D-05 -0.41501891D-05  0.23449769D-04  0.17979795D-04
  0.89731780D-05  0.16730213D-04  0.12827666D-04  0.64019045D-05 -0.17324397D-04
 -0.57648712D-05  0.33252087D-05 -0.60786203D-05 -0.34694995D-05 -0.99607155D-05
 -0.43489550D-05  0.29099977D-04 -0.78564621D-05  0.81508196D-05 -0.11385777D-05
 -0.19312432D-05 -0.21986521D-05  0.85546546D-05 -0.43779381D-06 -0.74258117D-06
 -0.84540241D-06  0.25854160D-05  0.26405412D-05  0.44788576D-05  0.50990211D-05
  0.34838304D-05 -0.53116469D-05 -0.90095585D-05 -0.10257064D-04 -0.22194755D-04
  0.53254848D+00  0.98244796D+00  0.15859756D+01  0.20644690D+01  0.17616152D+01
  0.60824338D+00 -0.20049294D-01 -0.92407011D-02  0.25911890D-01  0.19873049D-03
  0.15237393D-03  0.76045273D-04 -0.11741771D-03 -0.90028450D-04 -0.44930506D-04
  0.26228384D-04  0.20110262D-04  0.10036430D-04 -0.33822575D-02  0.19742245D-03
  0.72883071D-05  0.11136858D-04 -0.10297062D-01 -0.10127598D-01 -0.10125783D-01
  0.90973908D-04 -0.33408003D-04  0.63717911D-05  0.16602334D-06  0.28160701D-06
  0.32059963D-06  0.50701692D-03  0.11174300D-06  0.18953727D-06  0.21578149D-06
  0.50787546D-03 -0.11952608D-04 -0.20273886D-04 -0.23081102D-04  0.48588390D-03
MO    4     MO 0.0        OCC NO =    1.0000000  ORB. ENERGY =  -10.032271
  0.43737124D-04  0.80686454D-04  0.13025295D-03  0.16955064D-03  0.14467787D-03
  0.49953792D-04 -0.49952207D-04 -0.23022927D-04  0.64558690D-04  0.15943294D-03
  0.12224307D-03  0.61007857D-04  0.90666101D-04  0.69517015D-04  0.34693863D-04
 -0.31984088D-04 -0.24523370D-04 -0.12238881D-04 -0.88135918D-03  0.28960048D-03
  0.22111931D-03 -0.60592327D-06 -0.23476817D-05  0.47946887D-04  0.26297654D-05
  0.38853837D-04 -0.25106489D-04 -0.42808855D-04  0.34802418D-02  0.64203666D-02
  0.10364462D-01  0.13491451D-01  0.11512279D-01  0.39749134D-02  0.77247548D-04
  0.35603324D-04 -0.99835438D-04  0.16479395D-04  0.12635355D-04  0.63059278D-05
  0.15605566D-03  0.11965358D-03  0.59715523D-04 -0.99412530D-04 -0.76223223D-04
 -0.38040730D-04  0.15574242D-02  0.27174804D-03 -0.70939136D-03  0.12522915D-03
 -0.40691319D-03 -0.37742643D-03 -0.30251877D-03 -0.44983302D-03  0.16986547D-03
 -0.67519766D-04  0.53143049D+00  0.98038548D+00  0.15826461D+01  0.20601350D+01
  0.17579170D+01  0.60696648D+00 -0.20004204D-01 -0.92199192D-02  0.25853616D-01
 -0.10764061D-02 -0.82531996D-03 -0.41189250D-03  0.20928489D-03  0.16046638D-03
  0.80083970D-04 -0.61092773D-04 -0.46842063D-04 -0.23377473D-04 -0.26130898D-02
 -0.15077748D-02 -0.14030133D-03 -0.13328639D-04 -0.93537507D-02 -0.10552026D-01
 -0.10466961D-01  0.11880675D-03  0.31934009D-04 -0.21203030D-05  0.33920858D-01
  0.62577360D-01  0.10101926D+00  0.13149706D+00  0.11220668D+00  0.38742271D-01
 -0.99599929D-03 -0.45905516D-03  0.12872386D-02  0.82783991D-04  0.63473513D-04
  0.31677732D-04 -0.35531000D-03 -0.27242917D-03 -0.13596125D-03  0.45593416D-04
  0.34958139D-04  0.17446562D-04  0.14757859D-02  0.41395351D-03  0.93124600D-03
 -0.12100993D-03 -0.11145836D-02 -0.11413194D-02 -0.10116941D-02  0.30545587D-03
 -0.39561531D-04  0.54691264D-04  0.19913094D-03  0.36735771D-03  0.59302924D-03
  0.77194787D-03  0.65870451D-03  0.22743484D-03 -0.16380890D-04 -0.75499374D-05
  0.21170812D-04  0.20203306D-03  0.15490614D-03  0.77309020D-04 -0.89393436D-04
 -0.68541217D-04 -0.34206871D-04  0.12220790D-04  0.93701267D-05  0.46763499D-05
 -0.10339926D-02  0.16446502D-03 -0.43708495D-03  0.79712339D-04  0.89806220D-04
 -0.37612180D-04 -0.51229952D-04  0.19414352D-04  0.69927373D-05  0.70336408D-05
 -0.10351106D-03 -0.19095769D-03 -0.30826492D-03 -0.40126934D-03 -0.34240385D-03
 -0.11822382D-03  0.10731561D-03  0.49461668D-04 -0.13869568D-03  0.19774615D-03
  0.15161921D-03  0.75668610D-04 -0.73891592D-05 -0.56655386D-05 -0.28275008D-05
  0.25756879D-05  0.19748741D-05  0.98560058D-06  0.67890760D-03 -0.53066147D-03
 -0.68497050D-04 -0.22028893D-04 -0.65986056D-04  0.41213037D-04 -0.11992164D-03
  0.49912373D-04 -0.33347929D-06 -0.59029193D-04 -0.19658529D-04 -0.33344586D-04
 -0.37961633D-04 -0.89099815D-04 -0.78607272D-04 -0.14467934D-03 -0.23411849D-03
 -0.30775531D-03 -0.26395994D-03 -0.90252386D-04  0.26912031D-03  0.12008096D-03
 -0.35460068D-03 -0.18068464D-03 -0.13920778D-03 -0.61119712D-04 -0.33573342D-04
 -0.25866450D-04 -0.11356765D-04  0.13888126D-04  0.10700052D-04  0.46978993D-05
  0.78006530D-03  0.19521669D-03  0.11805958D-03 -0.17696137D-04 -0.26384216D-03
 -0.23969042D-03 -0.27486738D-03  0.75712934D-04 -0.15426578D-04 -0.13823557D-04
  0.27911786D-04  0.51372586D-04  0.83130541D-04  0.10927742D-03  0.93726611D-04
  0.32046720D-04 -0.66873686D-03 -0.29838908D-03  0.88114696D-03 -0.14340677D-03
 -0.11048719D-03 -0.48509826D-04 -0.35473088D-04 -0.27330102D-04 -0.11999387D-04
  0.21763795D-04  0.16767831D-04  0.73619809D-05 -0.19939598D-02 -0.83339406D-03
  0.93699324D-08 -0.19554188D-04 -0.90275016D-04  0.82433401D-03  0.92190334D-03
 -0.32904828D-04 -0.34797088D-04  0.22907041D-04  0.42497072D-05  0.72083078D-05
  0.82064036D-05  0.43452288D-04 -0.41674391D-04 -0.70687655D-04 -0.80475397D-04
  0.11320175D-03 -0.14074285D-03 -0.25964308D-03 -0.41914444D-03 -0.54560152D-03
 -0.46556277D-03 -0.16074764D-03  0.94327882D-04  0.43475634D-04 -0.12191022D-03
  0.80223353D-06  0.61510178D-06  0.30697890D-06  0.19274577D-03  0.14778523D-03
  0.73755188D-04  0.43410021D-04  0.33284051D-04  0.16611074D-04  0.21712316D-03
 -0.41642301D-04 -0.75429450D-04 -0.12120713D-03 -0.12033587D-03 -0.94717518D-04
 -0.22966637D-04  0.92773419D-04 -0.56818144D-04  0.11205103D-03 -0.70824187D-05
 -0.12013123D-04 -0.13676516D-04  0.48208051D-04 -0.18064423D-04 -0.30640680D-04
 -0.34883331D-04 -0.61449508D-04 -0.18583788D-04 -0.31521622D-04 -0.35886252D-04
  0.63755189D-04 -0.69662444D-05 -0.11816069D-04 -0.13452177D-04 -0.40518272D-04
  0.23867057D-04  0.44030059D-04  0.71078168D-04  0.92522655D-04  0.78949749D-04
  0.27259451D-04  0.36090057D-04  0.16633874D-04 -0.46643119D-04 -0.81709258D-04