 Generated by Multiwfn (http://sobereva.com/multiwfn)
GAUSSIAN             73 MOL ORBITALS    320 PRIMITIVES       20 NUCLEI
  C    1    (CENTRE  1)   1.98828836  2.15568843 -0.49192584  CHARGE =  6.0
  C    2    (CENTRE  2)  -0.82775698  2.41871519 -0.71892164  CHARGE =  6.0
  C    3    (CENTRE  3)  -2.29872698 -0.01647305 -0.34121452  CHARGE =  6.0
  C    4    (CENTRE  4)  -0.87942324 -2.37945818  0.05893688  CHARGE =  6.0
  C    5    (CENTRE  5)   1.67268780 -2.37904961  0.18697149  CHARGE =  6.0
  C    6    (CENTRE  6)   3.15133199 -0.06702994 -0.08306470  CHARGE =  6.0
  H    7    (CENTRE  7)   2.64639024 -4.15350607  0.51694224  CHARGE =  1.0
  O    8    (CENTRE  8)  -2.31281609 -4.46703886  0.33328732  CHARGE =  8.0
  O    9    (CENTRE  9)  -4.61414791 -0.10774529 -0.37312443  CHARGE =  8.0
  H   10    (CENTRE 10)  -4.04913434 -3.87057164  0.17756822  CHARGE =  1.0
  H   11    (CENTRE 11)  -1.24766744  2.95876862 -2.68639109  CHARGE =  1.0
  C   12    (CENTRE 12)  -1.90385240  4.53101309  0.98491213  CHARGE =  6.0
  H   13    (CENTRE 13)  -1.06383163  6.35127113  0.49471717  CHARGE =  1.0
  H   14    (CENTRE 14)  -3.94732288  4.64761266  0.74790079  CHARGE =  1.0
  H   15    (CENTRE 15)  -1.48937493  4.14148013  2.96962723  CHARGE =  1.0
  H   16    (CENTRE 16)   3.08867940  3.87548866 -0.69607485  CHARGE =  1.0
  C   17    (CENTRE 17)   5.98292411 -0.30035587  0.11751839  CHARGE =  6.0
  H   18    (CENTRE 18)   6.53385309 -1.09108145  1.94894268  CHARGE =  1.0
  H   19    (CENTRE 19)   6.72596462 -1.57073737 -1.33766521  CHARGE =  1.0
  H   20    (CENTRE 20)   6.90531993  1.53124809 -0.09614349  CHARGE =  1.0
CENTRE ASSIGNMENTS    1  1  1  1  1  1  1  1  1  1  1  1  1  1  1  1  1  1  1  1
CENTRE ASSIGNMENTS    1  1  1  1  1  1  1  1  2  2  2  2  2  2  2  2  2  2  2  2
CENTRE ASSIGNMENTS    2  2  2  2  2  2  2  2  2  2  2  2  2  2  2  2  3  3  3  3
CENTRE ASSIGNMENTS    3  3  3  3  3  3  3  3  3  3  3  3  3  3  3  3  3  3  3  3
CENTRE ASSIGNMENTS    3  3  3  3  4  4  4  4  4  4  4  4  4  4  4  4  4  4  4  4
CENTRE ASSIGNMENTS    4  4  4  4  4  4  4  4  4  4  4  4  5  5  5  5  5  5  5  5
CENTRE ASSIGNMENTS    5  5  5  5  5  5  5  5  5  5  5  5  5  5  5  5  5  5  5  5
CENTRE ASSIGNMENTS    6  6  6  6  6  6  6  6  6  6  6  6  6  6  6  6  6  6  6  6
CENTRE ASSIGNMENTS    6  6  6  6  6  6  6  6  7  7  7  7  8  8  8  8  8  8  8  8
CENTRE ASSIGNMENTS    8  8  8  8  8  8  8  8  8  8  8  8  8  8  8  8  8  8  8  8
CENTRE ASSIGNMENTS    9  9  9  9  9  9  9  9  9  9  9  9  9  9  9  9  9  9  9  9
CENTRE ASSIGNMENTS    9  9  9  9  9  9  9  9 10 10 10 10 11 11 11 11 12 12 12 12
CENTRE ASSIGNMENTS   12 12 12 12 12 12 12 12 12 12 12 12 12 12 12 12 12 12 12 12
CENTRE ASSIGNMENTS   12 12 12 12 13 13 13 13 14 14 14 14 15 15 15 15 16 16 16 16
CENTRE ASSIGNMENTS   17 17 17 17 17 17 17 17 17 17 17 17 17 17 17 17 17 17 17 17
CENTRE ASSIGNMENTS   17 17 17 17 17 17 17 17 18 18 18 18 19 19 19 19 20 20 20 20
TYPE ASSIGNMENTS      1  1  1  1  1  1  1  1  1  2  2  2  3  3  3  4  4  4  1  2
TYPE ASSIGNMENTS      3  4  5  6  7  8  9 10  1  1  1  1  1  1  1  1  1  2  2  2
TYPE ASSIGNMENTS      3  3  3  4  4  4  1  2  3  4  5  6  7  8  9 10  1  1  1  1
TYPE ASSIGNMENTS      1  1  1  1  1  2  2  2  3  3  3  4  4  4  1  2  3  4  5  6
TYPE ASSIGNMENTS      7  8  9 10  1  1  1  1  1  1  1  1  1  2  2  2  3  3  3  4
TYPE ASSIGNMENTS      4  4  1  2  3  4  5  6  7  8  9 10  1  1  1  1  1  1  1  1
TYPE ASSIGNMENTS      1  2  2  2  3  3  3  4  4  4  1  2  3  4  5  6  7  8  9 10
TYPE ASSIGNMENTS      1  1  1  1  1  1  1  1  1  2  2  2  3  3  3  4  4  4  1  2
TYPE ASSIGNMENTS      3  4  5  6  7  8  9 10  1  1  1  1  1  1  1  1  1  1  1  1
TYPE ASSIGNMENTS      1  2  2  2  3  3  3  4  4  4  1  2  3  4  5  6  7  8  9 10
TYPE ASSIGNMENTS      1  1  1  1  1  1  1  1  1  2  2  2  3  3  3  4  4  4  1  2
TYPE ASSIGNMENTS      3  4  5  6  7  8  9 10  1  1  1  1  1  1  1  1  1  1  1  1
TYPE ASSIGNMENTS      1  1  1  1  1  2  2  2  3  3  3  4  4  4  1  2  3  4  5  6
TYPE ASSIGNMENTS      7  8  9 10  1  1  1  1  1  1  1  1  1  1  1  1  1  1  1  1
TYPE ASSIGNMENTS      1  1  1  1  1  1  1  1  1  2  2  2  3  3  3  4  4  4  1  2
TYPE ASSIGNMENTS      3  4  5  6  7  8  9 10  1  1  1  1  1  1  1  1  1  1  1  1
EXPONENTS  0.3047525D+04 0.4573695D+03 0.1039487D+03 0.2921016D+02 0.9286663D+01
EXPONENTS  0.3163927D+01 0.7868272D+01 0.1881289D+01 0.5442493D+00 0.7868272D+01
EXPONENTS  0.1881289D+01 0.5442493D+00 0.7868272D+01 0.1881289D+01 0.5442493D+00
EXPONENTS  0.7868272D+01 0.1881289D+01 0.5442493D+00 0.1687145D+00 0.1687145D+00
EXPONENTS  0.1687145D+00 0.1687145D+00 0.8000000D+00 0.8000000D+00 0.8000000D+00
EXPONENTS  0.8000000D+00 0.8000000D+00 0.8000000D+00 0.3047525D+04 0.4573695D+03
EXPONENTS  0.1039487D+03 0.2921016D+02 0.9286663D+01 0.3163927D+01 0.7868272D+01
EXPONENTS  0.1881289D+01 0.5442493D+00 0.7868272D+01 0.1881289D+01 0.5442493D+00
EXPONENTS  0.7868272D+01 0.1881289D+01 0.5442493D+00 0.7868272D+01 0.1881289D+01
EXPONENTS  0.5442493D+00 0.1687145D+00 0.1687145D+00 0.1687145D+00 0.1687145D+00
EXPONENTS  0.8000000D+00 0.8000000D+00 0.8000000D+00 0.8000000D+00 0.8000000D+00
EXPONENTS  0.8000000D+00 0.3047525D+04 0.4573695D+03 0.1039487D+03 0.2921016D+02
EXPONENTS  0.9286663D+01 0.3163927D+01 0.7868272D+01 0.1881289D+01 0.5442493D+00
EXPONENTS  0.7868272D+01 0.1881289D+01 0.5442493D+00 0.7868272D+01 0.1881289D+01
EXPONENTS  0.5442493D+00 0.7868272D+01 0.1881289D+01 0.5442493D+00 0.1687145D+00
EXPONENTS  0.1687145D+00 0.1687145D+00 0.1687145D+00 0.8000000D+00 0.8000000D+00
EXPONENTS  0.8000000D+00 0.8000000D+00 0.8000000D+00 0.8000000D+00 0.3047525D+04
EXPONENTS  0.4573695D+03 0.1039487D+03 0.2921016D+02 0.9286663D+01 0.3163927D+01
EXPONENTS  0.7868272D+01 0.1881289D+01 0.5442493D+00 0.7868272D+01 0.1881289D+01
EXPONENTS  0.5442493D+00 0.7868272D+01 0.1881289D+01 0.5442493D+00 0.7868272D+01
EXPONENTS  0.1881289D+01 0.5442493D+00 0.1687145D+00 0.1687145D+00 0.1687145D+00
EXPONENTS  0.1687145D+00 0.8000000D+00 0.8000000D+00 0.8000000D+00 0.8000000D+00
EXPONENTS  0.8000000D+00 0.8000000D+00 0.3047525D+04 0.4573695D+03 0.1039487D+03
EXPONENTS  0.2921016D+02 0.9286663D+01 0.3163927D+01 0.7868272D+01 0.1881289D+01
EXPONENTS  0.5442493D+00 0.7868272D+01 0.1881289D+01 0.5442493D+00 0.7868272D+01
EXPONENTS  0.1881289D+01 0.5442493D+00 0.7868272D+01 0.1881289D+01 0.5442493D+00
EXPONENTS  0.1687145D+00 0.1687145D+00 0.1687145D+00 0.1687145D+00 0.8000000D+00
EXPONENTS  0.8000000D+00 0.8000000D+00 0.8000000D+00 0.8000000D+00 0.8000000D+00
EXPONENTS  0.3047525D+04 0.4573695D+03 0.1039487D+03 0.2921016D+02 0.9286663D+01
EXPONENTS  0.3163927D+01 0.7868272D+01 0.1881289D+01 0.5442493D+00 0.7868272D+01
EXPONENTS  0.1881289D+01 0.5442493D+00 0.7868272D+01 0.1881289D+01 0.5442493D+00
EXPONENTS  0.7868272D+01 0.1881289D+01 0.5442493D+00 0.1687145D+00 0.1687145D+00
EXPONENTS  0.1687145D+00 0.1687145D+00 0.8000000D+00 0.8000000D+00 0.8000000D+00
EXPONENTS  0.8000000D+00 0.8000000D+00 0.8000000D+00 0.1873114D+02 0.2825394D+01
EXPONENTS  0.6401217D+00 0.1612778D+00 0.5484672D+04 0.8252349D+03 0.1880470D+03
EXPONENTS  0.5296450D+02 0.1689757D+02 0.5799635D+01 0.1553962D+02 0.3599934D+01
EXPONENTS  0.1013762D+01 0.1553962D+02 0.3599934D+01 0.1013762D+01 0.1553962D+02
EXPONENTS  0.3599934D+01 0.1013762D+01 0.1553962D+02 0.3599934D+01 0.1013762D+01
EXPONENTS  0.2700058D+00 0.2700058D+00 0.2700058D+00 0.2700058D+00 0.8000000D+00
EXPONENTS  0.8000000D+00 0.8000000D+00 0.8000000D+00 0.8000000D+00 0.8000000D+00
EXPONENTS  0.5484672D+04 0.8252349D+03 0.1880470D+03 0.5296450D+02 0.1689757D+02
EXPONENTS  0.5799635D+01 0.1553962D+02 0.3599934D+01 0.1013762D+01 0.1553962D+02
EXPONENTS  0.3599934D+01 0.1013762D+01 0.1553962D+02 0.3599934D+01 0.1013762D+01
EXPONENTS  0.1553962D+02 0.3599934D+01 0.1013762D+01 0.2700058D+00 0.2700058D+00
EXPONENTS  0.2700058D+00 0.2700058D+00 0.8000000D+00 0.8000000D+00 0.8000000D+00
EXPONENTS  0.8000000D+00 0.8000000D+00 0.8000000D+00 0.1873114D+02 0.2825394D+01
EXPONENTS  0.6401217D+00 0.1612778D+00 0.1873114D+02 0.2825394D+01 0.6401217D+00
EXPONENTS  0.1612778D+00 0.3047525D+04 0.4573695D+03 0.1039487D+03 0.2921016D+02
EXPONENTS  0.9286663D+01 0.3163927D+01 0.7868272D+01 0.1881289D+01 0.5442493D+00
EXPONENTS  0.7868272D+01 0.1881289D+01 0.5442493D+00 0.7868272D+01 0.1881289D+01
EXPONENTS  0.5442493D+00 0.7868272D+01 0.1881289D+01 0.5442493D+00 0.1687145D+00
EXPONENTS  0.1687145D+00 0.1687145D+00 0.1687145D+00 0.8000000D+00 0.8000000D+00
EXPONENTS  0.8000000D+00 0.8000000D+00 0.8000000D+00 0.8000000D+00 0.1873114D+02
EXPONENTS  0.2825394D+01 0.6401217D+00 0.1612778D+00 0.1873114D+02 0.2825394D+01
EXPONENTS  0.6401217D+00 0.1612778D+00 0.1873114D+02 0.2825394D+01 0.6401217D+00
EXPONENTS  0.1612778D+00 0.1873114D+02 0.2825394D+01 0.6401217D+00 0.1612778D+00
EXPONENTS  0.3047525D+04 0.4573695D+03 0.1039487D+03 0.2921016D+02 0.9286663D+01
EXPONENTS  0.3163927D+01 0.7868272D+01 0.1881289D+01 0.5442493D+00 0.7868272D+01
EXPONENTS  0.1881289D+01 0.5442493D+00 0.7868272D+01 0.1881289D+01 0.5442493D+00
EXPONENTS  0.7868272D+01 0.1881289D+01 0.5442493D+00 0.1687145D+00 0.1687145D+00
EXPONENTS  0.1687145D+00 0.1687145D+00 0.8000000D+00 0.8000000D+00 0.8000000D+00
EXPONENTS  0.8000000D+00 0.8000000D+00 0.8000000D+00 0.1873114D+02 0.2825394D+01
EXPONENTS  0.6401217D+00 0.1612778D+00 0.1873114D+02 0.2825394D+01 0.6401217D+00
EXPONENTS  0.1612778D+00 0.1873114D+02 0.2825394D+01 0.6401217D+00 0.1612778D+00
MO    1     MO 0.0        OCC NO =    1.0000000  ORB. ENERGY =  -19.407858
  0.85060832D-05  0.15692063D-04  0.25331854D-04  0.32974548D-04  0.28137241D-04
  0.97151132D-05 -0.32955259D-04 -0.15189049D-04  0.42591678D-04 -0.32969353D-05
 -0.25278809D-05 -0.12615897D-05 -0.19106888D-04 -0.14649950D-04 -0.73113518D-05
 -0.45858333D-06 -0.35161261D-06 -0.17547934D-06 -0.23122064D-03  0.87048184D-04
  0.68961724D-04 -0.67578034D-05 -0.19869803D-04  0.14143009D-04  0.37414041D-04
  0.41112866D-04 -0.70056488D-05  0.74155232D-05 -0.11993100D-04 -0.22124928D-04
 -0.35716494D-04 -0.46492263D-04 -0.39671932D-04 -0.13697765D-04  0.58113032D-04
  0.26784243D-04 -0.75105814D-04 -0.45626347D-04 -0.34983389D-04 -0.17459163D-04
 -0.95901756D-04 -0.73531384D-04 -0.36697314D-04 -0.16303651D-05 -0.12500606D-05
 -0.62386784D-06  0.39704376D-03  0.75300713D-04 -0.13173911D-03  0.45308309D-04
 -0.16673018D-04  0.43664415D-04 -0.13961161D-04 -0.95509287D-05 -0.12830110D-05
 -0.17017965D-04  0.27792943D-04  0.51272553D-04  0.82769799D-04  0.10774168D-03
  0.91936175D-04  0.31743352D-04 -0.12955517D-03 -0.59711859D-04  0.16743828D-03
 -0.50717960D-04 -0.38887315D-04 -0.19407496D-04  0.85293965D-04  0.65398003D-04
  0.32638187D-04 -0.27104613D-04 -0.20782098D-04 -0.10371723D-04 -0.37888502D-03
 -0.49450564D-03 -0.89483081D-05 -0.75280686D-05  0.59026641D-04 -0.59523642D-04
  0.70277300D-04  0.33747085D-04 -0.98423526D-05  0.41015974D-04 -0.31150098D-04
 -0.57465849D-04 -0.92767698D-04 -0.12075598D-03 -0.10304130D-03 -0.35577683D-04
 -0.65238969D-04 -0.30068581D-04  0.84315440D-04 -0.27048940D-03 -0.20739411D-03
 -0.10350420D-03 -0.50886126D-03 -0.39016254D-03 -0.19471845D-03  0.75136593D-04
  0.57609974D-04  0.28751415D-04  0.50409310D-04  0.38801235D-03  0.74150288D-03
 -0.10215373D-03 -0.12077153D-03 -0.10262680D-03 -0.12460819D-03 -0.14679590D-03
  0.28253981D-04 -0.96433855D-05  0.79863360D-05  0.14733231D-04  0.23784002D-04
  0.30959704D-04  0.26417972D-04  0.91214907D-05 -0.65392780D-04 -0.30139473D-04
  0.84514227D-04  0.66662590D-05  0.51112645D-05  0.25508792D-05  0.24380861D-04
  0.18693698D-04  0.93294655D-05 -0.51424753D-05 -0.39429239D-05 -0.19677954D-05
 -0.41852451D-03  0.10559839D-03 -0.31557123D-03  0.56549005D-04 -0.64935107D-04
 -0.52885439D-04  0.29377032D-04  0.34252290D-05 -0.14620762D-04  0.29051677D-04
 -0.11191229D-05 -0.20645633D-05 -0.33328453D-05 -0.43383743D-05 -0.37019426D-05
 -0.12781918D-05  0.18035268D-04  0.83124384D-05 -0.23308945D-04 -0.63634226D-04
 -0.48790689D-04 -0.24349973D-04 -0.52131777D-04 -0.39971340D-04 -0.19948500D-04
  0.32260917D-05  0.24735625D-05  0.12344810D-05  0.31524299D-03 -0.92941443D-04
 -0.43387577D-04  0.10414744D-05  0.19258067D-04  0.47416880D-04  0.14318715D-04
  0.25754920D-04 -0.21955204D-05 -0.66254692D-05 -0.13131368D-04 -0.22273285D-04
 -0.25357348D-04 -0.13395018D-03  0.82558055D+00  0.15195089D+01  0.24588523D+01
  0.32322301D+01  0.27722650D+01  0.94788449D+00 -0.15799584D-01 -0.70497438D-02
  0.20817988D-01 -0.10218296D-02 -0.78726460D-03 -0.34565156D-03  0.30969652D-02
  0.23860447D-02  0.10476021D-02 -0.52304350D-03 -0.40297682D-03 -0.17692853D-03
  0.40784100D-02  0.26018690D-03  0.29091124D-03 -0.36497844D-04 -0.93450902D-02
 -0.93525667D-02 -0.93127418D-02  0.19566192D-03 -0.32902428D-04  0.18268734D-04
  0.26475545D-04  0.48729136D-04  0.78852941D-04  0.10365440D-03  0.88903775D-04
  0.30397710D-04 -0.18089136D-03 -0.80713371D-04  0.23834767D-03  0.83191005D-04
  0.64094184D-04  0.28140799D-04  0.97589807D-04  0.75187685D-04  0.33011444D-04
 -0.16607298D-04 -0.12795028D-04 -0.56177064D-05 -0.57606606D-03 -0.16453266D-03
 -0.70746591D-04  0.75976962D-05  0.11269119D-03  0.23346080D-03  0.18906278D-03
 -0.12143724D-04 -0.28519521D-05 -0.91117846D-05  0.83494868D-04  0.14162310D-03
  0.16123289D-03 -0.22113651D-03 -0.46027945D-05 -0.78072106D-05 -0.88882333D-05
  0.86062886D-05  0.11528424D-05  0.21267692D-05  0.34332649D-05  0.44690908D-05
  0.38134833D-05  0.13167041D-05 -0.10887973D-04 -0.50182570D-05  0.14071717D-04
 -0.20730565D-04 -0.15894882D-04 -0.79326603D-05  0.94096302D-05  0.72147076D-05
  0.36006447D-05  0.21209438D-04  0.16262052D-04  0.81159037D-05 -0.11958527D-04
 -0.49992198D-05  0.24255319D-04 -0.21688412D-04 -0.15344342D-04 -0.22176301D-04
  0.11186280D-04  0.25590076D-04 -0.85607768D-05 -0.15661741D-04 -0.28241584D-05
 -0.47903072D-05 -0.54535955D-05 -0.70206194D-05  0.35558137D-05  0.60313330D-05
  0.68664595D-05 -0.12976960D-04  0.31063138D-05  0.52688962D-05  0.59984521D-05
  0.18821276D-04 -0.38705292D-05 -0.65651501D-05 -0.74741913D-05 -0.24491240D-04
  0.50513352D-05  0.93187271D-05  0.15043315D-04  0.19581926D-04  0.16709293D-04
  0.57693174D-05 -0.17439848D-04 -0.80380101D-05  0.22539419D-04 -0.68284233D-06
 -0.52356019D-06 -0.26129323D-06  0.11772719D-05  0.90265739D-06  0.45048930D-06
 -0.39587303D-06 -0.30353033D-06 -0.15148291D-06 -0.26203196D-04  0.11579853D-04
  0.77146414D-05 -0.27417905D-06 -0.47575956D-05  0.21217840D-04  0.17975709D-04
 -0.67350774D-05 -0.16280077D-05 -0.93079797D-06  0.19966436D-05  0.33866854D-05
  0.38556217D-05  0.48105137D-05  0.18516110D-05  0.31406827D-05  0.35755563D-05
  0.54036754D-05  0.21926864D-05  0.37192111D-05  0.42341904D-05 -0.32735157D-05
MO    2     MO 0.0        OCC NO =    1.0000000  ORB. ENERGY =  -19.352410
  0.33740785D-05  0.62245161D-05  0.10048299D-04  0.13079900D-04  0.11161102D-04
  0.38536603D-05 -0.61401531D-05 -0.28299909D-05  0.79355900D-05 -0.85064256D-04
 -0.65221876D-04 -0.32550287D-04 -0.49467709D-04 -0.37928702D-04 -0.18929080D-04
  0.19600309D-05  0.15028274D-05  0.75001620D-06  0.21764084D-03 -0.10111286D-03
  0.11229775D-04 -0.76609337D-05  0.34624930D-04 -0.37508987D-06  0.38034187D-04
 -0.59979629D-04  0.11152410D-04  0.14668575D-04  0.25621441D-04  0.47266555D-04
  0.76302876D-04  0.99323673D-04  0.84753070D-04  0.29263198D-04 -0.10807917D-03
 -0.49813592D-04  0.13968251D-03  0.42510751D-04  0.32594547D-04  0.16266964D-04
  0.79340335D-04  0.60833137D-04  0.30359999D-04  0.14487294D-05  0.11107938D-05
  0.55436396D-06 -0.56477711D-03 -0.13560729D-03  0.18437900D-03 -0.47710705D-04
  0.29403277D-04  0.77432862D-05  0.70286577D-04  0.34288405D-04 -0.36280540D-05
  0.33734283D-04 -0.30802290D-04 -0.56824210D-04 -0.91731895D-04 -0.11940767D-03
 -0.10189078D-03 -0.35180438D-04 -0.11004613D-03 -0.50720162D-04  0.14222463D-03
 -0.45987510D-04 -0.35260306D-04 -0.17597364D-04 -0.20626729D-04 -0.15815268D-04
 -0.78929270D-05  0.18033952D-04  0.13827291D-04  0.69007872D-05 -0.35803224D-03
  0.99335482D-03  0.88724316D-04  0.87451897D-06 -0.10985172D-02 -0.10069207D-03
 -0.14389233D-03 -0.14346650D-03 -0.72612996D-05 -0.16929380D-04  0.20483583D-04
  0.37788212D-04  0.61001890D-04  0.79406336D-04  0.67757570D-04  0.23395061D-04
 -0.88978992D-04 -0.41010336D-04  0.11499726D-03  0.29010182D-04  0.22243168D-04
  0.11100900D-04 -0.69884668D-04 -0.53583131D-04 -0.26741738D-04  0.65957176D-05
  0.50571779D-05  0.25238862D-05 -0.32785186D-03 -0.35635385D-03 -0.40706453D-03
  0.54689318D-04 -0.41217951D-04  0.94389788D-04  0.49657323D-04  0.16150896D-03
 -0.37402729D-04 -0.58500358D-05  0.26312817D-05  0.48542009D-05  0.78361853D-05
  0.10200385D-04  0.87040069D-05  0.30052844D-05 -0.20921721D-05 -0.96428023D-06
  0.27039424D-05 -0.13169576D-03 -0.10097595D-03 -0.50394078D-04  0.26961178D-04
  0.20672121D-04  0.10316837D-04 -0.98946590D-05 -0.75865969D-05 -0.37862436D-05
  0.45229658D-03 -0.70605300D-04  0.16009038D-03 -0.31858121D-04  0.33683855D-04
  0.19258450D-04  0.31184756D-04  0.28403240D-04  0.62739193D-05  0.36108258D-05
  0.71587971D-05  0.13206583D-04  0.21319520D-04  0.27751680D-04  0.23680559D-04
  0.81763279D-05 -0.27188658D-04 -0.12531228D-04  0.35138870D-04 -0.70029933D-04
 -0.53694511D-04 -0.26797324D-04  0.10581690D-04  0.81133689D-05  0.40491397D-05
 -0.43024459D-05 -0.32988426D-05 -0.16463537D-05 -0.14464249D-03  0.15019287D-03
  0.67846856D-04 -0.16047489D-05  0.30503030D-04 -0.38786890D-04  0.37385247D-04
 -0.32624507D-04  0.52113118D-05  0.20229575D-04  0.71867911D-05  0.12190158D-04
  0.13878064D-04  0.31651273D-04  0.74645439D-04  0.13738746D-03  0.22231884D-03
  0.29224433D-03  0.25065627D-03  0.85703634D-04 -0.17298452D-03 -0.77185357D-04
  0.22792939D-03  0.14917383D-03  0.11493040D-03  0.50460634D-04  0.10320374D-03
  0.79512922D-04  0.34910455D-04 -0.58194271D-05 -0.44835548D-05 -0.19685221D-05
 -0.52241998D-03 -0.19216569D-03 -0.15111037D-03  0.14815525D-04  0.20637103D-03
  0.11540416D-03  0.18420616D-03 -0.16019715D-03  0.25096143D-04  0.13276752D-04
  0.82558791D+00  0.15195225D+01  0.24588742D+01  0.32322590D+01  0.27722897D+01
  0.94789294D+00 -0.15612129D-01 -0.69661017D-02  0.20570992D-01  0.36511203D-02
  0.28129914D-02  0.12350547D-02 -0.63777720D-04 -0.49137295D-04 -0.21573919D-04
  0.68747666D-04  0.52966370D-04  0.23255089D-04  0.45381686D-02  0.63962812D-03
  0.11344837D-04  0.14841591D-04 -0.87962345D-02 -0.94616590D-02 -0.94463256D-02
  0.48386779D-04  0.25877948D-04  0.12763063D-04 -0.74461810D-05 -0.12630132D-04
 -0.14378959D-04 -0.10213486D-03  0.10770625D-04  0.18269018D-04  0.20798631D-04
  0.83327898D-05 -0.43946754D-05 -0.81073179D-05 -0.13087725D-04 -0.17036329D-04
 -0.14537131D-04 -0.50193218D-05  0.32309747D-04  0.14891533D-04 -0.41757412D-04
  0.29075794D-04  0.22293474D-04  0.11126006D-04 -0.52074920D-04 -0.39927746D-04
 -0.19926743D-04 -0.41318669D-04 -0.31680534D-04 -0.15810807D-04  0.56097596D-04
 -0.14162968D-04 -0.24457731D-04  0.37213736D-04  0.11673217D-04  0.51302062D-04
 -0.17244396D-04 -0.24867911D-05  0.28962704D-04 -0.10120779D-04  0.12549055D-05
  0.21285572D-05  0.24232871D-05  0.44990499D-05  0.12288479D-04  0.20843587D-04
  0.23729687D-04 -0.45503972D-04 -0.11956874D-04 -0.20281122D-04 -0.23089340D-04
 -0.20223069D-04 -0.20648779D-05 -0.35024237D-05 -0.39873855D-05 -0.16451431D-04
  0.29987456D-05  0.55321001D-05  0.89305249D-05  0.11624890D-04  0.99195396D-05
  0.34249787D-05 -0.13219016D-04 -0.60926323D-05  0.17084377D-04  0.30454988D-04
  0.23350953D-04  0.11653762D-04 -0.49395376D-05 -0.37873242D-05 -0.18901402D-05
  0.19493567D-05  0.14946431D-05  0.74593164D-06 -0.95146877D-04  0.24232763D-04
 -0.17742786D-04  0.43025794D-05 -0.86673290D-05  0.39501650D-05  0.95335113D-05
  0.24906726D-04 -0.59811313D-05  0.20733521D-05  0.18751801D-05  0.31806603D-05
  0.36210694D-05  0.48650128D-06  0.23015890D-05  0.39039306D-05  0.44444870D-05
  0.19739580D-07  0.21224396D-05  0.36000594D-05  0.40985403D-05  0.15775861D-04
MO    3     MO 0.0        OCC NO =    1.0000000  ORB. ENERGY =  -10.486928
 -0.62845341D-04 -0.11593738D-03 -0.18715888D-03 -0.24362526D-03 -0.20788587D-03
 -0.71777996D-04  0.11118583D-03  0.51245450D-04 -0.14369759D-03  0.85120551D-04
  0.65265040D-04  0.32571829D-04  0.47738520D-04  0.36602870D-04  0.18267397D-04
  0.68503047D-05  0.52523792D-05  0.26213053D-05  0.74271935D-03 -0.31996723D-03
 -0.27349684D-03  0.26344140D-04  0.51153117D-06 -0.41624066D-04 -0.12364970D-03
 -0.62825217D-04  0.87303760D-05 -0.23331733D-04  0.39324001D-04  0.72545104D-04
  0.11711029D-03  0.15244280D-03  0.13007972D-03  0.44913401D-04 -0.12692637D-03
 -0.58500247D-04  0.16404080D-03  0.56799953D-04  0.43550602D-04  0.21734802D-04
  0.22496804D-03  0.17249122D-03  0.86085210D-04  0.13136437D-04  0.10072187D-04
  0.50267272D-05 -0.10246372D-02 -0.20805758D-03  0.31738206D-03 -0.11127904D-03
  0.54373440D-04 -0.14448074D-04  0.20469079D-04  0.84277098D-04 -0.16673794D-04
  0.63238396D-05  0.83983462D-02  0.15493309D-01  0.25011004D-01  0.32556896D-01
  0.27780859D-01  0.95920629D-02 -0.26846198D-04 -0.12373388D-04  0.34696272D-04
 -0.15813260D-03 -0.12124604D-03 -0.60510274D-04  0.20175296D-03  0.15469138D-03
  0.77201839D-04 -0.18291291D-04 -0.14024602D-04 -0.69992593D-05  0.16187861D-02
  0.99124348D-03 -0.15041316D-03  0.53064858D-04 -0.41237961D-03 -0.77356979D-03
 -0.51739048D-03  0.47291894D-04 -0.22931703D-05  0.75372876D-04  0.53244443D+00
  0.98225601D+00  0.15856658D+01  0.20640657D+01  0.17612710D+01  0.60812454D+00
 -0.19980578D-01 -0.92090301D-02  0.25823082D-01 -0.37064851D-03 -0.28418977D-03
 -0.14183061D-03 -0.75395941D-03 -0.57808825D-03 -0.28850655D-03  0.10693748D-03
  0.81992880D-04  0.40920194D-04 -0.35550859D-02 -0.10877856D-02 -0.13634548D-02
  0.15336128D-03 -0.99438100D-02 -0.99500484D-02 -0.10532781D-01  0.79134682D-03
 -0.79712695D-04 -0.17157764D-03  0.31594164D-02  0.58285063D-02  0.94090164D-02
  0.12247744D-01  0.10451022D-01  0.36084867D-02  0.27164366D-03  0.12520031D-03
 -0.35107474D-03  0.41696882D-03  0.31970524D-03  0.15955532D-03 -0.13806827D-03
 -0.10586199D-03 -0.52832554D-04  0.47099916D-04  0.36113228D-04  0.18023032D-04
  0.25774361D-02 -0.69402085D-03  0.88373662D-03 -0.17114273D-03 -0.42254534D-03
 -0.32059956D-03 -0.39564374D-03 -0.16046435D-03  0.21096943D-04 -0.31825021D-04
  0.34779802D-04  0.64161944D-04  0.10357727D-03  0.13482683D-03  0.11504798D-03
  0.39723303D-04 -0.94771411D-04 -0.43680057D-04  0.12248344D-03  0.97199208D-04
  0.74526188D-04  0.37193791D-04  0.70950642D-04  0.54400452D-04  0.27149638D-04
 -0.35477395D-05 -0.27201816D-05 -0.13575613D-05 -0.11723728D-02  0.49053658D-03
  0.20797237D-03 -0.45748722D-05 -0.99787764D-06  0.15232844D-04  0.49905204D-04
 -0.38743420D-04 -0.28930291D-05  0.93233388D-05  0.36550394D-04  0.61996385D-04
  0.70580694D-04  0.30699134D-03  0.12604616D-03  0.23199221D-03  0.37540720D-03
  0.49348327D-03  0.42325773D-03  0.14471901D-03 -0.71714952D-03 -0.31999072D-03
  0.94493687D-03 -0.60210312D-04 -0.46388799D-04 -0.20367181D-04 -0.19022002D-04
 -0.14655427D-04 -0.64345218D-05 -0.19402384D-04 -0.14948491D-04 -0.65631927D-05
 -0.17740235D-02 -0.36676793D-03 -0.67308598D-03  0.10196555D-03  0.44038401D-03
  0.16606765D-04  0.10021467D-02 -0.98486394D-03  0.11694956D-03  0.29247759D-03
 -0.69758692D-04 -0.12839323D-03 -0.20776449D-03 -0.27311223D-03 -0.23424677D-03
 -0.80092950D-04  0.24370005D-03  0.10873849D-03 -0.32110621D-03  0.40370848D-04
  0.31103562D-04  0.13656139D-04 -0.86691445D-04 -0.66791085D-04 -0.29324884D-04
  0.22689884D-04  0.17481333D-04  0.76752467D-05  0.74233252D-03  0.10568274D-03
  0.74916356D-04 -0.14211157D-04 -0.20492667D-03 -0.21338165D-03 -0.25551794D-03
 -0.63718435D-05 -0.49811922D-06 -0.21895917D-04  0.60990118D-04  0.10345078D-03
  0.11777506D-03 -0.12138314D-04  0.17404056D-04  0.29520573D-04  0.33608129D-04
 -0.29090322D-04  0.77040788D-05  0.14212521D-04  0.22943416D-04  0.29865510D-04
  0.25484294D-04  0.87991143D-05  0.42106224D-05  0.19406720D-05 -0.54418470D-05
  0.49147395D-04  0.37683105D-04  0.18806510D-04 -0.64560188D-04 -0.49500657D-04
 -0.24704297D-04 -0.31802660D-04 -0.24384263D-04 -0.12169456D-04 -0.32154886D-05
  0.21939913D-04 -0.35816472D-04  0.35777139D-04  0.57890802D-04  0.71454621D-04
 -0.35847824D-05 -0.63612137D-04 -0.95071121D-07  0.37851799D-04  0.43691067D-05
  0.74108319D-05  0.84369702D-05  0.52684567D-05 -0.64453119D-05 -0.10932469D-04
 -0.12446229D-04  0.40819037D-04 -0.10113287D-05 -0.17154048D-05 -0.19529278D-05
 -0.30141136D-04  0.19784483D-04  0.33558229D-04  0.38204857D-04  0.11327087D-03
 -0.22025839D-04 -0.40633371D-04 -0.65594860D-04 -0.85385018D-04 -0.72859191D-04
 -0.25156528D-04  0.60298312D-04  0.27791437D-04 -0.77930090D-04  0.35814980D-04
  0.27460655D-04  0.13704791D-04  0.15125934D-04  0.11597607D-04  0.57880187D-05
  0.64266233D-06  0.49275272D-06  0.24591814D-06 -0.73630080D-08 -0.23434934D-04
 -0.81764552D-04  0.10953950D-04  0.13012377D-04 -0.87492395D-04 -0.44779581D-04
  0.97615908D-04 -0.91574413D-05  0.18885226D-04 -0.10872515D-04 -0.18441843D-04
 -0.20995387D-04 -0.20677554D-04 -0.11045192D-04 -0.18734736D-04 -0.21328835D-04
 -0.20263186D-04  0.22173948D-05  0.37611212D-05  0.42819035D-05  0.38392208D-04
MO    4     MO 0.0        OCC NO =    1.0000000  ORB. ENERGY =  -10.477363
  0.16058523D-04  0.29624839D-04  0.47823676D-04  0.62252217D-04  0.53119930D-04
  0.18341035D-04 -0.58741685D-04 -0.27073989D-04  0.75918291D-04  0.15565943D-03
  0.11934978D-03  0.59563906D-04  0.87717888D-04  0.67256513D-04  0.33565714D-04
 -0.32802682D-04 -0.25151016D-04 -0.12552120D-04 -0.95255559D-03  0.32513836D-03
  0.23091444D-03 -0.55775588D-06 -0.14534851D-05  0.54626708D-04  0.14763585D-04
  0.45760825D-04 -0.24706640D-04 -0.40205715D-04  0.69391731D-03  0.12801419D-02
  0.20665460D-02  0.26900289D-02  0.22954065D-02  0.79254871D-03  0.19637486D-03
  0.90508994D-04 -0.25379667D-03 -0.28597653D-05 -0.21926867D-05 -0.10943043D-05
  0.13718148D-03  0.10518206D-03  0.52493220D-04 -0.10087760D-03 -0.77346548D-04
 -0.38601348D-04  0.16306014D-02  0.31834148D-03 -0.72188235D-03  0.13743698D-03
 -0.35312616D-03 -0.30900444D-03 -0.25216616D-03 -0.44029319D-03  0.16824140D-03
 -0.68986481D-04  0.53252127D+00  0.98239776D+00  0.15858946D+01  0.20643636D+01
  0.17615252D+01  0.60821231D+00 -0.19802785D-01 -0.91270855D-02  0.25593300D-01
 -0.81138622D-03 -0.62211949D-03 -0.31048123D-03 -0.33031969D-03 -0.25326819D-03
 -0.12639858D-03  0.25053302D-04  0.19209283D-04  0.95867783D-05 -0.27004354D-02
 -0.15995551D-02 -0.61890922D-04 -0.27606759D-04 -0.90650230D-02 -0.10205422D-01
 -0.10447958D-01  0.48494342D-04  0.65984721D-04 -0.86962873D-04 -0.86517316D-02
 -0.15960755D-01 -0.25765608D-01 -0.33539166D-01 -0.28619031D-01 -0.98814637D-02
  0.56781846D-03  0.26170701D-03 -0.73385377D-03  0.16208447D-03  0.12427609D-03
  0.62022480D-04 -0.30640590D-03 -0.23493261D-03 -0.11724784D-03  0.40079336D-04
  0.30730293D-04  0.15336570D-04  0.17621485D-02  0.48675894D-03  0.10112466D-02
 -0.13026723D-03 -0.37776499D-03 -0.45992627D-03 -0.17767648D-03  0.35280017D-03
 -0.53259774D-04  0.10344567D-03 -0.56749270D-04 -0.10469132D-03 -0.16900425D-03
 -0.21999332D-03 -0.18772070D-03 -0.64815447D-04 -0.25729361D-04 -0.11858639D-04
  0.33252862D-04  0.16383258D-03  0.12561643D-03  0.62691402D-04 -0.93604544D-04
 -0.71770027D-04 -0.35818274D-04  0.11029376D-04  0.84566257D-05  0.42204489D-05
 -0.12022324D-02  0.21172543D-03 -0.47491512D-03  0.88283949D-04  0.13390701D-03
 -0.67900323D-05 -0.28978688D-04  0.41502798D-04  0.53800495D-05  0.60695091D-05
 -0.58287143D-04 -0.10752840D-03 -0.17358417D-03 -0.22595502D-03 -0.19280783D-03
 -0.66571909D-04  0.10911078D-03  0.50289060D-04 -0.14101577D-03  0.19786308D-03
  0.15170886D-03  0.75713353D-04 -0.34738808D-05 -0.26635515D-05 -0.13292989D-05
  0.27600708D-05  0.21162472D-05  0.10561557D-05  0.73340623D-03 -0.55795026D-03
 -0.81804609D-04 -0.21848711D-04 -0.70485209D-04  0.32767012D-04 -0.12358183D-03
  0.43927264D-04  0.74970253D-06 -0.57617023D-04 -0.19710270D-04 -0.33432349D-04
 -0.38061548D-04 -0.10104747D-03 -0.88716115D-04 -0.16328501D-03 -0.26422597D-03
 -0.34733243D-03 -0.29790501D-03 -0.10185878D-03  0.32921039D-03  0.14689303D-03
 -0.43377709D-03 -0.16501184D-03 -0.12713273D-03 -0.55818115D-04 -0.49112794D-04
 -0.37838760D-04 -0.16613254D-04  0.17610627D-04  0.13568039D-04  0.59570998D-05
  0.90431309D-03  0.21609445D-03  0.17958858D-03 -0.26671003D-04 -0.29415080D-03
 -0.22352096D-03 -0.36648634D-03  0.15854792D-03 -0.23761307D-04 -0.45527773D-04
  0.32341331D-04  0.59525314D-04  0.96323194D-04  0.12661953D-03  0.10860084D-03
  0.37132471D-04 -0.68674883D-03 -0.30642599D-03  0.90488005D-03 -0.13352510D-03
 -0.10287389D-03 -0.45167178D-04  0.48931599D-05  0.37699159D-05  0.16551962D-05
  0.14971519D-04  0.11534748D-04  0.50643757D-05 -0.20723348D-02 -0.83160380D-03
 -0.25020644D-04 -0.14263943D-04 -0.12384931D-04  0.82776385D-03  0.96425360D-03
 -0.61275409D-05 -0.33003225D-04  0.36022779D-04 -0.26793697D-05 -0.45447181D-05
 -0.51740009D-05  0.44878338D-04 -0.40144990D-04 -0.68093501D-04 -0.77522044D-04
  0.11276064D-03 -0.37820921D-04 -0.69772214D-04 -0.11263399D-03 -0.14661598D-03
 -0.12510768D-03 -0.43196677D-04  0.81655290D-04  0.37634848D-04 -0.10553204D-03
 -0.80512522D-05 -0.61731895D-05 -0.30808542D-05  0.17801190D-03  0.13648824D-03
  0.68117196D-04  0.45071017D-04  0.34557597D-04  0.17246663D-04  0.20411567D-03
 -0.42406740D-04 -0.60265845D-04 -0.12746729D-03 -0.12180497D-03 -0.96665983D-04
 -0.12030621D-04  0.97611638D-04 -0.56488603D-04  0.10967500D-03 -0.83657106D-05
 -0.14189829D-04 -0.16154618D-04  0.40655149D-04 -0.15401286D-04 -0.26123496D-04
 -0.29740677D-04 -0.65012781D-04 -0.16625031D-04 -0.28199199D-04 -0.32103792D-04
  0.70833517D-04 -0.72792350D-05 -0.12346960D-04 -0.14056578D-04 -0.46802211D-04
 -0.74657248D-05 -0.13772804D-04 -0.22233577D-04 -0.28941511D-04 -0.24695844D-04
 -0.85268813D-05  0.32805847D-04  0.15120185D-04 -0.42398577D-04 -0.86493347D-04