 Entering Link 1 = D:\Gaussian\G16W\l1.exe PID=     43132.
  
 Copyright (c) 1988,1990,1992,1993,1995,1998,2003,2009,2016,
            Gaussian, Inc.  All Rights Reserved.
  
 This is part of the Gaussian(R) 16 program.  It is based on
 the Gaussian(R) 09 system (copyright 2009, Gaussian, Inc.),
 the Gaussian(R) 03 system (copyright 2003, Gaussian, Inc.),
 the Gaussian(R) 98 system (copyright 1998, Gaussian, Inc.),
 the Gaussian(R) 94 system (copyright 1995, Gaussian, Inc.),
 the Gaussian 92(TM) system (copyright 1992, Gaussian, Inc.),
 the Gaussian 90(TM) system (copyright 1990, Gaussian, Inc.),
 the Gaussian 88(TM) system (copyright 1988, Gaussian, Inc.),
 the Gaussian 86(TM) system (copyright 1986, Carnegie Mellon
 University), and the Gaussian 82(TM) system (copyright 1983,
 Carnegie Mellon University). Gaussian is a federally registered
 trademark of Gaussian, Inc.
  
 This software contains proprietary and confidential information,
 including trade secrets, belonging to Gaussian, Inc.
  
 This software is provided under written license and may be
 used, copied, transmitted, or stored only in accord with that
 written license.
  
 The following legend is applicable only to US Government
 contracts under FAR:
  
                    RESTRICTED RIGHTS LEGEND
  
 Use, reproduction and disclosure by the US Government is
 subject to restrictions as set forth in subparagraphs (a)
 and (c) of the Commercial Computer Software - Restricted
 Rights clause in FAR 52.227-19.
  
 Gaussian, Inc.
 340 Quinnipiac St., Bldg. 40, Wallingford CT 06492
  
  
 ---------------------------------------------------------------
 Warning -- This program may not be used in any manner that
 competes with the business of Gaussian, Inc. or will provide
 assistance to any competitor of Gaussian, Inc.  The licensee
 of this program is prohibited from giving any competitor of
 Gaussian, Inc. access to this program.  By using this program,
 the user acknowledges that Gaussian, Inc. is engaged in the
 business of creating and licensing software in the field of
 computational chemistry and represents and warrants to the
 licensee that it is not a competitor of Gaussian, Inc. and that
 it will not use this program in any manner prohibited above.
 ---------------------------------------------------------------
  

 Cite this work as:
 Gaussian 16, Revision A.03,
 M. J. Frisch, G. W. Trucks, H. B. Schlegel, G. E. Scuseria, 
 M. A. Robb, J. R. Cheeseman, G. Scalmani, V. Barone, 
 G. A. Petersson, H. Nakatsuji, X. Li, M. Caricato, A. V. Marenich, 
 J. Bloino, B. G. Janesko, R. Gomperts, B. Mennucci, H. P. Hratchian, 
 J. V. Ortiz, A. F. Izmaylov, J. L. Sonnenberg, D. Williams-Young, 
 F. Ding, F. Lipparini, F. Egidi, J. Goings, B. Peng, A. Petrone, 
 T. Henderson, D. Ranasinghe, V. G. Zakrzewski, J. Gao, N. Rega, 
 G. Zheng, W. Liang, M. Hada, M. Ehara, K. Toyota, R. Fukuda, 
 J. Hasegawa, M. Ishida, T. Nakajima, Y. Honda, O. Kitao, H. Nakai, 
 T. Vreven, K. Throssell, J. A. Montgomery, Jr., J. E. Peralta, 
 F. Ogliaro, M. J. Bearpark, J. J. Heyd, E. N. Brothers, K. N. Kudin, 
 V. N. Staroverov, T. A. Keith, R. Kobayashi, J. Normand, 
 K. Raghavachari, A. P. Rendell, J. C. Burant, S. S. Iyengar, 
 J. Tomasi, M. Cossi, J. M. Millam, M. Klene, C. Adamo, R. Cammi, 
 J. W. Ochterski, R. L. Martin, K. Morokuma, O. Farkas, 
 J. B. Foresman, and D. J. Fox, Gaussian, Inc., Wallingford CT, 2016.
 
 ******************************************
 Gaussian 16:  EM64W-G16RevA.03 17-Dec-2016
                03-Dec-2025 
 ******************************************
 %nprocs=   4
 Will use up to    4 processors via shared memory.
 ------------------------------------
 #P B3LYP/6-31G* SCF=conver=7 out=wfn
 ------------------------------------
 1/38=1,172=1/1;
 2/12=2,17=6,18=5,40=1/2;
 3/5=1,6=6,7=1,11=2,25=1,30=1,74=-5/1,2,3;
 4//1;
 5/5=2,6=7,38=5/2;
 6/7=2,8=2,9=2,10=2,28=1/1;
 99/5=1,6=100,9=1/99;
 Leave Link    1 at Wed Dec 03 16:58:35 2025, MaxMem=           0 cpu:               0.0 elap:               0.1
 (Enter D:\Gaussian\G16W\l101.exe)
 ----------------------------------------------------
 Generated by Multiwfn (http://sobereva.com/multiwfn)
 ----------------------------------------------------
 Symbolic Z-matrix:
 Charge =  1 Multiplicity = 2
 C                     1.05216   1.14074  -0.26032 
 C                    -0.43803   1.27993  -0.38044 
 C                    -1.21643  -0.00872  -0.18056 
 C                    -0.46537  -1.25916   0.03119 
 C                     0.88515  -1.25894   0.09894 
 C                     1.66761  -0.03547  -0.04396 
 H                     1.40041  -2.19794   0.27355 
 O                    -1.22389  -2.36386   0.17637 
 O                    -2.4417   -0.05702  -0.19745 
 H                    -2.14271  -2.04822   0.09397 
 H                    -0.66024   1.56571  -1.42158 
 C                    -1.00747   2.39771   0.52119 
 H                    -0.56296   3.36095   0.26179 
 H                    -2.08883   2.45941   0.39577 
 H                    -0.78814   2.19158   1.57146 
 H                     1.63446   2.05082  -0.36835 
 C                     3.16603  -0.15894   0.06219 
 H                     3.45757  -0.57738   1.03134 
 H                     3.55923  -0.8312   -0.70786 
 H                     3.65414   0.8103   -0.05088 
 
 ITRead=  0  0  0  0  0  0  0  0  0  0  0  0  0  0  0  0  0  0  0  0
 MicOpt= -1 -1 -1 -1 -1 -1 -1 -1 -1 -1 -1 -1 -1 -1 -1 -1 -1 -1 -1 -1
 NAtoms=     20 NQM=       20 NQMF=       0 NMMI=      0 NMMIF=      0
                NMic=       0 NMicF=      0.
                    Isotopes and Nuclear Properties:
 (Nuclear quadrupole moments (NQMom) in fm**2, nuclear magnetic moments (NMagM)
  in nuclear magnetons)

  Atom         1           2           3           4           5           6           7           8           9          10
 IAtWgt=          12          12          12          12          12          12           1          16          16           1
 AtmWgt=  12.0000000  12.0000000  12.0000000  12.0000000  12.0000000  12.0000000   1.0078250  15.9949146  15.9949146   1.0078250
 NucSpn=           0           0           0           0           0           0           1           0           0           1
 AtZEff=   0.0000000   0.0000000   0.0000000   0.0000000   0.0000000   0.0000000   0.0000000   0.0000000   0.0000000   0.0000000
 NQMom=    0.0000000   0.0000000   0.0000000   0.0000000   0.0000000   0.0000000   0.0000000   0.0000000   0.0000000   0.0000000
 NMagM=    0.0000000   0.0000000   0.0000000   0.0000000   0.0000000   0.0000000   2.7928460   0.0000000   0.0000000   2.7928460
 AtZNuc=   6.0000000   6.0000000   6.0000000   6.0000000   6.0000000   6.0000000   1.0000000   8.0000000   8.0000000   1.0000000

  Atom        11          12          13          14          15          16          17          18          19          20
 IAtWgt=           1          12           1           1           1           1          12           1           1           1
 AtmWgt=   1.0078250  12.0000000   1.0078250   1.0078250   1.0078250   1.0078250  12.0000000   1.0078250   1.0078250   1.0078250
 NucSpn=           1           0           1           1           1           1           0           1           1           1
 AtZEff=   0.0000000   0.0000000   0.0000000   0.0000000   0.0000000   0.0000000   0.0000000   0.0000000   0.0000000   0.0000000
 NQMom=    0.0000000   0.0000000   0.0000000   0.0000000   0.0000000   0.0000000   0.0000000   0.0000000   0.0000000   0.0000000
 NMagM=    2.7928460   0.0000000   2.7928460   2.7928460   2.7928460   2.7928460   0.0000000   2.7928460   2.7928460   2.7928460
 AtZNuc=   1.0000000   6.0000000   1.0000000   1.0000000   1.0000000   1.0000000   6.0000000   1.0000000   1.0000000   1.0000000
 Leave Link  101 at Wed Dec 03 16:58:35 2025, MaxMem=   104857600 cpu:               0.0 elap:               0.1
 (Enter D:\Gaussian\G16W\l202.exe)
                          Input orientation:                          
 ---------------------------------------------------------------------
 Center     Atomic      Atomic             Coordinates (Angstroms)
 Number     Number       Type             X           Y           Z
 ---------------------------------------------------------------------
      1          6           0        1.052157    1.140741   -0.260316
      2          6           0       -0.438030    1.279929   -0.380437
      3          6           0       -1.216434   -0.008717   -0.180563
      4          6           0       -0.465371   -1.259155    0.031188
      5          6           0        0.885148   -1.258939    0.098941
      6          6           0        1.667613   -0.035471   -0.043956
      7          1           0        1.400409   -2.197941    0.273554
      8          8           0       -1.223890   -2.363855    0.176368
      9          8           0       -2.441702   -0.057016   -0.197449
     10          1           0       -2.142710   -2.048218    0.093965
     11          1           0       -0.660237    1.565713   -1.421577
     12          6           0       -1.007475    2.397709    0.521193
     13          1           0       -0.562955    3.360948    0.261793
     14          1           0       -2.088833    2.459411    0.395772
     15          1           0       -0.788143    2.191577    1.571459
     16          1           0        1.634459    2.050820   -0.368347
     17          6           0        3.166027   -0.158942    0.062188
     18          1           0        3.457566   -0.577376    1.031336
     19          1           0        3.559227   -0.831199   -0.707862
     20          1           0        3.654138    0.810301   -0.050877
 ---------------------------------------------------------------------
                    Distance matrix (angstroms):
                    1          2          3          4          5
     1  C    0.000000
     2  C    1.501486   0.000000
     3  C    2.544429   1.518707   0.000000
     4  C    2.854359   2.572378   1.473950   0.000000
     5  C    2.432164   2.902836   2.461265   1.352217   0.000000
     6  C    1.345018   2.505440   2.887404   2.460217   1.459296
     7  H    3.398984   3.987874   3.441917   2.102664   1.085223
     8  O    4.201580   3.768922   2.382043   1.347884   2.382200
     9  O    3.693998   2.415700   1.226336   2.324499   3.549704
    10  H    4.527930   3.769291   2.256749   1.854731   3.129043
    11  H    2.112208   1.102280   2.080457   3.182511   3.560737
    12  C    2.536298   1.544874   2.515355   3.729160   4.139009
    13  H    2.794728   2.181446   3.460832   4.626884   4.844262
    14  H    3.469173   2.172287   2.680466   4.073854   4.770618
    15  H    2.801135   2.182563   2.845050   3.792647   4.107831
    16  H    1.085813   2.211251   3.522009   3.940158   3.425541
    17  C    2.502325   3.905828   4.391749   3.794533   2.532539
    18  H    3.225877   4.540744   4.861928   4.105430   2.819791
    19  H    3.220907   4.532343   4.874573   4.114211   2.825702
    20  H    2.631228   4.132191   4.940656   4.610828   3.459986
                    6          7          8          9         10
     6  C    0.000000
     7  H    2.201928   0.000000
     8  O    3.718965   2.631334   0.000000
     9  O    4.112237   4.423485   2.635206   0.000000
    10  H    4.311465   3.550825   0.975011   2.034503   0.000000
    11  H    3.143329   4.613548   4.279327   2.702842   4.189880
    12  C    3.660035   5.194153   4.778936   2.932427   4.608422
    13  H    4.074872   5.895438   5.763463   3.927222   5.637630
    14  H    4.530859   5.820711   4.905116   2.609374   4.518043
    15  H    3.687824   5.073676   4.784152   3.304461   4.689744
    16  H    2.111620   4.303346   5.287365   4.592087   5.593107
    17  C    1.507235   2.705476   4.913863   5.614662   5.634986
    18  H    2.157277   2.726235   5.083159   6.048310   5.865589
    19  H    2.156886   2.737089   5.099912   6.072152   5.885248
    20  H    2.159088   3.772807   5.824265   6.158976   6.464948
                   11         12         13         14         15
    11  H    0.000000
    12  C    2.141763   0.000000
    13  H    2.462939   1.092115   0.000000
    14  H    2.478374   1.090354   1.777364   0.000000
    15  H    3.060446   1.092545   1.770131   1.773632   0.000000
    16  H    2.571041   2.809169   2.634794   3.822791   3.106712
    17  C    4.451549   4.915818   5.131742   5.880528   4.841312
    18  H    5.250325   5.389617   5.680421   6.355199   5.097537
    19  H    4.904942   5.726359   5.958751   6.629231   5.764729
    20  H    4.589477   4.957597   4.938364   5.991726   4.926841
                   16         17         18         19         20
    16  H    0.000000
    17  C    2.722886   0.000000
    18  H    3.491453   1.095139   0.000000
    19  H    3.482246   1.095223   1.760560   0.000000
    20  H    2.391397   1.091086   1.770727   1.770638   0.000000
 Stoichiometry    C8H10O2(1+,2)
 Framework group  C1[X(C8H10O2)]
 Deg. of freedom    54
 Full point group                 C1      NOp   1
 Largest Abelian subgroup         C1      NOp   1
 Largest concise Abelian subgroup C1      NOp   1
                         Standard orientation:                         
 ---------------------------------------------------------------------
 Center     Atomic      Atomic             Coordinates (Angstroms)
 Number     Number       Type             X           Y           Z
 ---------------------------------------------------------------------
      1          6           0        1.052157    1.140741   -0.260316
      2          6           0       -0.438030    1.279929   -0.380437
      3          6           0       -1.216434   -0.008717   -0.180563
      4          6           0       -0.465371   -1.259155    0.031188
      5          6           0        0.885148   -1.258939    0.098941
      6          6           0        1.667613   -0.035471   -0.043956
      7          1           0        1.400409   -2.197941    0.273554
      8          8           0       -1.223890   -2.363855    0.176368
      9          8           0       -2.441702   -0.057016   -0.197449
     10          1           0       -2.142710   -2.048218    0.093965
     11          1           0       -0.660237    1.565713   -1.421577
     12          6           0       -1.007475    2.397709    0.521193
     13          1           0       -0.562955    3.360948    0.261793
     14          1           0       -2.088833    2.459411    0.395772
     15          1           0       -0.788143    2.191577    1.571459
     16          1           0        1.634459    2.050820   -0.368347
     17          6           0        3.166027   -0.158941    0.062188
     18          1           0        3.457566   -0.577375    1.031336
     19          1           0        3.559227   -0.831198   -0.707862
     20          1           0        3.654138    0.810302   -0.050877
 ---------------------------------------------------------------------
 Rotational constants (GHZ):           1.7719256           1.2700848           0.7715539
 Leave Link  202 at Wed Dec 03 16:58:35 2025, MaxMem=   104857600 cpu:               0.0 elap:               0.1
 (Enter D:\Gaussian\G16W\l301.exe)
 Standard basis: 6-31G(d) (6D, 7F)
 Ernie: Thresh=  0.10000D-02 Tol=  0.10000D-05 Strict=F.
 There are   170 symmetry adapted cartesian basis functions of A   symmetry.
 There are   170 symmetry adapted basis functions of A   symmetry.
   170 basis functions,   320 primitive gaussians,   170 cartesian basis functions
    37 alpha electrons       36 beta electrons
       nuclear repulsion energy       518.4436007741 Hartrees.
 IExCor=  402 DFT=T Ex+Corr=B3LYP ExCW=0 ScaHFX=  0.200000
 ScaDFX=  0.800000  0.720000  1.000000  0.810000 ScalE2=  1.000000  1.000000
 IRadAn=      5 IRanWt=     -1 IRanGd=            0 ICorTp=0 IEmpDi=  4
 NAtoms=   20 NActive=   20 NUniq=   20 SFac= 1.00D+00 NAtFMM=   60 NAOKFM=F Big=F
 Integral buffers will be    131072 words long.
 Raffenetti 2 integral format.
 Two-electron integral symmetry is turned on.
 Leave Link  301 at Wed Dec 03 16:58:35 2025, MaxMem=   104857600 cpu:               0.0 elap:               0.1
 (Enter D:\Gaussian\G16W\l302.exe)
 NPDir=0 NMtPBC=     1 NCelOv=     1 NCel=       1 NClECP=     1 NCelD=      1
         NCelK=      1 NCelE2=     1 NClLst=     1 CellRange=     0.0.
 One-electron integrals computed using PRISM.
 One-electron integral symmetry used in STVInt
 NBasis=   170 RedAO= T EigKep=  5.43D-04  NBF=   170
 NBsUse=   170 1.00D-06 EigRej= -1.00D+00 NBFU=   170
 Precomputing XC quadrature grid using
 IXCGrd= 4 IRadAn=           5 IRanWt=          -1 IRanGd=           0 AccXCQ= 0.00D+00.
 Generated NRdTot=       0 NPtTot=           0 NUsed=           0 NTot=          32
 NSgBfM=   170   170   170   170   170 MxSgAt=    20 MxSgA2=    20.
 Leave Link  302 at Wed Dec 03 16:58:36 2025, MaxMem=   104857600 cpu:               1.0 elap:               0.4
 (Enter D:\Gaussian\G16W\l303.exe)
 DipDrv:  MaxL=1.
 Leave Link  303 at Wed Dec 03 16:58:36 2025, MaxMem=   104857600 cpu:               0.0 elap:               0.1
 (Enter D:\Gaussian\G16W\l401.exe)
 ExpMin= 1.61D-01 ExpMax= 5.48D+03 ExpMxC= 8.25D+02 IAcc=3 IRadAn=         5 AccDes= 0.00D+00
 Harris functional with IExCor=  402 and IRadAn=       5 diagonalized for initial guess.
 HarFok:  IExCor=  402 AccDes= 0.00D+00 IRadAn=         5 IDoV= 1 UseB2=F ITyADJ=14
 ICtDFT=  3500011 ScaDFX=  1.000000  1.000000  1.000000  1.000000
 FoFCou: FMM=F IPFlag=           0 FMFlag=      100000 FMFlg1=           0
         NFxFlg=           0 DoJE=T BraDBF=F KetDBF=T FulRan=T
         wScrn=  0.000000 ICntrl=       500 IOpCl=  0 I1Cent=   200000004 NGrid=           0
         NMat0=    1 NMatS0=      1 NMatT0=    0 NMatD0=    1 NMtDS0=    0 NMtDT0=    0
 Petite list used in FoFCou.
 Harris En= -461.046680857227    
 JPrj=0 DoOrth=F DoCkMO=F.
 Initial guess <Sx>= 0.0000 <Sy>= 0.0000 <Sz>= 0.5000 <S**2>= 0.7500 S= 0.5000
 Leave Link  401 at Wed Dec 03 16:58:37 2025, MaxMem=   104857600 cpu:               1.0 elap:               1.3
 (Enter D:\Gaussian\G16W\l502.exe)
 Integral symmetry usage will be decided dynamically.
 UHF open shell SCF:
 Using DIIS extrapolation, IDIIS=  1040.
 NGot=   104857600 LenX=   104796738 LenY=   104767397
 Requested convergence on RMS density matrix=1.00D-07 within 128 cycles.
 Requested convergence on MAX density matrix=1.00D-05.
 Requested convergence on             energy=1.00D-05.
 No special actions if energy rises.
 Fock matrices will be formed incrementally for  20 cycles.
 Integral accuracy reduced to 1.0D-05 until final iterations.

 Cycle   1  Pass 0  IDiag  1:
 FoFJK:  IHMeth= 1 ICntrl=       0 DoSepK=F KAlg= 0 I1Cent=           0 FoldK=F
 IRaf= 940000000 NMat=       1 IRICut=       1 DoRegI=T DoRafI=F ISym2E= 0 IDoP0=0 IntGTp=1.
 FoFCou: FMM=F IPFlag=           0 FMFlag=      100000 FMFlg1=           0
         NFxFlg=           0 DoJE=F BraDBF=F KetDBF=F FulRan=T
         wScrn=  0.000000 ICntrl=         0 IOpCl=  1 I1Cent=           0 NGrid=           0
         NMat0=    1 NMatS0=      1 NMatT0=    0 NMatD0=    1 NMtDS0=    0 NMtDT0=    0
 Symmetry not used in FoFCou.
 E= -460.801749900356    
 DIIS: error= 2.36D-02 at cycle   1 NSaved=   1.
 NSaved= 1 IEnMin= 1 EnMin= -460.801749900356     IErMin= 1 ErrMin= 2.36D-02
 ErrMax= 2.36D-02  0.00D+00 EMaxC= 1.00D-01 BMatC= 9.18D-01 BMatP= 9.18D-01
 IDIUse=3 WtCom= 7.64D-01 WtEn= 2.36D-01
 Coeff-Com:  0.100D+01
 Coeff-En:   0.100D+01
 Coeff:      0.100D+01
 Gap=     0.154 Goal=   None    Shift=    0.000
 Gap=     0.040 Goal=   None    Shift=    0.000
 GapD=    0.040 DampG=0.250 DampE=0.500 DampFc=0.2500 IDamp=-1.
 Damping current iteration by 2.50D-01
 RMSDP=6.47D-03 MaxDP=1.93D-01              OVMax= 2.44D-01

 Cycle   2  Pass 0  IDiag  1:
 RMSU=  1.60D-03    CP:  9.91D-01
 E= -460.875913910720     Delta-E=       -0.074164010364 Rises=F Damp=T
 DIIS: error= 1.22D-02 at cycle   2 NSaved=   2.
 NSaved= 2 IEnMin= 2 EnMin= -460.875913910720     IErMin= 2 ErrMin= 1.22D-02
 ErrMax= 1.22D-02  0.00D+00 EMaxC= 1.00D-01 BMatC= 2.02D-01 BMatP= 9.18D-01
 IDIUse=3 WtCom= 8.78D-01 WtEn= 1.22D-01
 Coeff-Com: -0.546D+00 0.155D+01
 Coeff-En:   0.000D+00 0.100D+01
 Coeff:     -0.479D+00 0.148D+01
 Gap=     0.213 Goal=   None    Shift=    0.000
 Gap=     0.123 Goal=   None    Shift=    0.000
 RMSDP=2.23D-03 MaxDP=4.57D-02 DE=-7.42D-02 OVMax= 1.92D-01

 Cycle   3  Pass 0  IDiag  1:
 RMSU=  2.01D-03    CP:  9.71D-01  1.52D+00
 E= -460.983528056139     Delta-E=       -0.107614145419 Rises=F Damp=F
 DIIS: error= 1.47D-02 at cycle   3 NSaved=   3.
 NSaved= 3 IEnMin= 3 EnMin= -460.983528056139     IErMin= 2 ErrMin= 1.22D-02
 ErrMax= 1.47D-02  0.00D+00 EMaxC= 1.00D-01 BMatC= 1.39D-01 BMatP= 2.02D-01
 IDIUse=3 WtCom= 8.53D-01 WtEn= 1.47D-01
 Coeff-Com: -0.390D+00 0.921D+00 0.468D+00
 Coeff-En:   0.000D+00 0.000D+00 0.100D+01
 Coeff:     -0.332D+00 0.786D+00 0.547D+00
 Gap=     0.164 Goal=   None    Shift=    0.000
 Gap=     0.119 Goal=   None    Shift=    0.000
 RMSDP=1.48D-03 MaxDP=6.48D-02 DE=-1.08D-01 OVMax= 8.06D-02

 Cycle   4  Pass 0  IDiag  1:
 RMSU=  9.68D-04    CP:  9.77D-01  1.82D+00  5.02D-01
 E= -461.005584401136     Delta-E=       -0.022056344997 Rises=F Damp=F
 DIIS: error= 7.81D-03 at cycle   4 NSaved=   4.
 NSaved= 4 IEnMin= 4 EnMin= -461.005584401136     IErMin= 4 ErrMin= 7.81D-03
 ErrMax= 7.81D-03  0.00D+00 EMaxC= 1.00D-01 BMatC= 4.30D-02 BMatP= 1.39D-01
 IDIUse=3 WtCom= 9.22D-01 WtEn= 7.81D-02
 Coeff-Com: -0.632D-01 0.166D+00 0.355D+00 0.543D+00
 Coeff-En:   0.000D+00 0.000D+00 0.266D+00 0.734D+00
 Coeff:     -0.583D-01 0.153D+00 0.348D+00 0.558D+00
 Gap=     0.162 Goal=   None    Shift=    0.000
 Gap=     0.100 Goal=   None    Shift=    0.000
 RMSDP=6.23D-04 MaxDP=2.84D-02 DE=-2.21D-02 OVMax= 3.22D-02

 Cycle   5  Pass 0  IDiag  1:
 RMSU=  2.75D-04    CP:  9.75D-01  1.69D+00  6.61D-01  5.80D-01
 E= -461.014049451568     Delta-E=       -0.008465050432 Rises=F Damp=F
 DIIS: error= 1.25D-03 at cycle   5 NSaved=   5.
 NSaved= 5 IEnMin= 5 EnMin= -461.014049451568     IErMin= 5 ErrMin= 1.25D-03
 ErrMax= 1.25D-03  0.00D+00 EMaxC= 1.00D-01 BMatC= 2.06D-03 BMatP= 4.30D-02
 IDIUse=3 WtCom= 9.87D-01 WtEn= 1.25D-02
 Coeff-Com: -0.222D-02 0.143D-01 0.156D+00 0.317D+00 0.515D+00
 Coeff-En:   0.000D+00 0.000D+00 0.000D+00 0.000D+00 0.100D+01
 Coeff:     -0.219D-02 0.142D-01 0.154D+00 0.313D+00 0.521D+00
 Gap=     0.162 Goal=   None    Shift=    0.000
 Gap=     0.096 Goal=   None    Shift=    0.000
 RMSDP=1.63D-04 MaxDP=5.64D-03 DE=-8.47D-03 OVMax= 1.18D-02

 Cycle   6  Pass 0  IDiag  1:
 RMSU=  9.35D-05    CP:  9.75D-01  1.68D+00  6.64D-01  6.37D-01  5.62D-01
 E= -461.014520496215     Delta-E=       -0.000471044647 Rises=F Damp=F
 DIIS: error= 5.23D-04 at cycle   6 NSaved=   6.
 NSaved= 6 IEnMin= 6 EnMin= -461.014520496215     IErMin= 6 ErrMin= 5.23D-04
 ErrMax= 5.23D-04  0.00D+00 EMaxC= 1.00D-01 BMatC= 1.60D-04 BMatP= 2.06D-03
 IDIUse=3 WtCom= 9.95D-01 WtEn= 5.23D-03
 Coeff-Com:  0.447D-02-0.810D-02 0.399D-01 0.949D-01 0.261D+00 0.607D+00
 Coeff-En:   0.000D+00 0.000D+00 0.000D+00 0.000D+00 0.000D+00 0.100D+01
 Coeff:      0.445D-02-0.806D-02 0.397D-01 0.944D-01 0.260D+00 0.610D+00
 Gap=     0.162 Goal=   None    Shift=    0.000
 Gap=     0.097 Goal=   None    Shift=    0.000
 RMSDP=4.86D-05 MaxDP=1.84D-03 DE=-4.71D-04 OVMax= 6.61D-03

 Cycle   7  Pass 0  IDiag  1:
 RMSU=  4.27D-05    CP:  9.75D-01  1.68D+00  6.64D-01  6.35D-01  6.33D-01
                    CP:  8.69D-01
 E= -461.014566643265     Delta-E=       -0.000046147050 Rises=F Damp=F
 DIIS: error= 2.10D-04 at cycle   7 NSaved=   7.
 NSaved= 7 IEnMin= 7 EnMin= -461.014566643265     IErMin= 7 ErrMin= 2.10D-04
 ErrMax= 2.10D-04  0.00D+00 EMaxC= 1.00D-01 BMatC= 3.42D-05 BMatP= 1.60D-04
 IDIUse=3 WtCom= 9.98D-01 WtEn= 2.10D-03
 Coeff-Com:  0.239D-02-0.614D-02-0.627D-02-0.782D-02 0.467D-01 0.334D+00
 Coeff-Com:  0.637D+00
 Coeff-En:   0.000D+00 0.000D+00 0.000D+00 0.000D+00 0.000D+00 0.000D+00
 Coeff-En:   0.100D+01
 Coeff:      0.239D-02-0.613D-02-0.625D-02-0.780D-02 0.466D-01 0.333D+00
 Coeff:      0.638D+00
 Gap=     0.163 Goal=   None    Shift=    0.000
 Gap=     0.097 Goal=   None    Shift=    0.000
 RMSDP=2.84D-05 MaxDP=1.61D-03 DE=-4.61D-05 OVMax= 2.26D-03

 Cycle   8  Pass 0  IDiag  1:
 RMSU=  2.17D-05    CP:  9.75D-01  1.68D+00  6.67D-01  6.42D-01  6.53D-01
                    CP:  1.02D+00  8.47D-01
 E= -461.014581354392     Delta-E=       -0.000014711128 Rises=F Damp=F
 DIIS: error= 1.22D-04 at cycle   8 NSaved=   8.
 NSaved= 8 IEnMin= 8 EnMin= -461.014581354392     IErMin= 8 ErrMin= 1.22D-04
 ErrMax= 1.22D-04  0.00D+00 EMaxC= 1.00D-01 BMatC= 6.45D-06 BMatP= 3.42D-05
 IDIUse=3 WtCom= 9.99D-01 WtEn= 1.22D-03
 Coeff-Com: -0.116D-03-0.400D-03-0.138D-01-0.316D-01-0.567D-01-0.190D-01
 Coeff-Com:  0.275D+00 0.846D+00
 Coeff-En:   0.000D+00 0.000D+00 0.000D+00 0.000D+00 0.000D+00 0.000D+00
 Coeff-En:   0.000D+00 0.100D+01
 Coeff:     -0.116D-03-0.400D-03-0.138D-01-0.315D-01-0.566D-01-0.190D-01
 Coeff:      0.275D+00 0.846D+00
 Gap=     0.163 Goal=   None    Shift=    0.000
 Gap=     0.097 Goal=   None    Shift=    0.000
 RMSDP=1.89D-05 MaxDP=8.15D-04 DE=-1.47D-05 OVMax= 2.90D-03

 Cycle   9  Pass 0  IDiag  1:
 RMSU=  1.11D-05    CP:  9.75D-01  1.68D+00  6.67D-01  6.42D-01  6.75D-01
                    CP:  1.10D+00  1.10D+00  1.14D+00
 E= -461.014586111530     Delta-E=       -0.000004757137 Rises=F Damp=F
 DIIS: error= 5.31D-05 at cycle   9 NSaved=   9.
 NSaved= 9 IEnMin= 9 EnMin= -461.014586111530     IErMin= 9 ErrMin= 5.31D-05
 ErrMax= 5.31D-05  0.00D+00 EMaxC= 1.00D-01 BMatC= 4.08D-06 BMatP= 6.45D-06
 IDIUse=1 WtCom= 1.00D+00 WtEn= 0.00D+00
 Coeff-Com: -0.920D-03 0.183D-02-0.775D-02-0.206D-01-0.591D-01-0.131D+00
 Coeff-Com: -0.173D-01 0.606D+00 0.629D+00
 Coeff:     -0.920D-03 0.183D-02-0.775D-02-0.206D-01-0.591D-01-0.131D+00
 Coeff:     -0.173D-01 0.606D+00 0.629D+00
 Gap=     0.163 Goal=   None    Shift=    0.000
 Gap=     0.097 Goal=   None    Shift=    0.000
 RMSDP=1.16D-05 MaxDP=5.87D-04 DE=-4.76D-06 OVMax= 1.03D-03

 Cycle  10  Pass 0  IDiag  1:
 RMSU=  4.94D-06    CP:  9.75D-01  1.68D+00  6.68D-01  6.44D-01  6.76D-01
                    CP:  1.17D+00  1.20D+00  1.45D+00  8.09D-01
 E= -461.014587939118     Delta-E=       -0.000001827589 Rises=F Damp=F
 DIIS: error= 3.04D-05 at cycle  10 NSaved=  10.
 NSaved=10 IEnMin=10 EnMin= -461.014587939118     IErMin=10 ErrMin= 3.04D-05
 ErrMax= 3.04D-05  0.00D+00 EMaxC= 1.00D-01 BMatC= 4.91D-07 BMatP= 4.08D-06
 IDIUse=1 WtCom= 1.00D+00 WtEn= 0.00D+00
 Coeff-Com: -0.277D-03 0.704D-03-0.176D-02-0.521D-02-0.207D-01-0.627D-01
 Coeff-Com: -0.483D-01 0.169D+00 0.324D+00 0.646D+00
 Coeff:     -0.277D-03 0.704D-03-0.176D-02-0.521D-02-0.207D-01-0.627D-01
 Coeff:     -0.483D-01 0.169D+00 0.324D+00 0.646D+00
 Gap=     0.163 Goal=   None    Shift=    0.000
 Gap=     0.097 Goal=   None    Shift=    0.000
 RMSDP=4.04D-06 MaxDP=2.11D-04 DE=-1.83D-06 OVMax= 3.96D-04

 Initial convergence to 1.0D-05 achieved.  Increase integral accuracy.
 Cycle  11  Pass 1  IDiag  1:
 E= -461.014598396299     Delta-E=       -0.000010457181 Rises=F Damp=F
 DIIS: error= 1.71D-05 at cycle   1 NSaved=   1.
 NSaved= 1 IEnMin= 1 EnMin= -461.014598396299     IErMin= 1 ErrMin= 1.71D-05
 ErrMax= 1.71D-05  0.00D+00 EMaxC= 1.00D-01 BMatC= 2.56D-07 BMatP= 2.56D-07
 IDIUse=1 WtCom= 1.00D+00 WtEn= 0.00D+00
 Coeff-Com:  0.100D+01
 Coeff:      0.100D+01
 Gap=     0.163 Goal=   None    Shift=    0.000
 Gap=     0.097 Goal=   None    Shift=    0.000
 RMSDP=4.04D-06 MaxDP=2.11D-04 DE=-1.05D-05 OVMax= 2.58D-04

 Cycle  12  Pass 1  IDiag  1:
 RMSU=  5.51D-06    CP:  1.00D+00
 E= -461.014598356738     Delta-E=        0.000000039562 Rises=F Damp=F
 DIIS: error= 2.52D-05 at cycle   2 NSaved=   2.
 NSaved= 2 IEnMin= 1 EnMin= -461.014598396299     IErMin= 1 ErrMin= 1.71D-05
 ErrMax= 2.52D-05  0.00D+00 EMaxC= 1.00D-01 BMatC= 6.30D-07 BMatP= 2.56D-07
 IDIUse=1 WtCom= 1.00D+00 WtEn= 0.00D+00
 Coeff-Com:  0.628D+00 0.372D+00
 Coeff:      0.628D+00 0.372D+00
 Gap=     0.163 Goal=   None    Shift=    0.000
 Gap=     0.097 Goal=   None    Shift=    0.000
 RMSDP=2.53D-06 MaxDP=1.30D-04 DE= 3.96D-08 OVMax= 2.42D-04

 Cycle  13  Pass 1  IDiag  1:
 RMSU=  2.19D-06    CP:  1.00D+00  7.68D-01
 E= -461.014598510043     Delta-E=       -0.000000153305 Rises=F Damp=F
 DIIS: error= 9.34D-06 at cycle   3 NSaved=   3.
 NSaved= 3 IEnMin= 3 EnMin= -461.014598510043     IErMin= 3 ErrMin= 9.34D-06
 ErrMax= 9.34D-06  0.00D+00 EMaxC= 1.00D-01 BMatC= 3.41D-08 BMatP= 2.56D-07
 IDIUse=1 WtCom= 1.00D+00 WtEn= 0.00D+00
 Coeff-Com:  0.281D-01 0.154D+00 0.818D+00
 Coeff:      0.281D-01 0.154D+00 0.818D+00
 Gap=     0.163 Goal=   None    Shift=    0.000
 Gap=     0.097 Goal=   None    Shift=    0.000
 RMSDP=9.21D-07 MaxDP=6.84D-05 DE=-1.53D-07 OVMax= 8.12D-05

 Cycle  14  Pass 1  IDiag  1:
 RMSU=  8.44D-07    CP:  1.00D+00  8.34D-01  1.03D+00
 E= -461.014598528093     Delta-E=       -0.000000018051 Rises=F Damp=F
 DIIS: error= 4.84D-06 at cycle   4 NSaved=   4.
 NSaved= 4 IEnMin= 4 EnMin= -461.014598528093     IErMin= 4 ErrMin= 4.84D-06
 ErrMax= 4.84D-06  0.00D+00 EMaxC= 1.00D-01 BMatC= 1.63D-08 BMatP= 3.41D-08
 IDIUse=1 WtCom= 1.00D+00 WtEn= 0.00D+00
 Coeff-Com: -0.133D+00 0.241D-01 0.504D+00 0.605D+00
 Coeff:     -0.133D+00 0.241D-01 0.504D+00 0.605D+00
 Gap=     0.163 Goal=   None    Shift=    0.000
 Gap=     0.097 Goal=   None    Shift=    0.000
 RMSDP=6.31D-07 MaxDP=4.55D-05 DE=-1.81D-08 OVMax= 4.80D-05

 Cycle  15  Pass 1  IDiag  1:
 RMSU=  5.55D-07    CP:  1.00D+00  8.62D-01  1.12D+00  1.21D+00
 E= -461.014598537506     Delta-E=       -0.000000009412 Rises=F Damp=F
 DIIS: error= 4.26D-06 at cycle   5 NSaved=   5.
 NSaved= 5 IEnMin= 5 EnMin= -461.014598537506     IErMin= 5 ErrMin= 4.26D-06
 ErrMax= 4.26D-06  0.00D+00 EMaxC= 1.00D-01 BMatC= 3.71D-09 BMatP= 1.63D-08
 IDIUse=1 WtCom= 1.00D+00 WtEn= 0.00D+00
 Coeff-Com: -0.602D-01-0.487D-01-0.227D+00 0.218D+00 0.112D+01
 Coeff:     -0.602D-01-0.487D-01-0.227D+00 0.218D+00 0.112D+01
 Gap=     0.163 Goal=   None    Shift=    0.000
 Gap=     0.097 Goal=   None    Shift=    0.000
 RMSDP=6.77D-07 MaxDP=5.85D-05 DE=-9.41D-09 OVMax= 7.09D-05

 Cycle  16  Pass 1  IDiag  1:
 RMSU=  2.92D-07    CP:  1.00D+00  8.96D-01  1.19D+00  1.82D+00  1.36D+00
 E= -461.014598542174     Delta-E=       -0.000000004668 Rises=F Damp=F
 DIIS: error= 2.59D-06 at cycle   6 NSaved=   6.
 NSaved= 6 IEnMin= 6 EnMin= -461.014598542174     IErMin= 6 ErrMin= 2.59D-06
 ErrMax= 2.59D-06  0.00D+00 EMaxC= 1.00D-01 BMatC= 2.79D-09 BMatP= 3.71D-09
 IDIUse=1 WtCom= 1.00D+00 WtEn= 0.00D+00
 Coeff-Com: -0.156D-02-0.455D-01-0.351D+00-0.540D-01 0.870D+00 0.582D+00
 Coeff:     -0.156D-02-0.455D-01-0.351D+00-0.540D-01 0.870D+00 0.582D+00
 Gap=     0.163 Goal=   None    Shift=    0.000
 Gap=     0.097 Goal=   None    Shift=    0.000
 RMSDP=3.45D-07 MaxDP=2.94D-05 DE=-4.67D-09 OVMax= 3.15D-05

 Cycle  17  Pass 1  IDiag  1:
 RMSU=  1.01D-07    CP:  1.00D+00  9.06D-01  1.25D+00  2.08D+00  1.70D+00
                    CP:  7.20D-01
 E= -461.014598543371     Delta-E=       -0.000000001198 Rises=F Damp=F
 DIIS: error= 7.15D-07 at cycle   7 NSaved=   7.
 NSaved= 7 IEnMin= 7 EnMin= -461.014598543371     IErMin= 7 ErrMin= 7.15D-07
 ErrMax= 7.15D-07  0.00D+00 EMaxC= 1.00D-01 BMatC= 3.39D-10 BMatP= 2.79D-09
 IDIUse=1 WtCom= 1.00D+00 WtEn= 0.00D+00
 Coeff-Com:  0.494D-02-0.247D-01-0.204D+00-0.559D-01 0.464D+00 0.378D+00
 Coeff-Com:  0.437D+00
 Coeff:      0.494D-02-0.247D-01-0.204D+00-0.559D-01 0.464D+00 0.378D+00
 Coeff:      0.437D+00
 Gap=     0.163 Goal=   None    Shift=    0.000
 Gap=     0.097 Goal=   None    Shift=    0.000
 RMSDP=6.50D-08 MaxDP=4.79D-06 DE=-1.20D-09 OVMax= 5.80D-06

 SCF Done:  E(UB3LYP) =  -461.014598543     A.U. after   17 cycles
            NFock= 17  Conv=0.65D-07     -V/T= 2.0092
 <Sx>= 0.0000 <Sy>= 0.0000 <Sz>= 0.5000 <S**2>= 0.7619 S= 0.5059
 <L.S>= 0.000000000000E+00
 KE= 4.568160637105D+02 PE=-2.095963762233D+03 EE= 6.596894992047D+02
 Annihilation of the first spin contaminant:
 S**2 before annihilation     0.7619,   after     0.7501
 Leave Link  502 at Wed Dec 03 16:59:13 2025, MaxMem=   104857600 cpu:              36.0 elap:              36.5
 (Enter D:\Gaussian\G16W\l601.exe)
 Copying SCF densities to generalized density rwf, IOpCl= 1 IROHF=0.

 **********************************************************************

            Population analysis using the SCF density.

 **********************************************************************

 Orbital symmetries:
 Alpha Orbitals:
       Occupied  (A) (A) (A) (A) (A) (A) (A) (A) (A) (A) (A) (A)
                 (A) (A) (A) (A) (A) (A) (A) (A) (A) (A) (A) (A)
                 (A) (A) (A) (A) (A) (A) (A) (A) (A) (A) (A) (A)
                 (A)
       Virtual   (A) (A) (A) (A) (A) (A) (A) (A) (A) (A) (A) (A)
                 (A) (A) (A) (A) (A) (A) (A) (A) (A) (A) (A) (A)
                 (A) (A) (A) (A) (A) (A) (A) (A) (A) (A) (A) (A)
                 (A) (A) (A) (A) (A) (A) (A) (A) (A) (A) (A) (A)
                 (A) (A) (A) (A) (A) (A) (A) (A) (A) (A) (A) (A)
                 (A) (A) (A) (A) (A) (A) (A) (A) (A) (A) (A) (A)
                 (A) (A) (A) (A) (A) (A) (A) (A) (A) (A) (A) (A)
                 (A) (A) (A) (A) (A) (A) (A) (A) (A) (A) (A) (A)
                 (A) (A) (A) (A) (A) (A) (A) (A) (A) (A) (A) (A)
                 (A) (A) (A) (A) (A) (A) (A) (A) (A) (A) (A) (A)
                 (A) (A) (A) (A) (A) (A) (A) (A) (A) (A) (A) (A)
                 (A)
 Beta  Orbitals:
       Occupied  (A) (A) (A) (A) (A) (A) (A) (A) (A) (A) (A) (A)
                 (A) (A) (A) (A) (A) (A) (A) (A) (A) (A) (A) (A)
                 (A) (A) (A) (A) (A) (A) (A) (A) (A) (A) (A) (A)
       Virtual   (A) (A) (A) (A) (A) (A) (A) (A) (A) (A) (A) (A)
                 (A) (A) (A) (A) (A) (A) (A) (A) (A) (A) (A) (A)
                 (A) (A) (A) (A) (A) (A) (A) (A) (A) (A) (A) (A)
                 (A) (A) (A) (A) (A) (A) (A) (A) (A) (A) (A) (A)
                 (A) (A) (A) (A) (A) (A) (A) (A) (A) (A) (A) (A)
                 (A) (A) (A) (A) (A) (A) (A) (A) (A) (A) (A) (A)
                 (A) (A) (A) (A) (A) (A) (A) (A) (A) (A) (A) (A)
                 (A) (A) (A) (A) (A) (A) (A) (A) (A) (A) (A) (A)
                 (A) (A) (A) (A) (A) (A) (A) (A) (A) (A) (A) (A)
                 (A) (A) (A) (A) (A) (A) (A) (A) (A) (A) (A) (A)
                 (A) (A) (A) (A) (A) (A) (A) (A) (A) (A) (A) (A)
                 (A) (A)
 The electronic state is 2-A.
 Alpha  occ. eigenvalues --  -19.40786 -19.35241 -10.48693 -10.47736 -10.42922
 Alpha  occ. eigenvalues --  -10.42830 -10.42554 -10.39908 -10.35556 -10.34538
 Alpha  occ. eigenvalues --   -1.29470  -1.23881  -1.07199  -0.98409  -0.96763
 Alpha  occ. eigenvalues --   -0.87820  -0.85790  -0.81297  -0.79461  -0.73793
 Alpha  occ. eigenvalues --   -0.70504  -0.68103  -0.66779  -0.63738  -0.62265
 Alpha  occ. eigenvalues --   -0.61365  -0.60068  -0.59392  -0.58270  -0.56800
 Alpha  occ. eigenvalues --   -0.55644  -0.54644  -0.54054  -0.52305  -0.50467
 Alpha  occ. eigenvalues --   -0.46045  -0.44059
 Alpha virt. eigenvalues --   -0.27792  -0.19150  -0.10892  -0.08280  -0.06688
 Alpha virt. eigenvalues --   -0.03897  -0.02771  -0.02079  -0.00780   0.00705
 Alpha virt. eigenvalues --    0.01186   0.02735   0.02978   0.03436   0.04550
 Alpha virt. eigenvalues --    0.06033   0.07038   0.11150   0.11987   0.14327
 Alpha virt. eigenvalues --    0.19273   0.26460   0.27732   0.29801   0.31866
 Alpha virt. eigenvalues --    0.33730   0.35703   0.36414   0.38248   0.39796
 Alpha virt. eigenvalues --    0.39838   0.41826   0.43909   0.45621   0.46636
 Alpha virt. eigenvalues --    0.48181   0.49888   0.53095   0.54438   0.55475
 Alpha virt. eigenvalues --    0.56792   0.57680   0.60105   0.60883   0.63773
 Alpha virt. eigenvalues --    0.66791   0.69172   0.71460   0.71930   0.73352
 Alpha virt. eigenvalues --    0.74188   0.75086   0.75157   0.77299   0.79564
 Alpha virt. eigenvalues --    0.80010   0.81294   0.82497   0.86664   0.87065
 Alpha virt. eigenvalues --    0.89645   0.93399   0.96821   0.97080   1.01043
 Alpha virt. eigenvalues --    1.03529   1.06258   1.10731   1.12283   1.16754
 Alpha virt. eigenvalues --    1.20191   1.21251   1.22546   1.25897   1.36534
 Alpha virt. eigenvalues --    1.42422   1.45721   1.48447   1.49890   1.54428
 Alpha virt. eigenvalues --    1.55273   1.58678   1.60248   1.62116   1.66070
 Alpha virt. eigenvalues --    1.66439   1.69589   1.69905   1.71332   1.73169
 Alpha virt. eigenvalues --    1.77608   1.79687   1.80937   1.81286   1.85748
 Alpha virt. eigenvalues --    1.90214   1.94195   1.96070   1.98999   2.05204
 Alpha virt. eigenvalues --    2.07428   2.11131   2.14200   2.14324   2.14936
 Alpha virt. eigenvalues --    2.16386   2.19551   2.23599   2.24310   2.31398
 Alpha virt. eigenvalues --    2.33531   2.37692   2.41252   2.46269   2.48645
 Alpha virt. eigenvalues --    2.54338   2.57965   2.61161   2.68616   2.72602
 Alpha virt. eigenvalues --    2.81145   3.00628   3.09096   3.66739   3.85634
 Alpha virt. eigenvalues --    3.93096   3.97992   3.99688   4.08429   4.11452
 Alpha virt. eigenvalues --    4.32367   4.35468   4.74378
  Beta  occ. eigenvalues --  -19.40321 -19.34969 -10.48424 -10.47804 -10.42837
  Beta  occ. eigenvalues --  -10.42342 -10.42234 -10.39931 -10.35558 -10.34515
  Beta  occ. eigenvalues --   -1.28618  -1.23300  -1.06278  -0.97651  -0.96086
  Beta  occ. eigenvalues --   -0.87269  -0.85517  -0.80863  -0.79247  -0.73366
  Beta  occ. eigenvalues --   -0.70203  -0.67769  -0.65977  -0.62615  -0.61793
  Beta  occ. eigenvalues --   -0.60873  -0.59156  -0.58707  -0.58042  -0.55922
  Beta  occ. eigenvalues --   -0.55550  -0.54030  -0.53605  -0.51989  -0.48175
  Beta  occ. eigenvalues --   -0.45762
  Beta virt. eigenvalues --   -0.36089  -0.25615  -0.17078  -0.09345  -0.07998
  Beta virt. eigenvalues --   -0.06406  -0.03732  -0.02636  -0.01931  -0.00701
  Beta virt. eigenvalues --    0.01229   0.01321   0.02895   0.03179   0.03653
  Beta virt. eigenvalues --    0.04686   0.06343   0.07210   0.11417   0.12353
  Beta virt. eigenvalues --    0.14645   0.19454   0.26739   0.28343   0.30892
  Beta virt. eigenvalues --    0.32059   0.34418   0.36069   0.36741   0.38580
  Beta virt. eigenvalues --    0.40228   0.40302   0.42509   0.44591   0.45894
  Beta virt. eigenvalues --    0.47196   0.48301   0.50113   0.53404   0.54877
  Beta virt. eigenvalues --    0.56108   0.56994   0.57984   0.60371   0.61201
  Beta virt. eigenvalues --    0.64083   0.67012   0.69501   0.71658   0.72075
  Beta virt. eigenvalues --    0.73926   0.74465   0.75239   0.76242   0.77505
  Beta virt. eigenvalues --    0.79669   0.80107   0.81477   0.82635   0.87282
  Beta virt. eigenvalues --    0.87584   0.89892   0.93580   0.97245   0.97413
  Beta virt. eigenvalues --    1.01309   1.04417   1.06577   1.11341   1.12522
  Beta virt. eigenvalues --    1.17718   1.20731   1.21886   1.22999   1.26723
  Beta virt. eigenvalues --    1.36891   1.42765   1.46202   1.48636   1.50670
  Beta virt. eigenvalues --    1.54815   1.55860   1.59070   1.60992   1.62674
  Beta virt. eigenvalues --    1.66540   1.66969   1.70493   1.70720   1.72104
  Beta virt. eigenvalues --    1.73659   1.78324   1.79976   1.81314   1.81482
  Beta virt. eigenvalues --    1.86813   1.90618   1.94607   1.96640   1.99441
  Beta virt. eigenvalues --    2.05478   2.07804   2.11874   2.14621   2.14773
  Beta virt. eigenvalues --    2.15286   2.16998   2.19955   2.24228   2.25185
  Beta virt. eigenvalues --    2.31819   2.33807   2.38183   2.42255   2.46682
  Beta virt. eigenvalues --    2.49314   2.54695   2.58263   2.61654   2.68879
  Beta virt. eigenvalues --    2.72968   2.81538   3.00775   3.09312   3.67288
  Beta virt. eigenvalues --    3.86203   3.93286   3.98866   4.00041   4.08755
  Beta virt. eigenvalues --    4.11787   4.32609   4.35894   4.74691
          Condensed to atoms (all electrons):
               1          2          3          4          5          6
     1  C    5.084564   0.295071  -0.028146  -0.010528  -0.042435   0.555642
     2  C    0.295071   5.319558   0.300724  -0.086441  -0.021265  -0.020942
     3  C   -0.028146   0.300724   4.668013   0.305506  -0.051408  -0.008923
     4  C   -0.010528  -0.086441   0.305506   4.768722   0.444176  -0.014257
     5  C   -0.042435  -0.021265  -0.051408   0.444176   5.120321   0.455141
     6  C    0.555642  -0.020942  -0.008923  -0.014257   0.455141   4.624881
     7  H    0.005198  -0.000581   0.004496  -0.027727   0.350655  -0.035881
     8  O   -0.000125   0.003508  -0.047983   0.340038  -0.053987   0.002463
     9  O    0.003475  -0.072004   0.484207  -0.061835   0.005944   0.000032
    10  H   -0.000159   0.002408  -0.010310  -0.040152   0.007050  -0.000024
    11  H   -0.033202   0.354114  -0.028654   0.002471   0.000168  -0.000817
    12  C   -0.037802   0.320963  -0.030993   0.002407   0.000146  -0.000219
    13  H   -0.002651  -0.030117   0.004405  -0.000099  -0.000008   0.000173
    14  H    0.003882  -0.027410  -0.005628   0.000548  -0.000076  -0.000036
    15  H   -0.005065  -0.036329  -0.005758   0.000358   0.000060   0.000607
    16  H    0.356295  -0.034268   0.002439  -0.000103   0.005126  -0.028846
    17  C   -0.054068   0.006093  -0.000015   0.005535  -0.057033   0.363153
    18  H    0.000878  -0.000153   0.000012  -0.000069  -0.003214  -0.024462
    19  H    0.000893  -0.000199   0.000013  -0.000075  -0.002961  -0.024179
    20  H   -0.002548   0.000187   0.000001  -0.000152   0.003733  -0.032362
               7          8          9         10         11         12
     1  C    0.005198  -0.000125   0.003475  -0.000159  -0.033202  -0.037802
     2  C   -0.000581   0.003508  -0.072004   0.002408   0.354114   0.320963
     3  C    0.004496  -0.047983   0.484207  -0.010310  -0.028654  -0.030993
     4  C   -0.027727   0.340038  -0.061835  -0.040152   0.002471   0.002407
     5  C    0.350655  -0.053987   0.005944   0.007050   0.000168   0.000146
     6  C   -0.035881   0.002463   0.000032  -0.000024  -0.000817  -0.000219
     7  H    0.470049  -0.001644  -0.000067  -0.000310   0.000016   0.000009
     8  O   -0.001644   8.073073  -0.019900   0.227627  -0.000044  -0.000038
     9  O   -0.000067  -0.019900   8.030424   0.045675  -0.002005  -0.004069
    10  H   -0.000310   0.227627   0.045675   0.298439  -0.000055  -0.000036
    11  H    0.000016  -0.000044  -0.002005  -0.000055   0.480136  -0.023704
    12  C    0.000009  -0.000038  -0.004069  -0.000036  -0.023704   5.100071
    13  H    0.000000   0.000000   0.000138   0.000000  -0.004729   0.376495
    14  H    0.000000   0.000002   0.007536  -0.000018  -0.002961   0.375442
    15  H    0.000000  -0.000003   0.000045  -0.000007   0.004387   0.383205
    16  H   -0.000100   0.000002  -0.000039   0.000001  -0.001359  -0.000646
    17  C   -0.005879  -0.000033   0.000000   0.000003  -0.000150  -0.000123
    18  H    0.001373   0.000001   0.000000   0.000000  -0.000002   0.000009
    19  H    0.001364   0.000000   0.000000   0.000000   0.000015  -0.000001
    20  H    0.000068   0.000000   0.000000   0.000000  -0.000003  -0.000003
              13         14         15         16         17         18
     1  C   -0.002651   0.003882  -0.005065   0.356295  -0.054068   0.000878
     2  C   -0.030117  -0.027410  -0.036329  -0.034268   0.006093  -0.000153
     3  C    0.004405  -0.005628  -0.005758   0.002439  -0.000015   0.000012
     4  C   -0.000099   0.000548   0.000358  -0.000103   0.005535  -0.000069
     5  C   -0.000008  -0.000076   0.000060   0.005126  -0.057033  -0.003214
     6  C    0.000173  -0.000036   0.000607  -0.028846   0.363153  -0.024462
     7  H    0.000000   0.000000   0.000000  -0.000100  -0.005879   0.001373
     8  O    0.000000   0.000002  -0.000003   0.000002  -0.000033   0.000001
     9  O    0.000138   0.007536   0.000045  -0.000039   0.000000   0.000000
    10  H    0.000000  -0.000018  -0.000007   0.000001   0.000003   0.000000
    11  H   -0.004729  -0.002961   0.004387  -0.001359  -0.000150  -0.000002
    12  C    0.376495   0.375442   0.383205  -0.000646  -0.000123   0.000009
    13  H    0.501992  -0.020629  -0.026607   0.002689   0.000002   0.000000
    14  H   -0.020629   0.467075  -0.023124  -0.000074   0.000002   0.000000
    15  H   -0.026607  -0.023124   0.519746  -0.000314  -0.000026  -0.000001
    16  H    0.002689  -0.000074  -0.000314   0.473912  -0.006640   0.000124
    17  C    0.000002   0.000002  -0.000026  -0.006640   5.187846   0.366303
    18  H    0.000000   0.000000  -0.000001   0.000124   0.366303   0.479247
    19  H    0.000000   0.000000   0.000000   0.000145   0.365597  -0.022352
    20  H   -0.000001   0.000000   0.000000   0.005006   0.374303  -0.021497
              19         20
     1  C    0.000893  -0.002548
     2  C   -0.000199   0.000187
     3  C    0.000013   0.000001
     4  C   -0.000075  -0.000152
     5  C   -0.002961   0.003733
     6  C   -0.024179  -0.032362
     7  H    0.001364   0.000068
     8  O    0.000000   0.000000
     9  O    0.000000   0.000000
    10  H    0.000000   0.000000
    11  H    0.000015  -0.000003
    12  C   -0.000001  -0.000003
    13  H    0.000000  -0.000001
    14  H    0.000000   0.000000
    15  H    0.000000   0.000000
    16  H    0.000145   0.005006
    17  C    0.365597   0.374303
    18  H   -0.022352  -0.021497
    19  H    0.478711  -0.021365
    20  H   -0.021365   0.487753
          Atomic-Atomic Spin Densities.
               1          2          3          4          5          6
     1  C    0.464603  -0.031516  -0.002256  -0.004733  -0.013868   0.053862
     2  C   -0.031516  -0.012612   0.009474   0.002007   0.002291  -0.005728
     3  C   -0.002256   0.009474  -0.050587   0.005028   0.000163   0.000345
     4  C   -0.004733   0.002007   0.005028   0.185434   0.054257  -0.005855
     5  C   -0.013868   0.002291   0.000163   0.054257   0.155809  -0.050247
     6  C    0.053862  -0.005728   0.000345  -0.005855  -0.050247   0.032567
     7  H   -0.000054  -0.000017  -0.000050  -0.000695   0.000754   0.000363
     8  O    0.000066  -0.000083   0.000142  -0.052407  -0.006534   0.000234
     9  O    0.000263  -0.001202  -0.009283  -0.004102  -0.000223   0.000009
    10  H    0.000001  -0.000026   0.000454   0.000361  -0.000039  -0.000007
    11  H   -0.005720   0.006379  -0.000152   0.000425   0.000152  -0.000171
    12  C   -0.003963   0.006347   0.001224   0.000075   0.000053   0.000134
    13  H   -0.000033   0.000339  -0.000037  -0.000001   0.000001   0.000005
    14  H    0.000349  -0.000989  -0.000339  -0.000039  -0.000008   0.000003
    15  H    0.001141  -0.000741  -0.000373  -0.000070  -0.000052   0.000053
    16  H   -0.001010   0.000503  -0.000033  -0.000024   0.000004  -0.001129
    17  C   -0.003639   0.000039  -0.000010  -0.000013   0.001963   0.002007
    18  H   -0.000639   0.000010   0.000004   0.000028   0.001237  -0.001690
    19  H   -0.000689   0.000010  -0.000002   0.000064   0.001246  -0.001618
    20  H    0.000068   0.000003   0.000001  -0.000004  -0.000010   0.000168
               7          8          9         10         11         12
     1  C   -0.000054   0.000066   0.000263   0.000001  -0.005720  -0.003963
     2  C   -0.000017  -0.000083  -0.001202  -0.000026   0.006379   0.006347
     3  C   -0.000050   0.000142  -0.009283   0.000454  -0.000152   0.001224
     4  C   -0.000695  -0.052407  -0.004102   0.000361   0.000425   0.000075
     5  C    0.000754  -0.006534  -0.000223  -0.000039   0.000152   0.000053
     6  C    0.000363   0.000234   0.000009  -0.000007  -0.000171   0.000134
     7  H   -0.008070  -0.000033   0.000001   0.000005   0.000000   0.000000
     8  O   -0.000033   0.220337   0.001474  -0.001448  -0.000010  -0.000001
     9  O    0.000001   0.001474   0.121695  -0.000443  -0.000368  -0.000130
    10  H    0.000005  -0.001448  -0.000443  -0.004064   0.000000   0.000000
    11  H    0.000000  -0.000010  -0.000368   0.000000   0.011363  -0.001205
    12  C    0.000000  -0.000001  -0.000130   0.000000  -0.001205   0.006298
    13  H    0.000000   0.000000  -0.000001   0.000000  -0.000102   0.000103
    14  H    0.000000   0.000001   0.000310   0.000000   0.000518  -0.000712
    15  H    0.000000   0.000002   0.000085   0.000000   0.000048  -0.000239
    16  H    0.000003   0.000000   0.000001   0.000000  -0.000005   0.000190
    17  C    0.000186   0.000000   0.000000   0.000000   0.000000  -0.000001
    18  H   -0.000027  -0.000001   0.000000   0.000000  -0.000001   0.000000
    19  H   -0.000020  -0.000001   0.000000   0.000000   0.000003   0.000000
    20  H    0.000002   0.000000   0.000000   0.000000   0.000000   0.000000
              13         14         15         16         17         18
     1  C   -0.000033   0.000349   0.001141  -0.001010  -0.003639  -0.000639
     2  C    0.000339  -0.000989  -0.000741   0.000503   0.000039   0.000010
     3  C   -0.000037  -0.000339  -0.000373  -0.000033  -0.000010   0.000004
     4  C   -0.000001  -0.000039  -0.000070  -0.000024  -0.000013   0.000028
     5  C    0.000001  -0.000008  -0.000052   0.000004   0.001963   0.001237
     6  C    0.000005   0.000003   0.000053  -0.001129   0.002007  -0.001690
     7  H    0.000000   0.000000   0.000000   0.000003   0.000186  -0.000027
     8  O    0.000000   0.000001   0.000002   0.000000   0.000000  -0.000001
     9  O   -0.000001   0.000310   0.000085   0.000001   0.000000   0.000000
    10  H    0.000000   0.000000   0.000000   0.000000   0.000000   0.000000
    11  H   -0.000102   0.000518   0.000048  -0.000005   0.000000  -0.000001
    12  C    0.000103  -0.000712  -0.000239   0.000190  -0.000001   0.000000
    13  H   -0.000871  -0.000026  -0.000010  -0.000001   0.000000   0.000000
    14  H   -0.000026   0.003199   0.000476  -0.000004   0.000000   0.000000
    15  H   -0.000010   0.000476  -0.000380  -0.000010   0.000000  -0.000001
    16  H   -0.000001  -0.000004  -0.000010  -0.018388   0.000296   0.000005
    17  C    0.000000   0.000000   0.000000   0.000296  -0.007906   0.001243
    18  H    0.000000   0.000000  -0.000001   0.000005   0.001243   0.010155
    19  H    0.000000   0.000000   0.000000  -0.000019   0.001220  -0.002390
    20  H    0.000000   0.000000   0.000000  -0.000038   0.000162  -0.000029
              19         20
     1  C   -0.000689   0.000068
     2  C    0.000010   0.000003
     3  C   -0.000002   0.000001
     4  C    0.000064  -0.000004
     5  C    0.001246  -0.000010
     6  C   -0.001618   0.000168
     7  H   -0.000020   0.000002
     8  O   -0.000001   0.000000
     9  O    0.000000   0.000000
    10  H    0.000000   0.000000
    11  H    0.000003   0.000000
    12  C    0.000000   0.000000
    13  H    0.000000   0.000000
    14  H    0.000000   0.000000
    15  H    0.000000   0.000000
    16  H   -0.000019  -0.000038
    17  C    0.001220   0.000162
    18  H   -0.002390  -0.000029
    19  H    0.009930  -0.000017
    20  H   -0.000017  -0.000561
 Mulliken charges and spin densities:
               1          2
     1  C   -0.089169   0.452234
     2  C   -0.272918  -0.025513
     3  C    0.448000  -0.046287
     4  C    0.371678   0.179735
     5  C   -0.160131   0.146948
     6  C    0.188855   0.023303
     7  H    0.238961  -0.007652
     8  O   -0.522957   0.161737
     9  O   -0.417557   0.108085
    10  H    0.469869  -0.005205
    11  H    0.256379   0.011153
    12  C   -0.461112   0.008172
    13  H    0.198947  -0.000635
    14  H    0.225469   0.002739
    15  H    0.188825  -0.000070
    16  H    0.226651  -0.019659
    17  C   -0.544870  -0.004452
    18  H    0.223802   0.007905
    19  H    0.224397   0.007719
    20  H    0.206880  -0.000256
 Sum of Mulliken charges =   1.00000   1.00000
 Mulliken charges and spin densities with hydrogens summed into heavy atoms:
               1          2
     1  C    0.137482   0.432575
     2  C   -0.016538  -0.014360
     3  C    0.448000  -0.046287
     4  C    0.371678   0.179735
     5  C    0.078830   0.139296
     6  C    0.188855   0.023303
     8  O   -0.053088   0.156532
     9  O   -0.417557   0.108085
    12  C    0.152130   0.010206
    17  C    0.110209   0.010916
 Electronic spatial extent (au):  <R**2>=           1473.6301
 Charge=              1.0000 electrons
 Dipole moment (field-independent basis, Debye):
    X=              3.2901    Y=              0.6058    Z=             -0.3216  Tot=              3.3609
 Quadrupole moment (field-independent basis, Debye-Ang):
   XX=            -40.6519   YY=            -42.5626   ZZ=            -54.3348
   XY=              1.1482   XZ=             -0.2434   YZ=             -1.0224
 Traceless Quadrupole moment (field-independent basis, Debye-Ang):
   XX=              5.1978   YY=              3.2871   ZZ=             -8.4850
   XY=              1.1482   XZ=             -0.2434   YZ=             -1.0224
 Octapole moment (field-independent basis, Debye-Ang**2):
  XXX=             26.7453  YYY=              7.0416  ZZZ=             -0.7012  XYY=             -6.5568
  XXY=            -14.6162  XXZ=              2.5196  XZZ=             -5.0731  YZZ=             -0.9106
  YYZ=             -0.9841  XYZ=             -1.9399
 Hexadecapole moment (field-independent basis, Debye-Ang**3):
 XXXX=           -889.5020 YYYY=           -676.1391 ZZZZ=            -90.4498 XXXY=             32.8054
 XXXZ=             -3.8730 YYYX=             11.0224 YYYZ=             -3.3697 ZZZX=              4.3031
 ZZZY=             -3.5217 XXYY=           -233.6858 XXZZ=           -178.0925 YYZZ=           -134.8329
 XXYZ=             -3.0298 YYXZ=             -1.9081 ZZXY=             -0.1823
 N-N= 5.184436007741D+02 E-N=-2.095963715992D+03  KE= 4.568160637105D+02
                          Isotropic Fermi Contact Couplings
        Atom                 a.u.       MegaHertz       Gauss      10(-4) cm-1
     1  C(13)              0.04357      48.98291      17.47832      16.33894
     2  C(13)             -0.00903     -10.15548      -3.62373      -3.38750
     3  C(13)             -0.00910     -10.22616      -3.64895      -3.41108
     4  C(13)              0.01222      13.73879       4.90234       4.58277
     5  C(13)              0.01081      12.15531       4.33732       4.05458
     6  C(13)             -0.00505      -5.67232      -2.02403      -1.89208
     7  H(1)              -0.00275     -12.29907      -4.38862      -4.10253
     8  O(17)              0.03068     -18.59798      -6.63622      -6.20362
     9  O(17)              0.01247      -7.55840      -2.69702      -2.52121
    10  H(1)              -0.00262     -11.71055      -4.17861      -3.90622
    11  H(1)               0.00737      32.95723      11.75996      10.99335
    12  C(13)              0.00728       8.17913       2.91852       2.72826
    13  H(1)              -0.00021      -0.93643      -0.33414      -0.31236
    14  H(1)               0.00081       3.62313       1.29282       1.20855
    15  H(1)              -0.00015      -0.65973      -0.23541      -0.22006
    16  H(1)              -0.00697     -31.17189     -11.12291     -10.39782
    17  C(13)             -0.00259      -2.91338      -1.03957      -0.97180
    18  H(1)               0.00337      15.05864       5.37330       5.02302
    19  H(1)               0.00328      14.67304       5.23570       4.89440
    20  H(1)              -0.00015      -0.65201      -0.23265      -0.21749
 --------------------------------------------------------
       Center         ----  Spin Dipole Couplings  ----
                      3XX-RR        3YY-RR        3ZZ-RR
 --------------------------------------------------------
     1   Atom       -0.238965     -0.219785      0.458749
     2   Atom        0.000432     -0.006282      0.005849
     3   Atom        0.031816      0.014394     -0.046211
     4   Atom       -0.106438     -0.110036      0.216474
     5   Atom       -0.083050     -0.083078      0.166129
     6   Atom       -0.044548     -0.026635      0.071183
     7   Atom        0.000560      0.004754     -0.005314
     8   Atom       -0.343086     -0.334398      0.677484
     9   Atom       -0.198809     -0.175363      0.374172
    10   Atom        0.028083     -0.015179     -0.012904
    11   Atom        0.003363     -0.001903     -0.001460
    12   Atom        0.002366      0.003011     -0.005376
    13   Atom       -0.001147      0.004631     -0.003484
    14   Atom        0.001799      0.000901     -0.002700
    15   Atom        0.000291     -0.000677      0.000386
    16   Atom       -0.015628      0.021337     -0.005710
    17   Atom        0.003112     -0.004807      0.001695
    18   Atom        0.003050     -0.001537     -0.001513
    19   Atom        0.003626     -0.000686     -0.002939
    20   Atom        0.007501     -0.003609     -0.003891
 --------------------------------------------------------
                        XY            XZ            YZ
 --------------------------------------------------------
     1   Atom       -0.007651     -0.047725      0.108139
     2   Atom       -0.002318     -0.002190      0.001678
     3   Atom        0.000107      0.005371     -0.004681
     4   Atom        0.005369     -0.009625      0.043159
     5   Atom       -0.001589     -0.015687      0.039534
     6   Atom       -0.008559     -0.004193      0.013600
     7   Atom       -0.014316      0.002520     -0.002464
     8   Atom       -0.002862     -0.044316      0.147809
     9   Atom       -0.001207     -0.001061      0.123915
    10   Atom       -0.014558      0.003757     -0.000415
    11   Atom       -0.002856      0.004613     -0.004449
    12   Atom       -0.011561     -0.007508      0.007468
    13   Atom       -0.002896     -0.000401      0.000898
    14   Atom       -0.001707     -0.000248      0.000932
    15   Atom       -0.002687     -0.003038      0.003217
    16   Atom        0.027734     -0.005092     -0.002595
    17   Atom       -0.004001      0.000917      0.000699
    18   Atom       -0.002008      0.003001     -0.001754
    19   Atom       -0.002908     -0.001668      0.001090
    20   Atom        0.000437      0.000614     -0.000028
 --------------------------------------------------------


 ---------------------------------------------------------------------------------
              Anisotropic Spin Dipole Couplings in Principal Axis System
 ---------------------------------------------------------------------------------

       Atom             a.u.   MegaHertz   Gauss  10(-4) cm-1        Axes

              Baa    -0.2422   -32.505   -11.598   -10.842  0.9969  0.0499  0.0602
     1 C(13)  Bbb    -0.2366   -31.749   -11.329   -10.590 -0.0400  0.9869 -0.1562
              Bcc     0.4788    64.253    22.927    21.433 -0.0672  0.1533  0.9859
 
              Baa    -0.0071    -0.950    -0.339    -0.317  0.2731  0.9588 -0.0782
     2 C(13)  Bbb     0.0000     0.004     0.001     0.001  0.8901 -0.2210  0.3985
              Bcc     0.0071     0.946     0.338     0.316 -0.3648  0.1784  0.9138
 
              Baa    -0.0469    -6.298    -2.247    -2.101 -0.0680  0.0760  0.9948
     3 C(13)  Bbb     0.0147     1.979     0.706     0.660  0.0174  0.9970 -0.0750
              Bcc     0.0322     4.319     1.541     1.441  0.9975 -0.0122  0.0691
 
              Baa    -0.1191   -15.983    -5.703    -5.331 -0.4666  0.8754 -0.1260
     4 C(13)  Bbb    -0.1032   -13.850    -4.942    -4.620  0.8840  0.4660 -0.0363
              Bcc     0.2223    29.833    10.645     9.951 -0.0269  0.1283  0.9914
 
              Baa    -0.0893   -11.987    -4.277    -3.998 -0.1538  0.9750 -0.1603
     5 C(13)  Bbb    -0.0839   -11.257    -4.017    -3.755  0.9862  0.1615  0.0363
              Bcc     0.1732    23.244     8.294     7.753 -0.0613  0.1525  0.9864
 
              Baa    -0.0480    -6.440    -2.298    -2.148  0.9258  0.3778 -0.0105
     6 C(13)  Bbb    -0.0253    -3.393    -1.211    -1.132 -0.3752  0.9155 -0.1454
              Bcc     0.0733     9.833     3.509     3.280 -0.0453  0.1385  0.9893
 
              Baa    -0.0118    -6.310    -2.251    -2.105  0.7596  0.6486 -0.0486
     7 H(1)   Bbb    -0.0058    -3.114    -1.111    -1.039 -0.0618  0.1462  0.9873
              Bcc     0.0177     9.424     3.363     3.143 -0.6475  0.7469 -0.1511
 
              Baa    -0.3566    25.801     9.206     8.606 -0.2841  0.9474 -0.1476
     8 O(17)  Bbb    -0.3439    24.888     8.880     8.302  0.9579  0.2872  0.0000
              Bcc     0.7005   -50.688   -18.087   -16.908 -0.0424  0.1414  0.9890
 
              Baa    -0.2023    14.637     5.223     4.882  0.2662  0.9425 -0.2021
     9 O(17)  Bbb    -0.1985    14.367     5.126     4.792  0.9639 -0.2598  0.0580
              Bcc     0.4008   -29.003   -10.349    -9.674 -0.0022  0.2103  0.9776
 
              Baa    -0.0197   -10.509    -3.750    -3.505  0.2975  0.9488 -0.1065
    10 H(1)   Bbb    -0.0131    -7.006    -2.500    -2.337 -0.0459  0.1257  0.9910
              Bcc     0.0328    17.515     6.250     5.842  0.9536 -0.2899  0.0810
 
              Baa    -0.0063    -3.374    -1.204    -1.125 -0.1655  0.6444  0.7465
    11 H(1)   Bbb    -0.0021    -1.125    -0.401    -0.375  0.6652  0.6318 -0.3979
              Bcc     0.0084     4.499     1.605     1.501  0.7281 -0.4308  0.5333
 
              Baa    -0.0100    -1.345    -0.480    -0.449  0.3761 -0.1864  0.9076
    12 C(13)  Bbb    -0.0089    -1.188    -0.424    -0.396  0.6693  0.7321 -0.1270
              Bcc     0.0189     2.533     0.904     0.845 -0.6408  0.6552  0.4001
 
              Baa    -0.0036    -1.914    -0.683    -0.638  0.0596 -0.0876  0.9944
    13 H(1)   Bbb    -0.0023    -1.253    -0.447    -0.418  0.9224  0.3855 -0.0213
              Bcc     0.0059     3.167     1.130     1.056 -0.3815  0.9185  0.1038
 
              Baa    -0.0029    -1.565    -0.558    -0.522 -0.0407 -0.2531  0.9666
    14 H(1)   Bbb    -0.0003    -0.151    -0.054    -0.050  0.6342  0.7410  0.2207
              Bcc     0.0032     1.716     0.612     0.572  0.7721 -0.6220 -0.1304
 
              Baa    -0.0034    -1.821    -0.650    -0.607  0.0708  0.7884 -0.6111
    15 H(1)   Bbb    -0.0026    -1.379    -0.492    -0.460  0.8120  0.3102  0.4943
              Bcc     0.0060     3.200     1.142     1.067 -0.5793  0.5312  0.6182
 
              Baa    -0.0309   -16.488    -5.883    -5.500  0.8784 -0.4599  0.1302
    16 H(1)   Bbb    -0.0058    -3.096    -1.105    -1.033 -0.0630  0.1586  0.9853
              Bcc     0.0367    19.583     6.988     6.532  0.4738  0.8737 -0.1103
 
              Baa    -0.0066    -0.885    -0.316    -0.295  0.3879  0.9139 -0.1199
    17 C(13)  Bbb     0.0017     0.229     0.082     0.076 -0.1231  0.1804  0.9759
              Bcc     0.0049     0.656     0.234     0.219  0.9134 -0.3638  0.1825
 
              Baa    -0.0034    -1.833    -0.654    -0.611 -0.2153  0.5303  0.8200
    18 H(1)   Bbb    -0.0021    -1.097    -0.391    -0.366  0.5183  0.7737 -0.3643
              Bcc     0.0055     2.930     1.045     0.977  0.8276 -0.3466  0.4414
 
              Baa    -0.0034    -1.834    -0.654    -0.612  0.1242 -0.2491  0.9605
    19 H(1)   Bbb    -0.0021    -1.128    -0.402    -0.376  0.4829  0.8608  0.1608
              Bcc     0.0056     2.962     1.057     0.988  0.8668 -0.4438 -0.2272
 
              Baa    -0.0039    -2.098    -0.749    -0.700 -0.0591  0.1645  0.9846
    20 H(1)   Bbb    -0.0036    -1.930    -0.689    -0.644 -0.0296  0.9856 -0.1665
              Bcc     0.0076     4.029     1.438     1.344  0.9978  0.0390  0.0534
 

 ---------------------------------------------------------------------------------

 No NMR shielding tensors so no spin-rotation constants.
 Leave Link  601 at Wed Dec 03 16:59:14 2025, MaxMem=   104857600 cpu:               1.0 elap:               0.2
 (Enter D:\Gaussian\G16W\l9999.exe)
 1|1|UNPC-PC-20250526LCFF|SP|UB3LYP|6-31G(d)|C8H10O2(1+,2)|ADMINISTRATO
 R|03-Dec-2025|0||#P B3LYP/6-31G* SCF=conver=7 out=wfn||Generated by Mu
 ltiwfn (http://sobereva.com/multiwfn)||1,2|C,0,1.052157,1.140741,-0.26
 0316|C,0,-0.43803,1.279929,-0.380437|C,0,-1.216434,-0.008717,-0.180563
 |C,0,-0.465371,-1.259155,0.031188|C,0,0.885148,-1.258939,0.098941|C,0,
 1.667613,-0.035471,-0.043956|H,0,1.400409,-2.197941,0.273554|O,0,-1.22
 389,-2.363855,0.176368|O,0,-2.441702,-0.057016,-0.197449|H,0,-2.14271,
 -2.048218,0.093965|H,0,-0.660237,1.565713,-1.421577|C,0,-1.007475,2.39
 7709,0.521193|H,0,-0.562955,3.360948,0.261793|H,0,-2.088833,2.459411,0
 .395772|H,0,-0.788143,2.191577,1.571459|H,0,1.634459,2.05082,-0.368347
 |C,0,3.166027,-0.158942,0.062188|H,0,3.457566,-0.577376,1.031336|H,0,3
 .559227,-0.831199,-0.707862|H,0,3.654138,0.810301,-0.050877||Version=E
 M64W-G16RevA.03|State=2-A|HF=-461.0145985|S2=0.761884|S2-1=0.|S2A=0.75
 0064|RMSD=6.502e-008|Dipole=1.2944363,0.2383316,-0.1265351|Quadrupole=
 3.8644729,2.4439034,-6.3083763,0.8536901,-0.1809542,-0.7601534|PG=C01 
 [X(C8H10O2)]||@

 Writing a WFN file to "N-1.wfn"


 THE BEST WAY TO CONVINCE A FOOL THAT HE IS WRONG 
 IS TO LET HIM HAVE HIS OWN WAY.

                                         JOSH BILLINGS
 Job cpu time:       0 days  0 hours  0 minutes 39.0 seconds.
 Elapsed time:       0 days  0 hours  0 minutes 38.9 seconds.
 File lengths (MBytes):  RWF=     33 Int=      0 D2E=      0 Chk=      3 Scr=      1
 Normal termination of Gaussian 16 at Wed Dec 03 16:59:14 2025.
