 Entering Link 1 = D:\Gaussian\G16W\l1.exe PID=     42640.
  
 Copyright (c) 1988,1990,1992,1993,1995,1998,2003,2009,2016,
            Gaussian, Inc.  All Rights Reserved.
  
 This is part of the Gaussian(R) 16 program.  It is based on
 the Gaussian(R) 09 system (copyright 2009, Gaussian, Inc.),
 the Gaussian(R) 03 system (copyright 2003, Gaussian, Inc.),
 the Gaussian(R) 98 system (copyright 1998, Gaussian, Inc.),
 the Gaussian(R) 94 system (copyright 1995, Gaussian, Inc.),
 the Gaussian 92(TM) system (copyright 1992, Gaussian, Inc.),
 the Gaussian 90(TM) system (copyright 1990, Gaussian, Inc.),
 the Gaussian 88(TM) system (copyright 1988, Gaussian, Inc.),
 the Gaussian 86(TM) system (copyright 1986, Carnegie Mellon
 University), and the Gaussian 82(TM) system (copyright 1983,
 Carnegie Mellon University). Gaussian is a federally registered
 trademark of Gaussian, Inc.
  
 This software contains proprietary and confidential information,
 including trade secrets, belonging to Gaussian, Inc.
  
 This software is provided under written license and may be
 used, copied, transmitted, or stored only in accord with that
 written license.
  
 The following legend is applicable only to US Government
 contracts under FAR:
  
                    RESTRICTED RIGHTS LEGEND
  
 Use, reproduction and disclosure by the US Government is
 subject to restrictions as set forth in subparagraphs (a)
 and (c) of the Commercial Computer Software - Restricted
 Rights clause in FAR 52.227-19.
  
 Gaussian, Inc.
 340 Quinnipiac St., Bldg. 40, Wallingford CT 06492
  
  
 ---------------------------------------------------------------
 Warning -- This program may not be used in any manner that
 competes with the business of Gaussian, Inc. or will provide
 assistance to any competitor of Gaussian, Inc.  The licensee
 of this program is prohibited from giving any competitor of
 Gaussian, Inc. access to this program.  By using this program,
 the user acknowledges that Gaussian, Inc. is engaged in the
 business of creating and licensing software in the field of
 computational chemistry and represents and warrants to the
 licensee that it is not a competitor of Gaussian, Inc. and that
 it will not use this program in any manner prohibited above.
 ---------------------------------------------------------------
  

 Cite this work as:
 Gaussian 16, Revision A.03,
 M. J. Frisch, G. W. Trucks, H. B. Schlegel, G. E. Scuseria, 
 M. A. Robb, J. R. Cheeseman, G. Scalmani, V. Barone, 
 G. A. Petersson, H. Nakatsuji, X. Li, M. Caricato, A. V. Marenich, 
 J. Bloino, B. G. Janesko, R. Gomperts, B. Mennucci, H. P. Hratchian, 
 J. V. Ortiz, A. F. Izmaylov, J. L. Sonnenberg, D. Williams-Young, 
 F. Ding, F. Lipparini, F. Egidi, J. Goings, B. Peng, A. Petrone, 
 T. Henderson, D. Ranasinghe, V. G. Zakrzewski, J. Gao, N. Rega, 
 G. Zheng, W. Liang, M. Hada, M. Ehara, K. Toyota, R. Fukuda, 
 J. Hasegawa, M. Ishida, T. Nakajima, Y. Honda, O. Kitao, H. Nakai, 
 T. Vreven, K. Throssell, J. A. Montgomery, Jr., J. E. Peralta, 
 F. Ogliaro, M. J. Bearpark, J. J. Heyd, E. N. Brothers, K. N. Kudin, 
 V. N. Staroverov, T. A. Keith, R. Kobayashi, J. Normand, 
 K. Raghavachari, A. P. Rendell, J. C. Burant, S. S. Iyengar, 
 J. Tomasi, M. Cossi, J. M. Millam, M. Klene, C. Adamo, R. Cammi, 
 J. W. Ochterski, R. L. Martin, K. Morokuma, O. Farkas, 
 J. B. Foresman, and D. J. Fox, Gaussian, Inc., Wallingford CT, 2016.
 
 ******************************************
 Gaussian 16:  EM64W-G16RevA.03 17-Dec-2016
                03-Dec-2025 
 ******************************************
 %nprocs=   4
 Will use up to    4 processors via shared memory.
 ------------------------------------
 #P B3LYP/6-31G* SCF=conver=7 out=wfn
 ------------------------------------
 1/38=1,172=1/1;
 2/12=2,17=6,18=5,40=1/2;
 3/5=1,6=6,7=1,11=2,25=1,30=1,74=-5/1,2,3;
 4//1;
 5/5=2,6=7,38=5/2;
 6/7=2,8=2,9=2,10=2,28=1/1;
 99/5=1,6=100,9=1/99;
 Leave Link    1 at Wed Dec 03 16:57:15 2025, MaxMem=           0 cpu:               0.0 elap:               0.1
 (Enter D:\Gaussian\G16W\l101.exe)
 ----------------------------------------------------
 Generated by Multiwfn (http://sobereva.com/multiwfn)
 ----------------------------------------------------
 Symbolic Z-matrix:
 Charge =  0 Multiplicity = 1
 C                     1.05216   1.14074  -0.26032 
 C                    -0.43803   1.27993  -0.38044 
 C                    -1.21643  -0.00872  -0.18056 
 C                    -0.46537  -1.25916   0.03119 
 C                     0.88515  -1.25894   0.09894 
 C                     1.66761  -0.03547  -0.04396 
 H                     1.40041  -2.19794   0.27355 
 O                    -1.22389  -2.36386   0.17637 
 O                    -2.4417   -0.05702  -0.19745 
 H                    -2.14271  -2.04822   0.09397 
 H                    -0.66024   1.56571  -1.42158 
 C                    -1.00747   2.39771   0.52119 
 H                    -0.56296   3.36095   0.26179 
 H                    -2.08883   2.45941   0.39577 
 H                    -0.78814   2.19158   1.57146 
 H                     1.63446   2.05082  -0.36835 
 C                     3.16603  -0.15894   0.06219 
 H                     3.45757  -0.57738   1.03134 
 H                     3.55923  -0.8312   -0.70786 
 H                     3.65414   0.8103   -0.05088 
 
 ITRead=  0  0  0  0  0  0  0  0  0  0  0  0  0  0  0  0  0  0  0  0
 MicOpt= -1 -1 -1 -1 -1 -1 -1 -1 -1 -1 -1 -1 -1 -1 -1 -1 -1 -1 -1 -1
 NAtoms=     20 NQM=       20 NQMF=       0 NMMI=      0 NMMIF=      0
                NMic=       0 NMicF=      0.
                    Isotopes and Nuclear Properties:
 (Nuclear quadrupole moments (NQMom) in fm**2, nuclear magnetic moments (NMagM)
  in nuclear magnetons)

  Atom         1           2           3           4           5           6           7           8           9          10
 IAtWgt=          12          12          12          12          12          12           1          16          16           1
 AtmWgt=  12.0000000  12.0000000  12.0000000  12.0000000  12.0000000  12.0000000   1.0078250  15.9949146  15.9949146   1.0078250
 NucSpn=           0           0           0           0           0           0           1           0           0           1
 AtZEff=   0.0000000   0.0000000   0.0000000   0.0000000   0.0000000   0.0000000   0.0000000   0.0000000   0.0000000   0.0000000
 NQMom=    0.0000000   0.0000000   0.0000000   0.0000000   0.0000000   0.0000000   0.0000000   0.0000000   0.0000000   0.0000000
 NMagM=    0.0000000   0.0000000   0.0000000   0.0000000   0.0000000   0.0000000   2.7928460   0.0000000   0.0000000   2.7928460
 AtZNuc=   6.0000000   6.0000000   6.0000000   6.0000000   6.0000000   6.0000000   1.0000000   8.0000000   8.0000000   1.0000000

  Atom        11          12          13          14          15          16          17          18          19          20
 IAtWgt=           1          12           1           1           1           1          12           1           1           1
 AtmWgt=   1.0078250  12.0000000   1.0078250   1.0078250   1.0078250   1.0078250  12.0000000   1.0078250   1.0078250   1.0078250
 NucSpn=           1           0           1           1           1           1           0           1           1           1
 AtZEff=   0.0000000   0.0000000   0.0000000   0.0000000   0.0000000   0.0000000   0.0000000   0.0000000   0.0000000   0.0000000
 NQMom=    0.0000000   0.0000000   0.0000000   0.0000000   0.0000000   0.0000000   0.0000000   0.0000000   0.0000000   0.0000000
 NMagM=    2.7928460   0.0000000   2.7928460   2.7928460   2.7928460   2.7928460   0.0000000   2.7928460   2.7928460   2.7928460
 AtZNuc=   1.0000000   6.0000000   1.0000000   1.0000000   1.0000000   1.0000000   6.0000000   1.0000000   1.0000000   1.0000000
 Leave Link  101 at Wed Dec 03 16:57:15 2025, MaxMem=   104857600 cpu:               0.0 elap:               0.1
 (Enter D:\Gaussian\G16W\l202.exe)
                          Input orientation:                          
 ---------------------------------------------------------------------
 Center     Atomic      Atomic             Coordinates (Angstroms)
 Number     Number       Type             X           Y           Z
 ---------------------------------------------------------------------
      1          6           0        1.052157    1.140741   -0.260316
      2          6           0       -0.438030    1.279929   -0.380437
      3          6           0       -1.216434   -0.008717   -0.180563
      4          6           0       -0.465371   -1.259155    0.031188
      5          6           0        0.885148   -1.258939    0.098941
      6          6           0        1.667613   -0.035471   -0.043956
      7          1           0        1.400409   -2.197941    0.273554
      8          8           0       -1.223890   -2.363855    0.176368
      9          8           0       -2.441702   -0.057016   -0.197449
     10          1           0       -2.142710   -2.048218    0.093965
     11          1           0       -0.660237    1.565713   -1.421577
     12          6           0       -1.007475    2.397709    0.521193
     13          1           0       -0.562955    3.360948    0.261793
     14          1           0       -2.088833    2.459411    0.395772
     15          1           0       -0.788143    2.191577    1.571459
     16          1           0        1.634459    2.050820   -0.368347
     17          6           0        3.166027   -0.158942    0.062188
     18          1           0        3.457566   -0.577376    1.031336
     19          1           0        3.559227   -0.831199   -0.707862
     20          1           0        3.654138    0.810301   -0.050877
 ---------------------------------------------------------------------
                    Distance matrix (angstroms):
                    1          2          3          4          5
     1  C    0.000000
     2  C    1.501486   0.000000
     3  C    2.544429   1.518707   0.000000
     4  C    2.854359   2.572378   1.473950   0.000000
     5  C    2.432164   2.902836   2.461265   1.352217   0.000000
     6  C    1.345018   2.505440   2.887404   2.460217   1.459296
     7  H    3.398984   3.987874   3.441917   2.102664   1.085223
     8  O    4.201580   3.768922   2.382043   1.347884   2.382200
     9  O    3.693998   2.415700   1.226336   2.324499   3.549704
    10  H    4.527930   3.769291   2.256749   1.854731   3.129043
    11  H    2.112208   1.102280   2.080457   3.182511   3.560737
    12  C    2.536298   1.544874   2.515355   3.729160   4.139009
    13  H    2.794728   2.181446   3.460832   4.626884   4.844262
    14  H    3.469173   2.172287   2.680466   4.073854   4.770618
    15  H    2.801135   2.182563   2.845050   3.792647   4.107831
    16  H    1.085813   2.211251   3.522009   3.940158   3.425541
    17  C    2.502325   3.905828   4.391749   3.794533   2.532539
    18  H    3.225877   4.540744   4.861928   4.105430   2.819791
    19  H    3.220907   4.532343   4.874573   4.114211   2.825702
    20  H    2.631228   4.132191   4.940656   4.610828   3.459986
                    6          7          8          9         10
     6  C    0.000000
     7  H    2.201928   0.000000
     8  O    3.718965   2.631334   0.000000
     9  O    4.112237   4.423485   2.635206   0.000000
    10  H    4.311465   3.550825   0.975011   2.034503   0.000000
    11  H    3.143329   4.613548   4.279327   2.702842   4.189880
    12  C    3.660035   5.194153   4.778936   2.932427   4.608422
    13  H    4.074872   5.895438   5.763463   3.927222   5.637630
    14  H    4.530859   5.820711   4.905116   2.609374   4.518043
    15  H    3.687824   5.073676   4.784152   3.304461   4.689744
    16  H    2.111620   4.303346   5.287365   4.592087   5.593107
    17  C    1.507235   2.705476   4.913863   5.614662   5.634986
    18  H    2.157277   2.726235   5.083159   6.048310   5.865589
    19  H    2.156886   2.737089   5.099912   6.072152   5.885248
    20  H    2.159088   3.772807   5.824265   6.158976   6.464948
                   11         12         13         14         15
    11  H    0.000000
    12  C    2.141763   0.000000
    13  H    2.462939   1.092115   0.000000
    14  H    2.478374   1.090354   1.777364   0.000000
    15  H    3.060446   1.092545   1.770131   1.773632   0.000000
    16  H    2.571041   2.809169   2.634794   3.822791   3.106712
    17  C    4.451549   4.915818   5.131742   5.880528   4.841312
    18  H    5.250325   5.389617   5.680421   6.355199   5.097537
    19  H    4.904942   5.726359   5.958751   6.629231   5.764729
    20  H    4.589477   4.957597   4.938364   5.991726   4.926841
                   16         17         18         19         20
    16  H    0.000000
    17  C    2.722886   0.000000
    18  H    3.491453   1.095139   0.000000
    19  H    3.482246   1.095223   1.760560   0.000000
    20  H    2.391397   1.091086   1.770727   1.770638   0.000000
 Stoichiometry    C8H10O2
 Framework group  C1[X(C8H10O2)]
 Deg. of freedom    54
 Full point group                 C1      NOp   1
 Largest Abelian subgroup         C1      NOp   1
 Largest concise Abelian subgroup C1      NOp   1
                         Standard orientation:                         
 ---------------------------------------------------------------------
 Center     Atomic      Atomic             Coordinates (Angstroms)
 Number     Number       Type             X           Y           Z
 ---------------------------------------------------------------------
      1          6           0        1.052157    1.140741   -0.260316
      2          6           0       -0.438030    1.279929   -0.380437
      3          6           0       -1.216434   -0.008717   -0.180563
      4          6           0       -0.465371   -1.259155    0.031188
      5          6           0        0.885148   -1.258939    0.098941
      6          6           0        1.667613   -0.035471   -0.043956
      7          1           0        1.400409   -2.197941    0.273554
      8          8           0       -1.223890   -2.363855    0.176368
      9          8           0       -2.441702   -0.057016   -0.197449
     10          1           0       -2.142710   -2.048218    0.093965
     11          1           0       -0.660237    1.565713   -1.421577
     12          6           0       -1.007475    2.397709    0.521193
     13          1           0       -0.562955    3.360948    0.261793
     14          1           0       -2.088833    2.459411    0.395772
     15          1           0       -0.788143    2.191577    1.571459
     16          1           0        1.634459    2.050820   -0.368347
     17          6           0        3.166027   -0.158941    0.062188
     18          1           0        3.457566   -0.577375    1.031336
     19          1           0        3.559227   -0.831198   -0.707862
     20          1           0        3.654138    0.810302   -0.050877
 ---------------------------------------------------------------------
 Rotational constants (GHZ):           1.7719256           1.2700848           0.7715539
 Leave Link  202 at Wed Dec 03 16:57:15 2025, MaxMem=   104857600 cpu:               0.0 elap:               0.1
 (Enter D:\Gaussian\G16W\l301.exe)
 Standard basis: 6-31G(d) (6D, 7F)
 Ernie: Thresh=  0.10000D-02 Tol=  0.10000D-05 Strict=F.
 There are   170 symmetry adapted cartesian basis functions of A   symmetry.
 There are   170 symmetry adapted basis functions of A   symmetry.
   170 basis functions,   320 primitive gaussians,   170 cartesian basis functions
    37 alpha electrons       37 beta electrons
       nuclear repulsion energy       518.4436007741 Hartrees.
 IExCor=  402 DFT=T Ex+Corr=B3LYP ExCW=0 ScaHFX=  0.200000
 ScaDFX=  0.800000  0.720000  1.000000  0.810000 ScalE2=  1.000000  1.000000
 IRadAn=      5 IRanWt=     -1 IRanGd=            0 ICorTp=0 IEmpDi=  4
 NAtoms=   20 NActive=   20 NUniq=   20 SFac= 1.00D+00 NAtFMM=   60 NAOKFM=F Big=F
 Integral buffers will be    131072 words long.
 Raffenetti 2 integral format.
 Two-electron integral symmetry is turned on.
 Leave Link  301 at Wed Dec 03 16:57:15 2025, MaxMem=   104857600 cpu:               0.0 elap:               0.1
 (Enter D:\Gaussian\G16W\l302.exe)
 NPDir=0 NMtPBC=     1 NCelOv=     1 NCel=       1 NClECP=     1 NCelD=      1
         NCelK=      1 NCelE2=     1 NClLst=     1 CellRange=     0.0.
 One-electron integrals computed using PRISM.
 One-electron integral symmetry used in STVInt
 NBasis=   170 RedAO= T EigKep=  5.43D-04  NBF=   170
 NBsUse=   170 1.00D-06 EigRej= -1.00D+00 NBFU=   170
 Precomputing XC quadrature grid using
 IXCGrd= 4 IRadAn=           5 IRanWt=          -1 IRanGd=           0 AccXCQ= 0.00D+00.
 Generated NRdTot=       0 NPtTot=           0 NUsed=           0 NTot=          32
 NSgBfM=   170   170   170   170   170 MxSgAt=    20 MxSgA2=    20.
 Leave Link  302 at Wed Dec 03 16:57:16 2025, MaxMem=   104857600 cpu:               1.0 elap:               0.4
 (Enter D:\Gaussian\G16W\l303.exe)
 DipDrv:  MaxL=1.
 Leave Link  303 at Wed Dec 03 16:57:16 2025, MaxMem=   104857600 cpu:               0.0 elap:               0.1
 (Enter D:\Gaussian\G16W\l401.exe)
 ExpMin= 1.61D-01 ExpMax= 5.48D+03 ExpMxC= 8.25D+02 IAcc=3 IRadAn=         5 AccDes= 0.00D+00
 Harris functional with IExCor=  402 and IRadAn=       5 diagonalized for initial guess.
 HarFok:  IExCor=  402 AccDes= 0.00D+00 IRadAn=         5 IDoV= 1 UseB2=F ITyADJ=14
 ICtDFT=  3500011 ScaDFX=  1.000000  1.000000  1.000000  1.000000
 FoFCou: FMM=F IPFlag=           0 FMFlag=      100000 FMFlg1=           0
         NFxFlg=           0 DoJE=T BraDBF=F KetDBF=T FulRan=T
         wScrn=  0.000000 ICntrl=       500 IOpCl=  0 I1Cent=   200000004 NGrid=           0
         NMat0=    1 NMatS0=      1 NMatT0=    0 NMatD0=    1 NMtDS0=    0 NMtDT0=    0
 Petite list used in FoFCou.
 Harris En= -461.340573658319    
 JPrj=0 DoOrth=F DoCkMO=F.
 Leave Link  401 at Wed Dec 03 16:57:17 2025, MaxMem=   104857600 cpu:               1.0 elap:               1.2
 (Enter D:\Gaussian\G16W\l502.exe)
 Integral symmetry usage will be decided dynamically.
 Closed shell SCF:
 Using DIIS extrapolation, IDIIS=  1040.
 NGot=   104857600 LenX=   104796738 LenY=   104767397
 Requested convergence on RMS density matrix=1.00D-07 within 128 cycles.
 Requested convergence on MAX density matrix=1.00D-05.
 Requested convergence on             energy=1.00D-05.
 No special actions if energy rises.
 Fock matrices will be formed incrementally for  20 cycles.
 Integral accuracy reduced to 1.0D-05 until final iterations.

 Cycle   1  Pass 0  IDiag  1:
 FoFJK:  IHMeth= 1 ICntrl=       0 DoSepK=F KAlg= 0 I1Cent=           0 FoldK=F
 IRaf= 940000000 NMat=       1 IRICut=       1 DoRegI=T DoRafI=F ISym2E= 0 IDoP0=0 IntGTp=1.
 FoFCou: FMM=F IPFlag=           0 FMFlag=      100000 FMFlg1=           0
         NFxFlg=           0 DoJE=F BraDBF=F KetDBF=F FulRan=T
         wScrn=  0.000000 ICntrl=         0 IOpCl=  0 I1Cent=           0 NGrid=           0
         NMat0=    1 NMatS0=      1 NMatT0=    0 NMatD0=    1 NMtDS0=    0 NMtDT0=    0
 Symmetry not used in FoFCou.
 E= -461.024722002607    
 DIIS: error= 2.89D-02 at cycle   1 NSaved=   1.
 NSaved= 1 IEnMin= 1 EnMin= -461.024722002607     IErMin= 1 ErrMin= 2.89D-02
 ErrMax= 2.89D-02  0.00D+00 EMaxC= 1.00D-01 BMatC= 2.88D-01 BMatP= 2.88D-01
 IDIUse=3 WtCom= 7.11D-01 WtEn= 2.89D-01
 Coeff-Com:  0.100D+01
 Coeff-En:   0.100D+01
 Coeff:      0.100D+01
 Gap=     0.116 Goal=   None    Shift=    0.000
 GapD=    0.116 DampG=1.000 DampE=0.500 DampFc=0.5000 IDamp=-1.
 Damping current iteration by 5.00D-01
 RMSDP=6.78D-03 MaxDP=1.51D-01              OVMax= 1.98D-01

 Cycle   2  Pass 0  IDiag  1:
 RMSU=  3.35D-03    CP:  9.80D-01
 E= -461.135695451577     Delta-E=       -0.110973448970 Rises=F Damp=T
 DIIS: error= 7.54D-03 at cycle   2 NSaved=   2.
 NSaved= 2 IEnMin= 2 EnMin= -461.135695451577     IErMin= 2 ErrMin= 7.54D-03
 ErrMax= 7.54D-03  0.00D+00 EMaxC= 1.00D-01 BMatC= 2.55D-02 BMatP= 2.88D-01
 IDIUse=3 WtCom= 9.25D-01 WtEn= 7.54D-02
 Coeff-Com:  0.128D+00 0.872D+00
 Coeff-En:   0.191D+00 0.809D+00
 Coeff:      0.133D+00 0.867D+00
 Gap=     0.141 Goal=   None    Shift=    0.000
 RMSDP=1.88D-03 MaxDP=4.82D-02 DE=-1.11D-01 OVMax= 1.68D-01

 Cycle   3  Pass 0  IDiag  1:
 RMSU=  1.79D-03    CP:  9.72D-01  8.40D-01
 E= -461.277565698616     Delta-E=       -0.141870247039 Rises=F Damp=F
 DIIS: error= 1.09D-02 at cycle   3 NSaved=   3.
 NSaved= 3 IEnMin= 3 EnMin= -461.277565698616     IErMin= 2 ErrMin= 7.54D-03
 ErrMax= 1.09D-02  0.00D+00 EMaxC= 1.00D-01 BMatC= 2.59D-02 BMatP= 2.55D-02
 IDIUse=3 WtCom= 8.91D-01 WtEn= 1.09D-01
 Coeff-Com:  0.213D-01 0.500D+00 0.479D+00
 Coeff-En:   0.000D+00 0.000D+00 0.100D+01
 Coeff:      0.190D-01 0.445D+00 0.535D+00
 Gap=     0.145 Goal=   None    Shift=    0.000
 RMSDP=1.27D-03 MaxDP=4.45D-02 DE=-1.42D-01 OVMax= 5.97D-02

 Cycle   4  Pass 0  IDiag  1:
 RMSU=  8.93D-04    CP:  9.75D-01  8.90D-01  5.07D-01
 E= -461.294838233835     Delta-E=       -0.017272535219 Rises=F Damp=F
 DIIS: error= 5.78D-03 at cycle   4 NSaved=   4.
 NSaved= 4 IEnMin= 4 EnMin= -461.294838233835     IErMin= 4 ErrMin= 5.78D-03
 ErrMax= 5.78D-03  0.00D+00 EMaxC= 1.00D-01 BMatC= 6.81D-03 BMatP= 2.55D-02
 IDIUse=3 WtCom= 9.42D-01 WtEn= 5.78D-02
 Coeff-Com:  0.315D-02 0.904D-01 0.344D+00 0.563D+00
 Coeff-En:   0.000D+00 0.000D+00 0.233D+00 0.767D+00
 Coeff:      0.297D-02 0.852D-01 0.337D+00 0.575D+00
 Gap=     0.142 Goal=   None    Shift=    0.000
 RMSDP=5.34D-04 MaxDP=2.20D-02 DE=-1.73D-02 OVMax= 2.74D-02

 Cycle   5  Pass 0  IDiag  1:
 RMSU=  2.82D-04    CP:  9.74D-01  8.72D-01  6.27D-01  5.60D-01
 E= -461.299758792392     Delta-E=       -0.004920558557 Rises=F Damp=F
 DIIS: error= 1.48D-03 at cycle   5 NSaved=   5.
 NSaved= 5 IEnMin= 5 EnMin= -461.299758792392     IErMin= 5 ErrMin= 1.48D-03
 ErrMax= 1.48D-03  0.00D+00 EMaxC= 1.00D-01 BMatC= 6.45D-04 BMatP= 6.81D-03
 IDIUse=3 WtCom= 9.85D-01 WtEn= 1.48D-02
 Coeff-Com:  0.964D-03 0.189D-01 0.182D+00 0.374D+00 0.424D+00
 Coeff-En:   0.000D+00 0.000D+00 0.000D+00 0.255D-01 0.974D+00
 Coeff:      0.950D-03 0.186D-01 0.180D+00 0.369D+00 0.432D+00
 Gap=     0.145 Goal=   None    Shift=    0.000
 RMSDP=1.98D-04 MaxDP=6.13D-03 DE=-4.92D-03 OVMax= 1.82D-02

 Cycle   6  Pass 0  IDiag  1:
 RMSU=  7.65D-05    CP:  9.74D-01  8.70D-01  6.46D-01  6.11D-01  3.87D-01
 E= -461.300349635990     Delta-E=       -0.000590843598 Rises=F Damp=F
 DIIS: error= 3.40D-04 at cycle   6 NSaved=   6.
 NSaved= 6 IEnMin= 6 EnMin= -461.300349635990     IErMin= 6 ErrMin= 3.40D-04
 ErrMax= 3.40D-04  0.00D+00 EMaxC= 1.00D-01 BMatC= 4.45D-05 BMatP= 6.45D-04
 IDIUse=3 WtCom= 9.97D-01 WtEn= 3.40D-03
 Coeff-Com:  0.618D-03 0.546D-03 0.691D-01 0.155D+00 0.256D+00 0.518D+00
 Coeff-En:   0.000D+00 0.000D+00 0.000D+00 0.000D+00 0.269D-01 0.973D+00
 Coeff:      0.616D-03 0.544D-03 0.688D-01 0.155D+00 0.256D+00 0.520D+00
 Gap=     0.145 Goal=   None    Shift=    0.000
 RMSDP=5.00D-05 MaxDP=1.98D-03 DE=-5.91D-04 OVMax= 4.99D-03

 Cycle   7  Pass 0  IDiag  1:
 RMSU=  3.03D-05    CP:  9.74D-01  8.72D-01  6.44D-01  6.04D-01  4.76D-01
                    CP:  6.13D-01
 E= -461.300389606302     Delta-E=       -0.000039970312 Rises=F Damp=F
 DIIS: error= 1.74D-04 at cycle   7 NSaved=   7.
 NSaved= 7 IEnMin= 7 EnMin= -461.300389606302     IErMin= 7 ErrMin= 1.74D-04
 ErrMax= 1.74D-04  0.00D+00 EMaxC= 1.00D-01 BMatC= 5.87D-06 BMatP= 4.45D-05
 IDIUse=3 WtCom= 9.98D-01 WtEn= 1.74D-03
 Coeff-Com:  0.272D-03-0.164D-02 0.215D-01 0.517D-01 0.109D+00 0.330D+00
 Coeff-Com:  0.488D+00
 Coeff-En:   0.000D+00 0.000D+00 0.000D+00 0.000D+00 0.000D+00 0.940D-01
 Coeff-En:   0.906D+00
 Coeff:      0.272D-03-0.163D-02 0.215D-01 0.516D-01 0.109D+00 0.330D+00
 Coeff:      0.489D+00
 Gap=     0.145 Goal=   None    Shift=    0.000
 RMSDP=1.63D-05 MaxDP=4.91D-04 DE=-4.00D-05 OVMax= 1.03D-03

 Cycle   8  Pass 0  IDiag  1:
 RMSU=  6.70D-06    CP:  9.74D-01  8.71D-01  6.45D-01  6.10D-01  4.69D-01
                    CP:  6.52D-01  5.76D-01
 E= -461.300394984476     Delta-E=       -0.000005378174 Rises=F Damp=F
 DIIS: error= 2.04D-05 at cycle   8 NSaved=   8.
 NSaved= 8 IEnMin= 8 EnMin= -461.300394984476     IErMin= 8 ErrMin= 2.04D-05
 ErrMax= 2.04D-05  0.00D+00 EMaxC= 1.00D-01 BMatC= 2.10D-07 BMatP= 5.87D-06
 IDIUse=1 WtCom= 1.00D+00 WtEn= 0.00D+00
 Coeff-Com:  0.137D-03-0.929D-03 0.650D-02 0.159D-01 0.395D-01 0.136D+00
 Coeff-Com:  0.239D+00 0.564D+00
 Coeff:      0.137D-03-0.929D-03 0.650D-02 0.159D-01 0.395D-01 0.136D+00
 Coeff:      0.239D+00 0.564D+00
 Gap=     0.145 Goal=   None    Shift=    0.000
 RMSDP=3.10D-06 MaxDP=9.14D-05 DE=-5.38D-06 OVMax= 1.65D-04

 Initial convergence to 1.0D-05 achieved.  Increase integral accuracy.
 Cycle   9  Pass 1  IDiag  1:
 E= -461.300406308623     Delta-E=       -0.000011324146 Rises=F Damp=F
 DIIS: error= 7.55D-06 at cycle   1 NSaved=   1.
 NSaved= 1 IEnMin= 1 EnMin= -461.300406308623     IErMin= 1 ErrMin= 7.55D-06
 ErrMax= 7.55D-06  0.00D+00 EMaxC= 1.00D-01 BMatC= 3.64D-08 BMatP= 3.64D-08
 IDIUse=1 WtCom= 1.00D+00 WtEn= 0.00D+00
 Coeff-Com:  0.100D+01
 Coeff:      0.100D+01
 Gap=     0.145 Goal=   None    Shift=    0.000
 RMSDP=3.10D-06 MaxDP=9.14D-05 DE=-1.13D-05 OVMax= 1.38D-04

 Cycle  10  Pass 1  IDiag  1:
 RMSU=  4.78D-06    CP:  1.00D+00
 E= -461.300406280088     Delta-E=        0.000000028535 Rises=F Damp=F
 DIIS: error= 1.39D-05 at cycle   2 NSaved=   2.
 NSaved= 2 IEnMin= 1 EnMin= -461.300406308623     IErMin= 1 ErrMin= 7.55D-06
 ErrMax= 1.39D-05  0.00D+00 EMaxC= 1.00D-01 BMatC= 6.40D-08 BMatP= 3.64D-08
 IDIUse=1 WtCom= 1.00D+00 WtEn= 0.00D+00
 Coeff-Com:  0.581D+00 0.419D+00
 Coeff:      0.581D+00 0.419D+00
 Gap=     0.145 Goal=   None    Shift=    0.000
 RMSDP=1.67D-06 MaxDP=6.17D-05 DE= 2.85D-08 OVMax= 1.11D-04

 Cycle  11  Pass 1  IDiag  1:
 RMSU=  1.51D-06    CP:  1.00D+00  8.52D-01
 E= -461.300406336447     Delta-E=       -0.000000056359 Rises=F Damp=F
 DIIS: error= 3.34D-06 at cycle   3 NSaved=   3.
 NSaved= 3 IEnMin= 3 EnMin= -461.300406336447     IErMin= 3 ErrMin= 3.34D-06
 ErrMax= 3.34D-06  0.00D+00 EMaxC= 1.00D-01 BMatC= 4.14D-09 BMatP= 3.64D-08
 IDIUse=1 WtCom= 1.00D+00 WtEn= 0.00D+00
 Coeff-Com:  0.945D-01 0.209D+00 0.696D+00
 Coeff:      0.945D-01 0.209D+00 0.696D+00
 Gap=     0.145 Goal=   None    Shift=    0.000
 RMSDP=5.19D-07 MaxDP=1.40D-05 DE=-5.64D-08 OVMax= 3.03D-05

 Cycle  12  Pass 1  IDiag  1:
 RMSU=  3.53D-07    CP:  1.00D+00  8.86D-01  7.72D-01
 E= -461.300406339728     Delta-E=       -0.000000003281 Rises=F Damp=F
 DIIS: error= 1.40D-06 at cycle   4 NSaved=   4.
 NSaved= 4 IEnMin= 4 EnMin= -461.300406339728     IErMin= 4 ErrMin= 1.40D-06
 ErrMax= 1.40D-06  0.00D+00 EMaxC= 1.00D-01 BMatC= 8.82D-10 BMatP= 4.14D-09
 IDIUse=1 WtCom= 1.00D+00 WtEn= 0.00D+00
 Coeff-Com: -0.271D-02 0.814D-01 0.419D+00 0.502D+00
 Coeff:     -0.271D-02 0.814D-01 0.419D+00 0.502D+00
 Gap=     0.145 Goal=   None    Shift=    0.000
 RMSDP=1.81D-07 MaxDP=5.06D-06 DE=-3.28D-09 OVMax= 8.34D-06

 Cycle  13  Pass 1  IDiag  1:
 RMSU=  5.70D-08    CP:  1.00D+00  8.87D-01  8.15D-01  5.51D-01
 E= -461.300406340539     Delta-E=       -0.000000000811 Rises=F Damp=F
 DIIS: error= 2.51D-07 at cycle   5 NSaved=   5.
 NSaved= 5 IEnMin= 5 EnMin= -461.300406340539     IErMin= 5 ErrMin= 2.51D-07
 ErrMax= 2.51D-07  0.00D+00 EMaxC= 1.00D-01 BMatC= 1.58D-11 BMatP= 8.82D-10
 IDIUse=1 WtCom= 1.00D+00 WtEn= 0.00D+00
 Coeff-Com: -0.316D-02 0.393D-01 0.209D+00 0.271D+00 0.483D+00
 Coeff:     -0.316D-02 0.393D-01 0.209D+00 0.271D+00 0.483D+00
 Gap=     0.145 Goal=   None    Shift=    0.000
 RMSDP=2.86D-08 MaxDP=8.09D-07 DE=-8.11D-10 OVMax= 9.99D-07

 SCF Done:  E(RB3LYP) =  -461.300406341     A.U. after   13 cycles
            NFock= 13  Conv=0.29D-07     -V/T= 2.0091
 KE= 4.571254569172D+02 PE=-2.110900943888D+03 EE= 6.740314798566D+02
 Leave Link  502 at Wed Dec 03 16:57:33 2025, MaxMem=   104857600 cpu:              16.0 elap:              15.5
 (Enter D:\Gaussian\G16W\l601.exe)
 Copying SCF densities to generalized density rwf, IOpCl= 0 IROHF=0.

 **********************************************************************

            Population analysis using the SCF density.

 **********************************************************************

 Orbital symmetries:
       Occupied  (A) (A) (A) (A) (A) (A) (A) (A) (A) (A) (A) (A)
                 (A) (A) (A) (A) (A) (A) (A) (A) (A) (A) (A) (A)
                 (A) (A) (A) (A) (A) (A) (A) (A) (A) (A) (A) (A)
                 (A)
       Virtual   (A) (A) (A) (A) (A) (A) (A) (A) (A) (A) (A) (A)
                 (A) (A) (A) (A) (A) (A) (A) (A) (A) (A) (A) (A)
                 (A) (A) (A) (A) (A) (A) (A) (A) (A) (A) (A) (A)
                 (A) (A) (A) (A) (A) (A) (A) (A) (A) (A) (A) (A)
                 (A) (A) (A) (A) (A) (A) (A) (A) (A) (A) (A) (A)
                 (A) (A) (A) (A) (A) (A) (A) (A) (A) (A) (A) (A)
                 (A) (A) (A) (A) (A) (A) (A) (A) (A) (A) (A) (A)
                 (A) (A) (A) (A) (A) (A) (A) (A) (A) (A) (A) (A)
                 (A) (A) (A) (A) (A) (A) (A) (A) (A) (A) (A) (A)
                 (A) (A) (A) (A) (A) (A) (A) (A) (A) (A) (A) (A)
                 (A) (A) (A) (A) (A) (A) (A) (A) (A) (A) (A) (A)
                 (A)
 The electronic state is 1-A.
 Alpha  occ. eigenvalues --  -19.17544 -19.14661 -10.27753 -10.25069 -10.21126
 Alpha  occ. eigenvalues --  -10.20536 -10.19936 -10.19067 -10.18875 -10.18849
 Alpha  occ. eigenvalues --   -1.07504  -1.03353  -0.85245  -0.78601  -0.75579
 Alpha  occ. eigenvalues --   -0.69278  -0.66468  -0.60893  -0.59521  -0.53121
 Alpha  occ. eigenvalues --   -0.49821  -0.47927  -0.47183  -0.43721  -0.42616
 Alpha  occ. eigenvalues --   -0.41897  -0.41057  -0.40781  -0.39630  -0.37816
 Alpha  occ. eigenvalues --   -0.37445  -0.36645  -0.35177  -0.33913  -0.29242
 Alpha  occ. eigenvalues --   -0.26302  -0.21058
 Alpha virt. eigenvalues --   -0.06604   0.02135   0.08803   0.09924   0.11038
 Alpha virt. eigenvalues --    0.12178   0.14053   0.14203   0.14718   0.16461
 Alpha virt. eigenvalues --    0.17895   0.18309   0.19112   0.22149   0.22519
 Alpha virt. eigenvalues --    0.23307   0.25585   0.30148   0.31438   0.33896
 Alpha virt. eigenvalues --    0.38444   0.45591   0.47396   0.49927   0.50816
 Alpha virt. eigenvalues --    0.52073   0.54217   0.56655   0.56953   0.58016
 Alpha virt. eigenvalues --    0.59335   0.60801   0.63242   0.64865   0.66074
 Alpha virt. eigenvalues --    0.67679   0.68571   0.71852   0.73274   0.74723
 Alpha virt. eigenvalues --    0.75330   0.76092   0.78542   0.79424   0.81311
 Alpha virt. eigenvalues --    0.85786   0.87084   0.87746   0.88396   0.89799
 Alpha virt. eigenvalues --    0.91455   0.93063   0.94916   0.95247   0.95953
 Alpha virt. eigenvalues --    0.96691   0.98701   0.99939   1.05521   1.05990
 Alpha virt. eigenvalues --    1.08852   1.12260   1.15659   1.16207   1.20464
 Alpha virt. eigenvalues --    1.24689   1.25544   1.30405   1.31217   1.38347
 Alpha virt. eigenvalues --    1.40257   1.41692   1.42282   1.47048   1.55856
 Alpha virt. eigenvalues --    1.61394   1.65827   1.68495   1.71119   1.73764
 Alpha virt. eigenvalues --    1.74951   1.78330   1.80405   1.82513   1.85917
 Alpha virt. eigenvalues --    1.86756   1.89762   1.91146   1.91473   1.93161
 Alpha virt. eigenvalues --    1.97572   1.98078   2.00096   2.01015   2.06268
 Alpha virt. eigenvalues --    2.10705   2.14109   2.15256   2.17606   2.23550
 Alpha virt. eigenvalues --    2.27079   2.31040   2.32759   2.33276   2.34288
 Alpha virt. eigenvalues --    2.36548   2.39055   2.44225   2.45437   2.51426
 Alpha virt. eigenvalues --    2.52997   2.58436   2.62563   2.66662   2.69688
 Alpha virt. eigenvalues --    2.74837   2.78477   2.82041   2.89909   2.93234
 Alpha virt. eigenvalues --    3.00904   3.21562   3.30518   3.87081   4.07504
 Alpha virt. eigenvalues --    4.13121   4.18519   4.19810   4.26543   4.30757
 Alpha virt. eigenvalues --    4.52150   4.55908   4.94734
          Condensed to atoms (all electrons):
               1          2          3          4          5          6
     1  C    5.110740   0.283069  -0.028221  -0.023517  -0.037756   0.662089
     2  C    0.283069   5.281363   0.299165  -0.071300  -0.033155  -0.009836
     3  C   -0.028221   0.299165   4.653794   0.349366  -0.041634  -0.015045
     4  C   -0.023517  -0.071300   0.349366   4.737083   0.528037  -0.013062
     5  C   -0.037756  -0.033155  -0.041634   0.528037   5.154120   0.422430
     6  C    0.662089  -0.009836  -0.015045  -0.013062   0.422430   4.559486
     7  H    0.006655  -0.000678   0.006122  -0.031988   0.340954  -0.048767
     8  O   -0.000019   0.004009  -0.052697   0.312230  -0.058239   0.002721
     9  O    0.003700  -0.077868   0.482972  -0.067308   0.005879   0.000140
    10  H   -0.000210   0.002790  -0.013451  -0.049376   0.007430   0.000027
    11  H   -0.034306   0.350276  -0.026775   0.002250   0.000765  -0.002385
    12  C   -0.034376   0.333624  -0.023429   0.001930   0.000546  -0.001472
    13  H   -0.003109  -0.030431   0.004266  -0.000082  -0.000015   0.000152
    14  H    0.004632  -0.030998  -0.007067   0.000546  -0.000115   0.000034
    15  H   -0.002748  -0.036144  -0.005278   0.000322   0.000084   0.000745
    16  H    0.348890  -0.048370   0.002800   0.000038   0.006433  -0.028357
    17  C   -0.056469   0.008027  -0.000176   0.006993  -0.068537   0.363415
    18  H   -0.000328  -0.000152   0.000025  -0.000092  -0.000855  -0.028672
    19  H   -0.000394  -0.000246   0.000020  -0.000033  -0.000433  -0.028176
    20  H   -0.002642   0.000073   0.000002  -0.000139   0.003713  -0.029835
               7          8          9         10         11         12
     1  C    0.006655  -0.000019   0.003700  -0.000210  -0.034306  -0.034376
     2  C   -0.000678   0.004009  -0.077868   0.002790   0.350276   0.333624
     3  C    0.006122  -0.052697   0.482972  -0.013451  -0.026775  -0.023429
     4  C   -0.031988   0.312230  -0.067308  -0.049376   0.002250   0.001930
     5  C    0.340954  -0.058239   0.005879   0.007430   0.000765   0.000546
     6  C   -0.048767   0.002721   0.000140   0.000027  -0.002385  -0.001472
     7  H    0.590394  -0.001692  -0.000090  -0.000497   0.000026   0.000014
     8  O   -0.001692   8.222973  -0.021232   0.231065  -0.000062  -0.000046
     9  O   -0.000090  -0.021232   8.133665   0.050002  -0.001879  -0.004735
    10  H   -0.000497   0.231065   0.050002   0.349586  -0.000071  -0.000040
    11  H    0.000026  -0.000062  -0.001879  -0.000071   0.561535  -0.032792
    12  C    0.000014  -0.000046  -0.004735  -0.000040  -0.032792   5.089538
    13  H    0.000000   0.000000   0.000137   0.000001  -0.005049   0.371740
    14  H    0.000000   0.000004   0.010951  -0.000032  -0.001869   0.367872
    15  H    0.000002  -0.000002   0.000291  -0.000008   0.005185   0.378933
    16  H   -0.000164   0.000002  -0.000054   0.000001  -0.000929  -0.001249
    17  C   -0.008757  -0.000042   0.000000   0.000005  -0.000205  -0.000154
    18  H    0.002045  -0.000001   0.000000   0.000000  -0.000004   0.000010
    19  H    0.002069  -0.000001   0.000000   0.000000   0.000024  -0.000001
    20  H    0.000049   0.000000   0.000000   0.000000  -0.000006  -0.000003
              13         14         15         16         17         18
     1  C   -0.003109   0.004632  -0.002748   0.348890  -0.056469  -0.000328
     2  C   -0.030431  -0.030998  -0.036144  -0.048370   0.008027  -0.000152
     3  C    0.004266  -0.007067  -0.005278   0.002800  -0.000176   0.000025
     4  C   -0.000082   0.000546   0.000322   0.000038   0.006993  -0.000092
     5  C   -0.000015  -0.000115   0.000084   0.006433  -0.068537  -0.000855
     6  C    0.000152   0.000034   0.000745  -0.028357   0.363415  -0.028672
     7  H    0.000000   0.000000   0.000002  -0.000164  -0.008757   0.002045
     8  O    0.000000   0.000004  -0.000002   0.000002  -0.000042  -0.000001
     9  O    0.000137   0.010951   0.000291  -0.000054   0.000000   0.000000
    10  H    0.000001  -0.000032  -0.000008   0.000001   0.000005   0.000000
    11  H   -0.005049  -0.001869   0.005185  -0.000929  -0.000205  -0.000004
    12  C    0.371740   0.367872   0.378933  -0.001249  -0.000154   0.000010
    13  H    0.567999  -0.027947  -0.030746   0.003195   0.000001   0.000000
    14  H   -0.027947   0.532058  -0.026007  -0.000148   0.000003   0.000000
    15  H   -0.030746  -0.026007   0.556026  -0.000134  -0.000030  -0.000003
    16  H    0.003195  -0.000148  -0.000134   0.597699  -0.012173   0.000201
    17  C    0.000001   0.000003  -0.000030  -0.012173   5.205936   0.362741
    18  H    0.000000   0.000000  -0.000003   0.000201   0.362741   0.564835
    19  H    0.000000   0.000000   0.000001   0.000191   0.361445  -0.035453
    20  H    0.000000   0.000000  -0.000001   0.006975   0.366366  -0.026973
              19         20
     1  C   -0.000394  -0.002642
     2  C   -0.000246   0.000073
     3  C    0.000020   0.000002
     4  C   -0.000033  -0.000139
     5  C   -0.000433   0.003713
     6  C   -0.028176  -0.029835
     7  H    0.002069   0.000049
     8  O   -0.000001   0.000000
     9  O    0.000000   0.000000
    10  H    0.000000   0.000000
    11  H    0.000024  -0.000006
    12  C   -0.000001  -0.000003
    13  H    0.000000   0.000000
    14  H    0.000000   0.000000
    15  H    0.000001  -0.000001
    16  H    0.000191   0.006975
    17  C    0.361445   0.366366
    18  H   -0.035453  -0.026973
    19  H    0.565309  -0.026940
    20  H   -0.026940   0.551968
 Mulliken charges:
               1
     1  C   -0.195681
     2  C   -0.223217
     3  C    0.415241
     4  C    0.318102
     5  C   -0.229652
     6  C    0.194369
     7  H    0.144302
     8  O   -0.638970
     9  O   -0.514571
    10  H    0.422780
    11  H    0.186270
    12  C   -0.445910
    13  H    0.149888
    14  H    0.178084
    15  H    0.159514
    16  H    0.125153
    17  C   -0.528388
    18  H    0.162675
    19  H    0.162618
    20  H    0.157393
 Sum of Mulliken charges =   0.00000
 Mulliken charges with hydrogens summed into heavy atoms:
               1
     1  C   -0.070528
     2  C   -0.036947
     3  C    0.415241
     4  C    0.318102
     5  C   -0.085349
     6  C    0.194369
     8  O   -0.216190
     9  O   -0.514571
    12  C    0.041576
    17  C   -0.045702
 Electronic spatial extent (au):  <R**2>=           1503.1488
 Charge=              0.0000 electrons
 Dipole moment (field-independent basis, Debye):
    X=              2.1534    Y=              1.4224    Z=             -0.1684  Tot=              2.5862
 Quadrupole moment (field-independent basis, Debye-Ang):
   XX=            -59.9291   YY=            -58.3885   ZZ=            -58.9354
   XY=             -0.3683   XZ=             -0.1188   YZ=             -0.4162
 Traceless Quadrupole moment (field-independent basis, Debye-Ang):
   XX=             -0.8447   YY=              0.6958   ZZ=              0.1489
   XY=             -0.3683   XZ=             -0.1188   YZ=             -0.4162
 Octapole moment (field-independent basis, Debye-Ang**2):
  XXX=              5.7419  YYY=              8.1250  ZZZ=             -0.2528  XYY=             -3.1922
  XXY=            -11.9152  XXZ=              2.5656  XZZ=             -7.0383  YZZ=             -1.7687
  YYZ=             -2.5199  XYZ=             -1.0468
 Hexadecapole moment (field-independent basis, Debye-Ang**3):
 XXXX=          -1082.5734 YYYY=           -790.9777 ZZZZ=           -100.8492 XXXY=             35.8895
 XXXZ=             -6.0524 YYYX=              5.7707 YYYZ=             -3.7936 ZZZX=              4.0038
 ZZZY=             -2.1281 XXYY=           -277.0554 XXZZ=           -194.4541 YYZZ=           -147.9315
 XXYZ=             -2.0118 YYXZ=              1.6935 ZZXY=              1.0596
 N-N= 5.184436007741D+02 E-N=-2.110900915615D+03  KE= 4.571254569172D+02
 No NMR shielding tensors so no spin-rotation constants.
 Leave Link  601 at Wed Dec 03 16:57:33 2025, MaxMem=   104857600 cpu:               0.0 elap:               0.2
 (Enter D:\Gaussian\G16W\l9999.exe)
 1|1|UNPC-PC-20250526LCFF|SP|RB3LYP|6-31G(d)|C8H10O2|ADMINISTRATOR|03-D
 ec-2025|0||#P B3LYP/6-31G* SCF=conver=7 out=wfn||Generated by Multiwfn
  (http://sobereva.com/multiwfn)||0,1|C,0,1.052157,1.140741,-0.260316|C
 ,0,-0.43803,1.279929,-0.380437|C,0,-1.216434,-0.008717,-0.180563|C,0,-
 0.465371,-1.259155,0.031188|C,0,0.885148,-1.258939,0.098941|C,0,1.6676
 13,-0.035471,-0.043956|H,0,1.400409,-2.197941,0.273554|O,0,-1.22389,-2
 .363855,0.176368|O,0,-2.441702,-0.057016,-0.197449|H,0,-2.14271,-2.048
 218,0.093965|H,0,-0.660237,1.565713,-1.421577|C,0,-1.007475,2.397709,0
 .521193|H,0,-0.562955,3.360948,0.261793|H,0,-2.088833,2.459411,0.39577
 2|H,0,-0.788143,2.191577,1.571459|H,0,1.634459,2.05082,-0.368347|C,0,3
 .166027,-0.158942,0.062188|H,0,3.457566,-0.577376,1.031336|H,0,3.55922
 7,-0.831199,-0.707862|H,0,3.654138,0.810301,-0.050877||Version=EM64W-G
 16RevA.03|State=1-A|HF=-461.3004063|RMSD=2.861e-008|Dipole=0.8471958,0
 .559615,-0.0662672|Quadrupole=-0.6280282,0.5173121,0.1107161,-0.273831
 8,-0.0883244,-0.3093997|PG=C01 [X(C8H10O2)]||@

 Writing a WFN file to "N.wfn"


 WE STILL HAVE JUDGEMENT HERE,
 THAT WE TEACH BUT BLOODY INSTRUCTIONS,
 WHICH, BEING TAUGHT,
 RETURN TO PLAGUE THE INVENTOR.
           MACBETH ACT I, SCENE VII
 Job cpu time:       0 days  0 hours  0 minutes 18.0 seconds.
 Elapsed time:       0 days  0 hours  0 minutes 17.7 seconds.
 File lengths (MBytes):  RWF=     19 Int=      0 D2E=      0 Chk=      3 Scr=      1
 Normal termination of Gaussian 16 at Wed Dec 03 16:57:33 2025.
