 Generated by Multiwfn (http://sobereva.com/multiwfn)
GAUSSIAN             37 MOL ORBITALS    320 PRIMITIVES       20 NUCLEI
  C    1    (CENTRE  1)   1.98828836  2.15568843 -0.49192584  CHARGE =  6.0
  C    2    (CENTRE  2)  -0.82775698  2.41871519 -0.71892164  CHARGE =  6.0
  C    3    (CENTRE  3)  -2.29872698 -0.01647305 -0.34121452  CHARGE =  6.0
  C    4    (CENTRE  4)  -0.87942324 -2.37945818  0.05893688  CHARGE =  6.0
  C    5    (CENTRE  5)   1.67268780 -2.37904961  0.18697149  CHARGE =  6.0
  C    6    (CENTRE  6)   3.15133199 -0.06702994 -0.08306470  CHARGE =  6.0
  H    7    (CENTRE  7)   2.64639024 -4.15350607  0.51694224  CHARGE =  1.0
  O    8    (CENTRE  8)  -2.31281609 -4.46703886  0.33328732  CHARGE =  8.0
  O    9    (CENTRE  9)  -4.61414791 -0.10774529 -0.37312443  CHARGE =  8.0
  H   10    (CENTRE 10)  -4.04913434 -3.87057164  0.17756822  CHARGE =  1.0
  H   11    (CENTRE 11)  -1.24766744  2.95876862 -2.68639109  CHARGE =  1.0
  C   12    (CENTRE 12)  -1.90385240  4.53101309  0.98491213  CHARGE =  6.0
  H   13    (CENTRE 13)  -1.06383163  6.35127113  0.49471717  CHARGE =  1.0
  H   14    (CENTRE 14)  -3.94732288  4.64761266  0.74790079  CHARGE =  1.0
  H   15    (CENTRE 15)  -1.48937493  4.14148013  2.96962723  CHARGE =  1.0
  H   16    (CENTRE 16)   3.08867940  3.87548866 -0.69607485  CHARGE =  1.0
  C   17    (CENTRE 17)   5.98292411 -0.30035587  0.11751839  CHARGE =  6.0
  H   18    (CENTRE 18)   6.53385309 -1.09108145  1.94894268  CHARGE =  1.0
  H   19    (CENTRE 19)   6.72596462 -1.57073737 -1.33766521  CHARGE =  1.0
  H   20    (CENTRE 20)   6.90531993  1.53124809 -0.09614349  CHARGE =  1.0
CENTRE ASSIGNMENTS    1  1  1  1  1  1  1  1  1  1  1  1  1  1  1  1  1  1  1  1
CENTRE ASSIGNMENTS    1  1  1  1  1  1  1  1  2  2  2  2  2  2  2  2  2  2  2  2
CENTRE ASSIGNMENTS    2  2  2  2  2  2  2  2  2  2  2  2  2  2  2  2  3  3  3  3
CENTRE ASSIGNMENTS    3  3  3  3  3  3  3  3  3  3  3  3  3  3  3  3  3  3  3  3
CENTRE ASSIGNMENTS    3  3  3  3  4  4  4  4  4  4  4  4  4  4  4  4  4  4  4  4
CENTRE ASSIGNMENTS    4  4  4  4  4  4  4  4  4  4  4  4  5  5  5  5  5  5  5  5
CENTRE ASSIGNMENTS    5  5  5  5  5  5  5  5  5  5  5  5  5  5  5  5  5  5  5  5
CENTRE ASSIGNMENTS    6  6  6  6  6  6  6  6  6  6  6  6  6  6  6  6  6  6  6  6
CENTRE ASSIGNMENTS    6  6  6  6  6  6  6  6  7  7  7  7  8  8  8  8  8  8  8  8
CENTRE ASSIGNMENTS    8  8  8  8  8  8  8  8  8  8  8  8  8  8  8  8  8  8  8  8
CENTRE ASSIGNMENTS    9  9  9  9  9  9  9  9  9  9  9  9  9  9  9  9  9  9  9  9
CENTRE ASSIGNMENTS    9  9  9  9  9  9  9  9 10 10 10 10 11 11 11 11 12 12 12 12
CENTRE ASSIGNMENTS   12 12 12 12 12 12 12 12 12 12 12 12 12 12 12 12 12 12 12 12
CENTRE ASSIGNMENTS   12 12 12 12 13 13 13 13 14 14 14 14 15 15 15 15 16 16 16 16
CENTRE ASSIGNMENTS   17 17 17 17 17 17 17 17 17 17 17 17 17 17 17 17 17 17 17 17
CENTRE ASSIGNMENTS   17 17 17 17 17 17 17 17 18 18 18 18 19 19 19 19 20 20 20 20
TYPE ASSIGNMENTS      1  1  1  1  1  1  1  1  1  2  2  2  3  3  3  4  4  4  1  2
TYPE ASSIGNMENTS      3  4  5  6  7  8  9 10  1  1  1  1  1  1  1  1  1  2  2  2
TYPE ASSIGNMENTS      3  3  3  4  4  4  1  2  3  4  5  6  7  8  9 10  1  1  1  1
TYPE ASSIGNMENTS      1  1  1  1  1  2  2  2  3  3  3  4  4  4  1  2  3  4  5  6
TYPE ASSIGNMENTS      7  8  9 10  1  1  1  1  1  1  1  1  1  2  2  2  3  3  3  4
TYPE ASSIGNMENTS      4  4  1  2  3  4  5  6  7  8  9 10  1  1  1  1  1  1  1  1
TYPE ASSIGNMENTS      1  2  2  2  3  3  3  4  4  4  1  2  3  4  5  6  7  8  9 10
TYPE ASSIGNMENTS      1  1  1  1  1  1  1  1  1  2  2  2  3  3  3  4  4  4  1  2
TYPE ASSIGNMENTS      3  4  5  6  7  8  9 10  1  1  1  1  1  1  1  1  1  1  1  1
TYPE ASSIGNMENTS      1  2  2  2  3  3  3  4  4  4  1  2  3  4  5  6  7  8  9 10
TYPE ASSIGNMENTS      1  1  1  1  1  1  1  1  1  2  2  2  3  3  3  4  4  4  1  2
TYPE ASSIGNMENTS      3  4  5  6  7  8  9 10  1  1  1  1  1  1  1  1  1  1  1  1
TYPE ASSIGNMENTS      1  1  1  1  1  2  2  2  3  3  3  4  4  4  1  2  3  4  5  6
TYPE ASSIGNMENTS      7  8  9 10  1  1  1  1  1  1  1  1  1  1  1  1  1  1  1  1
TYPE ASSIGNMENTS      1  1  1  1  1  1  1  1  1  2  2  2  3  3  3  4  4  4  1  2
TYPE ASSIGNMENTS      3  4  5  6  7  8  9 10  1  1  1  1  1  1  1  1  1  1  1  1
EXPONENTS  0.3047525D+04 0.4573695D+03 0.1039487D+03 0.2921016D+02 0.9286663D+01
EXPONENTS  0.3163927D+01 0.7868272D+01 0.1881289D+01 0.5442493D+00 0.7868272D+01
EXPONENTS  0.1881289D+01 0.5442493D+00 0.7868272D+01 0.1881289D+01 0.5442493D+00
EXPONENTS  0.7868272D+01 0.1881289D+01 0.5442493D+00 0.1687145D+00 0.1687145D+00
EXPONENTS  0.1687145D+00 0.1687145D+00 0.8000000D+00 0.8000000D+00 0.8000000D+00
EXPONENTS  0.8000000D+00 0.8000000D+00 0.8000000D+00 0.3047525D+04 0.4573695D+03
EXPONENTS  0.1039487D+03 0.2921016D+02 0.9286663D+01 0.3163927D+01 0.7868272D+01
EXPONENTS  0.1881289D+01 0.5442493D+00 0.7868272D+01 0.1881289D+01 0.5442493D+00
EXPONENTS  0.7868272D+01 0.1881289D+01 0.5442493D+00 0.7868272D+01 0.1881289D+01
EXPONENTS  0.5442493D+00 0.1687145D+00 0.1687145D+00 0.1687145D+00 0.1687145D+00
EXPONENTS  0.8000000D+00 0.8000000D+00 0.8000000D+00 0.8000000D+00 0.8000000D+00
EXPONENTS  0.8000000D+00 0.3047525D+04 0.4573695D+03 0.1039487D+03 0.2921016D+02
EXPONENTS  0.9286663D+01 0.3163927D+01 0.7868272D+01 0.1881289D+01 0.5442493D+00
EXPONENTS  0.7868272D+01 0.1881289D+01 0.5442493D+00 0.7868272D+01 0.1881289D+01
EXPONENTS  0.5442493D+00 0.7868272D+01 0.1881289D+01 0.5442493D+00 0.1687145D+00
EXPONENTS  0.1687145D+00 0.1687145D+00 0.1687145D+00 0.8000000D+00 0.8000000D+00
EXPONENTS  0.8000000D+00 0.8000000D+00 0.8000000D+00 0.8000000D+00 0.3047525D+04
EXPONENTS  0.4573695D+03 0.1039487D+03 0.2921016D+02 0.9286663D+01 0.3163927D+01
EXPONENTS  0.7868272D+01 0.1881289D+01 0.5442493D+00 0.7868272D+01 0.1881289D+01
EXPONENTS  0.5442493D+00 0.7868272D+01 0.1881289D+01 0.5442493D+00 0.7868272D+01
EXPONENTS  0.1881289D+01 0.5442493D+00 0.1687145D+00 0.1687145D+00 0.1687145D+00
EXPONENTS  0.1687145D+00 0.8000000D+00 0.8000000D+00 0.8000000D+00 0.8000000D+00
EXPONENTS  0.8000000D+00 0.8000000D+00 0.3047525D+04 0.4573695D+03 0.1039487D+03
EXPONENTS  0.2921016D+02 0.9286663D+01 0.3163927D+01 0.7868272D+01 0.1881289D+01
EXPONENTS  0.5442493D+00 0.7868272D+01 0.1881289D+01 0.5442493D+00 0.7868272D+01
EXPONENTS  0.1881289D+01 0.5442493D+00 0.7868272D+01 0.1881289D+01 0.5442493D+00
EXPONENTS  0.1687145D+00 0.1687145D+00 0.1687145D+00 0.1687145D+00 0.8000000D+00
EXPONENTS  0.8000000D+00 0.8000000D+00 0.8000000D+00 0.8000000D+00 0.8000000D+00
EXPONENTS  0.3047525D+04 0.4573695D+03 0.1039487D+03 0.2921016D+02 0.9286663D+01
EXPONENTS  0.3163927D+01 0.7868272D+01 0.1881289D+01 0.5442493D+00 0.7868272D+01
EXPONENTS  0.1881289D+01 0.5442493D+00 0.7868272D+01 0.1881289D+01 0.5442493D+00
EXPONENTS  0.7868272D+01 0.1881289D+01 0.5442493D+00 0.1687145D+00 0.1687145D+00
EXPONENTS  0.1687145D+00 0.1687145D+00 0.8000000D+00 0.8000000D+00 0.8000000D+00
EXPONENTS  0.8000000D+00 0.8000000D+00 0.8000000D+00 0.1873114D+02 0.2825394D+01
EXPONENTS  0.6401217D+00 0.1612778D+00 0.5484672D+04 0.8252349D+03 0.1880470D+03
EXPONENTS  0.5296450D+02 0.1689757D+02 0.5799635D+01 0.1553962D+02 0.3599934D+01
EXPONENTS  0.1013762D+01 0.1553962D+02 0.3599934D+01 0.1013762D+01 0.1553962D+02
EXPONENTS  0.3599934D+01 0.1013762D+01 0.1553962D+02 0.3599934D+01 0.1013762D+01
EXPONENTS  0.2700058D+00 0.2700058D+00 0.2700058D+00 0.2700058D+00 0.8000000D+00
EXPONENTS  0.8000000D+00 0.8000000D+00 0.8000000D+00 0.8000000D+00 0.8000000D+00
EXPONENTS  0.5484672D+04 0.8252349D+03 0.1880470D+03 0.5296450D+02 0.1689757D+02
EXPONENTS  0.5799635D+01 0.1553962D+02 0.3599934D+01 0.1013762D+01 0.1553962D+02
EXPONENTS  0.3599934D+01 0.1013762D+01 0.1553962D+02 0.3599934D+01 0.1013762D+01
EXPONENTS  0.1553962D+02 0.3599934D+01 0.1013762D+01 0.2700058D+00 0.2700058D+00
EXPONENTS  0.2700058D+00 0.2700058D+00 0.8000000D+00 0.8000000D+00 0.8000000D+00
EXPONENTS  0.8000000D+00 0.8000000D+00 0.8000000D+00 0.1873114D+02 0.2825394D+01
EXPONENTS  0.6401217D+00 0.1612778D+00 0.1873114D+02 0.2825394D+01 0.6401217D+00
EXPONENTS  0.1612778D+00 0.3047525D+04 0.4573695D+03 0.1039487D+03 0.2921016D+02
EXPONENTS  0.9286663D+01 0.3163927D+01 0.7868272D+01 0.1881289D+01 0.5442493D+00
EXPONENTS  0.7868272D+01 0.1881289D+01 0.5442493D+00 0.7868272D+01 0.1881289D+01
EXPONENTS  0.5442493D+00 0.7868272D+01 0.1881289D+01 0.5442493D+00 0.1687145D+00
EXPONENTS  0.1687145D+00 0.1687145D+00 0.1687145D+00 0.8000000D+00 0.8000000D+00
EXPONENTS  0.8000000D+00 0.8000000D+00 0.8000000D+00 0.8000000D+00 0.1873114D+02
EXPONENTS  0.2825394D+01 0.6401217D+00 0.1612778D+00 0.1873114D+02 0.2825394D+01
EXPONENTS  0.6401217D+00 0.1612778D+00 0.1873114D+02 0.2825394D+01 0.6401217D+00
EXPONENTS  0.1612778D+00 0.1873114D+02 0.2825394D+01 0.6401217D+00 0.1612778D+00
EXPONENTS  0.3047525D+04 0.4573695D+03 0.1039487D+03 0.2921016D+02 0.9286663D+01
EXPONENTS  0.3163927D+01 0.7868272D+01 0.1881289D+01 0.5442493D+00 0.7868272D+01
EXPONENTS  0.1881289D+01 0.5442493D+00 0.7868272D+01 0.1881289D+01 0.5442493D+00
EXPONENTS  0.7868272D+01 0.1881289D+01 0.5442493D+00 0.1687145D+00 0.1687145D+00
EXPONENTS  0.1687145D+00 0.1687145D+00 0.8000000D+00 0.8000000D+00 0.8000000D+00
EXPONENTS  0.8000000D+00 0.8000000D+00 0.8000000D+00 0.1873114D+02 0.2825394D+01
EXPONENTS  0.6401217D+00 0.1612778D+00 0.1873114D+02 0.2825394D+01 0.6401217D+00
EXPONENTS  0.1612778D+00 0.1873114D+02 0.2825394D+01 0.6401217D+00 0.1612778D+00
MO    1     MO 0.0        OCC NO =    2.0000000  ORB. ENERGY =  -19.175443
  0.81534615D-05  0.15041544D-04  0.24281717D-04  0.31607580D-04  0.26970805D-04
  0.93123710D-05 -0.31609640D-04 -0.14568854D-04  0.40852588D-04 -0.29058032D-05
 -0.22279856D-05 -0.11119210D-05 -0.18546815D-04 -0.14220521D-04 -0.70970368D-05
 -0.47463960D-06 -0.36392354D-06 -0.18162335D-06 -0.22136950D-03  0.82960001D-04
  0.64729783D-04 -0.62697389D-05 -0.19591186D-04  0.13799894D-04  0.36106691D-04
  0.39951898D-04 -0.68542922D-05  0.71480799D-05 -0.11167041D-04 -0.20601010D-04
 -0.33256418D-04 -0.43289974D-04 -0.36939414D-04 -0.12754292D-04  0.54596737D-04
  0.25163586D-04 -0.70561322D-04 -0.44892838D-04 -0.34420981D-04 -0.17178482D-04
 -0.92486183D-04 -0.70912539D-04 -0.35390327D-04 -0.15727100D-05 -0.12058543D-05
 -0.60180581D-06  0.37676138D-03  0.74393294D-04 -0.12539052D-03  0.43518733D-04
 -0.15544295D-04  0.42901301D-04 -0.12176627D-04 -0.10054495D-04 -0.10741741D-05
 -0.16209318D-04  0.27169305D-04  0.50122063D-04  0.80912550D-04  0.10532410D-03
  0.89873244D-04  0.31031071D-04 -0.12673988D-03 -0.58414295D-04  0.16379978D-03
 -0.50576202D-04 -0.38778624D-04 -0.19353251D-04  0.79633816D-04  0.61058160D-04
  0.30472301D-04 -0.25867874D-04 -0.19833845D-04 -0.98984786D-05 -0.36740865D-03
 -0.47862171D-03 -0.23697684D-05 -0.82315151D-05  0.57720972D-04 -0.58846549D-04
  0.69200434D-04  0.32666638D-04 -0.96260270D-05  0.40357047D-04 -0.30694546D-04
 -0.56625444D-04 -0.91411024D-04 -0.11898999D-03 -0.10153438D-03 -0.35057380D-04
 -0.62123793D-04 -0.28632799D-04  0.80289358D-04 -0.26320147D-03 -0.20180620D-03
 -0.10071544D-03 -0.49598921D-03 -0.38029307D-03 -0.18979289D-03  0.73156282D-04
  0.56091597D-04  0.27993638D-04  0.44145825D-04  0.37298373D-03  0.72300830D-03
 -0.99879325D-04 -0.11899491D-03 -0.97779768D-04 -0.12132354D-03 -0.13875253D-03
  0.26858979D-04 -0.95369562D-05  0.76626590D-05  0.14136110D-04  0.22820064D-04
  0.29704943D-04  0.25347282D-04  0.87518072D-05 -0.63178151D-04 -0.29118752D-04
  0.81652020D-04  0.34011026D-05  0.26077498D-05  0.13014499D-05  0.21724098D-04
  0.16656660D-04  0.83128408D-05 -0.48284406D-05 -0.37021420D-05 -0.18476283D-05
 -0.39730554D-03  0.10188778D-03 -0.30320241D-03  0.54391090D-04 -0.62735520D-04
 -0.51013075D-04  0.28622845D-04  0.45014621D-05 -0.14302980D-04  0.28271328D-04
 -0.80557041D-06 -0.14861201D-05 -0.23990586D-05 -0.31228615D-05 -0.26647434D-05
 -0.92007186D-06  0.16323525D-04  0.75234977D-05 -0.21096673D-04 -0.62408556D-04
 -0.47850922D-04 -0.23880964D-04 -0.50938489D-04 -0.39056402D-04 -0.19491882D-04
  0.31514865D-05  0.24163599D-05  0.12059330D-05  0.29971840D-03 -0.86055032D-04
 -0.40656124D-04  0.10108226D-05  0.18575080D-04  0.45739732D-04  0.15099928D-04
  0.23866394D-04 -0.21011482D-05 -0.60377644D-05 -0.12365803D-04 -0.20974742D-04
 -0.23879002D-04 -0.12951886D-03  0.82561167D+00  0.15195662D+01  0.24589450D+01
  0.32323520D+01  0.27723695D+01  0.94792022D+00 -0.15753286D-01 -0.70290855D-02
  0.20756984D-01 -0.10744590D-02 -0.82781273D-03 -0.36345438D-03  0.29524039D-02
  0.22746681D-02  0.99870180D-03 -0.50707282D-03 -0.39067227D-03 -0.17152617D-03
  0.40175389D-02  0.25802625D-03  0.28824625D-03 -0.35909654D-04 -0.92474466D-02
 -0.92565499D-02 -0.92715506D-02  0.19501198D-03 -0.27818875D-04  0.23314455D-05
  0.40146611D-05  0.73891195D-05  0.11956990D-04  0.15717798D-04  0.13481064D-04
  0.46094048D-05 -0.17581377D-03 -0.78447760D-04  0.23165729D-03  0.82771733D-04
  0.63771158D-04  0.27998973D-04  0.94047284D-04  0.72458362D-04  0.31813124D-04
 -0.15982936D-04 -0.12313990D-04 -0.54065050D-05 -0.55896639D-03 -0.16025027D-03
 -0.70199113D-04  0.75869454D-05  0.10965872D-03  0.22720629D-03  0.18598022D-03
 -0.13363902D-04 -0.26476969D-05 -0.82868361D-05  0.80769392D-04  0.13700018D-03
  0.15596986D-03 -0.21629026D-03 -0.41625257D-05 -0.70604314D-05 -0.80380516D-05
  0.85378160D-05  0.11855364D-05  0.21870831D-05  0.35306303D-05  0.45958316D-05
  0.39216314D-05  0.13540451D-05 -0.10712289D-04 -0.49372842D-05  0.13844660D-04
 -0.20080097D-04 -0.15396144D-04 -0.76837551D-05  0.80017678D-05  0.61352480D-05
  0.30619188D-05  0.20248403D-04  0.15525191D-04  0.77481585D-05 -0.11181439D-04
 -0.47904785D-05  0.23594289D-04 -0.21169331D-04 -0.14805010D-04 -0.21056842D-04
  0.11246073D-04  0.24391419D-04 -0.78973614D-05 -0.15044547D-04 -0.27735195D-05
 -0.47044140D-05 -0.53558091D-05 -0.70967424D-05  0.34613000D-05  0.58710199D-05
  0.66839487D-05 -0.12683379D-04  0.30026545D-05  0.50930703D-05  0.57982805D-05
  0.18350662D-04 -0.35236882D-05 -0.59768422D-05 -0.68044236D-05 -0.22909445D-04
  0.49699043D-05  0.91685030D-05  0.14800807D-04  0.19266252D-04  0.16439928D-04
  0.56763121D-05 -0.17169098D-04 -0.79132216D-05  0.22189499D-04 -0.43719071D-06
 -0.33521011D-06 -0.16729334D-06  0.77210962D-06  0.59200469D-06  0.29545183D-06
 -0.30977986D-06 -0.23751955D-06 -0.11853890D-06 -0.27446837D-04  0.11879959D-04
  0.71946263D-05 -0.18126963D-06 -0.45026555D-05  0.20579289D-04  0.17747926D-04
 -0.58035142D-05 -0.17254201D-05 -0.76469462D-06  0.19823528D-05  0.33624456D-05
  0.38280255D-05  0.46645492D-05  0.18420276D-05  0.31244274D-05  0.35570502D-05
  0.52421994D-05  0.22002436D-05  0.37320296D-05  0.42487838D-05 -0.31232754D-05
MO    2     MO 0.0        OCC NO =    2.0000000  ORB. ENERGY =  -19.146612
  0.34170698D-05  0.63038265D-05  0.10176331D-04  0.13246559D-04  0.11303313D-04
  0.39027622D-05 -0.64624269D-05 -0.29785267D-05  0.83520997D-05 -0.83547683D-04
 -0.64059064D-04 -0.31969963D-04 -0.48215919D-04 -0.36968909D-04 -0.18450076D-04
  0.17547756D-05  0.13454506D-05  0.67147417D-06  0.21064255D-03 -0.98251994D-04
  0.11658870D-04 -0.75051222D-05  0.33752550D-04 -0.25701850D-06  0.37742967D-04
 -0.58894248D-04  0.10907487D-04  0.14431020D-04  0.25262989D-04  0.46605282D-04
  0.75235376D-04  0.97934105D-04  0.83567349D-04  0.28853797D-04 -0.10661957D-03
 -0.49140865D-04  0.13779611D-03  0.40423551D-04  0.30994215D-04  0.15468286D-04
  0.77574527D-04  0.59479227D-04  0.29684303D-04  0.13564196D-05  0.10400165D-05
  0.51904114D-06 -0.55344975D-03 -0.13163904D-03  0.18060401D-03 -0.46640885D-04
  0.29208021D-04  0.72524024D-05  0.69594176D-04  0.32850683D-04 -0.30960238D-05
  0.33471741D-04 -0.29977079D-04 -0.55301857D-04 -0.89274344D-04 -0.11620867D-03
 -0.99161068D-04 -0.34237934D-04 -0.10571197D-03 -0.48722548D-04  0.13662311D-03
 -0.53011108D-04 -0.40645556D-04 -0.20284981D-04 -0.20229992D-04 -0.15511074D-04
 -0.77411132D-05  0.17549730D-04  0.13456020D-04  0.67154971D-05 -0.35625782D-03
  0.97618157D-03  0.87148098D-04  0.96247731D-06 -0.10661574D-02 -0.98978570D-04
 -0.13986127D-03 -0.13848696D-03 -0.73449539D-05 -0.15720188D-04  0.20097432D-04
  0.37075839D-04  0.59851899D-04  0.77909389D-04  0.66480223D-04  0.22954023D-04
 -0.87539766D-04 -0.40346998D-04  0.11313719D-03  0.25173932D-04  0.19301774D-04
  0.96329382D-05 -0.67886968D-04 -0.52051422D-04 -0.25977307D-04  0.63580473D-05
  0.48749474D-05  0.24329404D-05 -0.31575730D-03 -0.34468002D-03 -0.39986462D-03
  0.53875206D-04 -0.40474515D-04  0.92631446D-04  0.49029190D-04  0.15972007D-03
 -0.36748994D-04 -0.56446859D-05  0.28240804D-05  0.52098768D-05  0.84103566D-05
  0.10947785D-04  0.93417651D-05  0.32254870D-05 -0.31290731D-05 -0.14421869D-05
  0.40440426D-05 -0.12862000D-03 -0.98617655D-04 -0.49217121D-04  0.26332942D-04
  0.20190430D-04  0.10076439D-04 -0.97393615D-05 -0.74675247D-05 -0.37268182D-05
  0.43584125D-03 -0.66008683D-04  0.15645833D-03 -0.30934278D-04  0.32365617D-04
  0.19134792D-04  0.31530855D-04  0.27817051D-04  0.59516213D-05  0.37980831D-05
  0.69463962D-05  0.12814745D-04  0.20686971D-04  0.26928290D-04  0.22977958D-04
  0.79337369D-05 -0.26345616D-04 -0.12142670D-04  0.34049315D-04 -0.68345947D-04
 -0.52403337D-04 -0.26152938D-04  0.10162535D-04  0.77919871D-05  0.38887477D-05
 -0.41175348D-05 -0.31570645D-05 -0.15755964D-05 -0.14007951D-03  0.14586911D-03
  0.66769616D-04 -0.17415822D-05  0.30029250D-04 -0.38073245D-04  0.36491598D-04
 -0.31761174D-04  0.51420471D-05  0.19789000D-04  0.71282866D-05  0.12090923D-04
  0.13765089D-04  0.30688344D-04  0.94712797D-04  0.17432211D-03  0.28208608D-03
  0.37081004D-03  0.31804162D-03  0.10874383D-03 -0.16956263D-03 -0.75658514D-04
  0.22342060D-03  0.14820161D-03  0.11418135D-03  0.50131763D-04  0.10386808D-03
  0.80024757D-04  0.35135179D-04 -0.59918072D-05 -0.46163644D-05 -0.20268326D-05
 -0.51000481D-03 -0.19074350D-03 -0.14806773D-03  0.14436340D-04  0.20171016D-03
  0.11220813D-03  0.18068469D-03 -0.15898727D-03  0.24935018D-04  0.13252812D-04
  0.82560397D+00  0.15195520D+01  0.24589220D+01  0.32323218D+01  0.27723436D+01
  0.94791137D+00 -0.15590037D-01 -0.69562442D-02  0.20541882D-01  0.34581463D-02
  0.26643153D-02  0.11697779D-02  0.81712012D-07  0.62954700D-07  0.27640504D-07
  0.62884923D-04  0.48449443D-04  0.21271915D-04  0.44970623D-02  0.63576756D-03
  0.81301016D-05  0.14844913D-04 -0.87559943D-02 -0.94098613D-02 -0.94238046D-02
  0.46311448D-04  0.25464964D-04 -0.66086565D-06 -0.76629804D-05 -0.12997865D-04
 -0.14797610D-04 -0.10190138D-03  0.10672792D-04  0.18103075D-04  0.20609711D-04
  0.85419420D-05 -0.43039653D-05 -0.79399756D-05 -0.12817582D-04 -0.16684684D-04
 -0.14237071D-04 -0.49157185D-05  0.31881603D-04  0.14694202D-04 -0.41204076D-04
  0.28113820D-04  0.21555894D-04  0.10757902D-04 -0.51922371D-04 -0.39810781D-04
 -0.19868370D-04 -0.40627818D-04 -0.31150834D-04 -0.15546449D-04  0.55625378D-04
 -0.13977637D-04 -0.23921246D-04  0.36205714D-04  0.11372579D-04  0.50821234D-04
 -0.16519916D-04 -0.18373733D-05  0.28742543D-04 -0.97500840D-05  0.11730890D-05
  0.19897810D-05  0.22652953D-05  0.42072319D-05  0.12155679D-04  0.20618332D-04
  0.23473243D-04 -0.44951503D-04 -0.11770028D-04 -0.19964195D-04 -0.22728530D-04
 -0.19600188D-04 -0.20152088D-05 -0.34181756D-05 -0.38914721D-05 -0.16390779D-04
  0.30238512D-05  0.55784150D-05  0.90052915D-05  0.11722214D-04  0.10002586D-04
  0.34536527D-05 -0.13203445D-04 -0.60854558D-05  0.17064253D-04  0.29358885D-04
  0.22510531D-04  0.11234333D-04 -0.51744907D-05 -0.39674713D-05 -0.19800462D-05
  0.19270773D-05  0.14775607D-05  0.73740633D-06 -0.93129738D-04  0.23817537D-04
 -0.17102243D-04  0.41955742D-05 -0.83576448D-05  0.42147704D-05  0.96742958D-05
  0.24337567D-04 -0.59004230D-05  0.20170520D-05  0.18863238D-05  0.31995621D-05
  0.36425884D-05  0.53474293D-06  0.23071851D-05  0.39134227D-05  0.44552934D-05
  0.91401066D-07  0.20562889D-05  0.34878551D-05  0.39707998D-05  0.15267363D-04
MO    3     MO 0.0        OCC NO =    2.0000000  ORB. ENERGY =  -10.277532
  0.16420679D-04  0.30292946D-04  0.48902207D-04  0.63656143D-04  0.54317902D-04
  0.18754666D-04 -0.56096907D-04 -0.25855013D-04  0.72500155D-04  0.15561295D-03
  0.11931414D-03  0.59546118D-04  0.88433567D-04  0.67805250D-04  0.33839572D-04
 -0.32679189D-04 -0.25056329D-04 -0.12504864D-04 -0.93513848D-03  0.31436409D-03
  0.23066668D-03 -0.84321798D-06  0.40875047D-06  0.53413211D-04  0.11065270D-04
  0.43358871D-04 -0.24709955D-04 -0.41381675D-04  0.83309336D-03  0.15368946D-02
  0.24810244D-02  0.32295565D-02  0.27557865D-02  0.95150684D-03  0.18487889D-03
  0.85210511D-04 -0.23893917D-03  0.77484012D-05  0.59409826D-05  0.29649667D-05
  0.14608233D-03  0.11200666D-03  0.55899174D-04 -0.10084136D-03 -0.77318762D-04
 -0.38587481D-04  0.16236702D-02  0.30070380D-03 -0.72161001D-03  0.13368938D-03
 -0.36233882D-03 -0.32622047D-03 -0.25504493D-03 -0.45470341D-03  0.17104509D-03
 -0.66143589D-04  0.53257972D+00  0.98250560D+00  0.15860687D+01  0.20645901D+01
  0.17617185D+01  0.60827907D+00 -0.19807513D-01 -0.91292646D-02  0.25599411D-01
 -0.99073711D-03 -0.75963437D-03 -0.37911079D-03 -0.78146136D-04 -0.59917500D-04
 -0.29903032D-04 -0.28949248D-04 -0.22196447D-04 -0.11077583D-04 -0.26699799D-02
 -0.15787732D-02 -0.10203466D-03 -0.20212843D-04 -0.90532794D-02 -0.10237188D-01
 -0.10436709D-01  0.80569252D-04  0.58060449D-04 -0.75430111D-04  0.29088687D-02
  0.53662948D-02  0.86628638D-02  0.11276475D-01  0.96222362D-02  0.33223269D-02
  0.14556119D-03  0.67089019D-04 -0.18812461D-03  0.13783197D-03  0.10568081D-03
  0.52742130D-04 -0.30606391D-03 -0.23467040D-03 -0.11711697D-03  0.39357785D-04
  0.30177053D-04  0.15060464D-04  0.16777844D-02  0.47894236D-03  0.99087812D-03
 -0.12759671D-03 -0.57262701D-03 -0.63213986D-03 -0.40512038D-03  0.32202936D-03
 -0.46524239D-04  0.86074561D-04  0.23530647D-04  0.43409449D-04  0.70076311D-04
  0.91218535D-04  0.77836941D-04  0.26875225D-04 -0.25017952D-04 -0.11530751D-04
  0.32333430D-04  0.17488885D-03  0.13409367D-03  0.66922141D-04 -0.90810010D-04
 -0.69627356D-04 -0.34748930D-04  0.11219962D-04  0.86027554D-05  0.42933779D-05
 -0.11674568D-02  0.20347178D-03 -0.46756288D-03  0.86715131D-04  0.11968263D-03
 -0.16315310D-04 -0.32943629D-04  0.33854431D-04  0.54797090D-05  0.71396758D-05
 -0.47307146D-04 -0.87272447D-04 -0.14088479D-03 -0.18339014D-03 -0.15648714D-03
 -0.54031247D-04  0.10840463D-03  0.49963596D-04 -0.14010314D-03  0.19716449D-03
  0.15117323D-03  0.75446035D-04 -0.60369470D-05 -0.46287480D-05 -0.23100697D-05
  0.29809894D-05  0.22856336D-05  0.11406913D-05  0.72401499D-03 -0.55278833D-03
 -0.77109776D-04 -0.22271099D-04 -0.69381763D-04  0.34959444D-04 -0.12322387D-03
  0.46575016D-04  0.38616200D-06 -0.58237020D-04 -0.19911200D-04 -0.33773163D-04
 -0.38449553D-04 -0.99409233D-04 -0.86715843D-04 -0.15960344D-03 -0.25826850D-03
 -0.33950117D-03 -0.29118818D-03 -0.99562184D-04  0.31539067D-03  0.14072670D-03
 -0.41556784D-03 -0.16795261D-03 -0.12939843D-03 -0.56812881D-04 -0.40856723D-04
 -0.31477902D-04 -0.13820495D-04  0.16390372D-04  0.12627898D-04  0.55443275D-05
  0.88113116D-03  0.21149251D-03  0.16546956D-03 -0.24657497D-04 -0.28958268D-03
 -0.22912792D-03 -0.34230002D-03  0.13959191D-03 -0.22069952D-04 -0.36755769D-04
  0.31320876D-04  0.57647132D-04  0.93283941D-04  0.12262435D-03  0.10517419D-03
  0.35960843D-04 -0.68540265D-03 -0.30582533D-03  0.90310629D-03 -0.17768208D-03
 -0.13689446D-03 -0.60104041D-04 -0.14765241D-04 -0.11375822D-04 -0.49945988D-05
  0.19310457D-04  0.14877666D-04  0.65320968D-05 -0.20693841D-02 -0.84519738D-03
 -0.14382036D-04 -0.16762888D-04 -0.62271807D-04  0.83463054D-03  0.96664290D-03
 -0.21115469D-04 -0.31847135D-04  0.33856784D-04 -0.76952298D-06 -0.13052566D-05
 -0.14859885D-05  0.43947294D-04 -0.41006221D-04 -0.69554312D-04 -0.79185126D-04
  0.11256574D-03 -0.45020382D-04 -0.83053814D-04 -0.13407461D-03 -0.17452530D-03
 -0.14892276D-03 -0.51419449D-04  0.85577650D-04  0.39442661D-04 -0.11060134D-03
 -0.46220907D-05 -0.35439260D-05 -0.17686674D-05  0.18432198D-03  0.14132641D-03
  0.70531781D-04  0.44783494D-04  0.34337142D-04  0.17136641D-04  0.20846171D-03
 -0.42600951D-04 -0.65960309D-04 -0.12482236D-03 -0.12251850D-03 -0.96476515D-04
 -0.17488935D-04  0.96527404D-04 -0.56877360D-04  0.11116358D-03 -0.78269085D-05
 -0.13275918D-04 -0.15114164D-04  0.43852688D-04 -0.16473145D-04 -0.27941571D-04
 -0.31810491D-04 -0.63941466D-04 -0.17254381D-04 -0.29266696D-04 -0.33319099D-04
  0.67716128D-04 -0.73054024D-05 -0.12391345D-04 -0.14107108D-04 -0.45492566D-04
 -0.85379372D-05 -0.15750827D-04 -0.25426718D-04 -0.33098032D-04 -0.28242611D-04
 -0.97514949D-05  0.33855970D-04  0.15604186D-04 -0.43755765D-04 -0.85338593D-04
 -0.65432220D-04 -0.32655264D-04  0.13864069D-04  0.10630089D-04  0.53051594D-05
  0.12104063D-05  0.92806282D-06  0.46316839D-06  0.29749072D-03 -0.83974355D-04
  0.28630891D-04 -0.13103730D-04  0.22890989D-04 -0.68726893D-05 -0.17791690D-04
 -0.33628532D-04  0.83980028D-05 -0.22099094D-05 -0.57123882D-05 -0.96892916D-05
 -0.11030916D-04 -0.82844159D-06 -0.68655384D-05 -0.11645252D-04 -0.13257708D-04
 -0.54703596D-05 -0.58085600D-05 -0.98524171D-05 -0.11216629D-04 -0.27523102D-04
MO    4     MO 0.0        OCC NO =    2.0000000  ORB. ENERGY =  -10.250693
 -0.61355133D-04 -0.11318824D-03 -0.18272092D-03 -0.23784834D-03 -0.20295642D-03
 -0.70075975D-04  0.11207045D-03  0.51653169D-04 -0.14484088D-03  0.84879613D-04
  0.65080303D-04  0.32479632D-04  0.42890355D-04  0.32885604D-04  0.16412221D-04
  0.81438774D-05  0.62442087D-05  0.31162978D-05  0.76443873D-03 -0.32939507D-03
 -0.28013073D-03  0.26403760D-04 -0.36582888D-06 -0.41150856D-04 -0.12322835D-03
 -0.63770021D-04  0.93766182D-05 -0.22821348D-04  0.17945719D-04  0.33106347D-04
  0.53443910D-04  0.69568091D-04  0.59362578D-04  0.20496472D-04 -0.12813758D-03
 -0.59058493D-04  0.16560618D-03  0.54102379D-04  0.41482273D-04  0.20702561D-04
  0.22039425D-03  0.16898434D-03  0.84335027D-04  0.15147636D-04  0.11614247D-04
  0.57963230D-05 -0.10543620D-02 -0.21554060D-03  0.33066766D-03 -0.11327753D-03
  0.62750614D-04 -0.50508612D-05  0.23993985D-04  0.97506410D-04 -0.21317577D-04
  0.64276480D-05 -0.31643390D-02 -0.58375875D-02 -0.94236762D-02 -0.12266826D-01
 -0.10467305D-01 -0.36141089D-02  0.39722648D-03  0.18308132D-03 -0.51337913D-03
 -0.14430380D-03 -0.11064300D-03 -0.55218611D-04  0.23659155D-03  0.18140340D-03
  0.90533008D-04 -0.24267619D-04 -0.18606871D-04 -0.92861328D-05  0.16831569D-02
  0.10201168D-02 -0.15227732D-03  0.54320572D-04 -0.23245868D-03 -0.59533407D-03
 -0.29239588D-03  0.79566001D-04 -0.10859263D-04  0.92640503D-04  0.53252838D+00
  0.98241088D+00  0.15859158D+01  0.20643911D+01  0.17615487D+01  0.60822043D+00
 -0.19846942D-01 -0.91474372D-02  0.25650369D-01 -0.69337792D-03 -0.53163821D-03
 -0.26532473D-03 -0.80958935D-03 -0.62074177D-03 -0.30979365D-03  0.12131203D-03
  0.93014368D-04  0.46420688D-04 -0.35554569D-02 -0.10743709D-02 -0.14018462D-02
  0.15843961D-03 -0.97570369D-02 -0.96972556D-02 -0.10491757D-01  0.82195899D-03
 -0.77018034D-04 -0.23036186D-03  0.37587748D-02  0.69342056D-02  0.11193958D-01
  0.14571207D-01  0.12433637D-01  0.42930362D-02  0.25639525D-03  0.11817234D-03
 -0.33136757D-03  0.39637262D-03  0.30391338D-03  0.15167408D-03 -0.14066898D-03
 -0.10785605D-03 -0.53827728D-04  0.46003658D-04  0.35272687D-04  0.17603543D-04
  0.25795383D-02 -0.69070016D-03  0.90934797D-03 -0.17448850D-03 -0.38840894D-03
 -0.32914015D-03 -0.40166181D-03 -0.16145836D-03  0.25542844D-04 -0.31474395D-04
  0.41386240D-04  0.76349532D-04  0.12325182D-03  0.16043725D-03  0.13690139D-03
  0.47268761D-04 -0.99590805D-04 -0.45901311D-04  0.12871207D-03  0.88277798D-04
  0.67685817D-04  0.33779966D-04  0.71682734D-04  0.54961774D-04  0.27429777D-04
 -0.38947944D-05 -0.29862813D-05 -0.14903637D-05 -0.11979827D-02  0.51249562D-03
  0.21381712D-03 -0.42896729D-05  0.17537269D-05  0.10011707D-04  0.55209070D-04
 -0.40561036D-04 -0.29702540D-05  0.13049325D-04  0.39125405D-04  0.66364093D-04
  0.75553174D-04  0.31625142D-03  0.13187932D-03  0.24272835D-03  0.39278028D-03
  0.51632068D-03  0.44284524D-03  0.15141631D-03 -0.74263297D-03 -0.33136139D-03
  0.97851461D-03 -0.82464709D-04 -0.63534613D-04 -0.27895117D-04 -0.70440765D-04
 -0.54270812D-04 -0.23827810D-04 -0.13279260D-04 -0.10230954D-04 -0.44919399D-05
 -0.18335667D-02 -0.39562597D-03 -0.69962550D-03  0.10565702D-03  0.44278840D-03
 -0.14888233D-04  0.10417093D-02 -0.10733916D-02  0.12837335D-03  0.31147962D-03
 -0.71313042D-04 -0.13125407D-03 -0.21239386D-03 -0.27919767D-03 -0.23946622D-03
 -0.81877567D-04  0.26284745D-03  0.11728202D-03 -0.34633538D-03  0.40562242D-04
  0.31251021D-04  0.13720881D-04 -0.76718730D-04 -0.59107645D-04 -0.25951440D-04
  0.20310919D-04  0.15648468D-04  0.68705204D-05  0.78809262D-03  0.12659455D-03
  0.71595412D-04 -0.13256976D-04 -0.20194594D-03 -0.23195278D-03 -0.28583827D-03
 -0.10264576D-04  0.10511049D-05 -0.25637856D-04  0.62258540D-04  0.10560227D-03
  0.12022445D-03 -0.14701348D-04  0.18278703D-04  0.31004141D-04  0.35297118D-04
 -0.31719248D-04  0.13552762D-04  0.25002199D-04  0.40361302D-04  0.52538423D-04
  0.44831131D-04  0.15479112D-04  0.14148987D-05  0.65212553D-06 -0.18286281D-05
  0.48927892D-04  0.37514804D-04  0.18722516D-04 -0.68967709D-04 -0.52880065D-04
 -0.26390859D-04 -0.32101172D-04 -0.24613142D-04 -0.12283683D-04 -0.96377836D-05
  0.23066435D-04 -0.33302063D-04  0.38027005D-04  0.61088002D-04  0.73576888D-04
 -0.22971099D-05 -0.65209028D-04 -0.51794275D-07  0.34883645D-04  0.44691874D-05
  0.75805878D-05  0.86302312D-05  0.40603954D-05 -0.59359612D-05 -0.10068514D-04
 -0.11462647D-04  0.42467742D-04 -0.41632406D-06 -0.70616440D-06 -0.80394321D-06
 -0.31007445D-04  0.20175740D-04  0.34221874D-04  0.38960394D-04  0.11555562D-03
 -0.26557474D-04 -0.48993353D-04 -0.79090463D-04 -0.10295228D-03 -0.87849370D-04
 -0.30332276D-04  0.58685887D-04  0.27048272D-04 -0.75846177D-04  0.39777664D-04