 Entering Link 1 = D:\Gaussian\G16W\l1.exe PID=     35684.
  
 Copyright (c) 1988,1990,1992,1993,1995,1998,2003,2009,2016,
            Gaussian, Inc.  All Rights Reserved.
  
 This is part of the Gaussian(R) 16 program.  It is based on
 the Gaussian(R) 09 system (copyright 2009, Gaussian, Inc.),
 the Gaussian(R) 03 system (copyright 2003, Gaussian, Inc.),
 the Gaussian(R) 98 system (copyright 1998, Gaussian, Inc.),
 the Gaussian(R) 94 system (copyright 1995, Gaussian, Inc.),
 the Gaussian 92(TM) system (copyright 1992, Gaussian, Inc.),
 the Gaussian 90(TM) system (copyright 1990, Gaussian, Inc.),
 the Gaussian 88(TM) system (copyright 1988, Gaussian, Inc.),
 the Gaussian 86(TM) system (copyright 1986, Carnegie Mellon
 University), and the Gaussian 82(TM) system (copyright 1983,
 Carnegie Mellon University). Gaussian is a federally registered
 trademark of Gaussian, Inc.
  
 This software contains proprietary and confidential information,
 including trade secrets, belonging to Gaussian, Inc.
  
 This software is provided under written license and may be
 used, copied, transmitted, or stored only in accord with that
 written license.
  
 The following legend is applicable only to US Government
 contracts under FAR:
  
                    RESTRICTED RIGHTS LEGEND
  
 Use, reproduction and disclosure by the US Government is
 subject to restrictions as set forth in subparagraphs (a)
 and (c) of the Commercial Computer Software - Restricted
 Rights clause in FAR 52.227-19.
  
 Gaussian, Inc.
 340 Quinnipiac St., Bldg. 40, Wallingford CT 06492
  
  
 ---------------------------------------------------------------
 Warning -- This program may not be used in any manner that
 competes with the business of Gaussian, Inc. or will provide
 assistance to any competitor of Gaussian, Inc.  The licensee
 of this program is prohibited from giving any competitor of
 Gaussian, Inc. access to this program.  By using this program,
 the user acknowledges that Gaussian, Inc. is engaged in the
 business of creating and licensing software in the field of
 computational chemistry and represents and warrants to the
 licensee that it is not a competitor of Gaussian, Inc. and that
 it will not use this program in any manner prohibited above.
 ---------------------------------------------------------------
  

 Cite this work as:
 Gaussian 16, Revision A.03,
 M. J. Frisch, G. W. Trucks, H. B. Schlegel, G. E. Scuseria, 
 M. A. Robb, J. R. Cheeseman, G. Scalmani, V. Barone, 
 G. A. Petersson, H. Nakatsuji, X. Li, M. Caricato, A. V. Marenich, 
 J. Bloino, B. G. Janesko, R. Gomperts, B. Mennucci, H. P. Hratchian, 
 J. V. Ortiz, A. F. Izmaylov, J. L. Sonnenberg, D. Williams-Young, 
 F. Ding, F. Lipparini, F. Egidi, J. Goings, B. Peng, A. Petrone, 
 T. Henderson, D. Ranasinghe, V. G. Zakrzewski, J. Gao, N. Rega, 
 G. Zheng, W. Liang, M. Hada, M. Ehara, K. Toyota, R. Fukuda, 
 J. Hasegawa, M. Ishida, T. Nakajima, Y. Honda, O. Kitao, H. Nakai, 
 T. Vreven, K. Throssell, J. A. Montgomery, Jr., J. E. Peralta, 
 F. Ogliaro, M. J. Bearpark, J. J. Heyd, E. N. Brothers, K. N. Kudin, 
 V. N. Staroverov, T. A. Keith, R. Kobayashi, J. Normand, 
 K. Raghavachari, A. P. Rendell, J. C. Burant, S. S. Iyengar, 
 J. Tomasi, M. Cossi, J. M. Millam, M. Klene, C. Adamo, R. Cammi, 
 J. W. Ochterski, R. L. Martin, K. Morokuma, O. Farkas, 
 J. B. Foresman, and D. J. Fox, Gaussian, Inc., Wallingford CT, 2016.
 
 ******************************************
 Gaussian 16:  EM64W-G16RevA.03 17-Dec-2016
                02-Dec-2025 
 ******************************************
 %mem=80GB
 %nprocshared=14
 Will use up to   14 processors via shared memory.
 %chk=SR-9.chk
 ---------------------------------------------------------
 # ub3lyp/6-311g(d,p) geom=connectivity temperature=823.15
 ---------------------------------------------------------
 1/38=1,57=2,112=823150,172=1/1;
 2/12=2,17=6,18=5,40=1/2;
 3/5=4,6=6,7=101,11=2,25=1,30=1,74=-5,116=2/1,2,3;
 4//1;
 5/5=2,38=5/2;
 6/7=2,8=2,9=2,10=2,28=1/1;
 99/5=1,9=1/99;
 -------------------
 Title Card Required
 -------------------
 Symbolic Z-matrix:
 Charge =  0 Multiplicity = 1
 C                     1.05216   1.14074  -0.26032 
 C                    -0.43803   1.27993  -0.38044 
 C                    -1.21643  -0.00872  -0.18056 
 C                    -0.46537  -1.25916   0.03119 
 C                     0.88515  -1.25894   0.09894 
 C                     1.66761  -0.03547  -0.04396 
 H                     1.40041  -2.19794   0.27355 
 O                    -1.22389  -2.36386   0.17637 
 O                    -2.4417   -0.05702  -0.19745 
 H                    -2.14271  -2.04822   0.09397 
 H                    -0.66024   1.56571  -1.42158 
 C                    -1.00747   2.39771   0.52119 
 H                    -0.56296   3.36095   0.26179 
 H                    -2.08883   2.45941   0.39577 
 H                    -0.78814   2.19158   1.57146 
 H                     1.63446   2.05082  -0.36835 
 C                     3.16603  -0.15894   0.06219 
 H                     3.45757  -0.57738   1.03134 
 H                     3.55923  -0.8312   -0.70786 
 H                     3.65414   0.8103   -0.05088 
 
                          Input orientation:                          
 ---------------------------------------------------------------------
 Center     Atomic      Atomic             Coordinates (Angstroms)
 Number     Number       Type             X           Y           Z
 ---------------------------------------------------------------------
      1          6           0        1.052157    1.140741   -0.260316
      2          6           0       -0.438030    1.279929   -0.380437
      3          6           0       -1.216434   -0.008717   -0.180563
      4          6           0       -0.465371   -1.259155    0.031188
      5          6           0        0.885148   -1.258939    0.098941
      6          6           0        1.667613   -0.035471   -0.043956
      7          1           0        1.400409   -2.197941    0.273554
      8          8           0       -1.223890   -2.363855    0.176368
      9          8           0       -2.441702   -0.057016   -0.197449
     10          1           0       -2.142710   -2.048218    0.093965
     11          1           0       -0.660237    1.565713   -1.421577
     12          6           0       -1.007475    2.397709    0.521193
     13          1           0       -0.562955    3.360948    0.261793
     14          1           0       -2.088833    2.459411    0.395772
     15          1           0       -0.788143    2.191577    1.571459
     16          1           0        1.634459    2.050820   -0.368347
     17          6           0        3.166027   -0.158942    0.062188
     18          1           0        3.457566   -0.577376    1.031336
     19          1           0        3.559227   -0.831199   -0.707862
     20          1           0        3.654138    0.810301   -0.050877
 ---------------------------------------------------------------------
                    Distance matrix (angstroms):
                    1          2          3          4          5
     1  C    0.000000
     2  C    1.501486   0.000000
     3  C    2.544429   1.518707   0.000000
     4  C    2.854359   2.572378   1.473950   0.000000
     5  C    2.432164   2.902836   2.461265   1.352217   0.000000
     6  C    1.345018   2.505440   2.887404   2.460217   1.459296
     7  H    3.398984   3.987874   3.441917   2.102664   1.085223
     8  O    4.201580   3.768922   2.382043   1.347884   2.382200
     9  O    3.693998   2.415700   1.226336   2.324499   3.549704
    10  H    4.527930   3.769291   2.256749   1.854731   3.129043
    11  H    2.112208   1.102280   2.080457   3.182511   3.560737
    12  C    2.536298   1.544874   2.515355   3.729160   4.139009
    13  H    2.794728   2.181446   3.460832   4.626884   4.844262
    14  H    3.469173   2.172287   2.680466   4.073854   4.770618
    15  H    2.801135   2.182563   2.845050   3.792647   4.107831
    16  H    1.085813   2.211251   3.522009   3.940158   3.425541
    17  C    2.502325   3.905828   4.391749   3.794533   2.532539
    18  H    3.225877   4.540744   4.861928   4.105430   2.819791
    19  H    3.220907   4.532343   4.874573   4.114211   2.825702
    20  H    2.631228   4.132191   4.940656   4.610828   3.459986
                    6          7          8          9         10
     6  C    0.000000
     7  H    2.201928   0.000000
     8  O    3.718965   2.631334   0.000000
     9  O    4.112237   4.423485   2.635206   0.000000
    10  H    4.311465   3.550825   0.975011   2.034503   0.000000
    11  H    3.143329   4.613548   4.279327   2.702842   4.189880
    12  C    3.660035   5.194153   4.778936   2.932427   4.608422
    13  H    4.074872   5.895438   5.763463   3.927222   5.637630
    14  H    4.530859   5.820711   4.905116   2.609374   4.518043
    15  H    3.687824   5.073676   4.784152   3.304461   4.689744
    16  H    2.111620   4.303346   5.287365   4.592087   5.593107
    17  C    1.507235   2.705476   4.913863   5.614662   5.634986
    18  H    2.157277   2.726235   5.083159   6.048310   5.865589
    19  H    2.156886   2.737089   5.099912   6.072152   5.885248
    20  H    2.159088   3.772807   5.824265   6.158976   6.464948
                   11         12         13         14         15
    11  H    0.000000
    12  C    2.141763   0.000000
    13  H    2.462939   1.092115   0.000000
    14  H    2.478374   1.090354   1.777364   0.000000
    15  H    3.060446   1.092545   1.770131   1.773632   0.000000
    16  H    2.571041   2.809169   2.634794   3.822791   3.106712
    17  C    4.451549   4.915818   5.131742   5.880528   4.841312
    18  H    5.250325   5.389617   5.680421   6.355199   5.097537
    19  H    4.904942   5.726359   5.958751   6.629231   5.764729
    20  H    4.589477   4.957597   4.938364   5.991726   4.926841
                   16         17         18         19         20
    16  H    0.000000
    17  C    2.722886   0.000000
    18  H    3.491453   1.095139   0.000000
    19  H    3.482246   1.095223   1.760560   0.000000
    20  H    2.391397   1.091086   1.770727   1.770638   0.000000
 Stoichiometry    C8H10O2
 Framework group  C1[X(C8H10O2)]
 Deg. of freedom    54
 Full point group                 C1      NOp   1
 Largest Abelian subgroup         C1      NOp   1
 Largest concise Abelian subgroup C1      NOp   1
                         Standard orientation:                         
 ---------------------------------------------------------------------
 Center     Atomic      Atomic             Coordinates (Angstroms)
 Number     Number       Type             X           Y           Z
 ---------------------------------------------------------------------
      1          6           0        1.052157    1.140741   -0.260316
      2          6           0       -0.438030    1.279929   -0.380437
      3          6           0       -1.216434   -0.008717   -0.180563
      4          6           0       -0.465371   -1.259155    0.031188
      5          6           0        0.885148   -1.258939    0.098941
      6          6           0        1.667613   -0.035471   -0.043956
      7          1           0        1.400409   -2.197941    0.273554
      8          8           0       -1.223890   -2.363855    0.176368
      9          8           0       -2.441702   -0.057016   -0.197449
     10          1           0       -2.142710   -2.048218    0.093965
     11          1           0       -0.660237    1.565713   -1.421577
     12          6           0       -1.007475    2.397709    0.521193
     13          1           0       -0.562955    3.360948    0.261793
     14          1           0       -2.088833    2.459411    0.395772
     15          1           0       -0.788143    2.191577    1.571459
     16          1           0        1.634459    2.050820   -0.368347
     17          6           0        3.166027   -0.158941    0.062188
     18          1           0        3.457566   -0.577375    1.031336
     19          1           0        3.559227   -0.831198   -0.707862
     20          1           0        3.654138    0.810302   -0.050877
 ---------------------------------------------------------------------
 Rotational constants (GHZ):           1.7719256           1.2700848           0.7715539
 Standard basis: 6-311G(d,p) (5D, 7F)
 There are   250 symmetry adapted cartesian basis functions of A   symmetry.
 There are   240 symmetry adapted basis functions of A   symmetry.
   240 basis functions,   400 primitive gaussians,   250 cartesian basis functions
    37 alpha electrons       37 beta electrons
       nuclear repulsion energy       518.4436007741 Hartrees.
 NAtoms=   20 NActive=   20 NUniq=   20 SFac= 1.00D+00 NAtFMM=   60 NAOKFM=F Big=F
 Integral buffers will be    131072 words long.
 Raffenetti 2 integral format.
 Two-electron integral symmetry is turned on.
 One-electron integrals computed using PRISM.
 NBasis=   240 RedAO= T EigKep=  2.57D-04  NBF=   240
 NBsUse=   240 1.00D-06 EigRej= -1.00D+00 NBFU=   240
 ExpMin= 1.03D-01 ExpMax= 8.59D+03 ExpMxC= 1.30D+03 IAcc=3 IRadAn=         5 AccDes= 0.00D+00
 Harris functional with IExCor=  402 and IRadAn=       5 diagonalized for initial guess.
 HarFok:  IExCor=  402 AccDes= 0.00D+00 IRadAn=         5 IDoV= 1 UseB2=F ITyADJ=14
 ICtDFT=  3500011 ScaDFX=  1.000000  1.000000  1.000000  1.000000
 FoFCou: FMM=F IPFlag=           0 FMFlag=      100000 FMFlg1=           0
         NFxFlg=           0 DoJE=T BraDBF=F KetDBF=T FulRan=T
         wScrn=  0.000000 ICntrl=       500 IOpCl=  0 I1Cent=   200000004 NGrid=           0
         NMat0=    1 NMatS0=      1 NMatT0=    0 NMatD0=    1 NMtDS0=    0 NMtDT0=    0
 Petite list used in FoFCou.
 Initial guess <Sx>= 0.0000 <Sy>= 0.0000 <Sz>= 0.0000 <S**2>= 0.0000 S= 0.0000
 Requested convergence on RMS density matrix=1.00D-08 within 128 cycles.
 Requested convergence on MAX density matrix=1.00D-06.
 Requested convergence on             energy=1.00D-06.
 No special actions if energy rises.
 Integral accuracy reduced to 1.0D-05 until final iterations.
 Initial convergence to 1.0D-05 achieved.  Increase integral accuracy.
 SCF Done:  E(UB3LYP) =  -461.429113828     A.U. after   15 cycles
            NFock= 15  Conv=0.43D-08     -V/T= 2.0039
 <Sx>= 0.0000 <Sy>= 0.0000 <Sz>= 0.0000 <S**2>= 0.0000 S= 0.0000
 <L.S>= 0.000000000000E+00
 Annihilation of the first spin contaminant:
 S**2 before annihilation     0.0000,   after     0.0000

 **********************************************************************

            Population analysis using the SCF density.

 **********************************************************************

 Orbital symmetries:
 Alpha Orbitals:
       Occupied  (A) (A) (A) (A) (A) (A) (A) (A) (A) (A) (A) (A)
                 (A) (A) (A) (A) (A) (A) (A) (A) (A) (A) (A) (A)
                 (A) (A) (A) (A) (A) (A) (A) (A) (A) (A) (A) (A)
                 (A)
       Virtual   (A) (A) (A) (A) (A) (A) (A) (A) (A) (A) (A) (A)
                 (A) (A) (A) (A) (A) (A) (A) (A) (A) (A) (A) (A)
                 (A) (A) (A) (A) (A) (A) (A) (A) (A) (A) (A) (A)
                 (A) (A) (A) (A) (A) (A) (A) (A) (A) (A) (A) (A)
                 (A) (A) (A) (A) (A) (A) (A) (A) (A) (A) (A) (A)
                 (A) (A) (A) (A) (A) (A) (A) (A) (A) (A) (A) (A)
                 (A) (A) (A) (A) (A) (A) (A) (A) (A) (A) (A) (A)
                 (A) (A) (A) (A) (A) (A) (A) (A) (A) (A) (A) (A)
                 (A) (A) (A) (A) (A) (A) (A) (A) (A) (A) (A) (A)
                 (A) (A) (A) (A) (A) (A) (A) (A) (A) (A) (A) (A)
                 (A) (A) (A) (A) (A) (A) (A) (A) (A) (A) (A) (A)
                 (A) (A) (A) (A) (A) (A) (A) (A) (A) (A) (A) (A)
                 (A) (A) (A) (A) (A) (A) (A) (A) (A) (A) (A) (A)
                 (A) (A) (A) (A) (A) (A) (A) (A) (A) (A) (A) (A)
                 (A) (A) (A) (A) (A) (A) (A) (A) (A) (A) (A) (A)
                 (A) (A) (A) (A) (A) (A) (A) (A) (A) (A) (A) (A)
                 (A) (A) (A) (A) (A) (A) (A) (A) (A) (A) (A)
 Beta  Orbitals:
       Occupied  (A) (A) (A) (A) (A) (A) (A) (A) (A) (A) (A) (A)
                 (A) (A) (A) (A) (A) (A) (A) (A) (A) (A) (A) (A)
                 (A) (A) (A) (A) (A) (A) (A) (A) (A) (A) (A) (A)
                 (A)
       Virtual   (A) (A) (A) (A) (A) (A) (A) (A) (A) (A) (A) (A)
                 (A) (A) (A) (A) (A) (A) (A) (A) (A) (A) (A) (A)
                 (A) (A) (A) (A) (A) (A) (A) (A) (A) (A) (A) (A)
                 (A) (A) (A) (A) (A) (A) (A) (A) (A) (A) (A) (A)
                 (A) (A) (A) (A) (A) (A) (A) (A) (A) (A) (A) (A)
                 (A) (A) (A) (A) (A) (A) (A) (A) (A) (A) (A) (A)
                 (A) (A) (A) (A) (A) (A) (A) (A) (A) (A) (A) (A)
                 (A) (A) (A) (A) (A) (A) (A) (A) (A) (A) (A) (A)
                 (A) (A) (A) (A) (A) (A) (A) (A) (A) (A) (A) (A)
                 (A) (A) (A) (A) (A) (A) (A) (A) (A) (A) (A) (A)
                 (A) (A) (A) (A) (A) (A) (A) (A) (A) (A) (A) (A)
                 (A) (A) (A) (A) (A) (A) (A) (A) (A) (A) (A) (A)
                 (A) (A) (A) (A) (A) (A) (A) (A) (A) (A) (A) (A)
                 (A) (A) (A) (A) (A) (A) (A) (A) (A) (A) (A) (A)
                 (A) (A) (A) (A) (A) (A) (A) (A) (A) (A) (A) (A)
                 (A) (A) (A) (A) (A) (A) (A) (A) (A) (A) (A) (A)
                 (A) (A) (A) (A) (A) (A) (A) (A) (A) (A) (A)
 The electronic state is 1-A.
 Alpha  occ. eigenvalues --  -19.14898 -19.11925 -10.26615 -10.24078 -10.20079
 Alpha  occ. eigenvalues --  -10.19386 -10.18755 -10.17777 -10.17593 -10.17510
 Alpha  occ. eigenvalues --   -1.08240  -1.04109  -0.85979  -0.79226  -0.76279
 Alpha  occ. eigenvalues --   -0.69846  -0.67084  -0.61561  -0.60239  -0.53862
 Alpha  occ. eigenvalues --   -0.50694  -0.48612  -0.47885  -0.44497  -0.43342
 Alpha  occ. eigenvalues --   -0.42526  -0.41785  -0.41323  -0.40373  -0.38438
 Alpha  occ. eigenvalues --   -0.38123  -0.37422  -0.36024  -0.34650  -0.30089
 Alpha  occ. eigenvalues --   -0.27212  -0.21982
 Alpha virt. eigenvalues --   -0.07633   0.00909   0.04081   0.05166   0.07007
 Alpha virt. eigenvalues --    0.08020   0.08426   0.08974   0.09529   0.11459
 Alpha virt. eigenvalues --    0.12666   0.13797   0.14699   0.18843   0.19809
 Alpha virt. eigenvalues --    0.20241   0.23025   0.24913   0.25358   0.27282
 Alpha virt. eigenvalues --    0.29352   0.30504   0.30981   0.33012   0.35811
 Alpha virt. eigenvalues --    0.36958   0.38015   0.39138   0.41271   0.43365
 Alpha virt. eigenvalues --    0.44489   0.45304   0.47292   0.48059   0.48461
 Alpha virt. eigenvalues --    0.49904   0.50423   0.52579   0.54163   0.55119
 Alpha virt. eigenvalues --    0.55442   0.56679   0.57560   0.58017   0.58685
 Alpha virt. eigenvalues --    0.59735   0.59892   0.61022   0.62168   0.62493
 Alpha virt. eigenvalues --    0.63921   0.64825   0.66455   0.67642   0.74541
 Alpha virt. eigenvalues --    0.76369   0.77676   0.80805   0.82344   0.84821
 Alpha virt. eigenvalues --    0.86304   0.88253   0.90136   0.90680   0.92633
 Alpha virt. eigenvalues --    0.93307   0.95382   0.97507   1.00563   1.02560
 Alpha virt. eigenvalues --    1.06039   1.07755   1.10544   1.15120   1.18815
 Alpha virt. eigenvalues --    1.21663   1.24692   1.27035   1.31781   1.33528
 Alpha virt. eigenvalues --    1.35026   1.38114   1.38843   1.41049   1.44477
 Alpha virt. eigenvalues --    1.45132   1.45811   1.47398   1.47575   1.50611
 Alpha virt. eigenvalues --    1.52025   1.53497   1.54357   1.54935   1.55561
 Alpha virt. eigenvalues --    1.57629   1.58166   1.59817   1.62384   1.63802
 Alpha virt. eigenvalues --    1.65256   1.67014   1.67485   1.72560   1.73193
 Alpha virt. eigenvalues --    1.74632   1.76443   1.79084   1.80018   1.81921
 Alpha virt. eigenvalues --    1.84654   1.88169   1.92459   1.93024   1.94419
 Alpha virt. eigenvalues --    1.99061   1.99878   2.01608   2.03872   2.06602
 Alpha virt. eigenvalues --    2.08240   2.08751   2.10628   2.11993   2.17450
 Alpha virt. eigenvalues --    2.20305   2.24214   2.27819   2.32140   2.34291
 Alpha virt. eigenvalues --    2.35510   2.39143   2.39909   2.43136   2.45348
 Alpha virt. eigenvalues --    2.48434   2.49687   2.50004   2.52596   2.54074
 Alpha virt. eigenvalues --    2.54376   2.56118   2.56549   2.57588   2.59735
 Alpha virt. eigenvalues --    2.60651   2.63818   2.65648   2.69809   2.73200
 Alpha virt. eigenvalues --    2.74837   2.78085   2.82811   2.85011   2.89030
 Alpha virt. eigenvalues --    2.89911   2.91207   2.92557   2.95453   3.00055
 Alpha virt. eigenvalues --    3.02840   3.07820   3.10230   3.12169   3.15957
 Alpha virt. eigenvalues --    3.16207   3.28878   3.32256   3.33292   3.36777
 Alpha virt. eigenvalues --    3.39369   3.54069   3.58912   3.62056   3.63670
 Alpha virt. eigenvalues --    3.77346   3.78046   3.79842   3.81597   3.83039
 Alpha virt. eigenvalues --    3.88969   3.99547   4.04325   4.12812   4.23921
 Alpha virt. eigenvalues --    4.30472   4.70032   4.80008   4.91667   5.07236
 Alpha virt. eigenvalues --    5.34819   5.60841   5.70520  23.51968  23.74319
 Alpha virt. eigenvalues --   23.81927  23.83951  23.91256  23.94004  24.15858
 Alpha virt. eigenvalues --   24.20721  49.89488  49.98124
  Beta  occ. eigenvalues --  -19.14898 -19.11925 -10.26615 -10.24078 -10.20079
  Beta  occ. eigenvalues --  -10.19386 -10.18755 -10.17777 -10.17593 -10.17510
  Beta  occ. eigenvalues --   -1.08240  -1.04109  -0.85979  -0.79226  -0.76279
  Beta  occ. eigenvalues --   -0.69846  -0.67084  -0.61561  -0.60239  -0.53862
  Beta  occ. eigenvalues --   -0.50694  -0.48612  -0.47885  -0.44497  -0.43342
  Beta  occ. eigenvalues --   -0.42526  -0.41785  -0.41323  -0.40373  -0.38438
  Beta  occ. eigenvalues --   -0.38123  -0.37422  -0.36024  -0.34650  -0.30089
  Beta  occ. eigenvalues --   -0.27212  -0.21982
  Beta virt. eigenvalues --   -0.07633   0.00909   0.04081   0.05166   0.07007
  Beta virt. eigenvalues --    0.08020   0.08426   0.08974   0.09529   0.11459
  Beta virt. eigenvalues --    0.12666   0.13797   0.14699   0.18843   0.19809
  Beta virt. eigenvalues --    0.20241   0.23025   0.24913   0.25358   0.27282
  Beta virt. eigenvalues --    0.29352   0.30504   0.30981   0.33012   0.35811
  Beta virt. eigenvalues --    0.36958   0.38015   0.39138   0.41271   0.43365
  Beta virt. eigenvalues --    0.44489   0.45304   0.47292   0.48059   0.48461
  Beta virt. eigenvalues --    0.49904   0.50423   0.52579   0.54163   0.55119
  Beta virt. eigenvalues --    0.55442   0.56679   0.57560   0.58017   0.58685
  Beta virt. eigenvalues --    0.59735   0.59892   0.61022   0.62168   0.62493
  Beta virt. eigenvalues --    0.63921   0.64825   0.66455   0.67642   0.74541
  Beta virt. eigenvalues --    0.76369   0.77676   0.80805   0.82344   0.84821
  Beta virt. eigenvalues --    0.86304   0.88253   0.90136   0.90680   0.92633
  Beta virt. eigenvalues --    0.93307   0.95382   0.97507   1.00563   1.02560
  Beta virt. eigenvalues --    1.06039   1.07755   1.10544   1.15120   1.18815
  Beta virt. eigenvalues --    1.21663   1.24692   1.27035   1.31781   1.33528
  Beta virt. eigenvalues --    1.35026   1.38114   1.38843   1.41049   1.44477
  Beta virt. eigenvalues --    1.45132   1.45811   1.47398   1.47575   1.50611
  Beta virt. eigenvalues --    1.52025   1.53497   1.54357   1.54935   1.55561
  Beta virt. eigenvalues --    1.57629   1.58166   1.59817   1.62384   1.63802
  Beta virt. eigenvalues --    1.65256   1.67014   1.67485   1.72560   1.73193
  Beta virt. eigenvalues --    1.74632   1.76443   1.79084   1.80018   1.81921
  Beta virt. eigenvalues --    1.84654   1.88169   1.92459   1.93024   1.94419
  Beta virt. eigenvalues --    1.99061   1.99878   2.01608   2.03872   2.06602
  Beta virt. eigenvalues --    2.08240   2.08751   2.10628   2.11993   2.17450
  Beta virt. eigenvalues --    2.20305   2.24214   2.27819   2.32140   2.34291
  Beta virt. eigenvalues --    2.35510   2.39143   2.39909   2.43136   2.45348
  Beta virt. eigenvalues --    2.48434   2.49687   2.50004   2.52596   2.54074
  Beta virt. eigenvalues --    2.54376   2.56118   2.56549   2.57588   2.59735
  Beta virt. eigenvalues --    2.60651   2.63818   2.65648   2.69809   2.73200
  Beta virt. eigenvalues --    2.74837   2.78085   2.82811   2.85011   2.89030
  Beta virt. eigenvalues --    2.89911   2.91207   2.92557   2.95453   3.00055
  Beta virt. eigenvalues --    3.02840   3.07820   3.10230   3.12169   3.15957
  Beta virt. eigenvalues --    3.16207   3.28878   3.32256   3.33292   3.36777
  Beta virt. eigenvalues --    3.39369   3.54069   3.58912   3.62056   3.63670
  Beta virt. eigenvalues --    3.77346   3.78046   3.79842   3.81597   3.83039
  Beta virt. eigenvalues --    3.88969   3.99547   4.04325   4.12812   4.23921
  Beta virt. eigenvalues --    4.30472   4.70032   4.80008   4.91667   5.07236
  Beta virt. eigenvalues --    5.34819   5.60841   5.70520  23.51968  23.74319
  Beta virt. eigenvalues --   23.81927  23.83951  23.91256  23.94004  24.15858
  Beta virt. eigenvalues --   24.20721  49.89488  49.98124
          Condensed to atoms (all electrons):
               1          2          3          4          5          6
     1  C    5.017981   0.274172  -0.027357  -0.016658  -0.061181   0.631852
     2  C    0.274172   5.311165   0.239344  -0.063761  -0.015253  -0.046642
     3  C   -0.027357   0.239344   4.931864   0.266637  -0.027861  -0.026544
     4  C   -0.016658  -0.063761   0.266637   5.003389   0.504791  -0.054005
     5  C   -0.061181  -0.015253  -0.027861   0.504791   4.970189   0.412281
     6  C    0.631852  -0.046642  -0.026544  -0.054005   0.412281   4.983895
     7  H    0.007982  -0.002357   0.011373  -0.028055   0.395422  -0.047449
     8  O   -0.000450   0.004974  -0.074850   0.388812  -0.064704   0.004021
     9  O    0.005825  -0.083562   0.599324  -0.090801   0.007384  -0.000379
    10  H   -0.000783   0.006036  -0.020377  -0.063029   0.008617   0.000061
    11  H   -0.025912   0.370746  -0.021102   0.002049   0.000265  -0.003039
    12  C   -0.058721   0.343954  -0.057484   0.003079  -0.001588   0.003228
    13  H   -0.007157  -0.029421   0.007950  -0.000308  -0.000027   0.000168
    14  H    0.009243  -0.034479  -0.012717   0.001774  -0.000429  -0.000150
    15  H   -0.002106  -0.043009  -0.004303  -0.000152   0.000705   0.000725
    16  H    0.403207  -0.037698   0.004917  -0.000739   0.007658  -0.027781
    17  C   -0.054807   0.007072  -0.000578   0.005763  -0.062603   0.370374
    18  H   -0.000440  -0.000198  -0.000015   0.000331  -0.002551  -0.039719
    19  H   -0.000271  -0.000399  -0.000011   0.000299  -0.001873  -0.039029
    20  H   -0.007683   0.000322   0.000024  -0.000391   0.007152  -0.033061
               7          8          9         10         11         12
     1  C    0.007982  -0.000450   0.005825  -0.000783  -0.025912  -0.058721
     2  C   -0.002357   0.004974  -0.083562   0.006036   0.370746   0.343954
     3  C    0.011373  -0.074850   0.599324  -0.020377  -0.021102  -0.057484
     4  C   -0.028055   0.388812  -0.090801  -0.063029   0.002049   0.003079
     5  C    0.395422  -0.064704   0.007384   0.008617   0.000265  -0.001588
     6  C   -0.047449   0.004021  -0.000379   0.000061  -0.003039   0.003228
     7  H    0.560669   0.003386  -0.000263  -0.001162   0.000138   0.000071
     8  O    0.003386   7.774899  -0.014430   0.322680  -0.000122  -0.000073
     9  O   -0.000263  -0.014430   7.870803   0.047376   0.000621  -0.004047
    10  H   -0.001162   0.322680   0.047376   0.447233  -0.000226  -0.000122
    11  H    0.000138  -0.000122   0.000621  -0.000226   0.545260  -0.027872
    12  C    0.000071  -0.000073  -0.004047  -0.000122  -0.027872   4.869903
    13  H   -0.000006   0.000004  -0.000275   0.000012  -0.008565   0.403405
    14  H    0.000012   0.000005   0.017090  -0.000179  -0.002988   0.397688
    15  H    0.000009  -0.000017   0.000524  -0.000025   0.008463   0.406224
    16  H   -0.000367   0.000009  -0.000140   0.000012  -0.002017  -0.002823
    17  C   -0.006273  -0.000060  -0.000001   0.000029  -0.000381  -0.000254
    18  H    0.000780  -0.000008  -0.000001   0.000001  -0.000022   0.000049
    19  H    0.000940  -0.000008   0.000000   0.000000   0.000107  -0.000005
    20  H    0.000099   0.000002   0.000000  -0.000001  -0.000028  -0.000035
              13         14         15         16         17         18
     1  C   -0.007157   0.009243  -0.002106   0.403207  -0.054807  -0.000440
     2  C   -0.029421  -0.034479  -0.043009  -0.037698   0.007072  -0.000198
     3  C    0.007950  -0.012717  -0.004303   0.004917  -0.000578  -0.000015
     4  C   -0.000308   0.001774  -0.000152  -0.000739   0.005763   0.000331
     5  C   -0.000027  -0.000429   0.000705   0.007658  -0.062603  -0.002551
     6  C    0.000168  -0.000150   0.000725  -0.027781   0.370374  -0.039719
     7  H   -0.000006   0.000012   0.000009  -0.000367  -0.006273   0.000780
     8  O    0.000004   0.000005  -0.000017   0.000009  -0.000060  -0.000008
     9  O   -0.000275   0.017090   0.000524  -0.000140  -0.000001  -0.000001
    10  H    0.000012  -0.000179  -0.000025   0.000012   0.000029   0.000001
    11  H   -0.008565  -0.002988   0.008463  -0.002017  -0.000381  -0.000022
    12  C    0.403405   0.397688   0.406224  -0.002823  -0.000254   0.000049
    13  H    0.575309  -0.025394  -0.030008   0.003447   0.000004   0.000001
    14  H   -0.025394   0.543078  -0.024642  -0.000438   0.000018  -0.000004
    15  H   -0.030008  -0.024642   0.569747   0.000054  -0.000138  -0.000024
    16  H    0.003447  -0.000438   0.000054   0.566061  -0.010672   0.000285
    17  C    0.000004   0.000018  -0.000138  -0.010672   4.798506   0.402912
    18  H    0.000001  -0.000004  -0.000024   0.000285   0.402912   0.577241
    19  H    0.000000   0.000001   0.000011   0.000137   0.400679  -0.034308
    20  H   -0.000004   0.000001  -0.000002   0.004340   0.406441  -0.026319
              19         20
     1  C   -0.000271  -0.007683
     2  C   -0.000399   0.000322
     3  C   -0.000011   0.000024
     4  C    0.000299  -0.000391
     5  C   -0.001873   0.007152
     6  C   -0.039029  -0.033061
     7  H    0.000940   0.000099
     8  O   -0.000008   0.000002
     9  O    0.000000   0.000000
    10  H    0.000000  -0.000001
    11  H    0.000107  -0.000028
    12  C   -0.000005  -0.000035
    13  H    0.000000  -0.000004
    14  H    0.000001   0.000001
    15  H    0.000011  -0.000002
    16  H    0.000137   0.004340
    17  C    0.400679   0.406441
    18  H   -0.034308  -0.026319
    19  H    0.577609  -0.025907
    20  H   -0.025907   0.566570
          Atomic-Atomic Spin Densities.
               1          2          3          4          5          6
     1  C    0.000000   0.000000   0.000000   0.000000   0.000000   0.000000
     2  C    0.000000   0.000000   0.000000   0.000000   0.000000   0.000000
     3  C    0.000000   0.000000   0.000000   0.000000   0.000000   0.000000
     4  C    0.000000   0.000000   0.000000   0.000000   0.000000   0.000000
     5  C    0.000000   0.000000   0.000000   0.000000   0.000000   0.000000
     6  C    0.000000   0.000000   0.000000   0.000000   0.000000   0.000000
     7  H    0.000000   0.000000   0.000000   0.000000   0.000000   0.000000
     8  O    0.000000   0.000000   0.000000   0.000000   0.000000   0.000000
     9  O    0.000000   0.000000   0.000000   0.000000   0.000000   0.000000
    10  H    0.000000   0.000000   0.000000   0.000000   0.000000   0.000000
    11  H    0.000000   0.000000   0.000000   0.000000   0.000000   0.000000
    12  C    0.000000   0.000000   0.000000   0.000000   0.000000   0.000000
    13  H    0.000000   0.000000   0.000000   0.000000   0.000000   0.000000
    14  H    0.000000   0.000000   0.000000   0.000000   0.000000   0.000000
    15  H    0.000000   0.000000   0.000000   0.000000   0.000000   0.000000
    16  H    0.000000   0.000000   0.000000   0.000000   0.000000   0.000000
    17  C    0.000000   0.000000   0.000000   0.000000   0.000000   0.000000
    18  H    0.000000   0.000000   0.000000   0.000000   0.000000   0.000000
    19  H    0.000000   0.000000   0.000000   0.000000   0.000000   0.000000
    20  H    0.000000   0.000000   0.000000   0.000000   0.000000   0.000000
               7          8          9         10         11         12
     1  C    0.000000   0.000000   0.000000   0.000000   0.000000   0.000000
     2  C    0.000000   0.000000   0.000000   0.000000   0.000000   0.000000
     3  C    0.000000   0.000000   0.000000   0.000000   0.000000   0.000000
     4  C    0.000000   0.000000   0.000000   0.000000   0.000000   0.000000
     5  C    0.000000   0.000000   0.000000   0.000000   0.000000   0.000000
     6  C    0.000000   0.000000   0.000000   0.000000   0.000000   0.000000
     7  H    0.000000   0.000000   0.000000   0.000000   0.000000   0.000000
     8  O    0.000000   0.000000   0.000000   0.000000   0.000000   0.000000
     9  O    0.000000   0.000000   0.000000   0.000000   0.000000   0.000000
    10  H    0.000000   0.000000   0.000000   0.000000   0.000000   0.000000
    11  H    0.000000   0.000000   0.000000   0.000000   0.000000   0.000000
    12  C    0.000000   0.000000   0.000000   0.000000   0.000000   0.000000
    13  H    0.000000   0.000000   0.000000   0.000000   0.000000   0.000000
    14  H    0.000000   0.000000   0.000000   0.000000   0.000000   0.000000
    15  H    0.000000   0.000000   0.000000   0.000000   0.000000   0.000000
    16  H    0.000000   0.000000   0.000000   0.000000   0.000000   0.000000
    17  C    0.000000   0.000000   0.000000   0.000000   0.000000   0.000000
    18  H    0.000000   0.000000   0.000000   0.000000   0.000000   0.000000
    19  H    0.000000   0.000000   0.000000   0.000000   0.000000   0.000000
    20  H    0.000000   0.000000   0.000000   0.000000   0.000000   0.000000
              13         14         15         16         17         18
     1  C    0.000000   0.000000   0.000000   0.000000   0.000000   0.000000
     2  C    0.000000   0.000000   0.000000   0.000000   0.000000   0.000000
     3  C    0.000000   0.000000   0.000000   0.000000   0.000000   0.000000
     4  C    0.000000   0.000000   0.000000   0.000000   0.000000   0.000000
     5  C    0.000000   0.000000   0.000000   0.000000   0.000000   0.000000
     6  C    0.000000   0.000000   0.000000   0.000000   0.000000   0.000000
     7  H    0.000000   0.000000   0.000000   0.000000   0.000000   0.000000
     8  O    0.000000   0.000000   0.000000   0.000000   0.000000   0.000000
     9  O    0.000000   0.000000   0.000000   0.000000   0.000000   0.000000
    10  H    0.000000   0.000000   0.000000   0.000000   0.000000   0.000000
    11  H    0.000000   0.000000   0.000000   0.000000   0.000000   0.000000
    12  C    0.000000   0.000000   0.000000   0.000000   0.000000   0.000000
    13  H    0.000000   0.000000   0.000000   0.000000   0.000000   0.000000
    14  H    0.000000   0.000000   0.000000   0.000000   0.000000   0.000000
    15  H    0.000000   0.000000   0.000000   0.000000   0.000000   0.000000
    16  H    0.000000   0.000000   0.000000   0.000000   0.000000   0.000000
    17  C    0.000000   0.000000   0.000000   0.000000   0.000000   0.000000
    18  H    0.000000   0.000000   0.000000   0.000000   0.000000   0.000000
    19  H    0.000000   0.000000   0.000000   0.000000   0.000000   0.000000
    20  H    0.000000   0.000000   0.000000   0.000000   0.000000   0.000000
              19         20
     1  C    0.000000   0.000000
     2  C    0.000000   0.000000
     3  C    0.000000   0.000000
     4  C    0.000000   0.000000
     5  C    0.000000   0.000000
     6  C    0.000000   0.000000
     7  H    0.000000   0.000000
     8  O    0.000000   0.000000
     9  O    0.000000   0.000000
    10  H    0.000000   0.000000
    11  H    0.000000   0.000000
    12  C    0.000000   0.000000
    13  H    0.000000   0.000000
    14  H    0.000000   0.000000
    15  H    0.000000   0.000000
    16  H    0.000000   0.000000
    17  C    0.000000   0.000000
    18  H    0.000000   0.000000
    19  H    0.000000   0.000000
    20  H    0.000000   0.000000
 Mulliken charges and spin densities:
               1          2
     1  C   -0.086736   0.000000
     2  C   -0.201005   0.000000
     3  C    0.211766   0.000000
     4  C    0.140975   0.000000
     5  C   -0.076395   0.000000
     6  C   -0.088807   0.000000
     7  H    0.105053   0.000000
     8  O   -0.344072   0.000000
     9  O   -0.355048   0.000000
    10  H    0.253845   0.000000
    11  H    0.164626   0.000000
    12  C   -0.274578   0.000000
    13  H    0.110865   0.000000
    14  H    0.132511   0.000000
    15  H    0.117966   0.000000
    16  H    0.092547   0.000000
    17  C   -0.256031   0.000000
    18  H    0.122008   0.000000
    19  H    0.122030   0.000000
    20  H    0.108480   0.000000
 Sum of Mulliken charges =   0.00000   0.00000
 Mulliken charges and spin densities with hydrogens summed into heavy atoms:
               1          2
     1  C    0.005811   0.000000
     2  C   -0.036379   0.000000
     3  C    0.211766   0.000000
     4  C    0.140975   0.000000
     5  C    0.028658   0.000000
     6  C   -0.088807   0.000000
     8  O   -0.090227   0.000000
     9  O   -0.355048   0.000000
    12  C    0.086764   0.000000
    17  C    0.096487   0.000000
 Electronic spatial extent (au):  <R**2>=           1505.3882
 Charge=              0.0000 electrons
 Dipole moment (field-independent basis, Debye):
    X=              2.2201    Y=              1.3684    Z=             -0.1636  Tot=              2.6131
 Quadrupole moment (field-independent basis, Debye-Ang):
   XX=            -60.9446   YY=            -59.1674   ZZ=            -60.1531
   XY=             -0.3722   XZ=             -0.0946   YZ=             -0.5201
 Traceless Quadrupole moment (field-independent basis, Debye-Ang):
   XX=             -0.8562   YY=              0.9210   ZZ=             -0.0647
   XY=             -0.3722   XZ=             -0.0946   YZ=             -0.5201
 Octapole moment (field-independent basis, Debye-Ang**2):
  XXX=              6.9099  YYY=              7.4469  ZZZ=             -0.3268  XYY=             -2.9028
  XXY=            -12.2631  XXZ=              2.6314  XZZ=             -7.5285  YZZ=             -2.0316
  YYZ=             -2.6638  XYZ=             -1.1277
 Hexadecapole moment (field-independent basis, Debye-Ang**3):
 XXXX=          -1103.3645 YYYY=           -805.3039 ZZZZ=           -107.2713 XXXY=             36.7267
 XXXZ=             -5.8752 YYYX=              6.9025 YYYZ=             -4.8635 ZZZX=              4.4797
 ZZZY=             -2.7100 XXYY=           -283.1188 XXZZ=           -199.6693 YYZZ=           -151.9578
 XXYZ=             -2.2735 YYXZ=              1.6513 ZZXY=              1.0196
 N-N= 5.184436007741D+02 E-N=-2.113521004214D+03  KE= 4.596534375106D+02
                          Isotropic Fermi Contact Couplings
        Atom                 a.u.       MegaHertz       Gauss      10(-4) cm-1
     1  C(13)              0.00000       0.00000       0.00000       0.00000
     2  C(13)              0.00000       0.00000       0.00000       0.00000
     3  C(13)              0.00000       0.00000       0.00000       0.00000
     4  C(13)              0.00000       0.00000       0.00000       0.00000
     5  C(13)              0.00000       0.00000       0.00000       0.00000
     6  C(13)              0.00000       0.00000       0.00000       0.00000
     7  H(1)               0.00000       0.00000       0.00000       0.00000
     8  O(17)              0.00000       0.00000       0.00000       0.00000
     9  O(17)              0.00000       0.00000       0.00000       0.00000
    10  H(1)               0.00000       0.00000       0.00000       0.00000
    11  H(1)               0.00000       0.00000       0.00000       0.00000
    12  C(13)              0.00000       0.00000       0.00000       0.00000
    13  H(1)               0.00000       0.00000       0.00000       0.00000
    14  H(1)               0.00000       0.00000       0.00000       0.00000
    15  H(1)               0.00000       0.00000       0.00000       0.00000
    16  H(1)               0.00000       0.00000       0.00000       0.00000
    17  C(13)              0.00000       0.00000       0.00000       0.00000
    18  H(1)               0.00000       0.00000       0.00000       0.00000
    19  H(1)               0.00000       0.00000       0.00000       0.00000
    20  H(1)               0.00000       0.00000       0.00000       0.00000
 --------------------------------------------------------
       Center         ----  Spin Dipole Couplings  ----
                      3XX-RR        3YY-RR        3ZZ-RR
 --------------------------------------------------------
     1   Atom        0.000000      0.000000      0.000000
     2   Atom        0.000000      0.000000      0.000000
     3   Atom        0.000000      0.000000      0.000000
     4   Atom        0.000000      0.000000      0.000000
     5   Atom        0.000000      0.000000      0.000000
     6   Atom        0.000000      0.000000      0.000000
     7   Atom        0.000000      0.000000      0.000000
     8   Atom        0.000000      0.000000      0.000000
     9   Atom        0.000000      0.000000      0.000000
    10   Atom        0.000000      0.000000      0.000000
    11   Atom        0.000000      0.000000      0.000000
    12   Atom        0.000000      0.000000      0.000000
    13   Atom        0.000000      0.000000      0.000000
    14   Atom        0.000000      0.000000      0.000000
    15   Atom        0.000000      0.000000      0.000000
    16   Atom        0.000000      0.000000      0.000000
    17   Atom        0.000000      0.000000      0.000000
    18   Atom        0.000000      0.000000      0.000000
    19   Atom        0.000000      0.000000      0.000000
    20   Atom        0.000000      0.000000      0.000000
 --------------------------------------------------------
                        XY            XZ            YZ
 --------------------------------------------------------
     1   Atom        0.000000      0.000000      0.000000
     2   Atom        0.000000      0.000000      0.000000
     3   Atom        0.000000      0.000000      0.000000
     4   Atom        0.000000      0.000000      0.000000
     5   Atom        0.000000      0.000000      0.000000
     6   Atom        0.000000      0.000000      0.000000
     7   Atom        0.000000      0.000000      0.000000
     8   Atom        0.000000      0.000000      0.000000
     9   Atom        0.000000      0.000000      0.000000
    10   Atom        0.000000      0.000000      0.000000
    11   Atom        0.000000      0.000000      0.000000
    12   Atom        0.000000      0.000000      0.000000
    13   Atom        0.000000      0.000000      0.000000
    14   Atom        0.000000      0.000000      0.000000
    15   Atom        0.000000      0.000000      0.000000
    16   Atom        0.000000      0.000000      0.000000
    17   Atom        0.000000      0.000000      0.000000
    18   Atom        0.000000      0.000000      0.000000
    19   Atom        0.000000      0.000000      0.000000
    20   Atom        0.000000      0.000000      0.000000
 --------------------------------------------------------


 ---------------------------------------------------------------------------------
              Anisotropic Spin Dipole Couplings in Principal Axis System
 ---------------------------------------------------------------------------------

       Atom             a.u.   MegaHertz   Gauss  10(-4) cm-1        Axes

              Baa     0.0000     0.000     0.000     0.000 -0.1597 -0.1122  0.9808
     1 C(13)  Bbb     0.0000     0.000     0.000     0.000 -0.2292  0.9706  0.0737
              Bcc     0.0000     0.000     0.000     0.000  0.9602  0.2130  0.1808
 
              Baa     0.0000     0.000     0.000     0.000 -0.5663  0.5995 -0.5656
     2 C(13)  Bbb     0.0000     0.000     0.000     0.000  0.8241  0.4230 -0.3768
              Bcc     0.0000     0.000     0.000     0.000 -0.0134  0.6795  0.7336
 
              Baa     0.0000     0.000     0.000     0.000  0.6428 -0.5816 -0.4986
     3 C(13)  Bbb     0.0000     0.000     0.000     0.000  0.2971 -0.4106  0.8620
              Bcc     0.0000     0.000     0.000     0.000  0.7061  0.7022  0.0911
 
              Baa     0.0000     0.000     0.000     0.000  0.5088 -0.3325  0.7941
     4 C(13)  Bbb     0.0000     0.000     0.000     0.000  0.1718  0.9431  0.2848
              Bcc     0.0000     0.000     0.000     0.000  0.8436  0.0085 -0.5370
 
              Baa     0.0000     0.000     0.000     0.000 -0.0998  0.4290  0.8978
     5 C(13)  Bbb     0.0000     0.000     0.000     0.000 -0.5499  0.7282 -0.4091
              Bcc     0.0000     0.000     0.000     0.000  0.8293  0.5345 -0.1632
 
              Baa     0.0000     0.000     0.000     0.000  0.9548  0.2895  0.0675
     6 C(13)  Bbb     0.0000     0.000     0.000     0.000 -0.0451 -0.0836  0.9955
              Bcc     0.0000     0.000     0.000     0.000 -0.2938  0.9535  0.0667
 
              Baa     0.0000     0.000     0.000     0.000 -0.5361  0.8286 -0.1616
     7 H(1)   Bbb     0.0000     0.000     0.000     0.000 -0.0508  0.1594  0.9859
              Bcc     0.0000     0.000     0.000     0.000  0.8427  0.5367 -0.0434
 
              Baa     0.0000     0.000     0.000     0.000  0.9435  0.3306 -0.0217
     8 O(17)  Bbb     0.0000     0.000     0.000     0.000 -0.2801  0.8309  0.4807
              Bcc     0.0000     0.000     0.000     0.000  0.1769 -0.4475  0.8766
 
              Baa     0.0000     0.000     0.000     0.000 -0.6259  0.7776 -0.0599
     9 O(17)  Bbb     0.0000     0.000     0.000     0.000 -0.0829  0.0101  0.9965
              Bcc     0.0000     0.000     0.000     0.000  0.7755  0.6287  0.0581
 
              Baa     0.0000     0.000     0.000     0.000 -0.1484 -0.6643  0.7326
    10 H(1)   Bbb     0.0000     0.000     0.000     0.000  0.5538  0.5579  0.6181
              Bcc     0.0000     0.000     0.000     0.000  0.8193 -0.4974 -0.2851
 
              Baa     0.0000     0.000     0.000     0.000  0.1855  0.9604  0.2078
    11 H(1)   Bbb     0.0000     0.000     0.000     0.000  0.9225 -0.0973 -0.3736
              Bcc     0.0000     0.000     0.000     0.000  0.3386 -0.2610  0.9040
 
              Baa     0.0000     0.000     0.000     0.000  0.9897 -0.0659  0.1272
    12 C(13)  Bbb     0.0000     0.000     0.000     0.000  0.0125  0.9241  0.3821
              Bcc     0.0000     0.000     0.000     0.000 -0.1427 -0.3765  0.9154
 
              Baa     0.0000     0.000     0.000     0.000  0.8104  0.0860  0.5796
    13 H(1)   Bbb     0.0000     0.000     0.000     0.000 -0.5718  0.3321  0.7502
              Bcc     0.0000     0.000     0.000     0.000  0.1279  0.9393 -0.3183
 
              Baa     0.0000     0.000     0.000     0.000  0.2079  0.9732 -0.0987
    14 H(1)   Bbb     0.0000     0.000     0.000     0.000 -0.4154  0.1792  0.8918
              Bcc     0.0000     0.000     0.000     0.000  0.8856 -0.1444  0.4415
 
              Baa     0.0000     0.000     0.000     0.000  0.1764  0.9745  0.1388
    15 H(1)   Bbb     0.0000     0.000     0.000     0.000  0.9829 -0.1669 -0.0777
              Bcc     0.0000     0.000     0.000     0.000  0.0526 -0.1502  0.9873
 
              Baa     0.0000     0.000     0.000     0.000  0.5299  0.1297  0.8381
    16 H(1)   Bbb     0.0000     0.000     0.000     0.000  0.7908 -0.4325 -0.4331
              Bcc     0.0000     0.000     0.000     0.000  0.3064  0.8922 -0.3317
 
              Baa     0.0000     0.000     0.000     0.000  0.6415  0.7424 -0.1930
    17 C(13)  Bbb     0.0000     0.000     0.000     0.000  0.3068 -0.0177  0.9516
              Bcc     0.0000     0.000     0.000     0.000  0.7031 -0.6697 -0.2391
 
              Baa     0.0000     0.000     0.000     0.000 -0.2433 -0.4985  0.8320
    18 H(1)   Bbb     0.0000     0.000     0.000     0.000 -0.1406  0.8669  0.4783
              Bcc     0.0000     0.000     0.000     0.000  0.9597  0.0005  0.2810
 
              Baa     0.0000     0.000     0.000     0.000  0.1249  0.8035  0.5820
    19 H(1)   Bbb     0.0000     0.000     0.000     0.000  0.3499 -0.5846  0.7320
              Bcc     0.0000     0.000     0.000     0.000  0.9284  0.1122 -0.3542
 
              Baa     0.0000     0.000     0.000     0.000  0.2051  0.9780 -0.0392
    20 H(1)   Bbb     0.0000     0.000     0.000     0.000  0.0126  0.0374  0.9992
              Bcc     0.0000     0.000     0.000     0.000  0.9787 -0.2054 -0.0047
 

 ---------------------------------------------------------------------------------

 1|1|UNPC-PC-20250526LCFF|SP|UB3LYP|6-311G(d,p)|C8H10O2|ADMINISTRATOR|0
 2-Dec-2025|0||# ub3lyp/6-311g(d,p) geom=connectivity temperature=823.1
 5||Title Card Required||0,1|C,0,1.052157,1.140741,-0.260316|C,0,-0.438
 03,1.279929,-0.380437|C,0,-1.216434,-0.008717,-0.180563|C,0,-0.465371,
 -1.259155,0.031188|C,0,0.885148,-1.258939,0.098941|C,0,1.667613,-0.035
 471,-0.043956|H,0,1.400409,-2.197941,0.273554|O,0,-1.22389,-2.363855,0
 .176368|O,0,-2.441702,-0.057016,-0.197449|H,0,-2.14271,-2.048218,0.093
 965|H,0,-0.660237,1.565713,-1.421577|C,0,-1.007475,2.397709,0.521193|H
 ,0,-0.562955,3.360948,0.261793|H,0,-2.088833,2.459411,0.395772|H,0,-0.
 788143,2.191577,1.571459|H,0,1.634459,2.05082,-0.368347|C,0,3.166027,-
 0.158942,0.062188|H,0,3.457566,-0.577376,1.031336|H,0,3.559227,-0.8311
 99,-0.707862|H,0,3.654138,0.810301,-0.050877||Version=EM64W-G16RevA.03
 |State=1-A|HF=-461.4291138|S2=0.|S2-1=0.|S2A=0.|RMSD=4.279e-009|Dipole
 =0.8734686,0.5383663,-0.0643467|Quadrupole=-0.6365997,0.6847315,-0.048
 1318,-0.2767302,-0.0703379,-0.3866669|PG=C01 [X(C8H10O2)]||@


 WE SHOULD BE CAREFUL TO GET OUT OF AN EXPERIENCE ONLY THE WISDOM
 THAT IS IN IT -- AND STOP THERE;
 LEST WE BE LIKE THE CAT THAT SITS DOWN ON A HOT STOVE-LID.
 SHE WILL NEVER SIT DOWN ON A HOT STOVE LID AGAIN;
 BUT ALSO SHE WILL NEVER SIT DOWN ON A COLD ONE ANY MORE.

                                                     -- MARK TWAIN
 Job cpu time:       0 days  0 hours  0 minutes 34.0 seconds.
 Elapsed time:       0 days  0 hours  0 minutes 34.2 seconds.
 File lengths (MBytes):  RWF=     59 Int=      0 D2E=      0 Chk=      5 Scr=      1
 Normal termination of Gaussian 16 at Tue Dec 02 11:29:31 2025.
