 Entering Link 1 = D:\Gaussian\G16W\l1.exe PID=     43576.
  
 Copyright (c) 1988,1990,1992,1993,1995,1998,2003,2009,2016,
            Gaussian, Inc.  All Rights Reserved.
  
 This is part of the Gaussian(R) 16 program.  It is based on
 the Gaussian(R) 09 system (copyright 2009, Gaussian, Inc.),
 the Gaussian(R) 03 system (copyright 2003, Gaussian, Inc.),
 the Gaussian(R) 98 system (copyright 1998, Gaussian, Inc.),
 the Gaussian(R) 94 system (copyright 1995, Gaussian, Inc.),
 the Gaussian 92(TM) system (copyright 1992, Gaussian, Inc.),
 the Gaussian 90(TM) system (copyright 1990, Gaussian, Inc.),
 the Gaussian 88(TM) system (copyright 1988, Gaussian, Inc.),
 the Gaussian 86(TM) system (copyright 1986, Carnegie Mellon
 University), and the Gaussian 82(TM) system (copyright 1983,
 Carnegie Mellon University). Gaussian is a federally registered
 trademark of Gaussian, Inc.
  
 This software contains proprietary and confidential information,
 including trade secrets, belonging to Gaussian, Inc.
  
 This software is provided under written license and may be
 used, copied, transmitted, or stored only in accord with that
 written license.
  
 The following legend is applicable only to US Government
 contracts under FAR:
  
                    RESTRICTED RIGHTS LEGEND
  
 Use, reproduction and disclosure by the US Government is
 subject to restrictions as set forth in subparagraphs (a)
 and (c) of the Commercial Computer Software - Restricted
 Rights clause in FAR 52.227-19.
  
 Gaussian, Inc.
 340 Quinnipiac St., Bldg. 40, Wallingford CT 06492
  
  
 ---------------------------------------------------------------
 Warning -- This program may not be used in any manner that
 competes with the business of Gaussian, Inc. or will provide
 assistance to any competitor of Gaussian, Inc.  The licensee
 of this program is prohibited from giving any competitor of
 Gaussian, Inc. access to this program.  By using this program,
 the user acknowledges that Gaussian, Inc. is engaged in the
 business of creating and licensing software in the field of
 computational chemistry and represents and warrants to the
 licensee that it is not a competitor of Gaussian, Inc. and that
 it will not use this program in any manner prohibited above.
 ---------------------------------------------------------------
  

 Cite this work as:
 Gaussian 16, Revision A.03,
 M. J. Frisch, G. W. Trucks, H. B. Schlegel, G. E. Scuseria, 
 M. A. Robb, J. R. Cheeseman, G. Scalmani, V. Barone, 
 G. A. Petersson, H. Nakatsuji, X. Li, M. Caricato, A. V. Marenich, 
 J. Bloino, B. G. Janesko, R. Gomperts, B. Mennucci, H. P. Hratchian, 
 J. V. Ortiz, A. F. Izmaylov, J. L. Sonnenberg, D. Williams-Young, 
 F. Ding, F. Lipparini, F. Egidi, J. Goings, B. Peng, A. Petrone, 
 T. Henderson, D. Ranasinghe, V. G. Zakrzewski, J. Gao, N. Rega, 
 G. Zheng, W. Liang, M. Hada, M. Ehara, K. Toyota, R. Fukuda, 
 J. Hasegawa, M. Ishida, T. Nakajima, Y. Honda, O. Kitao, H. Nakai, 
 T. Vreven, K. Throssell, J. A. Montgomery, Jr., J. E. Peralta, 
 F. Ogliaro, M. J. Bearpark, J. J. Heyd, E. N. Brothers, K. N. Kudin, 
 V. N. Staroverov, T. A. Keith, R. Kobayashi, J. Normand, 
 K. Raghavachari, A. P. Rendell, J. C. Burant, S. S. Iyengar, 
 J. Tomasi, M. Cossi, J. M. Millam, M. Klene, C. Adamo, R. Cammi, 
 J. W. Ochterski, R. L. Martin, K. Morokuma, O. Farkas, 
 J. B. Foresman, and D. J. Fox, Gaussian, Inc., Wallingford CT, 2016.
 
 ******************************************
 Gaussian 16:  EM64W-G16RevA.03 17-Dec-2016
                03-Dec-2025 
 ******************************************
 %nprocs=   4
 Will use up to    4 processors via shared memory.
 ------------------------------------
 #P B3LYP/6-31G* SCF=conver=7 out=wfn
 ------------------------------------
 1/38=1,172=1/1;
 2/12=2,17=6,18=5,40=1/2;
 3/5=1,6=6,7=1,11=2,25=1,30=1,74=-5/1,2,3;
 4//1;
 5/5=2,6=7,38=5/2;
 6/7=2,8=2,9=2,10=2,28=1/1;
 99/5=1,6=100,9=1/99;
 Leave Link    1 at Wed Dec 03 17:12:11 2025, MaxMem=           0 cpu:               1.0 elap:               0.1
 (Enter D:\Gaussian\G16W\l101.exe)
 ----------------------------------------------------
 Generated by Multiwfn (http://sobereva.com/multiwfn)
 ----------------------------------------------------
 Symbolic Z-matrix:
 Charge = -1 Multiplicity = 1
 C                     1.91146  -0.05497   0.05274 
 C                     1.02675   1.02831   0.00591 
 C                    -0.34913   0.84814  -0.11945 
 C                    -0.86274  -0.4585   -0.1877 
 C                     0.0079   -1.5374   -0.14644 
 C                     1.38366  -1.3429   -0.03173 
 H                    -0.41418  -2.53283  -0.21621 
 O                    -2.20905  -0.70246  -0.37166 
 O                    -1.2269    1.88829  -0.19409 
 H                     1.41609   2.04281   0.05672 
 C                    -3.0777   -0.26431   0.59163 
 H                    -2.69628  -0.10668   1.59266 
 H                    -4.1027   -0.53442   0.38803 
 H                    -0.73509   2.71484  -0.14973 
 H                     2.04502  -2.20137  -0.0035 
 C                     3.39599   0.18096   0.19463 
 H                     3.76681   0.86587  -0.57382 
 H                     3.63707   0.62238   1.16717 
 H                     3.95373  -0.75313   0.10711 
 
 ITRead=  0  0  0  0  0  0  0  0  0  0  0  0  0  0  0  0  0  0  0
 MicOpt= -1 -1 -1 -1 -1 -1 -1 -1 -1 -1 -1 -1 -1 -1 -1 -1 -1 -1 -1
 NAtoms=     19 NQM=       19 NQMF=       0 NMMI=      0 NMMIF=      0
                NMic=       0 NMicF=      0.
                    Isotopes and Nuclear Properties:
 (Nuclear quadrupole moments (NQMom) in fm**2, nuclear magnetic moments (NMagM)
  in nuclear magnetons)

  Atom         1           2           3           4           5           6           7           8           9          10
 IAtWgt=          12          12          12          12          12          12           1          16          16           1
 AtmWgt=  12.0000000  12.0000000  12.0000000  12.0000000  12.0000000  12.0000000   1.0078250  15.9949146  15.9949146   1.0078250
 NucSpn=           0           0           0           0           0           0           1           0           0           1
 AtZEff=   0.0000000   0.0000000   0.0000000   0.0000000   0.0000000   0.0000000   0.0000000   0.0000000   0.0000000   0.0000000
 NQMom=    0.0000000   0.0000000   0.0000000   0.0000000   0.0000000   0.0000000   0.0000000   0.0000000   0.0000000   0.0000000
 NMagM=    0.0000000   0.0000000   0.0000000   0.0000000   0.0000000   0.0000000   2.7928460   0.0000000   0.0000000   2.7928460
 AtZNuc=   6.0000000   6.0000000   6.0000000   6.0000000   6.0000000   6.0000000   1.0000000   8.0000000   8.0000000   1.0000000

  Atom        11          12          13          14          15          16          17          18          19
 IAtWgt=          12           1           1           1           1          12           1           1           1
 AtmWgt=  12.0000000   1.0078250   1.0078250   1.0078250   1.0078250  12.0000000   1.0078250   1.0078250   1.0078250
 NucSpn=           0           1           1           1           1           0           1           1           1
 AtZEff=   0.0000000   0.0000000   0.0000000   0.0000000   0.0000000   0.0000000   0.0000000   0.0000000   0.0000000
 NQMom=    0.0000000   0.0000000   0.0000000   0.0000000   0.0000000   0.0000000   0.0000000   0.0000000   0.0000000
 NMagM=    0.0000000   2.7928460   2.7928460   2.7928460   2.7928460   0.0000000   2.7928460   2.7928460   2.7928460
 AtZNuc=   6.0000000   1.0000000   1.0000000   1.0000000   1.0000000   6.0000000   1.0000000   1.0000000   1.0000000
 Leave Link  101 at Wed Dec 03 17:12:11 2025, MaxMem=   104857600 cpu:               0.0 elap:               0.1
 (Enter D:\Gaussian\G16W\l202.exe)
                          Input orientation:                          
 ---------------------------------------------------------------------
 Center     Atomic      Atomic             Coordinates (Angstroms)
 Number     Number       Type             X           Y           Z
 ---------------------------------------------------------------------
      1          6           0        1.911462   -0.054974    0.052742
      2          6           0        1.026747    1.028307    0.005910
      3          6           0       -0.349129    0.848138   -0.119451
      4          6           0       -0.862738   -0.458500   -0.187700
      5          6           0        0.007899   -1.537403   -0.146436
      6          6           0        1.383658   -1.342904   -0.031728
      7          1           0       -0.414179   -2.532832   -0.216213
      8          8           0       -2.209049   -0.702462   -0.371659
      9          8           0       -1.226901    1.888293   -0.194091
     10          1           0        1.416093    2.042809    0.056715
     11          6           0       -3.077701   -0.264313    0.591634
     12          1           0       -2.696282   -0.106678    1.592658
     13          1           0       -4.102696   -0.534422    0.388031
     14          1           0       -0.735085    2.714840   -0.149733
     15          1           0        2.045020   -2.201373   -0.003498
     16          6           0        3.395988    0.180963    0.194625
     17          1           0        3.766812    0.865867   -0.573818
     18          1           0        3.637069    0.622384    1.167171
     19          1           0        3.953726   -0.753128    0.107108
 ---------------------------------------------------------------------
                    Distance matrix (angstroms):
                    1          2          3          4          5
     1  C    0.000000
     2  C    1.399433   0.000000
     3  C    2.440396   1.393273   0.000000
     4  C    2.813686   2.412101   1.405616   0.000000
     5  C    2.420913   2.764802   2.412261   1.386991   0.000000
     6  C    1.394445   2.398217   2.794801   2.419255   1.394167
     7  H    3.408918   3.848028   3.382980   2.122468   1.083466
     8  O    4.192609   3.688969   2.434599   1.380548   2.379645
     9  O    3.699532   2.420435   1.363076   2.374888   3.641757
    10  H    2.155481   1.087835   2.138757   3.392544   3.852557
    11  C    5.022547   4.342860   3.031220   2.356084   3.418543
    12  H    4.858531   4.203202   3.058123   2.579794   3.519093
    13  H    6.042548   5.375809   4.032155   3.291589   4.264811
    14  H    3.836284   2.443905   1.906425   3.176133   4.316666
    15  H    2.151286   3.386414   3.878777   3.395084   2.147359
    16  C    1.509839   2.523273   3.817023   4.323405   3.814217
    17  H    2.163989   2.805428   4.140982   4.830711   4.481940
    18  H    2.162981   2.885668   4.194775   4.822059   4.422795
    19  H    2.158985   3.427967   4.596732   4.834464   4.030995
                    6          7          8          9         10
     6  C    0.000000
     7  H    2.163835   0.000000
     8  O    3.665142   2.568263   0.000000
     9  O    4.157164   4.495259   2.776357   0.000000
    10  H    3.387023   4.935674   4.567458   2.659360   0.000000
    11  C    4.632026   3.590703   1.369111   2.945596   5.079679
    12  H    4.562104   3.790281   2.109715   3.054744   4.887846
    13  H    5.561468   4.238385   2.047258   3.805077   6.099912
    14  H    4.579114   5.257895   3.728240   0.962824   2.263142
    15  H    1.084051   2.490537   4.525415   5.240912   4.290950
    16  C    2.534340   4.695833   5.702417   4.943397   2.721300
    17  H    3.294230   5.399974   6.181540   5.111430   2.703450
    18  H    3.221425   5.318059   6.188724   5.207088   2.860674
    19  H    2.640523   4.727629   6.181552   5.822948   3.776160
                   11         12         13         14         15
    11  C    0.000000
    12  H    1.082764   0.000000
    13  H    1.079365   1.900550   0.000000
    14  H    3.861713   3.852685   4.710382   0.000000
    15  H    5.508961   5.423597   6.381726   5.649736   0.000000
    16  C    6.501118   6.257235   7.535214   4.858485   2.745886
    17  H    7.034411   6.885568   8.050784   4.885246   3.563396
    18  H    6.797471   6.389359   7.864428   5.022782   3.446547
    19  H    7.065032   6.844513   8.064285   5.837612   2.398501
                   16         17         18         19
    16  C    0.000000
    17  H    1.094125   0.000000
    18  H    1.094906   1.762714   0.000000
    19  H    1.091447   1.766279   1.765230   0.000000
 Stoichiometry    C8H9O2(1-)
 Framework group  C1[X(C8H9O2)]
 Deg. of freedom    51
 Full point group                 C1      NOp   1
 Largest Abelian subgroup         C1      NOp   1
 Largest concise Abelian subgroup C1      NOp   1
                         Standard orientation:                         
 ---------------------------------------------------------------------
 Center     Atomic      Atomic             Coordinates (Angstroms)
 Number     Number       Type             X           Y           Z
 ---------------------------------------------------------------------
      1          6           0        1.911462   -0.054974    0.052742
      2          6           0        1.026747    1.028307    0.005910
      3          6           0       -0.349129    0.848138   -0.119451
      4          6           0       -0.862738   -0.458500   -0.187700
      5          6           0        0.007899   -1.537403   -0.146436
      6          6           0        1.383658   -1.342904   -0.031728
      7          1           0       -0.414179   -2.532832   -0.216213
      8          8           0       -2.209049   -0.702462   -0.371659
      9          8           0       -1.226901    1.888293   -0.194091
     10          1           0        1.416093    2.042809    0.056715
     11          6           0       -3.077701   -0.264313    0.591634
     12          1           0       -2.696282   -0.106678    1.592658
     13          1           0       -4.102696   -0.534422    0.388031
     14          1           0       -0.735085    2.714840   -0.149733
     15          1           0        2.045020   -2.201373   -0.003498
     16          6           0        3.395988    0.180963    0.194625
     17          1           0        3.766812    0.865867   -0.573818
     18          1           0        3.637069    0.622384    1.167171
     19          1           0        3.953726   -0.753128    0.107108
 ---------------------------------------------------------------------
 Rotational constants (GHZ):           2.8419669           0.9514175           0.7395020
 Leave Link  202 at Wed Dec 03 17:12:11 2025, MaxMem=   104857600 cpu:               0.0 elap:               0.0
 (Enter D:\Gaussian\G16W\l301.exe)
 Standard basis: 6-31G(d) (6D, 7F)
 Ernie: Thresh=  0.10000D-02 Tol=  0.10000D-05 Strict=F.
 There are   168 symmetry adapted cartesian basis functions of A   symmetry.
 There are   168 symmetry adapted basis functions of A   symmetry.
   168 basis functions,   316 primitive gaussians,   168 cartesian basis functions
    37 alpha electrons       37 beta electrons
       nuclear repulsion energy       505.4173357891 Hartrees.
 IExCor=  402 DFT=T Ex+Corr=B3LYP ExCW=0 ScaHFX=  0.200000
 ScaDFX=  0.800000  0.720000  1.000000  0.810000 ScalE2=  1.000000  1.000000
 IRadAn=      5 IRanWt=     -1 IRanGd=            0 ICorTp=0 IEmpDi=  4
 NAtoms=   19 NActive=   19 NUniq=   19 SFac= 1.00D+00 NAtFMM=   60 NAOKFM=F Big=F
 Integral buffers will be    131072 words long.
 Raffenetti 2 integral format.
 Two-electron integral symmetry is turned on.
 Leave Link  301 at Wed Dec 03 17:12:11 2025, MaxMem=   104857600 cpu:               0.0 elap:               0.1
 (Enter D:\Gaussian\G16W\l302.exe)
 NPDir=0 NMtPBC=     1 NCelOv=     1 NCel=       1 NClECP=     1 NCelD=      1
         NCelK=      1 NCelE2=     1 NClLst=     1 CellRange=     0.0.
 One-electron integrals computed using PRISM.
 One-electron integral symmetry used in STVInt
 NBasis=   168 RedAO= T EigKep=  3.68D-04  NBF=   168
 NBsUse=   168 1.00D-06 EigRej= -1.00D+00 NBFU=   168
 Precomputing XC quadrature grid using
 IXCGrd= 4 IRadAn=           5 IRanWt=          -1 IRanGd=           0 AccXCQ= 0.00D+00.
 Generated NRdTot=       0 NPtTot=           0 NUsed=           0 NTot=          32
 NSgBfM=   168   168   168   168   168 MxSgAt=    19 MxSgA2=    19.
 Leave Link  302 at Wed Dec 03 17:12:11 2025, MaxMem=   104857600 cpu:               0.0 elap:               0.4
 (Enter D:\Gaussian\G16W\l303.exe)
 DipDrv:  MaxL=1.
 Leave Link  303 at Wed Dec 03 17:12:11 2025, MaxMem=   104857600 cpu:               0.0 elap:               0.1
 (Enter D:\Gaussian\G16W\l401.exe)
 ExpMin= 1.61D-01 ExpMax= 5.48D+03 ExpMxC= 8.25D+02 IAcc=3 IRadAn=         5 AccDes= 0.00D+00
 Harris functional with IExCor=  402 and IRadAn=       5 diagonalized for initial guess.
 HarFok:  IExCor=  402 AccDes= 0.00D+00 IRadAn=         5 IDoV= 1 UseB2=F ITyADJ=14
 ICtDFT=  3500011 ScaDFX=  1.000000  1.000000  1.000000  1.000000
 FoFCou: FMM=F IPFlag=           0 FMFlag=      100000 FMFlg1=           0
         NFxFlg=           0 DoJE=T BraDBF=F KetDBF=T FulRan=T
         wScrn=  0.000000 ICntrl=       500 IOpCl=  0 I1Cent=   200000004 NGrid=           0
         NMat0=    1 NMatS0=      1 NMatT0=    0 NMatD0=    1 NMtDS0=    0 NMtDT0=    0
 Petite list used in FoFCou.
 Harris En= -460.837284606340    
 JPrj=0 DoOrth=F DoCkMO=F.
 Leave Link  401 at Wed Dec 03 17:12:12 2025, MaxMem=   104857600 cpu:               1.0 elap:               1.1
 (Enter D:\Gaussian\G16W\l502.exe)
 Keep R1 ints in memory in canonical form, NReq=104755543.
 FoFCou: FMM=F IPFlag=           0 FMFlag=           0 FMFlg1=           0
         NFxFlg=           0 DoJE=F BraDBF=F KetDBF=F FulRan=T
         wScrn=  0.000000 ICntrl=       600 IOpCl=  0 I1Cent=           0 NGrid=           0
         NMat0=    1 NMatS0=  14196 NMatT0=    0 NMatD0=    1 NMtDS0=    0 NMtDT0=    0
 Symmetry not used in FoFCou.
 Two-electron integral symmetry not used.
 Closed shell SCF:
 Using DIIS extrapolation, IDIIS=  1040.
 NGot=   104857600 LenX=     4027843 LenY=     3999178
 Requested convergence on RMS density matrix=1.00D-07 within 128 cycles.
 Requested convergence on MAX density matrix=1.00D-05.
 Requested convergence on             energy=1.00D-05.
 No special actions if energy rises.
 Integral accuracy reduced to 1.0D-05 until final iterations.

 Cycle   1  Pass 0  IDiag  1:
 CalDSu:  requested number of processors reduced to:   3 ShMem   1 Linda.
 E= -460.176062901393    
 DIIS: error= 3.78D-02 at cycle   1 NSaved=   1.
 NSaved= 1 IEnMin= 1 EnMin= -460.176062901393     IErMin= 1 ErrMin= 3.78D-02
 ErrMax= 3.78D-02  0.00D+00 EMaxC= 1.00D-01 BMatC= 3.55D-01 BMatP= 3.55D-01
 IDIUse=3 WtCom= 6.22D-01 WtEn= 3.78D-01
 Coeff-Com:  0.100D+01
 Coeff-En:   0.100D+01
 Coeff:      0.100D+01
 Gap=    -0.108 Goal=   None    Shift=    0.000
 GapD=   -0.108 DampG=0.250 DampE=0.500 DampFc=0.2500 IDamp=-1.
 Damping current iteration by 2.50D-01
 RMSDP=3.50D-02 MaxDP=2.07D+00              OVMax= 9.79D-01

 Cycle   2  Pass 0  IDiag  1:
 CalDSu:  requested number of processors reduced to:   3 ShMem   1 Linda.
 E= -460.297239703094     Delta-E=       -0.121176801701 Rises=F Damp=T
 DIIS: error= 1.97D-02 at cycle   2 NSaved=   2.
 NSaved= 2 IEnMin= 2 EnMin= -460.297239703094     IErMin= 2 ErrMin= 1.97D-02
 ErrMax= 1.97D-02  0.00D+00 EMaxC= 1.00D-01 BMatC= 8.00D-02 BMatP= 3.55D-01
 IDIUse=3 WtCom= 8.03D-01 WtEn= 1.97D-01
 Coeff-Com: -0.493D+00 0.149D+01
 Coeff-En:   0.659D-01 0.934D+00
 Coeff:     -0.383D+00 0.138D+01
 Gap=    -0.091 Goal=   None    Shift=    0.000
 RMSDP=9.37D-03 MaxDP=4.91D-01 DE=-1.21D-01 OVMax= 9.78D-01

 Cycle   3  Pass 0  IDiag  1:
 CalDSu:  requested number of processors reduced to:   3 ShMem   1 Linda.
 E= -460.386659127329     Delta-E=       -0.089419424236 Rises=F Damp=F
 DIIS: error= 1.79D-02 at cycle   3 NSaved=   3.
 NSaved= 3 IEnMin= 3 EnMin= -460.386659127329     IErMin= 3 ErrMin= 1.79D-02
 ErrMax= 1.79D-02  0.00D+00 EMaxC= 1.00D-01 BMatC= 1.50D-01 BMatP= 8.00D-02
 IDIUse=2 WtCom= 0.00D+00 WtEn= 1.00D+00
 Coeff-En:   0.000D+00 0.317D+00 0.683D+00
 Coeff:      0.000D+00 0.317D+00 0.683D+00
 Gap=    -0.084 Goal=   None    Shift=    0.000
 RMSDP=1.08D-02 MaxDP=2.98D-01 DE=-8.94D-02 OVMax= 9.72D-01

 Cycle   4  Pass 0  IDiag  1:
 CalDSu:  requested number of processors reduced to:   3 ShMem   1 Linda.
 E= -459.554845558431     Delta-E=        0.831813568898 Rises=F Damp=F
 DIIS: error= 4.55D-02 at cycle   4 NSaved=   4.
 NSaved= 4 IEnMin= 3 EnMin= -460.386659127329     IErMin= 3 ErrMin= 1.79D-02
 ErrMax= 4.55D-02  0.00D+00 EMaxC= 1.00D-01 BMatC= 6.14D-01 BMatP= 8.00D-02
 IDIUse=2 WtCom= 0.00D+00 WtEn= 1.00D+00
 Coeff-En:   0.000D+00 0.000D+00 0.762D+00 0.238D+00
 Coeff:      0.000D+00 0.000D+00 0.762D+00 0.238D+00
 Gap=    -0.002 Goal=   None    Shift=    0.000
 RMSDP=9.94D-03 MaxDP=2.72D-01 DE= 8.32D-01 OVMax= 9.26D-01

 Cycle   5  Pass 0  IDiag  1:
 CalDSu:  requested number of processors reduced to:   3 ShMem   1 Linda.
 E= -460.516775020343     Delta-E=       -0.961929461912 Rises=F Damp=F
 DIIS: error= 1.51D-02 at cycle   5 NSaved=   5.
 NSaved= 5 IEnMin= 5 EnMin= -460.516775020343     IErMin= 5 ErrMin= 1.51D-02
 ErrMax= 1.51D-02  0.00D+00 EMaxC= 1.00D-01 BMatC= 6.15D-02 BMatP= 8.00D-02
 IDIUse=3 WtCom= 8.49D-01 WtEn= 1.51D-01
 EnCoef did     3 forward-backward iterations
 Coeff-Com: -0.242D+00 0.566D+00 0.364D+00 0.560D-01 0.256D+00
 Coeff-En:   0.000D+00 0.000D+00 0.213D+00 0.220D-01 0.765D+00
 Coeff:     -0.206D+00 0.481D+00 0.341D+00 0.508D-01 0.333D+00
 Gap=     0.113 Goal=   None    Shift=    0.000
 RMSDP=3.74D-03 MaxDP=1.19D-01 DE=-9.62D-01 OVMax= 1.98D-01

 Cycle   6  Pass 0  IDiag  1:
 CalDSu:  requested number of processors reduced to:   3 ShMem   1 Linda.
 E= -460.561386053600     Delta-E=       -0.044611033257 Rises=F Damp=F
 DIIS: error= 8.17D-03 at cycle   6 NSaved=   6.
 NSaved= 6 IEnMin= 6 EnMin= -460.561386053600     IErMin= 6 ErrMin= 8.17D-03
 ErrMax= 8.17D-03  0.00D+00 EMaxC= 1.00D-01 BMatC= 1.18D-02 BMatP= 6.15D-02
 IDIUse=3 WtCom= 9.18D-01 WtEn= 8.17D-02
 Coeff-Com: -0.147D+00 0.248D+00 0.925D-01-0.876D-02 0.275D+00 0.540D+00
 Coeff-En:   0.000D+00 0.000D+00 0.000D+00 0.000D+00 0.180D+00 0.820D+00
 Coeff:     -0.135D+00 0.228D+00 0.849D-01-0.805D-02 0.267D+00 0.563D+00
 Gap=     0.048 Goal=   None    Shift=    0.000
 RMSDP=9.96D-04 MaxDP=2.00D-02 DE=-4.46D-02 OVMax= 4.63D-02

 Cycle   7  Pass 0  IDiag  1:
 CalDSu:  requested number of processors reduced to:   3 ShMem   1 Linda.
 E= -460.573542169826     Delta-E=       -0.012156116226 Rises=F Damp=F
 DIIS: error= 2.45D-03 at cycle   7 NSaved=   7.
 NSaved= 7 IEnMin= 7 EnMin= -460.573542169826     IErMin= 7 ErrMin= 2.45D-03
 ErrMax= 2.45D-03  0.00D+00 EMaxC= 1.00D-01 BMatC= 9.36D-04 BMatP= 1.18D-02
 IDIUse=3 WtCom= 9.75D-01 WtEn= 2.45D-02
 Coeff-Com: -0.824D-01 0.130D+00 0.415D-01-0.165D-01 0.161D+00 0.249D+00
 Coeff-Com:  0.517D+00
 Coeff-En:   0.000D+00 0.000D+00 0.000D+00 0.000D+00 0.000D+00 0.000D+00
 Coeff-En:   0.100D+01
 Coeff:     -0.804D-01 0.127D+00 0.405D-01-0.161D-01 0.157D+00 0.243D+00
 Coeff:      0.529D+00
 Gap=     0.052 Goal=   None    Shift=    0.000
 RMSDP=2.03D-04 MaxDP=5.17D-03 DE=-1.22D-02 OVMax= 9.25D-03

 Cycle   8  Pass 0  IDiag  1:
 CalDSu:  requested number of processors reduced to:   3 ShMem   1 Linda.
 E= -460.574040516060     Delta-E=       -0.000498346235 Rises=F Damp=F
 DIIS: error= 1.62D-03 at cycle   8 NSaved=   8.
 NSaved= 8 IEnMin= 8 EnMin= -460.574040516060     IErMin= 8 ErrMin= 1.62D-03
 ErrMax= 1.62D-03  0.00D+00 EMaxC= 1.00D-01 BMatC= 4.67D-04 BMatP= 9.36D-04
 IDIUse=3 WtCom= 9.84D-01 WtEn= 1.62D-02
 Coeff-Com: -0.258D-01 0.467D-01 0.333D-01-0.112D-01 0.459D-01-0.811D-01
 Coeff-Com:  0.208D+00 0.785D+00
 Coeff-En:   0.000D+00 0.000D+00 0.000D+00 0.000D+00 0.000D+00 0.000D+00
 Coeff-En:   0.000D+00 0.100D+01
 Coeff:     -0.254D-01 0.459D-01 0.328D-01-0.110D-01 0.452D-01-0.797D-01
 Coeff:      0.204D+00 0.788D+00
 Gap=     0.056 Goal=   None    Shift=    0.000
 RMSDP=2.70D-04 MaxDP=4.84D-03 DE=-4.98D-04 OVMax= 2.01D-02

 Cycle   9  Pass 0  IDiag  1:
 CalDSu:  requested number of processors reduced to:   3 ShMem   1 Linda.
 E= -460.574583129140     Delta-E=       -0.000542613080 Rises=F Damp=F
 DIIS: error= 4.45D-04 at cycle   9 NSaved=   9.
 NSaved= 9 IEnMin= 9 EnMin= -460.574583129140     IErMin= 9 ErrMin= 4.45D-04
 ErrMax= 4.45D-04  0.00D+00 EMaxC= 1.00D-01 BMatC= 3.86D-05 BMatP= 4.67D-04
 IDIUse=3 WtCom= 9.96D-01 WtEn= 4.45D-03
 Coeff-Com: -0.223D-02 0.362D-02 0.361D-02-0.188D-02-0.159D-02-0.661D-01
 Coeff-Com: -0.656D-01 0.357D+00 0.773D+00
 Coeff-En:   0.000D+00 0.000D+00 0.000D+00 0.000D+00 0.000D+00 0.000D+00
 Coeff-En:   0.000D+00 0.207D-01 0.979D+00
 Coeff:     -0.222D-02 0.360D-02 0.359D-02-0.187D-02-0.158D-02-0.658D-01
 Coeff:     -0.653D-01 0.356D+00 0.774D+00
 Gap=     0.056 Goal=   None    Shift=    0.000
 RMSDP=1.33D-04 MaxDP=2.62D-03 DE=-5.43D-04 OVMax= 1.22D-02

 Cycle  10  Pass 0  IDiag  1:
 CalDSu:  requested number of processors reduced to:   3 ShMem   1 Linda.
 E= -460.574620123482     Delta-E=       -0.000036994342 Rises=F Damp=F
 DIIS: error= 2.47D-04 at cycle  10 NSaved=  10.
 NSaved=10 IEnMin=10 EnMin= -460.574620123482     IErMin=10 ErrMin= 2.47D-04
 ErrMax= 2.47D-04  0.00D+00 EMaxC= 1.00D-01 BMatC= 1.88D-05 BMatP= 3.86D-05
 IDIUse=3 WtCom= 9.98D-01 WtEn= 2.47D-03
 Coeff-Com:  0.882D-03-0.155D-02 0.208D-02-0.213D-05-0.222D-02-0.347D-01
 Coeff-Com: -0.695D-01 0.140D+00 0.523D+00 0.443D+00
 Coeff-En:   0.000D+00 0.000D+00 0.000D+00 0.000D+00 0.000D+00 0.000D+00
 Coeff-En:   0.000D+00 0.000D+00 0.301D+00 0.699D+00
 Coeff:      0.880D-03-0.155D-02 0.207D-02-0.213D-05-0.221D-02-0.346D-01
 Coeff:     -0.693D-01 0.139D+00 0.522D+00 0.443D+00
 Gap=     0.056 Goal=   None    Shift=    0.000
 RMSDP=4.29D-05 MaxDP=1.08D-03 DE=-3.70D-05 OVMax= 3.68D-03

 Cycle  11  Pass 0  IDiag  1:
 CalDSu:  requested number of processors reduced to:   3 ShMem   1 Linda.
 E= -460.574644545118     Delta-E=       -0.000024421636 Rises=F Damp=F
 DIIS: error= 4.14D-05 at cycle  11 NSaved=  11.
 NSaved=11 IEnMin=11 EnMin= -460.574644545118     IErMin=11 ErrMin= 4.14D-05
 ErrMax= 4.14D-05  0.00D+00 EMaxC= 1.00D-01 BMatC= 4.93D-07 BMatP= 1.88D-05
 IDIUse=1 WtCom= 1.00D+00 WtEn= 0.00D+00
 Coeff-Com:  0.327D-03-0.502D-03 0.456D-03-0.425D-04-0.100D-04-0.514D-02
 Coeff-Com: -0.220D-01 0.112D-01 0.159D+00 0.156D+00 0.701D+00
 Coeff:      0.327D-03-0.502D-03 0.456D-03-0.425D-04-0.100D-04-0.514D-02
 Coeff:     -0.220D-01 0.112D-01 0.159D+00 0.156D+00 0.701D+00
 Gap=     0.056 Goal=   None    Shift=    0.000
 RMSDP=8.54D-06 MaxDP=2.87D-04 DE=-2.44D-05 OVMax= 4.66D-04

 Initial convergence to 1.0D-05 achieved.  Increase integral accuracy.
 Cycle  12  Pass 1  IDiag  1:
 CalDSu:  requested number of processors reduced to:   3 ShMem   1 Linda.
 E= -460.574632915353     Delta-E=        0.000011629765 Rises=F Damp=F
 DIIS: error= 3.38D-05 at cycle   1 NSaved=   1.
 NSaved= 1 IEnMin= 1 EnMin= -460.574632915353     IErMin= 1 ErrMin= 3.38D-05
 ErrMax= 3.38D-05  0.00D+00 EMaxC= 1.00D-01 BMatC= 2.84D-07 BMatP= 2.84D-07
 IDIUse=1 WtCom= 1.00D+00 WtEn= 0.00D+00
 Coeff-Com:  0.100D+01
 Coeff:      0.100D+01
 Gap=     0.056 Goal=   None    Shift=    0.000
 RMSDP=8.54D-06 MaxDP=2.87D-04 DE= 1.16D-05 OVMax= 3.72D-03

 Cycle  13  Pass 1  IDiag  1:
 CalDSu:  requested number of processors reduced to:   3 ShMem   1 Linda.
 E= -460.574624912601     Delta-E=        0.000008002751 Rises=F Damp=F
 DIIS: error= 1.55D-04 at cycle   2 NSaved=   2.
 NSaved= 2 IEnMin= 1 EnMin= -460.574632915353     IErMin= 1 ErrMin= 3.38D-05
 ErrMax= 1.55D-04  0.00D+00 EMaxC= 1.00D-01 BMatC= 5.90D-06 BMatP= 2.84D-07
 IDIUse=3 WtCom= 4.46D-01 WtEn= 5.54D-01
 Coeff-Com:  0.824D+00 0.176D+00
 Coeff-En:   0.891D+00 0.109D+00
 Coeff:      0.861D+00 0.139D+00
 Gap=     0.056 Goal=   None    Shift=    0.000
 RMSDP=2.39D-05 MaxDP=5.72D-04 DE= 8.00D-06 OVMax= 2.44D-03

 Cycle  14  Pass 1  IDiag  1:
 CalDSu:  requested number of processors reduced to:   3 ShMem   1 Linda.
 E= -460.574632974081     Delta-E=       -0.000008061480 Rises=F Damp=F
 DIIS: error= 3.25D-05 at cycle   3 NSaved=   3.
 NSaved= 3 IEnMin= 3 EnMin= -460.574632974081     IErMin= 3 ErrMin= 3.25D-05
 ErrMax= 3.25D-05  0.00D+00 EMaxC= 1.00D-01 BMatC= 2.59D-07 BMatP= 2.84D-07
 IDIUse=1 WtCom= 1.00D+00 WtEn= 0.00D+00
 Coeff-Com:  0.457D+00-0.178D-01 0.561D+00
 Coeff:      0.457D+00-0.178D-01 0.561D+00
 Gap=     0.056 Goal=   None    Shift=    0.000
 RMSDP=6.26D-06 MaxDP=1.54D-04 DE=-8.06D-06 OVMax= 6.41D-04

 Cycle  15  Pass 1  IDiag  1:
 CalDSu:  requested number of processors reduced to:   3 ShMem   1 Linda.
 E= -460.574633344353     Delta-E=       -0.000000370272 Rises=F Damp=F
 DIIS: error= 1.31D-06 at cycle   4 NSaved=   4.
 NSaved= 4 IEnMin= 4 EnMin= -460.574633344353     IErMin= 4 ErrMin= 1.31D-06
 ErrMax= 1.31D-06  0.00D+00 EMaxC= 1.00D-01 BMatC= 7.84D-10 BMatP= 2.59D-07
 IDIUse=1 WtCom= 1.00D+00 WtEn= 0.00D+00
 Coeff-Com:  0.523D-01-0.286D-01 0.194D+00 0.782D+00
 Coeff:      0.523D-01-0.286D-01 0.194D+00 0.782D+00
 Gap=     0.056 Goal=   None    Shift=    0.000
 RMSDP=7.83D-07 MaxDP=2.54D-05 DE=-3.70D-07 OVMax= 5.25D-05

 Cycle  16  Pass 1  IDiag  1:
 CalDSu:  requested number of processors reduced to:   3 ShMem   1 Linda.
 E= -460.574633344826     Delta-E=       -0.000000000472 Rises=F Damp=F
 DIIS: error= 1.47D-06 at cycle   5 NSaved=   5.
 NSaved= 5 IEnMin= 5 EnMin= -460.574633344826     IErMin= 4 ErrMin= 1.31D-06
 ErrMax= 1.47D-06  0.00D+00 EMaxC= 1.00D-01 BMatC= 6.96D-10 BMatP= 7.84D-10
 IDIUse=1 WtCom= 1.00D+00 WtEn= 0.00D+00
 Coeff-Com: -0.187D-01-0.109D-01 0.505D-01 0.494D+00 0.485D+00
 Coeff:     -0.187D-01-0.109D-01 0.505D-01 0.494D+00 0.485D+00
 Gap=     0.056 Goal=   None    Shift=    0.000
 RMSDP=2.93D-07 MaxDP=8.50D-06 DE=-4.72D-10 OVMax= 1.62D-05

 Cycle  17  Pass 1  IDiag  1:
 CalDSu:  requested number of processors reduced to:   3 ShMem   1 Linda.
 E= -460.574633345485     Delta-E=       -0.000000000659 Rises=F Damp=F
 DIIS: error= 8.44D-07 at cycle   6 NSaved=   6.
 NSaved= 6 IEnMin= 6 EnMin= -460.574633345485     IErMin= 6 ErrMin= 8.44D-07
 ErrMax= 8.44D-07  0.00D+00 EMaxC= 1.00D-01 BMatC= 1.58D-10 BMatP= 6.96D-10
 IDIUse=1 WtCom= 1.00D+00 WtEn= 0.00D+00
 Coeff-Com: -0.180D-01 0.169D-02-0.461D-02 0.162D+00 0.258D+00 0.602D+00
 Coeff:     -0.180D-01 0.169D-02-0.461D-02 0.162D+00 0.258D+00 0.602D+00
 Gap=     0.056 Goal=   None    Shift=    0.000
 RMSDP=1.71D-07 MaxDP=4.62D-06 DE=-6.59D-10 OVMax= 1.21D-05

 Cycle  18  Pass 1  IDiag  1:
 CalDSu:  requested number of processors reduced to:   3 ShMem   1 Linda.
 E= -460.574633345749     Delta-E=       -0.000000000264 Rises=F Damp=F
 DIIS: error= 2.30D-07 at cycle   7 NSaved=   7.
 NSaved= 7 IEnMin= 7 EnMin= -460.574633345749     IErMin= 7 ErrMin= 2.30D-07
 ErrMax= 2.30D-07  0.00D+00 EMaxC= 1.00D-01 BMatC= 1.49D-11 BMatP= 1.58D-10
 IDIUse=1 WtCom= 1.00D+00 WtEn= 0.00D+00
 Coeff-Com: -0.733D-02 0.350D-02-0.112D-01 0.148D-01 0.739D-01 0.304D+00
 Coeff-Com:  0.622D+00
 Coeff:     -0.733D-02 0.350D-02-0.112D-01 0.148D-01 0.739D-01 0.304D+00
 Coeff:      0.622D+00
 Gap=     0.056 Goal=   None    Shift=    0.000
 RMSDP=7.96D-08 MaxDP=2.21D-06 DE=-2.64D-10 OVMax= 5.67D-06

 SCF Done:  E(RB3LYP) =  -460.574633346     A.U. after   18 cycles
            NFock= 18  Conv=0.80D-07     -V/T= 2.0083
 KE= 4.567612768665D+02 PE=-2.097087469117D+03 EE= 6.743342231158D+02
 Leave Link  502 at Wed Dec 03 17:12:37 2025, MaxMem=   104857600 cpu:              25.0 elap:              25.0
 (Enter D:\Gaussian\G16W\l601.exe)
 Copying SCF densities to generalized density rwf, IOpCl= 0 IROHF=0.

 **********************************************************************

            Population analysis using the SCF density.

 **********************************************************************

 Orbital symmetries:
       Occupied  (A) (A) (A) (A) (A) (A) (A) (A) (A) (A) (A) (A)
                 (A) (A) (A) (A) (A) (A) (A) (A) (A) (A) (A) (A)
                 (A) (A) (A) (A) (A) (A) (A) (A) (A) (A) (A) (A)
                 (A)
       Virtual   (A) (A) (A) (A) (A) (A) (A) (A) (A) (A) (A) (A)
                 (A) (A) (A) (A) (A) (A) (A) (A) (A) (A) (A) (A)
                 (A) (A) (A) (A) (A) (A) (A) (A) (A) (A) (A) (A)
                 (A) (A) (A) (A) (A) (A) (A) (A) (A) (A) (A) (A)
                 (A) (A) (A) (A) (A) (A) (A) (A) (A) (A) (A) (A)
                 (A) (A) (A) (A) (A) (A) (A) (A) (A) (A) (A) (A)
                 (A) (A) (A) (A) (A) (A) (A) (A) (A) (A) (A) (A)
                 (A) (A) (A) (A) (A) (A) (A) (A) (A) (A) (A) (A)
                 (A) (A) (A) (A) (A) (A) (A) (A) (A) (A) (A) (A)
                 (A) (A) (A) (A) (A) (A) (A) (A) (A) (A) (A) (A)
                 (A) (A) (A) (A) (A) (A) (A) (A) (A) (A) (A)
 The electronic state is 1-A.
 Alpha  occ. eigenvalues --  -19.01448 -18.96502 -10.07724 -10.05094 -10.04626
 Alpha  occ. eigenvalues --  -10.02068 -10.01801 -10.01335 -10.00097  -9.94754
 Alpha  occ. eigenvalues --   -0.89908  -0.84402  -0.68045  -0.60595  -0.56969
 Alpha  occ. eigenvalues --   -0.53033  -0.46246  -0.43916  -0.39760  -0.37200
 Alpha  occ. eigenvalues --   -0.31681  -0.31160  -0.28439  -0.27129  -0.26205
 Alpha  occ. eigenvalues --   -0.25812  -0.25114  -0.22882  -0.21437  -0.19571
 Alpha  occ. eigenvalues --   -0.18590  -0.16163  -0.13417  -0.12886  -0.06803
 Alpha  occ. eigenvalues --   -0.04180   0.11733
 Alpha virt. eigenvalues --    0.17352   0.18630   0.21208   0.23000   0.25782
 Alpha virt. eigenvalues --    0.27823   0.29257   0.30401   0.33451   0.33907
 Alpha virt. eigenvalues --    0.35894   0.36575   0.38258   0.39680   0.43316
 Alpha virt. eigenvalues --    0.46555   0.49558   0.51364   0.52407   0.56489
 Alpha virt. eigenvalues --    0.64029   0.66446   0.67042   0.70911   0.71079
 Alpha virt. eigenvalues --    0.71870   0.73475   0.75635   0.76206   0.77260
 Alpha virt. eigenvalues --    0.78381   0.79374   0.81034   0.81760   0.83472
 Alpha virt. eigenvalues --    0.85464   0.86216   0.87871   0.89311   0.90644
 Alpha virt. eigenvalues --    0.91646   0.96245   0.97783   0.99972   1.01076
 Alpha virt. eigenvalues --    1.02802   1.04198   1.05087   1.06375   1.08071
 Alpha virt. eigenvalues --    1.09737   1.11119   1.14454   1.15230   1.18159
 Alpha virt. eigenvalues --    1.20244   1.22749   1.24787   1.26758   1.28950
 Alpha virt. eigenvalues --    1.34456   1.36934   1.39801   1.43533   1.46253
 Alpha virt. eigenvalues --    1.48065   1.50653   1.54790   1.55937   1.57939
 Alpha virt. eigenvalues --    1.61946   1.64350   1.66912   1.70948   1.79290
 Alpha virt. eigenvalues --    1.82487   1.89654   1.91364   1.93992   1.96277
 Alpha virt. eigenvalues --    1.99164   2.01326   2.03740   2.05103   2.06178
 Alpha virt. eigenvalues --    2.08417   2.10322   2.11604   2.14880   2.18964
 Alpha virt. eigenvalues --    2.21848   2.25827   2.27982   2.30559   2.35168
 Alpha virt. eigenvalues --    2.40203   2.41964   2.44259   2.45838   2.46864
 Alpha virt. eigenvalues --    2.48436   2.51013   2.52343   2.55292   2.63829
 Alpha virt. eigenvalues --    2.63919   2.65998   2.72383   2.75612   2.77828
 Alpha virt. eigenvalues --    2.85306   2.87826   2.94689   2.99299   3.01458
 Alpha virt. eigenvalues --    3.02056   3.09549   3.14797   3.24644   3.40096
 Alpha virt. eigenvalues --    3.61037   4.04736   4.26466   4.28099   4.34893
 Alpha virt. eigenvalues --    4.40404   4.43311   4.45691   4.57729   4.71166
 Alpha virt. eigenvalues --    5.10524
          Condensed to atoms (all electrons):
               1          2          3          4          5          6
     1  C    4.686046   0.444356   0.007299  -0.022698  -0.031278   0.573954
     2  C    0.444356   5.372248   0.446981  -0.063037  -0.046784  -0.030411
     3  C    0.007299   0.446981   4.779915   0.398230  -0.064266  -0.047087
     4  C   -0.022698  -0.063037   0.398230   4.705774   0.505271  -0.013230
     5  C   -0.031278  -0.046784  -0.064266   0.505271   5.177896   0.443026
     6  C    0.573954  -0.030411  -0.047087  -0.013230   0.443026   5.043515
     7  H    0.004741   0.000583   0.009146  -0.032959   0.328255  -0.052563
     8  O    0.000117   0.004463  -0.059025   0.285653  -0.059323   0.005043
     9  O    0.003937  -0.062457   0.278321  -0.050244   0.003270   0.000350
    10  H   -0.048194   0.309827  -0.047072   0.004146   0.000377   0.007190
    11  C   -0.000012  -0.000356   0.000652  -0.045486   0.004791  -0.000335
    12  H   -0.000014  -0.000278   0.002287  -0.001600   0.003563  -0.000201
    13  H    0.000000   0.000016   0.000360   0.002209  -0.000276   0.000008
    14  H    0.000245  -0.014867  -0.027153   0.006012  -0.000219   0.000050
    15  H   -0.047353   0.008091   0.000301   0.004142  -0.049937   0.333681
    16  C    0.353441  -0.073783   0.006214   0.000320   0.008201  -0.057638
    17  H   -0.033946  -0.000262   0.000009  -0.000015  -0.000261   0.000501
    18  H   -0.039540   0.001791  -0.000156   0.000033   0.000162  -0.000119
    19  H   -0.026390   0.003287  -0.000096   0.000009  -0.000075  -0.003249
               7          8          9         10         11         12
     1  C    0.004741   0.000117   0.003937  -0.048194  -0.000012  -0.000014
     2  C    0.000583   0.004463  -0.062457   0.309827  -0.000356  -0.000278
     3  C    0.009146  -0.059025   0.278321  -0.047072   0.000652   0.002287
     4  C   -0.032959   0.285653  -0.050244   0.004146  -0.045486  -0.001600
     5  C    0.328255  -0.059323   0.003270   0.000377   0.004791   0.003563
     6  C   -0.052563   0.005043   0.000350   0.007190  -0.000335  -0.000201
     7  H    0.678815  -0.000042  -0.000070   0.000024  -0.000353   0.000309
     8  O   -0.000042   8.176331  -0.001509  -0.000094   0.209384  -0.041033
     9  O   -0.000070  -0.001509   8.255482  -0.008138  -0.002460  -0.000340
    10  H    0.000024  -0.000094  -0.008138   0.738684   0.000053  -0.000001
    11  C   -0.000353   0.209384  -0.002460   0.000053   5.455698   0.362203
    12  H    0.000309  -0.041033  -0.000340  -0.000001   0.362203   0.710076
    13  H   -0.000090  -0.038745   0.000012   0.000000   0.378822  -0.064097
    14  H    0.000010  -0.000972   0.200078   0.014856   0.004096  -0.000094
    15  H   -0.007621  -0.000069   0.000003  -0.000265   0.000001   0.000001
    16  C   -0.000228   0.000000  -0.000059  -0.013503   0.000000   0.000000
    17  H    0.000004   0.000000  -0.000004   0.005759   0.000000   0.000000
    18  H    0.000002   0.000000   0.000002   0.000297   0.000000   0.000000
    19  H   -0.000011   0.000000   0.000000   0.000048   0.000000   0.000000
              13         14         15         16         17         18
     1  C    0.000000   0.000245  -0.047353   0.353441  -0.033946  -0.039540
     2  C    0.000016  -0.014867   0.008091  -0.073783  -0.000262   0.001791
     3  C    0.000360  -0.027153   0.000301   0.006214   0.000009  -0.000156
     4  C    0.002209   0.006012   0.004142   0.000320  -0.000015   0.000033
     5  C   -0.000276  -0.000219  -0.049937   0.008201  -0.000261   0.000162
     6  C    0.000008   0.000050   0.333681  -0.057638   0.000501  -0.000119
     7  H   -0.000090   0.000010  -0.007621  -0.000228   0.000004   0.000002
     8  O   -0.038745  -0.000972  -0.000069   0.000000   0.000000   0.000000
     9  O    0.000012   0.200078   0.000003  -0.000059  -0.000004   0.000002
    10  H    0.000000   0.014856  -0.000265  -0.013503   0.005759   0.000297
    11  C    0.378822   0.004096   0.000001   0.000000   0.000000   0.000000
    12  H   -0.064097  -0.000094   0.000001   0.000000   0.000000   0.000000
    13  H    0.707495  -0.000012   0.000000   0.000000   0.000000   0.000000
    14  H   -0.000012   0.461748  -0.000001  -0.000036   0.000034  -0.000022
    15  H    0.000000  -0.000001   0.714025  -0.014620   0.000047   0.000292
    16  C    0.000000  -0.000036  -0.014620   5.276027   0.339203   0.343012
    17  H    0.000000   0.000034   0.000047   0.339203   0.666457  -0.058287
    18  H    0.000000  -0.000022   0.000292   0.343012  -0.058287   0.673014
    19  H    0.000000   0.000000   0.008789   0.355448  -0.030856  -0.034404
              19
     1  C   -0.026390
     2  C    0.003287
     3  C   -0.000096
     4  C    0.000009
     5  C   -0.000075
     6  C   -0.003249
     7  H   -0.000011
     8  O    0.000000
     9  O    0.000000
    10  H    0.000048
    11  C    0.000000
    12  H    0.000000
    13  H    0.000000
    14  H    0.000000
    15  H    0.008789
    16  C    0.355448
    17  H   -0.030856
    18  H   -0.034404
    19  H    0.609906
 Mulliken charges:
               1
     1  C    0.175288
     2  C   -0.299407
     3  C    0.315142
     4  C    0.317470
     5  C   -0.222393
     6  C   -0.202485
     7  H    0.072047
     8  O   -0.480179
     9  O   -0.616172
    10  H    0.036003
    11  C   -0.366698
    12  H    0.029219
    13  H    0.014299
    14  H    0.356247
    15  H    0.050493
    16  C   -0.521998
    17  H    0.111615
    18  H    0.113922
    19  H    0.117590
 Sum of Mulliken charges =  -1.00000
 Mulliken charges with hydrogens summed into heavy atoms:
               1
     1  C    0.175288
     2  C   -0.263405
     3  C    0.315142
     4  C    0.317470
     5  C   -0.150347
     6  C   -0.151993
     8  O   -0.480179
     9  O   -0.259926
    11  C   -0.323179
    16  C   -0.178872
 Electronic spatial extent (au):  <R**2>=           1591.1124
 Charge=             -1.0000 electrons
 Dipole moment (field-independent basis, Debye):
    X=              6.6024    Y=              1.7811    Z=             -0.4567  Tot=              6.8536
 Quadrupole moment (field-independent basis, Debye-Ang):
   XX=            -94.7354   YY=            -60.8469   ZZ=            -65.2764
   XY=             -0.1360   XZ=              2.2209   YZ=              0.1551
 Traceless Quadrupole moment (field-independent basis, Debye-Ang):
   XX=            -21.1159   YY=             12.7727   ZZ=              8.3432
   XY=             -0.1360   XZ=              2.2209   YZ=              0.1551
 Octapole moment (field-independent basis, Debye-Ang**2):
  XXX=             48.9032  YYY=             25.7415  ZZZ=             -4.0519  XYY=              4.2520
  XXY=             -0.9538  XXZ=            -11.5964  XZZ=             -1.5378  YZZ=              4.7670
  YYZ=             -2.6648  XYZ=             -1.2214
 Hexadecapole moment (field-independent basis, Debye-Ang**3):
 XXXX=          -1896.9315 YYYY=           -440.6486 ZZZZ=           -108.6798 XXXY=            -12.9888
 XXXZ=             40.0604 YYYX=            -15.4945 YYYZ=             -0.3549 ZZZX=             11.9275
 ZZZY=              0.5451 XXYY=           -376.6500 XXZZ=           -298.8351 YYZZ=           -109.1074
 XXYZ=              2.7523 YYXZ=              6.3714 ZZXY=             -3.3977
 N-N= 5.054173357891D+02 E-N=-2.097087446664D+03  KE= 4.567612768665D+02
 No NMR shielding tensors so no spin-rotation constants.
 Leave Link  601 at Wed Dec 03 17:12:38 2025, MaxMem=   104857600 cpu:               1.0 elap:               0.2
 (Enter D:\Gaussian\G16W\l9999.exe)
 1|1|UNPC-PC-20250526LCFF|SP|RB3LYP|6-31G(d)|C8H9O2(1-)|ADMINISTRATOR|0
 3-Dec-2025|0||#P B3LYP/6-31G* SCF=conver=7 out=wfn||Generated by Multi
 wfn (http://sobereva.com/multiwfn)||-1,1|C,0,1.911462,-0.054974,0.0527
 42|C,0,1.026747,1.028307,0.00591|C,0,-0.349129,0.848138,-0.119451|C,0,
 -0.862738,-0.4585,-0.1877|C,0,0.007899,-1.537403,-0.146436|C,0,1.38365
 8,-1.342904,-0.031728|H,0,-0.414179,-2.532832,-0.216213|O,0,-2.209049,
 -0.702462,-0.371659|O,0,-1.226901,1.888293,-0.194091|H,0,1.416093,2.04
 2809,0.056715|C,0,-3.077701,-0.264313,0.591634|H,0,-2.696282,-0.106678
 ,1.592658|H,0,-4.102696,-0.534422,0.388031|H,0,-0.735085,2.71484,-0.14
 9733|H,0,2.04502,-2.201373,-0.003498|C,0,3.395988,0.180963,0.194625|H,
 0,3.766812,0.865867,-0.573818|H,0,3.637069,0.622384,1.167171|H,0,3.953
 726,-0.753128,0.107108||Version=EM64W-G16RevA.03|State=1-A|HF=-460.574
 6333|RMSD=7.959e-008|Dipole=2.59758,0.7007445,-0.1796627|Quadrupole=-1
 5.6991233,9.4961954,6.2029279,-0.1011239,1.6511544,0.1153455|PG=C01 [X
 (C8H9O2)]||@

 Writing a WFN file to "N+1.wfn"


 IF AT FIRST YOU DON'T SUCCEED, TRY, TRY AGAIN.
 THEN GIVE UP;
 THERE'S NO USE BEING A DAMN FOOL ABOUT IT.

                                 -- W. C. FIELDS
 Job cpu time:       0 days  0 hours  0 minutes 28.0 seconds.
 Elapsed time:       0 days  0 hours  0 minutes 27.0 seconds.
 File lengths (MBytes):  RWF=     15 Int=      0 D2E=      0 Chk=      3 Scr=      1
 Normal termination of Gaussian 16 at Wed Dec 03 17:12:38 2025.
