 Generated by Multiwfn (http://sobereva.com/multiwfn)
GAUSSIAN             37 MOL ORBITALS    316 PRIMITIVES       19 NUCLEI
  C    1    (CENTRE  1)   3.61213984 -0.10388570  0.09966801  CHARGE =  6.0
  C    2    (CENTRE  2)   1.94027074  1.94321867  0.01116836  CHARGE =  6.0
  C    3    (CENTRE  3)  -0.65975807  1.60274855 -0.22572960  CHARGE =  6.0
  C    4    (CENTRE  4)  -1.63033836 -0.86643944 -0.35470152  CHARGE =  6.0
  C    5    (CENTRE  5)   0.01492717 -2.90527059 -0.27672386  CHARGE =  6.0
  C    6    (CENTRE  6)   2.61473488 -2.53772069 -0.05995715  CHARGE =  6.0
  H    7    (CENTRE  7)  -0.78268461 -4.78635879 -0.40858328  CHARGE =  1.0
  O    8    (CENTRE  8)  -4.17449742 -1.32746086 -0.70233364  CHARGE =  8.0
  O    9    (CENTRE  9)  -2.31850680  3.56835659 -0.36677876  CHARGE =  8.0
  H   10    (CENTRE 10)   2.67602800  3.86034962  0.10717589  CHARGE =  1.0
  C   11    (CENTRE 11)  -5.81601182 -0.49947929  1.11802630  CHARGE =  6.0
  H   12    (CENTRE 12)  -5.09523437 -0.20159229  3.00968751  CHARGE =  1.0
  H   13    (CENTRE 13)  -7.75297163 -1.00991137  0.73327240  CHARGE =  1.0
  H   14    (CENTRE 14)  -1.38910929  5.13030407 -0.28295428  CHARGE =  1.0
  H   15    (CENTRE 15)   3.86452797 -4.15999195 -0.00661018  CHARGE =  1.0
  C   16    (CENTRE 16)   6.41748739  0.34197068  0.36778802  CHARGE =  6.0
  H   17    (CENTRE 17)   7.11824316  1.63625168 -1.08435879  CHARGE =  1.0
  H   18    (CENTRE 18)   6.87306443  1.17613549  2.20563361  CHARGE =  1.0
  H   19    (CENTRE 19)   7.47145950 -1.42320546  0.20240486  CHARGE =  1.0
CENTRE ASSIGNMENTS    1  1  1  1  1  1  1  1  1  1  1  1  1  1  1  1  1  1  1  1
CENTRE ASSIGNMENTS    1  1  1  1  1  1  1  1  2  2  2  2  2  2  2  2  2  2  2  2
CENTRE ASSIGNMENTS    2  2  2  2  2  2  2  2  2  2  2  2  2  2  2  2  3  3  3  3
CENTRE ASSIGNMENTS    3  3  3  3  3  3  3  3  3  3  3  3  3  3  3  3  3  3  3  3
CENTRE ASSIGNMENTS    3  3  3  3  4  4  4  4  4  4  4  4  4  4  4  4  4  4  4  4
CENTRE ASSIGNMENTS    4  4  4  4  4  4  4  4  4  4  4  4  5  5  5  5  5  5  5  5
CENTRE ASSIGNMENTS    5  5  5  5  5  5  5  5  5  5  5  5  5  5  5  5  5  5  5  5
CENTRE ASSIGNMENTS    6  6  6  6  6  6  6  6  6  6  6  6  6  6  6  6  6  6  6  6
CENTRE ASSIGNMENTS    6  6  6  6  6  6  6  6  7  7  7  7  8  8  8  8  8  8  8  8
CENTRE ASSIGNMENTS    8  8  8  8  8  8  8  8  8  8  8  8  8  8  8  8  8  8  8  8
CENTRE ASSIGNMENTS    9  9  9  9  9  9  9  9  9  9  9  9  9  9  9  9  9  9  9  9
CENTRE ASSIGNMENTS    9  9  9  9  9  9  9  9 10 10 10 10 11 11 11 11 11 11 11 11
CENTRE ASSIGNMENTS   11 11 11 11 11 11 11 11 11 11 11 11 11 11 11 11 11 11 11 11
CENTRE ASSIGNMENTS   12 12 12 12 13 13 13 13 14 14 14 14 15 15 15 15 16 16 16 16
CENTRE ASSIGNMENTS   16 16 16 16 16 16 16 16 16 16 16 16 16 16 16 16 16 16 16 16
CENTRE ASSIGNMENTS   16 16 16 16 17 17 17 17 18 18 18 18 19 19 19 19
TYPE ASSIGNMENTS      1  1  1  1  1  1  1  1  1  2  2  2  3  3  3  4  4  4  1  2
TYPE ASSIGNMENTS      3  4  5  6  7  8  9 10  1  1  1  1  1  1  1  1  1  2  2  2
TYPE ASSIGNMENTS      3  3  3  4  4  4  1  2  3  4  5  6  7  8  9 10  1  1  1  1
TYPE ASSIGNMENTS      1  1  1  1  1  2  2  2  3  3  3  4  4  4  1  2  3  4  5  6
TYPE ASSIGNMENTS      7  8  9 10  1  1  1  1  1  1  1  1  1  2  2  2  3  3  3  4
TYPE ASSIGNMENTS      4  4  1  2  3  4  5  6  7  8  9 10  1  1  1  1  1  1  1  1
TYPE ASSIGNMENTS      1  2  2  2  3  3  3  4  4  4  1  2  3  4  5  6  7  8  9 10
TYPE ASSIGNMENTS      1  1  1  1  1  1  1  1  1  2  2  2  3  3  3  4  4  4  1  2
TYPE ASSIGNMENTS      3  4  5  6  7  8  9 10  1  1  1  1  1  1  1  1  1  1  1  1
TYPE ASSIGNMENTS      1  2  2  2  3  3  3  4  4  4  1  2  3  4  5  6  7  8  9 10
TYPE ASSIGNMENTS      1  1  1  1  1  1  1  1  1  2  2  2  3  3  3  4  4  4  1  2
TYPE ASSIGNMENTS      3  4  5  6  7  8  9 10  1  1  1  1  1  1  1  1  1  1  1  1
TYPE ASSIGNMENTS      1  2  2  2  3  3  3  4  4  4  1  2  3  4  5  6  7  8  9 10
TYPE ASSIGNMENTS      1  1  1  1  1  1  1  1  1  1  1  1  1  1  1  1  1  1  1  1
TYPE ASSIGNMENTS      1  1  1  1  1  2  2  2  3  3  3  4  4  4  1  2  3  4  5  6
TYPE ASSIGNMENTS      7  8  9 10  1  1  1  1  1  1  1  1  1  1  1  1
EXPONENTS  0.3047525D+04 0.4573695D+03 0.1039487D+03 0.2921016D+02 0.9286663D+01
EXPONENTS  0.3163927D+01 0.7868272D+01 0.1881289D+01 0.5442493D+00 0.7868272D+01
EXPONENTS  0.1881289D+01 0.5442493D+00 0.7868272D+01 0.1881289D+01 0.5442493D+00
EXPONENTS  0.7868272D+01 0.1881289D+01 0.5442493D+00 0.1687145D+00 0.1687145D+00
EXPONENTS  0.1687145D+00 0.1687145D+00 0.8000000D+00 0.8000000D+00 0.8000000D+00
EXPONENTS  0.8000000D+00 0.8000000D+00 0.8000000D+00 0.3047525D+04 0.4573695D+03
EXPONENTS  0.1039487D+03 0.2921016D+02 0.9286663D+01 0.3163927D+01 0.7868272D+01
EXPONENTS  0.1881289D+01 0.5442493D+00 0.7868272D+01 0.1881289D+01 0.5442493D+00
EXPONENTS  0.7868272D+01 0.1881289D+01 0.5442493D+00 0.7868272D+01 0.1881289D+01
EXPONENTS  0.5442493D+00 0.1687145D+00 0.1687145D+00 0.1687145D+00 0.1687145D+00
EXPONENTS  0.8000000D+00 0.8000000D+00 0.8000000D+00 0.8000000D+00 0.8000000D+00
EXPONENTS  0.8000000D+00 0.3047525D+04 0.4573695D+03 0.1039487D+03 0.2921016D+02
EXPONENTS  0.9286663D+01 0.3163927D+01 0.7868272D+01 0.1881289D+01 0.5442493D+00
EXPONENTS  0.7868272D+01 0.1881289D+01 0.5442493D+00 0.7868272D+01 0.1881289D+01
EXPONENTS  0.5442493D+00 0.7868272D+01 0.1881289D+01 0.5442493D+00 0.1687145D+00
EXPONENTS  0.1687145D+00 0.1687145D+00 0.1687145D+00 0.8000000D+00 0.8000000D+00
EXPONENTS  0.8000000D+00 0.8000000D+00 0.8000000D+00 0.8000000D+00 0.3047525D+04
EXPONENTS  0.4573695D+03 0.1039487D+03 0.2921016D+02 0.9286663D+01 0.3163927D+01
EXPONENTS  0.7868272D+01 0.1881289D+01 0.5442493D+00 0.7868272D+01 0.1881289D+01
EXPONENTS  0.5442493D+00 0.7868272D+01 0.1881289D+01 0.5442493D+00 0.7868272D+01
EXPONENTS  0.1881289D+01 0.5442493D+00 0.1687145D+00 0.1687145D+00 0.1687145D+00
EXPONENTS  0.1687145D+00 0.8000000D+00 0.8000000D+00 0.8000000D+00 0.8000000D+00
EXPONENTS  0.8000000D+00 0.8000000D+00 0.3047525D+04 0.4573695D+03 0.1039487D+03
EXPONENTS  0.2921016D+02 0.9286663D+01 0.3163927D+01 0.7868272D+01 0.1881289D+01
EXPONENTS  0.5442493D+00 0.7868272D+01 0.1881289D+01 0.5442493D+00 0.7868272D+01
EXPONENTS  0.1881289D+01 0.5442493D+00 0.7868272D+01 0.1881289D+01 0.5442493D+00
EXPONENTS  0.1687145D+00 0.1687145D+00 0.1687145D+00 0.1687145D+00 0.8000000D+00
EXPONENTS  0.8000000D+00 0.8000000D+00 0.8000000D+00 0.8000000D+00 0.8000000D+00
EXPONENTS  0.3047525D+04 0.4573695D+03 0.1039487D+03 0.2921016D+02 0.9286663D+01
EXPONENTS  0.3163927D+01 0.7868272D+01 0.1881289D+01 0.5442493D+00 0.7868272D+01
EXPONENTS  0.1881289D+01 0.5442493D+00 0.7868272D+01 0.1881289D+01 0.5442493D+00
EXPONENTS  0.7868272D+01 0.1881289D+01 0.5442493D+00 0.1687145D+00 0.1687145D+00
EXPONENTS  0.1687145D+00 0.1687145D+00 0.8000000D+00 0.8000000D+00 0.8000000D+00
EXPONENTS  0.8000000D+00 0.8000000D+00 0.8000000D+00 0.1873114D+02 0.2825394D+01
EXPONENTS  0.6401217D+00 0.1612778D+00 0.5484672D+04 0.8252349D+03 0.1880470D+03
EXPONENTS  0.5296450D+02 0.1689757D+02 0.5799635D+01 0.1553962D+02 0.3599934D+01
EXPONENTS  0.1013762D+01 0.1553962D+02 0.3599934D+01 0.1013762D+01 0.1553962D+02
EXPONENTS  0.3599934D+01 0.1013762D+01 0.1553962D+02 0.3599934D+01 0.1013762D+01
EXPONENTS  0.2700058D+00 0.2700058D+00 0.2700058D+00 0.2700058D+00 0.8000000D+00
EXPONENTS  0.8000000D+00 0.8000000D+00 0.8000000D+00 0.8000000D+00 0.8000000D+00
EXPONENTS  0.5484672D+04 0.8252349D+03 0.1880470D+03 0.5296450D+02 0.1689757D+02
EXPONENTS  0.5799635D+01 0.1553962D+02 0.3599934D+01 0.1013762D+01 0.1553962D+02
EXPONENTS  0.3599934D+01 0.1013762D+01 0.1553962D+02 0.3599934D+01 0.1013762D+01
EXPONENTS  0.1553962D+02 0.3599934D+01 0.1013762D+01 0.2700058D+00 0.2700058D+00
EXPONENTS  0.2700058D+00 0.2700058D+00 0.8000000D+00 0.8000000D+00 0.8000000D+00
EXPONENTS  0.8000000D+00 0.8000000D+00 0.8000000D+00 0.1873114D+02 0.2825394D+01
EXPONENTS  0.6401217D+00 0.1612778D+00 0.3047525D+04 0.4573695D+03 0.1039487D+03
EXPONENTS  0.2921016D+02 0.9286663D+01 0.3163927D+01 0.7868272D+01 0.1881289D+01
EXPONENTS  0.5442493D+00 0.7868272D+01 0.1881289D+01 0.5442493D+00 0.7868272D+01
EXPONENTS  0.1881289D+01 0.5442493D+00 0.7868272D+01 0.1881289D+01 0.5442493D+00
EXPONENTS  0.1687145D+00 0.1687145D+00 0.1687145D+00 0.1687145D+00 0.8000000D+00
EXPONENTS  0.8000000D+00 0.8000000D+00 0.8000000D+00 0.8000000D+00 0.8000000D+00
EXPONENTS  0.1873114D+02 0.2825394D+01 0.6401217D+00 0.1612778D+00 0.1873114D+02
EXPONENTS  0.2825394D+01 0.6401217D+00 0.1612778D+00 0.1873114D+02 0.2825394D+01
EXPONENTS  0.6401217D+00 0.1612778D+00 0.1873114D+02 0.2825394D+01 0.6401217D+00
EXPONENTS  0.1612778D+00 0.3047525D+04 0.4573695D+03 0.1039487D+03 0.2921016D+02
EXPONENTS  0.9286663D+01 0.3163927D+01 0.7868272D+01 0.1881289D+01 0.5442493D+00
EXPONENTS  0.7868272D+01 0.1881289D+01 0.5442493D+00 0.7868272D+01 0.1881289D+01
EXPONENTS  0.5442493D+00 0.7868272D+01 0.1881289D+01 0.5442493D+00 0.1687145D+00
EXPONENTS  0.1687145D+00 0.1687145D+00 0.1687145D+00 0.8000000D+00 0.8000000D+00
EXPONENTS  0.8000000D+00 0.8000000D+00 0.8000000D+00 0.8000000D+00 0.1873114D+02
EXPONENTS  0.2825394D+01 0.6401217D+00 0.1612778D+00 0.1873114D+02 0.2825394D+01
EXPONENTS  0.6401217D+00 0.1612778D+00 0.1873114D+02 0.2825394D+01 0.6401217D+00
EXPONENTS  0.1612778D+00
MO    1     MO 0.0        OCC NO =    2.0000000  ORB. ENERGY =  -19.014481
 -0.64124446D-05 -0.11829708D-04 -0.19096817D-04 -0.24858382D-04 -0.21211702D-04
 -0.73238910D-05  0.37071433D-04  0.17086190D-04 -0.47911459D-04 -0.54930445D-04
 -0.42117181D-04 -0.21019425D-04  0.46477120D-04  0.35635708D-04  0.17784716D-04
 -0.31582689D-05 -0.24215603D-05 -0.12085283D-05  0.41134564D-03 -0.16386104D-03
  0.11288115D-03 -0.95732971D-05  0.24659710D-04  0.44970225D-04 -0.13488130D-04
 -0.81592905D-04  0.33544003D-05  0.11365261D-05  0.15744107D-04  0.29044803D-04
  0.46887318D-04  0.61033357D-04  0.52079874D-04  0.17981929D-04 -0.98190981D-04
 -0.45256133D-04  0.12690292D-03  0.99259918D-04  0.76106209D-04  0.37982332D-04
 -0.29553931D-04 -0.22660080D-04 -0.11308968D-04  0.15262665D-04  0.11702443D-04
  0.58403394D-05 -0.73002863D-03  0.53130679D-04  0.34534699D-03  0.87247636D-05
 -0.89678007D-04 -0.65053773D-04  0.61331197D-04  0.57182052D-04 -0.20767412D-04
  0.18715973D-05 -0.28691924D-04 -0.52930998D-04 -0.85447042D-04 -0.11122666D-03
 -0.94909911D-04 -0.32770111D-04 -0.58187625D-04 -0.26818623D-04  0.75202219D-04
 -0.40253557D-03 -0.30863874D-03 -0.15403236D-03  0.37421660D-03  0.28692555D-03
  0.14319596D-03 -0.50949860D-04 -0.39065121D-04 -0.19496233D-04  0.12671146D-04
  0.61717465D-03 -0.50360427D-03  0.50360510D-04 -0.33135017D-04 -0.10183910D-03
 -0.10902400D-03 -0.96747254D-05  0.16011651D-04  0.45104218D-05  0.53515094D-05
  0.98724898D-05  0.15937260D-04  0.20745577D-04  0.17702238D-04  0.61121574D-05
 -0.42861852D-04 -0.19754989D-04  0.55395050D-04 -0.71277736D-05 -0.54651247D-05
 -0.27274802D-05 -0.40977466D-05 -0.31418922D-05 -0.15680244D-05 -0.47385368D-04
 -0.36332095D-04 -0.18132262D-04 -0.14272733D-03 -0.42119368D-03 -0.12533760D-04
 -0.24796415D-04  0.31937726D-04 -0.61758988D-04  0.89465912D-05  0.26290267D-04
  0.14816073D-04  0.20843778D-04  0.38974210D-05  0.71899807D-05  0.11606858D-04
  0.15108681D-04  0.12892265D-04  0.44513891D-05 -0.56617433D-05 -0.26094923D-05
  0.73172888D-05 -0.37806086D-04 -0.28987309D-04 -0.14466699D-04  0.84605520D-04
  0.64870147D-04  0.32374750D-04  0.97884806D-05  0.75051860D-05  0.37456138D-05
  0.31248036D-03  0.95725950D-04  0.99206118D-04  0.39247558D-05  0.32548309D-04
  0.19296817D-04  0.31468806D-04 -0.13468880D-05  0.43175919D-05 -0.89573326D-05
  0.61631390D-05  0.11369788D-04  0.18354363D-04  0.23891927D-04  0.20387025D-04
  0.70391497D-05 -0.24601860D-04 -0.11338975D-04  0.31795669D-04 -0.18287364D-04
 -0.14021591D-04 -0.69977564D-05  0.99366660D-05  0.76188052D-05  0.38023178D-05
 -0.19587440D-05 -0.15018407D-05 -0.74952376D-06 -0.20261031D-03  0.12188562D-03
 -0.49770938D-04  0.10029244D-04 -0.11756852D-04  0.37222549D-05  0.26484593D-04
 -0.31286926D-04 -0.11546051D-04 -0.54721263D-05  0.54404598D-05  0.92280495D-05
  0.10505808D-04  0.25471813D-04  0.13189974D-04  0.24276593D-04  0.39284110D-04
  0.51640062D-04  0.44291381D-04  0.15143975D-04 -0.13731367D-03 -0.61269092D-04
  0.18092845D-03  0.10372608D-03  0.79915352D-04  0.35087144D-04  0.10196195D-03
  0.78556185D-04  0.34490397D-04 -0.27680195D-04 -0.21326098D-04 -0.93633059D-05
 -0.39515405D-03 -0.18994065D-03 -0.10257805D-04  0.21433255D-04  0.11413115D-03
  0.21407141D-03  0.19708569D-03 -0.46567740D-04 -0.27723508D-04  0.18269876D-04
  0.82562021D+00  0.15195819D+01  0.24589704D+01  0.32323854D+01  0.27723982D+01
  0.94793003D+00 -0.15784587D-01 -0.70430519D-02  0.20798226D-01  0.33668828D-02
  0.25940017D-02  0.11389065D-02  0.77797764D-03  0.59938983D-03  0.26316442D-03
  0.17205019D-03  0.13255539D-03  0.58198957D-04  0.39232576D-02  0.15826660D-03
 -0.36594849D-03  0.27423007D-04 -0.92986468D-02 -0.92126612D-02 -0.92352507D-02
 -0.16150814D-03 -0.24033000D-04 -0.33087483D-04 -0.20202492D-04 -0.34267250D-04
 -0.39012053D-04 -0.70087732D-04  0.24971832D-04  0.46068155D-04  0.74368286D-04
  0.96805411D-04  0.82604233D-04  0.28521256D-04 -0.48010369D-04 -0.22127935D-04
  0.62049040D-04  0.94374298D-04  0.72360226D-04  0.36112824D-04  0.13690539D-03
  0.10497037D-03  0.52387570D-04 -0.12404757D-04 -0.95111811D-05 -0.47467459D-05
 -0.15592477D-03 -0.80048391D-04 -0.23236816D-04  0.14237731D-04  0.11840958D-03
  0.15204237D-03  0.67418722D-04  0.39275201D-04  0.75902328D-04 -0.49226180D-04
  0.14520415D-04  0.24629373D-04  0.28039670D-04  0.36022854D-04 -0.64241018D-05
 -0.10896493D-04 -0.12405272D-04 -0.21565102D-04  0.93096911D-04  0.15790998D-03
  0.17977493D-03 -0.17975234D-03 -0.63283243D-05 -0.10734036D-04 -0.12220320D-04
 -0.33095156D-04  0.40626856D-05  0.74948616D-05  0.12099030D-04  0.15749343D-04
  0.13438943D-04  0.46401439D-05 -0.14070466D-04 -0.64850650D-05  0.18184799D-04
 -0.68559333D-05 -0.52566948D-05 -0.26234591D-05 -0.70976655D-06 -0.54420397D-06
 -0.27159592D-06  0.79304437D-06  0.60805612D-06  0.30346262D-06  0.30091860D-05
  0.92593145D-05 -0.28087266D-04 -0.15634729D-05 -0.12115867D-04  0.31757654D-04
  0.76521476D-05  0.31497859D-04 -0.29932654D-05  0.10517686D-04  0.34888921D-05
  0.59178214D-05  0.67372305D-05  0.53764060D-05  0.26511539D-05  0.44968588D-05
  0.51195148D-05  0.62136137D-05 -0.95656733D-06 -0.16225192D-05 -0.18471808D-05
 -0.12377643D-04
MO    2     MO 0.0        OCC NO =    2.0000000  ORB. ENERGY =  -18.965017
  0.68230538D-05  0.12587202D-04  0.20319647D-04  0.26450143D-04  0.22569955D-04
  0.77928629D-05 -0.30012285D-04 -0.13832635D-04  0.38788152D-04 -0.19208769D-04
 -0.14728066D-04 -0.73503371D-05 -0.16266945D-04 -0.12472462D-04 -0.62246326D-05
  0.57343519D-05  0.43967373D-05  0.21942801D-05 -0.25861816D-03  0.13975710D-03
  0.88678496D-05  0.81638621D-05  0.88367715D-05 -0.31320685D-04  0.29841383D-04
  0.18818478D-04 -0.16937470D-05 -0.26861804D-05 -0.17224261D-06 -0.31775398D-06
 -0.51295344D-06 -0.66771297D-06 -0.56976068D-06 -0.19672467D-06  0.76952859D-05
  0.35467503D-05 -0.99454579D-05 -0.80301956D-04 -0.61570447D-04 -0.30727968D-04
 -0.16579730D-04 -0.12712285D-04 -0.63443213D-05 -0.17169573D-05 -0.13164540D-05
 -0.65700279D-06  0.33552945D-03 -0.40730732D-04 -0.17053070D-03 -0.35699068D-05
  0.17685081D-04  0.16029507D-04  0.15009355D-04  0.70481580D-05 -0.90908524D-05
  0.37889308D-05  0.21612139D-04  0.39870177D-04  0.64362827D-04  0.83781277D-04
  0.71490716D-04  0.24684026D-04 -0.96442833D-04 -0.44450413D-04  0.12464360D-03
 -0.90016172D-05 -0.69018691D-05 -0.34445164D-05  0.41752021D-04  0.32012801D-04
  0.15976631D-04 -0.15561033D-05 -0.11931213D-05 -0.59545117D-06 -0.45332653D-03
 -0.24743446D-03  0.35921230D-03 -0.32675144D-04  0.24528907D-04 -0.23271542D-04
  0.77658281D-04 -0.74056611D-04 -0.94256108D-05  0.17669730D-04 -0.27909393D-04
 -0.51487380D-04 -0.83116595D-04 -0.10819311D-03 -0.92321377D-04 -0.31876353D-04
 -0.16731935D-04 -0.77117337D-05  0.21624506D-04 -0.58773153D-03 -0.45063526D-03
 -0.22489858D-03 -0.12522996D-03 -0.96018390D-04 -0.47919906D-04 -0.14819582D-03
 -0.11362715D-03 -0.56707912D-04  0.19139147D-03  0.70553865D-03  0.13879389D-03
  0.10926146D-03  0.97197854D-04  0.18385583D-05 -0.82936840D-04  0.87950966D-04
  0.88283903D-04  0.39944624D-04  0.91917942D-05  0.16957065D-04  0.27373961D-04
  0.35632764D-04  0.30405502D-04  0.10498289D-04 -0.77681393D-04 -0.35803283D-04
  0.10039614D-03 -0.92398775D-06 -0.70845520D-06 -0.35356880D-06 -0.10221547D-04
 -0.78372335D-05 -0.39113288D-05 -0.16790622D-05 -0.12873984D-05 -0.64250202D-06
 -0.37806334D-03 -0.76622314D-04 -0.27341626D-03 -0.27944570D-04 -0.65883831D-04
 -0.10521838D-03  0.43150509D-04  0.50446515D-04 -0.16824311D-04 -0.40031057D-04
  0.19091962D-05  0.35220942D-05  0.56857520D-05  0.74011598D-05  0.63154230D-05
  0.21805638D-05  0.16110444D-05  0.74252887D-06 -0.20821285D-05 -0.73306445D-04
 -0.56206733D-04 -0.28051099D-04  0.11389604D-05  0.87328262D-06  0.43582923D-06
  0.25231910D-06  0.19346228D-06  0.96551236D-07  0.23685761D-03 -0.55631154D-04
  0.96253685D-04  0.14876873D-05  0.25943435D-04  0.22018724D-04  0.23906334D-04
  0.33149368D-04 -0.63745220D-05 -0.61211348D-06 -0.19340576D-05 -0.32805277D-05
 -0.37347648D-05 -0.12434594D-03  0.82560331D+00  0.15195508D+01  0.24589201D+01
  0.32323192D+01  0.27723414D+01  0.94791062D+00 -0.15750545D-01 -0.70278624D-02
  0.20753372D-01  0.96026088D-03  0.73982924D-03  0.32482489D-03  0.15227719D-02
  0.11732137D-02  0.51510399D-03  0.20396037D-02  0.15714047D-02  0.68993130D-03
  0.39815610D-02  0.23792241D-03  0.35714473D-04  0.56736577D-04 -0.93702533D-02
 -0.93511829D-02 -0.94153535D-02  0.41239243D-04  0.12939653D-03 -0.90437315D-04
  0.81357132D-04  0.14974055D-03  0.24230848D-03  0.31852128D-03  0.27319385D-03
  0.93409618D-04 -0.15797091D-03 -0.70486314D-04  0.20814703D-03  0.36667205D-04
  0.28250105D-04  0.12403318D-04 -0.12913150D-03 -0.99488862D-04 -0.43680969D-04
 -0.27735693D-04 -0.21368856D-04 -0.93820788D-05 -0.45047470D-03 -0.10033735D-03
  0.99375322D-04  0.65773887D-06  0.16947743D-03  0.18581517D-03  0.19947342D-03
  0.71825148D-04 -0.34773104D-05 -0.41166482D-05  0.89703475D-05  0.15215407D-04
  0.17322203D-04  0.45490511D-04 -0.22541655D-05 -0.41584952D-05 -0.67131006D-05
 -0.87384623D-05 -0.74565458D-05 -0.25745661D-05 -0.92327146D-04 -0.42553497D-04
  0.11932445D-03  0.24644693D-03  0.18895987D-03  0.94304220D-04 -0.21288206D-03
 -0.16322446D-03 -0.81460446D-04 -0.47437255D-03 -0.36371878D-03 -0.18152116D-03
 -0.27640530D-03 -0.16835753D-04  0.65614666D-04  0.13944105D-03  0.51044805D-04
  0.89121967D-05  0.19311497D-03 -0.16684665D-03 -0.28243060D-03  0.18874930D-03
 -0.15202161D-05 -0.25785742D-05 -0.29356156D-05 -0.29896994D-04  0.29186061D-04
  0.49505084D-04  0.56359788D-04  0.46821366D-04  0.62463155D-05  0.10594933D-04
  0.12061957D-04 -0.22451826D-04  0.55998461D-05  0.94983988D-05  0.10813591D-04
  0.23336620D-04  0.16774951D-05  0.30946510D-05  0.49957262D-05  0.65029512D-05
  0.55489800D-05  0.19159295D-05 -0.65521685D-05 -0.30198885D-05  0.84680825D-05
  0.91173457D-05  0.69906024D-05  0.34888005D-05  0.17265799D-05  0.13238320D-05
  0.66068494D-06 -0.41712931D-06 -0.31982830D-06 -0.15961674D-06 -0.60285064D-04
  0.19231328D-04  0.55021165D-05  0.38773284D-05 -0.75718646D-06  0.60352880D-06
  0.79450996D-05 -0.48807405D-05 -0.43807873D-05 -0.41465155D-06  0.12486747D-05
  0.21179887D-05  0.24112552D-05  0.94571444D-06  0.74748462D-06  0.12678754D-05
  0.14434313D-05 -0.24989240D-06  0.19862349D-05  0.33690303D-05  0.38355219D-05
  0.25164445D-06
MO    3     MO 0.0        OCC NO =    2.0000000  ORB. ENERGY =  -10.077239
  0.42344827D-04  0.78117938D-04  0.12610657D-03  0.16415329D-03  0.14007230D-03
  0.48363598D-04 -0.11878841D-03 -0.54749470D-04  0.15352323D-03  0.66563303D-04
  0.51036519D-04  0.25470800D-04 -0.61933887D-04 -0.47486976D-04 -0.23699329D-04
  0.87844311D-05  0.67353446D-05  0.33614090D-05 -0.15491126D-02  0.72883855D-03
 -0.11132703D-03  0.54559601D-04  0.87111296D-05  0.29400996D-04  0.67259182D-04
  0.53540841D-05 -0.97384877D-05 -0.73369338D-05  0.21641185D-02  0.39923761D-02
  0.64449330D-02  0.83893878D-02  0.71586798D-02  0.24717201D-02  0.29469808D-03
  0.13582608D-03 -0.38087050D-03  0.33895171D-03  0.25988667D-03  0.12970166D-03
  0.17012877D-03  0.13044395D-03  0.65100672D-04  0.29308312D-04  0.22471755D-04
  0.11214980D-04  0.28118447D-02 -0.58893398D-03 -0.11672528D-02 -0.72484260D-04
 -0.46283805D-03 -0.25834803D-03 -0.38175080D-03  0.18189269D-03 -0.22352531D-04
  0.26483998D-04  0.53256668D+00  0.98248153D+00  0.15860298D+01  0.20645396D+01
  0.17616754D+01  0.60826417D+00 -0.19806337D-01 -0.91287226D-02  0.25597891D-01
 -0.70528719D-03 -0.54076948D-03 -0.26988187D-03  0.96486556D-03  0.73979771D-03
  0.36921091D-03 -0.57227825D-04 -0.43878666D-04 -0.21898530D-04 -0.41755299D-02
 -0.13026243D-02  0.16230852D-02 -0.95755658D-04 -0.96432310D-02 -0.95728421D-02
 -0.10344873D-01 -0.80973521D-03  0.13043062D-03 -0.67668793D-04  0.41586699D-02
  0.76719339D-02  0.12384880D-01  0.16121434D-01  0.13756449D-01  0.47497712D-02
  0.19089107D-03  0.87981518D-04 -0.24670936D-03 -0.20482845D-03 -0.15704946D-03
 -0.78378689D-04 -0.27362646D-03 -0.20979942D-03 -0.10470461D-03  0.44128812D-04
  0.33835174D-04  0.16886123D-04  0.23699727D-02  0.14495923D-02  0.55931963D-03
  0.12960553D-03 -0.45462701D-03 -0.60307917D-03 -0.39862863D-03  0.76108426D-04
 -0.59999776D-04 -0.15907473D-04  0.38330192D-04  0.70711720D-04  0.11415064D-03
  0.14859022D-03  0.12679230D-03  0.43778335D-04 -0.67134190D-04 -0.30942087D-04
  0.86764841D-04  0.11244420D-03  0.86215080D-04  0.43027367D-04 -0.15700691D-03
 -0.12038294D-03 -0.60079524D-04 -0.75347385D-07 -0.57771596D-07 -0.28832075D-07
 -0.14996789D-02 -0.43169866D-03 -0.62616934D-03 -0.50190668D-04  0.49363129D-04
  0.64798302D-04  0.30126709D-04 -0.11036455D-03 -0.76636322D-05 -0.43325086D-05
 -0.70314403D-04 -0.12971634D-03 -0.20940240D-03 -0.27257970D-03 -0.23259275D-03
 -0.80308689D-04  0.14688315D-03  0.67698307D-04 -0.18983312D-03  0.15069321D-04
  0.11554199D-04  0.57663552D-05 -0.35093200D-04 -0.26907240D-04 -0.13428599D-04
  0.37323244D-05  0.28617096D-05  0.14281937D-05  0.12754383D-02 -0.49402532D-03
  0.39204639D-03 -0.27575211D-04  0.23823225D-04 -0.19253621D-04 -0.13622089D-03
  0.58142937D-04  0.28325982D-04  0.14550646D-04 -0.34524251D-04 -0.58559664D-04
 -0.66668108D-04 -0.17581492D-03 -0.88814412D-04 -0.16346593D-03 -0.26451873D-03
 -0.34771727D-03 -0.29823509D-03 -0.10197164D-03  0.32637382D-03  0.14562736D-03
 -0.43003955D-03 -0.16958336D-03 -0.13065484D-03 -0.57364511D-04  0.68625930D-04
  0.52872579D-04  0.23213910D-04  0.68464770D-04  0.52748415D-04  0.23159395D-04
  0.98858680D-03  0.36045010D-03 -0.44674369D-04 -0.21927560D-04 -0.20705942D-03
 -0.32051127D-03 -0.36550427D-03  0.65953679D-04  0.12367313D-03 -0.47177717D-04
  0.14137310D-03  0.26020197D-03  0.42105591D-03  0.55348978D-03  0.47472497D-03
  0.16231653D-03 -0.76441966D-03 -0.34108256D-03  0.10072214D-02 -0.75508552D-04
 -0.58175269D-04 -0.25542076D-04 -0.24181053D-04 -0.18630198D-04 -0.81796603D-05
  0.31111374D-04  0.23969636D-04  0.10523961D-04 -0.19070098D-02 -0.55335269D-03
  0.67295233D-03 -0.59850515D-04  0.34620317D-03  0.66859568D-04  0.10471869D-02
  0.12907834D-02 -0.11900105D-03  0.12409153D-03  0.40559415D-04  0.68796444D-04
  0.78322320D-04  0.37805864D-03 -0.14400178D-04 -0.26565516D-04 -0.42884979D-04
 -0.55823501D-04 -0.47634295D-04 -0.16446977D-04  0.34772318D-04  0.16026530D-04
 -0.44940062D-04 -0.67151802D-04 -0.51487742D-04 -0.25695992D-04 -0.16660191D-04
 -0.12773978D-04 -0.63751103D-05 -0.34809517D-04 -0.26689730D-04 -0.13320046D-04
  0.10066602D-03  0.92889292D-04 -0.12755642D-04 -0.22587241D-04  0.61971474D-06
 -0.71865455D-04  0.33160531D-04 -0.86541427D-04 -0.75671436D-04  0.48547611D-04
 -0.19179709D-04 -0.32532416D-04 -0.37037006D-04  0.91579036D-05  0.47714146D-05
  0.80932222D-05  0.92138474D-05  0.40944015D-04  0.42244358D-04  0.71654428D-04
  0.81576033D-04 -0.73967107D-04  0.22937776D-04  0.38906810D-04  0.44294028D-04
  0.16765275D-03 -0.39243408D-04 -0.72396426D-04 -0.11687028D-03 -0.15213038D-03
 -0.12981313D-03 -0.44821353D-04  0.53638294D-04  0.24721841D-04 -0.69322622D-04
  0.67334732D-04  0.51628002D-04  0.25765991D-04 -0.57864415D-05 -0.44366763D-05
 -0.22142124D-05  0.73117371D-06  0.56061762D-06  0.27978749D-06 -0.10139455D-03
  0.58396005D-05  0.73522105D-04  0.89811003D-05  0.75053158D-05 -0.91258842D-04
 -0.49592914D-04 -0.66580436D-04  0.83620565D-05 -0.20360509D-04 -0.80453936D-05
 -0.13646510D-04 -0.15536070D-04 -0.17414329D-04 -0.74887821D-05 -0.12702392D-04
 -0.14461224D-04 -0.20182634D-04  0.26918474D-05  0.45658827D-05  0.51980961D-05
  0.34768428D-04
MO    4     MO 0.0        OCC NO =    2.0000000  ORB. ENERGY =  -10.050938
  0.20886372D-02  0.38531278D-02  0.62201430D-02  0.80967780D-02  0.69089954D-02
  0.23855101D-02  0.15810931D-04  0.72872439D-05 -0.20434192D-04 -0.30855991D-03
 -0.23658416D-03 -0.11807208D-03  0.67707139D-05  0.51913540D-05  0.25908495D-05
 -0.19333496D-04 -0.14823699D-04 -0.73980646D-05  0.85585989D-03  0.43796083D-03
 -0.94239984D-04  0.31906395D-04 -0.43945921D-03 -0.20541404D-03 -0.19761377D-03
 -0.16879905D-05 -0.36823079D-04 -0.78695834D-06  0.28548284D-05  0.52666010D-05
  0.85019270D-05  0.11066983D-04  0.94434765D-05  0.32606055D-05  0.85371487D-05
  0.39347640D-05 -0.11033489D-04 -0.12615014D-03 -0.96723927D-04 -0.48272019D-04
 -0.31217608D-04 -0.23935682D-04 -0.11945583D-04 -0.20501177D-04 -0.15719003D-04
 -0.78448839D-05 -0.29414773D-03  0.31585307D-03 -0.18518137D-04  0.32477450D-04
 -0.51042025D-04  0.13972258D-03 -0.35726385D-04 -0.87971198D-04 -0.17606808D-07
 -0.10495802D-05  0.93340573D-06  0.17219513D-05  0.27797633D-05  0.36184259D-05
  0.30876094D-05  0.10660773D-05  0.77068287D-04  0.35520703D-04 -0.99603759D-04
 -0.38494361D-04 -0.29515034D-04 -0.14730071D-04 -0.31063509D-04 -0.23817528D-04
 -0.11886616D-04  0.16549792D-05  0.12689331D-05  0.63328655D-06  0.38328698D-03
  0.36739316D-03  0.56214816D-05  0.28842609D-04  0.18233993D-04 -0.64420291D-04
 -0.87164189D-04  0.23828930D-04  0.16283436D-04  0.36266381D-05  0.91289655D-05
  0.16841159D-04  0.27186852D-04  0.35389203D-04  0.30197671D-04  0.10426530D-04
 -0.33596386D-05 -0.15484543D-05  0.43420276D-05  0.16180436D-05  0.12406132D-05
  0.61915295D-06 -0.13507498D-04 -0.10356693D-04 -0.51687156D-05 -0.33355418D-05
 -0.25574819D-05 -0.12763627D-05 -0.12812808D-03 -0.16273223D-03  0.13219928D-03
 -0.87111251D-05 -0.34550964D-04  0.27526925D-04 -0.17364031D-04  0.67574200D-07
  0.40261483D-05  0.49224879D-06 -0.19220934D-04 -0.35458870D-04 -0.57241610D-04
 -0.74511568D-04 -0.63580856D-04 -0.21952942D-04  0.67361056D-04  0.31046649D-04
 -0.87058045D-04 -0.19149540D-04 -0.14682653D-04 -0.73276727D-05 -0.11046731D-04
 -0.84699325D-05 -0.42270900D-05  0.14787656D-05  0.11338237D-05  0.56585747D-06
  0.36118557D-03  0.35934035D-04  0.16587595D-03  0.50869859D-05  0.38101830D-04
 -0.23723948D-05 -0.70877588D-04  0.23030392D-04  0.15489274D-04  0.31068097D-05
 -0.17069193D-04 -0.31489328D-04 -0.50833539D-04 -0.66170164D-04 -0.56463121D-04
 -0.19495359D-04  0.14877523D-04  0.68570368D-05 -0.19227847D-04 -0.12435867D-03
 -0.95350342D-04 -0.47586503D-04 -0.20318455D-05 -0.15578902D-05 -0.77749641D-06
 -0.19907386D-04 -0.15263721D-04 -0.76176665D-05 -0.22311557D-03  0.48126156D-04
 -0.75396783D-04  0.63235628D-05 -0.70171145D-04  0.71642931D-04 -0.59015265D-04
 -0.80611999D-04  0.22455024D-05  0.44797889D-05  0.26886721D-05  0.45604967D-05
  0.51919643D-05  0.58359119D-04 -0.22138747D-05 -0.40747112D-05 -0.65936519D-05
 -0.86675399D-05 -0.74340986D-05 -0.25418446D-05  0.33778215D-05  0.15071774D-05
 -0.44507150D-05 -0.40191021D-04 -0.30965015D-04 -0.13595310D-04  0.29894094D-05
  0.23031788D-05  0.10112195D-05 -0.14974187D-04 -0.11536804D-04 -0.50652783D-05
 -0.52804404D-04  0.32904197D-05 -0.24708817D-04  0.78854071D-06  0.60362249D-05
 -0.11043748D-04 -0.32327694D-04 -0.20482398D-04  0.97215398D-05 -0.46425153D-05
 -0.15954262D-04 -0.29364360D-04 -0.47517077D-04 -0.62462528D-04 -0.53573747D-04
 -0.18317774D-04  0.55397514D-04  0.24718263D-04 -0.72993361D-04  0.98579329D-05
  0.75950059D-05  0.33346167D-05  0.90446136D-04  0.69683872D-04  0.30594973D-04
 -0.28840667D-05 -0.22220179D-05 -0.97558555D-06  0.16345635D-03 -0.15191464D-04
 -0.97427617D-04  0.50034253D-06 -0.87839104D-04 -0.17603858D-04 -0.58634316D-04
 -0.26508751D-04 -0.32264750D-05 -0.46636112D-05 -0.16003539D-04 -0.27145031D-04
 -0.30903659D-04 -0.45311447D-05 -0.48519504D-06 -0.89509010D-06 -0.14449530D-05
 -0.18808994D-05 -0.16049749D-05 -0.55415926D-06 -0.17603691D-05 -0.81135251D-06
  0.22751171D-05 -0.95645268D-05 -0.73334725D-05 -0.36599167D-05 -0.88430209D-05
 -0.67802675D-05 -0.33838287D-05 -0.73177145D-05 -0.56107594D-05 -0.28001622D-05
 -0.48907737D-05 -0.19860123D-05  0.28933225D-05 -0.34679555D-05 -0.13565121D-04
  0.14137668D-06  0.69984169D-05  0.45665779D-05 -0.13435050D-04  0.50950244D-05
 -0.13419958D-05 -0.22762788D-05 -0.25914630D-05  0.42113557D-05  0.56747037D-06
  0.96253714D-06  0.10958145D-05 -0.27942026D-06  0.36490601D-05  0.61894965D-05
  0.70465230D-05  0.26023921D-04 -0.77081099D-05 -0.13074413D-04 -0.14884757D-04
 -0.45974209D-04  0.53255331D+00  0.98245686D+00  0.15859900D+01  0.20644877D+01
  0.17616311D+01  0.60824889D+00 -0.20027625D-01 -0.92307141D-02  0.25883886D-01
  0.18891098D-03  0.14484496D-03  0.72287786D-04  0.10449748D-03  0.80122041D-04
  0.39986514D-04  0.23358376D-04  0.17909722D-04  0.89382063D-05 -0.33766466D-02
  0.18731348D-03  0.26093453D-04  0.14310517D-04 -0.10273383D-01 -0.10121381D-01
 -0.10105865D-01 -0.11344601D-03 -0.42214283D-04 -0.11518154D-04 -0.20871956D-05
 -0.35402788D-05 -0.40304823D-05  0.50198893D-03 -0.25707513D-05 -0.43604808D-05