 Generated by Multiwfn (http://sobereva.com/multiwfn)
GAUSSIAN             36 MOL ORBITALS    316 PRIMITIVES       19 NUCLEI
  C    1    (CENTRE  1)   3.61213984 -0.10388570  0.09966801  CHARGE =  6.0
  C    2    (CENTRE  2)   1.94027074  1.94321867  0.01116836  CHARGE =  6.0
  C    3    (CENTRE  3)  -0.65975807  1.60274855 -0.22572960  CHARGE =  6.0
  C    4    (CENTRE  4)  -1.63033836 -0.86643944 -0.35470152  CHARGE =  6.0
  C    5    (CENTRE  5)   0.01492717 -2.90527059 -0.27672386  CHARGE =  6.0
  C    6    (CENTRE  6)   2.61473488 -2.53772069 -0.05995715  CHARGE =  6.0
  H    7    (CENTRE  7)  -0.78268461 -4.78635879 -0.40858328  CHARGE =  1.0
  O    8    (CENTRE  8)  -4.17449742 -1.32746086 -0.70233364  CHARGE =  8.0
  O    9    (CENTRE  9)  -2.31850680  3.56835659 -0.36677876  CHARGE =  8.0
  H   10    (CENTRE 10)   2.67602800  3.86034962  0.10717589  CHARGE =  1.0
  C   11    (CENTRE 11)  -5.81601182 -0.49947929  1.11802630  CHARGE =  6.0
  H   12    (CENTRE 12)  -5.09523437 -0.20159229  3.00968751  CHARGE =  1.0
  H   13    (CENTRE 13)  -7.75297163 -1.00991137  0.73327240  CHARGE =  1.0
  H   14    (CENTRE 14)  -1.38910929  5.13030407 -0.28295428  CHARGE =  1.0
  H   15    (CENTRE 15)   3.86452797 -4.15999195 -0.00661018  CHARGE =  1.0
  C   16    (CENTRE 16)   6.41748739  0.34197068  0.36778802  CHARGE =  6.0
  H   17    (CENTRE 17)   7.11824316  1.63625168 -1.08435879  CHARGE =  1.0
  H   18    (CENTRE 18)   6.87306443  1.17613549  2.20563361  CHARGE =  1.0
  H   19    (CENTRE 19)   7.47145950 -1.42320546  0.20240486  CHARGE =  1.0
CENTRE ASSIGNMENTS    1  1  1  1  1  1  1  1  1  1  1  1  1  1  1  1  1  1  1  1
CENTRE ASSIGNMENTS    1  1  1  1  1  1  1  1  2  2  2  2  2  2  2  2  2  2  2  2
CENTRE ASSIGNMENTS    2  2  2  2  2  2  2  2  2  2  2  2  2  2  2  2  3  3  3  3
CENTRE ASSIGNMENTS    3  3  3  3  3  3  3  3  3  3  3  3  3  3  3  3  3  3  3  3
CENTRE ASSIGNMENTS    3  3  3  3  4  4  4  4  4  4  4  4  4  4  4  4  4  4  4  4
CENTRE ASSIGNMENTS    4  4  4  4  4  4  4  4  4  4  4  4  5  5  5  5  5  5  5  5
CENTRE ASSIGNMENTS    5  5  5  5  5  5  5  5  5  5  5  5  5  5  5  5  5  5  5  5
CENTRE ASSIGNMENTS    6  6  6  6  6  6  6  6  6  6  6  6  6  6  6  6  6  6  6  6
CENTRE ASSIGNMENTS    6  6  6  6  6  6  6  6  7  7  7  7  8  8  8  8  8  8  8  8
CENTRE ASSIGNMENTS    8  8  8  8  8  8  8  8  8  8  8  8  8  8  8  8  8  8  8  8
CENTRE ASSIGNMENTS    9  9  9  9  9  9  9  9  9  9  9  9  9  9  9  9  9  9  9  9
CENTRE ASSIGNMENTS    9  9  9  9  9  9  9  9 10 10 10 10 11 11 11 11 11 11 11 11
CENTRE ASSIGNMENTS   11 11 11 11 11 11 11 11 11 11 11 11 11 11 11 11 11 11 11 11
CENTRE ASSIGNMENTS   12 12 12 12 13 13 13 13 14 14 14 14 15 15 15 15 16 16 16 16
CENTRE ASSIGNMENTS   16 16 16 16 16 16 16 16 16 16 16 16 16 16 16 16 16 16 16 16
CENTRE ASSIGNMENTS   16 16 16 16 17 17 17 17 18 18 18 18 19 19 19 19
TYPE ASSIGNMENTS      1  1  1  1  1  1  1  1  1  2  2  2  3  3  3  4  4  4  1  2
TYPE ASSIGNMENTS      3  4  5  6  7  8  9 10  1  1  1  1  1  1  1  1  1  2  2  2
TYPE ASSIGNMENTS      3  3  3  4  4  4  1  2  3  4  5  6  7  8  9 10  1  1  1  1
TYPE ASSIGNMENTS      1  1  1  1  1  2  2  2  3  3  3  4  4  4  1  2  3  4  5  6
TYPE ASSIGNMENTS      7  8  9 10  1  1  1  1  1  1  1  1  1  2  2  2  3  3  3  4
TYPE ASSIGNMENTS      4  4  1  2  3  4  5  6  7  8  9 10  1  1  1  1  1  1  1  1
TYPE ASSIGNMENTS      1  2  2  2  3  3  3  4  4  4  1  2  3  4  5  6  7  8  9 10
TYPE ASSIGNMENTS      1  1  1  1  1  1  1  1  1  2  2  2  3  3  3  4  4  4  1  2
TYPE ASSIGNMENTS      3  4  5  6  7  8  9 10  1  1  1  1  1  1  1  1  1  1  1  1
TYPE ASSIGNMENTS      1  2  2  2  3  3  3  4  4  4  1  2  3  4  5  6  7  8  9 10
TYPE ASSIGNMENTS      1  1  1  1  1  1  1  1  1  2  2  2  3  3  3  4  4  4  1  2
TYPE ASSIGNMENTS      3  4  5  6  7  8  9 10  1  1  1  1  1  1  1  1  1  1  1  1
TYPE ASSIGNMENTS      1  2  2  2  3  3  3  4  4  4  1  2  3  4  5  6  7  8  9 10
TYPE ASSIGNMENTS      1  1  1  1  1  1  1  1  1  1  1  1  1  1  1  1  1  1  1  1
TYPE ASSIGNMENTS      1  1  1  1  1  2  2  2  3  3  3  4  4  4  1  2  3  4  5  6
TYPE ASSIGNMENTS      7  8  9 10  1  1  1  1  1  1  1  1  1  1  1  1
EXPONENTS  0.3047525D+04 0.4573695D+03 0.1039487D+03 0.2921016D+02 0.9286663D+01
EXPONENTS  0.3163927D+01 0.7868272D+01 0.1881289D+01 0.5442493D+00 0.7868272D+01
EXPONENTS  0.1881289D+01 0.5442493D+00 0.7868272D+01 0.1881289D+01 0.5442493D+00
EXPONENTS  0.7868272D+01 0.1881289D+01 0.5442493D+00 0.1687145D+00 0.1687145D+00
EXPONENTS  0.1687145D+00 0.1687145D+00 0.8000000D+00 0.8000000D+00 0.8000000D+00
EXPONENTS  0.8000000D+00 0.8000000D+00 0.8000000D+00 0.3047525D+04 0.4573695D+03
EXPONENTS  0.1039487D+03 0.2921016D+02 0.9286663D+01 0.3163927D+01 0.7868272D+01
EXPONENTS  0.1881289D+01 0.5442493D+00 0.7868272D+01 0.1881289D+01 0.5442493D+00
EXPONENTS  0.7868272D+01 0.1881289D+01 0.5442493D+00 0.7868272D+01 0.1881289D+01
EXPONENTS  0.5442493D+00 0.1687145D+00 0.1687145D+00 0.1687145D+00 0.1687145D+00
EXPONENTS  0.8000000D+00 0.8000000D+00 0.8000000D+00 0.8000000D+00 0.8000000D+00
EXPONENTS  0.8000000D+00 0.3047525D+04 0.4573695D+03 0.1039487D+03 0.2921016D+02
EXPONENTS  0.9286663D+01 0.3163927D+01 0.7868272D+01 0.1881289D+01 0.5442493D+00
EXPONENTS  0.7868272D+01 0.1881289D+01 0.5442493D+00 0.7868272D+01 0.1881289D+01
EXPONENTS  0.5442493D+00 0.7868272D+01 0.1881289D+01 0.5442493D+00 0.1687145D+00
EXPONENTS  0.1687145D+00 0.1687145D+00 0.1687145D+00 0.8000000D+00 0.8000000D+00
EXPONENTS  0.8000000D+00 0.8000000D+00 0.8000000D+00 0.8000000D+00 0.3047525D+04
EXPONENTS  0.4573695D+03 0.1039487D+03 0.2921016D+02 0.9286663D+01 0.3163927D+01
EXPONENTS  0.7868272D+01 0.1881289D+01 0.5442493D+00 0.7868272D+01 0.1881289D+01
EXPONENTS  0.5442493D+00 0.7868272D+01 0.1881289D+01 0.5442493D+00 0.7868272D+01
EXPONENTS  0.1881289D+01 0.5442493D+00 0.1687145D+00 0.1687145D+00 0.1687145D+00
EXPONENTS  0.1687145D+00 0.8000000D+00 0.8000000D+00 0.8000000D+00 0.8000000D+00
EXPONENTS  0.8000000D+00 0.8000000D+00 0.3047525D+04 0.4573695D+03 0.1039487D+03
EXPONENTS  0.2921016D+02 0.9286663D+01 0.3163927D+01 0.7868272D+01 0.1881289D+01
EXPONENTS  0.5442493D+00 0.7868272D+01 0.1881289D+01 0.5442493D+00 0.7868272D+01
EXPONENTS  0.1881289D+01 0.5442493D+00 0.7868272D+01 0.1881289D+01 0.5442493D+00
EXPONENTS  0.1687145D+00 0.1687145D+00 0.1687145D+00 0.1687145D+00 0.8000000D+00
EXPONENTS  0.8000000D+00 0.8000000D+00 0.8000000D+00 0.8000000D+00 0.8000000D+00
EXPONENTS  0.3047525D+04 0.4573695D+03 0.1039487D+03 0.2921016D+02 0.9286663D+01
EXPONENTS  0.3163927D+01 0.7868272D+01 0.1881289D+01 0.5442493D+00 0.7868272D+01
EXPONENTS  0.1881289D+01 0.5442493D+00 0.7868272D+01 0.1881289D+01 0.5442493D+00
EXPONENTS  0.7868272D+01 0.1881289D+01 0.5442493D+00 0.1687145D+00 0.1687145D+00
EXPONENTS  0.1687145D+00 0.1687145D+00 0.8000000D+00 0.8000000D+00 0.8000000D+00
EXPONENTS  0.8000000D+00 0.8000000D+00 0.8000000D+00 0.1873114D+02 0.2825394D+01
EXPONENTS  0.6401217D+00 0.1612778D+00 0.5484672D+04 0.8252349D+03 0.1880470D+03
EXPONENTS  0.5296450D+02 0.1689757D+02 0.5799635D+01 0.1553962D+02 0.3599934D+01
EXPONENTS  0.1013762D+01 0.1553962D+02 0.3599934D+01 0.1013762D+01 0.1553962D+02
EXPONENTS  0.3599934D+01 0.1013762D+01 0.1553962D+02 0.3599934D+01 0.1013762D+01
EXPONENTS  0.2700058D+00 0.2700058D+00 0.2700058D+00 0.2700058D+00 0.8000000D+00
EXPONENTS  0.8000000D+00 0.8000000D+00 0.8000000D+00 0.8000000D+00 0.8000000D+00
EXPONENTS  0.5484672D+04 0.8252349D+03 0.1880470D+03 0.5296450D+02 0.1689757D+02
EXPONENTS  0.5799635D+01 0.1553962D+02 0.3599934D+01 0.1013762D+01 0.1553962D+02
EXPONENTS  0.3599934D+01 0.1013762D+01 0.1553962D+02 0.3599934D+01 0.1013762D+01
EXPONENTS  0.1553962D+02 0.3599934D+01 0.1013762D+01 0.2700058D+00 0.2700058D+00
EXPONENTS  0.2700058D+00 0.2700058D+00 0.8000000D+00 0.8000000D+00 0.8000000D+00
EXPONENTS  0.8000000D+00 0.8000000D+00 0.8000000D+00 0.1873114D+02 0.2825394D+01
EXPONENTS  0.6401217D+00 0.1612778D+00 0.3047525D+04 0.4573695D+03 0.1039487D+03
EXPONENTS  0.2921016D+02 0.9286663D+01 0.3163927D+01 0.7868272D+01 0.1881289D+01
EXPONENTS  0.5442493D+00 0.7868272D+01 0.1881289D+01 0.5442493D+00 0.7868272D+01
EXPONENTS  0.1881289D+01 0.5442493D+00 0.7868272D+01 0.1881289D+01 0.5442493D+00
EXPONENTS  0.1687145D+00 0.1687145D+00 0.1687145D+00 0.1687145D+00 0.8000000D+00
EXPONENTS  0.8000000D+00 0.8000000D+00 0.8000000D+00 0.8000000D+00 0.8000000D+00
EXPONENTS  0.1873114D+02 0.2825394D+01 0.6401217D+00 0.1612778D+00 0.1873114D+02
EXPONENTS  0.2825394D+01 0.6401217D+00 0.1612778D+00 0.1873114D+02 0.2825394D+01
EXPONENTS  0.6401217D+00 0.1612778D+00 0.1873114D+02 0.2825394D+01 0.6401217D+00
EXPONENTS  0.1612778D+00 0.3047525D+04 0.4573695D+03 0.1039487D+03 0.2921016D+02
EXPONENTS  0.9286663D+01 0.3163927D+01 0.7868272D+01 0.1881289D+01 0.5442493D+00
EXPONENTS  0.7868272D+01 0.1881289D+01 0.5442493D+00 0.7868272D+01 0.1881289D+01
EXPONENTS  0.5442493D+00 0.7868272D+01 0.1881289D+01 0.5442493D+00 0.1687145D+00
EXPONENTS  0.1687145D+00 0.1687145D+00 0.1687145D+00 0.8000000D+00 0.8000000D+00
EXPONENTS  0.8000000D+00 0.8000000D+00 0.8000000D+00 0.8000000D+00 0.1873114D+02
EXPONENTS  0.2825394D+01 0.6401217D+00 0.1612778D+00 0.1873114D+02 0.2825394D+01
EXPONENTS  0.6401217D+00 0.1612778D+00 0.1873114D+02 0.2825394D+01 0.6401217D+00
EXPONENTS  0.1612778D+00
MO    1     MO 0.0        OCC NO =    2.0000000  ORB. ENERGY =  -19.478568
  0.69689065D-05  0.12856272D-04  0.20754009D-04  0.27015553D-04  0.23052420D-04
  0.79594467D-05 -0.30564721D-04 -0.14087252D-04  0.39502125D-04 -0.20041383D-04
 -0.15366461D-04 -0.76689411D-05 -0.16815346D-04 -0.12892941D-04 -0.64344809D-05
  0.65003368D-05  0.49840460D-05  0.24873882D-05 -0.26324357D-03  0.14309063D-03
  0.79710174D-05  0.78766181D-05  0.89570431D-05 -0.31329535D-04  0.30390146D-04
  0.19509110D-04 -0.16139599D-05 -0.28634104D-05 -0.26276987D-06 -0.48475910D-06
 -0.78255150D-06 -0.10186495D-05 -0.86921550D-06 -0.30011922D-06  0.82710705D-05
  0.38121288D-05 -0.10689607D-04 -0.81971653D-04 -0.62850665D-04 -0.31366887D-04
 -0.17314968D-04 -0.13276019D-04 -0.66256639D-05 -0.22407875D-05 -0.17180937D-05
 -0.85744918D-06  0.34589523D-03 -0.42290860D-04 -0.17463649D-03 -0.30048069D-05
  0.17553091D-04  0.16338356D-04  0.14939793D-04  0.80951206D-05 -0.10333575D-04
  0.36017866D-05  0.22133598D-04  0.40832167D-04  0.65915778D-04  0.85802758D-04
  0.73215649D-04  0.25279604D-04 -0.98173396D-04 -0.45248029D-04  0.12688020D-03
 -0.84277451D-05 -0.64618604D-05 -0.32249212D-05  0.42046522D-04  0.32238606D-04
  0.16089324D-04 -0.39728391D-06 -0.30461210D-06 -0.15202279D-06 -0.46763018D-03
 -0.25388479D-03  0.36755643D-03 -0.35510781D-04  0.27123518D-04 -0.23445352D-04
  0.80320980D-04 -0.71458569D-04 -0.83030941D-05  0.20464835D-04 -0.27598486D-04
 -0.50913818D-04 -0.82190688D-04 -0.10698785D-03 -0.91292930D-04 -0.31521255D-04
 -0.13553820D-04 -0.62469433D-05  0.17517081D-04 -0.58711240D-03 -0.45016055D-03
 -0.22466166D-03 -0.12588678D-03 -0.96521996D-04 -0.48171241D-04 -0.14867302D-03
 -0.11399304D-03 -0.56890515D-04  0.18922913D-03  0.72126114D-03  0.14685603D-03
  0.11535435D-03  0.10270765D-03  0.29302503D-05 -0.81361328D-04  0.90114154D-04
  0.80776806D-04  0.38580115D-04  0.92842644D-05  0.17127655D-04  0.27649346D-04
  0.35991233D-04  0.30711384D-04  0.10603903D-04 -0.77887172D-04 -0.35898126D-04
  0.10066209D-03 -0.20657245D-05 -0.15838665D-05 -0.79046039D-06 -0.98919695D-05
 -0.75845348D-05 -0.37852144D-05 -0.10748303D-05 -0.82411171D-06 -0.41128950D-06
 -0.38218894D-03 -0.82439083D-04 -0.27740711D-03 -0.29682976D-04 -0.62434159D-04
 -0.10718392D-03  0.44539857D-04  0.48197270D-04 -0.16514880D-04 -0.44109716D-04
  0.19735199D-05  0.36407588D-05  0.58773135D-05  0.76505159D-05  0.65281991D-05
  0.22540303D-05  0.15158795D-05  0.69866750D-06 -0.19591366D-05 -0.74282638D-04
 -0.56955215D-04 -0.28424644D-04  0.21125078D-05  0.16197370D-05  0.80836227D-06
  0.54316784D-06  0.41646665D-06  0.20784604D-06  0.24324501D-03 -0.58024517D-04
  0.96536247D-04  0.15731886D-05  0.25658375D-04  0.22200376D-04  0.24494567D-04
  0.32485651D-04 -0.70141189D-05 -0.92015060D-06 -0.23646940D-05 -0.40109687D-05
 -0.45663460D-05 -0.12680336D-03  0.82562394D+00  0.15195888D+01  0.24589815D+01
  0.32324000D+01  0.27724107D+01  0.94793431D+00 -0.15705017D-01 -0.70075481D-02
  0.20693383D-01  0.67094486D-03  0.51692684D-03  0.22695873D-03  0.16184868D-02
  0.12469568D-02  0.54748120D-03  0.24799843D-02  0.19106942D-02  0.83889769D-03
  0.39718750D-02  0.26567055D-03  0.30882670D-04  0.34514122D-04 -0.93222146D-02
 -0.93294863D-02 -0.93780950D-02  0.43597602D-04  0.11935269D-03 -0.79234816D-04
  0.36769274D-04  0.67675092D-04  0.10951107D-03  0.14395537D-03  0.12346969D-03
  0.42216383D-04 -0.16015533D-03 -0.71460995D-04  0.21102527D-03  0.38803747D-04
  0.29896195D-04  0.13126040D-04 -0.12993386D-03 -0.10010703D-03 -0.43952380D-04
 -0.28088553D-04 -0.21640716D-04 -0.95014398D-05 -0.46047831D-03 -0.10200545D-03
  0.10127040D-03  0.14927579D-05  0.17338895D-03  0.18992549D-03  0.20332672D-03
  0.71601487D-04 -0.20473047D-05 -0.48167181D-05  0.91006701D-05  0.15436459D-04
  0.17573863D-04  0.46452860D-04 -0.24045489D-05 -0.44359232D-05 -0.71609555D-05
 -0.93214363D-05 -0.79539985D-05 -0.27463245D-05 -0.10012178D-03 -0.46146036D-04
  0.12939830D-03  0.24642192D-03  0.18894070D-03  0.94294651D-04 -0.20830775D-03
 -0.15971717D-03 -0.79710063D-04 -0.47655862D-03 -0.36539492D-03 -0.18235767D-03
 -0.25767823D-03 -0.13562146D-04  0.62519435D-04  0.13538223D-03  0.33060250D-04
  0.40530174D-05  0.17402771D-03 -0.15216276D-03 -0.25170802D-03  0.17065541D-03
 -0.26422656D-05 -0.44817825D-05 -0.51023510D-05 -0.30627118D-04  0.27791300D-04
  0.47139304D-04  0.53666432D-04  0.45189506D-04  0.64720626D-05  0.10977843D-04
  0.12497886D-04 -0.22819288D-04  0.55479947D-05  0.94104491D-05  0.10713464D-04
  0.23457404D-04  0.16977634D-05  0.31320420D-05  0.50560869D-05  0.65815229D-05
  0.56160254D-05  0.19390786D-05 -0.66542466D-05 -0.30669362D-05  0.86000092D-05
  0.95843061D-05  0.73486380D-05  0.36674854D-05  0.17774098D-05  0.13628051D-05
  0.68013525D-06 -0.58797257D-06 -0.45082007D-06 -0.22499081D-06 -0.61765407D-04
  0.19528184D-04  0.58768911D-05  0.42090074D-05 -0.72110857D-06  0.45180043D-06
  0.80460283D-05 -0.52994685D-05 -0.46995309D-05 -0.44164556D-06  0.12755370D-05
  0.21635522D-05  0.24631277D-05  0.10872093D-05  0.74711493D-06  0.12672483D-05
  0.14427174D-05 -0.42884376D-06  0.20407900D-05  0.34615661D-05  0.39408706D-05
  0.51238369D-06
MO    2     MO 0.0        OCC NO =    2.0000000  ORB. ENERGY =  -19.350413
 -0.62804351D-05 -0.11586176D-04 -0.18703681D-04 -0.24346636D-04 -0.20775028D-04
 -0.71731180D-05  0.36391637D-04  0.16772872D-04 -0.47032885D-04 -0.55655642D-04
 -0.42673216D-04 -0.21296926D-04  0.44862017D-04  0.34397349D-04  0.17166688D-04
 -0.33604204D-05 -0.25765572D-05 -0.12858826D-05  0.40782742D-03 -0.15968949D-03
  0.11492834D-03 -0.91060050D-05  0.23854261D-04  0.45009904D-04 -0.13261067D-04
 -0.80811620D-04  0.31515136D-05  0.11918688D-05  0.15225795D-04  0.28088619D-04
  0.45343740D-04  0.59024077D-04  0.50365352D-04  0.17389946D-04 -0.95628234D-04
 -0.44074966D-04  0.12359080D-03  0.97552492D-04  0.74797063D-04  0.37328977D-04
 -0.28549903D-04 -0.21890254D-04 -0.10924771D-04  0.15061839D-04  0.11548463D-04
  0.57634925D-05 -0.70888459D-03  0.42586438D-04  0.34134971D-03  0.75368468D-05
 -0.86478905D-04 -0.64937995D-04  0.59439556D-04  0.58233554D-04 -0.19348804D-04
  0.23372099D-05 -0.28263668D-04 -0.52140949D-04 -0.84171659D-04 -0.10956649D-03
 -0.93493285D-04 -0.32280985D-04 -0.60987816D-04 -0.28109229D-04  0.78821212D-04
 -0.40135447D-03 -0.30773315D-03 -0.15358041D-03  0.37725863D-03  0.28925799D-03
  0.14436001D-03 -0.51031268D-04 -0.39127540D-04 -0.19527384D-04  0.55002755D-05
  0.59826235D-03 -0.50797269D-03  0.49246099D-04 -0.35984838D-04 -0.10088080D-03
 -0.10812340D-03 -0.84162269D-05  0.15794871D-04  0.48451886D-05  0.55394831D-05
  0.10219265D-04  0.16497062D-04  0.21474273D-04  0.18324036D-04  0.63268492D-05
 -0.44098704D-04 -0.20325053D-04  0.56993569D-04 -0.66035207D-05 -0.50631609D-05
 -0.25268721D-05 -0.74445580D-05 -0.57080149D-05 -0.28486995D-05 -0.46637426D-04
 -0.35758621D-04 -0.17846058D-04 -0.15355253D-03 -0.41870565D-03 -0.16838014D-04
 -0.25285033D-04  0.31619737D-04 -0.64243574D-04  0.90825132D-05  0.28212901D-04
  0.14709373D-04  0.20052673D-04  0.36692925D-05  0.67691282D-05  0.10927472D-04
  0.14224321D-04  0.12137639D-04  0.41908351D-05 -0.48677935D-05 -0.22435616D-05
  0.62911809D-05 -0.38666672D-04 -0.29647152D-04 -0.14796007D-04  0.84142981D-04
  0.64515501D-04  0.32197756D-04  0.95213686D-05  0.73003816D-05  0.36434020D-05
  0.31202078D-03  0.96206363D-04  0.99850280D-04  0.42474112D-05  0.32308956D-04
  0.19420010D-04  0.30228317D-04 -0.26719726D-05  0.42530069D-05 -0.86352733D-05
  0.61258675D-05  0.11301029D-04  0.18243365D-04  0.23747441D-04  0.20263734D-04
  0.69965806D-05 -0.24439300D-04 -0.11264051D-04  0.31585575D-04 -0.17338004D-04
 -0.13293682D-04 -0.66344789D-05  0.10969316D-04  0.84105757D-05  0.41974668D-05
 -0.17618940D-05 -0.13509086D-05 -0.67419807D-06 -0.19962248D-03  0.12198153D-03
 -0.48469728D-04  0.99695018D-05 -0.12103645D-04  0.41854985D-05  0.26346190D-04
 -0.30933561D-04 -0.11414014D-04 -0.54118435D-05  0.55151242D-05  0.93546946D-05
  0.10649989D-04  0.25890577D-04  0.58686683D-04  0.10801483D-03  0.17478838D-03
  0.22976421D-03  0.19706743D-03  0.67380702D-04 -0.13795270D-03 -0.61554227D-04
  0.18177046D-03  0.10324290D-03  0.79543086D-04  0.34923699D-04  0.99469427D-04
  0.76635831D-04  0.33647257D-04 -0.27163256D-04 -0.20927824D-04 -0.91884421D-05
 -0.39351401D-03 -0.18795407D-03 -0.10207846D-04  0.20981022D-04  0.11360287D-03
  0.21154485D-03  0.19584205D-03 -0.45986328D-04 -0.27578134D-04  0.18076967D-04
  0.82561710D+00  0.15195762D+01  0.24589611D+01  0.32323732D+01  0.27723877D+01
  0.94792645D+00 -0.15791254D-01 -0.70460270D-02  0.20807012D-01  0.31375526D-02
  0.24173152D-02  0.10613316D-02  0.48368496D-03  0.37265318D-03  0.16361482D-03
  0.22232387D-03  0.17128856D-03  0.75204902D-04  0.39243824D-02  0.17087025D-03
 -0.34413606D-03  0.26053888D-04 -0.92992176D-02 -0.92207409D-02 -0.92445177D-02
 -0.14990270D-03 -0.24267856D-04 -0.32560669D-04 -0.20435933D-04 -0.34663210D-04
 -0.39462840D-04 -0.66737213D-04  0.24453562D-04  0.45112047D-04  0.72824832D-04
  0.94796293D-04  0.80889848D-04  0.27929321D-04 -0.47205407D-04 -0.21756929D-04
  0.61008700D-04  0.92266470D-04  0.70744077D-04  0.35306253D-04  0.13367270D-03
  0.10249175D-03  0.51150567D-04 -0.11903694D-04 -0.91269976D-05 -0.45550115D-05
 -0.15258201D-03 -0.78385570D-04 -0.22639018D-04  0.13906496D-04  0.11540379D-03
  0.14855637D-03  0.65641561D-04  0.38212729D-04  0.74309784D-04 -0.48711304D-04
  0.14308287D-04  0.24269563D-04  0.27630039D-04  0.35012448D-04 -0.62734089D-05
 -0.10640889D-04 -0.12114276D-04 -0.21138314D-04  0.92282917D-04  0.15652929D-03
  0.17820307D-03 -0.18720854D-03 -0.63554159D-05 -0.10779988D-04 -0.12272636D-04
 -0.32869292D-04  0.38982167D-05  0.71914486D-05  0.11609228D-04  0.15111765D-04
  0.12894897D-04  0.44522980D-05 -0.13667182D-04 -0.62991919D-05  0.17663592D-04
 -0.53954836D-05 -0.41369146D-05 -0.20646103D-05 -0.16335215D-05 -0.12524807D-05
 -0.62507563D-06  0.79074705D-06  0.60629468D-06  0.30258354D-06  0.16657095D-05
  0.95380396D-05 -0.27279774D-04 -0.14494529D-05 -0.12621279D-04  0.30995664D-04
  0.69936365D-05  0.31313006D-04 -0.28908621D-05  0.10339782D-04  0.33989445D-05
  0.57652532D-05  0.65635370D-05  0.51604179D-05  0.25753960D-05  0.43683591D-05
  0.49732225D-05  0.59756461D-05 -0.82288964D-06 -0.13957766D-05 -0.15890423D-05
 -0.11984344D-04
MO    3     MO 0.0        OCC NO =    2.0000000  ORB. ENERGY =  -10.536645
 -0.25932176D-05 -0.47839801D-05 -0.77228273D-05 -0.10052826D-04 -0.85780950D-05
 -0.29618101D-05  0.78565878D-05  0.36210941D-05 -0.10153926D-04  0.12748599D-04
  0.97748173D-05  0.48783189D-05 -0.16295774D-04 -0.12494566D-04 -0.62356640D-05
  0.16637562D-04  0.12756627D-04  0.63664509D-05  0.72188550D-04 -0.37204389D-04
 -0.16881879D-04 -0.14068414D-04 -0.12028601D-04  0.96238345D-05 -0.11159770D-04
  0.44268254D-05  0.18840187D-05 -0.21307663D-05 -0.75011005D-05 -0.13838066D-04
 -0.22338929D-04 -0.29078648D-04 -0.24812863D-04 -0.85672852D-05  0.25038496D-04
  0.11540220D-04 -0.32359982D-04  0.65695823D-05  0.50371390D-05  0.25138854D-05
  0.23723048D-04  0.18189328D-04  0.90777497D-05  0.95436520D-05  0.73174670D-05
  0.36519289D-05 -0.52601298D-04 -0.10312904D-04  0.11760064D-06  0.12769278D-04
  0.44737200D-04 -0.18981161D-04 -0.40122471D-04  0.31528659D-04 -0.11813249D-04
  0.36742318D-05 -0.12105806D-04 -0.22332848D-04 -0.36052141D-04 -0.46929176D-04
 -0.40044751D-04 -0.13826490D-04 -0.16755799D-05 -0.77227326D-06  0.21655348D-05
  0.92977340D-04  0.71289127D-04  0.35578271D-04 -0.31962889D-04 -0.24507116D-04
 -0.12230768D-04  0.26972072D-04  0.20680474D-04  0.10321006D-04 -0.68184746D-04
  0.12959444D-03 -0.43782783D-04 -0.39931302D-04 -0.15112308D-03  0.36596001D-04
 -0.23193962D-04 -0.59280151D-04 -0.36819749D-05  0.34089422D-04 -0.13623549D-04
 -0.25132789D-04 -0.40572113D-04 -0.52812837D-04 -0.45065289D-04 -0.15559961D-04
  0.66722214D-04  0.30752207D-04 -0.86232400D-04  0.29181602D-04  0.22374602D-04
  0.11166494D-04 -0.22215993D-04 -0.17033814D-04 -0.85010671D-05 -0.68274816D-04
 -0.52348798D-04 -0.26125719D-04 -0.18222064D-04 -0.38840033D-03  0.14135586D-03
  0.83131977D-04  0.26408698D-03 -0.17033546D-05  0.15515919D-04  0.21149350D-04
 -0.17315823D-03  0.45363741D-04 -0.95732307D-05 -0.17660741D-04 -0.28509912D-04
 -0.37111435D-04 -0.31667255D-04 -0.10933942D-04  0.30634567D-04  0.14119444D-04
 -0.39592394D-04 -0.61188776D-04 -0.46915672D-04 -0.23414209D-04 -0.35453179D-05
 -0.27183249D-05 -0.13566346D-05 -0.15597268D-04 -0.11958995D-04 -0.59683769D-05
  0.38548735D-03  0.65401692D-04  0.19787780D-03 -0.19676012D-04 -0.18358551D-04
  0.14732718D-04 -0.32699939D-04  0.99408297D-05  0.26091567D-04 -0.58852558D-04
  0.27137594D-05  0.50063562D-05  0.80818112D-05  0.10520117D-04  0.89768347D-05
  0.30994853D-05 -0.13556693D-04 -0.62482673D-05  0.17520794D-04  0.53683507D-04
  0.41161108D-04  0.20542278D-04  0.94912040D-05  0.72772532D-05  0.36318594D-05
  0.15517686D-04  0.11897977D-04  0.59379244D-05 -0.19558233D-03  0.60493673D-04
 -0.55983574D-04  0.98735503D-05 -0.16419422D-04  0.33767234D-05 -0.31205040D-06
 -0.60575619D-06 -0.12183212D-04 -0.70400706D-05  0.10239635D-04  0.17368360D-04
  0.19773264D-04  0.74648037D-04 -0.17110786D-04 -0.31492981D-04 -0.50961587D-04
 -0.66990433D-04 -0.57457305D-04 -0.19645628D-04 -0.22587624D-03 -0.10078554D-03
  0.29762104D-03  0.19709864D-03  0.15185387D-03  0.66672030D-04  0.15957100D-03
  0.12294085D-03  0.53977655D-04 -0.10680153D-03 -0.82284823D-04 -0.36127469D-04
 -0.36120301D-03  0.16757544D-04 -0.22383749D-03 -0.23305314D-03 -0.23465117D-03
  0.25257162D-03 -0.16288743D-03  0.28307218D-03  0.73880535D-03 -0.66894127D-03
 -0.53406095D-04 -0.98295724D-04 -0.15906104D-03 -0.20909018D-03 -0.17933544D-03
 -0.61317831D-04  0.12787034D-03  0.57055499D-04 -0.16848565D-03  0.27583143D-03
  0.21251324D-03  0.93304760D-04  0.28885178D-03  0.22254472D-03  0.97709121D-04
 -0.14742002D-03 -0.11357918D-03 -0.49867377D-04  0.29999944D-03 -0.50171194D-04
 -0.13720386D-03  0.50928727D-04 -0.23244591D-03 -0.23445947D-03 -0.24175237D-03
 -0.47787552D-04 -0.17166847D-04 -0.86665717D-04  0.16933784D-05  0.28722902D-05
  0.32700009D-05  0.81839834D-05  0.53251760D+00  0.98239100D+00  0.15858837D+01
  0.20643493D+01  0.17615130D+01  0.60820812D+00 -0.19199292D-01 -0.88489361D-02
  0.24813340D-01  0.12005600D-02  0.92051329D-03  0.45940065D-03 -0.13781796D-03
 -0.10567007D-03 -0.52736771D-04 -0.10928978D-02 -0.83796472D-03 -0.41820312D-03
 -0.17140768D-02 -0.79258327D-04 -0.40531557D-05 -0.95676926D-04 -0.99915601D-02
 -0.10556801D-01 -0.10020658D-01 -0.11136218D-03 -0.45409247D-03  0.41549091D-03
 -0.57254487D-04 -0.97114446D-04 -0.11056136D-03  0.40692318D-03 -0.95533689D-04
 -0.16204322D-03 -0.18448048D-03  0.28992516D-03  0.28278715D-04  0.47966052D-04
  0.54607655D-04  0.14608763D-04 -0.22287153D-05 -0.37803230D-05 -0.43037641D-05
 -0.16759310D-04 -0.14478370D-05 -0.26709766D-05 -0.43117844D-05 -0.56126622D-05
 -0.47892948D-05 -0.16536284D-05  0.42317248D-05  0.19503981D-05 -0.54691199D-05
  0.22049798D-06  0.16906387D-06  0.84374719D-07 -0.78212311D-05 -0.59968239D-05
 -0.29928354D-05 -0.40598736D-05 -0.31128536D-05 -0.15535321D-05  0.22286367D-04
 -0.86565168D-05  0.70906997D-05  0.45825095D-05  0.21637563D-05 -0.86646303D-05
 -0.15718774D-05 -0.56542288D-05 -0.47021399D-05 -0.14498571D-05 -0.13473121D-05
 -0.22852963D-05 -0.26017291D-05  0.29385170D-06 -0.16845632D-05 -0.28573380D-05
 -0.32529784D-05 -0.47356434D-05  0.10820589D-05  0.18353767D-05  0.20895115D-05
  0.21961227D-05
MO    4     MO 0.0        OCC NO =    2.0000000  ORB. ENERGY =  -10.433523
  0.38115047D-04  0.70314819D-04  0.11350992D-03  0.14775619D-03  0.12608062D-03
  0.43532610D-04 -0.11046848D-03 -0.50914819D-04  0.14277047D-03  0.75912216D-04
  0.58204673D-04  0.29048211D-04 -0.64376312D-04 -0.49359673D-04 -0.24633936D-04
  0.88373917D-05  0.67759514D-05  0.33816747D-05 -0.14763370D-02  0.68576518D-03
 -0.13009107D-03  0.51192018D-04  0.71623387D-05  0.24753991D-04  0.60383309D-04
  0.11490618D-04 -0.85322327D-05 -0.65807239D-05  0.16003866D-02  0.29524008D-02
  0.47660903D-02  0.62040334D-02  0.52939130D-02  0.18278609D-02  0.31638853D-03
  0.14582318D-03 -0.40890343D-03  0.30807103D-03  0.23620933D-03  0.11788501D-03
  0.17607900D-03  0.13500621D-03  0.67377561D-04  0.25504005D-04  0.19554853D-04
  0.97592423D-05  0.26801645D-02 -0.54749104D-03 -0.11389335D-02 -0.69079845D-04
 -0.38067568D-03 -0.24019053D-03 -0.36294559D-03  0.18123773D-03 -0.12101129D-04
  0.24688039D-04  0.53062814D+00  0.97890531D+00  0.15802567D+01  0.20570247D+01
  0.17552629D+01  0.60605009D+00 -0.19700522D-01 -0.90799524D-02  0.25461134D-01
 -0.89167240D-03 -0.68367784D-03 -0.34120316D-03  0.52567530D-03  0.40305448D-03
  0.20115243D-03 -0.10238121D-03 -0.78499420D-04 -0.39176712D-04 -0.39677998D-02
 -0.12155684D-02  0.15705856D-02 -0.84890835D-04 -0.96679304D-02 -0.95424932D-02
 -0.10334691D-01 -0.73590270D-03  0.11386200D-03 -0.63823280D-04  0.45348845D-01
  0.83659764D-01  0.13505280D+00  0.17579862D+00  0.15000928D+00  0.51794598D-01
 -0.13690412D-02 -0.63098986D-03  0.17693614D-02 -0.37762824D-03 -0.28954138D-03
 -0.14450144D-03 -0.33421805D-03 -0.25625720D-03 -0.12789030D-03  0.35329019D-04
  0.27088051D-04  0.13518836D-04  0.20906745D-02  0.13059041D-02  0.52941533D-03
  0.10990776D-03 -0.11978815D-02 -0.14839402D-02 -0.12082687D-02  0.15960814D-04
 -0.38836735D-04 -0.22574811D-04  0.19059186D-03  0.35160477D-03  0.56759913D-03
  0.73884541D-03  0.63045813D-03  0.21768204D-03 -0.41392059D-04 -0.19077562D-04
  0.53495476D-04  0.11489778D-03  0.88096334D-04  0.43966245D-04 -0.18342982D-03
 -0.14064235D-03 -0.70190390D-04 -0.20355409D-05 -0.15607237D-05 -0.77891049D-06
 -0.13125748D-02 -0.40094554D-03 -0.53139094D-03 -0.42096121D-04  0.22453252D-04
  0.52190338D-04 -0.25981439D-05 -0.10296295D-03 -0.85698019D-05  0.15807376D-05
 -0.56252598D-04 -0.10377506D-03 -0.16752512D-03 -0.21806793D-03 -0.18607776D-03
 -0.64248179D-04  0.13829597D-03  0.63740485D-04 -0.17873497D-03  0.33491987D-04
  0.25679531D-04  0.12815886D-04 -0.33657840D-04 -0.25806697D-04 -0.12879350D-04
  0.52813288D-05  0.40493879D-05  0.20209284D-05  0.11515123D-02 -0.46120955D-03
  0.35260713D-03 -0.27217154D-04  0.25588355D-04 -0.18274701D-04 -0.13180578D-03
  0.54642054D-04  0.29415048D-04  0.13992858D-04 -0.30263145D-04 -0.51332021D-04
 -0.58439692D-04 -0.14466585D-03 -0.79100451D-04 -0.14558706D-03 -0.23558734D-03
 -0.30968615D-03 -0.26561601D-03 -0.90818625D-04  0.27085335D-03  0.12085424D-03
 -0.35688418D-03 -0.16109487D-03 -0.12411491D-03 -0.54493131D-04  0.57454869D-04
  0.44265879D-04  0.19435105D-04  0.77976055D-04  0.60076347D-04  0.26376752D-04
  0.84712592D-03  0.28891426D-03 -0.51247826D-04 -0.39395095D-04 -0.24238467D-03
 -0.25253547D-03 -0.30876035D-03  0.29052876D-04  0.89337215D-04 -0.67006583D-04
  0.13495120D-03  0.24838225D-03  0.40192936D-03  0.52834739D-03  0.45316049D-03
  0.15494327D-03 -0.73087489D-03 -0.32611495D-03  0.96302181D-03 -0.56448994D-04
 -0.43490907D-04 -0.19094851D-04 -0.29940510D-04 -0.23067549D-04 -0.10127897D-04
  0.41134405D-04  0.31691841D-04  0.13914425D-04 -0.18319563D-02 -0.53681828D-03
  0.63679618D-03 -0.61396149D-04  0.34360487D-03  0.78996018D-04  0.10083863D-02
  0.12046278D-02 -0.10982120D-03  0.11902362D-03  0.42245845D-04  0.71656949D-04
  0.81578904D-04  0.37027825D-03 -0.14058675D-05 -0.25935510D-05 -0.41867955D-05
 -0.54499637D-05 -0.46504639D-05 -0.16056934D-05  0.39721499D-04  0.18307602D-04
 -0.51336428D-04 -0.76675718D-04 -0.58790077D-04 -0.29340369D-04 -0.25531892D-04
 -0.19576235D-04 -0.97699133D-05 -0.42982667D-04 -0.32956382D-04 -0.16447545D-04
  0.10010727D-03  0.11107163D-03 -0.77832633D-05 -0.13680488D-04  0.13605528D-04
 -0.76497550D-04  0.32837928D-04 -0.93586719D-04 -0.84680820D-04  0.47817135D-04
 -0.24545950D-04 -0.41634577D-04 -0.47399494D-04  0.36560910D-05  0.74655027D-05
  0.12662906D-04  0.14416270D-04  0.53311616D-04  0.42724762D-04  0.72469283D-04
  0.82503717D-04 -0.70349413D-04  0.21674033D-04  0.36763263D-04  0.41853675D-04
  0.15670112D-03 -0.21122570D-04 -0.38967016D-04 -0.62904847D-04 -0.81883419D-04
 -0.69871270D-04 -0.24124870D-04  0.52419079D-04  0.24159906D-04 -0.67746897D-04
  0.60639841D-04  0.46494784D-04  0.23204156D-04 -0.43382039D-05 -0.33262596D-05
 -0.16600367D-05  0.56636659D-06  0.43425398D-06  0.21672317D-06 -0.85279482D-04
  0.15871632D-05  0.73406040D-04  0.79713351D-05  0.90927122D-05 -0.90997373D-04
 -0.47523100D-04 -0.70793976D-04  0.86040870D-05 -0.21276350D-04 -0.82058451D-05
 -0.13918666D-04 -0.15845910D-04 -0.17983996D-04 -0.75891524D-05 -0.12872639D-04