 Entering Link 1 = D:\Gaussian\G16W\l1.exe PID=     34660.
  
 Copyright (c) 1988,1990,1992,1993,1995,1998,2003,2009,2016,
            Gaussian, Inc.  All Rights Reserved.
  
 This is part of the Gaussian(R) 16 program.  It is based on
 the Gaussian(R) 09 system (copyright 2009, Gaussian, Inc.),
 the Gaussian(R) 03 system (copyright 2003, Gaussian, Inc.),
 the Gaussian(R) 98 system (copyright 1998, Gaussian, Inc.),
 the Gaussian(R) 94 system (copyright 1995, Gaussian, Inc.),
 the Gaussian 92(TM) system (copyright 1992, Gaussian, Inc.),
 the Gaussian 90(TM) system (copyright 1990, Gaussian, Inc.),
 the Gaussian 88(TM) system (copyright 1988, Gaussian, Inc.),
 the Gaussian 86(TM) system (copyright 1986, Carnegie Mellon
 University), and the Gaussian 82(TM) system (copyright 1983,
 Carnegie Mellon University). Gaussian is a federally registered
 trademark of Gaussian, Inc.
  
 This software contains proprietary and confidential information,
 including trade secrets, belonging to Gaussian, Inc.
  
 This software is provided under written license and may be
 used, copied, transmitted, or stored only in accord with that
 written license.
  
 The following legend is applicable only to US Government
 contracts under FAR:
  
                    RESTRICTED RIGHTS LEGEND
  
 Use, reproduction and disclosure by the US Government is
 subject to restrictions as set forth in subparagraphs (a)
 and (c) of the Commercial Computer Software - Restricted
 Rights clause in FAR 52.227-19.
  
 Gaussian, Inc.
 340 Quinnipiac St., Bldg. 40, Wallingford CT 06492
  
  
 ---------------------------------------------------------------
 Warning -- This program may not be used in any manner that
 competes with the business of Gaussian, Inc. or will provide
 assistance to any competitor of Gaussian, Inc.  The licensee
 of this program is prohibited from giving any competitor of
 Gaussian, Inc. access to this program.  By using this program,
 the user acknowledges that Gaussian, Inc. is engaged in the
 business of creating and licensing software in the field of
 computational chemistry and represents and warrants to the
 licensee that it is not a competitor of Gaussian, Inc. and that
 it will not use this program in any manner prohibited above.
 ---------------------------------------------------------------
  

 Cite this work as:
 Gaussian 16, Revision A.03,
 M. J. Frisch, G. W. Trucks, H. B. Schlegel, G. E. Scuseria, 
 M. A. Robb, J. R. Cheeseman, G. Scalmani, V. Barone, 
 G. A. Petersson, H. Nakatsuji, X. Li, M. Caricato, A. V. Marenich, 
 J. Bloino, B. G. Janesko, R. Gomperts, B. Mennucci, H. P. Hratchian, 
 J. V. Ortiz, A. F. Izmaylov, J. L. Sonnenberg, D. Williams-Young, 
 F. Ding, F. Lipparini, F. Egidi, J. Goings, B. Peng, A. Petrone, 
 T. Henderson, D. Ranasinghe, V. G. Zakrzewski, J. Gao, N. Rega, 
 G. Zheng, W. Liang, M. Hada, M. Ehara, K. Toyota, R. Fukuda, 
 J. Hasegawa, M. Ishida, T. Nakajima, Y. Honda, O. Kitao, H. Nakai, 
 T. Vreven, K. Throssell, J. A. Montgomery, Jr., J. E. Peralta, 
 F. Ogliaro, M. J. Bearpark, J. J. Heyd, E. N. Brothers, K. N. Kudin, 
 V. N. Staroverov, T. A. Keith, R. Kobayashi, J. Normand, 
 K. Raghavachari, A. P. Rendell, J. C. Burant, S. S. Iyengar, 
 J. Tomasi, M. Cossi, J. M. Millam, M. Klene, C. Adamo, R. Cammi, 
 J. W. Ochterski, R. L. Martin, K. Morokuma, O. Farkas, 
 J. B. Foresman, and D. J. Fox, Gaussian, Inc., Wallingford CT, 2016.
 
 ******************************************
 Gaussian 16:  EM64W-G16RevA.03 17-Dec-2016
                03-Dec-2025 
 ******************************************
 %nprocs=   4
 Will use up to    4 processors via shared memory.
 ------------------------------------
 #P B3LYP/6-31G* SCF=conver=7 out=wfn
 ------------------------------------
 1/38=1,172=1/1;
 2/12=2,17=6,18=5,40=1/2;
 3/5=1,6=6,7=1,11=2,25=1,30=1,74=-5/1,2,3;
 4//1;
 5/5=2,6=7,38=5/2;
 6/7=2,8=2,9=2,10=2,28=1/1;
 99/5=1,6=100,9=1/99;
 Leave Link    1 at Wed Dec 03 17:12:50 2025, MaxMem=           0 cpu:               0.0 elap:               0.1
 (Enter D:\Gaussian\G16W\l101.exe)
 ----------------------------------------------------
 Generated by Multiwfn (http://sobereva.com/multiwfn)
 ----------------------------------------------------
 Symbolic Z-matrix:
 Charge =  1 Multiplicity = 1
 C                     1.91146  -0.05497   0.05274 
 C                     1.02675   1.02831   0.00591 
 C                    -0.34913   0.84814  -0.11945 
 C                    -0.86274  -0.4585   -0.1877 
 C                     0.0079   -1.5374   -0.14644 
 C                     1.38366  -1.3429   -0.03173 
 H                    -0.41418  -2.53283  -0.21621 
 O                    -2.20905  -0.70246  -0.37166 
 O                    -1.2269    1.88829  -0.19409 
 H                     1.41609   2.04281   0.05672 
 C                    -3.0777   -0.26431   0.59163 
 H                    -2.69628  -0.10668   1.59266 
 H                    -4.1027   -0.53442   0.38803 
 H                    -0.73509   2.71484  -0.14973 
 H                     2.04502  -2.20137  -0.0035 
 C                     3.39599   0.18096   0.19463 
 H                     3.76681   0.86587  -0.57382 
 H                     3.63707   0.62238   1.16717 
 H                     3.95373  -0.75313   0.10711 
 
 ITRead=  0  0  0  0  0  0  0  0  0  0  0  0  0  0  0  0  0  0  0
 MicOpt= -1 -1 -1 -1 -1 -1 -1 -1 -1 -1 -1 -1 -1 -1 -1 -1 -1 -1 -1
 NAtoms=     19 NQM=       19 NQMF=       0 NMMI=      0 NMMIF=      0
                NMic=       0 NMicF=      0.
                    Isotopes and Nuclear Properties:
 (Nuclear quadrupole moments (NQMom) in fm**2, nuclear magnetic moments (NMagM)
  in nuclear magnetons)

  Atom         1           2           3           4           5           6           7           8           9          10
 IAtWgt=          12          12          12          12          12          12           1          16          16           1
 AtmWgt=  12.0000000  12.0000000  12.0000000  12.0000000  12.0000000  12.0000000   1.0078250  15.9949146  15.9949146   1.0078250
 NucSpn=           0           0           0           0           0           0           1           0           0           1
 AtZEff=   0.0000000   0.0000000   0.0000000   0.0000000   0.0000000   0.0000000   0.0000000   0.0000000   0.0000000   0.0000000
 NQMom=    0.0000000   0.0000000   0.0000000   0.0000000   0.0000000   0.0000000   0.0000000   0.0000000   0.0000000   0.0000000
 NMagM=    0.0000000   0.0000000   0.0000000   0.0000000   0.0000000   0.0000000   2.7928460   0.0000000   0.0000000   2.7928460
 AtZNuc=   6.0000000   6.0000000   6.0000000   6.0000000   6.0000000   6.0000000   1.0000000   8.0000000   8.0000000   1.0000000

  Atom        11          12          13          14          15          16          17          18          19
 IAtWgt=          12           1           1           1           1          12           1           1           1
 AtmWgt=  12.0000000   1.0078250   1.0078250   1.0078250   1.0078250  12.0000000   1.0078250   1.0078250   1.0078250
 NucSpn=           0           1           1           1           1           0           1           1           1
 AtZEff=   0.0000000   0.0000000   0.0000000   0.0000000   0.0000000   0.0000000   0.0000000   0.0000000   0.0000000
 NQMom=    0.0000000   0.0000000   0.0000000   0.0000000   0.0000000   0.0000000   0.0000000   0.0000000   0.0000000
 NMagM=    0.0000000   2.7928460   2.7928460   2.7928460   2.7928460   0.0000000   2.7928460   2.7928460   2.7928460
 AtZNuc=   6.0000000   1.0000000   1.0000000   1.0000000   1.0000000   6.0000000   1.0000000   1.0000000   1.0000000
 Leave Link  101 at Wed Dec 03 17:12:50 2025, MaxMem=   104857600 cpu:               0.0 elap:               0.1
 (Enter D:\Gaussian\G16W\l202.exe)
                          Input orientation:                          
 ---------------------------------------------------------------------
 Center     Atomic      Atomic             Coordinates (Angstroms)
 Number     Number       Type             X           Y           Z
 ---------------------------------------------------------------------
      1          6           0        1.911462   -0.054974    0.052742
      2          6           0        1.026747    1.028307    0.005910
      3          6           0       -0.349129    0.848138   -0.119451
      4          6           0       -0.862738   -0.458500   -0.187700
      5          6           0        0.007899   -1.537403   -0.146436
      6          6           0        1.383658   -1.342904   -0.031728
      7          1           0       -0.414179   -2.532832   -0.216213
      8          8           0       -2.209049   -0.702462   -0.371659
      9          8           0       -1.226901    1.888293   -0.194091
     10          1           0        1.416093    2.042809    0.056715
     11          6           0       -3.077701   -0.264313    0.591634
     12          1           0       -2.696282   -0.106678    1.592658
     13          1           0       -4.102696   -0.534422    0.388031
     14          1           0       -0.735085    2.714840   -0.149733
     15          1           0        2.045020   -2.201373   -0.003498
     16          6           0        3.395988    0.180963    0.194625
     17          1           0        3.766812    0.865867   -0.573818
     18          1           0        3.637069    0.622384    1.167171
     19          1           0        3.953726   -0.753128    0.107108
 ---------------------------------------------------------------------
                    Distance matrix (angstroms):
                    1          2          3          4          5
     1  C    0.000000
     2  C    1.399433   0.000000
     3  C    2.440396   1.393273   0.000000
     4  C    2.813686   2.412101   1.405616   0.000000
     5  C    2.420913   2.764802   2.412261   1.386991   0.000000
     6  C    1.394445   2.398217   2.794801   2.419255   1.394167
     7  H    3.408918   3.848028   3.382980   2.122468   1.083466
     8  O    4.192609   3.688969   2.434599   1.380548   2.379645
     9  O    3.699532   2.420435   1.363076   2.374888   3.641757
    10  H    2.155481   1.087835   2.138757   3.392544   3.852557
    11  C    5.022547   4.342860   3.031220   2.356084   3.418543
    12  H    4.858531   4.203202   3.058123   2.579794   3.519093
    13  H    6.042548   5.375809   4.032155   3.291589   4.264811
    14  H    3.836284   2.443905   1.906425   3.176133   4.316666
    15  H    2.151286   3.386414   3.878777   3.395084   2.147359
    16  C    1.509839   2.523273   3.817023   4.323405   3.814217
    17  H    2.163989   2.805428   4.140982   4.830711   4.481940
    18  H    2.162981   2.885668   4.194775   4.822059   4.422795
    19  H    2.158985   3.427967   4.596732   4.834464   4.030995
                    6          7          8          9         10
     6  C    0.000000
     7  H    2.163835   0.000000
     8  O    3.665142   2.568263   0.000000
     9  O    4.157164   4.495259   2.776357   0.000000
    10  H    3.387023   4.935674   4.567458   2.659360   0.000000
    11  C    4.632026   3.590703   1.369111   2.945596   5.079679
    12  H    4.562104   3.790281   2.109715   3.054744   4.887846
    13  H    5.561468   4.238385   2.047258   3.805077   6.099912
    14  H    4.579114   5.257895   3.728240   0.962824   2.263142
    15  H    1.084051   2.490537   4.525415   5.240912   4.290950
    16  C    2.534340   4.695833   5.702417   4.943397   2.721300
    17  H    3.294230   5.399974   6.181540   5.111430   2.703450
    18  H    3.221425   5.318059   6.188724   5.207088   2.860674
    19  H    2.640523   4.727629   6.181552   5.822948   3.776160
                   11         12         13         14         15
    11  C    0.000000
    12  H    1.082764   0.000000
    13  H    1.079365   1.900550   0.000000
    14  H    3.861713   3.852685   4.710382   0.000000
    15  H    5.508961   5.423597   6.381726   5.649736   0.000000
    16  C    6.501118   6.257235   7.535214   4.858485   2.745886
    17  H    7.034411   6.885568   8.050784   4.885246   3.563396
    18  H    6.797471   6.389359   7.864428   5.022782   3.446547
    19  H    7.065032   6.844513   8.064285   5.837612   2.398501
                   16         17         18         19
    16  C    0.000000
    17  H    1.094125   0.000000
    18  H    1.094906   1.762714   0.000000
    19  H    1.091447   1.766279   1.765230   0.000000
 Stoichiometry    C8H9O2(1+)
 Framework group  C1[X(C8H9O2)]
 Deg. of freedom    51
 Full point group                 C1      NOp   1
 Largest Abelian subgroup         C1      NOp   1
 Largest concise Abelian subgroup C1      NOp   1
                         Standard orientation:                         
 ---------------------------------------------------------------------
 Center     Atomic      Atomic             Coordinates (Angstroms)
 Number     Number       Type             X           Y           Z
 ---------------------------------------------------------------------
      1          6           0        1.911462   -0.054974    0.052742
      2          6           0        1.026747    1.028307    0.005910
      3          6           0       -0.349129    0.848138   -0.119451
      4          6           0       -0.862738   -0.458500   -0.187700
      5          6           0        0.007899   -1.537403   -0.146436
      6          6           0        1.383658   -1.342904   -0.031728
      7          1           0       -0.414179   -2.532832   -0.216213
      8          8           0       -2.209049   -0.702462   -0.371659
      9          8           0       -1.226901    1.888293   -0.194091
     10          1           0        1.416093    2.042809    0.056715
     11          6           0       -3.077701   -0.264313    0.591634
     12          1           0       -2.696282   -0.106678    1.592658
     13          1           0       -4.102696   -0.534422    0.388031
     14          1           0       -0.735085    2.714840   -0.149733
     15          1           0        2.045020   -2.201373   -0.003498
     16          6           0        3.395988    0.180963    0.194625
     17          1           0        3.766812    0.865867   -0.573818
     18          1           0        3.637069    0.622384    1.167171
     19          1           0        3.953726   -0.753128    0.107108
 ---------------------------------------------------------------------
 Rotational constants (GHZ):           2.8419669           0.9514175           0.7395020
 Leave Link  202 at Wed Dec 03 17:12:50 2025, MaxMem=   104857600 cpu:               0.0 elap:               0.1
 (Enter D:\Gaussian\G16W\l301.exe)
 Standard basis: 6-31G(d) (6D, 7F)
 Ernie: Thresh=  0.10000D-02 Tol=  0.10000D-05 Strict=F.
 There are   168 symmetry adapted cartesian basis functions of A   symmetry.
 There are   168 symmetry adapted basis functions of A   symmetry.
   168 basis functions,   316 primitive gaussians,   168 cartesian basis functions
    36 alpha electrons       36 beta electrons
       nuclear repulsion energy       505.4173357891 Hartrees.
 IExCor=  402 DFT=T Ex+Corr=B3LYP ExCW=0 ScaHFX=  0.200000
 ScaDFX=  0.800000  0.720000  1.000000  0.810000 ScalE2=  1.000000  1.000000
 IRadAn=      5 IRanWt=     -1 IRanGd=            0 ICorTp=0 IEmpDi=  4
 NAtoms=   19 NActive=   19 NUniq=   19 SFac= 1.00D+00 NAtFMM=   60 NAOKFM=F Big=F
 Integral buffers will be    131072 words long.
 Raffenetti 2 integral format.
 Two-electron integral symmetry is turned on.
 Leave Link  301 at Wed Dec 03 17:12:50 2025, MaxMem=   104857600 cpu:               0.0 elap:               0.1
 (Enter D:\Gaussian\G16W\l302.exe)
 NPDir=0 NMtPBC=     1 NCelOv=     1 NCel=       1 NClECP=     1 NCelD=      1
         NCelK=      1 NCelE2=     1 NClLst=     1 CellRange=     0.0.
 One-electron integrals computed using PRISM.
 One-electron integral symmetry used in STVInt
 NBasis=   168 RedAO= T EigKep=  3.68D-04  NBF=   168
 NBsUse=   168 1.00D-06 EigRej= -1.00D+00 NBFU=   168
 Precomputing XC quadrature grid using
 IXCGrd= 4 IRadAn=           5 IRanWt=          -1 IRanGd=           0 AccXCQ= 0.00D+00.
 Generated NRdTot=       0 NPtTot=           0 NUsed=           0 NTot=          32
 NSgBfM=   168   168   168   168   168 MxSgAt=    19 MxSgA2=    19.
 Leave Link  302 at Wed Dec 03 17:12:51 2025, MaxMem=   104857600 cpu:               1.0 elap:               0.3
 (Enter D:\Gaussian\G16W\l303.exe)
 DipDrv:  MaxL=1.
 Leave Link  303 at Wed Dec 03 17:12:51 2025, MaxMem=   104857600 cpu:               0.0 elap:               0.1
 (Enter D:\Gaussian\G16W\l401.exe)
 ExpMin= 1.61D-01 ExpMax= 5.48D+03 ExpMxC= 8.25D+02 IAcc=3 IRadAn=         5 AccDes= 0.00D+00
 Harris functional with IExCor=  402 and IRadAn=       5 diagonalized for initial guess.
 HarFok:  IExCor=  402 AccDes= 0.00D+00 IRadAn=         5 IDoV= 1 UseB2=F ITyADJ=14
 ICtDFT=  3500011 ScaDFX=  1.000000  1.000000  1.000000  1.000000
 FoFCou: FMM=F IPFlag=           0 FMFlag=      100000 FMFlg1=           0
         NFxFlg=           0 DoJE=T BraDBF=F KetDBF=T FulRan=T
         wScrn=  0.000000 ICntrl=       500 IOpCl=  0 I1Cent=   200000004 NGrid=           0
         NMat0=    1 NMatS0=      1 NMatT0=    0 NMatD0=    1 NMtDS0=    0 NMtDT0=    0
 Petite list used in FoFCou.
 Harris En= -460.442628211221    
 JPrj=0 DoOrth=F DoCkMO=F.
 Leave Link  401 at Wed Dec 03 17:12:52 2025, MaxMem=   104857600 cpu:               1.0 elap:               1.1
 (Enter D:\Gaussian\G16W\l502.exe)
 Keep R1 ints in memory in canonical form, NReq=104755543.
 FoFCou: FMM=F IPFlag=           0 FMFlag=           0 FMFlg1=           0
         NFxFlg=           0 DoJE=F BraDBF=F KetDBF=F FulRan=T
         wScrn=  0.000000 ICntrl=       600 IOpCl=  0 I1Cent=           0 NGrid=           0
         NMat0=    1 NMatS0=  14196 NMatT0=    0 NMatD0=    1 NMtDS0=    0 NMtDT0=    0
 Symmetry not used in FoFCou.
 Two-electron integral symmetry not used.
 Closed shell SCF:
 Using DIIS extrapolation, IDIIS=  1040.
 NGot=   104857600 LenX=     4027843 LenY=     3999178
 Requested convergence on RMS density matrix=1.00D-07 within 128 cycles.
 Requested convergence on MAX density matrix=1.00D-05.
 Requested convergence on             energy=1.00D-05.
 No special actions if energy rises.
 Integral accuracy reduced to 1.0D-05 until final iterations.

 Cycle   1  Pass 0  IDiag  1:
 CalDSu:  requested number of processors reduced to:   3 ShMem   1 Linda.
 E= -460.131870622944    
 DIIS: error= 2.90D-02 at cycle   1 NSaved=   1.
 NSaved= 1 IEnMin= 1 EnMin= -460.131870622944     IErMin= 1 ErrMin= 2.90D-02
 ErrMax= 2.90D-02  0.00D+00 EMaxC= 1.00D-01 BMatC= 2.29D-01 BMatP= 2.29D-01
 IDIUse=3 WtCom= 7.10D-01 WtEn= 2.90D-01
 Coeff-Com:  0.100D+01
 Coeff-En:   0.100D+01
 Coeff:      0.100D+01
 Gap=    -0.112 Goal=   None    Shift=    0.000
 GapD=   -0.112 DampG=0.250 DampE=0.500 DampFc=0.2500 IDamp=-1.
 Damping current iteration by 2.50D-01
 RMSDP=9.10D-03 MaxDP=3.56D-01              OVMax= 6.65D-01

 Cycle   2  Pass 0  IDiag  1:
 CalDSu:  requested number of processors reduced to:   3 ShMem   1 Linda.
 E= -460.192845640817     Delta-E=       -0.060975017873 Rises=F Damp=T
 DIIS: error= 1.34D-02 at cycle   2 NSaved=   2.
 NSaved= 2 IEnMin= 2 EnMin= -460.192845640817     IErMin= 2 ErrMin= 1.34D-02
 ErrMax= 1.34D-02  0.00D+00 EMaxC= 1.00D-01 BMatC= 4.99D-02 BMatP= 2.29D-01
 IDIUse=3 WtCom= 8.66D-01 WtEn= 1.34D-01
 Coeff-Com: -0.196D+00 0.120D+01
 Coeff-En:   0.292D+00 0.708D+00
 Coeff:     -0.131D+00 0.113D+01
 Gap=    -0.020 Goal=   None    Shift=    0.000
 RMSDP=3.29D-03 MaxDP=1.07D-01 DE=-6.10D-02 OVMax= 7.68D-01

 Cycle   3  Pass 0  IDiag  1:
 CalDSu:  requested number of processors reduced to:   3 ShMem   1 Linda.
 E= -460.249267556295     Delta-E=       -0.056421915479 Rises=F Damp=F
 DIIS: error= 1.98D-02 at cycle   3 NSaved=   3.
 NSaved= 3 IEnMin= 3 EnMin= -460.249267556295     IErMin= 2 ErrMin= 1.34D-02
 ErrMax= 1.98D-02  0.00D+00 EMaxC= 1.00D-01 BMatC= 1.05D-01 BMatP= 4.99D-02
 IDIUse=2 WtCom= 0.00D+00 WtEn= 1.00D+00
 Coeff-En:   0.000D+00 0.349D+00 0.651D+00
 Coeff:      0.000D+00 0.349D+00 0.651D+00
 Gap=    -0.012 Goal=   None    Shift=    0.000
 RMSDP=7.04D-03 MaxDP=3.66D-01 DE=-5.64D-02 OVMax= 9.29D-01

 Cycle   4  Pass 0  IDiag  1:
 CalDSu:  requested number of processors reduced to:   3 ShMem   1 Linda.
 E= -459.280634719170     Delta-E=        0.968632837125 Rises=F Damp=F
 DIIS: error= 4.19D-02 at cycle   4 NSaved=   4.
 NSaved= 4 IEnMin= 3 EnMin= -460.249267556295     IErMin= 2 ErrMin= 1.34D-02
 ErrMax= 4.19D-02  0.00D+00 EMaxC= 1.00D-01 BMatC= 6.12D-01 BMatP= 4.99D-02
 IDIUse=2 WtCom= 0.00D+00 WtEn= 1.00D+00
 Coeff-En:   0.000D+00 0.000D+00 0.808D+00 0.192D+00
 Coeff:      0.000D+00 0.000D+00 0.808D+00 0.192D+00
 Gap=     0.026 Goal=   None    Shift=    0.000
 RMSDP=6.02D-03 MaxDP=3.20D-01 DE= 9.69D-01 OVMax= 9.38D-01

 Cycle   5  Pass 0  IDiag  1:
 CalDSu:  requested number of processors reduced to:   3 ShMem   1 Linda.
 E= -460.349715664272     Delta-E=       -1.069080945101 Rises=F Damp=F
 DIIS: error= 8.46D-03 at cycle   5 NSaved=   5.
 NSaved= 5 IEnMin= 5 EnMin= -460.349715664272     IErMin= 5 ErrMin= 8.46D-03
 ErrMax= 8.46D-03  0.00D+00 EMaxC= 1.00D-01 BMatC= 3.01D-02 BMatP= 4.99D-02
 IDIUse=3 WtCom= 9.15D-01 WtEn= 8.46D-02
 Coeff-Com: -0.220D+00 0.467D+00 0.366D+00 0.811D-02 0.379D+00
 Coeff-En:   0.000D+00 0.000D+00 0.124D+00 0.000D+00 0.876D+00
 Coeff:     -0.201D+00 0.428D+00 0.345D+00 0.743D-02 0.421D+00
 Gap=     0.063 Goal=   None    Shift=    0.000
 RMSDP=1.39D-03 MaxDP=3.33D-02 DE=-1.07D+00 OVMax= 8.94D-02

 Cycle   6  Pass 0  IDiag  1:
 CalDSu:  requested number of processors reduced to:   3 ShMem   1 Linda.
 E= -460.366282185910     Delta-E=       -0.016566521638 Rises=F Damp=F
 DIIS: error= 5.39D-03 at cycle   6 NSaved=   6.
 NSaved= 6 IEnMin= 6 EnMin= -460.366282185910     IErMin= 6 ErrMin= 5.39D-03
 ErrMax= 5.39D-03  0.00D+00 EMaxC= 1.00D-01 BMatC= 8.98D-03 BMatP= 3.01D-02
 IDIUse=3 WtCom= 9.46D-01 WtEn= 5.39D-02
 Coeff-Com: -0.201D+00 0.310D+00 0.104D+00-0.200D-01 0.296D+00 0.511D+00
 Coeff-En:   0.000D+00 0.000D+00 0.000D+00 0.000D+00 0.277D+00 0.723D+00
 Coeff:     -0.190D+00 0.294D+00 0.979D-01-0.189D-01 0.295D+00 0.522D+00
 Gap=     0.054 Goal=   None    Shift=    0.000
 RMSDP=6.03D-04 MaxDP=1.29D-02 DE=-1.66D-02 OVMax= 4.80D-02

 Cycle   7  Pass 0  IDiag  1:
 CalDSu:  requested number of processors reduced to:   3 ShMem   1 Linda.
 E= -460.377064594922     Delta-E=       -0.010782409012 Rises=F Damp=F
 DIIS: error= 1.81D-03 at cycle   7 NSaved=   7.
 NSaved= 7 IEnMin= 7 EnMin= -460.377064594922     IErMin= 7 ErrMin= 1.81D-03
 ErrMax= 1.81D-03  0.00D+00 EMaxC= 1.00D-01 BMatC= 5.88D-04 BMatP= 8.98D-03
 IDIUse=3 WtCom= 9.82D-01 WtEn= 1.81D-02
 Coeff-Com: -0.102D+00 0.142D+00 0.898D-02-0.919D-02 0.129D+00 0.278D+00
 Coeff-Com:  0.553D+00
 Coeff-En:   0.000D+00 0.000D+00 0.000D+00 0.000D+00 0.000D+00 0.000D+00
 Coeff-En:   0.100D+01
 Coeff:     -0.997D-01 0.140D+00 0.882D-02-0.903D-02 0.127D+00 0.273D+00
 Coeff:      0.561D+00
 Gap=     0.053 Goal=   None    Shift=    0.000
 RMSDP=2.52D-04 MaxDP=1.08D-02 DE=-1.08D-02 OVMax= 2.63D-02

 Cycle   8  Pass 0  IDiag  1:
 CalDSu:  requested number of processors reduced to:   3 ShMem   1 Linda.
 E= -460.377931937366     Delta-E=       -0.000867342443 Rises=F Damp=F
 DIIS: error= 8.96D-04 at cycle   8 NSaved=   8.
 NSaved= 8 IEnMin= 8 EnMin= -460.377931937366     IErMin= 8 ErrMin= 8.96D-04
 ErrMax= 8.96D-04  0.00D+00 EMaxC= 1.00D-01 BMatC= 1.86D-04 BMatP= 5.88D-04
 IDIUse=3 WtCom= 9.91D-01 WtEn= 8.96D-03
 Coeff-Com: -0.508D-02 0.417D-02-0.194D-01 0.926D-03-0.987D-02-0.351D-01
 Coeff-Com:  0.441D+00 0.624D+00
 Coeff-En:   0.000D+00 0.000D+00 0.000D+00 0.000D+00 0.000D+00 0.000D+00
 Coeff-En:   0.000D+00 0.100D+01
 Coeff:     -0.503D-02 0.413D-02-0.193D-01 0.917D-03-0.978D-02-0.348D-01
 Coeff:      0.437D+00 0.627D+00
 Gap=     0.055 Goal=   None    Shift=    0.000
 RMSDP=1.31D-04 MaxDP=4.06D-03 DE=-8.67D-04 OVMax= 1.49D-02

 Cycle   9  Pass 0  IDiag  1:
 CalDSu:  requested number of processors reduced to:   3 ShMem   1 Linda.
 E= -460.378069005936     Delta-E=       -0.000137068570 Rises=F Damp=F
 DIIS: error= 4.73D-04 at cycle   9 NSaved=   9.
 NSaved= 9 IEnMin= 9 EnMin= -460.378069005936     IErMin= 9 ErrMin= 4.73D-04
 ErrMax= 4.73D-04  0.00D+00 EMaxC= 1.00D-01 BMatC= 5.19D-05 BMatP= 1.86D-04
 IDIUse=3 WtCom= 9.95D-01 WtEn= 4.73D-03
 Coeff-Com: -0.215D-03 0.149D-02 0.587D-02-0.120D-02 0.531D-02-0.423D-01
 Coeff-Com:  0.165D+00 0.292D+00 0.574D+00
 Coeff-En:   0.000D+00 0.000D+00 0.000D+00 0.000D+00 0.000D+00 0.000D+00
 Coeff-En:   0.000D+00 0.897D-01 0.910D+00
 Coeff:     -0.214D-03 0.148D-02 0.584D-02-0.119D-02 0.529D-02-0.421D-01
 Coeff:      0.164D+00 0.291D+00 0.576D+00
 Gap=     0.057 Goal=   None    Shift=    0.000
 RMSDP=3.70D-05 MaxDP=9.28D-04 DE=-1.37D-04 OVMax= 1.26D-03

 Cycle  10  Pass 0  IDiag  1:
 CalDSu:  requested number of processors reduced to:   3 ShMem   1 Linda.
 E= -460.378108736840     Delta-E=       -0.000039730904 Rises=F Damp=F
 DIIS: error= 2.69D-04 at cycle  10 NSaved=  10.
 NSaved=10 IEnMin=10 EnMin= -460.378108736840     IErMin=10 ErrMin= 2.69D-04
 ErrMax= 2.69D-04  0.00D+00 EMaxC= 1.00D-01 BMatC= 1.56D-05 BMatP= 5.19D-05
 IDIUse=3 WtCom= 9.97D-01 WtEn= 2.69D-03
 Coeff-Com: -0.995D-03 0.213D-02 0.874D-02-0.126D-02 0.111D-01-0.169D-01
 Coeff-Com:  0.892D-01 0.967D-01 0.296D+00 0.515D+00
 Coeff-En:   0.000D+00 0.000D+00 0.000D+00 0.000D+00 0.000D+00 0.000D+00
 Coeff-En:   0.000D+00 0.000D+00 0.000D+00 0.100D+01
 Coeff:     -0.992D-03 0.213D-02 0.871D-02-0.125D-02 0.111D-01-0.169D-01
 Coeff:      0.889D-01 0.965D-01 0.295D+00 0.516D+00
 Gap=     0.057 Goal=   None    Shift=    0.000
 RMSDP=1.55D-05 MaxDP=4.86D-04 DE=-3.97D-05 OVMax= 1.04D-03

 Cycle  11  Pass 0  IDiag  1:
 CalDSu:  requested number of processors reduced to:   3 ShMem   1 Linda.
 E= -460.378123006174     Delta-E=       -0.000014269335 Rises=F Damp=F
 DIIS: error= 1.75D-04 at cycle  11 NSaved=  11.
 NSaved=11 IEnMin=11 EnMin= -460.378123006174     IErMin=11 ErrMin= 1.75D-04
 ErrMax= 1.75D-04  0.00D+00 EMaxC= 1.00D-01 BMatC= 4.80D-06 BMatP= 1.56D-05
 IDIUse=3 WtCom= 9.98D-01 WtEn= 1.75D-03
 Coeff-Com: -0.123D-02 0.145D-02 0.255D-02-0.509D-03 0.584D-02 0.736D-02
 Coeff-Com:  0.380D-01-0.459D-01-0.828D-01-0.208D-01 0.110D+01
 Coeff-En:   0.000D+00 0.000D+00 0.000D+00 0.000D+00 0.000D+00 0.000D+00
 Coeff-En:   0.000D+00 0.000D+00 0.000D+00 0.000D+00 0.100D+01
 Coeff:     -0.123D-02 0.145D-02 0.255D-02-0.508D-03 0.583D-02 0.734D-02
 Coeff:      0.379D-01-0.458D-01-0.827D-01-0.208D-01 0.110D+01
 Gap=     0.058 Goal=   None    Shift=    0.000
 RMSDP=1.32D-05 MaxDP=3.37D-04 DE=-1.43D-05 OVMax= 7.30D-04

 Cycle  12  Pass 0  IDiag  1:
 CalDSu:  requested number of processors reduced to:   3 ShMem   1 Linda.
 E= -460.378128515537     Delta-E=       -0.000005509362 Rises=F Damp=F
 DIIS: error= 4.26D-05 at cycle  12 NSaved=  12.
 NSaved=12 IEnMin=12 EnMin= -460.378128515537     IErMin=12 ErrMin= 4.26D-05
 ErrMax= 4.26D-05  0.00D+00 EMaxC= 1.00D-01 BMatC= 7.56D-07 BMatP= 4.80D-06
 IDIUse=1 WtCom= 1.00D+00 WtEn= 0.00D+00
 Coeff-Com:  0.627D-04-0.347D-03-0.668D-03-0.246D-04 0.784D-04 0.618D-02
 Coeff-Com:  0.126D-01-0.486D-01-0.128D+00-0.212D+00 0.755D+00 0.616D+00
 Coeff:      0.627D-04-0.347D-03-0.668D-03-0.246D-04 0.784D-04 0.618D-02
 Coeff:      0.126D-01-0.486D-01-0.128D+00-0.212D+00 0.755D+00 0.616D+00
 Gap=     0.058 Goal=   None    Shift=    0.000
 RMSDP=6.69D-06 MaxDP=1.53D-04 DE=-5.51D-06 OVMax= 3.68D-04

 Initial convergence to 1.0D-05 achieved.  Increase integral accuracy.
 Cycle  13  Pass 1  IDiag  1:
 CalDSu:  requested number of processors reduced to:   3 ShMem   1 Linda.
 E= -460.378118974238     Delta-E=        0.000009541299 Rises=F Damp=F
 DIIS: error= 7.52D-06 at cycle   1 NSaved=   1.
 NSaved= 1 IEnMin= 1 EnMin= -460.378118974238     IErMin= 1 ErrMin= 7.52D-06
 ErrMax= 7.52D-06  0.00D+00 EMaxC= 1.00D-01 BMatC= 2.22D-08 BMatP= 2.22D-08
 IDIUse=1 WtCom= 1.00D+00 WtEn= 0.00D+00
 Coeff-Com:  0.100D+01
 Coeff:      0.100D+01
 Gap=     0.058 Goal=   None    Shift=    0.000
 RMSDP=6.69D-06 MaxDP=1.53D-04 DE= 9.54D-06 OVMax= 2.10D-04

 Cycle  14  Pass 1  IDiag  1:
 CalDSu:  requested number of processors reduced to:   3 ShMem   1 Linda.
 E= -460.378118935009     Delta-E=        0.000000039229 Rises=F Damp=F
 DIIS: error= 1.42D-05 at cycle   2 NSaved=   2.
 NSaved= 2 IEnMin= 1 EnMin= -460.378118974238     IErMin= 1 ErrMin= 7.52D-06
 ErrMax= 1.42D-05  0.00D+00 EMaxC= 1.00D-01 BMatC= 6.08D-08 BMatP= 2.22D-08
 IDIUse=1 WtCom= 1.00D+00 WtEn= 0.00D+00
 Coeff-Com:  0.633D+00 0.367D+00
 Coeff:      0.633D+00 0.367D+00
 Gap=     0.058 Goal=   None    Shift=    0.000
 RMSDP=1.90D-06 MaxDP=5.80D-05 DE= 3.92D-08 OVMax= 1.71D-04

 Cycle  15  Pass 1  IDiag  1:
 CalDSu:  requested number of processors reduced to:   3 ShMem   1 Linda.
 E= -460.378118997679     Delta-E=       -0.000000062670 Rises=F Damp=F
 DIIS: error= 3.35D-06 at cycle   3 NSaved=   3.
 NSaved= 3 IEnMin= 3 EnMin= -460.378118997679     IErMin= 3 ErrMin= 3.35D-06
 ErrMax= 3.35D-06  0.00D+00 EMaxC= 1.00D-01 BMatC= 2.52D-09 BMatP= 2.22D-08
 IDIUse=1 WtCom= 1.00D+00 WtEn= 0.00D+00
 Coeff-Com:  0.251D+00 0.198D+00 0.552D+00
 Coeff:      0.251D+00 0.198D+00 0.552D+00
 Gap=     0.058 Goal=   None    Shift=    0.000
 RMSDP=6.00D-07 MaxDP=2.93D-05 DE=-6.27D-08 OVMax= 6.51D-05

 Cycle  16  Pass 1  IDiag  1:
 CalDSu:  requested number of processors reduced to:   3 ShMem   1 Linda.
 E= -460.378118998674     Delta-E=       -0.000000000995 Rises=F Damp=F
 DIIS: error= 2.61D-06 at cycle   4 NSaved=   4.
 NSaved= 4 IEnMin= 4 EnMin= -460.378118998674     IErMin= 4 ErrMin= 2.61D-06
 ErrMax= 2.61D-06  0.00D+00 EMaxC= 1.00D-01 BMatC= 1.86D-09 BMatP= 2.52D-09
 IDIUse=1 WtCom= 1.00D+00 WtEn= 0.00D+00
 Coeff-Com:  0.754D-02 0.501D-01 0.474D+00 0.468D+00
 Coeff:      0.754D-02 0.501D-01 0.474D+00 0.468D+00
 Gap=     0.058 Goal=   None    Shift=    0.000
 RMSDP=2.95D-07 MaxDP=1.38D-05 DE=-9.95D-10 OVMax= 2.94D-05

 Cycle  17  Pass 1  IDiag  1:
 CalDSu:  requested number of processors reduced to:   3 ShMem   1 Linda.
 E= -460.378119000607     Delta-E=       -0.000000001934 Rises=F Damp=F
 DIIS: error= 3.66D-07 at cycle   5 NSaved=   5.
 NSaved= 5 IEnMin= 5 EnMin= -460.378119000607     IErMin= 5 ErrMin= 3.66D-07
 ErrMax= 3.66D-07  0.00D+00 EMaxC= 1.00D-01 BMatC= 4.76D-11 BMatP= 1.86D-09
 IDIUse=1 WtCom= 1.00D+00 WtEn= 0.00D+00
 Coeff-Com: -0.113D-01 0.143D-01 0.215D+00 0.252D+00 0.530D+00
 Coeff:     -0.113D-01 0.143D-01 0.215D+00 0.252D+00 0.530D+00
 Gap=     0.058 Goal=   None    Shift=    0.000
 RMSDP=4.74D-08 MaxDP=1.30D-06 DE=-1.93D-09 OVMax= 2.31D-06

 SCF Done:  E(RB3LYP) =  -460.378119001     A.U. after   17 cycles
            NFock= 17  Conv=0.47D-07     -V/T= 2.0096
 KE= 4.559787846964D+02 PE=-2.069575317844D+03 EE= 6.478010783576D+02
 Leave Link  502 at Wed Dec 03 17:13:11 2025, MaxMem=   104857600 cpu:              19.0 elap:              19.3
 (Enter D:\Gaussian\G16W\l601.exe)
 Copying SCF densities to generalized density rwf, IOpCl= 0 IROHF=0.

 **********************************************************************

            Population analysis using the SCF density.

 **********************************************************************

 Orbital symmetries:
       Occupied  (A) (A) (A) (A) (A) (A) (A) (A) (A) (A) (A) (A)
                 (A) (A) (A) (A) (A) (A) (A) (A) (A) (A) (A) (A)
                 (A) (A) (A) (A) (A) (A) (A) (A) (A) (A) (A) (A)
       Virtual   (A) (A) (A) (A) (A) (A) (A) (A) (A) (A) (A) (A)
                 (A) (A) (A) (A) (A) (A) (A) (A) (A) (A) (A) (A)
                 (A) (A) (A) (A) (A) (A) (A) (A) (A) (A) (A) (A)
                 (A) (A) (A) (A) (A) (A) (A) (A) (A) (A) (A) (A)
                 (A) (A) (A) (A) (A) (A) (A) (A) (A) (A) (A) (A)
                 (A) (A) (A) (A) (A) (A) (A) (A) (A) (A) (A) (A)
                 (A) (A) (A) (A) (A) (A) (A) (A) (A) (A) (A) (A)
                 (A) (A) (A) (A) (A) (A) (A) (A) (A) (A) (A) (A)
                 (A) (A) (A) (A) (A) (A) (A) (A) (A) (A) (A) (A)
                 (A) (A) (A) (A) (A) (A) (A) (A) (A) (A) (A) (A)
                 (A) (A) (A) (A) (A) (A) (A) (A) (A) (A) (A) (A)
 The electronic state is 1-A.
 Alpha  occ. eigenvalues --  -19.47857 -19.35041 -10.53664 -10.43352 -10.43059
 Alpha  occ. eigenvalues --  -10.36357 -10.36284 -10.34898 -10.34529 -10.31196
 Alpha  occ. eigenvalues --   -1.33417  -1.23271  -1.02947  -0.96563  -0.90876
 Alpha  occ. eigenvalues --   -0.90329  -0.83587  -0.80316  -0.77573  -0.73052
 Alpha  occ. eigenvalues --   -0.72527  -0.69920  -0.67334  -0.62855  -0.60737
 Alpha  occ. eigenvalues --   -0.59843  -0.59411  -0.57648  -0.56288  -0.54630
 Alpha  occ. eigenvalues --   -0.52698  -0.50610  -0.50321  -0.48877  -0.40919
 Alpha  occ. eigenvalues --   -0.38949
 Alpha virt. eigenvalues --   -0.33131  -0.16767  -0.15128  -0.10034  -0.07026
 Alpha virt. eigenvalues --   -0.06805  -0.03985  -0.02079  -0.00433   0.00042
 Alpha virt. eigenvalues --    0.00610   0.03571   0.05294   0.06900   0.07389
 Alpha virt. eigenvalues --    0.09678   0.11335   0.17139   0.17469   0.18813
 Alpha virt. eigenvalues --    0.23131   0.29395   0.29817   0.32927   0.34453
 Alpha virt. eigenvalues --    0.35010   0.36355   0.39460   0.40421   0.41235
 Alpha virt. eigenvalues --    0.42031   0.42231   0.44471   0.45842   0.46568
 Alpha virt. eigenvalues --    0.47631   0.49145   0.52285   0.56184   0.57178
 Alpha virt. eigenvalues --    0.58304   0.61144   0.61941   0.62966   0.65804
 Alpha virt. eigenvalues --    0.68567   0.68905   0.70593   0.71748   0.73972
 Alpha virt. eigenvalues --    0.75904   0.76758   0.78354   0.79208   0.82380
 Alpha virt. eigenvalues --    0.83994   0.84328   0.86101   0.90820   0.91867
 Alpha virt. eigenvalues --    0.96506   0.96715   1.01621   1.03753   1.07278
 Alpha virt. eigenvalues --    1.08508   1.12406   1.14281   1.20840   1.23492
 Alpha virt. eigenvalues --    1.24166   1.25343   1.29576   1.29892   1.33360
 Alpha virt. eigenvalues --    1.34869   1.42617   1.52165   1.56639   1.57360
 Alpha virt. eigenvalues --    1.57874   1.61875   1.64687   1.67682   1.69974
 Alpha virt. eigenvalues --    1.73204   1.74838   1.75595   1.75840   1.77464
 Alpha virt. eigenvalues --    1.81156   1.84668   1.87629   1.90777   1.93768
 Alpha virt. eigenvalues --    1.95146   1.98946   2.03375   2.04583   2.11024
 Alpha virt. eigenvalues --    2.12911   2.14648   2.16916   2.19512   2.20294
 Alpha virt. eigenvalues --    2.23676   2.24978   2.30088   2.34452   2.38345
 Alpha virt. eigenvalues --    2.42323   2.49465   2.51541   2.57093   2.61990
 Alpha virt. eigenvalues --    2.64129   2.68343   2.73856   2.75430   2.86782
 Alpha virt. eigenvalues --    3.02899   3.26079   3.65606   3.89567   3.92308
 Alpha virt. eigenvalues --    3.93335   4.01241   4.06633   4.12141   4.22858
 Alpha virt. eigenvalues --    4.37155   4.74069
          Condensed to atoms (all electrons):
               1          2          3          4          5          6
     1  C    4.601007   0.488660   0.004671  -0.026072  -0.021633   0.540195
     2  C    0.488660   5.186755   0.471626  -0.060932  -0.051911  -0.037550
     3  C    0.004671   0.471626   4.596566   0.442373  -0.041085  -0.044012
     4  C   -0.026072  -0.060932   0.442373   4.849753   0.539642  -0.023283
     5  C   -0.021633  -0.051911  -0.041085   0.539642   4.937570   0.509155
     6  C    0.540195  -0.037550  -0.044012  -0.023283   0.509155   4.938395
     7  H    0.003494   0.000480   0.005458  -0.042996   0.354422  -0.025236
     8  O   -0.000080   0.004166  -0.038858   0.149331  -0.048993   0.003233
     9  O    0.003792  -0.058208   0.299787  -0.063485   0.003265   0.000166
    10  H   -0.029351   0.351845  -0.044384   0.004214   0.000425   0.005452
    11  C    0.000004   0.000238  -0.005167  -0.041630  -0.000541  -0.000035
    12  H   -0.000001  -0.000259   0.001861   0.003247   0.001253  -0.000034
    13  H    0.000000   0.000006   0.000175   0.001688  -0.000179   0.000004
    14  H    0.000414  -0.004168  -0.025640   0.006838  -0.000109  -0.000002
    15  H   -0.033774   0.006159   0.000403   0.003666  -0.037367   0.360830
    16  C    0.356533  -0.056133   0.004582   0.000484   0.007140  -0.049264
    17  H   -0.024987  -0.003519  -0.000068   0.000031  -0.000213   0.001472
    18  H   -0.023473  -0.003486  -0.000058   0.000014  -0.000227   0.000227
    19  H   -0.030783   0.003494  -0.000120  -0.000003   0.000300  -0.002761
               7          8          9         10         11         12
     1  C    0.003494  -0.000080   0.003792  -0.029351   0.000004  -0.000001
     2  C    0.000480   0.004166  -0.058208   0.351845   0.000238  -0.000259
     3  C    0.005458  -0.038858   0.299787  -0.044384  -0.005167   0.001861
     4  C   -0.042996   0.149331  -0.063485   0.004214  -0.041630   0.003247
     5  C    0.354422  -0.048993   0.003265   0.000425  -0.000541   0.001253
     6  C   -0.025236   0.003233   0.000166   0.005452  -0.000035  -0.000034
     7  H    0.518929  -0.003605  -0.000050   0.000012   0.000387   0.000124
     8  O   -0.003605   7.960540  -0.005252  -0.000044   0.356667  -0.026345
     9  O   -0.000050  -0.005252   8.203234  -0.005024   0.008787  -0.000799
    10  H    0.000012  -0.000044  -0.005024   0.540557  -0.000012   0.000005
    11  C    0.000387   0.356667   0.008787  -0.000012   4.886056   0.346415
    12  H    0.000124  -0.026345  -0.000799   0.000005   0.346415   0.423775
    13  H   -0.000019  -0.026135   0.000084   0.000000   0.363600  -0.027185
    14  H    0.000005  -0.000052   0.252307   0.006438  -0.000354   0.000061
    15  H   -0.004681  -0.000044   0.000001  -0.000149   0.000000   0.000000
    16  C   -0.000148   0.000000  -0.000047  -0.006813   0.000000   0.000000
    17  H    0.000002   0.000000   0.000000   0.002099   0.000000   0.000000
    18  H    0.000002   0.000000   0.000000   0.001375   0.000000   0.000000
    19  H   -0.000004   0.000000   0.000000   0.000025   0.000000   0.000000
              13         14         15         16         17         18
     1  C    0.000000   0.000414  -0.033774   0.356533  -0.024987  -0.023473
     2  C    0.000006  -0.004168   0.006159  -0.056133  -0.003519  -0.003486
     3  C    0.000175  -0.025640   0.000403   0.004582  -0.000068  -0.000058
     4  C    0.001688   0.006838   0.003666   0.000484   0.000031   0.000014
     5  C   -0.000179  -0.000109  -0.037367   0.007140  -0.000213  -0.000227
     6  C    0.000004  -0.000002   0.360830  -0.049264   0.001472   0.000227
     7  H   -0.000019   0.000005  -0.004681  -0.000148   0.000002   0.000002
     8  O   -0.026135  -0.000052  -0.000044   0.000000   0.000000   0.000000
     9  O    0.000084   0.252307   0.000001  -0.000047   0.000000   0.000000
    10  H    0.000000   0.006438  -0.000149  -0.006813   0.002099   0.001375
    11  C    0.363600  -0.000354   0.000000   0.000000   0.000000   0.000000
    12  H   -0.027185   0.000061   0.000000   0.000000   0.000000   0.000000
    13  H    0.400679  -0.000002   0.000000   0.000000   0.000000   0.000000
    14  H   -0.000002   0.315710  -0.000001  -0.000015  -0.000001   0.000002
    15  H    0.000000  -0.000001   0.518774  -0.007654   0.000094   0.000112
    16  C    0.000000  -0.000015  -0.007654   5.189384   0.366847   0.365182
    17  H    0.000000  -0.000001   0.000094   0.366847   0.506557  -0.025245
    18  H    0.000000   0.000002   0.000112   0.365182  -0.025245   0.506219
    19  H    0.000000   0.000000   0.005334   0.372619  -0.023868  -0.023659
              19
     1  C   -0.030783
     2  C    0.003494
     3  C   -0.000120
     4  C   -0.000003
     5  C    0.000300
     6  C   -0.002761
     7  H   -0.000004
     8  O    0.000000
     9  O    0.000000
    10  H    0.000025
    11  C    0.000000
    12  H    0.000000
    13  H    0.000000
    14  H    0.000000
    15  H    0.005334
    16  C    0.372619
    17  H   -0.023868
    18  H   -0.023659
    19  H    0.507079
 Mulliken charges:
               1
     1  C    0.191381
     2  C   -0.237265
     3  C    0.371889
     4  C    0.257121
     5  C   -0.150912
     6  C   -0.176953
     7  H    0.193424
     8  O   -0.324530
     9  O   -0.638560
    10  H    0.173332
    11  C    0.085584
    12  H    0.277880
    13  H    0.287284
    14  H    0.448569
    15  H    0.188295
    16  C   -0.542699
    17  H    0.200798
    18  H    0.203016
    19  H    0.192347
 Sum of Mulliken charges =   1.00000
 Mulliken charges with hydrogens summed into heavy atoms:
               1
     1  C    0.191381
     2  C   -0.063932
     3  C    0.371889
     4  C    0.257121
     5  C    0.042512
     6  C    0.011341
     8  O   -0.324530
     9  O   -0.189991
    11  C    0.650748
    16  C    0.053462
 Electronic spatial extent (au):  <R**2>=           1511.4766
 Charge=              1.0000 electrons
 Dipole moment (field-independent basis, Debye):
    X=             -4.4960    Y=              0.2349    Z=              2.3174  Tot=              5.0635
 Quadrupole moment (field-independent basis, Debye-Ang):
   XX=            -16.9215   YY=            -41.3702   ZZ=            -55.4542
   XY=              3.8320   XZ=             -6.5176   YZ=             -0.4399
 Traceless Quadrupole moment (field-independent basis, Debye-Ang):
   XX=             20.9938   YY=             -3.4549   ZZ=            -17.5389
   XY=              3.8320   XZ=             -6.5176   YZ=             -0.4399
 Octapole moment (field-independent basis, Debye-Ang**2):
  XXX=            -82.1647  YYY=             22.5696  ZZZ=              4.4814  XYY=             -0.7975
  XXY=            -13.0719  XXZ=             23.9152  XZZ=            -13.0246  YZZ=              2.7514
  YYZ=             -1.7795  XYZ=              1.9602
 Hexadecapole moment (field-independent basis, Debye-Ang**3):
 XXXX=           -869.1990 YYYY=           -326.9295 ZZZZ=            -82.0189 XXXY=             46.7949
 XXXZ=            -61.2339 YYYX=            -12.7646 YYYZ=             -1.9504 ZZZX=             -8.9915
 ZZZY=             -1.0377 XXYY=           -286.2807 XXZZ=           -222.8985 YYZZ=            -95.4546
 XXYZ=             -6.4783 YYXZ=             -0.9417 ZZXY=              4.6645
 N-N= 5.054173357891D+02 E-N=-2.069575364244D+03  KE= 4.559787846964D+02
 No NMR shielding tensors so no spin-rotation constants.
 Leave Link  601 at Wed Dec 03 17:13:11 2025, MaxMem=   104857600 cpu:               0.0 elap:               0.2
 (Enter D:\Gaussian\G16W\l9999.exe)
 1|1|UNPC-PC-20250526LCFF|SP|RB3LYP|6-31G(d)|C8H9O2(1+)|ADMINISTRATOR|0
 3-Dec-2025|0||#P B3LYP/6-31G* SCF=conver=7 out=wfn||Generated by Multi
 wfn (http://sobereva.com/multiwfn)||1,1|C,0,1.911462,-0.054974,0.05274
 2|C,0,1.026747,1.028307,0.00591|C,0,-0.349129,0.848138,-0.119451|C,0,-
 0.862738,-0.4585,-0.1877|C,0,0.007899,-1.537403,-0.146436|C,0,1.383658
 ,-1.342904,-0.031728|H,0,-0.414179,-2.532832,-0.216213|O,0,-2.209049,-
 0.702462,-0.371659|O,0,-1.226901,1.888293,-0.194091|H,0,1.416093,2.042
 809,0.056715|C,0,-3.077701,-0.264313,0.591634|H,0,-2.696282,-0.106678,
 1.592658|H,0,-4.102696,-0.534422,0.388031|H,0,-0.735085,2.71484,-0.149
 733|H,0,2.04502,-2.201373,-0.003498|C,0,3.395988,0.180963,0.194625|H,0
 ,3.766812,0.865867,-0.573818|H,0,3.637069,0.622384,1.167171|H,0,3.9537
 26,-0.753128,0.107108||Version=EM64W-G16RevA.03|State=1-A|HF=-460.3781
 19|RMSD=4.739e-008|Dipole=-1.7688595,0.0924249,0.9117204|Quadrupole=15
 .608387,-2.568643,-13.039744,2.8489819,-4.8456708,-0.3270705|PG=C01 [X
 (C8H9O2)]||@

 Writing a WFN file to "N-1.wfn"


 ACTORS ARE SO FORTUNATE.  THEY CAN CHOOSE WHETHER
 THEY WILL APPEAR IN A TRAGEDY OR IN COMEDY,
 WHETHER THEY WILL SUFFER OF MAKE MERRY,
 LAUGH OR SHED TEARS.  BUT IN REAL LIFE IT IS DIFFERENT.
 MOST MEN AND WOMEN ARE FORCED TO PERFORM
 PARTS FOR WHICH THEY HAVE NO QUALIFICATIONS.
 THE WORLD IS A STAGE, BUT THE PLAY IS BADLY CAST.

                                   -- OSCAR WILDE
 Job cpu time:       0 days  0 hours  0 minutes 22.0 seconds.
 Elapsed time:       0 days  0 hours  0 minutes 21.4 seconds.
 File lengths (MBytes):  RWF=     15 Int=      0 D2E=      0 Chk=      3 Scr=      1
 Normal termination of Gaussian 16 at Wed Dec 03 17:13:12 2025.
