 Entering Link 1 = D:\Gaussian\G16W\l1.exe PID=      3568.
  
 Copyright (c) 1988,1990,1992,1993,1995,1998,2003,2009,2016,
            Gaussian, Inc.  All Rights Reserved.
  
 This is part of the Gaussian(R) 16 program.  It is based on
 the Gaussian(R) 09 system (copyright 2009, Gaussian, Inc.),
 the Gaussian(R) 03 system (copyright 2003, Gaussian, Inc.),
 the Gaussian(R) 98 system (copyright 1998, Gaussian, Inc.),
 the Gaussian(R) 94 system (copyright 1995, Gaussian, Inc.),
 the Gaussian 92(TM) system (copyright 1992, Gaussian, Inc.),
 the Gaussian 90(TM) system (copyright 1990, Gaussian, Inc.),
 the Gaussian 88(TM) system (copyright 1988, Gaussian, Inc.),
 the Gaussian 86(TM) system (copyright 1986, Carnegie Mellon
 University), and the Gaussian 82(TM) system (copyright 1983,
 Carnegie Mellon University). Gaussian is a federally registered
 trademark of Gaussian, Inc.
  
 This software contains proprietary and confidential information,
 including trade secrets, belonging to Gaussian, Inc.
  
 This software is provided under written license and may be
 used, copied, transmitted, or stored only in accord with that
 written license.
  
 The following legend is applicable only to US Government
 contracts under FAR:
  
                    RESTRICTED RIGHTS LEGEND
  
 Use, reproduction and disclosure by the US Government is
 subject to restrictions as set forth in subparagraphs (a)
 and (c) of the Commercial Computer Software - Restricted
 Rights clause in FAR 52.227-19.
  
 Gaussian, Inc.
 340 Quinnipiac St., Bldg. 40, Wallingford CT 06492
  
  
 ---------------------------------------------------------------
 Warning -- This program may not be used in any manner that
 competes with the business of Gaussian, Inc. or will provide
 assistance to any competitor of Gaussian, Inc.  The licensee
 of this program is prohibited from giving any competitor of
 Gaussian, Inc. access to this program.  By using this program,
 the user acknowledges that Gaussian, Inc. is engaged in the
 business of creating and licensing software in the field of
 computational chemistry and represents and warrants to the
 licensee that it is not a competitor of Gaussian, Inc. and that
 it will not use this program in any manner prohibited above.
 ---------------------------------------------------------------
  

 Cite this work as:
 Gaussian 16, Revision A.03,
 M. J. Frisch, G. W. Trucks, H. B. Schlegel, G. E. Scuseria, 
 M. A. Robb, J. R. Cheeseman, G. Scalmani, V. Barone, 
 G. A. Petersson, H. Nakatsuji, X. Li, M. Caricato, A. V. Marenich, 
 J. Bloino, B. G. Janesko, R. Gomperts, B. Mennucci, H. P. Hratchian, 
 J. V. Ortiz, A. F. Izmaylov, J. L. Sonnenberg, D. Williams-Young, 
 F. Ding, F. Lipparini, F. Egidi, J. Goings, B. Peng, A. Petrone, 
 T. Henderson, D. Ranasinghe, V. G. Zakrzewski, J. Gao, N. Rega, 
 G. Zheng, W. Liang, M. Hada, M. Ehara, K. Toyota, R. Fukuda, 
 J. Hasegawa, M. Ishida, T. Nakajima, Y. Honda, O. Kitao, H. Nakai, 
 T. Vreven, K. Throssell, J. A. Montgomery, Jr., J. E. Peralta, 
 F. Ogliaro, M. J. Bearpark, J. J. Heyd, E. N. Brothers, K. N. Kudin, 
 V. N. Staroverov, T. A. Keith, R. Kobayashi, J. Normand, 
 K. Raghavachari, A. P. Rendell, J. C. Burant, S. S. Iyengar, 
 J. Tomasi, M. Cossi, J. M. Millam, M. Klene, C. Adamo, R. Cammi, 
 J. W. Ochterski, R. L. Martin, K. Morokuma, O. Farkas, 
 J. B. Foresman, and D. J. Fox, Gaussian, Inc., Wallingford CT, 2016.
 
 ******************************************
 Gaussian 16:  EM64W-G16RevA.03 17-Dec-2016
                03-Dec-2025 
 ******************************************
 %nprocs=   4
 Will use up to    4 processors via shared memory.
 ------------------------------------
 #P B3LYP/6-31G* SCF=conver=7 out=wfn
 ------------------------------------
 1/38=1,172=1/1;
 2/12=2,17=6,18=5,40=1/2;
 3/5=1,6=6,7=1,11=2,25=1,30=1,74=-5/1,2,3;
 4//1;
 5/5=2,6=7,38=5/2;
 6/7=2,8=2,9=2,10=2,28=1/1;
 99/5=1,6=100,9=1/99;
 Leave Link    1 at Wed Dec 03 17:11:27 2025, MaxMem=           0 cpu:               0.0 elap:               0.1
 (Enter D:\Gaussian\G16W\l101.exe)
 ----------------------------------------------------
 Generated by Multiwfn (http://sobereva.com/multiwfn)
 ----------------------------------------------------
 Symbolic Z-matrix:
 Charge =  0 Multiplicity = 2
 C                     1.91146  -0.05497   0.05274 
 C                     1.02675   1.02831   0.00591 
 C                    -0.34913   0.84814  -0.11945 
 C                    -0.86274  -0.4585   -0.1877 
 C                     0.0079   -1.5374   -0.14644 
 C                     1.38366  -1.3429   -0.03173 
 H                    -0.41418  -2.53283  -0.21621 
 O                    -2.20905  -0.70246  -0.37166 
 O                    -1.2269    1.88829  -0.19409 
 H                     1.41609   2.04281   0.05672 
 C                    -3.0777   -0.26431   0.59163 
 H                    -2.69628  -0.10668   1.59266 
 H                    -4.1027   -0.53442   0.38803 
 H                    -0.73509   2.71484  -0.14973 
 H                     2.04502  -2.20137  -0.0035 
 C                     3.39599   0.18096   0.19463 
 H                     3.76681   0.86587  -0.57382 
 H                     3.63707   0.62238   1.16717 
 H                     3.95373  -0.75313   0.10711 
 
 ITRead=  0  0  0  0  0  0  0  0  0  0  0  0  0  0  0  0  0  0  0
 MicOpt= -1 -1 -1 -1 -1 -1 -1 -1 -1 -1 -1 -1 -1 -1 -1 -1 -1 -1 -1
 NAtoms=     19 NQM=       19 NQMF=       0 NMMI=      0 NMMIF=      0
                NMic=       0 NMicF=      0.
                    Isotopes and Nuclear Properties:
 (Nuclear quadrupole moments (NQMom) in fm**2, nuclear magnetic moments (NMagM)
  in nuclear magnetons)

  Atom         1           2           3           4           5           6           7           8           9          10
 IAtWgt=          12          12          12          12          12          12           1          16          16           1
 AtmWgt=  12.0000000  12.0000000  12.0000000  12.0000000  12.0000000  12.0000000   1.0078250  15.9949146  15.9949146   1.0078250
 NucSpn=           0           0           0           0           0           0           1           0           0           1
 AtZEff=   0.0000000   0.0000000   0.0000000   0.0000000   0.0000000   0.0000000   0.0000000   0.0000000   0.0000000   0.0000000
 NQMom=    0.0000000   0.0000000   0.0000000   0.0000000   0.0000000   0.0000000   0.0000000   0.0000000   0.0000000   0.0000000
 NMagM=    0.0000000   0.0000000   0.0000000   0.0000000   0.0000000   0.0000000   2.7928460   0.0000000   0.0000000   2.7928460
 AtZNuc=   6.0000000   6.0000000   6.0000000   6.0000000   6.0000000   6.0000000   1.0000000   8.0000000   8.0000000   1.0000000

  Atom        11          12          13          14          15          16          17          18          19
 IAtWgt=          12           1           1           1           1          12           1           1           1
 AtmWgt=  12.0000000   1.0078250   1.0078250   1.0078250   1.0078250  12.0000000   1.0078250   1.0078250   1.0078250
 NucSpn=           0           1           1           1           1           0           1           1           1
 AtZEff=   0.0000000   0.0000000   0.0000000   0.0000000   0.0000000   0.0000000   0.0000000   0.0000000   0.0000000
 NQMom=    0.0000000   0.0000000   0.0000000   0.0000000   0.0000000   0.0000000   0.0000000   0.0000000   0.0000000
 NMagM=    0.0000000   2.7928460   2.7928460   2.7928460   2.7928460   0.0000000   2.7928460   2.7928460   2.7928460
 AtZNuc=   6.0000000   1.0000000   1.0000000   1.0000000   1.0000000   6.0000000   1.0000000   1.0000000   1.0000000
 Leave Link  101 at Wed Dec 03 17:11:27 2025, MaxMem=   104857600 cpu:               0.0 elap:               0.1
 (Enter D:\Gaussian\G16W\l202.exe)
                          Input orientation:                          
 ---------------------------------------------------------------------
 Center     Atomic      Atomic             Coordinates (Angstroms)
 Number     Number       Type             X           Y           Z
 ---------------------------------------------------------------------
      1          6           0        1.911462   -0.054974    0.052742
      2          6           0        1.026747    1.028307    0.005910
      3          6           0       -0.349129    0.848138   -0.119451
      4          6           0       -0.862738   -0.458500   -0.187700
      5          6           0        0.007899   -1.537403   -0.146436
      6          6           0        1.383658   -1.342904   -0.031728
      7          1           0       -0.414179   -2.532832   -0.216213
      8          8           0       -2.209049   -0.702462   -0.371659
      9          8           0       -1.226901    1.888293   -0.194091
     10          1           0        1.416093    2.042809    0.056715
     11          6           0       -3.077701   -0.264313    0.591634
     12          1           0       -2.696282   -0.106678    1.592658
     13          1           0       -4.102696   -0.534422    0.388031
     14          1           0       -0.735085    2.714840   -0.149733
     15          1           0        2.045020   -2.201373   -0.003498
     16          6           0        3.395988    0.180963    0.194625
     17          1           0        3.766812    0.865867   -0.573818
     18          1           0        3.637069    0.622384    1.167171
     19          1           0        3.953726   -0.753128    0.107108
 ---------------------------------------------------------------------
                    Distance matrix (angstroms):
                    1          2          3          4          5
     1  C    0.000000
     2  C    1.399433   0.000000
     3  C    2.440396   1.393273   0.000000
     4  C    2.813686   2.412101   1.405616   0.000000
     5  C    2.420913   2.764802   2.412261   1.386991   0.000000
     6  C    1.394445   2.398217   2.794801   2.419255   1.394167
     7  H    3.408918   3.848028   3.382980   2.122468   1.083466
     8  O    4.192609   3.688969   2.434599   1.380548   2.379645
     9  O    3.699532   2.420435   1.363076   2.374888   3.641757
    10  H    2.155481   1.087835   2.138757   3.392544   3.852557
    11  C    5.022547   4.342860   3.031220   2.356084   3.418543
    12  H    4.858531   4.203202   3.058123   2.579794   3.519093
    13  H    6.042548   5.375809   4.032155   3.291589   4.264811
    14  H    3.836284   2.443905   1.906425   3.176133   4.316666
    15  H    2.151286   3.386414   3.878777   3.395084   2.147359
    16  C    1.509839   2.523273   3.817023   4.323405   3.814217
    17  H    2.163989   2.805428   4.140982   4.830711   4.481940
    18  H    2.162981   2.885668   4.194775   4.822059   4.422795
    19  H    2.158985   3.427967   4.596732   4.834464   4.030995
                    6          7          8          9         10
     6  C    0.000000
     7  H    2.163835   0.000000
     8  O    3.665142   2.568263   0.000000
     9  O    4.157164   4.495259   2.776357   0.000000
    10  H    3.387023   4.935674   4.567458   2.659360   0.000000
    11  C    4.632026   3.590703   1.369111   2.945596   5.079679
    12  H    4.562104   3.790281   2.109715   3.054744   4.887846
    13  H    5.561468   4.238385   2.047258   3.805077   6.099912
    14  H    4.579114   5.257895   3.728240   0.962824   2.263142
    15  H    1.084051   2.490537   4.525415   5.240912   4.290950
    16  C    2.534340   4.695833   5.702417   4.943397   2.721300
    17  H    3.294230   5.399974   6.181540   5.111430   2.703450
    18  H    3.221425   5.318059   6.188724   5.207088   2.860674
    19  H    2.640523   4.727629   6.181552   5.822948   3.776160
                   11         12         13         14         15
    11  C    0.000000
    12  H    1.082764   0.000000
    13  H    1.079365   1.900550   0.000000
    14  H    3.861713   3.852685   4.710382   0.000000
    15  H    5.508961   5.423597   6.381726   5.649736   0.000000
    16  C    6.501118   6.257235   7.535214   4.858485   2.745886
    17  H    7.034411   6.885568   8.050784   4.885246   3.563396
    18  H    6.797471   6.389359   7.864428   5.022782   3.446547
    19  H    7.065032   6.844513   8.064285   5.837612   2.398501
                   16         17         18         19
    16  C    0.000000
    17  H    1.094125   0.000000
    18  H    1.094906   1.762714   0.000000
    19  H    1.091447   1.766279   1.765230   0.000000
 Stoichiometry    C8H9O2(2)
 Framework group  C1[X(C8H9O2)]
 Deg. of freedom    51
 Full point group                 C1      NOp   1
 Largest Abelian subgroup         C1      NOp   1
 Largest concise Abelian subgroup C1      NOp   1
                         Standard orientation:                         
 ---------------------------------------------------------------------
 Center     Atomic      Atomic             Coordinates (Angstroms)
 Number     Number       Type             X           Y           Z
 ---------------------------------------------------------------------
      1          6           0        1.911462   -0.054974    0.052742
      2          6           0        1.026747    1.028307    0.005910
      3          6           0       -0.349129    0.848138   -0.119451
      4          6           0       -0.862738   -0.458500   -0.187700
      5          6           0        0.007899   -1.537403   -0.146436
      6          6           0        1.383658   -1.342904   -0.031728
      7          1           0       -0.414179   -2.532832   -0.216213
      8          8           0       -2.209049   -0.702462   -0.371659
      9          8           0       -1.226901    1.888293   -0.194091
     10          1           0        1.416093    2.042809    0.056715
     11          6           0       -3.077701   -0.264313    0.591634
     12          1           0       -2.696282   -0.106678    1.592658
     13          1           0       -4.102696   -0.534422    0.388031
     14          1           0       -0.735085    2.714840   -0.149733
     15          1           0        2.045020   -2.201373   -0.003498
     16          6           0        3.395988    0.180963    0.194625
     17          1           0        3.766812    0.865867   -0.573818
     18          1           0        3.637069    0.622384    1.167171
     19          1           0        3.953726   -0.753128    0.107108
 ---------------------------------------------------------------------
 Rotational constants (GHZ):           2.8419669           0.9514175           0.7395020
 Leave Link  202 at Wed Dec 03 17:11:27 2025, MaxMem=   104857600 cpu:               0.0 elap:               0.0
 (Enter D:\Gaussian\G16W\l301.exe)
 Standard basis: 6-31G(d) (6D, 7F)
 Ernie: Thresh=  0.10000D-02 Tol=  0.10000D-05 Strict=F.
 There are   168 symmetry adapted cartesian basis functions of A   symmetry.
 There are   168 symmetry adapted basis functions of A   symmetry.
   168 basis functions,   316 primitive gaussians,   168 cartesian basis functions
    37 alpha electrons       36 beta electrons
       nuclear repulsion energy       505.4173357891 Hartrees.
 IExCor=  402 DFT=T Ex+Corr=B3LYP ExCW=0 ScaHFX=  0.200000
 ScaDFX=  0.800000  0.720000  1.000000  0.810000 ScalE2=  1.000000  1.000000
 IRadAn=      5 IRanWt=     -1 IRanGd=            0 ICorTp=0 IEmpDi=  4
 NAtoms=   19 NActive=   19 NUniq=   19 SFac= 1.00D+00 NAtFMM=   60 NAOKFM=F Big=F
 Integral buffers will be    131072 words long.
 Raffenetti 2 integral format.
 Two-electron integral symmetry is turned on.
 Leave Link  301 at Wed Dec 03 17:11:27 2025, MaxMem=   104857600 cpu:               0.0 elap:               0.1
 (Enter D:\Gaussian\G16W\l302.exe)
 NPDir=0 NMtPBC=     1 NCelOv=     1 NCel=       1 NClECP=     1 NCelD=      1
         NCelK=      1 NCelE2=     1 NClLst=     1 CellRange=     0.0.
 One-electron integrals computed using PRISM.
 One-electron integral symmetry used in STVInt
 NBasis=   168 RedAO= T EigKep=  3.68D-04  NBF=   168
 NBsUse=   168 1.00D-06 EigRej= -1.00D+00 NBFU=   168
 Precomputing XC quadrature grid using
 IXCGrd= 4 IRadAn=           5 IRanWt=          -1 IRanGd=           0 AccXCQ= 0.00D+00.
 Generated NRdTot=       0 NPtTot=           0 NUsed=           0 NTot=          32
 NSgBfM=   168   168   168   168   168 MxSgAt=    19 MxSgA2=    19.
 Leave Link  302 at Wed Dec 03 17:11:28 2025, MaxMem=   104857600 cpu:               1.0 elap:               0.4
 (Enter D:\Gaussian\G16W\l303.exe)
 DipDrv:  MaxL=1.
 Leave Link  303 at Wed Dec 03 17:11:28 2025, MaxMem=   104857600 cpu:               0.0 elap:               0.1
 (Enter D:\Gaussian\G16W\l401.exe)
 ExpMin= 1.61D-01 ExpMax= 5.48D+03 ExpMxC= 8.25D+02 IAcc=3 IRadAn=         5 AccDes= 0.00D+00
 Harris functional with IExCor=  402 and IRadAn=       5 diagonalized for initial guess.
 HarFok:  IExCor=  402 AccDes= 0.00D+00 IRadAn=         5 IDoV= 1 UseB2=F ITyADJ=14
 ICtDFT=  3500011 ScaDFX=  1.000000  1.000000  1.000000  1.000000
 FoFCou: FMM=F IPFlag=           0 FMFlag=      100000 FMFlg1=           0
         NFxFlg=           0 DoJE=T BraDBF=F KetDBF=T FulRan=T
         wScrn=  0.000000 ICntrl=       500 IOpCl=  0 I1Cent=   200000004 NGrid=           0
         NMat0=    1 NMatS0=      1 NMatT0=    0 NMatD0=    1 NMtDS0=    0 NMtDT0=    0
 Petite list used in FoFCou.
 Harris En= -460.639956408781    
 JPrj=0 DoOrth=F DoCkMO=F.
 Initial guess <Sx>= 0.0000 <Sy>= 0.0000 <Sz>= 0.5000 <S**2>= 0.7500 S= 0.5000
 Leave Link  401 at Wed Dec 03 17:11:29 2025, MaxMem=   104857600 cpu:               1.0 elap:               1.1
 (Enter D:\Gaussian\G16W\l502.exe)
 Integral symmetry usage will be decided dynamically.
 UHF open shell SCF:
 Using DIIS extrapolation, IDIIS=  1040.
 NGot=   104857600 LenX=   104798149 LenY=   104769484
 Requested convergence on RMS density matrix=1.00D-07 within 128 cycles.
 Requested convergence on MAX density matrix=1.00D-05.
 Requested convergence on             energy=1.00D-05.
 No special actions if energy rises.
 Fock matrices will be formed incrementally for  20 cycles.
 Integral accuracy reduced to 1.0D-05 until final iterations.

 Cycle   1  Pass 0  IDiag  1:
 FoFJK:  IHMeth= 1 ICntrl=       0 DoSepK=F KAlg= 0 I1Cent=           0 FoldK=F
 IRaf= 930000000 NMat=       1 IRICut=       1 DoRegI=T DoRafI=F ISym2E= 0 IDoP0=0 IntGTp=1.
 FoFCou: FMM=F IPFlag=           0 FMFlag=      100000 FMFlg1=           0
         NFxFlg=           0 DoJE=F BraDBF=F KetDBF=F FulRan=T
         wScrn=  0.000000 ICntrl=         0 IOpCl=  1 I1Cent=           0 NGrid=           0
         NMat0=    1 NMatS0=      1 NMatT0=    0 NMatD0=    1 NMtDS0=    0 NMtDT0=    0
 Symmetry not used in FoFCou.
 E= -460.394093992653    
 DIIS: error= 3.25D-02 at cycle   1 NSaved=   1.
 NSaved= 1 IEnMin= 1 EnMin= -460.394093992653     IErMin= 1 ErrMin= 3.25D-02
 ErrMax= 3.25D-02  0.00D+00 EMaxC= 1.00D-01 BMatC= 9.26D-01 BMatP= 9.26D-01
 IDIUse=3 WtCom= 6.75D-01 WtEn= 3.25D-01
 Coeff-Com:  0.100D+01
 Coeff-En:   0.100D+01
 Coeff:      0.100D+01
 Gap=     0.196 Goal=   None    Shift=    0.000
 Gap=     0.176 Goal=   None    Shift=    0.000
 GapD=    0.176 DampG=1.000 DampE=0.500 DampFc=0.5000 IDamp=-1.
 Damping current iteration by 5.00D-01
 RMSDP=6.41D-03 MaxDP=1.34D-01              OVMax= 1.87D-01

 Cycle   2  Pass 0  IDiag  1:
 RMSU=  3.16D-03    CP:  9.80D-01
 E= -460.500843135338     Delta-E=       -0.106749142685 Rises=F Damp=T
 DIIS: error= 6.05D-03 at cycle   2 NSaved=   2.
 NSaved= 2 IEnMin= 2 EnMin= -460.500843135338     IErMin= 2 ErrMin= 6.05D-03
 ErrMax= 6.05D-03  0.00D+00 EMaxC= 1.00D-01 BMatC= 6.07D-02 BMatP= 9.26D-01
 IDIUse=3 WtCom= 9.39D-01 WtEn= 6.05D-02
 Coeff-Com:  0.454D-01 0.955D+00
 Coeff-En:   0.806D-01 0.919D+00
 Coeff:      0.475D-01 0.952D+00
 Gap=     0.213 Goal=   None    Shift=    0.000
 Gap=     0.225 Goal=   None    Shift=    0.000
 RMSDP=1.99D-03 MaxDP=4.35D-02 DE=-1.07D-01 OVMax= 1.65D-01

 Cycle   3  Pass 0  IDiag  1:
 RMSU=  1.90D-03    CP:  9.73D-01  8.31D-01
 E= -460.613982030104     Delta-E=       -0.113138894767 Rises=F Damp=F
 DIIS: error= 9.76D-03 at cycle   3 NSaved=   3.
 NSaved= 3 IEnMin= 3 EnMin= -460.613982030104     IErMin= 2 ErrMin= 6.05D-03
 ErrMax= 9.76D-03  0.00D+00 EMaxC= 1.00D-01 BMatC= 6.43D-02 BMatP= 6.07D-02
 IDIUse=3 WtCom= 9.02D-01 WtEn= 9.76D-02
 Coeff-Com: -0.223D-01 0.517D+00 0.505D+00
 Coeff-En:   0.000D+00 0.000D+00 0.100D+01
 Coeff:     -0.201D-01 0.467D+00 0.553D+00
 Gap=     0.163 Goal=   None    Shift=    0.000
 Gap=     0.203 Goal=   None    Shift=    0.000
 RMSDP=1.28D-03 MaxDP=3.52D-02 DE=-1.13D-01 OVMax= 8.81D-02

 Cycle   4  Pass 0  IDiag  1:
 RMSU=  8.39D-04    CP:  9.74D-01  9.32D-01  5.17D-01
 E= -460.626618975246     Delta-E=       -0.012636945142 Rises=F Damp=F
 DIIS: error= 5.27D-03 at cycle   4 NSaved=   4.
 NSaved= 4 IEnMin= 4 EnMin= -460.626618975246     IErMin= 4 ErrMin= 5.27D-03
 ErrMax= 5.27D-03  0.00D+00 EMaxC= 1.00D-01 BMatC= 1.95D-02 BMatP= 6.07D-02
 IDIUse=3 WtCom= 9.47D-01 WtEn= 5.27D-02
 Coeff-Com: -0.140D-01 0.838D-01 0.363D+00 0.567D+00
 Coeff-En:   0.000D+00 0.000D+00 0.273D+00 0.727D+00
 Coeff:     -0.133D-01 0.793D-01 0.358D+00 0.576D+00
 Gap=     0.162 Goal=   None    Shift=    0.000
 Gap=     0.199 Goal=   None    Shift=    0.000
 RMSDP=5.00D-04 MaxDP=1.26D-02 DE=-1.26D-02 OVMax= 3.32D-02

 Cycle   5  Pass 0  IDiag  1:
 RMSU=  1.61D-04    CP:  9.73D-01  9.06D-01  6.90D-01  6.08D-01
 E= -460.631883473645     Delta-E=       -0.005264498399 Rises=F Damp=F
 DIIS: error= 7.72D-04 at cycle   5 NSaved=   5.
 NSaved= 5 IEnMin= 5 EnMin= -460.631883473645     IErMin= 5 ErrMin= 7.72D-04
 ErrMax= 7.72D-04  0.00D+00 EMaxC= 1.00D-01 BMatC= 6.23D-04 BMatP= 1.95D-02
 IDIUse=3 WtCom= 9.92D-01 WtEn= 7.72D-03
 Coeff-Com: -0.443D-02 0.145D-01 0.155D+00 0.290D+00 0.545D+00
 Coeff-En:   0.000D+00 0.000D+00 0.000D+00 0.000D+00 0.100D+01
 Coeff:     -0.440D-02 0.144D-01 0.154D+00 0.288D+00 0.548D+00
 Gap=     0.162 Goal=   None    Shift=    0.000
 Gap=     0.199 Goal=   None    Shift=    0.000
 RMSDP=9.06D-05 MaxDP=3.02D-03 DE=-5.26D-03 OVMax= 3.93D-03

 Cycle   6  Pass 0  IDiag  1:
 RMSU=  7.58D-05    CP:  9.73D-01  9.11D-01  6.82D-01  6.36D-01  7.69D-01
 E= -460.632001307197     Delta-E=       -0.000117833552 Rises=F Damp=F
 DIIS: error= 3.39D-04 at cycle   6 NSaved=   6.
 NSaved= 6 IEnMin= 6 EnMin= -460.632001307197     IErMin= 6 ErrMin= 3.39D-04
 ErrMax= 3.39D-04  0.00D+00 EMaxC= 1.00D-01 BMatC= 9.63D-05 BMatP= 6.23D-04
 IDIUse=3 WtCom= 9.97D-01 WtEn= 3.39D-03
 Coeff-Com: -0.170D-03-0.540D-02 0.239D-01 0.573D-01 0.304D+00 0.620D+00
 Coeff-En:   0.000D+00 0.000D+00 0.000D+00 0.000D+00 0.926D-01 0.907D+00
 Coeff:     -0.170D-03-0.538D-02 0.239D-01 0.571D-01 0.303D+00 0.621D+00
 Gap=     0.162 Goal=   None    Shift=    0.000
 Gap=     0.200 Goal=   None    Shift=    0.000
 RMSDP=3.62D-05 MaxDP=8.31D-04 DE=-1.18D-04 OVMax= 1.78D-03

 Cycle   7  Pass 0  IDiag  1:
 RMSU=  2.31D-05    CP:  9.73D-01  9.10D-01  6.88D-01  6.43D-01  8.41D-01
                    CP:  7.19D-01
 E= -460.632022706616     Delta-E=       -0.000021399419 Rises=F Damp=F
 DIIS: error= 8.31D-05 at cycle   7 NSaved=   7.
 NSaved= 7 IEnMin= 7 EnMin= -460.632022706616     IErMin= 7 ErrMin= 8.31D-05
 ErrMax= 8.31D-05  0.00D+00 EMaxC= 1.00D-01 BMatC= 6.50D-06 BMatP= 9.63D-05
 IDIUse=1 WtCom= 1.00D+00 WtEn= 0.00D+00
 Coeff-Com:  0.350D-03-0.347D-02-0.416D-02-0.461D-02 0.756D-01 0.246D+00
 Coeff-Com:  0.690D+00
 Coeff:      0.350D-03-0.347D-02-0.416D-02-0.461D-02 0.756D-01 0.246D+00
 Coeff:      0.690D+00
 Gap=     0.163 Goal=   None    Shift=    0.000
 Gap=     0.200 Goal=   None    Shift=    0.000
 RMSDP=1.35D-05 MaxDP=5.82D-04 DE=-2.14D-05 OVMax= 7.66D-04

 Cycle   8  Pass 0  IDiag  1:
 RMSU=  1.11D-05    CP:  9.73D-01  9.09D-01  6.88D-01  6.44D-01  8.62D-01
                    CP:  7.90D-01  8.23D-01
 E= -460.632024443117     Delta-E=       -0.000001736501 Rises=F Damp=F
 DIIS: error= 5.66D-05 at cycle   8 NSaved=   8.
 NSaved= 8 IEnMin= 8 EnMin= -460.632024443117     IErMin= 8 ErrMin= 5.66D-05
 ErrMax= 5.66D-05  0.00D+00 EMaxC= 1.00D-01 BMatC= 2.31D-06 BMatP= 6.50D-06
 IDIUse=1 WtCom= 1.00D+00 WtEn= 0.00D+00
 Coeff-Com:  0.234D-03-0.540D-03-0.904D-02-0.193D-01-0.392D-01-0.376D-01
 Coeff-Com:  0.392D+00 0.713D+00
 Coeff:      0.234D-03-0.540D-03-0.904D-02-0.193D-01-0.392D-01-0.376D-01
 Coeff:      0.392D+00 0.713D+00
 Gap=     0.163 Goal=   None    Shift=    0.000
 Gap=     0.200 Goal=   None    Shift=    0.000
 RMSDP=7.35D-06 MaxDP=1.94D-04 DE=-1.74D-06 OVMax= 4.39D-04

 Initial convergence to 1.0D-05 achieved.  Increase integral accuracy.
 Cycle   9  Pass 1  IDiag  1:
 E= -460.632012227713     Delta-E=        0.000012215404 Rises=F Damp=F
 DIIS: error= 2.51D-05 at cycle   1 NSaved=   1.
 NSaved= 1 IEnMin= 1 EnMin= -460.632012227713     IErMin= 1 ErrMin= 2.51D-05
 ErrMax= 2.51D-05  0.00D+00 EMaxC= 1.00D-01 BMatC= 4.70D-07 BMatP= 4.70D-07
 IDIUse=1 WtCom= 1.00D+00 WtEn= 0.00D+00
 Coeff-Com:  0.100D+01
 Coeff:      0.100D+01
 Gap=     0.162 Goal=   None    Shift=    0.000
 Gap=     0.200 Goal=   None    Shift=    0.000
 RMSDP=7.35D-06 MaxDP=1.94D-04 DE= 1.22D-05 OVMax= 3.54D-04

 Cycle  10  Pass 1  IDiag  1:
 RMSU=  8.25D-06    CP:  1.00D+00
 E= -460.632012056562     Delta-E=        0.000000171151 Rises=F Damp=F
 DIIS: error= 4.12D-05 at cycle   2 NSaved=   2.
 NSaved= 2 IEnMin= 1 EnMin= -460.632012227713     IErMin= 1 ErrMin= 2.51D-05
 ErrMax= 4.12D-05  0.00D+00 EMaxC= 1.00D-01 BMatC= 1.10D-06 BMatP= 4.70D-07
 IDIUse=1 WtCom= 1.00D+00 WtEn= 0.00D+00
 Coeff-Com:  0.614D+00 0.386D+00
 Coeff:      0.614D+00 0.386D+00
 Gap=     0.163 Goal=   None    Shift=    0.000
 Gap=     0.200 Goal=   None    Shift=    0.000
 RMSDP=3.65D-06 MaxDP=8.23D-05 DE= 1.71D-07 OVMax= 2.73D-04

 Cycle  11  Pass 1  IDiag  1:
 RMSU=  2.89D-06    CP:  1.00D+00  7.29D-01
 E= -460.632012347061     Delta-E=       -0.000000290499 Rises=F Damp=F
 DIIS: error= 6.10D-06 at cycle   3 NSaved=   3.
 NSaved= 3 IEnMin= 3 EnMin= -460.632012347061     IErMin= 3 ErrMin= 6.10D-06
 ErrMax= 6.10D-06  0.00D+00 EMaxC= 1.00D-01 BMatC= 2.01D-08 BMatP= 4.70D-07
 IDIUse=1 WtCom= 1.00D+00 WtEn= 0.00D+00
 Coeff-Com:  0.825D-01 0.126D+00 0.791D+00
 Coeff:      0.825D-01 0.126D+00 0.791D+00
 Gap=     0.163 Goal=   None    Shift=    0.000
 Gap=     0.200 Goal=   None    Shift=    0.000
 RMSDP=7.41D-07 MaxDP=2.30D-05 DE=-2.90D-07 OVMax= 4.57D-05

 Cycle  12  Pass 1  IDiag  1:
 RMSU=  5.59D-07    CP:  1.00D+00  7.68D-01  8.73D-01
 E= -460.632012351938     Delta-E=       -0.000000004876 Rises=F Damp=F
 DIIS: error= 2.85D-06 at cycle   4 NSaved=   4.
 NSaved= 4 IEnMin= 4 EnMin= -460.632012351938     IErMin= 4 ErrMin= 2.85D-06
 ErrMax= 2.85D-06  0.00D+00 EMaxC= 1.00D-01 BMatC= 7.55D-09 BMatP= 2.01D-08
 IDIUse=1 WtCom= 1.00D+00 WtEn= 0.00D+00
 Coeff-Com: -0.367D-01 0.172D-01 0.450D+00 0.570D+00
 Coeff:     -0.367D-01 0.172D-01 0.450D+00 0.570D+00
 Gap=     0.163 Goal=   None    Shift=    0.000
 Gap=     0.200 Goal=   None    Shift=    0.000
 RMSDP=3.29D-07 MaxDP=7.95D-06 DE=-4.88D-09 OVMax= 1.70D-05

 Cycle  13  Pass 1  IDiag  1:
 RMSU=  2.24D-07    CP:  1.00D+00  7.68D-01  9.16D-01  6.32D-01
 E= -460.632012354003     Delta-E=       -0.000000002065 Rises=F Damp=F
 DIIS: error= 7.37D-07 at cycle   5 NSaved=   5.
 NSaved= 5 IEnMin= 5 EnMin= -460.632012354003     IErMin= 5 ErrMin= 7.37D-07
 ErrMax= 7.37D-07  0.00D+00 EMaxC= 1.00D-01 BMatC= 5.69D-10 BMatP= 7.55D-09
 IDIUse=1 WtCom= 1.00D+00 WtEn= 0.00D+00
 Coeff-Com: -0.236D-01-0.986D-02 0.793D-01 0.214D+00 0.740D+00
 Coeff:     -0.236D-01-0.986D-02 0.793D-01 0.214D+00 0.740D+00
 Gap=     0.163 Goal=   None    Shift=    0.000
 Gap=     0.200 Goal=   None    Shift=    0.000
 RMSDP=1.17D-07 MaxDP=3.61D-06 DE=-2.07D-09 OVMax= 5.67D-06

 Cycle  14  Pass 1  IDiag  1:
 RMSU=  1.08D-07    CP:  1.00D+00  7.68D-01  9.20D-01  7.09D-01  1.01D+00
 E= -460.632012354145     Delta-E=       -0.000000000142 Rises=F Damp=F
 DIIS: error= 5.28D-07 at cycle   6 NSaved=   6.
 NSaved= 6 IEnMin= 6 EnMin= -460.632012354145     IErMin= 6 ErrMin= 5.28D-07
 ErrMax= 5.28D-07  0.00D+00 EMaxC= 1.00D-01 BMatC= 2.79D-10 BMatP= 5.69D-10
 IDIUse=1 WtCom= 1.00D+00 WtEn= 0.00D+00
 Coeff-Com: -0.221D-02-0.136D-01-0.117D+00-0.714D-01 0.480D+00 0.724D+00
 Coeff:     -0.221D-02-0.136D-01-0.117D+00-0.714D-01 0.480D+00 0.724D+00
 Gap=     0.163 Goal=   None    Shift=    0.000
 Gap=     0.200 Goal=   None    Shift=    0.000
 RMSDP=7.20D-08 MaxDP=2.75D-06 DE=-1.42D-10 OVMax= 4.38D-06

 SCF Done:  E(UB3LYP) =  -460.632012354     A.U. after   14 cycles
            NFock= 14  Conv=0.72D-07     -V/T= 2.0091
 <Sx>= 0.0000 <Sy>= 0.0000 <Sz>= 0.5000 <S**2>= 0.7533 S= 0.5016
 <L.S>= 0.000000000000E+00
 KE= 4.564761280116D+02 PE=-2.083734055623D+03 EE= 6.612085794683D+02
 Annihilation of the first spin contaminant:
 S**2 before annihilation     0.7533,   after     0.7500
 Leave Link  502 at Wed Dec 03 17:11:57 2025, MaxMem=   104857600 cpu:              28.0 elap:              28.1
 (Enter D:\Gaussian\G16W\l601.exe)
 Copying SCF densities to generalized density rwf, IOpCl= 1 IROHF=0.

 **********************************************************************

            Population analysis using the SCF density.

 **********************************************************************

 Orbital symmetries:
 Alpha Orbitals:
       Occupied  (A) (A) (A) (A) (A) (A) (A) (A) (A) (A) (A) (A)
                 (A) (A) (A) (A) (A) (A) (A) (A) (A) (A) (A) (A)
                 (A) (A) (A) (A) (A) (A) (A) (A) (A) (A) (A) (A)
                 (A)
       Virtual   (A) (A) (A) (A) (A) (A) (A) (A) (A) (A) (A) (A)
                 (A) (A) (A) (A) (A) (A) (A) (A) (A) (A) (A) (A)
                 (A) (A) (A) (A) (A) (A) (A) (A) (A) (A) (A) (A)
                 (A) (A) (A) (A) (A) (A) (A) (A) (A) (A) (A) (A)
                 (A) (A) (A) (A) (A) (A) (A) (A) (A) (A) (A) (A)
                 (A) (A) (A) (A) (A) (A) (A) (A) (A) (A) (A) (A)
                 (A) (A) (A) (A) (A) (A) (A) (A) (A) (A) (A) (A)
                 (A) (A) (A) (A) (A) (A) (A) (A) (A) (A) (A) (A)
                 (A) (A) (A) (A) (A) (A) (A) (A) (A) (A) (A) (A)
                 (A) (A) (A) (A) (A) (A) (A) (A) (A) (A) (A) (A)
                 (A) (A) (A) (A) (A) (A) (A) (A) (A) (A) (A)
 Beta  Orbitals:
       Occupied  (A) (A) (A) (A) (A) (A) (A) (A) (A) (A) (A) (A)
                 (A) (A) (A) (A) (A) (A) (A) (A) (A) (A) (A) (A)
                 (A) (A) (A) (A) (A) (A) (A) (A) (A) (A) (A) (A)
       Virtual   (A) (A) (A) (A) (A) (A) (A) (A) (A) (A) (A) (A)
                 (A) (A) (A) (A) (A) (A) (A) (A) (A) (A) (A) (A)
                 (A) (A) (A) (A) (A) (A) (A) (A) (A) (A) (A) (A)
                 (A) (A) (A) (A) (A) (A) (A) (A) (A) (A) (A) (A)
                 (A) (A) (A) (A) (A) (A) (A) (A) (A) (A) (A) (A)
                 (A) (A) (A) (A) (A) (A) (A) (A) (A) (A) (A) (A)
                 (A) (A) (A) (A) (A) (A) (A) (A) (A) (A) (A) (A)
                 (A) (A) (A) (A) (A) (A) (A) (A) (A) (A) (A) (A)
                 (A) (A) (A) (A) (A) (A) (A) (A) (A) (A) (A) (A)
                 (A) (A) (A) (A) (A) (A) (A) (A) (A) (A) (A) (A)
                 (A) (A) (A) (A) (A) (A) (A) (A) (A) (A) (A) (A)
 The electronic state is 2-A.
 Alpha  occ. eigenvalues --  -19.18435 -19.18081 -10.25181 -10.23922 -10.21906
 Alpha  occ. eigenvalues --  -10.19807 -10.18842 -10.18755 -10.18514 -10.18200
 Alpha  occ. eigenvalues --   -1.07660  -1.05718  -0.85387  -0.77384  -0.74128
 Alpha  occ. eigenvalues --   -0.70392  -0.65577  -0.62813  -0.57828  -0.54092
 Alpha  occ. eigenvalues --   -0.51909  -0.48780  -0.46458  -0.44888  -0.43332
 Alpha  occ. eigenvalues --   -0.42309  -0.40681  -0.40384  -0.39560  -0.36885
 Alpha  occ. eigenvalues --   -0.36458  -0.34768  -0.34155  -0.32092  -0.24132
 Alpha  occ. eigenvalues --   -0.21873  -0.16230
 Alpha virt. eigenvalues --    0.00025   0.01595   0.06643   0.09165   0.12269
 Alpha virt. eigenvalues --    0.13380   0.13900   0.15470   0.16446   0.17062
 Alpha virt. eigenvalues --    0.18960   0.19557   0.20286   0.23866   0.25691
 Alpha virt. eigenvalues --    0.28885   0.33146   0.34506   0.34928   0.39523
 Alpha virt. eigenvalues --    0.47672   0.50161   0.51487   0.52750   0.53343
 Alpha virt. eigenvalues --    0.55206   0.55836   0.56822   0.57284   0.58665
 Alpha virt. eigenvalues --    0.60186   0.62424   0.62770   0.64279   0.65301
 Alpha virt. eigenvalues --    0.67424   0.68635   0.70732   0.72110   0.75000
 Alpha virt. eigenvalues --    0.75616   0.79514   0.81466   0.83911   0.85228
 Alpha virt. eigenvalues --    0.87594   0.87851   0.89106   0.90143   0.90996
 Alpha virt. eigenvalues --    0.91647   0.94739   0.96153   0.97748   1.00262
 Alpha virt. eigenvalues --    1.02407   1.04761   1.07521   1.09265   1.12481
 Alpha virt. eigenvalues --    1.16740   1.18551   1.22776   1.25135   1.27300
 Alpha virt. eigenvalues --    1.30295   1.32392   1.38254   1.39153   1.41332
 Alpha virt. eigenvalues --    1.44568   1.46848   1.48956   1.50562   1.57166
 Alpha virt. eigenvalues --    1.63170   1.71758   1.74138   1.75783   1.77505
 Alpha virt. eigenvalues --    1.80063   1.83825   1.85336   1.88011   1.90053
 Alpha virt. eigenvalues --    1.90892   1.91951   1.93696   1.97053   2.00149
 Alpha virt. eigenvalues --    2.02316   2.07125   2.10510   2.11737   2.17437
 Alpha virt. eigenvalues --    2.17527   2.20946   2.25002   2.28352   2.29472
 Alpha virt. eigenvalues --    2.32061   2.33676   2.35831   2.38765   2.41651
 Alpha virt. eigenvalues --    2.44886   2.47580   2.53784   2.57179   2.59608
 Alpha virt. eigenvalues --    2.67120   2.69738   2.76842   2.81503   2.82080
 Alpha virt. eigenvalues --    2.84884   2.91462   2.95709   3.05709   3.21571
 Alpha virt. eigenvalues --    3.43384   3.86251   4.09637   4.10153   4.16897
 Alpha virt. eigenvalues --    4.18244   4.24147   4.28120   4.39985   4.53945
 Alpha virt. eigenvalues --    4.92414
  Beta  occ. eigenvalues --  -19.18068 -19.17964 -10.25163 -10.23937 -10.20573
  Beta  occ. eigenvalues --  -10.19797 -10.18844 -10.18738 -10.18515 -10.18202
  Beta  occ. eigenvalues --   -1.07131  -1.05161  -0.85329  -0.77192  -0.74103
  Beta  occ. eigenvalues --   -0.69760  -0.64357  -0.62464  -0.57443  -0.53957
  Beta  occ. eigenvalues --   -0.51202  -0.48420  -0.45759  -0.44715  -0.43284
  Beta  occ. eigenvalues --   -0.42254  -0.40592  -0.39962  -0.38997  -0.36148
  Beta  occ. eigenvalues --   -0.36052  -0.34193  -0.32888  -0.31673  -0.23973
  Beta  occ. eigenvalues --   -0.21637
  Beta virt. eigenvalues --   -0.01643   0.00663   0.01707   0.06735   0.09251
  Beta virt. eigenvalues --    0.12303   0.13741   0.14430   0.15897   0.16482
  Beta virt. eigenvalues --    0.17837   0.19144   0.20148   0.20335   0.23886
  Beta virt. eigenvalues --    0.26042   0.29202   0.33199   0.34630   0.35077
  Beta virt. eigenvalues --    0.39592   0.48066   0.50424   0.51560   0.53286
  Beta virt. eigenvalues --    0.55013   0.55317   0.56802   0.56876   0.58546
  Beta virt. eigenvalues --    0.59125   0.60530   0.62710   0.63063   0.64406
  Beta virt. eigenvalues --    0.66301   0.68403   0.69263   0.70829   0.72174
  Beta virt. eigenvalues --    0.75053   0.75649   0.79664   0.81554   0.84321
  Beta virt. eigenvalues --    0.85528   0.87679   0.87942   0.89181   0.90723
  Beta virt. eigenvalues --    0.91196   0.91960   0.95423   0.96363   0.98081
  Beta virt. eigenvalues --    1.00500   1.02664   1.05344   1.07770   1.09676
  Beta virt. eigenvalues --    1.12605   1.17077   1.18944   1.22926   1.25400
  Beta virt. eigenvalues --    1.27842   1.30785   1.32769   1.38320   1.39176
  Beta virt. eigenvalues --    1.41425   1.44961   1.46987   1.49435   1.51418
  Beta virt. eigenvalues --    1.58997   1.63775   1.72368   1.74371   1.76064
  Beta virt. eigenvalues --    1.78403   1.80940   1.84295   1.85693   1.88810
  Beta virt. eigenvalues --    1.90239   1.91132   1.92200   1.93929   1.97235
  Beta virt. eigenvalues --    2.01283   2.03092   2.08388   2.10706   2.12516
  Beta virt. eigenvalues --    2.17970   2.19685   2.21665   2.25857   2.28670
  Beta virt. eigenvalues --    2.29642   2.32309   2.33854   2.35904   2.39016
  Beta virt. eigenvalues --    2.43717   2.45614   2.47814   2.54135   2.57560
  Beta virt. eigenvalues --    2.59736   2.67294   2.69852   2.76986   2.81699
  Beta virt. eigenvalues --    2.82389   2.84917   2.91619   2.95977   3.05836
  Beta virt. eigenvalues --    3.21704   3.43407   3.86674   4.09659   4.10265
  Beta virt. eigenvalues --    4.18288   4.19915   4.24254   4.28287   4.40030
  Beta virt. eigenvalues --    4.54029   4.92480
          Condensed to atoms (all electrons):
               1          2          3          4          5          6
     1  C    4.602133   0.493635   0.003306  -0.027039  -0.022696   0.566837
     2  C    0.493635   5.240371   0.451353  -0.054343  -0.051604  -0.036054
     3  C    0.003306   0.451353   4.705787   0.431804  -0.057022  -0.044445
     4  C   -0.027039  -0.054343   0.431804   4.679081   0.565755  -0.021259
     5  C   -0.022696  -0.051604  -0.057022   0.565755   5.002243   0.477752
     6  C    0.566837  -0.036054  -0.044445  -0.021259   0.477752   4.988733
     7  H    0.004007   0.000462   0.007196  -0.035938   0.343621  -0.039065
     8  O    0.000011   0.004692  -0.052559   0.223243  -0.056609   0.004170
     9  O    0.003853  -0.063026   0.293892  -0.057861   0.003239   0.000276
    10  H   -0.037248   0.338650  -0.045970   0.004240   0.000464   0.006074
    11  C    0.000013  -0.000134  -0.006005  -0.035653  -0.000374  -0.000115
    12  H   -0.000010  -0.000273   0.002616   0.003396   0.002414  -0.000140
    13  H    0.000000   0.000013   0.000223   0.002300  -0.000215   0.000005
    14  H    0.000478  -0.007032  -0.029574   0.007284  -0.000149  -0.000007
    15  H   -0.039781   0.007094   0.000318   0.003782  -0.042949   0.352666
    16  C    0.350331  -0.062242   0.005233   0.000340   0.007669  -0.053239
    17  H   -0.027111  -0.002899  -0.000037   0.000035  -0.000215   0.001130
    18  H   -0.026639  -0.002840  -0.000075   0.000027  -0.000165  -0.000093
    19  H   -0.029375   0.003388  -0.000105   0.000003   0.000146  -0.002818
               7          8          9         10         11         12
     1  C    0.004007   0.000011   0.003853  -0.037248   0.000013  -0.000010
     2  C    0.000462   0.004692  -0.063026   0.338650  -0.000134  -0.000273
     3  C    0.007196  -0.052559   0.293892  -0.045970  -0.006005   0.002616
     4  C   -0.035938   0.223243  -0.057861   0.004240  -0.035653   0.003396
     5  C    0.343621  -0.056609   0.003239   0.000464  -0.000374   0.002414
     6  C   -0.039065   0.004170   0.000276   0.006074  -0.000115  -0.000140
     7  H    0.585781  -0.000960  -0.000059   0.000017   0.000016   0.000191
     8  O   -0.000960   8.147817  -0.002112  -0.000059   0.261901  -0.036149
     9  O   -0.000059  -0.002112   8.212702  -0.005440   0.003469  -0.000640
    10  H    0.000017  -0.000059  -0.005440   0.624390   0.000002   0.000003
    11  C    0.000016   0.261901   0.003469   0.000002   5.172505   0.350273
    12  H    0.000191  -0.036149  -0.000640   0.000003   0.350273   0.582770
    13  H   -0.000058  -0.033403   0.000065   0.000000   0.378709  -0.042633
    14  H    0.000006  -0.000230   0.242476   0.008375   0.000378   0.000021
    15  H   -0.005835  -0.000057   0.000002  -0.000198   0.000001   0.000001
    16  C   -0.000182   0.000000  -0.000054  -0.009269   0.000000   0.000000
    17  H    0.000003   0.000000  -0.000001   0.002829   0.000000   0.000000
    18  H    0.000003   0.000000   0.000000   0.001579   0.000000   0.000000
    19  H   -0.000007   0.000000   0.000000   0.000024   0.000000   0.000000
              13         14         15         16         17         18
     1  C    0.000000   0.000478  -0.039781   0.350331  -0.027111  -0.026639
     2  C    0.000013  -0.007032   0.007094  -0.062242  -0.002899  -0.002840
     3  C    0.000223  -0.029574   0.000318   0.005233  -0.000037  -0.000075
     4  C    0.002300   0.007284   0.003782   0.000340   0.000035   0.000027
     5  C   -0.000215  -0.000149  -0.042949   0.007669  -0.000215  -0.000165
     6  C    0.000005  -0.000007   0.352666  -0.053239   0.001130  -0.000093
     7  H   -0.000058   0.000006  -0.005835  -0.000182   0.000003   0.000003
     8  O   -0.033403  -0.000230  -0.000057   0.000000   0.000000   0.000000
     9  O    0.000065   0.242476   0.000002  -0.000054  -0.000001   0.000000
    10  H    0.000000   0.008375  -0.000198  -0.009269   0.002829   0.001579
    11  C    0.378709   0.000378   0.000001   0.000000   0.000000   0.000000
    12  H   -0.042633   0.000021   0.000001   0.000000   0.000000   0.000000
    13  H    0.550014  -0.000007   0.000000   0.000000   0.000000   0.000000
    14  H   -0.000007   0.368949  -0.000001  -0.000019   0.000001   0.000001
    15  H    0.000000  -0.000001   0.606006  -0.010540   0.000085   0.000176
    16  C    0.000000  -0.000019  -0.010540   5.211495   0.362965   0.362751
    17  H    0.000000   0.000001   0.000085   0.362965   0.563744  -0.033681
    18  H    0.000000   0.000001   0.000176   0.362751  -0.033681   0.564029
    19  H    0.000000   0.000000   0.006732   0.367008  -0.027343  -0.028030
              19
     1  C   -0.029375
     2  C    0.003388
     3  C   -0.000105
     4  C    0.000003
     5  C    0.000146
     6  C   -0.002818
     7  H   -0.000007
     8  O    0.000000
     9  O    0.000000
    10  H    0.000024
    11  C    0.000000
    12  H    0.000000
    13  H    0.000000
    14  H    0.000000
    15  H    0.006732
    16  C    0.367008
    17  H   -0.027343
    18  H   -0.028030
    19  H    0.552389
          Atomic-Atomic Spin Densities.
               1          2          3          4          5          6
     1  C    0.007968  -0.000235  -0.000746   0.000245  -0.000646   0.000983
     2  C   -0.000235  -0.000515  -0.001404   0.000683   0.000731  -0.000642
     3  C   -0.000746  -0.001404   0.016974  -0.005168  -0.002214   0.001586
     4  C    0.000245   0.000683  -0.005168  -0.004911   0.001642  -0.001059
     5  C   -0.000646   0.000731  -0.002214   0.001642   0.019647  -0.006880
     6  C    0.000983  -0.000642   0.001586  -0.001059  -0.006880   0.002490
     7  H   -0.000012   0.000003   0.000052  -0.000018  -0.000795   0.000635
     8  O    0.000009   0.000097  -0.004093   0.003334  -0.001236   0.000300
     9  O   -0.000004   0.000717  -0.002030   0.000876   0.000019  -0.000008
    10  H   -0.000100  -0.000893   0.000427  -0.000080  -0.000039   0.000019
    11  C   -0.000004  -0.000362   0.003423  -0.006541   0.001123  -0.000092
    12  H   -0.000007   0.000096  -0.000185  -0.000530   0.000197  -0.000024
    13  H    0.000000   0.000001  -0.000052  -0.000117   0.000024  -0.000001
    14  H   -0.000013  -0.000893   0.000779  -0.000246  -0.000014   0.000007
    15  H   -0.000038  -0.000015  -0.000008   0.000003   0.000383  -0.000325
    16  C    0.000077   0.000028  -0.000014   0.000002  -0.000002   0.000001
    17  H   -0.000137   0.000035   0.000009  -0.000001  -0.000005  -0.000027
    18  H   -0.000260   0.000014  -0.000008   0.000001   0.000011   0.000023
    19  H   -0.000002   0.000003   0.000001   0.000000  -0.000005  -0.000016
               7          8          9         10         11         12
     1  C   -0.000012   0.000009  -0.000004  -0.000100  -0.000004  -0.000007
     2  C    0.000003   0.000097   0.000717  -0.000893  -0.000362   0.000096
     3  C    0.000052  -0.004093  -0.002030   0.000427   0.003423  -0.000185
     4  C   -0.000018   0.003334   0.000876  -0.000080  -0.006541  -0.000530
     5  C   -0.000795  -0.001236   0.000019  -0.000039   0.001123   0.000197
     6  C    0.000635   0.000300  -0.000008   0.000019  -0.000092  -0.000024
     7  H   -0.000617   0.000647  -0.000001   0.000000  -0.000399  -0.000039
     8  O    0.000647   0.259786   0.001328  -0.000005  -0.140343  -0.000306
     9  O   -0.000001   0.001328   0.005032  -0.000060  -0.004136   0.000173
    10  H    0.000000  -0.000005  -0.000060   0.000942   0.000011  -0.000002
    11  C   -0.000399  -0.140343  -0.004136   0.000011   1.122030  -0.013744
    12  H   -0.000039  -0.000306   0.000173  -0.000002  -0.013744  -0.028330
    13  H   -0.000003  -0.000327   0.000022   0.000000  -0.008205   0.003391
    14  H    0.000000  -0.000177  -0.001675   0.000288   0.000641  -0.000050
    15  H   -0.000019  -0.000002   0.000000  -0.000002   0.000001   0.000000
    16  C    0.000000   0.000000   0.000000  -0.000009   0.000000   0.000000
    17  H    0.000000   0.000000   0.000000   0.000046   0.000000   0.000000
    18  H    0.000000   0.000000   0.000000  -0.000047   0.000000   0.000000
    19  H    0.000000   0.000000   0.000000   0.000002   0.000000   0.000000
              13         14         15         16         17         18
     1  C    0.000000  -0.000013  -0.000038   0.000077  -0.000137  -0.000260
     2  C    0.000001  -0.000893  -0.000015   0.000028   0.000035   0.000014
     3  C   -0.000052   0.000779  -0.000008  -0.000014   0.000009  -0.000008
     4  C   -0.000117  -0.000246   0.000003   0.000002  -0.000001   0.000001
     5  C    0.000024  -0.000014   0.000383  -0.000002  -0.000005   0.000011
     6  C   -0.000001   0.000007  -0.000325   0.000001  -0.000027   0.000023
     7  H   -0.000003   0.000000  -0.000019   0.000000   0.000000   0.000000
     8  O   -0.000327  -0.000177  -0.000002   0.000000   0.000000   0.000000
     9  O    0.000022  -0.001675   0.000000   0.000000   0.000000   0.000000
    10  H    0.000000   0.000288  -0.000002  -0.000009   0.000046  -0.000047
    11  C   -0.008205   0.000641   0.000001   0.000000   0.000000   0.000000
    12  H    0.003391  -0.000050   0.000000   0.000000   0.000000   0.000000
    13  H   -0.039111  -0.000003   0.000000   0.000000   0.000000   0.000000
    14  H   -0.000003   0.003395   0.000000   0.000000   0.000001  -0.000001
    15  H    0.000000   0.000000   0.000185   0.000012  -0.000005   0.000007
    16  C    0.000000   0.000000   0.000012  -0.000789  -0.000006   0.000066
    17  H    0.000000   0.000001  -0.000005  -0.000006   0.000450  -0.000162
    18  H    0.000000  -0.000001   0.000007   0.000066  -0.000162   0.000819
    19  H    0.000000   0.000000  -0.000011   0.000034   0.000030  -0.000050
              19
     1  C   -0.000002
     2  C    0.000003
     3  C    0.000001
     4  C    0.000000
     5  C   -0.000005
     6  C   -0.000016
     7  H    0.000000
     8  O    0.000000
     9  O    0.000000
    10  H    0.000002
    11  C    0.000000
    12  H    0.000000
    13  H    0.000000
    14  H    0.000000
    15  H   -0.000011
    16  C    0.000034
    17  H    0.000030
    18  H   -0.000050
    19  H    0.000046
 Mulliken charges and spin densities:
               1          2
     1  C    0.185294   0.007078
     2  C   -0.259213  -0.002554
     3  C    0.334063   0.007326
     4  C    0.310804  -0.011886
     5  C   -0.171304   0.011939
     6  C   -0.200409  -0.003031
     7  H    0.140802  -0.000565
     8  O   -0.459695   0.119009
     9  O   -0.630781   0.000252
    10  H    0.111537   0.000498
    11  C   -0.124986   0.953403
    12  H    0.138161  -0.039360
    13  H    0.144986  -0.044381
    14  H    0.409049   0.002037
    15  H    0.122501   0.000167
    16  C   -0.532250  -0.000602
    17  H    0.160494   0.000226
    18  H    0.162959   0.000412
    19  H    0.157987   0.000030
 Sum of Mulliken charges =   0.00000   1.00000
 Mulliken charges and spin densities with hydrogens summed into heavy atoms:
               1          2
     1  C    0.185294   0.007078
     2  C   -0.147675  -0.002056
     3  C    0.334063   0.007326
     4  C    0.310804  -0.011886
     5  C   -0.030502   0.011375
     6  C   -0.077908  -0.002863
     8  O   -0.459695   0.119009
     9  O   -0.221732   0.002289
    11  C    0.158162   0.869662
    16  C   -0.050811   0.000066
 Electronic spatial extent (au):  <R**2>=           1551.0709
 Charge=              0.0000 electrons
 Dipole moment (field-independent basis, Debye):
    X=              1.9535    Y=              1.1905    Z=              0.9352  Tot=              2.4714
 Quadrupole moment (field-independent basis, Debye-Ang):
   XX=            -56.6415   YY=            -50.0806   ZZ=            -60.2794
   XY=              1.5978   XZ=             -2.0733   YZ=             -0.1496
 Traceless Quadrupole moment (field-independent basis, Debye-Ang):
   XX=             -0.9743   YY=              5.5866   ZZ=             -4.6123
   XY=              1.5978   XZ=             -2.0733   YZ=             -0.1496
 Octapole moment (field-independent basis, Debye-Ang**2):
  XXX=             -8.9163  YYY=             24.4868  ZZZ=             -0.0818  XYY=              2.0165
  XXY=             -4.9193  XXZ=              6.0414  XZZ=             -6.1677  YZZ=              3.8650
  YYZ=             -2.1821  XYZ=              0.4378
 Hexadecapole moment (field-independent basis, Debye-Ang**3):
 XXXX=          -1381.9820 YYYY=           -375.6435 ZZZZ=            -95.4854 XXXY=             13.7158
 XXXZ=             -8.2226 YYYX=            -13.7921 YYYZ=             -1.4742 ZZZX=              2.5511
 ZZZY=             -0.0468 XXYY=           -328.9000 XXZZ=           -261.1625 YYZZ=           -101.1890
 XXYZ=             -1.9088 YYXZ=              2.1883 ZZXY=              0.7382
 N-N= 5.054173357891D+02 E-N=-2.083734020453D+03  KE= 4.564761280116D+02
                          Isotropic Fermi Contact Couplings
        Atom                 a.u.       MegaHertz       Gauss      10(-4) cm-1
     1  C(13)              0.00075       0.84591       0.30184       0.28217
     2  C(13)              0.00106       1.19261       0.42555       0.39781
     3  C(13)              0.00622       6.99367       2.49551       2.33284
     4  C(13)             -0.00195      -2.19604      -0.78360      -0.73252
     5  C(13)              0.00503       5.65877       2.01919       1.88756
     6  C(13)              0.00018       0.20436       0.07292       0.06817
     7  H(1)              -0.00018      -0.81621      -0.29125      -0.27226
     8  O(17)              0.04069     -24.66910      -8.80255      -8.22873
     9  O(17)              0.01355      -8.21567      -2.93156      -2.74045
    10  H(1)               0.00005       0.21832       0.07790       0.07282
    11  C(13)              0.15262     171.57575      61.22249      57.23151
    12  H(1)              -0.01074     -47.99730     -17.12663     -16.01018
    13  H(1)              -0.01219     -54.50845     -19.44997     -18.18206
    14  H(1)               0.00068       3.02917       1.08088       1.01042
    15  H(1)               0.00006       0.27910       0.09959       0.09310
    16  C(13)             -0.00023      -0.25734      -0.09182      -0.08584
    17  H(1)               0.00010       0.42674       0.15227       0.14234
    18  H(1)               0.00020       0.90853       0.32419       0.30305
    19  H(1)               0.00002       0.09159       0.03268       0.03055
 --------------------------------------------------------
       Center         ----  Spin Dipole Couplings  ----
                      3XX-RR        3YY-RR        3ZZ-RR
 --------------------------------------------------------
     1   Atom       -0.001089     -0.004970      0.006059
     2   Atom        0.005474     -0.000708     -0.004767
     3   Atom        0.004844     -0.002962     -0.001882
     4   Atom        0.021749     -0.008656     -0.013093
     5   Atom        0.004941     -0.006630      0.001689
     6   Atom        0.004766     -0.000412     -0.004354
     7   Atom        0.001983      0.001574     -0.003557
     8   Atom       -0.357051      0.650269     -0.293218
     9   Atom        0.009959     -0.001886     -0.008073
    10   Atom        0.001834     -0.000503     -0.001330
    11   Atom       -0.508487      0.897927     -0.389440
    12   Atom       -0.047112     -0.006528      0.053640
    13   Atom        0.058874     -0.004841     -0.054034
    14   Atom        0.000506      0.002369     -0.002874
    15   Atom        0.001571     -0.000510     -0.001061
    16   Atom        0.001159     -0.000587     -0.000572
    17   Atom        0.000899     -0.000421     -0.000478
    18   Atom        0.000967     -0.000495     -0.000472
    19   Atom        0.000967     -0.000479     -0.000488
 --------------------------------------------------------
                        XY            XZ            YZ
 --------------------------------------------------------
     1   Atom        0.000230     -0.001299     -0.000056
     2   Atom        0.001206     -0.001787     -0.000129
     3   Atom        0.007923      0.001045      0.005283
     4   Atom       -0.001011      0.000191      0.003885
     5   Atom       -0.005405     -0.008297      0.003625
     6   Atom       -0.000701     -0.000682      0.000234
     7   Atom       -0.005149     -0.000897      0.001381
     8   Atom       -0.114260      0.041249     -0.339920
     9   Atom        0.010516     -0.005410     -0.003403
    10   Atom        0.001392     -0.000204     -0.000091
    11   Atom       -0.060741      0.024767     -0.419297
    12   Atom        0.007801      0.045812      0.006429
    13   Atom        0.026518      0.028277     -0.010290
    14   Atom        0.004072     -0.000886     -0.000763
    15   Atom       -0.000833     -0.000173      0.000025
    16   Atom        0.000152     -0.000029      0.000043
    17   Atom        0.000272     -0.000200     -0.000040
    18   Atom        0.000231      0.000230      0.000050
    19   Atom       -0.000136     -0.000036      0.000001
 --------------------------------------------------------


 ---------------------------------------------------------------------------------
              Anisotropic Spin Dipole Couplings in Principal Axis System
 ---------------------------------------------------------------------------------

       Atom             a.u.   MegaHertz   Gauss  10(-4) cm-1        Axes

              Baa    -0.0050    -0.669    -0.239    -0.223 -0.0596  0.9982 -0.0019
     1 C(13)  Bbb    -0.0013    -0.175    -0.062    -0.058  0.9830  0.0590  0.1738
              Bcc     0.0063     0.844     0.301     0.281 -0.1736 -0.0084  0.9848
 
              Baa    -0.0051    -0.680    -0.243    -0.227  0.1690 -0.0175  0.9855
     2 C(13)  Bbb    -0.0009    -0.124    -0.044    -0.041 -0.1723  0.9839  0.0471
              Bcc     0.0060     0.805     0.287     0.268  0.9704  0.1777 -0.1633
 
              Baa    -0.0100    -1.339    -0.478    -0.447 -0.3910  0.7931 -0.4670
     3 C(13)  Bbb    -0.0009    -0.124    -0.044    -0.041 -0.4923  0.2485  0.8342
              Bcc     0.0109     1.463     0.522     0.488  0.7776  0.5561  0.2933
 
              Baa    -0.0154    -2.061    -0.736    -0.688 -0.0182 -0.5034  0.8639
     4 C(13)  Bbb    -0.0064    -0.862    -0.308    -0.287  0.0276  0.8634  0.5037
              Bcc     0.0218     2.923     1.043     0.975  0.9995 -0.0330  0.0018
 
              Baa    -0.0088    -1.178    -0.420    -0.393  0.3333  0.9408 -0.0616
     5 C(13)  Bbb    -0.0050    -0.676    -0.241    -0.226  0.5811 -0.1536  0.7992
              Bcc     0.0138     1.855     0.662     0.619  0.7424 -0.3022 -0.5979
 
              Baa    -0.0044    -0.592    -0.211    -0.198  0.0705 -0.0459  0.9965
     6 C(13)  Bbb    -0.0005    -0.067    -0.024    -0.022  0.1365  0.9900  0.0359
              Bcc     0.0049     0.659     0.235     0.220  0.9881 -0.1335 -0.0761
 
              Baa    -0.0040    -2.141    -0.764    -0.714 -0.2578 -0.4492  0.8554
     7 H(1)   Bbb    -0.0032    -1.686    -0.602    -0.562  0.6560  0.5687  0.4963
              Bcc     0.0072     3.827     1.365     1.276  0.7094 -0.6891 -0.1480
 
              Baa    -0.4034    29.193    10.417     9.738 -0.1224  0.2927  0.9483
     8 O(17)  Bbb    -0.3696    26.743     9.542     8.920  0.9867  0.1387  0.0846
              Bcc     0.7730   -55.935   -19.959   -18.658 -0.1068  0.9461 -0.3058
 
              Baa    -0.0097     0.701     0.250     0.234  0.1447  0.2254  0.9635
     9 O(17)  Bbb    -0.0080     0.579     0.207     0.193 -0.5278  0.8412 -0.1175
              Bcc     0.0177    -1.280    -0.457    -0.427  0.8370  0.4915 -0.2407
 
              Baa    -0.0013    -0.717    -0.256    -0.239  0.0619  0.0053  0.9981
    10 H(1)   Bbb    -0.0012    -0.615    -0.219    -0.205 -0.4213  0.9067  0.0213
              Bcc     0.0025     1.332     0.475     0.444  0.9048  0.4218 -0.0583
 
              Baa    -0.5192   -69.671   -24.860   -23.240 -0.6300  0.1954  0.7516
    11 C(13)  Bbb    -0.5060   -67.904   -24.230   -22.650  0.7754  0.2113  0.5951
              Bcc     1.0252   137.576    49.090    45.890 -0.0425  0.9577 -0.2846
 
              Baa    -0.0652   -34.814   -12.423   -11.613  0.9313 -0.0849 -0.3543
    12 H(1)   Bbb    -0.0071    -3.784    -1.350    -1.262  0.0392  0.9902 -0.1344
              Bcc     0.0723    38.598    13.773    12.875  0.3622  0.1113  0.9254
 
              Baa    -0.0653   -34.858   -12.438   -11.628 -0.2688  0.2749  0.9231
    13 H(1)   Bbb    -0.0075    -3.993    -1.425    -1.332 -0.2220  0.9149 -0.3371
              Bcc     0.0728    38.851    13.863    12.959  0.9373  0.2955  0.1850
 
              Baa    -0.0031    -1.677    -0.598    -0.559  0.4410 -0.2049  0.8738
    14 H(1)   Bbb    -0.0026    -1.400    -0.500    -0.467  0.6485 -0.6004 -0.4680
              Bcc     0.0058     3.077     1.098     1.026  0.6205  0.7730 -0.1319
 
              Baa    -0.0011    -0.574    -0.205    -0.191  0.0949  0.0956  0.9909
    15 H(1)   Bbb    -0.0008    -0.426    -0.152    -0.142  0.3214  0.9391 -0.1214
              Bcc     0.0019     1.000     0.357     0.333  0.9422 -0.3300 -0.0584
 
              Baa    -0.0006    -0.085    -0.030    -0.028 -0.0776  0.7999 -0.5951
    16 C(13)  Bbb    -0.0005    -0.072    -0.026    -0.024 -0.0394  0.5940  0.8035
              Bcc     0.0012     0.157     0.056     0.052  0.9962  0.0858 -0.0146
 
              Baa    -0.0005    -0.270    -0.096    -0.090  0.1331  0.0424  0.9902
    17 H(1)   Bbb    -0.0005    -0.253    -0.090    -0.085 -0.1962  0.9804 -0.0156
              Bcc     0.0010     0.524     0.187     0.175  0.9715  0.1922 -0.1388
 
              Baa    -0.0005    -0.287    -0.102    -0.096 -0.0719  0.8981 -0.4339
    18 H(1)   Bbb    -0.0005    -0.268    -0.095    -0.089 -0.2040  0.4126  0.8878
              Bcc     0.0010     0.554     0.198     0.185  0.9763  0.1524  0.1536
 
              Baa    -0.0005    -0.263    -0.094    -0.088  0.0934  0.8821  0.4617
    19 H(1)   Bbb    -0.0005    -0.260    -0.093    -0.087 -0.0212 -0.4619  0.8867
              Bcc     0.0010     0.523     0.187     0.175  0.9954 -0.0926 -0.0244
 

 ---------------------------------------------------------------------------------

 No NMR shielding tensors so no spin-rotation constants.
 Leave Link  601 at Wed Dec 03 17:11:57 2025, MaxMem=   104857600 cpu:               0.0 elap:               0.2
 (Enter D:\Gaussian\G16W\l9999.exe)
 1|1|UNPC-PC-20250526LCFF|SP|UB3LYP|6-31G(d)|C8H9O2(2)|ADMINISTRATOR|03
 -Dec-2025|0||#P B3LYP/6-31G* SCF=conver=7 out=wfn||Generated by Multiw
 fn (http://sobereva.com/multiwfn)||0,2|C,0,1.911462,-0.054974,0.052742
 |C,0,1.026747,1.028307,0.00591|C,0,-0.349129,0.848138,-0.119451|C,0,-0
 .862738,-0.4585,-0.1877|C,0,0.007899,-1.537403,-0.146436|C,0,1.383658,
 -1.342904,-0.031728|H,0,-0.414179,-2.532832,-0.216213|O,0,-2.209049,-0
 .702462,-0.371659|O,0,-1.226901,1.888293,-0.194091|H,0,1.416093,2.0428
 09,0.056715|C,0,-3.077701,-0.264313,0.591634|H,0,-2.696282,-0.106678,1
 .592658|H,0,-4.102696,-0.534422,0.388031|H,0,-0.735085,2.71484,-0.1497
 33|H,0,2.04502,-2.201373,-0.003498|C,0,3.395988,0.180963,0.194625|H,0,
 3.766812,0.865867,-0.573818|H,0,3.637069,0.622384,1.167171|H,0,3.95372
 6,-0.753128,0.107108||Version=EM64W-G16RevA.03|State=2-A|HF=-460.63201
 24|S2=0.753302|S2-1=0.|S2A=0.750007|RMSD=7.203e-008|Dipole=0.7685614,0
 .468396,0.3679176|Quadrupole=-0.7243704,4.1534676,-3.4290971,1.1879157
 ,-1.5414468,-0.1112475|PG=C01 [X(C8H9O2)]||@

 Writing a WFN file to "N.wfn"


 EDUCATION DOESN'T COST 
           ... IT PAYS!

 -- POSTMARK, UNIV. OF MISSISSIPPI, DEC 78
 Job cpu time:       0 days  0 hours  0 minutes 31.0 seconds.
 Elapsed time:       0 days  0 hours  0 minutes 30.3 seconds.
 File lengths (MBytes):  RWF=     32 Int=      0 D2E=      0 Chk=      3 Scr=      1
 Normal termination of Gaussian 16 at Wed Dec 03 17:11:58 2025.
