 Generated by Multiwfn (http://sobereva.com/multiwfn)
GAUSSIAN             73 MOL ORBITALS    316 PRIMITIVES       19 NUCLEI
  C    1    (CENTRE  1)   3.61213984 -0.10388570  0.09966801  CHARGE =  6.0
  C    2    (CENTRE  2)   1.94027074  1.94321867  0.01116836  CHARGE =  6.0
  C    3    (CENTRE  3)  -0.65975807  1.60274855 -0.22572960  CHARGE =  6.0
  C    4    (CENTRE  4)  -1.63033836 -0.86643944 -0.35470152  CHARGE =  6.0
  C    5    (CENTRE  5)   0.01492717 -2.90527059 -0.27672386  CHARGE =  6.0
  C    6    (CENTRE  6)   2.61473488 -2.53772069 -0.05995715  CHARGE =  6.0
  H    7    (CENTRE  7)  -0.78268461 -4.78635879 -0.40858328  CHARGE =  1.0
  O    8    (CENTRE  8)  -4.17449742 -1.32746086 -0.70233364  CHARGE =  8.0
  O    9    (CENTRE  9)  -2.31850680  3.56835659 -0.36677876  CHARGE =  8.0
  H   10    (CENTRE 10)   2.67602800  3.86034962  0.10717589  CHARGE =  1.0
  C   11    (CENTRE 11)  -5.81601182 -0.49947929  1.11802630  CHARGE =  6.0
  H   12    (CENTRE 12)  -5.09523437 -0.20159229  3.00968751  CHARGE =  1.0
  H   13    (CENTRE 13)  -7.75297163 -1.00991137  0.73327240  CHARGE =  1.0
  H   14    (CENTRE 14)  -1.38910929  5.13030407 -0.28295428  CHARGE =  1.0
  H   15    (CENTRE 15)   3.86452797 -4.15999195 -0.00661018  CHARGE =  1.0
  C   16    (CENTRE 16)   6.41748739  0.34197068  0.36778802  CHARGE =  6.0
  H   17    (CENTRE 17)   7.11824316  1.63625168 -1.08435879  CHARGE =  1.0
  H   18    (CENTRE 18)   6.87306443  1.17613549  2.20563361  CHARGE =  1.0
  H   19    (CENTRE 19)   7.47145950 -1.42320546  0.20240486  CHARGE =  1.0
CENTRE ASSIGNMENTS    1  1  1  1  1  1  1  1  1  1  1  1  1  1  1  1  1  1  1  1
CENTRE ASSIGNMENTS    1  1  1  1  1  1  1  1  2  2  2  2  2  2  2  2  2  2  2  2
CENTRE ASSIGNMENTS    2  2  2  2  2  2  2  2  2  2  2  2  2  2  2  2  3  3  3  3
CENTRE ASSIGNMENTS    3  3  3  3  3  3  3  3  3  3  3  3  3  3  3  3  3  3  3  3
CENTRE ASSIGNMENTS    3  3  3  3  4  4  4  4  4  4  4  4  4  4  4  4  4  4  4  4
CENTRE ASSIGNMENTS    4  4  4  4  4  4  4  4  4  4  4  4  5  5  5  5  5  5  5  5
CENTRE ASSIGNMENTS    5  5  5  5  5  5  5  5  5  5  5  5  5  5  5  5  5  5  5  5
CENTRE ASSIGNMENTS    6  6  6  6  6  6  6  6  6  6  6  6  6  6  6  6  6  6  6  6
CENTRE ASSIGNMENTS    6  6  6  6  6  6  6  6  7  7  7  7  8  8  8  8  8  8  8  8
CENTRE ASSIGNMENTS    8  8  8  8  8  8  8  8  8  8  8  8  8  8  8  8  8  8  8  8
CENTRE ASSIGNMENTS    9  9  9  9  9  9  9  9  9  9  9  9  9  9  9  9  9  9  9  9
CENTRE ASSIGNMENTS    9  9  9  9  9  9  9  9 10 10 10 10 11 11 11 11 11 11 11 11
CENTRE ASSIGNMENTS   11 11 11 11 11 11 11 11 11 11 11 11 11 11 11 11 11 11 11 11
CENTRE ASSIGNMENTS   12 12 12 12 13 13 13 13 14 14 14 14 15 15 15 15 16 16 16 16
CENTRE ASSIGNMENTS   16 16 16 16 16 16 16 16 16 16 16 16 16 16 16 16 16 16 16 16
CENTRE ASSIGNMENTS   16 16 16 16 17 17 17 17 18 18 18 18 19 19 19 19
TYPE ASSIGNMENTS      1  1  1  1  1  1  1  1  1  2  2  2  3  3  3  4  4  4  1  2
TYPE ASSIGNMENTS      3  4  5  6  7  8  9 10  1  1  1  1  1  1  1  1  1  2  2  2
TYPE ASSIGNMENTS      3  3  3  4  4  4  1  2  3  4  5  6  7  8  9 10  1  1  1  1
TYPE ASSIGNMENTS      1  1  1  1  1  2  2  2  3  3  3  4  4  4  1  2  3  4  5  6
TYPE ASSIGNMENTS      7  8  9 10  1  1  1  1  1  1  1  1  1  2  2  2  3  3  3  4
TYPE ASSIGNMENTS      4  4  1  2  3  4  5  6  7  8  9 10  1  1  1  1  1  1  1  1
TYPE ASSIGNMENTS      1  2  2  2  3  3  3  4  4  4  1  2  3  4  5  6  7  8  9 10
TYPE ASSIGNMENTS      1  1  1  1  1  1  1  1  1  2  2  2  3  3  3  4  4  4  1  2
TYPE ASSIGNMENTS      3  4  5  6  7  8  9 10  1  1  1  1  1  1  1  1  1  1  1  1
TYPE ASSIGNMENTS      1  2  2  2  3  3  3  4  4  4  1  2  3  4  5  6  7  8  9 10
TYPE ASSIGNMENTS      1  1  1  1  1  1  1  1  1  2  2  2  3  3  3  4  4  4  1  2
TYPE ASSIGNMENTS      3  4  5  6  7  8  9 10  1  1  1  1  1  1  1  1  1  1  1  1
TYPE ASSIGNMENTS      1  2  2  2  3  3  3  4  4  4  1  2  3  4  5  6  7  8  9 10
TYPE ASSIGNMENTS      1  1  1  1  1  1  1  1  1  1  1  1  1  1  1  1  1  1  1  1
TYPE ASSIGNMENTS      1  1  1  1  1  2  2  2  3  3  3  4  4  4  1  2  3  4  5  6
TYPE ASSIGNMENTS      7  8  9 10  1  1  1  1  1  1  1  1  1  1  1  1
EXPONENTS  0.3047525D+04 0.4573695D+03 0.1039487D+03 0.2921016D+02 0.9286663D+01
EXPONENTS  0.3163927D+01 0.7868272D+01 0.1881289D+01 0.5442493D+00 0.7868272D+01
EXPONENTS  0.1881289D+01 0.5442493D+00 0.7868272D+01 0.1881289D+01 0.5442493D+00
EXPONENTS  0.7868272D+01 0.1881289D+01 0.5442493D+00 0.1687145D+00 0.1687145D+00
EXPONENTS  0.1687145D+00 0.1687145D+00 0.8000000D+00 0.8000000D+00 0.8000000D+00
EXPONENTS  0.8000000D+00 0.8000000D+00 0.8000000D+00 0.3047525D+04 0.4573695D+03
EXPONENTS  0.1039487D+03 0.2921016D+02 0.9286663D+01 0.3163927D+01 0.7868272D+01
EXPONENTS  0.1881289D+01 0.5442493D+00 0.7868272D+01 0.1881289D+01 0.5442493D+00
EXPONENTS  0.7868272D+01 0.1881289D+01 0.5442493D+00 0.7868272D+01 0.1881289D+01
EXPONENTS  0.5442493D+00 0.1687145D+00 0.1687145D+00 0.1687145D+00 0.1687145D+00
EXPONENTS  0.8000000D+00 0.8000000D+00 0.8000000D+00 0.8000000D+00 0.8000000D+00
EXPONENTS  0.8000000D+00 0.3047525D+04 0.4573695D+03 0.1039487D+03 0.2921016D+02
EXPONENTS  0.9286663D+01 0.3163927D+01 0.7868272D+01 0.1881289D+01 0.5442493D+00
EXPONENTS  0.7868272D+01 0.1881289D+01 0.5442493D+00 0.7868272D+01 0.1881289D+01
EXPONENTS  0.5442493D+00 0.7868272D+01 0.1881289D+01 0.5442493D+00 0.1687145D+00
EXPONENTS  0.1687145D+00 0.1687145D+00 0.1687145D+00 0.8000000D+00 0.8000000D+00
EXPONENTS  0.8000000D+00 0.8000000D+00 0.8000000D+00 0.8000000D+00 0.3047525D+04
EXPONENTS  0.4573695D+03 0.1039487D+03 0.2921016D+02 0.9286663D+01 0.3163927D+01
EXPONENTS  0.7868272D+01 0.1881289D+01 0.5442493D+00 0.7868272D+01 0.1881289D+01
EXPONENTS  0.5442493D+00 0.7868272D+01 0.1881289D+01 0.5442493D+00 0.7868272D+01
EXPONENTS  0.1881289D+01 0.5442493D+00 0.1687145D+00 0.1687145D+00 0.1687145D+00
EXPONENTS  0.1687145D+00 0.8000000D+00 0.8000000D+00 0.8000000D+00 0.8000000D+00
EXPONENTS  0.8000000D+00 0.8000000D+00 0.3047525D+04 0.4573695D+03 0.1039487D+03
EXPONENTS  0.2921016D+02 0.9286663D+01 0.3163927D+01 0.7868272D+01 0.1881289D+01
EXPONENTS  0.5442493D+00 0.7868272D+01 0.1881289D+01 0.5442493D+00 0.7868272D+01
EXPONENTS  0.1881289D+01 0.5442493D+00 0.7868272D+01 0.1881289D+01 0.5442493D+00
EXPONENTS  0.1687145D+00 0.1687145D+00 0.1687145D+00 0.1687145D+00 0.8000000D+00
EXPONENTS  0.8000000D+00 0.8000000D+00 0.8000000D+00 0.8000000D+00 0.8000000D+00
EXPONENTS  0.3047525D+04 0.4573695D+03 0.1039487D+03 0.2921016D+02 0.9286663D+01
EXPONENTS  0.3163927D+01 0.7868272D+01 0.1881289D+01 0.5442493D+00 0.7868272D+01
EXPONENTS  0.1881289D+01 0.5442493D+00 0.7868272D+01 0.1881289D+01 0.5442493D+00
EXPONENTS  0.7868272D+01 0.1881289D+01 0.5442493D+00 0.1687145D+00 0.1687145D+00
EXPONENTS  0.1687145D+00 0.1687145D+00 0.8000000D+00 0.8000000D+00 0.8000000D+00
EXPONENTS  0.8000000D+00 0.8000000D+00 0.8000000D+00 0.1873114D+02 0.2825394D+01
EXPONENTS  0.6401217D+00 0.1612778D+00 0.5484672D+04 0.8252349D+03 0.1880470D+03
EXPONENTS  0.5296450D+02 0.1689757D+02 0.5799635D+01 0.1553962D+02 0.3599934D+01
EXPONENTS  0.1013762D+01 0.1553962D+02 0.3599934D+01 0.1013762D+01 0.1553962D+02
EXPONENTS  0.3599934D+01 0.1013762D+01 0.1553962D+02 0.3599934D+01 0.1013762D+01
EXPONENTS  0.2700058D+00 0.2700058D+00 0.2700058D+00 0.2700058D+00 0.8000000D+00
EXPONENTS  0.8000000D+00 0.8000000D+00 0.8000000D+00 0.8000000D+00 0.8000000D+00
EXPONENTS  0.5484672D+04 0.8252349D+03 0.1880470D+03 0.5296450D+02 0.1689757D+02
EXPONENTS  0.5799635D+01 0.1553962D+02 0.3599934D+01 0.1013762D+01 0.1553962D+02
EXPONENTS  0.3599934D+01 0.1013762D+01 0.1553962D+02 0.3599934D+01 0.1013762D+01
EXPONENTS  0.1553962D+02 0.3599934D+01 0.1013762D+01 0.2700058D+00 0.2700058D+00
EXPONENTS  0.2700058D+00 0.2700058D+00 0.8000000D+00 0.8000000D+00 0.8000000D+00
EXPONENTS  0.8000000D+00 0.8000000D+00 0.8000000D+00 0.1873114D+02 0.2825394D+01
EXPONENTS  0.6401217D+00 0.1612778D+00 0.3047525D+04 0.4573695D+03 0.1039487D+03
EXPONENTS  0.2921016D+02 0.9286663D+01 0.3163927D+01 0.7868272D+01 0.1881289D+01
EXPONENTS  0.5442493D+00 0.7868272D+01 0.1881289D+01 0.5442493D+00 0.7868272D+01
EXPONENTS  0.1881289D+01 0.5442493D+00 0.7868272D+01 0.1881289D+01 0.5442493D+00
EXPONENTS  0.1687145D+00 0.1687145D+00 0.1687145D+00 0.1687145D+00 0.8000000D+00
EXPONENTS  0.8000000D+00 0.8000000D+00 0.8000000D+00 0.8000000D+00 0.8000000D+00
EXPONENTS  0.1873114D+02 0.2825394D+01 0.6401217D+00 0.1612778D+00 0.1873114D+02
EXPONENTS  0.2825394D+01 0.6401217D+00 0.1612778D+00 0.1873114D+02 0.2825394D+01
EXPONENTS  0.6401217D+00 0.1612778D+00 0.1873114D+02 0.2825394D+01 0.6401217D+00
EXPONENTS  0.1612778D+00 0.3047525D+04 0.4573695D+03 0.1039487D+03 0.2921016D+02
EXPONENTS  0.9286663D+01 0.3163927D+01 0.7868272D+01 0.1881289D+01 0.5442493D+00
EXPONENTS  0.7868272D+01 0.1881289D+01 0.5442493D+00 0.7868272D+01 0.1881289D+01
EXPONENTS  0.5442493D+00 0.7868272D+01 0.1881289D+01 0.5442493D+00 0.1687145D+00
EXPONENTS  0.1687145D+00 0.1687145D+00 0.1687145D+00 0.8000000D+00 0.8000000D+00
EXPONENTS  0.8000000D+00 0.8000000D+00 0.8000000D+00 0.8000000D+00 0.1873114D+02
EXPONENTS  0.2825394D+01 0.6401217D+00 0.1612778D+00 0.1873114D+02 0.2825394D+01
EXPONENTS  0.6401217D+00 0.1612778D+00 0.1873114D+02 0.2825394D+01 0.6401217D+00
EXPONENTS  0.1612778D+00
MO    1     MO 0.0        OCC NO =    1.0000000  ORB. ENERGY =  -19.184350
  0.72013391D-05  0.13285064D-04  0.21446213D-04  0.27916597D-04  0.23821283D-04
  0.82249166D-05 -0.31599713D-04 -0.14564279D-04  0.40839758D-04 -0.20316351D-04
 -0.15577289D-04 -0.77741591D-05 -0.16340936D-04 -0.12529193D-04 -0.62529456D-05
  0.63327557D-05  0.48555554D-05  0.24232624D-05 -0.27247313D-03  0.14744608D-03
  0.10012349D-04  0.84569144D-05  0.91412347D-05 -0.32235158D-04  0.31296126D-04
  0.18980709D-04 -0.18005571D-05 -0.28269569D-05 -0.24154164D-06 -0.44559716D-06
 -0.71933197D-06 -0.93635649D-06 -0.79899469D-06 -0.27587367D-06  0.82528047D-05
  0.38037102D-05 -0.10666000D-04 -0.82750590D-04 -0.63447904D-04 -0.31664951D-04
 -0.17869205D-04 -0.13700973D-04 -0.68377459D-05 -0.20438277D-05 -0.15670774D-05
 -0.78208148D-06  0.35258670D-03 -0.43322096D-04 -0.17792442D-03 -0.35317102D-05
  0.17094939D-04  0.17036435D-04  0.15517915D-04  0.77536409D-05 -0.99786888D-05
  0.38115505D-05  0.22518376D-04  0.41542007D-04  0.67061680D-04  0.87294382D-04
  0.74488454D-04  0.25719073D-04 -0.99099495D-04 -0.45674867D-04  0.12807709D-03
 -0.97846699D-05 -0.75022643D-05 -0.37441557D-05  0.41817649D-04  0.32063121D-04
  0.16001744D-04 -0.99823985D-06 -0.76538701D-06 -0.38198176D-06 -0.47082940D-03
 -0.25990281D-03  0.37256778D-03 -0.35120134D-04  0.29412293D-04 -0.23216661D-04
  0.81506404D-04 -0.71159614D-04 -0.87487867D-05  0.20350774D-04 -0.28448282D-04
 -0.52481525D-04 -0.84721453D-04 -0.11028216D-03 -0.94103966D-04 -0.32491838D-04
 -0.14532106D-04 -0.66978343D-05  0.18781426D-04 -0.60434527D-03 -0.46337362D-03
 -0.23125591D-03 -0.12656804D-03 -0.97044346D-04 -0.48431930D-04 -0.15128886D-03
 -0.11599870D-03 -0.57891483D-04  0.20292066D-03  0.73637293D-03  0.13941256D-03
  0.11558339D-03  0.10554932D-03  0.13563838D-05 -0.82846725D-04  0.89686665D-04
  0.85045810D-04  0.43899032D-04  0.99437202D-05  0.18344222D-04  0.29613262D-04
  0.38547669D-04  0.32892796D-04  0.11357092D-04 -0.81083277D-04 -0.37371208D-04
  0.10479277D-03  0.80719978D-06  0.61890959D-06  0.30887926D-06 -0.10786502D-04
 -0.82704054D-05 -0.41275119D-05 -0.50847494D-06 -0.38986633D-06 -0.19457062D-06
 -0.40445930D-03 -0.82259713D-04 -0.28818666D-03 -0.30003089D-04 -0.64535763D-04
 -0.10880940D-03  0.46730941D-04  0.50721905D-04 -0.17395946D-04 -0.43131878D-04
  0.16563493D-05  0.30556411D-05  0.49327522D-05  0.64209777D-05  0.54790319D-05
  0.18917781D-05  0.29369102D-05  0.13536192D-05 -0.37956896D-05 -0.76325671D-04
 -0.58521684D-04 -0.29206422D-04  0.10290074D-05  0.78897763D-06  0.39375513D-06
  0.36211364D-06  0.27764577D-06  0.13856470D-06  0.25484518D-03 -0.60994805D-04
  0.10232355D-03  0.15719111D-05  0.26735939D-04  0.22405880D-04  0.23538438D-04
  0.33266500D-04 -0.69171170D-05 -0.80623789D-06 -0.25522119D-05 -0.43290345D-05
 -0.49284528D-05 -0.12990735D-03  0.82556182D+00  0.15194744D+01  0.24587965D+01
  0.32321568D+01  0.27722021D+01  0.94786298D+00 -0.15818415D-01 -0.70581461D-02
  0.20842800D-01  0.90961820D-03  0.70081179D-03  0.30769412D-03  0.14388978D-02
  0.11085932D-02  0.48673213D-03  0.23136965D-02  0.17825784D-02  0.78264795D-03
  0.40521999D-02  0.25507084D-03  0.42540521D-04  0.43451480D-04 -0.94855554D-02
 -0.94102016D-02 -0.95310821D-02  0.37487400D-04  0.14313383D-03 -0.13785756D-03
 -0.38486945D-03 -0.70836524D-03 -0.11462687D-02 -0.15068023D-02 -0.12923755D-02
 -0.44188515D-03 -0.15429786D-03 -0.68847403D-04  0.20330730D-03  0.36230868D-04
  0.27913930D-04  0.12255719D-04 -0.13293487D-03 -0.10241915D-03 -0.44967524D-04
 -0.29859702D-04 -0.23005291D-04 -0.10100562D-04 -0.46968360D-03 -0.10401222D-03
  0.10284546D-03  0.99970598D-06  0.18087066D-03  0.19821630D-03  0.21072813D-03
  0.74450315D-04 -0.26124477D-05 -0.42686058D-05  0.92677368D-05  0.15719836D-04
  0.17896477D-04  0.47385588D-04 -0.21773587D-05 -0.40168017D-05 -0.64843633D-05
 -0.84407144D-05 -0.72024769D-05 -0.24868422D-05 -0.96771799D-04 -0.44602034D-04
  0.12506876D-03  0.25403273D-03  0.19477618D-03  0.97206967D-04 -0.22033392D-03
 -0.16893808D-03 -0.84311941D-04 -0.48857257D-03 -0.37460646D-03 -0.18695488D-03
 -0.27515581D-03 -0.13986043D-04  0.65222744D-04  0.14215418D-03  0.52768938D-04
  0.69082787D-05  0.19338495D-03 -0.17077659D-03 -0.27940810D-03  0.19916754D-03
 -0.24251905D-05 -0.41135821D-05 -0.46831679D-05 -0.31601982D-04  0.29310540D-04
  0.49716223D-04  0.56600162D-04  0.48995064D-04  0.64445230D-05  0.10931131D-04
  0.12444706D-04 -0.23035876D-04  0.58865866D-05  0.99847651D-05  0.11367302D-04
  0.25234819D-04  0.17134806D-05  0.31610371D-05  0.51028940D-05  0.66424518D-05
  0.56680161D-05  0.19570298D-05 -0.67317565D-05 -0.31026604D-05  0.87001836D-05
  0.98196299D-05  0.75290694D-05  0.37575333D-05  0.19584902D-05  0.15016461D-05
  0.74942663D-06 -0.46427608D-06 -0.35597745D-06 -0.17765770D-06 -0.63398456D-04
  0.20141748D-04  0.55639380D-05  0.41585386D-05 -0.82038335D-06  0.62312059D-06
  0.79738279D-05 -0.47875525D-05 -0.46467676D-05 -0.27421611D-06  0.13327496D-05
  0.22605956D-05  0.25736082D-05  0.10969586D-05  0.78752741D-06  0.13357955D-05
  0.15207560D-05 -0.28785568D-06  0.20243857D-05  0.34337413D-05  0.39091931D-05
  0.31339728D-06
MO    2     MO 0.0        OCC NO =    1.0000000  ORB. ENERGY =  -19.180805
 -0.63552419D-05 -0.11724180D-04 -0.18926462D-04 -0.24636631D-04 -0.21022481D-04
 -0.72585577D-05  0.36775377D-04  0.16949738D-04 -0.47528834D-04 -0.55130247D-04
 -0.42270377D-04 -0.21095881D-04  0.45884465D-04  0.35181297D-04  0.17557933D-04
 -0.32023480D-05 -0.24553573D-05 -0.12253954D-05  0.40937600D-03 -0.16211210D-03
  0.11358095D-03 -0.93096071D-05  0.24328872D-04  0.44959945D-04 -0.13391170D-04
 -0.81311309D-04  0.32146547D-05  0.12568952D-05  0.15545585D-04  0.28678568D-04
  0.46296101D-04  0.60263768D-04  0.51423182D-04  0.17755189D-04 -0.97207914D-04
 -0.44803039D-04  0.12563240D-03  0.98650201D-04  0.75638717D-04  0.37749021D-04
 -0.29209692D-04 -0.22396139D-04 -0.11177243D-04  0.15275625D-04  0.11712380D-04
  0.58452986D-05 -0.72152194D-03  0.49242875D-04  0.34339562D-03  0.80249730D-05
 -0.88665213D-04 -0.64935780D-04  0.60635716D-04  0.57717636D-04 -0.19678926D-04
  0.23689413D-05 -0.28502391D-04 -0.52581347D-04 -0.84882597D-04 -0.11049192D-03
 -0.94282956D-04 -0.32553639D-04 -0.59515494D-04 -0.27430637D-04  0.76918368D-04
 -0.40212866D-03 -0.30832675D-03 -0.15387666D-03  0.37546281D-03  0.28788107D-03
  0.14367283D-03 -0.51700184D-04 -0.39640422D-04 -0.19783349D-04  0.97165270D-05
  0.60943484D-03 -0.50420750D-03  0.50644480D-04 -0.33998376D-04 -0.10165599D-03
 -0.10864255D-03 -0.90260966D-05  0.15758317D-04  0.46696932D-05  0.54053768D-05
  0.99718647D-05  0.16097681D-04  0.20954398D-04  0.17880426D-04  0.61736814D-05
 -0.43281137D-04 -0.19948237D-04  0.55936938D-04 -0.75702812D-05 -0.58044115D-05
 -0.28968081D-05 -0.53302765D-05 -0.40869180D-05 -0.20396585D-05 -0.47031225D-04
 -0.36060560D-04 -0.17996747D-04 -0.14590263D-03 -0.41902320D-03 -0.14117255D-04
 -0.25227093D-04  0.32066986D-04 -0.62628384D-04  0.89259302D-05  0.27039518D-04
  0.14588315D-04  0.20074450D-04  0.38304998D-05  0.70665241D-05  0.11407561D-04
  0.14849255D-04  0.12670896D-04  0.43749559D-05 -0.54854584D-05 -0.25282428D-05
  0.70894567D-05 -0.38010957D-04 -0.29144391D-04 -0.14545093D-04  0.84306644D-04
  0.64640987D-04  0.32260383D-04  0.97419439D-05  0.74695047D-05  0.37278063D-05
  0.31123508D-03  0.95728857D-04  0.98908671D-04  0.41274481D-05  0.32439493D-04
  0.19176641D-04  0.31056145D-04 -0.17744794D-05  0.41364361D-05 -0.86944556D-05
  0.61363529D-05  0.11320373D-04  0.18274592D-04  0.23788089D-04  0.20298419D-04
  0.70085564D-05 -0.24485798D-04 -0.11285482D-04  0.31645670D-04 -0.18023597D-04
 -0.13819351D-04 -0.68968245D-05  0.10249441D-04  0.78586211D-05  0.39220027D-05
 -0.17853335D-05 -0.13688805D-05 -0.68316730D-06 -0.20092027D-03  0.12171439D-03
 -0.49078994D-04  0.99253235D-05 -0.11853232D-04  0.38819122D-05  0.26399183D-04
 -0.31108563D-04 -0.11433756D-04 -0.54844685D-05  0.54539955D-05  0.92510086D-05
  0.10531946D-04  0.25446522D-04  0.48098682D-03  0.88527251D-03  0.14325380D-02
  0.18831113D-02  0.16151336D-02  0.55224162D-03 -0.14602872D-03 -0.65157732D-04
  0.19241166D-03  0.10412472D-03  0.80222482D-04  0.35221991D-04  0.10279000D-03
  0.79194156D-04  0.34770500D-04 -0.26762780D-04 -0.20619279D-04 -0.90529741D-05
 -0.39174837D-03 -0.18901215D-03 -0.10185047D-04  0.21385051D-04  0.10863119D-03
  0.20788595D-03  0.19131161D-03 -0.46276457D-04 -0.27559216D-04  0.17940502D-04
  0.82561896D+00  0.15195796D+01  0.24589667D+01  0.32323805D+01  0.27723940D+01
  0.94792859D+00 -0.15789232D-01 -0.70451247D-02  0.20804348D-01  0.32819575D-02
  0.25285713D-02  0.11101790D-02  0.66689342D-03  0.51380543D-03  0.22558826D-03
  0.26367136D-03  0.20314457D-03  0.89191409D-04  0.39210356D-02  0.16239764D-03
 -0.35751941D-03  0.23958458D-04 -0.92968973D-02 -0.92145215D-02 -0.92374446D-02
 -0.15582354D-03 -0.24705135D-04 -0.32161085D-04 -0.20260748D-04 -0.34366063D-04
 -0.39124548D-04 -0.68713399D-04  0.24737303D-04  0.45635494D-04  0.73669837D-04
  0.95896238D-04  0.81828433D-04  0.28253392D-04 -0.47724198D-04 -0.21996039D-04
  0.61679190D-04  0.93227698D-04  0.71481086D-04  0.35674072D-04  0.13516194D-03
  0.10363360D-03  0.51720431D-04 -0.12437270D-04 -0.95361098D-05 -0.47591871D-05
 -0.15476771D-03 -0.79123535D-04 -0.22920594D-04  0.14332516D-04  0.11712669D-03
  0.15038853D-03  0.66753600D-04  0.38739825D-04  0.75216395D-04 -0.48808525D-04
  0.14365077D-04  0.24365889D-04  0.27739704D-04  0.35519529D-04 -0.63034493D-05
 -0.10691843D-04 -0.12172285D-04 -0.21145712D-04  0.92869519D-04  0.15752428D-03
  0.17933583D-03 -0.18242874D-03 -0.63247786D-05 -0.10728022D-04 -0.12213473D-04
 -0.32933646D-04  0.39953880D-05  0.73707107D-05  0.11898612D-04  0.15488458D-04
  0.13216329D-04  0.45632809D-05 -0.13898995D-04 -0.64060343D-05  0.17963189D-04
 -0.63176177D-05 -0.48439485D-05 -0.24174698D-05 -0.10584672D-05 -0.81156548D-06
 -0.40502806D-06  0.75320782D-06  0.57751198D-06  0.28821895D-06  0.25325173D-05
  0.93532420D-05 -0.27775228D-04 -0.15311208D-05 -0.12290270D-04  0.31438470D-04
  0.73977223D-05  0.31433848D-04 -0.29162945D-05  0.10490918D-04  0.34614225D-05
  0.58712277D-05  0.66841852D-05  0.52671415D-05  0.26116942D-05  0.44299277D-05
  0.50433161D-05  0.61348112D-05 -0.90945220D-06 -0.15426031D-05 -0.17561991D-05
 -0.12227986D-04
MO    3     MO 0.0        OCC NO =    1.0000000  ORB. ENERGY =  -10.251810
  0.43288688D-04  0.79859177D-04  0.12891747D-03  0.16781225D-03  0.14319449D-03
  0.49441617D-04 -0.11762577D-03 -0.54213609D-04  0.15202062D-03  0.69342967D-04
  0.53167789D-04  0.26534453D-04 -0.62836590D-04 -0.48179112D-04 -0.24044753D-04
  0.88405425D-05  0.67783672D-05  0.33828803D-05 -0.15403687D-02  0.72225775D-03
 -0.11749144D-03  0.53641867D-04  0.82394185D-05  0.27750111D-04  0.66171102D-04
  0.77757790D-05 -0.93887710D-05 -0.79190028D-05  0.21873688D-02  0.40352683D-02
  0.65141743D-02  0.84795193D-02  0.72355892D-02  0.24982751D-02  0.29434920D-03
  0.13566528D-03 -0.38041960D-03  0.32989267D-03  0.25294077D-03  0.12623517D-03
  0.17190927D-03  0.13180913D-03  0.65781991D-04  0.25588537D-04  0.19619667D-04
  0.97915888D-05  0.27879649D-02 -0.57751997D-03 -0.11667956D-02 -0.70509622D-04
 -0.44834620D-03 -0.25742165D-03 -0.38087458D-03  0.18036451D-03 -0.17007714D-04
  0.25524531D-04  0.53246979D+00  0.98230278D+00  0.15857413D+01  0.20641640D+01
  0.17613548D+01  0.60815350D+00 -0.19826664D-01 -0.91380915D-02  0.25624162D-01
 -0.74011233D-03 -0.56747119D-03 -0.28320790D-03  0.79631504D-03  0.61056386D-03
  0.30471416D-03 -0.12897656D-04 -0.98891046D-05 -0.49353563D-05 -0.41442282D-02
 -0.12827257D-02  0.16231593D-02 -0.97274794D-04 -0.96797722D-02 -0.96005474D-02
 -0.10368797D-01 -0.76728642D-03  0.12677312D-03 -0.60767496D-04  0.10493646D-01
  0.19358728D-01  0.31250989D-01  0.40679502D-01  0.34711893D-01  0.11985182D-01
 -0.50295944D-04 -0.23181355D-04  0.65002938D-04 -0.22896265D-03 -0.17555403D-03
 -0.87613767D-04 -0.29023283D-03 -0.22253213D-03 -0.11105913D-03  0.37765109D-04
  0.28955890D-04  0.14451019D-04  0.23319900D-02  0.14247491D-02  0.55575451D-03
  0.12756614D-03 -0.57292709D-03 -0.75411830D-03 -0.52251681D-03  0.53353941D-04
 -0.59492221D-04 -0.22627507D-04  0.65403324D-04  0.12065636D-03  0.19477678D-03
  0.25354149D-03  0.21634742D-03  0.74699564D-04 -0.62120761D-04 -0.28631402D-04
  0.80285440D-04  0.11186384D-03  0.85770099D-04  0.42805291D-04 -0.16269299D-03
 -0.12474266D-03 -0.62255331D-04 -0.26817647D-06 -0.20562071D-06 -0.10261914D-06
 -0.14676146D-02 -0.42524845D-03 -0.60877750D-03 -0.49029885D-04  0.46466026D-04
  0.62686549D-04  0.23655144D-04 -0.10912448D-03 -0.67828056D-05 -0.33252608D-05
 -0.65233428D-04 -0.12034294D-03 -0.19427081D-03 -0.25288288D-03 -0.21578542D-03
 -0.74505519D-04  0.14506338D-03  0.66859578D-04 -0.18748124D-03  0.19574148D-04
  0.15008215D-04  0.74901512D-05 -0.34953988D-04 -0.26800501D-04 -0.13375328D-04
  0.36228486D-05  0.27777705D-05  0.13863022D-05  0.12514695D-02 -0.48870395D-03
  0.38465393D-03 -0.27260979D-04  0.23179315D-04 -0.19273554D-04 -0.13564388D-03
  0.57436810D-04  0.28191567D-04  0.14610476D-04 -0.33561140D-04 -0.56926045D-04
 -0.64808291D-04 -0.16966144D-03 -0.87096727D-04 -0.16030447D-03 -0.25940290D-03
 -0.34099237D-03 -0.29246717D-03 -0.99999493D-04  0.31773788D-03  0.14177402D-03
 -0.41866059D-03 -0.16897786D-03 -0.13018833D-03 -0.57159691D-04  0.64209691D-04
  0.49470105D-04  0.21720041D-04  0.71507096D-04  0.55092363D-04  0.24188515D-04
  0.96383554D-03  0.34976656D-03 -0.45719612D-04 -0.25172550D-04 -0.20930084D-03
 -0.30942636D-03 -0.35788895D-03  0.60185031D-04  0.11906780D-03 -0.49425098D-04
  0.14019132D-03  0.25802686D-03  0.41753616D-03  0.54886298D-03  0.47075658D-03
  0.16095967D-03 -0.75610433D-03 -0.33737228D-03  0.99626486D-03 -0.63853310D-04
 -0.49195533D-04 -0.21599489D-04 -0.32887370D-04 -0.25337946D-04 -0.11124723D-04
  0.31228812D-04  0.24060116D-04  0.10563687D-04 -0.18921670D-02 -0.54860464D-03
  0.66112563D-03 -0.59023200D-04  0.35153123D-03  0.77873967D-04  0.10362463D-02
  0.12510309D-02 -0.11825938D-03  0.12369970D-03  0.41434094D-04  0.70280066D-04
  0.80011371D-04  0.37758799D-03 -0.32107365D-04 -0.59231819D-04 -0.95618522D-04
 -0.12446690D-03 -0.10620784D-03 -0.36671013D-04  0.36206718D-04  0.16687643D-04
 -0.46793894D-04 -0.69012677D-04 -0.52914543D-04 -0.26408066D-04 -0.19148127D-04
 -0.14681569D-04 -0.73271319D-05 -0.36293650D-04 -0.27827669D-04 -0.13887957D-04
  0.10038492D-03  0.95950062D-04 -0.11839110D-04 -0.21528868D-04  0.31078257D-05
 -0.72012719D-04  0.33837245D-04 -0.87558420D-04 -0.77809324D-04  0.48627689D-04
 -0.20177997D-04 -0.34225702D-04 -0.38964752D-04  0.88276754D-05  0.52051498D-05
  0.88289193D-05  0.10051413D-04  0.43082820D-04  0.42574407D-04  0.72214253D-04
  0.82213374D-04 -0.73467053D-04  0.22826367D-04  0.38717839D-04  0.44078891D-04
  0.16578681D-03 -0.25356529D-04 -0.46777845D-04 -0.75513947D-04 -0.98296721D-04
 -0.83876770D-04 -0.28960633D-04  0.52888826D-04  0.24376411D-04 -0.68354002D-04
  0.65511796D-04  0.50230290D-04  0.25068435D-04 -0.49328721D-05 -0.37822135D-05
 -0.18875896D-05  0.90268963D-06  0.69212515D-06  0.34541896D-06 -0.98662563D-04
  0.51173118D-05  0.73629460D-04  0.88132360D-05  0.80600885D-05 -0.91443948D-04
 -0.49062487D-04 -0.68069959D-04  0.81906085D-05 -0.20801589D-04 -0.80840551D-05
 -0.13712087D-04 -0.15610727D-04 -0.17449658D-04 -0.74540187D-05 -0.12643427D-04
 -0.14394094D-04 -0.20184845D-04  0.26779916D-05  0.45423807D-05  0.51713399D-05
  0.34502310D-04
MO    4     MO 0.0        OCC NO =    1.0000000  ORB. ENERGY =  -10.239220
 -0.78705034D-04 -0.14519542D-03 -0.23439043D-03 -0.30510669D-03 -0.26034809D-03
 -0.89891940D-04  0.13668263D-03  0.62996901D-04 -0.17664989D-03  0.10572118D-03
  0.81060292D-04  0.40454767D-04  0.22945203D-04  0.17592926D-04  0.87801030D-05
 -0.17213820D-05 -0.13198465D-05 -0.65869592D-06  0.11173528D-02 -0.65597440D-03
 -0.56351812D-05 -0.50836020D-04 -0.16356153D-04  0.49483416D-04 -0.12247850D-03
 -0.44860660D-04  0.16709175D-04  0.22844214D-07 -0.33792819D-04 -0.62341153D-04
 -0.10063795D-03 -0.13100071D-03 -0.11178314D-03 -0.38596033D-04 -0.65655752D-04
 -0.30260676D-04  0.84854094D-04  0.11568898D-03  0.88702968D-04  0.44268998D-04
  0.21544444D-04  0.16518913D-04  0.82440955D-05 -0.41315364D-05 -0.31678000D-05
 -0.15809542D-05 -0.13326666D-02  0.15462206D-03  0.68153072D-03  0.29425518D-04
  0.11220596D-03  0.23208042D-04  0.40547996D-04  0.34023128D-04  0.16661945D-04
 -0.10622792D-04 -0.10798821D-01 -0.19921715D-01 -0.32159826D-01 -0.41862537D-01
 -0.35721379D-01 -0.12333734D-01  0.75696268D-03  0.34888341D-03 -0.97830549D-03
  0.12314380D-03  0.94418856D-04  0.47121626D-04  0.32087227D-03  0.24602451D-03
  0.12278347D-03  0.46256174D-04  0.35466300D-04  0.17700170D-04  0.25215651D-02
  0.45960350D-03 -0.12553052D-02  0.32800768D-04 -0.25954153D-03 -0.29114301D-03
 -0.12845009D-03 -0.11992023D-03 -0.36600530D-04 -0.39545924D-04  0.53246430D+00
  0.98229266D+00  0.15857249D+01  0.20641427D+01  0.17613367D+01  0.60814724D+00
 -0.19849955D-01 -0.91488262D-02  0.25654264D-01 -0.12355450D-02 -0.94733750D-03
 -0.47278781D-03  0.11849893D-04  0.90857462D-05  0.45344241D-05 -0.79582238D-04
 -0.61018613D-04 -0.30452564D-04 -0.39651488D-02 -0.15410920D-02 -0.56236369D-03
 -0.20379243D-03 -0.93327305D-02 -0.99236493D-02 -0.10314018D-01  0.17116817D-03
  0.25647754D-03  0.46964627D-04  0.28681909D-02  0.52912521D-02  0.85417216D-02
  0.11118783D-01  0.94876781D-02  0.32758672D-02  0.19629418D-03  0.90471807D-04
 -0.25369239D-03  0.16565671D-03  0.12701506D-03  0.63389416D-04 -0.33988214D-03
 -0.26060007D-03 -0.13005770D-03 -0.16754537D-04 -0.12846316D-04 -0.64112121D-05
  0.20750105D-02  0.33228751D-03  0.96434201D-03  0.82073926D-04 -0.50218381D-03
 -0.28882450D-03 -0.33517124D-03  0.22635315D-03 -0.41161248D-04  0.71786263D-04
  0.35032027D-04  0.64627249D-04  0.10432842D-03  0.13580460D-03  0.11588231D-03
  0.40011378D-04 -0.71315063D-04 -0.32869047D-04  0.92168239D-04  0.10986415D-03
  0.84236864D-04  0.42040099D-04 -0.22022521D-04 -0.16885472D-04 -0.84270340D-05
  0.66506747D-05  0.50993155D-05  0.25449158D-05 -0.12921751D-02  0.42841005D-03
 -0.39991247D-03  0.13362329D-04  0.88683046D-04  0.14038895D-04  0.44555069D-04
 -0.37386941D-04  0.22199618D-04 -0.35598525D-05  0.35154207D-04  0.59628189D-04
  0.67884586D-04  0.29443012D-03  0.11742671D-03  0.21612783D-03  0.34973562D-03
  0.45973726D-03  0.39431398D-03  0.13482265D-03 -0.66234179D-03 -0.29553562D-03
  0.87272063D-03  0.23054627D-03  0.17762347D-03  0.77986271D-04 -0.70579340D-04
 -0.54377576D-04 -0.23874685D-04  0.20991203D-03  0.16172590D-03  0.71006381D-04
 -0.15127371D-02 -0.77199794D-03 -0.82794069D-04 -0.22368343D-03 -0.39182078D-03
  0.78544658D-03  0.77096292D-03 -0.34823797D-03 -0.40569218D-03 -0.22084453D-03
 -0.65747527D-04 -0.12101055D-03 -0.19581791D-03 -0.25740812D-03 -0.22077745D-03
 -0.75487559D-04  0.27644771D-03  0.12335043D-03 -0.36425547D-03 -0.11790024D-03
 -0.90835782D-04 -0.39881801D-04  0.85432790D-04  0.65821359D-04  0.28899122D-04
  0.72802675D-04  0.56090536D-04  0.24626767D-04  0.76044311D-03  0.20459658D-03
 -0.14493273D-03 -0.23374452D-05 -0.16147918D-03 -0.14072448D-03 -0.28797766D-03
 -0.11808957D-03  0.43114052D-04  0.21120882D-04 -0.31417105D-04 -0.53289356D-04
 -0.60668048D-04 -0.17962430D-03 -0.44750387D-04 -0.82555726D-04 -0.13327054D-03
 -0.17347864D-03 -0.14802964D-03 -0.51111078D-04  0.70087945D-04  0.32303470D-04
 -0.90582302D-04 -0.75152838D-04 -0.57622430D-04 -0.28757631D-04 -0.61611048D-04
 -0.47239443D-04 -0.23575793D-04 -0.11656194D-03 -0.89372299D-04 -0.44603041D-04
  0.31295435D-04  0.22192440D-03  0.47237537D-04  0.99426700D-04  0.18463436D-03
 -0.68223565D-04  0.13359045D-04 -0.91317665D-04 -0.98722153D-04 -0.38366349D-04
 -0.61999395D-04 -0.10516271D-03 -0.11972403D-03 -0.69724352D-04  0.29428675D-04
  0.49916603D-04  0.56828288D-04  0.14105386D-03 -0.16814900D-04 -0.28521253D-04
 -0.32470438D-04  0.70920082D-04 -0.19943691D-04 -0.33828274D-04 -0.38512294D-04
 -0.12832047D-03 -0.62880631D-06 -0.11600249D-05 -0.18726398D-05 -0.24376206D-05
 -0.20800261D-05 -0.71818302D-06  0.14301598D-04  0.65915935D-05 -0.18483516D-04
 -0.71564000D-04 -0.54870736D-04 -0.27384343D-04 -0.18597366D-04 -0.14259281D-04
 -0.71163805D-05 -0.50233274D-05 -0.38515688D-05 -0.19222028D-05  0.26537471D-03
 -0.74565461D-04 -0.27144882D-04 -0.11277236D-04  0.76845426D-05  0.13852936D-04
 -0.45119279D-06  0.20782850D-04  0.62811018D-05  0.15769640D-05 -0.51235303D-05
 -0.86904771D-05 -0.98938010D-05 -0.12662855D-06 -0.37336003D-05 -0.63328928D-05