Title Card Required                                                     
SP        UB3LYP                                                      6-311G(d,p)         
Number of atoms                            I               19
Info1-9                                    I   N=           9
          49          48           0           0           0         110
           1          18        -502
Full Title                                 C   N=           2
Title Card Required     
Route                                      C   N=           5
# ub3lyp/6-311g(d,p) geom=connectivity temperature=823.15   
Charge                                     I                0
Multiplicity                               I                2
Number of electrons                        I               73
Number of alpha electrons                  I               37
Number of beta electrons                   I               36
Number of basis functions                  I              234
Number of independent functions            I              234
Number of point charges in /Mol/           I                0
Number of translation vectors              I                0
Atomic numbers                             I   N=          19
           6           6           6           6           6           6
           1           8           8           1           6           1
           1           1           1           6           1           1
           1
Nuclear charges                            R   N=          19
  6.00000000E+00  6.00000000E+00  6.00000000E+00  6.00000000E+00  6.00000000E+00
  6.00000000E+00  1.00000000E+00  8.00000000E+00  8.00000000E+00  1.00000000E+00
  6.00000000E+00  1.00000000E+00  1.00000000E+00  1.00000000E+00  1.00000000E+00
  6.00000000E+00  1.00000000E+00  1.00000000E+00  1.00000000E+00
Current cartesian coordinates              R   N=          57
  3.61213968E+00 -1.03885804E-01  9.96679353E-02  1.94027063E+00  1.94321860E+00
  1.11682814E-02 -6.59758192E-01  1.60274854E+00 -2.25729675E-01 -1.63033854E+00
 -8.66439428E-01 -3.54701594E-01  1.49269467E-02 -2.90527061E+00 -2.76723935E-01
  2.61473467E+00 -2.53772077E+00 -5.99572305E-02 -7.82684877E-01 -4.78635880E+00
 -4.08583355E-01 -4.17449761E+00 -1.32746079E+00 -7.02333722E-01 -2.31850687E+00
  3.56835661E+00 -3.66778833E-01  2.67602794E+00  3.86034953E+00  1.07175817E-01
 -5.81601198E+00 -4.99479181E-01  1.11802623E+00 -5.09523453E+00 -2.01592204E-01
  3.00968743E+00 -7.75297181E+00 -1.00991121E+00  7.33272318E-01 -1.38910933E+00
  5.13030407E+00 -2.82954362E-01  3.86452772E+00 -4.15999207E+00 -6.61026198E-03
  6.41748724E+00  3.41970509E-01  3.67787947E-01  7.11824304E+00  1.63625149E+00
 -1.08435887E+00  6.87306431E+00  1.17613530E+00  2.20563353E+00  7.47145931E+00
 -1.42320566E+00  2.02404786E-01
Number of symbols in /Mol/                 I                0
Force Field                                I                0
Atom Types                                 C   N=          19
                                                            
                                                            
                                                            
                                                
Int Atom Types                             I   N=          19
           0           0           0           0           0           0
           0           0           0           0           0           0
           0           0           0           0           0           0
           0
MM charges                                 R   N=          19
  0.00000000E+00  0.00000000E+00  0.00000000E+00  0.00000000E+00  0.00000000E+00
  0.00000000E+00  0.00000000E+00  0.00000000E+00  0.00000000E+00  0.00000000E+00
  0.00000000E+00  0.00000000E+00  0.00000000E+00  0.00000000E+00  0.00000000E+00
  0.00000000E+00  0.00000000E+00  0.00000000E+00  0.00000000E+00
Integer atomic weights                     I   N=          19
          12          12          12          12          12          12
           1          16          16           1          12           1
           1           1           1          12           1           1
           1
Real atomic weights                        R   N=          19
  1.20000000E+01  1.20000000E+01  1.20000000E+01  1.20000000E+01  1.20000000E+01
  1.20000000E+01  1.00782504E+00  1.59949146E+01  1.59949146E+01  1.00782504E+00
  1.20000000E+01  1.00782504E+00  1.00782504E+00  1.00782504E+00  1.00782504E+00
  1.20000000E+01  1.00782504E+00  1.00782504E+00  1.00782504E+00
Atom fragment info                         I   N=          19
           0           0           0           0           0           0
           0           0           0           0           0           0
           0           0           0           0           0           0
           0
Atom residue num                           I   N=          19
           0           0           0           0           0           0
           0           0           0           0           0           0
           0           0           0           0           0           0
           0
Nuclear spins                              I   N=          19
           0           0           0           0           0           0
           1           0           0           1           0           1
           1           1           1           0           1           1
           1
Nuclear ZEff                               R   N=          19
 -3.60000000E+00 -3.60000000E+00 -3.60000000E+00 -3.60000000E+00 -3.60000000E+00
 -3.60000000E+00 -1.00000000E+00 -5.60000000E+00 -5.60000000E+00 -1.00000000E+00
 -3.60000000E+00 -1.00000000E+00 -1.00000000E+00 -1.00000000E+00 -1.00000000E+00
 -3.60000000E+00 -1.00000000E+00 -1.00000000E+00 -1.00000000E+00
Nuclear ZNuc                               R   N=          19
  6.00000000E+00  6.00000000E+00  6.00000000E+00  6.00000000E+00  6.00000000E+00
  6.00000000E+00  1.00000000E+00  8.00000000E+00  8.00000000E+00  1.00000000E+00
  6.00000000E+00  1.00000000E+00  1.00000000E+00  1.00000000E+00  1.00000000E+00
  6.00000000E+00  1.00000000E+00  1.00000000E+00  1.00000000E+00
Nuclear QMom                               R   N=          19
  0.00000000E+00  0.00000000E+00  0.00000000E+00  0.00000000E+00  0.00000000E+00
  0.00000000E+00  0.00000000E+00  0.00000000E+00  0.00000000E+00  0.00000000E+00
  0.00000000E+00  0.00000000E+00  0.00000000E+00  0.00000000E+00  0.00000000E+00
  0.00000000E+00  0.00000000E+00  0.00000000E+00  0.00000000E+00
Nuclear GFac                               R   N=          19
  0.00000000E+00  0.00000000E+00  0.00000000E+00  0.00000000E+00  0.00000000E+00
  0.00000000E+00  2.79284600E+00  0.00000000E+00  0.00000000E+00  2.79284600E+00
  0.00000000E+00  2.79284600E+00  2.79284600E+00  2.79284600E+00  2.79284600E+00
  0.00000000E+00  2.79284600E+00  2.79284600E+00  2.79284600E+00
MicOpt                                     I   N=          19
          -1          -1          -1          -1          -1          -1
          -1          -1          -1          -1          -1          -1
          -1          -1          -1          -1          -1          -1
          -1
Number of residues                         I                0
Number of secondary structures             I                0
SymInf integers                            I   N=          26
           1           1           1           1           1           0
           0           0           0           0           0           0
           0           0           0           0           0           0
           0           0           0           0           0           0
           0           0
RotTr to input orientation                 R   N=          12
  1.00000000E+00 -2.26995557E-08  0.00000000E+00  2.26995557E-08  1.00000000E+00
  0.00000000E+00  0.00000000E+00  0.00000000E+00  1.00000000E+00 -1.55319956E-07
 -2.58866593E-08 -7.76599777E-08
Number of contracted shells                I               86
Number of primitive shells                 I              174
Pure/Cartesian d shells                    I                0
Pure/Cartesian f shells                    I                0
Highest angular momentum                   I                2
Largest degree of contraction              I                6
Shell types                                I   N=          86
           0          -1          -1          -1          -2           0
          -1          -1          -1          -2           0          -1
          -1          -1          -2           0          -1          -1
          -1          -2           0          -1          -1          -1
          -2           0          -1          -1          -1          -2
           0           0           0           1           0          -1
          -1          -1          -2           0          -1          -1
          -1          -2           0           0           0           1
           0          -1          -1          -1          -2           0
           0           0           1           0           0           0
           1           0           0           0           1           0
           0           0           1           0          -1          -1
          -1          -2           0           0           0           1
           0           0           0           1           0           0
           0           1
Number of primitives per shell             I   N=          86
           6           3           1           1           1           6
           3           1           1           1           6           3
           1           1           1           6           3           1
           1           1           6           3           1           1
           1           6           3           1           1           1
           3           1           1           1           6           3
           1           1           1           6           3           1
           1           1           3           1           1           1
           6           3           1           1           1           3
           1           1           1           3           1           1
           1           3           1           1           1           3
           1           1           1           6           3           1
           1           1           3           1           1           1
           3           1           1           1           3           1
           1           1
Shell to atom map                          I   N=          86
           1           1           1           1           1           2
           2           2           2           2           3           3
           3           3           3           4           4           4
           4           4           5           5           5           5
           5           6           6           6           6           6
           7           7           7           7           8           8
           8           8           8           9           9           9
           9           9          10          10          10          10
          11          11          11          11          11          12
          12          12          12          13          13          13
          13          14          14          14          14          15
          15          15          15          16          16          16
          16          16          17          17          17          17
          18          18          18          18          19          19
          19          19
Primitive exponents                        R   N=         174
  4.56324000E+03  6.82024000E+02  1.54973000E+02  4.44553000E+01  1.30290000E+01
  1.82773000E+00  2.09642000E+01  4.80331000E+00  1.45933000E+00  4.83456000E-01
  1.45585000E-01  6.26000000E-01  4.56324000E+03  6.82024000E+02  1.54973000E+02
  4.44553000E+01  1.30290000E+01  1.82773000E+00  2.09642000E+01  4.80331000E+00
  1.45933000E+00  4.83456000E-01  1.45585000E-01  6.26000000E-01  4.56324000E+03
  6.82024000E+02  1.54973000E+02  4.44553000E+01  1.30290000E+01  1.82773000E+00
  2.09642000E+01  4.80331000E+00  1.45933000E+00  4.83456000E-01  1.45585000E-01
  6.26000000E-01  4.56324000E+03  6.82024000E+02  1.54973000E+02  4.44553000E+01
  1.30290000E+01  1.82773000E+00  2.09642000E+01  4.80331000E+00  1.45933000E+00
  4.83456000E-01  1.45585000E-01  6.26000000E-01  4.56324000E+03  6.82024000E+02
  1.54973000E+02  4.44553000E+01  1.30290000E+01  1.82773000E+00  2.09642000E+01
  4.80331000E+00  1.45933000E+00  4.83456000E-01  1.45585000E-01  6.26000000E-01
  4.56324000E+03  6.82024000E+02  1.54973000E+02  4.44553000E+01  1.30290000E+01
  1.82773000E+00  2.09642000E+01  4.80331000E+00  1.45933000E+00  4.83456000E-01
  1.45585000E-01  6.26000000E-01  3.38650000E+01  5.09479000E+00  1.15879000E+00
  3.25840000E-01  1.02741000E-01  7.50000000E-01  8.58850000E+03  1.29723000E+03
  2.99296000E+02  8.73771000E+01  2.56789000E+01  3.74004000E+00  4.21175000E+01
  9.62837000E+00  2.85332000E+00  9.05661000E-01  2.55611000E-01  1.29200000E+00
  8.58850000E+03  1.29723000E+03  2.99296000E+02  8.73771000E+01  2.56789000E+01
  3.74004000E+00  4.21175000E+01  9.62837000E+00  2.85332000E+00  9.05661000E-01
  2.55611000E-01  1.29200000E+00  3.38650000E+01  5.09479000E+00  1.15879000E+00
  3.25840000E-01  1.02741000E-01  7.50000000E-01  4.56324000E+03  6.82024000E+02
  1.54973000E+02  4.44553000E+01  1.30290000E+01  1.82773000E+00  2.09642000E+01
  4.80331000E+00  1.45933000E+00  4.83456000E-01  1.45585000E-01  6.26000000E-01
  3.38650000E+01  5.09479000E+00  1.15879000E+00  3.25840000E-01  1.02741000E-01
  7.50000000E-01  3.38650000E+01  5.09479000E+00  1.15879000E+00  3.25840000E-01
  1.02741000E-01  7.50000000E-01  3.38650000E+01  5.09479000E+00  1.15879000E+00
  3.25840000E-01  1.02741000E-01  7.50000000E-01  3.38650000E+01  5.09479000E+00
  1.15879000E+00  3.25840000E-01  1.02741000E-01  7.50000000E-01  4.56324000E+03
  6.82024000E+02  1.54973000E+02  4.44553000E+01  1.30290000E+01  1.82773000E+00
  2.09642000E+01  4.80331000E+00  1.45933000E+00  4.83456000E-01  1.45585000E-01
  6.26000000E-01  3.38650000E+01  5.09479000E+00  1.15879000E+00  3.25840000E-01
  1.02741000E-01  7.50000000E-01  3.38650000E+01  5.09479000E+00  1.15879000E+00
  3.25840000E-01  1.02741000E-01  7.50000000E-01  3.38650000E+01  5.09479000E+00
  1.15879000E+00  3.25840000E-01  1.02741000E-01  7.50000000E-01
Contraction coefficients                   R   N=         174
  1.96665025E-03  1.52306019E-02  7.61269097E-02  2.60801033E-01  6.16462078E-01
  2.21006028E-01  1.14660081E-01  9.19999648E-01 -3.03068213E-03  1.00000000E+00
  1.00000000E+00  1.00000000E+00  1.96665025E-03  1.52306019E-02  7.61269097E-02
  2.60801033E-01  6.16462078E-01  2.21006028E-01  1.14660081E-01  9.19999648E-01
 -3.03068213E-03  1.00000000E+00  1.00000000E+00  1.00000000E+00  1.96665025E-03
  1.52306019E-02  7.61269097E-02  2.60801033E-01  6.16462078E-01  2.21006028E-01
  1.14660081E-01  9.19999648E-01 -3.03068213E-03  1.00000000E+00  1.00000000E+00
  1.00000000E+00  1.96665025E-03  1.52306019E-02  7.61269097E-02  2.60801033E-01
  6.16462078E-01  2.21006028E-01  1.14660081E-01  9.19999648E-01 -3.03068213E-03
  1.00000000E+00  1.00000000E+00  1.00000000E+00  1.96665025E-03  1.52306019E-02
  7.61269097E-02  2.60801033E-01  6.16462078E-01  2.21006028E-01  1.14660081E-01
  9.19999648E-01 -3.03068213E-03  1.00000000E+00  1.00000000E+00  1.00000000E+00
  1.96665025E-03  1.52306019E-02  7.61269097E-02  2.60801033E-01  6.16462078E-01
  2.21006028E-01  1.14660081E-01  9.19999648E-01 -3.03068213E-03  1.00000000E+00
  1.00000000E+00  1.00000000E+00  2.54938145E-02  1.90373109E-01  8.52161486E-01
  1.00000000E+00  1.00000000E+00  1.00000000E+00  1.89515008E-03  1.43859006E-02
  7.07320031E-02  2.40001011E-01  5.94797026E-01  2.80802012E-01  1.13889012E-01
  9.20811101E-01 -3.27447036E-03  1.00000000E+00  1.00000000E+00  1.00000000E+00
  1.89515008E-03  1.43859006E-02  7.07320031E-02  2.40001011E-01  5.94797026E-01
  2.80802012E-01  1.13889012E-01  9.20811101E-01 -3.27447036E-03  1.00000000E+00
  1.00000000E+00  1.00000000E+00  2.54938145E-02  1.90373109E-01  8.52161486E-01
  1.00000000E+00  1.00000000E+00  1.00000000E+00  1.96665025E-03  1.52306019E-02
  7.61269097E-02  2.60801033E-01  6.16462078E-01  2.21006028E-01  1.14660081E-01
  9.19999648E-01 -3.03068213E-03  1.00000000E+00  1.00000000E+00  1.00000000E+00
  2.54938145E-02  1.90373109E-01  8.52161486E-01  1.00000000E+00  1.00000000E+00
  1.00000000E+00  2.54938145E-02  1.90373109E-01  8.52161486E-01  1.00000000E+00
  1.00000000E+00  1.00000000E+00  2.54938145E-02  1.90373109E-01  8.52161486E-01
  1.00000000E+00  1.00000000E+00  1.00000000E+00  2.54938145E-02  1.90373109E-01
  8.52161486E-01  1.00000000E+00  1.00000000E+00  1.00000000E+00  1.96665025E-03
  1.52306019E-02  7.61269097E-02  2.60801033E-01  6.16462078E-01  2.21006028E-01
  1.14660081E-01  9.19999648E-01 -3.03068213E-03  1.00000000E+00  1.00000000E+00
  1.00000000E+00  2.54938145E-02  1.90373109E-01  8.52161486E-01  1.00000000E+00
  1.00000000E+00  1.00000000E+00  2.54938145E-02  1.90373109E-01  8.52161486E-01
  1.00000000E+00  1.00000000E+00  1.00000000E+00  2.54938145E-02  1.90373109E-01
  8.52161486E-01  1.00000000E+00  1.00000000E+00  1.00000000E+00
P(S=P) Contraction coefficients            R   N=         174
  0.00000000E+00  0.00000000E+00  0.00000000E+00  0.00000000E+00  0.00000000E+00
  0.00000000E+00  4.02486927E-02  2.37593957E-01  8.15853851E-01  1.00000000E+00
  1.00000000E+00  0.00000000E+00  0.00000000E+00  0.00000000E+00  0.00000000E+00
  0.00000000E+00  0.00000000E+00  0.00000000E+00  4.02486927E-02  2.37593957E-01
  8.15853851E-01  1.00000000E+00  1.00000000E+00  0.00000000E+00  0.00000000E+00
  0.00000000E+00  0.00000000E+00  0.00000000E+00  0.00000000E+00  0.00000000E+00
  4.02486927E-02  2.37593957E-01  8.15853851E-01  1.00000000E+00  1.00000000E+00
  0.00000000E+00  0.00000000E+00  0.00000000E+00  0.00000000E+00  0.00000000E+00
  0.00000000E+00  0.00000000E+00  4.02486927E-02  2.37593957E-01  8.15853851E-01
  1.00000000E+00  1.00000000E+00  0.00000000E+00  0.00000000E+00  0.00000000E+00
  0.00000000E+00  0.00000000E+00  0.00000000E+00  0.00000000E+00  4.02486927E-02
  2.37593957E-01  8.15853851E-01  1.00000000E+00  1.00000000E+00  0.00000000E+00
  0.00000000E+00  0.00000000E+00  0.00000000E+00  0.00000000E+00  0.00000000E+00
  0.00000000E+00  4.02486927E-02  2.37593957E-01  8.15853851E-01  1.00000000E+00
  1.00000000E+00  0.00000000E+00  0.00000000E+00  0.00000000E+00  0.00000000E+00
  0.00000000E+00  0.00000000E+00  0.00000000E+00  0.00000000E+00  0.00000000E+00
  0.00000000E+00  0.00000000E+00  0.00000000E+00  0.00000000E+00  3.65113974E-02
  2.37152983E-01  8.19701941E-01  1.00000000E+00  1.00000000E+00  0.00000000E+00
  0.00000000E+00  0.00000000E+00  0.00000000E+00  0.00000000E+00  0.00000000E+00
  0.00000000E+00  3.65113974E-02  2.37152983E-01  8.19701941E-01  1.00000000E+00
  1.00000000E+00  0.00000000E+00  0.00000000E+00  0.00000000E+00  0.00000000E+00
  0.00000000E+00  0.00000000E+00  0.00000000E+00  0.00000000E+00  0.00000000E+00
  0.00000000E+00  0.00000000E+00  0.00000000E+00  0.00000000E+00  4.02486927E-02
  2.37593957E-01  8.15853851E-01  1.00000000E+00  1.00000000E+00  0.00000000E+00
  0.00000000E+00  0.00000000E+00  0.00000000E+00  0.00000000E+00  0.00000000E+00
  0.00000000E+00  0.00000000E+00  0.00000000E+00  0.00000000E+00  0.00000000E+00
  0.00000000E+00  0.00000000E+00  0.00000000E+00  0.00000000E+00  0.00000000E+00
  0.00000000E+00  0.00000000E+00  0.00000000E+00  0.00000000E+00  0.00000000E+00
  0.00000000E+00  0.00000000E+00  0.00000000E+00  0.00000000E+00  0.00000000E+00
  0.00000000E+00  0.00000000E+00  0.00000000E+00  0.00000000E+00  0.00000000E+00
  4.02486927E-02  2.37593957E-01  8.15853851E-01  1.00000000E+00  1.00000000E+00
  0.00000000E+00  0.00000000E+00  0.00000000E+00  0.00000000E+00  0.00000000E+00
  0.00000000E+00  0.00000000E+00  0.00000000E+00  0.00000000E+00  0.00000000E+00
  0.00000000E+00  0.00000000E+00  0.00000000E+00  0.00000000E+00  0.00000000E+00
  0.00000000E+00  0.00000000E+00  0.00000000E+00  0.00000000E+00
Coordinates of each shell                  R   N=         258
  3.61213984E+00 -1.03885696E-01  9.96680129E-02  3.61213984E+00 -1.03885696E-01
  9.96680129E-02  3.61213984E+00 -1.03885696E-01  9.96680129E-02  3.61213984E+00
 -1.03885696E-01  9.96680129E-02  3.61213984E+00 -1.03885696E-01  9.96680129E-02
  1.94027074E+00  1.94321867E+00  1.11683591E-02  1.94027074E+00  1.94321867E+00
  1.11683591E-02  1.94027074E+00  1.94321867E+00  1.11683591E-02  1.94027074E+00
  1.94321867E+00  1.11683591E-02  1.94027074E+00  1.94321867E+00  1.11683591E-02
 -6.59758073E-01  1.60274855E+00 -2.25729598E-01 -6.59758073E-01  1.60274855E+00
 -2.25729598E-01 -6.59758073E-01  1.60274855E+00 -2.25729598E-01 -6.59758073E-01
  1.60274855E+00 -2.25729598E-01 -6.59758073E-01  1.60274855E+00 -2.25729598E-01
 -1.63033836E+00 -8.66439439E-01 -3.54701516E-01 -1.63033836E+00 -8.66439439E-01
 -3.54701516E-01 -1.63033836E+00 -8.66439439E-01 -3.54701516E-01 -1.63033836E+00
 -8.66439439E-01 -3.54701516E-01 -1.63033836E+00 -8.66439439E-01 -3.54701516E-01
  1.49271679E-02 -2.90527059E+00 -2.76723857E-01  1.49271679E-02 -2.90527059E+00
 -2.76723857E-01  1.49271679E-02 -2.90527059E+00 -2.76723857E-01  1.49271679E-02
 -2.90527059E+00 -2.76723857E-01  1.49271679E-02 -2.90527059E+00 -2.76723857E-01
  2.61473488E+00 -2.53772069E+00 -5.99571528E-02  2.61473488E+00 -2.53772069E+00
 -5.99571528E-02  2.61473488E+00 -2.53772069E+00 -5.99571528E-02  2.61473488E+00
 -2.53772069E+00 -5.99571528E-02  2.61473488E+00 -2.53772069E+00 -5.99571528E-02
 -7.82684613E-01 -4.78635879E+00 -4.08583277E-01 -7.82684613E-01 -4.78635879E+00
 -4.08583277E-01 -7.82684613E-01 -4.78635879E+00 -4.08583277E-01 -7.82684613E-01
 -4.78635879E+00 -4.08583277E-01 -4.17449742E+00 -1.32746086E+00 -7.02333644E-01
 -4.17449742E+00 -1.32746086E+00 -7.02333644E-01 -4.17449742E+00 -1.32746086E+00
 -7.02333644E-01 -4.17449742E+00 -1.32746086E+00 -7.02333644E-01 -4.17449742E+00
 -1.32746086E+00 -7.02333644E-01 -2.31850680E+00  3.56835659E+00 -3.66778756E-01
 -2.31850680E+00  3.56835659E+00 -3.66778756E-01 -2.31850680E+00  3.56835659E+00
 -3.66778756E-01 -2.31850680E+00  3.56835659E+00 -3.66778756E-01 -2.31850680E+00
  3.56835659E+00 -3.66778756E-01  2.67602800E+00  3.86034962E+00  1.07175895E-01
  2.67602800E+00  3.86034962E+00  1.07175895E-01  2.67602800E+00  3.86034962E+00
  1.07175895E-01  2.67602800E+00  3.86034962E+00  1.07175895E-01 -5.81601182E+00
 -4.99479287E-01  1.11802630E+00 -5.81601182E+00 -4.99479287E-01  1.11802630E+00
 -5.81601182E+00 -4.99479287E-01  1.11802630E+00 -5.81601182E+00 -4.99479287E-01
  1.11802630E+00 -5.81601182E+00 -4.99479287E-01  1.11802630E+00 -5.09523437E+00
 -2.01592293E-01  3.00968751E+00 -5.09523437E+00 -2.01592293E-01  3.00968751E+00
 -5.09523437E+00 -2.01592293E-01  3.00968751E+00 -5.09523437E+00 -2.01592293E-01
  3.00968751E+00 -7.75297163E+00 -1.00991137E+00  7.33272396E-01 -7.75297163E+00
 -1.00991137E+00  7.33272396E-01 -7.75297163E+00 -1.00991137E+00  7.33272396E-01
 -7.75297163E+00 -1.00991137E+00  7.33272396E-01 -1.38910929E+00  5.13030407E+00
 -2.82954284E-01 -1.38910929E+00  5.13030407E+00 -2.82954284E-01 -1.38910929E+00
  5.13030407E+00 -2.82954284E-01 -1.38910929E+00  5.13030407E+00 -2.82954284E-01
  3.86452797E+00 -4.15999195E+00 -6.61018432E-03  3.86452797E+00 -4.15999195E+00
 -6.61018432E-03  3.86452797E+00 -4.15999195E+00 -6.61018432E-03  3.86452797E+00
 -4.15999195E+00 -6.61018432E-03  6.41748739E+00  3.41970680E-01  3.67788025E-01
  6.41748739E+00  3.41970680E-01  3.67788025E-01  6.41748739E+00  3.41970680E-01
  3.67788025E-01  6.41748739E+00  3.41970680E-01  3.67788025E-01  6.41748739E+00
  3.41970680E-01  3.67788025E-01  7.11824316E+00  1.63625168E+00 -1.08435879E+00
  7.11824316E+00  1.63625168E+00 -1.08435879E+00  7.11824316E+00  1.63625168E+00
 -1.08435879E+00  7.11824316E+00  1.63625168E+00 -1.08435879E+00  6.87306443E+00
  1.17613549E+00  2.20563361E+00  6.87306443E+00  1.17613549E+00  2.20563361E+00
  6.87306443E+00  1.17613549E+00  2.20563361E+00  6.87306443E+00  1.17613549E+00
  2.20563361E+00  7.47145950E+00 -1.42320546E+00  2.02404863E-01  7.47145950E+00
 -1.42320546E+00  2.02404863E-01  7.47145950E+00 -1.42320546E+00  2.02404863E-01
  7.47145950E+00 -1.42320546E+00  2.02404863E-01
Num ILSW                                   I              100
ILSW                                       I   N=         100
           1           0           0           0           2           0
           0           0           0           0         402          -1
           5           0           0           0           0           0
           0           0           1           0           0           0
           1           0           0           0           0           0
           0           0      100000           0          -1           0
           0           0           0           0           0           0
           0           0           0           1           0           0
           0 -2000000000           1           0           0           0
           0           0           4          52           0           0
           0           0           5           0           0           0
           0           0           0           0           0           1
           0           0           0           0           0           0
           0           0           0           0           0           0
           0           0           0           0           0           0
           0           0           0           0           0           0
           0           0           0           0
Num RLSW                                   I               52
RLSW                                       R   N=          52
  8.00000000E-01  7.20000000E-01  1.00000000E+00  8.10000000E-01  2.00000000E-01
  0.00000000E+00  0.00000000E+00  1.00000000E+00  0.00000000E+00  0.00000000E+00
  0.00000000E+00  0.00000000E+00  1.00000000E+00  0.00000000E+00  0.00000000E+00
  0.00000000E+00  0.00000000E+00  1.00000000E+00  0.00000000E+00  0.00000000E+00
  0.00000000E+00  0.00000000E+00  1.00000000E+00  0.00000000E+00  0.00000000E+00
  0.00000000E+00  0.00000000E+00  1.00000000E+00  0.00000000E+00  0.00000000E+00
  0.00000000E+00  0.00000000E+00  1.00000000E+00  0.00000000E+00  0.00000000E+00
  0.00000000E+00  0.00000000E+00  0.00000000E+00  1.00000000E+00  1.00000000E+00
  0.00000000E+00  1.00000000E+00  0.00000000E+00  0.00000000E+00  0.00000000E+00
  0.00000000E+00  0.00000000E+00  0.00000000E+00  0.00000000E+00  0.00000000E+00
  0.00000000E+00  0.00000000E+00
MxBond                                     I                4
NBond                                      I   N=          19
           3           3           3           3           3           3
           1           2           2           1           3           1
           1           1           1           4           1           1
           1
IBond                                      I   N=          76
           2           6          16           0           1           3
          10           0           2           4           9           0
           3           5           8           0           4           6
           7           0           1           5          15           0
           5           0           0           0           4          11
           0           0           3          14           0           0
           2           0           0           0           8          12
          13           0          11           0           0           0
          11           0           0           0           9           0
           0           0           6           0           0           0
           1          17          18          19          16           0
           0           0          16           0           0           0
          16           0           0           0
RBond                                      R   N=          76
  1.50000000E+00  1.50000000E+00  1.00000000E+00  0.00000000E+00  1.50000000E+00
  1.50000000E+00  1.00000000E+00  0.00000000E+00  1.50000000E+00  1.50000000E+00
  1.00000000E+00  0.00000000E+00  1.50000000E+00  1.50000000E+00  1.00000000E+00
  0.00000000E+00  1.50000000E+00  1.50000000E+00  1.00000000E+00  0.00000000E+00
  1.50000000E+00  1.50000000E+00  1.00000000E+00  0.00000000E+00  1.00000000E+00
  0.00000000E+00  0.00000000E+00  0.00000000E+00  1.00000000E+00  1.00000000E+00
  0.00000000E+00  0.00000000E+00  1.00000000E+00  1.00000000E+00  0.00000000E+00
  0.00000000E+00  1.00000000E+00  0.00000000E+00  0.00000000E+00  0.00000000E+00
  1.00000000E+00  1.00000000E+00  1.00000000E+00  0.00000000E+00  1.00000000E+00
  0.00000000E+00  0.00000000E+00  0.00000000E+00  1.00000000E+00  0.00000000E+00
  0.00000000E+00  0.00000000E+00  1.00000000E+00  0.00000000E+00  0.00000000E+00
  0.00000000E+00  1.00000000E+00  0.00000000E+00  0.00000000E+00  0.00000000E+00
  1.00000000E+00  1.00000000E+00  1.00000000E+00  1.00000000E+00  1.00000000E+00
  0.00000000E+00  0.00000000E+00  0.00000000E+00  1.00000000E+00  0.00000000E+00
  0.00000000E+00  0.00000000E+00  1.00000000E+00  0.00000000E+00  0.00000000E+00
  0.00000000E+00
Virial Ratio                               R      2.003758311868669E+00
SCF Energy                                 R     -4.607597988862325E+02
Total Energy                               R     -4.607597988862325E+02
S**2                                       R      7.534304932415665E-01
S**2 after annihilation                    R      7.500080786310410E-01
RMS Density                                R      8.839472377003864E-09