 Entering Link 1 = D:\Gaussian\G16W\l1.exe PID=     36148.
  
 Copyright (c) 1988,1990,1992,1993,1995,1998,2003,2009,2016,
            Gaussian, Inc.  All Rights Reserved.
  
 This is part of the Gaussian(R) 16 program.  It is based on
 the Gaussian(R) 09 system (copyright 2009, Gaussian, Inc.),
 the Gaussian(R) 03 system (copyright 2003, Gaussian, Inc.),
 the Gaussian(R) 98 system (copyright 1998, Gaussian, Inc.),
 the Gaussian(R) 94 system (copyright 1995, Gaussian, Inc.),
 the Gaussian 92(TM) system (copyright 1992, Gaussian, Inc.),
 the Gaussian 90(TM) system (copyright 1990, Gaussian, Inc.),
 the Gaussian 88(TM) system (copyright 1988, Gaussian, Inc.),
 the Gaussian 86(TM) system (copyright 1986, Carnegie Mellon
 University), and the Gaussian 82(TM) system (copyright 1983,
 Carnegie Mellon University). Gaussian is a federally registered
 trademark of Gaussian, Inc.
  
 This software contains proprietary and confidential information,
 including trade secrets, belonging to Gaussian, Inc.
  
 This software is provided under written license and may be
 used, copied, transmitted, or stored only in accord with that
 written license.
  
 The following legend is applicable only to US Government
 contracts under FAR:
  
                    RESTRICTED RIGHTS LEGEND
  
 Use, reproduction and disclosure by the US Government is
 subject to restrictions as set forth in subparagraphs (a)
 and (c) of the Commercial Computer Software - Restricted
 Rights clause in FAR 52.227-19.
  
 Gaussian, Inc.
 340 Quinnipiac St., Bldg. 40, Wallingford CT 06492
  
  
 ---------------------------------------------------------------
 Warning -- This program may not be used in any manner that
 competes with the business of Gaussian, Inc. or will provide
 assistance to any competitor of Gaussian, Inc.  The licensee
 of this program is prohibited from giving any competitor of
 Gaussian, Inc. access to this program.  By using this program,
 the user acknowledges that Gaussian, Inc. is engaged in the
 business of creating and licensing software in the field of
 computational chemistry and represents and warrants to the
 licensee that it is not a competitor of Gaussian, Inc. and that
 it will not use this program in any manner prohibited above.
 ---------------------------------------------------------------
  

 Cite this work as:
 Gaussian 16, Revision A.03,
 M. J. Frisch, G. W. Trucks, H. B. Schlegel, G. E. Scuseria, 
 M. A. Robb, J. R. Cheeseman, G. Scalmani, V. Barone, 
 G. A. Petersson, H. Nakatsuji, X. Li, M. Caricato, A. V. Marenich, 
 J. Bloino, B. G. Janesko, R. Gomperts, B. Mennucci, H. P. Hratchian, 
 J. V. Ortiz, A. F. Izmaylov, J. L. Sonnenberg, D. Williams-Young, 
 F. Ding, F. Lipparini, F. Egidi, J. Goings, B. Peng, A. Petrone, 
 T. Henderson, D. Ranasinghe, V. G. Zakrzewski, J. Gao, N. Rega, 
 G. Zheng, W. Liang, M. Hada, M. Ehara, K. Toyota, R. Fukuda, 
 J. Hasegawa, M. Ishida, T. Nakajima, Y. Honda, O. Kitao, H. Nakai, 
 T. Vreven, K. Throssell, J. A. Montgomery, Jr., J. E. Peralta, 
 F. Ogliaro, M. J. Bearpark, J. J. Heyd, E. N. Brothers, K. N. Kudin, 
 V. N. Staroverov, T. A. Keith, R. Kobayashi, J. Normand, 
 K. Raghavachari, A. P. Rendell, J. C. Burant, S. S. Iyengar, 
 J. Tomasi, M. Cossi, J. M. Millam, M. Klene, C. Adamo, R. Cammi, 
 J. W. Ochterski, R. L. Martin, K. Morokuma, O. Farkas, 
 J. B. Foresman, and D. J. Fox, Gaussian, Inc., Wallingford CT, 2016.
 
 ******************************************
 Gaussian 16:  EM64W-G16RevA.03 17-Dec-2016
                02-Dec-2025 
 ******************************************
 %nprocshared=14
 Will use up to   14 processors via shared memory.
 %mem=80GB
 %chk=SR-13.chk
 ---------------------------------------------------------
 # ub3lyp/6-311g(d,p) geom=connectivity temperature=823.15
 ---------------------------------------------------------
 1/38=1,57=2,112=823150,172=1/1;
 2/12=2,17=6,18=5,40=1/2;
 3/5=4,6=6,7=101,11=2,25=1,30=1,74=-5,116=2/1,2,3;
 4//1;
 5/5=2,38=5/2;
 6/7=2,8=2,9=2,10=2,28=1/1;
 99/5=1,9=1/99;
 -------------------
 Title Card Required
 -------------------
 Symbolic Z-matrix:
 Charge =  0 Multiplicity = 2
 C                     1.91146  -0.05497   0.05274 
 C                     1.02675   1.02831   0.00591 
 C                    -0.34913   0.84814  -0.11945 
 C                    -0.86274  -0.4585   -0.1877 
 C                     0.0079   -1.5374   -0.14644 
 C                     1.38366  -1.3429   -0.03173 
 H                    -0.41418  -2.53283  -0.21621 
 O                    -2.20905  -0.70246  -0.37166 
 O                    -1.2269    1.88829  -0.19409 
 H                     1.41609   2.04281   0.05672 
 C                    -3.0777   -0.26431   0.59163 
 H                    -2.69628  -0.10668   1.59266 
 H                    -4.1027   -0.53442   0.38803 
 H                    -0.73509   2.71484  -0.14973 
 H                     2.04502  -2.20137  -0.0035 
 C                     3.39599   0.18096   0.19463 
 H                     3.76681   0.86587  -0.57382 
 H                     3.63707   0.62238   1.16717 
 H                     3.95373  -0.75313   0.10711 
 
                          Input orientation:                          
 ---------------------------------------------------------------------
 Center     Atomic      Atomic             Coordinates (Angstroms)
 Number     Number       Type             X           Y           Z
 ---------------------------------------------------------------------
      1          6           0        1.911462   -0.054974    0.052742
      2          6           0        1.026747    1.028307    0.005910
      3          6           0       -0.349129    0.848138   -0.119451
      4          6           0       -0.862738   -0.458500   -0.187700
      5          6           0        0.007899   -1.537403   -0.146436
      6          6           0        1.383658   -1.342904   -0.031728
      7          1           0       -0.414179   -2.532832   -0.216213
      8          8           0       -2.209049   -0.702462   -0.371659
      9          8           0       -1.226901    1.888293   -0.194091
     10          1           0        1.416093    2.042809    0.056715
     11          6           0       -3.077701   -0.264313    0.591634
     12          1           0       -2.696282   -0.106678    1.592658
     13          1           0       -4.102696   -0.534422    0.388031
     14          1           0       -0.735085    2.714840   -0.149733
     15          1           0        2.045020   -2.201373   -0.003498
     16          6           0        3.395988    0.180963    0.194625
     17          1           0        3.766812    0.865867   -0.573818
     18          1           0        3.637069    0.622384    1.167171
     19          1           0        3.953726   -0.753128    0.107108
 ---------------------------------------------------------------------
                    Distance matrix (angstroms):
                    1          2          3          4          5
     1  C    0.000000
     2  C    1.399433   0.000000
     3  C    2.440396   1.393273   0.000000
     4  C    2.813686   2.412101   1.405616   0.000000
     5  C    2.420913   2.764802   2.412261   1.386991   0.000000
     6  C    1.394445   2.398217   2.794801   2.419255   1.394167
     7  H    3.408918   3.848028   3.382980   2.122468   1.083466
     8  O    4.192609   3.688969   2.434599   1.380548   2.379645
     9  O    3.699532   2.420435   1.363076   2.374888   3.641757
    10  H    2.155481   1.087835   2.138757   3.392544   3.852557
    11  C    5.022547   4.342860   3.031220   2.356084   3.418543
    12  H    4.858531   4.203202   3.058123   2.579794   3.519093
    13  H    6.042548   5.375809   4.032155   3.291589   4.264811
    14  H    3.836284   2.443905   1.906425   3.176133   4.316666
    15  H    2.151286   3.386414   3.878777   3.395084   2.147359
    16  C    1.509839   2.523273   3.817023   4.323405   3.814217
    17  H    2.163989   2.805428   4.140982   4.830711   4.481940
    18  H    2.162981   2.885668   4.194775   4.822059   4.422795
    19  H    2.158985   3.427967   4.596732   4.834464   4.030995
                    6          7          8          9         10
     6  C    0.000000
     7  H    2.163835   0.000000
     8  O    3.665142   2.568263   0.000000
     9  O    4.157164   4.495259   2.776357   0.000000
    10  H    3.387023   4.935674   4.567458   2.659360   0.000000
    11  C    4.632026   3.590703   1.369111   2.945596   5.079679
    12  H    4.562104   3.790281   2.109715   3.054744   4.887846
    13  H    5.561468   4.238385   2.047258   3.805077   6.099912
    14  H    4.579114   5.257895   3.728240   0.962824   2.263142
    15  H    1.084051   2.490537   4.525415   5.240912   4.290950
    16  C    2.534340   4.695833   5.702417   4.943397   2.721300
    17  H    3.294230   5.399974   6.181540   5.111430   2.703450
    18  H    3.221425   5.318059   6.188724   5.207088   2.860674
    19  H    2.640523   4.727629   6.181552   5.822948   3.776160
                   11         12         13         14         15
    11  C    0.000000
    12  H    1.082764   0.000000
    13  H    1.079365   1.900550   0.000000
    14  H    3.861713   3.852685   4.710382   0.000000
    15  H    5.508961   5.423597   6.381726   5.649736   0.000000
    16  C    6.501118   6.257235   7.535214   4.858485   2.745886
    17  H    7.034411   6.885568   8.050784   4.885246   3.563396
    18  H    6.797471   6.389359   7.864428   5.022782   3.446547
    19  H    7.065032   6.844513   8.064285   5.837612   2.398501
                   16         17         18         19
    16  C    0.000000
    17  H    1.094125   0.000000
    18  H    1.094906   1.762714   0.000000
    19  H    1.091447   1.766279   1.765230   0.000000
 Stoichiometry    C8H9O2(2)
 Framework group  C1[X(C8H9O2)]
 Deg. of freedom    51
 Full point group                 C1      NOp   1
 Largest Abelian subgroup         C1      NOp   1
 Largest concise Abelian subgroup C1      NOp   1
                         Standard orientation:                         
 ---------------------------------------------------------------------
 Center     Atomic      Atomic             Coordinates (Angstroms)
 Number     Number       Type             X           Y           Z
 ---------------------------------------------------------------------
      1          6           0        1.911462   -0.054974    0.052742
      2          6           0        1.026747    1.028307    0.005910
      3          6           0       -0.349129    0.848138   -0.119451
      4          6           0       -0.862738   -0.458500   -0.187700
      5          6           0        0.007899   -1.537403   -0.146436
      6          6           0        1.383658   -1.342904   -0.031728
      7          1           0       -0.414179   -2.532832   -0.216213
      8          8           0       -2.209049   -0.702462   -0.371659
      9          8           0       -1.226901    1.888293   -0.194091
     10          1           0        1.416093    2.042809    0.056715
     11          6           0       -3.077701   -0.264313    0.591634
     12          1           0       -2.696282   -0.106678    1.592658
     13          1           0       -4.102696   -0.534422    0.388031
     14          1           0       -0.735085    2.714840   -0.149733
     15          1           0        2.045020   -2.201373   -0.003498
     16          6           0        3.395988    0.180963    0.194625
     17          1           0        3.766812    0.865867   -0.573818
     18          1           0        3.637069    0.622384    1.167171
     19          1           0        3.953726   -0.753128    0.107108
 ---------------------------------------------------------------------
 Rotational constants (GHZ):           2.8419669           0.9514175           0.7395020
 Standard basis: 6-311G(d,p) (5D, 7F)
 There are   244 symmetry adapted cartesian basis functions of A   symmetry.
 There are   234 symmetry adapted basis functions of A   symmetry.
   234 basis functions,   392 primitive gaussians,   244 cartesian basis functions
    37 alpha electrons       36 beta electrons
       nuclear repulsion energy       505.4173357891 Hartrees.
 NAtoms=   19 NActive=   19 NUniq=   19 SFac= 1.00D+00 NAtFMM=   60 NAOKFM=F Big=F
 Integral buffers will be    131072 words long.
 Raffenetti 2 integral format.
 Two-electron integral symmetry is turned on.
 One-electron integrals computed using PRISM.
 NBasis=   234 RedAO= T EigKep=  1.79D-04  NBF=   234
 NBsUse=   234 1.00D-06 EigRej= -1.00D+00 NBFU=   234
 ExpMin= 1.03D-01 ExpMax= 8.59D+03 ExpMxC= 1.30D+03 IAcc=3 IRadAn=         5 AccDes= 0.00D+00
 Harris functional with IExCor=  402 and IRadAn=       5 diagonalized for initial guess.
 HarFok:  IExCor=  402 AccDes= 0.00D+00 IRadAn=         5 IDoV= 1 UseB2=F ITyADJ=14
 ICtDFT=  3500011 ScaDFX=  1.000000  1.000000  1.000000  1.000000
 FoFCou: FMM=F IPFlag=           0 FMFlag=      100000 FMFlg1=           0
         NFxFlg=           0 DoJE=T BraDBF=F KetDBF=T FulRan=T
         wScrn=  0.000000 ICntrl=       500 IOpCl=  0 I1Cent=   200000004 NGrid=           0
         NMat0=    1 NMatS0=      1 NMatT0=    0 NMatD0=    1 NMtDS0=    0 NMtDT0=    0
 Petite list used in FoFCou.
 Initial guess <Sx>= 0.0000 <Sy>= 0.0000 <Sz>= 0.5000 <S**2>= 0.7500 S= 0.5000
 Requested convergence on RMS density matrix=1.00D-08 within 128 cycles.
 Requested convergence on MAX density matrix=1.00D-06.
 Requested convergence on             energy=1.00D-06.
 No special actions if energy rises.
 Integral accuracy reduced to 1.0D-05 until final iterations.
 Initial convergence to 1.0D-05 achieved.  Increase integral accuracy.
 SCF Done:  E(UB3LYP) =  -460.759798886     A.U. after   16 cycles
            NFock= 16  Conv=0.88D-08     -V/T= 2.0038
 <Sx>= 0.0000 <Sy>= 0.0000 <Sz>= 0.5000 <S**2>= 0.7534 S= 0.5017
 <L.S>= 0.000000000000E+00
 Annihilation of the first spin contaminant:
 S**2 before annihilation     0.7534,   after     0.7500

 **********************************************************************

            Population analysis using the SCF density.

 **********************************************************************

 Orbital symmetries:
 Alpha Orbitals:
       Occupied  (A) (A) (A) (A) (A) (A) (A) (A) (A) (A) (A) (A)
                 (A) (A) (A) (A) (A) (A) (A) (A) (A) (A) (A) (A)
                 (A) (A) (A) (A) (A) (A) (A) (A) (A) (A) (A) (A)
                 (A)
       Virtual   (A) (A) (A) (A) (A) (A) (A) (A) (A) (A) (A) (A)
                 (A) (A) (A) (A) (A) (A) (A) (A) (A) (A) (A) (A)
                 (A) (A) (A) (A) (A) (A) (A) (A) (A) (A) (A) (A)
                 (A) (A) (A) (A) (A) (A) (A) (A) (A) (A) (A) (A)
                 (A) (A) (A) (A) (A) (A) (A) (A) (A) (A) (A) (A)
                 (A) (A) (A) (A) (A) (A) (A) (A) (A) (A) (A) (A)
                 (A) (A) (A) (A) (A) (A) (A) (A) (A) (A) (A) (A)
                 (A) (A) (A) (A) (A) (A) (A) (A) (A) (A) (A) (A)
                 (A) (A) (A) (A) (A) (A) (A) (A) (A) (A) (A) (A)
                 (A) (A) (A) (A) (A) (A) (A) (A) (A) (A) (A) (A)
                 (A) (A) (A) (A) (A) (A) (A) (A) (A) (A) (A) (A)
                 (A) (A) (A) (A) (A) (A) (A) (A) (A) (A) (A) (A)
                 (A) (A) (A) (A) (A) (A) (A) (A) (A) (A) (A) (A)
                 (A) (A) (A) (A) (A) (A) (A) (A) (A) (A) (A) (A)
                 (A) (A) (A) (A) (A) (A) (A) (A) (A) (A) (A) (A)
                 (A) (A) (A) (A) (A) (A) (A) (A) (A) (A) (A) (A)
                 (A) (A) (A) (A) (A)
 Beta  Orbitals:
       Occupied  (A) (A) (A) (A) (A) (A) (A) (A) (A) (A) (A) (A)
                 (A) (A) (A) (A) (A) (A) (A) (A) (A) (A) (A) (A)
                 (A) (A) (A) (A) (A) (A) (A) (A) (A) (A) (A) (A)
       Virtual   (A) (A) (A) (A) (A) (A) (A) (A) (A) (A) (A) (A)
                 (A) (A) (A) (A) (A) (A) (A) (A) (A) (A) (A) (A)
                 (A) (A) (A) (A) (A) (A) (A) (A) (A) (A) (A) (A)
                 (A) (A) (A) (A) (A) (A) (A) (A) (A) (A) (A) (A)
                 (A) (A) (A) (A) (A) (A) (A) (A) (A) (A) (A) (A)
                 (A) (A) (A) (A) (A) (A) (A) (A) (A) (A) (A) (A)
                 (A) (A) (A) (A) (A) (A) (A) (A) (A) (A) (A) (A)
                 (A) (A) (A) (A) (A) (A) (A) (A) (A) (A) (A) (A)
                 (A) (A) (A) (A) (A) (A) (A) (A) (A) (A) (A) (A)
                 (A) (A) (A) (A) (A) (A) (A) (A) (A) (A) (A) (A)
                 (A) (A) (A) (A) (A) (A) (A) (A) (A) (A) (A) (A)
                 (A) (A) (A) (A) (A) (A) (A) (A) (A) (A) (A) (A)
                 (A) (A) (A) (A) (A) (A) (A) (A) (A) (A) (A) (A)
                 (A) (A) (A) (A) (A) (A) (A) (A) (A) (A) (A) (A)
                 (A) (A) (A) (A) (A) (A) (A) (A) (A) (A) (A) (A)
                 (A) (A) (A) (A) (A) (A) (A) (A) (A) (A) (A) (A)
                 (A) (A) (A) (A) (A) (A)
 The electronic state is 2-A.
 Alpha  occ. eigenvalues --  -19.16023 -19.15420 -10.24168 -10.22913 -10.20722
 Alpha  occ. eigenvalues --  -10.18712 -10.17638 -10.17578 -10.17234 -10.16952
 Alpha  occ. eigenvalues --   -1.08457  -1.06449  -0.86185  -0.78093  -0.74845
 Alpha  occ. eigenvalues --   -0.71049  -0.66224  -0.63509  -0.58552  -0.54844
 Alpha  occ. eigenvalues --   -0.52636  -0.49678  -0.47189  -0.45646  -0.43978
 Alpha  occ. eigenvalues --   -0.42913  -0.41321  -0.41178  -0.40375  -0.37655
 Alpha  occ. eigenvalues --   -0.37232  -0.35583  -0.34970  -0.32968  -0.25026
 Alpha  occ. eigenvalues --   -0.22789  -0.17185
 Alpha virt. eigenvalues --   -0.01245   0.00364   0.02755   0.04704   0.06951
 Alpha virt. eigenvalues --    0.07857   0.08819   0.10964   0.11047   0.12070
 Alpha virt. eigenvalues --    0.13890   0.14391   0.16900   0.20350   0.22195
 Alpha virt. eigenvalues --    0.24816   0.28157   0.29027   0.29777   0.30980
 Alpha virt. eigenvalues --    0.32778   0.33697   0.35653   0.35969   0.37948
 Alpha virt. eigenvalues --    0.38554   0.39549   0.41024   0.42331   0.43797
 Alpha virt. eigenvalues --    0.44561   0.45186   0.46594   0.47562   0.48105
 Alpha virt. eigenvalues --    0.49612   0.51073   0.53167   0.54173   0.54951
 Alpha virt. eigenvalues --    0.55884   0.58213   0.59139   0.60417   0.61981
 Alpha virt. eigenvalues --    0.62487   0.63537   0.63981   0.64718   0.67005
 Alpha virt. eigenvalues --    0.68321   0.70556   0.75176   0.76200   0.79170
 Alpha virt. eigenvalues --    0.81122   0.83222   0.84718   0.87292   0.88238
 Alpha virt. eigenvalues --    0.88936   0.91043   0.94775   0.96243   0.98702
 Alpha virt. eigenvalues --    0.99411   1.02252   1.04170   1.05815   1.09808
 Alpha virt. eigenvalues --    1.10839   1.11376   1.17504   1.19488   1.24019
 Alpha virt. eigenvalues --    1.25513   1.33569   1.33992   1.35243   1.36969
 Alpha virt. eigenvalues --    1.39272   1.42035   1.45161   1.45757   1.46528
 Alpha virt. eigenvalues --    1.47482   1.48702   1.49536   1.52560   1.53800
 Alpha virt. eigenvalues --    1.54831   1.55560   1.57173   1.58090   1.60086
 Alpha virt. eigenvalues --    1.61260   1.62515   1.66483   1.69096   1.70368
 Alpha virt. eigenvalues --    1.72889   1.75934   1.76995   1.77767   1.79811
 Alpha virt. eigenvalues --    1.85681   1.86303   1.87788   1.88821   1.91786
 Alpha virt. eigenvalues --    1.92985   1.94252   1.95757   1.97666   1.99128
 Alpha virt. eigenvalues --    2.00386   2.01557   2.06328   2.10100   2.11832
 Alpha virt. eigenvalues --    2.13625   2.17997   2.23972   2.28295   2.28964
 Alpha virt. eigenvalues --    2.34288   2.35448   2.36433   2.40891   2.44365
 Alpha virt. eigenvalues --    2.44628   2.48450   2.50878   2.52361   2.53236
 Alpha virt. eigenvalues --    2.54054   2.55094   2.56759   2.58111   2.58796
 Alpha virt. eigenvalues --    2.62744   2.63300   2.64438   2.67171   2.69470
 Alpha virt. eigenvalues --    2.71952   2.75208   2.83023   2.84420   2.85602
 Alpha virt. eigenvalues --    2.87209   2.89662   2.94952   3.01582   3.02336
 Alpha virt. eigenvalues --    3.06005   3.09348   3.12327   3.13714   3.16759
 Alpha virt. eigenvalues --    3.18548   3.27118   3.29895   3.37027   3.39987
 Alpha virt. eigenvalues --    3.44412   3.52338   3.57108   3.62889   3.65277
 Alpha virt. eigenvalues --    3.72923   3.78073   3.81302   3.85762   3.94951
 Alpha virt. eigenvalues --    3.97825   4.09188   4.10059   4.11276   4.31450
 Alpha virt. eigenvalues --    4.82298   4.83797   4.93986   5.21470   5.36411
 Alpha virt. eigenvalues --    5.66972   5.78236  23.44249  23.80137  23.86925
 Alpha virt. eigenvalues --   23.89761  23.92913  24.04527  24.08499  24.17098
 Alpha virt. eigenvalues --   49.87845  49.92611
  Beta  occ. eigenvalues --  -19.15520 -19.15405 -10.24151 -10.22929 -10.19359
  Beta  occ. eigenvalues --  -10.18702 -10.17639 -10.17562 -10.17234 -10.16954
  Beta  occ. eigenvalues --   -1.07884  -1.05937  -0.86128  -0.77900  -0.74819
  Beta  occ. eigenvalues --   -0.70424  -0.65062  -0.63152  -0.58167  -0.54706
  Beta  occ. eigenvalues --   -0.51898  -0.49321  -0.46471  -0.45475  -0.43939
  Beta  occ. eigenvalues --   -0.42845  -0.41270  -0.40744  -0.39716  -0.36896
  Beta  occ. eigenvalues --   -0.36818  -0.35019  -0.33787  -0.32563  -0.24874
  Beta  occ. eigenvalues --   -0.22554
  Beta virt. eigenvalues --   -0.03110  -0.00674   0.00467   0.02850   0.04727
  Beta virt. eigenvalues --    0.06977   0.08272   0.09016   0.11087   0.11126
  Beta virt. eigenvalues --    0.12360   0.14010   0.14989   0.16944   0.20397
  Beta virt. eigenvalues --    0.22456   0.25039   0.28265   0.29192   0.29825
  Beta virt. eigenvalues --    0.31016   0.32967   0.35256   0.35743   0.36085
  Beta virt. eigenvalues --    0.38128   0.38975   0.39726   0.41996   0.43187
  Beta virt. eigenvalues --    0.44029   0.44941   0.46284   0.46952   0.48138
  Beta virt. eigenvalues --    0.48432   0.49933   0.51712   0.53547   0.54363
  Beta virt. eigenvalues --    0.54985   0.56182   0.58796   0.59223   0.60452
  Beta virt. eigenvalues --    0.62035   0.62701   0.63753   0.64238   0.65255
  Beta virt. eigenvalues --    0.67881   0.68933   0.70623   0.75353   0.76437
  Beta virt. eigenvalues --    0.79263   0.81179   0.83322   0.84806   0.87816
  Beta virt. eigenvalues --    0.88471   0.89244   0.91440   0.94895   0.96434
  Beta virt. eigenvalues --    0.98995   0.99483   1.02347   1.04398   1.06272
  Beta virt. eigenvalues --    1.09873   1.11179   1.11811   1.18075   1.19901
  Beta virt. eigenvalues --    1.24370   1.26893   1.33597   1.34015   1.35372
  Beta virt. eigenvalues --    1.37644   1.39497   1.42207   1.45186   1.46416
  Beta virt. eigenvalues --    1.47195   1.47996   1.49363   1.49559   1.53015
  Beta virt. eigenvalues --    1.54219   1.54993   1.55597   1.57453   1.58240
  Beta virt. eigenvalues --    1.60254   1.62436   1.62713   1.66795   1.69306
  Beta virt. eigenvalues --    1.70472   1.73474   1.75962   1.77207   1.77798
  Beta virt. eigenvalues --    1.79966   1.86339   1.86796   1.88745   1.89072
  Beta virt. eigenvalues --    1.91841   1.93557   1.94429   1.95873   1.98092
  Beta virt. eigenvalues --    2.00056   2.00816   2.02590   2.06380   2.10187
  Beta virt. eigenvalues --    2.11898   2.13948   2.18154   2.24036   2.28333
  Beta virt. eigenvalues --    2.29006   2.34327   2.35492   2.36472   2.41191
  Beta virt. eigenvalues --    2.44387   2.44690   2.48612   2.51166   2.53041
  Beta virt. eigenvalues --    2.53313   2.54135   2.55331   2.56810   2.58243
  Beta virt. eigenvalues --    2.60284   2.62895   2.63411   2.66960   2.68116
  Beta virt. eigenvalues --    2.69652   2.72912   2.75417   2.83054   2.84477
  Beta virt. eigenvalues --    2.85657   2.87270   2.89723   2.95425   3.02481
  Beta virt. eigenvalues --    3.02729   3.06088   3.09459   3.12491   3.15263
  Beta virt. eigenvalues --    3.17029   3.18592   3.27925   3.30257   3.37103
  Beta virt. eigenvalues --    3.40224   3.44674   3.52405   3.57158   3.62908
  Beta virt. eigenvalues --    3.65449   3.74727   3.78076   3.81311   3.85784
  Beta virt. eigenvalues --    3.95637   3.97895   4.09214   4.10231   4.11511
  Beta virt. eigenvalues --    4.31468   4.82378   4.83859   4.95822   5.22066
  Beta virt. eigenvalues --    5.36488   5.67154   5.78709  23.44254  23.81645
  Beta virt. eigenvalues --   23.86940  23.89769  23.92914  24.04529  24.08506
  Beta virt. eigenvalues --   24.17104  49.88142  49.92826
          Condensed to atoms (all electrons):
               1          2          3          4          5          6
     1  C    5.041342   0.435528  -0.007346  -0.043715  -0.047847   0.545461
     2  C    0.435528   5.156924   0.385033  -0.040941  -0.045789  -0.064639
     3  C   -0.007346   0.385033   4.944419   0.342673  -0.031418  -0.039195
     4  C   -0.043715  -0.040941   0.342673   5.043396   0.503027  -0.047790
     5  C   -0.047847  -0.045789  -0.031418   0.503027   4.857912   0.496106
     6  C    0.545461  -0.064639  -0.039195  -0.047790   0.496106   4.857839
     7  H    0.009925  -0.001997   0.013021  -0.057177   0.412284  -0.038968
     8  O   -0.000567   0.006017  -0.070586   0.312921  -0.050844   0.005414
     9  O    0.005930  -0.072579   0.386994  -0.078717   0.002493   0.000209
    10  H   -0.023711   0.392884  -0.043065   0.005554   0.000380   0.006713
    11  C    0.000018  -0.000171  -0.004123  -0.091123   0.000385  -0.000117
    12  H    0.000055  -0.000889   0.002066   0.001706   0.006108  -0.000670
    13  H   -0.000012   0.000082   0.000262   0.002604  -0.000581   0.000050
    14  H    0.001080  -0.010996  -0.045389   0.009750  -0.000359  -0.000025
    15  H   -0.048329   0.010600  -0.001763   0.010425  -0.039158   0.413275
    16  C    0.351773  -0.050437   0.003931  -0.000447   0.006950  -0.055617
    17  H   -0.037762  -0.005045   0.000031   0.000156  -0.000522   0.002356
    18  H   -0.037525  -0.004964   0.000245  -0.000043  -0.000069  -0.000359
    19  H   -0.033709   0.006493  -0.000189  -0.000013   0.000498  -0.007851
               7          8          9         10         11         12
     1  C    0.009925  -0.000567   0.005930  -0.023711   0.000018   0.000055
     2  C   -0.001997   0.006017  -0.072579   0.392884  -0.000171  -0.000889
     3  C    0.013021  -0.070586   0.386994  -0.043065  -0.004123   0.002066
     4  C   -0.057177   0.312921  -0.078717   0.005554  -0.091123   0.001706
     5  C    0.412284  -0.050844   0.002493   0.000380   0.000385   0.006108
     6  C   -0.038968   0.005414   0.000209   0.006713  -0.000117  -0.000670
     7  H    0.567465   0.004828  -0.000123   0.000073  -0.001025   0.000856
     8  O    0.004828   7.866982   0.000892  -0.000144   0.285868  -0.037102
     9  O   -0.000123   0.000892   7.776963  -0.003807   0.003088   0.000555
    10  H    0.000073  -0.000144  -0.003807   0.583734  -0.000023   0.000011
    11  C   -0.001025   0.285868   0.003088  -0.000023   5.133876   0.376252
    12  H    0.000856  -0.037102   0.000555   0.000011   0.376252   0.595862
    13  H   -0.000263  -0.024919   0.000329  -0.000002   0.405508  -0.042864
    14  H    0.000058  -0.000900   0.323840   0.006808   0.001322  -0.000027
    15  H   -0.009721  -0.000159   0.000008  -0.000419   0.000013  -0.000001
    16  C   -0.000274   0.000000  -0.000096  -0.005804   0.000001   0.000002
    17  H    0.000014   0.000000  -0.000010   0.001679   0.000000  -0.000001
    18  H    0.000023  -0.000001  -0.000004   0.000933  -0.000001   0.000002
    19  H   -0.000020   0.000000   0.000002   0.000038   0.000000   0.000000
              13         14         15         16         17         18
     1  C   -0.000012   0.001080  -0.048329   0.351773  -0.037762  -0.037525
     2  C    0.000082  -0.010996   0.010600  -0.050437  -0.005045  -0.004964
     3  C    0.000262  -0.045389  -0.001763   0.003931   0.000031   0.000245
     4  C    0.002604   0.009750   0.010425  -0.000447   0.000156  -0.000043
     5  C   -0.000581  -0.000359  -0.039158   0.006950  -0.000522  -0.000069
     6  C    0.000050  -0.000025   0.413275  -0.055617   0.002356  -0.000359
     7  H   -0.000263   0.000058  -0.009721  -0.000274   0.000014   0.000023
     8  O   -0.024919  -0.000900  -0.000159   0.000000   0.000000  -0.000001
     9  O    0.000329   0.323840   0.000008  -0.000096  -0.000010  -0.000004
    10  H   -0.000002   0.006808  -0.000419  -0.005804   0.001679   0.000933
    11  C    0.405508   0.001322   0.000013   0.000001   0.000000  -0.000001
    12  H   -0.042864  -0.000027  -0.000001   0.000002  -0.000001   0.000002
    13  H    0.549963  -0.000037  -0.000001   0.000000   0.000000   0.000000
    14  H   -0.000037   0.468646  -0.000012  -0.000016   0.000002   0.000002
    15  H   -0.000001  -0.000012   0.588114  -0.010053   0.000070   0.000131
    16  C    0.000000  -0.000016  -0.010053   4.808099   0.402507   0.401351
    17  H    0.000000   0.000002   0.000070   0.402507   0.576031  -0.032415
    18  H    0.000000   0.000002   0.000131   0.401351  -0.032415   0.576332
    19  H    0.000000   0.000001   0.003757   0.407776  -0.026822  -0.026800
              19
     1  C   -0.033709
     2  C    0.006493
     3  C   -0.000189
     4  C   -0.000013
     5  C    0.000498
     6  C   -0.007851
     7  H   -0.000020
     8  O    0.000000
     9  O    0.000002
    10  H    0.000038
    11  C    0.000000
    12  H    0.000000
    13  H    0.000000
    14  H    0.000001
    15  H    0.003757
    16  C    0.407776
    17  H   -0.026822
    18  H   -0.026800
    19  H    0.568010
          Atomic-Atomic Spin Densities.
               1          2          3          4          5          6
     1  C    0.009741  -0.004343   0.003353  -0.001634  -0.002481   0.002386
     2  C   -0.004343   0.003446  -0.009015   0.007374   0.003354  -0.001868
     3  C    0.003353  -0.009015   0.053976  -0.033144  -0.009975   0.003664
     4  C   -0.001634   0.007374  -0.033144   0.012807   0.004854  -0.002247
     5  C   -0.002481   0.003354  -0.009975   0.004854   0.024242  -0.005853
     6  C    0.002386  -0.001868   0.003664  -0.002247  -0.005853   0.000661
     7  H    0.000016  -0.000097   0.000636   0.000427  -0.001744   0.000812
     8  O   -0.000020   0.000190  -0.010331   0.021406  -0.004006   0.000358
     9  O   -0.000005   0.000566  -0.002635   0.002049   0.000037  -0.000004
    10  H    0.000158  -0.000255   0.000115  -0.000141  -0.000048   0.000033
    11  C    0.000049  -0.000777   0.010525  -0.019870   0.002293  -0.000137
    12  H   -0.000075   0.000346  -0.001793  -0.000478   0.000641  -0.000046
    13  H   -0.000001   0.000002  -0.000260  -0.000160   0.000122  -0.000006
    14  H    0.000162  -0.000927   0.001060  -0.001414  -0.000086   0.000025
    15  H    0.000016   0.000144  -0.000142  -0.000011   0.000613  -0.000594
    16  C    0.000091  -0.000212   0.000076  -0.000032  -0.000062   0.000001
    17  H   -0.000084  -0.000101   0.000039  -0.000019  -0.000009  -0.000023
    18  H   -0.000356   0.000194  -0.000036   0.000019   0.000024  -0.000003
    19  H   -0.000013  -0.000026   0.000008  -0.000004  -0.000010   0.000002
               7          8          9         10         11         12
     1  C    0.000016  -0.000020  -0.000005   0.000158   0.000049  -0.000075
     2  C   -0.000097   0.000190   0.000566  -0.000255  -0.000777   0.000346
     3  C    0.000636  -0.010331  -0.002635   0.000115   0.010525  -0.001793
     4  C    0.000427   0.021406   0.002049  -0.000141  -0.019870  -0.000478
     5  C   -0.001744  -0.004006   0.000037  -0.000048   0.002293   0.000641
     6  C    0.000812   0.000358  -0.000004   0.000033  -0.000137  -0.000046
     7  H   -0.000824   0.000795  -0.000008   0.000001  -0.000941  -0.000191
     8  O    0.000795   0.253691   0.002006  -0.000009  -0.145780   0.000580
     9  O   -0.000008   0.002006   0.005312  -0.000012  -0.006439   0.000373
    10  H    0.000001  -0.000009  -0.000012   0.000240   0.000023  -0.000007
    11  C   -0.000941  -0.145780  -0.006439   0.000023   1.111480  -0.008019
    12  H   -0.000191   0.000580   0.000373  -0.000007  -0.008019  -0.031397
    13  H   -0.000010  -0.000384   0.000042   0.000000  -0.000120   0.004836
    14  H    0.000007  -0.000496  -0.001005   0.000197   0.001872  -0.000214
    15  H   -0.000030  -0.000010   0.000000  -0.000004   0.000009   0.000005
    16  C    0.000005   0.000000   0.000001  -0.000002   0.000000   0.000000
    17  H    0.000001   0.000000   0.000000   0.000035   0.000000   0.000000
    18  H   -0.000001   0.000000   0.000000  -0.000038   0.000000   0.000000
    19  H    0.000001   0.000000   0.000000   0.000002   0.000000   0.000000
              13         14         15         16         17         18
     1  C   -0.000001   0.000162   0.000016   0.000091  -0.000084  -0.000356
     2  C    0.000002  -0.000927   0.000144  -0.000212  -0.000101   0.000194
     3  C   -0.000260   0.001060  -0.000142   0.000076   0.000039  -0.000036
     4  C   -0.000160  -0.001414  -0.000011  -0.000032  -0.000019   0.000019
     5  C    0.000122  -0.000086   0.000613  -0.000062  -0.000009   0.000024
     6  C   -0.000006   0.000025  -0.000594   0.000001  -0.000023  -0.000003
     7  H   -0.000010   0.000007  -0.000030   0.000005   0.000001  -0.000001
     8  O   -0.000384  -0.000496  -0.000010   0.000000   0.000000   0.000000
     9  O    0.000042  -0.001005   0.000000   0.000001   0.000000   0.000000
    10  H    0.000000   0.000197  -0.000004  -0.000002   0.000035  -0.000038
    11  C   -0.000120   0.001872   0.000009   0.000000   0.000000   0.000000
    12  H    0.004836  -0.000214   0.000005   0.000000   0.000000   0.000000
    13  H   -0.043122  -0.000014   0.000000   0.000000   0.000000   0.000000
    14  H   -0.000014   0.003605  -0.000002   0.000001   0.000006  -0.000006
    15  H    0.000000  -0.000002   0.000275  -0.000055  -0.000017   0.000022
    16  C    0.000000   0.000001  -0.000055  -0.000568   0.000078  -0.000006
    17  H    0.000000   0.000006  -0.000017   0.000078   0.000476  -0.000189
    18  H    0.000000  -0.000006   0.000022  -0.000006  -0.000189   0.000835
    19  H    0.000000   0.000000  -0.000018   0.000067   0.000033  -0.000051
              19
     1  C   -0.000013
     2  C   -0.000026
     3  C    0.000008
     4  C   -0.000004
     5  C   -0.000010
     6  C    0.000002
     7  H    0.000001
     8  O    0.000000
     9  O    0.000000
    10  H    0.000002
    11  C    0.000000
    12  H    0.000000
    13  H    0.000000
    14  H    0.000000
    15  H   -0.000018
    16  C    0.000067
    17  H    0.000033
    18  H   -0.000051
    19  H    0.000036
 Mulliken charges and spin densities:
               1          2
     1  C   -0.110586   0.006960
     2  C   -0.095114  -0.002006
     3  C    0.164399   0.006120
     4  C    0.127754  -0.010217
     5  C   -0.069556   0.011905
     6  C   -0.072191  -0.002838
     7  H    0.101022  -0.001145
     8  O   -0.297697   0.117989
     9  O   -0.345967   0.000278
    10  H    0.078169   0.000287
    11  C   -0.109747   0.944166
    12  H    0.098077  -0.035439
    13  H    0.109881  -0.039074
    14  H    0.246253   0.002769
    15  H    0.083222   0.000202
    16  C   -0.259642  -0.000619
    17  H    0.119730   0.000226
    18  H    0.123162   0.000409
    19  H    0.108831   0.000027
 Sum of Mulliken charges =   0.00000   1.00000
 Mulliken charges and spin densities with hydrogens summed into heavy atoms:
               1          2
     1  C   -0.110586   0.006960
     2  C   -0.016945  -0.001720
     3  C    0.164399   0.006120
     4  C    0.127754  -0.010217
     5  C    0.031466   0.010759
     6  C    0.011031  -0.002635
     8  O   -0.297697   0.117989
     9  O   -0.099715   0.003047
    11  C    0.098211   0.869653
    16  C    0.092082   0.000043
 Electronic spatial extent (au):  <R**2>=           1553.3017
 Charge=              0.0000 electrons
 Dipole moment (field-independent basis, Debye):
    X=              1.9871    Y=              1.2231    Z=              0.9227  Tot=              2.5091
 Quadrupole moment (field-independent basis, Debye-Ang):
   XX=            -57.4479   YY=            -50.9293   ZZ=            -61.6247
   XY=              1.5392   XZ=             -2.0287   YZ=             -0.1068
 Traceless Quadrupole moment (field-independent basis, Debye-Ang):
   XX=             -0.7806   YY=              5.7381   ZZ=             -4.9574
   XY=              1.5392   XZ=             -2.0287   YZ=             -0.1068
 Octapole moment (field-independent basis, Debye-Ang**2):
  XXX=             -8.6188  YYY=             24.3919  ZZZ=             -0.1758  XYY=              2.5031
  XXY=             -4.7498  XXZ=              6.0488  XZZ=             -6.5525  YZZ=              4.3687
  YYZ=             -2.3981  XYZ=              0.3335
 Hexadecapole moment (field-independent basis, Debye-Ang**3):
 XXXX=          -1404.4991 YYYY=           -383.0590 ZZZZ=           -102.1185 XXXY=             13.3883
 XXXZ=             -7.4918 YYYX=            -14.0556 YYYZ=             -1.1330 ZZZX=              3.0425
 ZZZY=              0.1345 XXYY=           -335.6231 XXZZ=           -268.0030 YYZZ=           -104.8512
 XXYZ=             -1.5202 YYXZ=              2.5810 ZZXY=              0.4985
 N-N= 5.054173357891D+02 E-N=-2.086360584475D+03  KE= 4.590346036871D+02
                          Isotropic Fermi Contact Couplings
        Atom                 a.u.       MegaHertz       Gauss      10(-4) cm-1
     1  C(13)              0.00043       0.48663       0.17364       0.16232
     2  C(13)              0.00134       1.50730       0.53784       0.50278
     3  C(13)              0.00599       6.73342       2.40265       2.24603
     4  C(13)             -0.00292      -3.27728      -1.16941      -1.09318
     5  C(13)              0.00429       4.82756       1.72259       1.61030
     6  C(13)              0.00014       0.15469       0.05520       0.05160
     7  H(1)              -0.00017      -0.76433      -0.27273      -0.25495
     8  O(17)              0.02513     -15.23221      -5.43523      -5.08092
     9  O(17)              0.01758     -10.65756      -3.80288      -3.55498
    10  H(1)               0.00003       0.14295       0.05101       0.04768
    11  C(13)              0.11612     130.53668      46.57873      43.54235
    12  H(1)              -0.00948     -42.37100     -15.11903     -14.13344
    13  H(1)              -0.01090     -48.70777     -17.38014     -16.24716
    14  H(1)               0.00065       2.91614       1.04055       0.97272
    15  H(1)               0.00006       0.25168       0.08980       0.08395
    16  C(13)             -0.00025      -0.27848      -0.09937      -0.09289
    17  H(1)               0.00009       0.41284       0.14731       0.13771
    18  H(1)               0.00020       0.88985       0.31752       0.29682
    19  H(1)               0.00002       0.09494       0.03388       0.03167
 --------------------------------------------------------
       Center         ----  Spin Dipole Couplings  ----
                      3XX-RR        3YY-RR        3ZZ-RR
 --------------------------------------------------------
     1   Atom       -0.001380     -0.005253      0.006634
     2   Atom        0.005518     -0.000718     -0.004800
     3   Atom        0.004843     -0.002795     -0.002048
     4   Atom        0.021303     -0.008478     -0.012825
     5   Atom        0.004436     -0.006832      0.002396
     6   Atom        0.004774     -0.000449     -0.004325
     7   Atom        0.001913      0.001520     -0.003433
     8   Atom       -0.397701      0.718281     -0.320580
     9   Atom        0.011010     -0.002527     -0.008483
    10   Atom        0.001821     -0.000495     -0.001326
    11   Atom       -0.545321      0.961328     -0.416008
    12   Atom       -0.049648     -0.003151      0.052799
    13   Atom        0.058031     -0.002297     -0.055734
    14   Atom        0.000545      0.002319     -0.002864
    15   Atom        0.001553     -0.000495     -0.001058
    16   Atom        0.001164     -0.000587     -0.000576
    17   Atom        0.000890     -0.000414     -0.000475
    18   Atom        0.000966     -0.000490     -0.000476
    19   Atom        0.000962     -0.000476     -0.000486
 --------------------------------------------------------
                        XY            XZ            YZ
 --------------------------------------------------------
     1   Atom        0.000222     -0.001465     -0.000020
     2   Atom        0.001139     -0.002027     -0.000175
     3   Atom        0.008138      0.001271      0.005403
     4   Atom       -0.000948      0.000188      0.004217
     5   Atom       -0.005517     -0.008909      0.004108
     6   Atom       -0.000669     -0.000957      0.000202
     7   Atom       -0.005054     -0.000904      0.001382
     8   Atom       -0.121962      0.042843     -0.378647
     9   Atom        0.010372     -0.005471     -0.003443
    10   Atom        0.001389     -0.000209     -0.000101
    11   Atom       -0.060839      0.024939     -0.452592
    12   Atom        0.008564      0.046618      0.005138
    13   Atom        0.026283      0.029153     -0.012593
    14   Atom        0.004065     -0.000921     -0.000784
    15   Atom       -0.000830     -0.000187      0.000019
    16   Atom        0.000157     -0.000031      0.000055
    17   Atom        0.000264     -0.000199     -0.000040
    18   Atom        0.000230      0.000220      0.000045
    19   Atom       -0.000131     -0.000038     -0.000001
 --------------------------------------------------------


 ---------------------------------------------------------------------------------
              Anisotropic Spin Dipole Couplings in Principal Axis System
 ---------------------------------------------------------------------------------

       Atom             a.u.   MegaHertz   Gauss  10(-4) cm-1        Axes

              Baa    -0.0053    -0.707    -0.252    -0.236 -0.0591  0.9982 -0.0056
     1 C(13)  Bbb    -0.0016    -0.218    -0.078    -0.073  0.9829  0.0592  0.1745
              Bcc     0.0069     0.925     0.330     0.309 -0.1745 -0.0048  0.9846
 
              Baa    -0.0052    -0.696    -0.248    -0.232  0.1870 -0.0091  0.9823
     2 C(13)  Bbb    -0.0009    -0.122    -0.044    -0.041 -0.1620  0.9860  0.0400
              Bcc     0.0061     0.818     0.292     0.273  0.9689  0.1667 -0.1829
 
              Baa    -0.0100    -1.349    -0.481    -0.450 -0.3916  0.7902 -0.4714
     3 C(13)  Bbb    -0.0012    -0.164    -0.058    -0.055 -0.5029  0.2452  0.8289
              Bcc     0.0113     1.512     0.540     0.504  0.7706  0.5616  0.3014
 
              Baa    -0.0154    -2.067    -0.738    -0.690 -0.0178 -0.5216  0.8530
     4 C(13)  Bbb    -0.0059    -0.795    -0.284    -0.265  0.0261  0.8526  0.5219
              Bcc     0.0213     2.863     1.021     0.955  0.9995 -0.0316  0.0016
 
              Baa    -0.0091    -1.224    -0.437    -0.408  0.3301  0.9405 -0.0801
     5 C(13)  Bbb    -0.0055    -0.733    -0.261    -0.244  0.6142 -0.1496  0.7748
              Bcc     0.0146     1.956     0.698     0.653  0.7168 -0.3050 -0.6271
 
              Baa    -0.0044    -0.594    -0.212    -0.198  0.1010 -0.0334  0.9943
     6 C(13)  Bbb    -0.0005    -0.071    -0.025    -0.024  0.1287  0.9915  0.0202
              Bcc     0.0050     0.666     0.238     0.222  0.9865 -0.1260 -0.1044
 
              Baa    -0.0039    -2.088    -0.745    -0.697 -0.2826 -0.4749  0.8334
     7 H(1)   Bbb    -0.0031    -1.659    -0.592    -0.553  0.6466  0.5475  0.5312
              Bcc     0.0070     3.747     1.337     1.250  0.7085 -0.6890 -0.1523
 
              Baa    -0.4442    32.142    11.469    10.721 -0.0879  0.3002  0.9498
     8 O(17)  Bbb    -0.4108    29.723    10.606     9.915  0.9908  0.1246  0.0523
              Bcc     0.8550   -61.865   -22.075   -20.636 -0.1026  0.9457 -0.3084
 
              Baa    -0.0101     0.733     0.261     0.244  0.1053  0.2875  0.9520
     9 O(17)  Bbb    -0.0081     0.583     0.208     0.195 -0.5113  0.8367 -0.1961
              Bcc     0.0182    -1.316    -0.470    -0.439  0.8529  0.4661 -0.2351
 
              Baa    -0.0013    -0.715    -0.255    -0.238  0.0499  0.0369  0.9981
    10 H(1)   Bbb    -0.0011    -0.611    -0.218    -0.204 -0.4247  0.9052 -0.0122
              Bcc     0.0025     1.326     0.473     0.442  0.9040  0.4233 -0.0608
 
              Baa    -0.5564   -74.657   -26.639   -24.903 -0.6072  0.2046  0.7677
    11 C(13)  Bbb    -0.5430   -72.864   -26.000   -24.305  0.7935  0.2045  0.5731
              Bcc     1.0993   147.521    52.639    49.208 -0.0398  0.9572 -0.2866
 
              Baa    -0.0683   -36.424   -12.997   -12.150  0.9304 -0.0944 -0.3542
    12 H(1)   Bbb    -0.0034    -1.816    -0.648    -0.606  0.0502  0.9900 -0.1321
              Bcc     0.0717    38.240    13.645    12.755  0.3632  0.1051  0.9258
 
              Baa    -0.0682   -36.402   -12.989   -12.143 -0.2714  0.2839  0.9196
    13 H(1)   Bbb    -0.0039    -2.100    -0.749    -0.701 -0.2231  0.9109 -0.3470
              Bcc     0.0722    38.503    13.739    12.843  0.9362  0.2994  0.1839
 
              Baa    -0.0031    -1.679    -0.599    -0.560  0.4416 -0.2032  0.8739
    14 H(1)   Bbb    -0.0026    -1.392    -0.497    -0.464  0.6445 -0.6058 -0.4665
              Bcc     0.0058     3.072     1.096     1.025  0.6242  0.7692 -0.1366
 
              Baa    -0.0011    -0.574    -0.205    -0.192  0.1094  0.1246  0.9862
    15 H(1)   Bbb    -0.0008    -0.417    -0.149    -0.139  0.3201  0.9348 -0.1536
              Bcc     0.0019     0.992     0.354     0.331  0.9410 -0.3325 -0.0624
 
              Baa    -0.0006    -0.087    -0.031    -0.029 -0.0774  0.7726 -0.6302
    16 C(13)  Bbb    -0.0005    -0.071    -0.025    -0.024 -0.0441  0.6288  0.7763
              Bcc     0.0012     0.158     0.056     0.053  0.9960  0.0879 -0.0146
 
              Baa    -0.0005    -0.269    -0.096    -0.090  0.1289  0.0643  0.9896
    17 H(1)   Bbb    -0.0005    -0.249    -0.089    -0.083 -0.1966  0.9798 -0.0380
              Bcc     0.0010     0.517     0.185     0.173  0.9720  0.1896 -0.1389
 
              Baa    -0.0005    -0.283    -0.101    -0.095 -0.0712  0.8917 -0.4471
    18 H(1)   Bbb    -0.0005    -0.269    -0.096    -0.090 -0.1990  0.4265  0.8823
              Bcc     0.0010     0.552     0.197     0.184  0.9774  0.1518  0.1471
 
              Baa    -0.0005    -0.262    -0.094    -0.087  0.0844  0.7481  0.6582
    19 H(1)   Bbb    -0.0005    -0.258    -0.092    -0.086 -0.0398 -0.6575  0.7524
              Bcc     0.0010     0.520     0.186     0.173  0.9956 -0.0897 -0.0258
 

 ---------------------------------------------------------------------------------

 1|1|UNPC-PC-20250526LCFF|SP|UB3LYP|6-311G(d,p)|C8H9O2(2)|ADMINISTRATOR
 |02-Dec-2025|0||# ub3lyp/6-311g(d,p) geom=connectivity temperature=823
 .15||Title Card Required||0,2|C,0,1.911462,-0.054974,0.052742|C,0,1.02
 6747,1.028307,0.00591|C,0,-0.349129,0.848138,-0.119451|C,0,-0.862738,-
 0.4585,-0.1877|C,0,0.007899,-1.537403,-0.146436|C,0,1.383658,-1.342904
 ,-0.031728|H,0,-0.414179,-2.532832,-0.216213|O,0,-2.209049,-0.702462,-
 0.371659|O,0,-1.226901,1.888293,-0.194091|H,0,1.416093,2.042809,0.0567
 15|C,0,-3.077701,-0.264313,0.591634|H,0,-2.696282,-0.106678,1.592658|H
 ,0,-4.102696,-0.534422,0.388031|H,0,-0.735085,2.71484,-0.149733|H,0,2.
 04502,-2.201373,-0.003498|C,0,3.395988,0.180963,0.194625|H,0,3.766812,
 0.865867,-0.573818|H,0,3.637069,0.622384,1.167171|H,0,3.953726,-0.7531
 28,0.107108||Version=EM64W-G16RevA.03|State=2-A|HF=-460.7597989|S2=0.7
 5343|S2-1=0.|S2A=0.750008|RMSD=8.839e-009|Dipole=0.7817684,0.4811974,0
 .3630029|Quadrupole=-0.5803747,4.2661032,-3.6857284,1.1443213,-1.50826
 82,-0.0794|PG=C01 [X(C8H9O2)]||@


 KEEP CLOSE TO NATURES HEART, YOURSELF;
 AND BREAK CLEAR AWAY, ONCE IN A WHILE, AND
 CLIMB A MOUNTAIN OR SPEND A WEEK IN THE
 WOODS.  WASH YOUR SPIRIT CLEAN...
                                         -- JOHN MUIR
 Job cpu time:       0 days  0 hours  0 minutes 37.0 seconds.
 Elapsed time:       0 days  0 hours  0 minutes 36.4 seconds.
 File lengths (MBytes):  RWF=     57 Int=      0 D2E=      0 Chk=      5 Scr=      1
 Normal termination of Gaussian 16 at Tue Dec 02 11:35:22 2025.
