 Entering Link 1 = D:\Gaussian\G16W\l1.exe PID=     42492.
  
 Copyright (c) 1988,1990,1992,1993,1995,1998,2003,2009,2016,
            Gaussian, Inc.  All Rights Reserved.
  
 This is part of the Gaussian(R) 16 program.  It is based on
 the Gaussian(R) 09 system (copyright 2009, Gaussian, Inc.),
 the Gaussian(R) 03 system (copyright 2003, Gaussian, Inc.),
 the Gaussian(R) 98 system (copyright 1998, Gaussian, Inc.),
 the Gaussian(R) 94 system (copyright 1995, Gaussian, Inc.),
 the Gaussian 92(TM) system (copyright 1992, Gaussian, Inc.),
 the Gaussian 90(TM) system (copyright 1990, Gaussian, Inc.),
 the Gaussian 88(TM) system (copyright 1988, Gaussian, Inc.),
 the Gaussian 86(TM) system (copyright 1986, Carnegie Mellon
 University), and the Gaussian 82(TM) system (copyright 1983,
 Carnegie Mellon University). Gaussian is a federally registered
 trademark of Gaussian, Inc.
  
 This software contains proprietary and confidential information,
 including trade secrets, belonging to Gaussian, Inc.
  
 This software is provided under written license and may be
 used, copied, transmitted, or stored only in accord with that
 written license.
  
 The following legend is applicable only to US Government
 contracts under FAR:
  
                    RESTRICTED RIGHTS LEGEND
  
 Use, reproduction and disclosure by the US Government is
 subject to restrictions as set forth in subparagraphs (a)
 and (c) of the Commercial Computer Software - Restricted
 Rights clause in FAR 52.227-19.
  
 Gaussian, Inc.
 340 Quinnipiac St., Bldg. 40, Wallingford CT 06492
  
  
 ---------------------------------------------------------------
 Warning -- This program may not be used in any manner that
 competes with the business of Gaussian, Inc. or will provide
 assistance to any competitor of Gaussian, Inc.  The licensee
 of this program is prohibited from giving any competitor of
 Gaussian, Inc. access to this program.  By using this program,
 the user acknowledges that Gaussian, Inc. is engaged in the
 business of creating and licensing software in the field of
 computational chemistry and represents and warrants to the
 licensee that it is not a competitor of Gaussian, Inc. and that
 it will not use this program in any manner prohibited above.
 ---------------------------------------------------------------
  

 Cite this work as:
 Gaussian 16, Revision A.03,
 M. J. Frisch, G. W. Trucks, H. B. Schlegel, G. E. Scuseria, 
 M. A. Robb, J. R. Cheeseman, G. Scalmani, V. Barone, 
 G. A. Petersson, H. Nakatsuji, X. Li, M. Caricato, A. V. Marenich, 
 J. Bloino, B. G. Janesko, R. Gomperts, B. Mennucci, H. P. Hratchian, 
 J. V. Ortiz, A. F. Izmaylov, J. L. Sonnenberg, D. Williams-Young, 
 F. Ding, F. Lipparini, F. Egidi, J. Goings, B. Peng, A. Petrone, 
 T. Henderson, D. Ranasinghe, V. G. Zakrzewski, J. Gao, N. Rega, 
 G. Zheng, W. Liang, M. Hada, M. Ehara, K. Toyota, R. Fukuda, 
 J. Hasegawa, M. Ishida, T. Nakajima, Y. Honda, O. Kitao, H. Nakai, 
 T. Vreven, K. Throssell, J. A. Montgomery, Jr., J. E. Peralta, 
 F. Ogliaro, M. J. Bearpark, J. J. Heyd, E. N. Brothers, K. N. Kudin, 
 V. N. Staroverov, T. A. Keith, R. Kobayashi, J. Normand, 
 K. Raghavachari, A. P. Rendell, J. C. Burant, S. S. Iyengar, 
 J. Tomasi, M. Cossi, J. M. Millam, M. Klene, C. Adamo, R. Cammi, 
 J. W. Ochterski, R. L. Martin, K. Morokuma, O. Farkas, 
 J. B. Foresman, and D. J. Fox, Gaussian, Inc., Wallingford CT, 2016.
 
 ******************************************
 Gaussian 16:  EM64W-G16RevA.03 17-Dec-2016
                03-Dec-2025 
 ******************************************
 %nprocs=   4
 Will use up to    4 processors via shared memory.
 ------------------------------------
 #P B3LYP/6-31G* SCF=conver=7 out=wfn
 ------------------------------------
 1/38=1,172=1/1;
 2/12=2,17=6,18=5,40=1/2;
 3/5=1,6=6,7=1,11=2,25=1,30=1,74=-5/1,2,3;
 4//1;
 5/5=2,6=7,38=5/2;
 6/7=2,8=2,9=2,10=2,28=1/1;
 99/5=1,6=100,9=1/99;
 Leave Link    1 at Wed Dec 03 16:27:05 2025, MaxMem=           0 cpu:               0.0 elap:               0.1
 (Enter D:\Gaussian\G16W\l101.exe)
 ----------------------------------------------------
 Generated by Multiwfn (http://sobereva.com/multiwfn)
 ----------------------------------------------------
 Symbolic Z-matrix:
 Charge = -1 Multiplicity = 2
 C                     1.26714  -0.57843   0.00072 
 C                     1.1613    0.81244   0.00629 
 C                    -0.09379   1.41796   0.00093 
 C                    -1.2521    0.63974  -0.00879 
 C                    -1.16386  -0.75387  -0.01148 
 C                     0.10006  -1.34885  -0.00913 
 H                     0.17743  -2.43136  -0.01652 
 O                    -0.13098   2.78567   0.00204 
 H                    -1.04911   3.07472  -0.00049 
 H                    -2.22647   1.12247  -0.01629 
 C                     2.6285   -1.23307   0.00162 
 H                     3.21184  -0.93316  -0.87431 
 H                     3.20385  -0.94625   0.88719 
 H                     2.54653  -2.32153  -0.00672 
 H                     2.04291   1.44358   0.01039 
 C                    -2.41709  -1.5965    0.00965 
 H                    -2.81895  -1.67713   1.02561 
 H                    -3.20112  -1.1637   -0.61724 
 H                    -2.22002  -2.60957  -0.34689 
 
 ITRead=  0  0  0  0  0  0  0  0  0  0  0  0  0  0  0  0  0  0  0
 MicOpt= -1 -1 -1 -1 -1 -1 -1 -1 -1 -1 -1 -1 -1 -1 -1 -1 -1 -1 -1
 NAtoms=     19 NQM=       19 NQMF=       0 NMMI=      0 NMMIF=      0
                NMic=       0 NMicF=      0.
                    Isotopes and Nuclear Properties:
 (Nuclear quadrupole moments (NQMom) in fm**2, nuclear magnetic moments (NMagM)
  in nuclear magnetons)

  Atom         1           2           3           4           5           6           7           8           9          10
 IAtWgt=          12          12          12          12          12          12           1          16           1           1
 AtmWgt=  12.0000000  12.0000000  12.0000000  12.0000000  12.0000000  12.0000000   1.0078250  15.9949146   1.0078250   1.0078250
 NucSpn=           0           0           0           0           0           0           1           0           1           1
 AtZEff=   0.0000000   0.0000000   0.0000000   0.0000000   0.0000000   0.0000000   0.0000000   0.0000000   0.0000000   0.0000000
 NQMom=    0.0000000   0.0000000   0.0000000   0.0000000   0.0000000   0.0000000   0.0000000   0.0000000   0.0000000   0.0000000
 NMagM=    0.0000000   0.0000000   0.0000000   0.0000000   0.0000000   0.0000000   2.7928460   0.0000000   2.7928460   2.7928460
 AtZNuc=   6.0000000   6.0000000   6.0000000   6.0000000   6.0000000   6.0000000   1.0000000   8.0000000   1.0000000   1.0000000

  Atom        11          12          13          14          15          16          17          18          19
 IAtWgt=          12           1           1           1           1          12           1           1           1
 AtmWgt=  12.0000000   1.0078250   1.0078250   1.0078250   1.0078250  12.0000000   1.0078250   1.0078250   1.0078250
 NucSpn=           0           1           1           1           1           0           1           1           1
 AtZEff=   0.0000000   0.0000000   0.0000000   0.0000000   0.0000000   0.0000000   0.0000000   0.0000000   0.0000000
 NQMom=    0.0000000   0.0000000   0.0000000   0.0000000   0.0000000   0.0000000   0.0000000   0.0000000   0.0000000
 NMagM=    0.0000000   2.7928460   2.7928460   2.7928460   2.7928460   0.0000000   2.7928460   2.7928460   2.7928460
 AtZNuc=   6.0000000   1.0000000   1.0000000   1.0000000   1.0000000   6.0000000   1.0000000   1.0000000   1.0000000
 Leave Link  101 at Wed Dec 03 16:27:05 2025, MaxMem=   104857600 cpu:               0.0 elap:               0.1
 (Enter D:\Gaussian\G16W\l202.exe)
                          Input orientation:                          
 ---------------------------------------------------------------------
 Center     Atomic      Atomic             Coordinates (Angstroms)
 Number     Number       Type             X           Y           Z
 ---------------------------------------------------------------------
      1          6           0        1.267136   -0.578427    0.000716
      2          6           0        1.161301    0.812442    0.006294
      3          6           0       -0.093785    1.417958    0.000926
      4          6           0       -1.252100    0.639737   -0.008785
      5          6           0       -1.163856   -0.753872   -0.011480
      6          6           0        0.100057   -1.348851   -0.009125
      7          1           0        0.177426   -2.431358   -0.016518
      8          8           0       -0.130979    2.785674    0.002044
      9          1           0       -1.049105    3.074716   -0.000487
     10          1           0       -2.226471    1.122470   -0.016291
     11          6           0        2.628496   -1.233068    0.001620
     12          1           0        3.211839   -0.933158   -0.874305
     13          1           0        3.203848   -0.946253    0.887191
     14          1           0        2.546526   -2.321525   -0.006715
     15          1           0        2.042909    1.443579    0.010390
     16          6           0       -2.417093   -1.596498    0.009651
     17          1           0       -2.818949   -1.677134    1.025609
     18          1           0       -3.201117   -1.163698   -0.617239
     19          1           0       -2.220016   -2.609565   -0.346888
 ---------------------------------------------------------------------
                    Distance matrix (angstroms):
                    1          2          3          4          5
     1  C    0.000000
     2  C    1.394901   0.000000
     3  C    2.416125   1.393528   0.000000
     4  C    2.798314   2.419620   1.395498   0.000000
     5  C    2.437345   2.803571   2.421167   1.396403   0.000000
     6  C    1.398472   2.407834   2.773609   2.404748   1.396954
     7  H    2.149679   3.389804   3.858898   3.387511   2.147795
     8  O    3.643062   2.358739   1.368222   2.421172   3.687195
     9  H    4.325555   3.162882   1.912455   2.443440   3.830323
    10  H    3.885696   3.402003   2.153128   1.087422   2.156347
    11  C    1.510582   2.517299   3.799836   4.308890   3.822530
    12  H    2.161797   2.833245   4.149810   4.811432   4.463554
    13  H    2.161478   2.835663   4.153233   4.813898   4.463346
    14  H    2.162241   3.426480   4.577667   4.816496   4.027964
    15  H    2.165739   1.084243   2.136869   3.391698   3.887494
    16  C    3.822315   4.313688   3.805888   2.521566   1.510321
    17  H    4.353579   4.804101   4.249246   2.982093   2.160393
    18  H    4.548593   4.829556   4.086880   2.724199   2.164563
    19  H    4.050504   4.823710   4.567579   3.407219   2.161381
                    6          7          8          9         10
     6  C    0.000000
     7  H    1.085294   0.000000
     8  O    4.140990   5.226173   0.000000
     9  H    4.570404   5.641054   0.962552   0.000000
    10  H    3.394144   4.290503   2.675382   2.279848   0.000000
    11  C    2.531111   2.728364   4.874935   5.664076   5.396257
    12  H    3.256459   3.491141   5.076626   5.914580   5.876820
    13  H    3.255608   3.490194   5.082503   5.919778   5.880838
    14  H    2.632738   2.371665   5.766506   6.484444   5.885804
    15  H    3.401870   4.300685   2.554815   3.495894   4.281522
    16  C    2.529373   2.725657   4.942652   4.867416   2.725765
    17  H    3.114328   3.260850   5.309381   5.173519   3.045385
    18  H    3.361820   3.658194   5.040516   4.793297   2.556880
    19  H    2.661996   2.426650   5.796070   5.813955   3.746655
                   11         12         13         14         15
    11  C    0.000000
    12  H    1.094294   0.000000
    13  H    1.094317   1.761563   0.000000
    14  H    1.091571   1.767178   1.767063   0.000000
    15  H    2.739969   2.792483   2.797831   3.798675   0.000000
    16  C    5.058667   5.736399   5.726070   5.016318   5.397563
    17  H    5.560612   6.366599   6.068561   5.501750   5.865764
    18  H    5.862780   6.422245   6.582869   5.894803   5.889959
    19  H    5.052155   5.709077   5.805847   4.787338   5.893060
                   16         17         18         19
    16  C    0.000000
    17  H    1.095519   0.000000
    18  H    1.093161   1.763127   0.000000
    19  H    1.091908   1.764057   1.768101   0.000000
 Stoichiometry    C8H10O(1-,2)
 Framework group  C1[X(C8H10O)]
 Deg. of freedom    51
 Full point group                 C1      NOp   1
 Largest Abelian subgroup         C1      NOp   1
 Largest concise Abelian subgroup C1      NOp   1
                         Standard orientation:                         
 ---------------------------------------------------------------------
 Center     Atomic      Atomic             Coordinates (Angstroms)
 Number     Number       Type             X           Y           Z
 ---------------------------------------------------------------------
      1          6           0        1.267136   -0.578427    0.000716
      2          6           0        1.161301    0.812442    0.006294
      3          6           0       -0.093785    1.417958    0.000926
      4          6           0       -1.252100    0.639737   -0.008785
      5          6           0       -1.163856   -0.753872   -0.011480
      6          6           0        0.100057   -1.348851   -0.009125
      7          1           0        0.177426   -2.431358   -0.016518
      8          8           0       -0.130979    2.785674    0.002044
      9          1           0       -1.049105    3.074716   -0.000487
     10          1           0       -2.226471    1.122470   -0.016291
     11          6           0        2.628496   -1.233068    0.001620
     12          1           0        3.211839   -0.933158   -0.874305
     13          1           0        3.203848   -0.946253    0.887191
     14          1           0        2.546526   -2.321525   -0.006715
     15          1           0        2.042909    1.443579    0.010390
     16          6           0       -2.417093   -1.596498    0.009651
     17          1           0       -2.818949   -1.677134    1.025609
     18          1           0       -3.201117   -1.163698   -0.617239
     19          1           0       -2.220016   -2.609565   -0.346888
 ---------------------------------------------------------------------
 Rotational constants (GHZ):           1.7897464           1.7534047           0.8955346
 Leave Link  202 at Wed Dec 03 16:27:05 2025, MaxMem=   104857600 cpu:               0.0 elap:               0.0
 (Enter D:\Gaussian\G16W\l301.exe)
 Standard basis: 6-31G(d) (6D, 7F)
 Ernie: Thresh=  0.10000D-02 Tol=  0.10000D-05 Strict=F.
 There are   155 symmetry adapted cartesian basis functions of A   symmetry.
 There are   155 symmetry adapted basis functions of A   symmetry.
   155 basis functions,   292 primitive gaussians,   155 cartesian basis functions
    34 alpha electrons       33 beta electrons
       nuclear repulsion energy       421.8005378061 Hartrees.
 IExCor=  402 DFT=T Ex+Corr=B3LYP ExCW=0 ScaHFX=  0.200000
 ScaDFX=  0.800000  0.720000  1.000000  0.810000 ScalE2=  1.000000  1.000000
 IRadAn=      5 IRanWt=     -1 IRanGd=            0 ICorTp=0 IEmpDi=  4
 NAtoms=   19 NActive=   19 NUniq=   19 SFac= 1.00D+00 NAtFMM=   60 NAOKFM=F Big=F
 Integral buffers will be    131072 words long.
 Raffenetti 2 integral format.
 Two-electron integral symmetry is turned on.
 Leave Link  301 at Wed Dec 03 16:27:05 2025, MaxMem=   104857600 cpu:               0.0 elap:               0.1
 (Enter D:\Gaussian\G16W\l302.exe)
 NPDir=0 NMtPBC=     1 NCelOv=     1 NCel=       1 NClECP=     1 NCelD=      1
         NCelK=      1 NCelE2=     1 NClLst=     1 CellRange=     0.0.
 One-electron integrals computed using PRISM.
 One-electron integral symmetry used in STVInt
 NBasis=   155 RedAO= T EigKep=  4.04D-04  NBF=   155
 NBsUse=   155 1.00D-06 EigRej= -1.00D+00 NBFU=   155
 Precomputing XC quadrature grid using
 IXCGrd= 4 IRadAn=           5 IRanWt=          -1 IRanGd=           0 AccXCQ= 0.00D+00.
 Generated NRdTot=       0 NPtTot=           0 NUsed=           0 NTot=          32
 NSgBfM=   155   155   155   155   155 MxSgAt=    19 MxSgA2=    19.
 Leave Link  302 at Wed Dec 03 16:27:06 2025, MaxMem=   104857600 cpu:               1.0 elap:               0.3
 (Enter D:\Gaussian\G16W\l303.exe)
 DipDrv:  MaxL=1.
 Leave Link  303 at Wed Dec 03 16:27:06 2025, MaxMem=   104857600 cpu:               0.0 elap:               0.1
 (Enter D:\Gaussian\G16W\l401.exe)
 ExpMin= 1.61D-01 ExpMax= 5.48D+03 ExpMxC= 8.25D+02 IAcc=3 IRadAn=         5 AccDes= 0.00D+00
 Harris functional with IExCor=  402 and IRadAn=       5 diagonalized for initial guess.
 HarFok:  IExCor=  402 AccDes= 0.00D+00 IRadAn=         5 IDoV= 1 UseB2=F ITyADJ=14
 ICtDFT=  3500011 ScaDFX=  1.000000  1.000000  1.000000  1.000000
 FoFCou: FMM=F IPFlag=           0 FMFlag=      100000 FMFlg1=           0
         NFxFlg=           0 DoJE=T BraDBF=F KetDBF=T FulRan=T
         wScrn=  0.000000 ICntrl=       500 IOpCl=  0 I1Cent=   200000004 NGrid=           0
         NMat0=    1 NMatS0=      1 NMatT0=    0 NMatD0=    1 NMtDS0=    0 NMtDT0=    0
 Petite list used in FoFCou.
 Harris En= -386.307095640468    
 JPrj=0 DoOrth=F DoCkMO=F.
 Initial guess <Sx>= 0.0000 <Sy>= 0.0000 <Sz>= 0.5000 <S**2>= 0.7500 S= 0.5000
 Leave Link  401 at Wed Dec 03 16:27:07 2025, MaxMem=   104857600 cpu:               1.0 elap:               1.1
 (Enter D:\Gaussian\G16W\l502.exe)
 Integral symmetry usage will be decided dynamically.
 UHF open shell SCF:
 Using DIIS extrapolation, IDIIS=  1040.
 NGot=   104857600 LenX=   104806718 LenY=   104782252
 Requested convergence on RMS density matrix=1.00D-07 within 128 cycles.
 Requested convergence on MAX density matrix=1.00D-05.
 Requested convergence on             energy=1.00D-05.
 No special actions if energy rises.
 Fock matrices will be formed incrementally for  20 cycles.
 Integral accuracy reduced to 1.0D-05 until final iterations.

 Cycle   1  Pass 0  IDiag  1:
 FoFJK:  IHMeth= 1 ICntrl=       0 DoSepK=F KAlg= 0 I1Cent=           0 FoldK=F
 IRaf= 940000000 NMat=       1 IRICut=       1 DoRegI=T DoRafI=F ISym2E= 0 IDoP0=0 IntGTp=1.
 FoFCou: FMM=F IPFlag=           0 FMFlag=      100000 FMFlg1=           0
         NFxFlg=           0 DoJE=F BraDBF=F KetDBF=F FulRan=T
         wScrn=  0.000000 ICntrl=         0 IOpCl=  1 I1Cent=           0 NGrid=           0
         NMat0=    1 NMatS0=      1 NMatT0=    0 NMatD0=    1 NMtDS0=    0 NMtDT0=    0
 Symmetry not used in FoFCou.
 E= -385.588159457612    
 DIIS: error= 5.63D-02 at cycle   1 NSaved=   1.
 NSaved= 1 IEnMin= 1 EnMin= -385.588159457612     IErMin= 1 ErrMin= 5.63D-02
 ErrMax= 5.63D-02  0.00D+00 EMaxC= 1.00D-01 BMatC= 1.54D+00 BMatP= 1.54D+00
 IDIUse=3 WtCom= 4.37D-01 WtEn= 5.63D-01
 Coeff-Com:  0.100D+01
 Coeff-En:   0.100D+01
 Coeff:      0.100D+01
 Gap=     0.045 Goal=   None    Shift=    0.000
 Gap=     0.269 Goal=   None    Shift=    0.000
 GapD=    0.045 DampG=0.250 DampE=0.500 DampFc=0.2500 IDamp=-1.
 Damping current iteration by 2.50D-01
 RMSDP=2.64D-02 MaxDP=2.53D+00              OVMax= 9.79D-01

 Cycle   2  Pass 0  IDiag  1:
 RMSU=  6.60D-03    CP:  9.90D-01
 E= -385.741899773082     Delta-E=       -0.153740315470 Rises=F Damp=T
 DIIS: error= 2.63D-02 at cycle   2 NSaved=   2.
 NSaved= 2 IEnMin= 2 EnMin= -385.741899773082     IErMin= 2 ErrMin= 2.63D-02
 ErrMax= 2.63D-02  0.00D+00 EMaxC= 1.00D-01 BMatC= 3.36D-01 BMatP= 1.54D+00
 IDIUse=3 WtCom= 7.37D-01 WtEn= 2.63D-01
 Coeff-Com: -0.688D+00 0.169D+01
 Coeff-En:   0.000D+00 0.100D+01
 Coeff:     -0.507D+00 0.151D+01
 Gap=    -0.074 Goal=   None    Shift=    0.000
 Gap=     0.332 Goal=   None    Shift=    0.000
 RMSDP=7.52D-03 MaxDP=5.90D-01 DE=-1.54D-01 OVMax= 9.92D-01

 Cycle   3  Pass 0  IDiag  1:
 RMSU=  5.78D-03    CP:  9.74D-01  2.74D-01
 E= -385.965839522180     Delta-E=       -0.223939749098 Rises=F Damp=F
 DIIS: error= 2.69D-02 at cycle   3 NSaved=   3.
 NSaved= 3 IEnMin= 3 EnMin= -385.965839522180     IErMin= 2 ErrMin= 2.63D-02
 ErrMax= 2.69D-02  0.00D+00 EMaxC= 1.00D-01 BMatC= 2.36D-01 BMatP= 3.36D-01
 IDIUse=3 WtCom= 7.31D-01 WtEn= 2.69D-01
 Coeff-Com: -0.437D+00 0.106D+01 0.372D+00
 Coeff-En:   0.000D+00 0.000D+00 0.100D+01
 Coeff:     -0.320D+00 0.778D+00 0.541D+00
 Gap=     0.066 Goal=   None    Shift=    0.000
 Gap=     0.256 Goal=   None    Shift=    0.000
 RMSDP=2.56D-03 MaxDP=7.51D-02 DE=-2.24D-01 OVMax= 1.16D-01

 Cycle   4  Pass 0  IDiag  1:
 RMSU=  2.33D-03    CP:  9.78D-01  3.03D-01  8.19D-01
 E= -386.014766697405     Delta-E=       -0.048927175225 Rises=F Damp=F
 DIIS: error= 1.07D-02 at cycle   4 NSaved=   4.
 NSaved= 4 IEnMin= 4 EnMin= -386.014766697405     IErMin= 4 ErrMin= 1.07D-02
 ErrMax= 1.07D-02  0.00D+00 EMaxC= 1.00D-01 BMatC= 5.02D-02 BMatP= 2.36D-01
 IDIUse=3 WtCom= 8.93D-01 WtEn= 1.07D-01
 Coeff-Com: -0.155D+00 0.333D+00 0.300D+00 0.522D+00
 Coeff-En:   0.000D+00 0.000D+00 0.115D+00 0.885D+00
 Coeff:     -0.138D+00 0.297D+00 0.280D+00 0.561D+00
 Gap=     0.070 Goal=   None    Shift=    0.000
 Gap=     0.229 Goal=   None    Shift=    0.000
 RMSDP=7.84D-04 MaxDP=2.91D-02 DE=-4.89D-02 OVMax= 3.57D-02

 Cycle   5  Pass 0  IDiag  1:
 RMSU=  5.46D-04    CP:  9.77D-01  3.07D-01  8.57D-01  7.78D-01
 E= -386.023789168172     Delta-E=       -0.009022470767 Rises=F Damp=F
 DIIS: error= 3.65D-03 at cycle   5 NSaved=   5.
 NSaved= 5 IEnMin= 5 EnMin= -386.023789168172     IErMin= 5 ErrMin= 3.65D-03
 ErrMax= 3.65D-03  0.00D+00 EMaxC= 1.00D-01 BMatC= 3.55D-03 BMatP= 5.02D-02
 IDIUse=3 WtCom= 9.63D-01 WtEn= 3.65D-02
 Coeff-Com: -0.502D-01 0.745D-01 0.289D-01 0.209D+00 0.738D+00
 Coeff-En:   0.000D+00 0.000D+00 0.000D+00 0.000D+00 0.100D+01
 Coeff:     -0.484D-01 0.718D-01 0.278D-01 0.201D+00 0.747D+00
 Gap=     0.074 Goal=   None    Shift=    0.000
 Gap=     0.230 Goal=   None    Shift=    0.000
 RMSDP=2.84D-04 MaxDP=8.94D-03 DE=-9.02D-03 OVMax= 1.68D-02

 Cycle   6  Pass 0  IDiag  1:
 RMSU=  1.92D-04    CP:  9.77D-01  3.13D-01  8.52D-01  8.61D-01  8.85D-01
 E= -386.024560392119     Delta-E=       -0.000771223948 Rises=F Damp=F
 DIIS: error= 8.42D-04 at cycle   6 NSaved=   6.
 NSaved= 6 IEnMin= 6 EnMin= -386.024560392119     IErMin= 6 ErrMin= 8.42D-04
 ErrMax= 8.42D-04  0.00D+00 EMaxC= 1.00D-01 BMatC= 6.22D-04 BMatP= 3.55D-03
 IDIUse=3 WtCom= 9.92D-01 WtEn= 8.42D-03
 Coeff-Com: -0.218D-01 0.263D-01-0.172D-01 0.544D-01 0.443D+00 0.515D+00
 Coeff-En:   0.000D+00 0.000D+00 0.000D+00 0.000D+00 0.175D-01 0.983D+00
 Coeff:     -0.216D-01 0.261D-01-0.171D-01 0.540D-01 0.439D+00 0.519D+00
 Gap=     0.075 Goal=   None    Shift=    0.000
 Gap=     0.230 Goal=   None    Shift=    0.000
 RMSDP=1.30D-04 MaxDP=4.06D-03 DE=-7.71D-04 OVMax= 7.33D-03

 Cycle   7  Pass 0  IDiag  1:
 RMSU=  8.55D-05    CP:  9.77D-01  3.14D-01  8.57D-01  8.53D-01  9.74D-01
                    CP:  5.92D-01
 E= -386.024705486648     Delta-E=       -0.000145094529 Rises=F Damp=F
 DIIS: error= 3.90D-04 at cycle   7 NSaved=   7.
 NSaved= 7 IEnMin= 7 EnMin= -386.024705486648     IErMin= 7 ErrMin= 3.90D-04
 ErrMax= 3.90D-04  0.00D+00 EMaxC= 1.00D-01 BMatC= 7.42D-05 BMatP= 6.22D-04
 IDIUse=3 WtCom= 9.96D-01 WtEn= 3.90D-03
 Coeff-Com: -0.734D-02 0.788D-02-0.160D-01-0.282D-02 0.134D+00 0.285D+00
 Coeff-Com:  0.598D+00
 Coeff-En:   0.000D+00 0.000D+00 0.000D+00 0.000D+00 0.000D+00 0.579D-02
 Coeff-En:   0.994D+00
 Coeff:     -0.731D-02 0.785D-02-0.159D-01-0.281D-02 0.134D+00 0.284D+00
 Coeff:      0.600D+00
 Gap=     0.075 Goal=   None    Shift=    0.000
 Gap=     0.230 Goal=   None    Shift=    0.000
 RMSDP=6.27D-05 MaxDP=1.76D-03 DE=-1.45D-04 OVMax= 4.25D-03

 Cycle   8  Pass 0  IDiag  1:
 RMSU=  3.85D-05    CP:  9.77D-01  3.15D-01  8.56D-01  8.60D-01  9.74D-01
                    CP:  7.84D-01  6.62D-01
 E= -386.024726632054     Delta-E=       -0.000021145406 Rises=F Damp=F
 DIIS: error= 2.07D-04 at cycle   8 NSaved=   8.
 NSaved= 8 IEnMin= 8 EnMin= -386.024726632054     IErMin= 8 ErrMin= 2.07D-04
 ErrMax= 2.07D-04  0.00D+00 EMaxC= 1.00D-01 BMatC= 2.29D-05 BMatP= 7.42D-05
 IDIUse=3 WtCom= 9.98D-01 WtEn= 2.07D-03
 Coeff-Com:  0.514D-03-0.107D-02-0.563D-02-0.153D-01-0.385D-01 0.299D-01
 Coeff-Com:  0.401D+00 0.629D+00
 Coeff-En:   0.000D+00 0.000D+00 0.000D+00 0.000D+00 0.000D+00 0.000D+00
 Coeff-En:   0.792D-01 0.921D+00
 Coeff:      0.513D-03-0.107D-02-0.562D-02-0.153D-01-0.384D-01 0.298D-01
 Coeff:      0.401D+00 0.629D+00
 Gap=     0.076 Goal=   None    Shift=    0.000
 Gap=     0.230 Goal=   None    Shift=    0.000
 RMSDP=2.73D-05 MaxDP=8.43D-04 DE=-2.11D-05 OVMax= 1.50D-03

 Cycle   9  Pass 0  IDiag  1:
 RMSU=  1.79D-05    CP:  9.77D-01  3.15D-01  8.55D-01  8.61D-01  9.91D-01
                    CP:  8.02D-01  8.42D-01  8.20D-01
 E= -386.024734576420     Delta-E=       -0.000007944366 Rises=F Damp=F
 DIIS: error= 6.64D-05 at cycle   9 NSaved=   9.
 NSaved= 9 IEnMin= 9 EnMin= -386.024734576420     IErMin= 9 ErrMin= 6.64D-05
 ErrMax= 6.64D-05  0.00D+00 EMaxC= 1.00D-01 BMatC= 1.76D-06 BMatP= 2.29D-05
 IDIUse=1 WtCom= 1.00D+00 WtEn= 0.00D+00
 Coeff-Com:  0.160D-02-0.189D-02 0.122D-02-0.503D-02-0.426D-01-0.506D-01
 Coeff-Com:  0.408D-01 0.221D+00 0.835D+00
 Coeff:      0.160D-02-0.189D-02 0.122D-02-0.503D-02-0.426D-01-0.506D-01
 Coeff:      0.408D-01 0.221D+00 0.835D+00
 Gap=     0.076 Goal=   None    Shift=    0.000
 Gap=     0.230 Goal=   None    Shift=    0.000
 RMSDP=1.31D-05 MaxDP=5.14D-04 DE=-7.94D-06 OVMax= 8.52D-04

 Cycle  10  Pass 0  IDiag  1:
 RMSU=  7.98D-06    CP:  9.77D-01  3.15D-01  8.55D-01  8.61D-01  9.94D-01
                    CP:  8.34D-01  8.83D-01  1.01D+00  1.09D+00
 E= -386.024735465263     Delta-E=       -0.000000888843 Rises=F Damp=F
 DIIS: error= 4.16D-05 at cycle  10 NSaved=  10.
 NSaved=10 IEnMin=10 EnMin= -386.024735465263     IErMin=10 ErrMin= 4.16D-05
 ErrMax= 4.16D-05  0.00D+00 EMaxC= 1.00D-01 BMatC= 7.95D-07 BMatP= 1.76D-06
 IDIUse=1 WtCom= 1.00D+00 WtEn= 0.00D+00
 Coeff-Com:  0.833D-03-0.867D-03 0.197D-02-0.565D-04-0.180D-01-0.352D-01
 Coeff-Com: -0.413D-01 0.156D-01 0.489D+00 0.588D+00
 Coeff:      0.833D-03-0.867D-03 0.197D-02-0.565D-04-0.180D-01-0.352D-01
 Coeff:     -0.413D-01 0.156D-01 0.489D+00 0.588D+00
 Gap=     0.076 Goal=   None    Shift=    0.000
 Gap=     0.230 Goal=   None    Shift=    0.000
 RMSDP=6.11D-06 MaxDP=1.77D-04 DE=-8.89D-07 OVMax= 5.11D-04

 Initial convergence to 1.0D-05 achieved.  Increase integral accuracy.
 Cycle  11  Pass 1  IDiag  1:
 E= -386.024738238656     Delta-E=       -0.000002773393 Rises=F Damp=F
 DIIS: error= 1.33D-05 at cycle   1 NSaved=   1.
 NSaved= 1 IEnMin= 1 EnMin= -386.024738238656     IErMin= 1 ErrMin= 1.33D-05
 ErrMax= 1.33D-05  0.00D+00 EMaxC= 1.00D-01 BMatC= 1.40D-07 BMatP= 1.40D-07
 IDIUse=1 WtCom= 1.00D+00 WtEn= 0.00D+00
 Coeff-Com:  0.100D+01
 Coeff:      0.100D+01
 Gap=     0.076 Goal=   None    Shift=    0.000
 Gap=     0.230 Goal=   None    Shift=    0.000
 RMSDP=6.11D-06 MaxDP=1.77D-04 DE=-2.77D-06 OVMax= 4.80D-04

 Cycle  12  Pass 1  IDiag  1:
 RMSU=  7.18D-06    CP:  1.00D+00
 E= -386.024738283968     Delta-E=       -0.000000045312 Rises=F Damp=F
 DIIS: error= 1.99D-05 at cycle   2 NSaved=   2.
 NSaved= 2 IEnMin= 2 EnMin= -386.024738283968     IErMin= 1 ErrMin= 1.33D-05
 ErrMax= 1.99D-05  0.00D+00 EMaxC= 1.00D-01 BMatC= 1.44D-07 BMatP= 1.40D-07
 IDIUse=1 WtCom= 1.00D+00 WtEn= 0.00D+00
 Coeff-Com:  0.504D+00 0.496D+00
 Coeff:      0.504D+00 0.496D+00
 Gap=     0.076 Goal=   None    Shift=    0.000
 Gap=     0.230 Goal=   None    Shift=    0.000
 RMSDP=2.64D-06 MaxDP=5.54D-05 DE=-4.53D-08 OVMax= 1.71D-04

 Cycle  13  Pass 1  IDiag  1:
 RMSU=  2.63D-06    CP:  1.00D+00  1.01D+00
 E= -386.024738331103     Delta-E=       -0.000000047134 Rises=F Damp=F
 DIIS: error= 7.03D-06 at cycle   3 NSaved=   3.
 NSaved= 3 IEnMin= 3 EnMin= -386.024738331103     IErMin= 3 ErrMin= 7.03D-06
 ErrMax= 7.03D-06  0.00D+00 EMaxC= 1.00D-01 BMatC= 2.56D-08 BMatP= 1.40D-07
 IDIUse=1 WtCom= 1.00D+00 WtEn= 0.00D+00
 Coeff-Com: -0.419D-01 0.257D+00 0.785D+00
 Coeff:     -0.419D-01 0.257D+00 0.785D+00
 Gap=     0.076 Goal=   None    Shift=    0.000
 Gap=     0.230 Goal=   None    Shift=    0.000
 RMSDP=2.61D-06 MaxDP=6.11D-05 DE=-4.71D-08 OVMax= 2.89D-04

 Cycle  14  Pass 1  IDiag  1:
 RMSU=  1.69D-06    CP:  1.00D+00  1.25D+00  1.39D+00
 E= -386.024738355090     Delta-E=       -0.000000023988 Rises=F Damp=F
 DIIS: error= 4.46D-06 at cycle   4 NSaved=   4.
 NSaved= 4 IEnMin= 4 EnMin= -386.024738355090     IErMin= 4 ErrMin= 4.46D-06
 ErrMax= 4.46D-06  0.00D+00 EMaxC= 1.00D-01 BMatC= 4.52D-09 BMatP= 2.56D-08
 IDIUse=1 WtCom= 1.00D+00 WtEn= 0.00D+00
 Coeff-Com: -0.707D-01-0.929D-02 0.122D+00 0.958D+00
 Coeff:     -0.707D-01-0.929D-02 0.122D+00 0.958D+00
 Gap=     0.076 Goal=   None    Shift=    0.000
 Gap=     0.230 Goal=   None    Shift=    0.000
 RMSDP=2.33D-06 MaxDP=5.88D-05 DE=-2.40D-08 OVMax= 2.67D-04

 Cycle  15  Pass 1  IDiag  1:
 RMSU=  4.72D-07    CP:  1.00D+00  1.43D+00  1.87D+00  1.80D+00
 E= -386.024738366798     Delta-E=       -0.000000011707 Rises=F Damp=F
 DIIS: error= 3.44D-06 at cycle   5 NSaved=   5.
 NSaved= 5 IEnMin= 5 EnMin= -386.024738366798     IErMin= 5 ErrMin= 3.44D-06
 ErrMax= 3.44D-06  0.00D+00 EMaxC= 1.00D-01 BMatC= 3.70D-09 BMatP= 4.52D-09
 IDIUse=1 WtCom= 1.00D+00 WtEn= 0.00D+00
 Coeff-Com: -0.755D-02-0.226D+00-0.599D+00 0.734D+00 0.110D+01
 Coeff:     -0.755D-02-0.226D+00-0.599D+00 0.734D+00 0.110D+01
 Gap=     0.076 Goal=   None    Shift=    0.000
 Gap=     0.230 Goal=   None    Shift=    0.000
 RMSDP=3.46D-06 MaxDP=8.18D-05 DE=-1.17D-08 OVMax= 3.95D-04

 Cycle  16  Pass 1  IDiag  1:
 RMSU=  3.06D-07    CP:  1.00D+00  1.71D+00  2.60D+00  3.00D+00  1.36D+00
 E= -386.024738377196     Delta-E=       -0.000000010399 Rises=F Damp=F
 DIIS: error= 1.42D-06 at cycle   6 NSaved=   6.
 NSaved= 6 IEnMin= 6 EnMin= -386.024738377196     IErMin= 6 ErrMin= 1.42D-06
 ErrMax= 1.42D-06  0.00D+00 EMaxC= 1.00D-01 BMatC= 6.72D-10 BMatP= 3.70D-09
 IDIUse=1 WtCom= 1.00D+00 WtEn= 0.00D+00
 Coeff-Com:  0.767D-02-0.115D+00-0.310D+00 0.262D+00 0.518D+00 0.637D+00
 Coeff:      0.767D-02-0.115D+00-0.310D+00 0.262D+00 0.518D+00 0.637D+00
 Gap=     0.076 Goal=   None    Shift=    0.000
 Gap=     0.230 Goal=   None    Shift=    0.000
 RMSDP=8.53D-07 MaxDP=2.33D-05 DE=-1.04D-08 OVMax= 9.74D-05

 Cycle  17  Pass 1  IDiag  1:
 RMSU=  5.06D-07    CP:  1.00D+00  1.77D+00  2.79D+00  3.00D+00  1.66D+00
                    CP:  1.13D+00
 E= -386.024738378297     Delta-E=       -0.000000001100 Rises=F Damp=F
 DIIS: error= 1.16D-06 at cycle   7 NSaved=   7.
 NSaved= 7 IEnMin= 7 EnMin= -386.024738378297     IErMin= 7 ErrMin= 1.16D-06
 ErrMax= 1.16D-06  0.00D+00 EMaxC= 1.00D-01 BMatC= 5.29D-10 BMatP= 6.72D-10
 IDIUse=1 WtCom= 1.00D+00 WtEn= 0.00D+00
 Coeff-Com:  0.775D-02 0.179D-01 0.562D-01-0.133D+00-0.191D+00 0.511D+00
 Coeff-Com:  0.731D+00
 Coeff:      0.775D-02 0.179D-01 0.562D-01-0.133D+00-0.191D+00 0.511D+00
 Coeff:      0.731D+00
 Gap=     0.076 Goal=   None    Shift=    0.000
 Gap=     0.230 Goal=   None    Shift=    0.000
 RMSDP=7.40D-07 MaxDP=1.83D-05 DE=-1.10D-09 OVMax= 8.44D-05

 Cycle  18  Pass 1  IDiag  1:
 RMSU=  1.98D-07    CP:  1.00D+00  1.83D+00  2.95D+00  3.00D+00  1.78D+00
                    CP:  1.67D+00  1.75D+00
 E= -386.024738379036     Delta-E=       -0.000000000739 Rises=F Damp=F
 DIIS: error= 4.71D-07 at cycle   8 NSaved=   8.
 NSaved= 8 IEnMin= 8 EnMin= -386.024738379036     IErMin= 8 ErrMin= 4.71D-07
 ErrMax= 4.71D-07  0.00D+00 EMaxC= 1.00D-01 BMatC= 9.58D-11 BMatP= 5.29D-10
 IDIUse=1 WtCom= 1.00D+00 WtEn= 0.00D+00
 Coeff-Com:  0.257D-03 0.664D-01 0.183D+00-0.164D+00-0.405D+00-0.493D-01
 Coeff-Com:  0.264D+00 0.110D+01
 Coeff:      0.257D-03 0.664D-01 0.183D+00-0.164D+00-0.405D+00-0.493D-01
 Coeff:      0.264D+00 0.110D+01
 Gap=     0.076 Goal=   None    Shift=    0.000
 Gap=     0.230 Goal=   None    Shift=    0.000
 RMSDP=6.28D-07 MaxDP=1.61D-05 DE=-7.39D-10 OVMax= 7.16D-05

 Cycle  19  Pass 1  IDiag  1:
 RMSU=  2.13D-07    CP:  1.00D+00  1.88D+00  3.00D+00  3.00D+00  1.97D+00
                    CP:  2.13D+00  2.44D+00  1.37D+00
 E= -386.024738379300     Delta-E=       -0.000000000264 Rises=F Damp=F
 DIIS: error= 2.44D-07 at cycle   9 NSaved=   9.
 NSaved= 9 IEnMin= 9 EnMin= -386.024738379300     IErMin= 9 ErrMin= 2.44D-07
 ErrMax= 2.44D-07  0.00D+00 EMaxC= 1.00D-01 BMatC= 4.42D-11 BMatP= 9.58D-11
 IDIUse=1 WtCom= 1.00D+00 WtEn= 0.00D+00
 Coeff-Com: -0.203D-02 0.395D-01 0.106D+00-0.601D-01-0.224D+00-0.163D+00
 Coeff-Com: -0.360D-01 0.724D+00 0.615D+00
 Coeff:     -0.203D-02 0.395D-01 0.106D+00-0.601D-01-0.224D+00-0.163D+00
 Coeff:     -0.360D-01 0.724D+00 0.615D+00
 Gap=     0.076 Goal=   None    Shift=    0.000
 Gap=     0.230 Goal=   None    Shift=    0.000
 RMSDP=1.70D-07 MaxDP=4.19D-06 DE=-2.64D-10 OVMax= 1.91D-05

 Cycle  20  Pass 1  IDiag  1:
 RMSU=  3.98D-08    CP:  1.00D+00  1.89D+00  3.00D+00  3.00D+00  2.00D+00
                    CP:  2.31D+00  2.62D+00  1.47D+00  1.41D+00
 E= -386.024738379341     Delta-E=       -0.000000000041 Rises=F Damp=F
 DIIS: error= 6.62D-08 at cycle  10 NSaved=  10.
 NSaved=10 IEnMin=10 EnMin= -386.024738379341     IErMin=10 ErrMin= 6.62D-08
 ErrMax= 6.62D-08  0.00D+00 EMaxC= 1.00D-01 BMatC= 1.96D-12 BMatP= 4.42D-11
 IDIUse=1 WtCom= 1.00D+00 WtEn= 0.00D+00
 Coeff-Com: -0.156D-03-0.541D-02-0.145D-01 0.199D-01 0.263D-01-0.594D-02
 Coeff-Com: -0.485D-01-0.726D-01 0.767D-01 0.102D+01
 Coeff:     -0.156D-03-0.541D-02-0.145D-01 0.199D-01 0.263D-01-0.594D-02
 Coeff:     -0.485D-01-0.726D-01 0.767D-01 0.102D+01
 Gap=     0.076 Goal=   None    Shift=    0.000
 Gap=     0.230 Goal=   None    Shift=    0.000
 RMSDP=4.88D-08 MaxDP=1.16D-06 DE=-4.09D-11 OVMax= 5.38D-06

 SCF Done:  E(UB3LYP) =  -386.024738379     A.U. after   20 cycles
            NFock= 20  Conv=0.49D-07     -V/T= 2.0082
 <Sx>= 0.0000 <Sy>= 0.0000 <Sz>= 0.5000 <S**2>= 0.7599 S= 0.5049
 <L.S>= 0.000000000000E+00
 KE= 3.828963187156D+02 PE=-1.753425362422D+03 EE= 5.627037675211D+02
 Annihilation of the first spin contaminant:
 S**2 before annihilation     0.7599,   after     0.7501
 Leave Link  502 at Wed Dec 03 16:27:45 2025, MaxMem=   104857600 cpu:              38.0 elap:              37.8
 (Enter D:\Gaussian\G16W\l601.exe)
 Copying SCF densities to generalized density rwf, IOpCl= 1 IROHF=0.

 **********************************************************************

            Population analysis using the SCF density.

 **********************************************************************

 Orbital symmetries:
 Alpha Orbitals:
       Occupied  (A) (A) (A) (A) (A) (A) (A) (A) (A) (A) (A) (A)
                 (A) (A) (A) (A) (A) (A) (A) (A) (A) (A) (A) (A)
                 (A) (A) (A) (A) (A) (A) (A) (A) (A) (A)
       Virtual   (A) (A) (A) (A) (A) (A) (A) (A) (A) (A) (A) (A)
                 (A) (A) (A) (A) (A) (A) (A) (A) (A) (A) (A) (A)
                 (A) (A) (A) (A) (A) (A) (A) (A) (A) (A) (A) (A)
                 (A) (A) (A) (A) (A) (A) (A) (A) (A) (A) (A) (A)
                 (A) (A) (A) (A) (A) (A) (A) (A) (A) (A) (A) (A)
                 (A) (A) (A) (A) (A) (A) (A) (A) (A) (A) (A) (A)
                 (A) (A) (A) (A) (A) (A) (A) (A) (A) (A) (A) (A)
                 (A) (A) (A) (A) (A) (A) (A) (A) (A) (A) (A) (A)
                 (A) (A) (A) (A) (A) (A) (A) (A) (A) (A) (A) (A)
                 (A) (A) (A) (A) (A) (A) (A) (A) (A) (A) (A) (A)
                 (A)
 Beta  Orbitals:
       Occupied  (A) (A) (A) (A) (A) (A) (A) (A) (A) (A) (A) (A)
                 (A) (A) (A) (A) (A) (A) (A) (A) (A) (A) (A) (A)
                 (A) (A) (A) (A) (A) (A) (A) (A) (A)
       Virtual   (A) (A) (A) (A) (A) (A) (A) (A) (A) (A) (A) (A)
                 (A) (A) (A) (A) (A) (A) (A) (A) (A) (A) (A) (A)
                 (A) (A) (A) (A) (A) (A) (A) (A) (A) (A) (A) (A)
                 (A) (A) (A) (A) (A) (A) (A) (A) (A) (A) (A) (A)
                 (A) (A) (A) (A) (A) (A) (A) (A) (A) (A) (A) (A)
                 (A) (A) (A) (A) (A) (A) (A) (A) (A) (A) (A) (A)
                 (A) (A) (A) (A) (A) (A) (A) (A) (A) (A) (A) (A)
                 (A) (A) (A) (A) (A) (A) (A) (A) (A) (A) (A) (A)
                 (A) (A) (A) (A) (A) (A) (A) (A) (A) (A) (A) (A)
                 (A) (A) (A) (A) (A) (A) (A) (A) (A) (A) (A) (A)
                 (A) (A)
 The electronic state is 2-A.
 Alpha  occ. eigenvalues --  -18.99810 -10.03898 -10.01113 -10.00866  -9.97118
 Alpha  occ. eigenvalues --   -9.96377  -9.96261  -9.95548  -9.94714  -0.87787
 Alpha  occ. eigenvalues --   -0.64143  -0.58249  -0.55202  -0.49786  -0.48854
 Alpha  occ. eigenvalues --   -0.41544  -0.37668  -0.32778  -0.29394  -0.27712
 Alpha  occ. eigenvalues --   -0.24813  -0.24174  -0.23082  -0.22807  -0.21036
 Alpha  occ. eigenvalues --   -0.20862  -0.19927  -0.17290  -0.14868  -0.13157
 Alpha  occ. eigenvalues --   -0.12252  -0.03858  -0.02186   0.14773
 Alpha virt. eigenvalues --    0.22355   0.22732   0.26026   0.27151   0.29597
 Alpha virt. eigenvalues --    0.30330   0.31268   0.32146   0.34179   0.35009
 Alpha virt. eigenvalues --    0.36167   0.39192   0.42316   0.42733   0.45901
 Alpha virt. eigenvalues --    0.50934   0.53001   0.57681   0.58616   0.59868
 Alpha virt. eigenvalues --    0.69157   0.69882   0.72126   0.73614   0.74658
 Alpha virt. eigenvalues --    0.75283   0.75527   0.77018   0.81302   0.82628
 Alpha virt. eigenvalues --    0.82890   0.84093   0.85244   0.87515   0.89775
 Alpha virt. eigenvalues --    0.92268   0.92709   0.93421   0.95506   0.97041
 Alpha virt. eigenvalues --    0.97856   1.02467   1.03430   1.04422   1.05867
 Alpha virt. eigenvalues --    1.06300   1.07792   1.08159   1.09664   1.11496
 Alpha virt. eigenvalues --    1.12616   1.13211   1.15252   1.20442   1.25566
 Alpha virt. eigenvalues --    1.27594   1.31593   1.36756   1.38759   1.41070
 Alpha virt. eigenvalues --    1.43733   1.46506   1.52906   1.55877   1.58691
 Alpha virt. eigenvalues --    1.59802   1.59942   1.60883   1.69291   1.71027
 Alpha virt. eigenvalues --    1.73380   1.91110   1.92646   1.98656   1.99754
 Alpha virt. eigenvalues --    2.04509   2.06259   2.07650   2.08059   2.09153
 Alpha virt. eigenvalues --    2.10591   2.10695   2.15023   2.16455   2.18122
 Alpha virt. eigenvalues --    2.29344   2.30873   2.33193   2.34025   2.37463
 Alpha virt. eigenvalues --    2.44338   2.46487   2.49795   2.52686   2.53670
 Alpha virt. eigenvalues --    2.55337   2.56590   2.58630   2.60421   2.62851
 Alpha virt. eigenvalues --    2.72401   2.76395   2.88178   2.88468   2.94554
 Alpha virt. eigenvalues --    3.00203   3.01973   3.07841   3.11241   3.19359
 Alpha virt. eigenvalues --    3.35825   3.64426   4.12192   4.31313   4.33455
 Alpha virt. eigenvalues --    4.39219   4.41744   4.44129   4.64027   4.65636
 Alpha virt. eigenvalues --    4.98480
  Beta  occ. eigenvalues --  -18.99829 -10.04016 -10.01156 -10.00905  -9.97268
  Beta  occ. eigenvalues --   -9.95966  -9.95794  -9.95205  -9.94339  -0.87828
  Beta  occ. eigenvalues --   -0.63495  -0.57622  -0.54862  -0.49672  -0.48229
  Beta  occ. eigenvalues --   -0.41407  -0.36912  -0.32490  -0.29109  -0.27481
  Beta  occ. eigenvalues --   -0.24244  -0.23713  -0.22850  -0.22682  -0.20918
  Beta  occ. eigenvalues --   -0.20733  -0.19636  -0.17090  -0.14645  -0.12921
  Beta  occ. eigenvalues --   -0.10937  -0.01197  -0.00643
  Beta virt. eigenvalues --    0.22338   0.22715   0.22770   0.26133   0.27303
  Beta virt. eigenvalues --    0.29889   0.30717   0.31804   0.32275   0.34784
  Beta virt. eigenvalues --    0.35493   0.36251   0.41384   0.42852   0.43309
  Beta virt. eigenvalues --    0.45998   0.51108   0.53312   0.58165   0.58916
  Beta virt. eigenvalues --    0.59969   0.69895   0.70291   0.72219   0.74269
  Beta virt. eigenvalues --    0.75128   0.75741   0.76179   0.77283   0.81758
  Beta virt. eigenvalues --    0.82970   0.83449   0.85318   0.85530   0.88034
  Beta virt. eigenvalues --    0.90115   0.92559   0.93083   0.93571   0.97018
  Beta virt. eigenvalues --    0.97867   0.98777   1.02607   1.03680   1.04790
  Beta virt. eigenvalues --    1.06247   1.06558   1.07919   1.08327   1.09767
  Beta virt. eigenvalues --    1.11687   1.12765   1.13194   1.15429   1.20933
  Beta virt. eigenvalues --    1.25868   1.27821   1.32162   1.36987   1.39025
  Beta virt. eigenvalues --    1.41468   1.44051   1.47594   1.53052   1.56302
  Beta virt. eigenvalues --    1.59007   1.60379   1.60696   1.61388   1.70493
  Beta virt. eigenvalues --    1.72152   1.73732   1.91252   1.92842   1.99110
  Beta virt. eigenvalues --    1.99952   2.05331   2.06627   2.07859   2.08539
  Beta virt. eigenvalues --    2.09267   2.10882   2.11185   2.15439   2.16831
  Beta virt. eigenvalues --    2.19026   2.29754   2.31442   2.33766   2.34657
  Beta virt. eigenvalues --    2.37979   2.45477   2.47039   2.49921   2.53480
  Beta virt. eigenvalues --    2.54080   2.55960   2.57509   2.58879   2.61304
  Beta virt. eigenvalues --    2.63101   2.73003   2.76622   2.89705   2.89811
  Beta virt. eigenvalues --    2.94688   3.00447   3.02328   3.08055   3.11434
  Beta virt. eigenvalues --    3.20183   3.36033   3.64701   4.12205   4.31798
  Beta virt. eigenvalues --    4.34154   4.39582   4.42185   4.44116   4.64891
  Beta virt. eigenvalues --    4.65897   4.99006
          Condensed to atoms (all electrons):
               1          2          3          4          5          6
     1  C    4.783125   0.414350   0.018311  -0.030393  -0.033056   0.544880
     2  C    0.414350   5.295793   0.530786  -0.111461  -0.026936  -0.034560
     3  C    0.018311   0.530786   4.546712   0.501999   0.018014  -0.060077
     4  C   -0.030393  -0.111461   0.501999   5.436157   0.375317  -0.041527
     5  C   -0.033056  -0.026936   0.018014   0.375317   4.838114   0.530594
     6  C    0.544880  -0.034560  -0.060077  -0.041527   0.530594   5.094018
     7  H   -0.053162   0.007632   0.000773   0.007850  -0.058193   0.316819
     8  O    0.001407  -0.042309   0.238634  -0.057025   0.004084   0.000890
     9  H   -0.000004   0.006393  -0.038462  -0.005556   0.000442  -0.000072
    10  H    0.000746   0.006529  -0.061972   0.308287  -0.047222   0.008091
    11  C    0.364436  -0.092352   0.007507   0.001569   0.007294  -0.049439
    12  H   -0.047597   0.005947  -0.000074  -0.000090   0.000167   0.000142
    13  H   -0.046950   0.006411  -0.000137  -0.000035  -0.000030  -0.000303
    14  H   -0.023257   0.003897  -0.000159  -0.000003  -0.000287  -0.004687
    15  H   -0.063153   0.324773  -0.050271   0.008723   0.000425   0.007489
    16  C    0.006925   0.001515   0.006269  -0.073566   0.350528  -0.056496
    17  H    0.000205  -0.000074  -0.000073   0.006863  -0.053922  -0.002513
    18  H   -0.000061  -0.000038  -0.000162   0.000211  -0.037081   0.003000
    19  H   -0.000153  -0.000005  -0.000096   0.003079  -0.025927  -0.003733
               7          8          9         10         11         12
     1  C   -0.053162   0.001407  -0.000004   0.000746   0.364436  -0.047597
     2  C    0.007632  -0.042309   0.006393   0.006529  -0.092352   0.005947
     3  C    0.000773   0.238634  -0.038462  -0.061972   0.007507  -0.000074
     4  C    0.007850  -0.057025  -0.005556   0.308287   0.001569  -0.000090
     5  C   -0.058193   0.004084   0.000442  -0.047222   0.007294   0.000167
     6  C    0.316819   0.000890  -0.000072   0.008091  -0.049439   0.000142
     7  H    0.773656   0.000004  -0.000002  -0.000264  -0.016452  -0.000051
     8  O    0.000004   8.314525   0.233821  -0.007760  -0.000077  -0.000001
     9  H   -0.000002   0.233821   0.422072   0.011376   0.000008   0.000000
    10  H   -0.000264  -0.007760   0.011376   0.797412   0.000014  -0.000001
    11  C   -0.016452  -0.000077   0.000008   0.000014   5.325703   0.318911
    12  H   -0.000051  -0.000001   0.000000  -0.000001   0.318911   0.752229
    13  H    0.000381   0.000000   0.000000   0.000000   0.316972  -0.083249
    14  H    0.010205   0.000000   0.000000   0.000000   0.345590  -0.034790
    15  H   -0.000241  -0.001902  -0.000554  -0.000285  -0.013983   0.002587
    16  C   -0.015038  -0.000079  -0.000021  -0.016369  -0.000352   0.000004
    17  H    0.000145   0.000000   0.000002   0.000636   0.000009   0.000001
    18  H    0.000203   0.000000   0.000001   0.007369   0.000004  -0.000001
    19  H    0.008983   0.000000   0.000000   0.000072  -0.000003  -0.000002
              13         14         15         16         17         18
     1  C   -0.046950  -0.023257  -0.063153   0.006925   0.000205  -0.000061
     2  C    0.006411   0.003897   0.324773   0.001515  -0.000074  -0.000038
     3  C   -0.000137  -0.000159  -0.050271   0.006269  -0.000073  -0.000162
     4  C   -0.000035  -0.000003   0.008723  -0.073566   0.006863   0.000211
     5  C   -0.000030  -0.000287   0.000425   0.350528  -0.053922  -0.037081
     6  C   -0.000303  -0.004687   0.007489  -0.056496  -0.002513   0.003000
     7  H    0.000381   0.010205  -0.000241  -0.015038   0.000145   0.000203
     8  O    0.000000   0.000000  -0.001902  -0.000079   0.000000   0.000000
     9  H    0.000000   0.000000  -0.000554  -0.000021   0.000002   0.000001
    10  H    0.000000   0.000000  -0.000285  -0.016369   0.000636   0.007369
    11  C    0.316972   0.345590  -0.013983  -0.000352   0.000009   0.000004
    12  H   -0.083249  -0.034790   0.002587   0.000004   0.000001  -0.000001
    13  H    0.753048  -0.034948   0.003147   0.000008  -0.000002   0.000000
    14  H   -0.034948   0.642142   0.000092  -0.000003   0.000000   0.000000
    15  H    0.003147   0.000092   0.768742   0.000016   0.000000   0.000000
    16  C    0.000008  -0.000003   0.000016   5.321527   0.323012   0.319159
    17  H   -0.000002   0.000000   0.000000   0.323012   0.764608  -0.077655
    18  H    0.000000   0.000000   0.000000   0.319159  -0.077655   0.726742
    19  H    0.000001  -0.000002   0.000000   0.348598  -0.045719  -0.026956
              19
     1  C   -0.000153
     2  C   -0.000005
     3  C   -0.000096
     4  C    0.003079
     5  C   -0.025927
     6  C   -0.003733
     7  H    0.008983
     8  O    0.000000
     9  H    0.000000
    10  H    0.000072
    11  C   -0.000003
    12  H   -0.000002
    13  H    0.000001
    14  H   -0.000002
    15  H    0.000000
    16  C    0.348598
    17  H   -0.045719
    18  H   -0.026956
    19  H    0.643558
          Atomic-Atomic Spin Densities.
               1          2          3          4          5          6
     1  C    0.427001  -0.153821  -0.003201   0.015278  -0.028427   0.017644
     2  C   -0.153821   0.464590  -0.000850  -0.031882   0.016161  -0.003448
     3  C   -0.003201  -0.000850  -0.095551   0.005829  -0.003491   0.004486
     4  C    0.015278  -0.031882   0.005829   0.438698  -0.164701   0.000132
     5  C   -0.028427   0.016161  -0.003491  -0.164701   0.507148  -0.001720
     6  C    0.017644  -0.003448   0.004486   0.000132  -0.001720  -0.143583
     7  H   -0.000995   0.000211  -0.000055   0.000172  -0.001886   0.002076
     8  O    0.000115  -0.001366   0.009836  -0.001312   0.000144  -0.000025
     9  H   -0.000013   0.000102   0.000191   0.000047   0.000014  -0.000001
    10  H   -0.000053  -0.000023  -0.000661   0.003808  -0.000584  -0.000148
    11  C    0.057826  -0.012960  -0.000141   0.000217  -0.000974  -0.001238
    12  H   -0.025209   0.008195  -0.000003  -0.000101   0.000347   0.000068
    13  H   -0.023650   0.008927  -0.000007  -0.000062   0.000065  -0.000582
    14  H   -0.001152   0.000071  -0.000002   0.000001   0.000006   0.000502
    15  H   -0.000413   0.004338  -0.000682  -0.000037  -0.000050  -0.000245
    16  C   -0.000817   0.000181  -0.000211  -0.010125   0.050996  -0.001756
    17  H    0.000338  -0.000113   0.000062   0.009423  -0.031097  -0.001023
    18  H    0.000062  -0.000037  -0.000045   0.003769  -0.015275   0.000961
    19  H    0.000029  -0.000002  -0.000004   0.000130  -0.003616   0.000793
               7          8          9         10         11         12
     1  C   -0.000995   0.000115  -0.000013  -0.000053   0.057826  -0.025209
     2  C    0.000211  -0.001366   0.000102  -0.000023  -0.012960   0.008195
     3  C   -0.000055   0.009836   0.000191  -0.000661  -0.000141  -0.000003
     4  C    0.000172  -0.001312   0.000047   0.003808   0.000217  -0.000101
     5  C   -0.001886   0.000144   0.000014  -0.000584  -0.000974   0.000347
     6  C    0.002076  -0.000025  -0.000001  -0.000148  -0.001238   0.000068
     7  H    0.003788   0.000000   0.000000   0.000007   0.000509  -0.000237
     8  O    0.000000  -0.012348   0.000328   0.000317   0.000001   0.000000
     9  H    0.000000   0.000328  -0.000796  -0.000286   0.000000   0.000000
    10  H    0.000007   0.000317  -0.000286  -0.020474   0.000000   0.000000
    11  C    0.000509   0.000001   0.000000   0.000000  -0.004920  -0.030235
    12  H   -0.000237   0.000000   0.000000   0.000000  -0.030235   0.121110
    13  H    0.000224   0.000000   0.000000   0.000000  -0.033542  -0.041088
    14  H   -0.000069   0.000000   0.000000   0.000000   0.002091  -0.000319
    15  H    0.000004   0.000252  -0.000010   0.000005   0.000603  -0.000301
    16  C    0.000944   0.000001   0.000001   0.000316  -0.000012  -0.000001
    17  H   -0.000384   0.000000   0.000001  -0.000629   0.000005   0.000001
    18  H    0.000139   0.000000  -0.000003   0.001198   0.000001   0.000000
    19  H    0.000192   0.000000   0.000000   0.000017   0.000001  -0.000001
              13         14         15         16         17         18
     1  C   -0.023650  -0.001152  -0.000413  -0.000817   0.000338   0.000062
     2  C    0.008927   0.000071   0.004338   0.000181  -0.000113  -0.000037
     3  C   -0.000007  -0.000002  -0.000682  -0.000211   0.000062  -0.000045
     4  C   -0.000062   0.000001  -0.000037  -0.010125   0.009423   0.003769
     5  C    0.000065   0.000006  -0.000050   0.050996  -0.031097  -0.015275
     6  C   -0.000582   0.000502  -0.000245  -0.001756  -0.001023   0.000961
     7  H    0.000224  -0.000069   0.000004   0.000944  -0.000384   0.000139
     8  O    0.000000   0.000000   0.000252   0.000001   0.000000   0.000000
     9  H    0.000000   0.000000  -0.000010   0.000001   0.000001  -0.000003
    10  H    0.000000   0.000000   0.000005   0.000316  -0.000629   0.001198
    11  C   -0.033542   0.002091   0.000603  -0.000012   0.000005   0.000001
    12  H   -0.041088  -0.000319  -0.000301  -0.000001   0.000001   0.000000
    13  H    0.122309  -0.000333   0.000288   0.000005  -0.000002   0.000000
    14  H   -0.000333  -0.000662  -0.000006   0.000000   0.000000   0.000000
    15  H    0.000288  -0.000006  -0.022601   0.000000   0.000000   0.000000
    16  C    0.000005   0.000000   0.000000  -0.016524  -0.025455  -0.027572
    17  H   -0.000002   0.000000   0.000000  -0.025455   0.129044  -0.036270
    18  H    0.000000   0.000000   0.000000  -0.027572  -0.036270   0.090412
    19  H    0.000001   0.000000   0.000000   0.002315  -0.007503   0.005928
              19
     1  C    0.000029
     2  C   -0.000002
     3  C   -0.000004
     4  C    0.000130
     5  C   -0.003616
     6  C    0.000793
     7  H    0.000192
     8  O    0.000000
     9  H    0.000000
    10  H    0.000017
    11  C    0.000001
    12  H   -0.000001
    13  H    0.000001
    14  H    0.000000
    15  H    0.000000
    16  C    0.002315
    17  H   -0.007503
    18  H    0.005928
    19  H    0.003975
 Mulliken charges and spin densities:
               1          2
     1  C    0.163401   0.280543
     2  C   -0.296290   0.298273
     3  C    0.342480  -0.084501
     4  C   -0.330398   0.269283
     5  C    0.157674   0.323059
     6  C   -0.252514  -0.127109
     7  H    0.016750   0.004638
     8  O   -0.684212  -0.004058
     9  H    0.370556  -0.000424
    10  H   -0.006659  -0.017188
    11  C   -0.515359  -0.022768
    12  H    0.085867   0.032222
    13  H    0.085686   0.032553
    14  H    0.096210   0.000126
    15  H    0.014396  -0.018855
    16  C   -0.515637  -0.027715
    17  H    0.084479   0.036396
    18  H    0.085264   0.023268
    19  H    0.098305   0.002255
 Sum of Mulliken charges =  -1.00000   1.00000
 Mulliken charges and spin densities with hydrogens summed into heavy atoms:
               1          2
     1  C    0.163401   0.280543
     2  C   -0.281894   0.279418
     3  C    0.342480  -0.084501
     4  C   -0.337057   0.252095
     5  C    0.157674   0.323059
     6  C   -0.235764  -0.122470
     8  O   -0.313656  -0.004482
    11  C   -0.247596   0.042134
    16  C   -0.247589   0.034204
 Electronic spatial extent (au):  <R**2>=           1337.0699
 Charge=             -1.0000 electrons
 Dipole moment (field-independent basis, Debye):
    X=             -1.3183    Y=              0.3850    Z=             -0.0259  Tot=              1.3736
 Quadrupole moment (field-independent basis, Debye-Ang):
   XX=            -69.2086   YY=            -65.2306   ZZ=            -61.0106
   XY=             -5.0971   XZ=              0.1496   YZ=              0.1209
 Traceless Quadrupole moment (field-independent basis, Debye-Ang):
   XX=             -4.0587   YY=             -0.0807   ZZ=              4.1393
   XY=             -5.0971   XZ=              0.1496   YZ=              0.1209
 Octapole moment (field-independent basis, Debye-Ang**2):
  XXX=             -5.9960  YYY=             12.8211  ZZZ=              0.0828  XYY=            -13.4337
  XXY=             25.2300  XXZ=             -0.7343  XZZ=             -0.4318  YZZ=              5.2334
  YYZ=             -0.5966  XYZ=             -0.4456
 Hexadecapole moment (field-independent basis, Debye-Ang**3):
 XXXX=          -1093.0376 YYYY=           -827.2794 ZZZZ=            -78.9937 XXXY=            -12.1523
 XXXZ=              2.5830 YYYX=            -60.3931 YYYZ=              1.7568 ZZZX=              0.0183
 ZZZY=              0.0455 XXYY=           -308.9795 XXZZ=           -183.7212 YYZZ=           -153.6808
 XXYZ=              1.4710 YYXZ=              1.3239 ZZXY=             -1.8611
 N-N= 4.218005378061D+02 E-N=-1.753425362893D+03  KE= 3.828963187156D+02
                          Isotropic Fermi Contact Couplings
        Atom                 a.u.       MegaHertz       Gauss      10(-4) cm-1
     1  C(13)              0.02795      31.42024      11.21152      10.48067
     2  C(13)              0.02604      29.27903      10.44749       9.76643
     3  C(13)             -0.01916     -21.53955      -7.68585      -7.18482
     4  C(13)              0.02276      25.58841       9.13058       8.53538
     5  C(13)              0.03285      36.93131      13.17801      12.31896
     6  C(13)             -0.02306     -25.92592      -9.25101      -8.64796
     7  H(1)               0.00109       4.85868       1.73370       1.62068
     8  O(17)             -0.00274       1.66116       0.59274       0.55410
     9  H(1)              -0.00013      -0.58085      -0.20726      -0.19375
    10  H(1)              -0.00450     -20.11541      -7.17768      -6.70978
    11  C(13)             -0.01251     -14.06510      -5.01878      -4.69161
    12  H(1)               0.00761      34.01105      12.13599      11.34486
    13  H(1)               0.00766      34.23582      12.21619      11.41984
    14  H(1)               0.00004       0.18249       0.06512       0.06087
    15  H(1)              -0.00499     -22.29553      -7.95560      -7.43699
    16  C(13)             -0.01351     -15.18316      -5.41773      -5.06456
    17  H(1)               0.01024      45.78004      16.33545      15.27058
    18  H(1)               0.00496      22.16445       7.90883       7.39327
    19  H(1)               0.00117       5.24782       1.87255       1.75048
 --------------------------------------------------------
       Center         ----  Spin Dipole Couplings  ----
                      3XX-RR        3YY-RR        3ZZ-RR
 --------------------------------------------------------
     1   Atom       -0.167061     -0.164296      0.331357
     2   Atom       -0.155131     -0.150981      0.306112
     3   Atom        0.039469      0.026850     -0.066319
     4   Atom       -0.142689     -0.138498      0.281187
     5   Atom       -0.189241     -0.185695      0.374937
     6   Atom        0.054878      0.033844     -0.088722
     7   Atom        0.005527      0.000850     -0.006377
     8   Atom        0.012591      0.021549     -0.034140
     9   Atom       -0.003608      0.006485     -0.002877
    10   Atom        0.013957     -0.012350     -0.001607
    11   Atom        0.003621     -0.002656     -0.000964
    12   Atom        0.007094     -0.003114     -0.003980
    13   Atom        0.007003     -0.003050     -0.003953
    14   Atom        0.000210      0.002758     -0.002968
    15   Atom        0.008078     -0.006909     -0.001169
    16   Atom        0.003340     -0.000713     -0.002627
    17   Atom        0.004830     -0.000867     -0.003963
    18   Atom        0.007115     -0.003135     -0.003980
    19   Atom       -0.001374      0.004402     -0.003028
 --------------------------------------------------------
                        XY            XZ            YZ
 --------------------------------------------------------
     1   Atom       -0.003771      0.001334      0.000465
     2   Atom        0.002607     -0.000779     -0.000926
     3   Atom        0.000612      0.000607      0.000413
     4   Atom       -0.003183     -0.012988      0.008384
     5   Atom        0.003846      0.004429      0.003228
     6   Atom        0.000988      0.001149      0.000786
     7   Atom        0.000359      0.000127     -0.000009
     8   Atom       -0.001858      0.000368     -0.000116
     9   Atom        0.000092     -0.000038     -0.000029
    10   Atom       -0.017462      0.001663     -0.000384
    11   Atom       -0.006063      0.000335     -0.000182
    12   Atom       -0.003197     -0.002886      0.001512
    13   Atom       -0.003234      0.002957     -0.001557
    14   Atom       -0.006669     -0.000020     -0.000014
    15   Atom        0.022160      0.000179      0.000056
    16   Atom        0.006623      0.002181     -0.000452
    17   Atom        0.005337     -0.003277     -0.002524
    18   Atom        0.004125      0.001795      0.001167
    19   Atom        0.006424      0.000865      0.000876
 --------------------------------------------------------


 ---------------------------------------------------------------------------------
              Anisotropic Spin Dipole Couplings in Principal Axis System
 ---------------------------------------------------------------------------------

       Atom             a.u.   MegaHertz   Gauss  10(-4) cm-1        Axes

              Baa    -0.1697   -22.772    -8.126    -7.596  0.8199  0.5725 -0.0027
     1 C(13)  Bbb    -0.1617   -21.694    -7.741    -7.236 -0.5725  0.8199  0.0008
              Bcc     0.3314    44.466    15.866    14.832  0.0027  0.0009  1.0000
 
              Baa    -0.1564   -20.986    -7.488    -7.000  0.9008 -0.4342  0.0006
     2 C(13)  Bbb    -0.1497   -20.092    -7.169    -6.702  0.4342  0.9008  0.0026
              Bcc     0.3061    41.078    14.658    13.702 -0.0017 -0.0020  1.0000
 
              Baa    -0.0663    -8.900    -3.176    -2.969 -0.0057 -0.0044  1.0000
     3 C(13)  Bbb     0.0268     3.599     1.284     1.201 -0.0485  0.9988  0.0041
              Bcc     0.0395     5.301     1.891     1.768  0.9988  0.0485  0.0059
 
              Baa    -0.1445   -19.396    -6.921    -6.470  0.8950  0.4456  0.0185
     4 C(13)  Bbb    -0.1372   -18.413    -6.570    -6.142 -0.4449  0.8950 -0.0317
              Bcc     0.2818    37.809    13.491    12.612 -0.0307  0.0202  0.9993
 
              Baa    -0.1917   -25.726    -9.180    -8.581  0.8434 -0.5373 -0.0035
     5 C(13)  Bbb    -0.1833   -24.594    -8.776    -8.204  0.5373  0.8433 -0.0091
              Bcc     0.3750    50.320    17.955    16.785  0.0079  0.0058  1.0000
 
              Baa    -0.0887   -11.908    -4.249    -3.972 -0.0080 -0.0063  0.9999
     6 C(13)  Bbb     0.0338     4.536     1.619     1.513 -0.0472  0.9989  0.0060
              Bcc     0.0549     7.372     2.630     2.459  0.9989  0.0471  0.0082
 
              Baa    -0.0064    -3.403    -1.214    -1.135 -0.0107  0.0018  0.9999
     7 H(1)   Bbb     0.0008     0.439     0.157     0.146 -0.0761  0.9971 -0.0026
              Bcc     0.0056     2.964     1.058     0.989  0.9970  0.0761  0.0105
 
              Baa    -0.0341     2.471     0.882     0.824 -0.0078  0.0018  1.0000
     8 O(17)  Bbb     0.0122    -0.884    -0.316    -0.295  0.9807  0.1955  0.0073
              Bcc     0.0219    -1.586    -0.566    -0.529 -0.1955  0.9807 -0.0033
 
              Baa    -0.0036    -1.927    -0.687    -0.643  0.9986 -0.0090  0.0517
     9 H(1)   Bbb    -0.0029    -1.534    -0.547    -0.512 -0.0517  0.0036  0.9987
              Bcc     0.0065     3.460     1.235     1.154  0.0092  1.0000 -0.0032
 
              Baa    -0.0211   -11.240    -4.011    -3.749  0.4469  0.8944 -0.0205
    10 H(1)   Bbb    -0.0017    -0.913    -0.326    -0.305 -0.0516  0.0487  0.9975
              Bcc     0.0228    12.154     4.337     4.054  0.8931 -0.4447  0.0679
 
              Baa    -0.0063    -0.851    -0.304    -0.284  0.5198  0.8543 -0.0035
    11 C(13)  Bbb    -0.0010    -0.132    -0.047    -0.044 -0.0373  0.0268  0.9989
              Bcc     0.0073     0.983     0.351     0.328  0.8535 -0.5192  0.0458
 
              Baa    -0.0051    -2.744    -0.979    -0.915  0.0589 -0.5354  0.8426
    12 H(1)   Bbb    -0.0037    -1.957    -0.698    -0.653  0.3657  0.7969  0.4808
              Bcc     0.0088     4.701     1.677     1.568  0.9289 -0.2798 -0.2427
 
              Baa    -0.0052    -2.748    -0.981    -0.917 -0.0661  0.5264  0.8477
    13 H(1)   Bbb    -0.0036    -1.946    -0.694    -0.649  0.3732  0.8009 -0.4682
              Bcc     0.0088     4.694     1.675     1.566  0.9254 -0.2854  0.2494
 
              Baa    -0.0053    -2.831    -1.010    -0.944  0.7706  0.6373  0.0102
    14 H(1)   Bbb    -0.0030    -1.583    -0.565    -0.528 -0.0078 -0.0067  0.9999
              Bcc     0.0083     4.415     1.575     1.473 -0.6373  0.7706  0.0002
 
              Baa    -0.0228   -12.170    -4.342    -4.059 -0.5830  0.8125  0.0027
    15 H(1)   Bbb    -0.0012    -0.624    -0.223    -0.208 -0.0042 -0.0063  1.0000
              Bcc     0.0240    12.794     4.565     4.268  0.8125  0.5829  0.0071
 
              Baa    -0.0064    -0.856    -0.305    -0.285 -0.5737  0.7041  0.4184
    16 C(13)  Bbb    -0.0021    -0.277    -0.099    -0.092  0.1459 -0.4148  0.8981
              Bcc     0.0084     1.133     0.404     0.378  0.8059  0.5763  0.1352
 
              Baa    -0.0054    -2.877    -1.027    -0.960  0.0692  0.4223  0.9038
    17 H(1)   Bbb    -0.0039    -2.087    -0.745    -0.696 -0.5773  0.7558 -0.3090
              Bcc     0.0093     4.964     1.771     1.656  0.8136  0.5004 -0.2961
 
              Baa    -0.0050    -2.651    -0.946    -0.884 -0.1775  0.7806 -0.5993
    18 H(1)   Bbb    -0.0039    -2.101    -0.750    -0.701 -0.3246  0.5284  0.7845
              Bcc     0.0089     4.752     1.695     1.585  0.9290  0.3338  0.1596
 
              Baa    -0.0056    -2.964    -1.058    -0.989  0.8399 -0.5329 -0.1027
    19 H(1)   Bbb    -0.0031    -1.668    -0.595    -0.556  0.0311 -0.1417  0.9894
              Bcc     0.0087     4.632     1.653     1.545  0.5418  0.8343  0.1024
 

 ---------------------------------------------------------------------------------

 No NMR shielding tensors so no spin-rotation constants.
 Leave Link  601 at Wed Dec 03 16:27:45 2025, MaxMem=   104857600 cpu:               0.0 elap:               0.2
 (Enter D:\Gaussian\G16W\l9999.exe)
 1|1|UNPC-PC-20250526LCFF|SP|UB3LYP|6-31G(d)|C8H10O1(1-,2)|ADMINISTRATO
 R|03-Dec-2025|0||#P B3LYP/6-31G* SCF=conver=7 out=wfn||Generated by Mu
 ltiwfn (http://sobereva.com/multiwfn)||-1,2|C,0,1.267136,-0.578427,0.0
 00716|C,0,1.161301,0.812442,0.006294|C,0,-0.093785,1.417958,0.000926|C
 ,0,-1.2521,0.639737,-0.008785|C,0,-1.163856,-0.753872,-0.01148|C,0,0.1
 00057,-1.348851,-0.009125|H,0,0.177426,-2.431358,-0.016518|O,0,-0.1309
 79,2.785674,0.002044|H,0,-1.049105,3.074716,-0.000487|H,0,-2.226471,1.
 12247,-0.016291|C,0,2.628496,-1.233068,0.00162|H,0,3.211839,-0.933158,
 -0.874305|H,0,3.203848,-0.946253,0.887191|H,0,2.546526,-2.321525,-0.00
 6715|H,0,2.042909,1.443579,0.01039|C,0,-2.417093,-1.596498,0.009651|H,
 0,-2.818949,-1.677134,1.025609|H,0,-3.201117,-1.163698,-0.617239|H,0,-
 2.220016,-2.609565,-0.346888||Version=EM64W-G16RevA.03|State=2-A|HF=-3
 86.0247384|S2=0.759914|S2-1=0.|S2A=0.750063|RMSD=4.878e-008|Dipole=-0.
 5186641,0.1514761,-0.0101872|Quadrupole=-3.0175104,-0.0599843,3.077494
 7,-3.7895332,0.1112259,0.0898859|PG=C01 [X(C8H10O1)]||@

 Writing a WFN file to "N+1.wfn"


 Fatherhood is pretending the present you love most is soap-on-a-rope.
 -- Bill Cosby
 Job cpu time:       0 days  0 hours  0 minutes 40.0 seconds.
 Elapsed time:       0 days  0 hours  0 minutes 39.9 seconds.
 File lengths (MBytes):  RWF=     29 Int=      0 D2E=      0 Chk=      3 Scr=      1
 Normal termination of Gaussian 16 at Wed Dec 03 16:27:45 2025.
