 Generated by Multiwfn (http://sobereva.com/multiwfn)
GAUSSIAN             67 MOL ORBITALS    292 PRIMITIVES       19 NUCLEI
  C    1    (CENTRE  1)   2.39454011 -1.09306851  0.00135302  CHARGE =  6.0
  C    2    (CENTRE  2)   2.19454109  1.53529298  0.01189391  CHARGE =  6.0
  C    3    (CENTRE  3)  -0.17722765  2.67955251  0.00174986  CHARGE =  6.0
  C    4    (CENTRE  4)  -2.36612584  1.20892808 -0.01660127  CHARGE =  6.0
  C    5    (CENTRE  5)  -2.19936899 -1.42461126 -0.02169408  CHARGE =  6.0
  C    6    (CENTRE  6)   0.18908036 -2.54895875 -0.01724378  CHARGE =  6.0
  H    7    (CENTRE  7)   0.33528647 -4.59460052 -0.03121452  CHARGE =  1.0
  O    8    (CENTRE  8)  -0.24751398  5.26416117  0.00386257  CHARGE =  8.0
  H    9    (CENTRE  9)  -1.98252064  5.81037149 -0.00092033  CHARGE =  1.0
  H   10    (CENTRE 10)  -4.20742013  2.12116134 -0.03078556  CHARGE =  1.0
  C   11    (CENTRE 11)   4.96713760 -2.33016086  0.00306133  CHARGE =  6.0
  H   12    (CENTRE 12)   6.06949614 -1.76341315 -1.65219703  CHARGE =  1.0
  H   13    (CENTRE 13)   6.05439534 -1.78815912  1.67654798  CHARGE =  1.0
  H   14    (CENTRE 14)   4.81223664 -4.38704648 -0.01268954  CHARGE =  1.0
  H   15    (CENTRE 15)   3.86053883  2.72796897  0.01963423  CHARGE =  1.0
  C   16    (CENTRE 16)  -4.56764378 -3.01694350  0.01823772  CHARGE =  6.0
  H   17    (CENTRE 17)  -5.32704157 -3.16932341  1.93812009  CHARGE =  1.0
  H   18    (CENTRE 18)  -6.04923437 -2.19906995 -1.16641269  CHARGE =  1.0
  H   19    (CENTRE 19)  -4.19522233 -4.93136270 -0.65552334  CHARGE =  1.0
CENTRE ASSIGNMENTS    1  1  1  1  1  1  1  1  1  1  1  1  1  1  1  1  1  1  1  1
CENTRE ASSIGNMENTS    1  1  1  1  1  1  1  1  2  2  2  2  2  2  2  2  2  2  2  2
CENTRE ASSIGNMENTS    2  2  2  2  2  2  2  2  2  2  2  2  2  2  2  2  3  3  3  3
CENTRE ASSIGNMENTS    3  3  3  3  3  3  3  3  3  3  3  3  3  3  3  3  3  3  3  3
CENTRE ASSIGNMENTS    3  3  3  3  4  4  4  4  4  4  4  4  4  4  4  4  4  4  4  4
CENTRE ASSIGNMENTS    4  4  4  4  4  4  4  4  4  4  4  4  5  5  5  5  5  5  5  5
CENTRE ASSIGNMENTS    5  5  5  5  5  5  5  5  5  5  5  5  5  5  5  5  5  5  5  5
CENTRE ASSIGNMENTS    6  6  6  6  6  6  6  6  6  6  6  6  6  6  6  6  6  6  6  6
CENTRE ASSIGNMENTS    6  6  6  6  6  6  6  6  7  7  7  7  8  8  8  8  8  8  8  8
CENTRE ASSIGNMENTS    8  8  8  8  8  8  8  8  8  8  8  8  8  8  8  8  8  8  8  8
CENTRE ASSIGNMENTS    9  9  9  9 10 10 10 10 11 11 11 11 11 11 11 11 11 11 11 11
CENTRE ASSIGNMENTS   11 11 11 11 11 11 11 11 11 11 11 11 11 11 11 11 12 12 12 12
CENTRE ASSIGNMENTS   13 13 13 13 14 14 14 14 15 15 15 15 16 16 16 16 16 16 16 16
CENTRE ASSIGNMENTS   16 16 16 16 16 16 16 16 16 16 16 16 16 16 16 16 16 16 16 16
CENTRE ASSIGNMENTS   17 17 17 17 18 18 18 18 19 19 19 19
TYPE ASSIGNMENTS      1  1  1  1  1  1  1  1  1  2  2  2  3  3  3  4  4  4  1  2
TYPE ASSIGNMENTS      3  4  5  6  7  8  9 10  1  1  1  1  1  1  1  1  1  2  2  2
TYPE ASSIGNMENTS      3  3  3  4  4  4  1  2  3  4  5  6  7  8  9 10  1  1  1  1
TYPE ASSIGNMENTS      1  1  1  1  1  2  2  2  3  3  3  4  4  4  1  2  3  4  5  6
TYPE ASSIGNMENTS      7  8  9 10  1  1  1  1  1  1  1  1  1  2  2  2  3  3  3  4
TYPE ASSIGNMENTS      4  4  1  2  3  4  5  6  7  8  9 10  1  1  1  1  1  1  1  1
TYPE ASSIGNMENTS      1  2  2  2  3  3  3  4  4  4  1  2  3  4  5  6  7  8  9 10
TYPE ASSIGNMENTS      1  1  1  1  1  1  1  1  1  2  2  2  3  3  3  4  4  4  1  2
TYPE ASSIGNMENTS      3  4  5  6  7  8  9 10  1  1  1  1  1  1  1  1  1  1  1  1
TYPE ASSIGNMENTS      1  2  2  2  3  3  3  4  4  4  1  2  3  4  5  6  7  8  9 10
TYPE ASSIGNMENTS      1  1  1  1  1  1  1  1  1  1  1  1  1  1  1  1  1  2  2  2
TYPE ASSIGNMENTS      3  3  3  4  4  4  1  2  3  4  5  6  7  8  9 10  1  1  1  1
TYPE ASSIGNMENTS      1  1  1  1  1  1  1  1  1  1  1  1  1  1  1  1  1  1  1  1
TYPE ASSIGNMENTS      1  2  2  2  3  3  3  4  4  4  1  2  3  4  5  6  7  8  9 10
TYPE ASSIGNMENTS      1  1  1  1  1  1  1  1  1  1  1  1
EXPONENTS  0.3047525D+04 0.4573695D+03 0.1039487D+03 0.2921016D+02 0.9286663D+01
EXPONENTS  0.3163927D+01 0.7868272D+01 0.1881289D+01 0.5442493D+00 0.7868272D+01
EXPONENTS  0.1881289D+01 0.5442493D+00 0.7868272D+01 0.1881289D+01 0.5442493D+00
EXPONENTS  0.7868272D+01 0.1881289D+01 0.5442493D+00 0.1687145D+00 0.1687145D+00
EXPONENTS  0.1687145D+00 0.1687145D+00 0.8000000D+00 0.8000000D+00 0.8000000D+00
EXPONENTS  0.8000000D+00 0.8000000D+00 0.8000000D+00 0.3047525D+04 0.4573695D+03
EXPONENTS  0.1039487D+03 0.2921016D+02 0.9286663D+01 0.3163927D+01 0.7868272D+01
EXPONENTS  0.1881289D+01 0.5442493D+00 0.7868272D+01 0.1881289D+01 0.5442493D+00
EXPONENTS  0.7868272D+01 0.1881289D+01 0.5442493D+00 0.7868272D+01 0.1881289D+01
EXPONENTS  0.5442493D+00 0.1687145D+00 0.1687145D+00 0.1687145D+00 0.1687145D+00
EXPONENTS  0.8000000D+00 0.8000000D+00 0.8000000D+00 0.8000000D+00 0.8000000D+00
EXPONENTS  0.8000000D+00 0.3047525D+04 0.4573695D+03 0.1039487D+03 0.2921016D+02
EXPONENTS  0.9286663D+01 0.3163927D+01 0.7868272D+01 0.1881289D+01 0.5442493D+00
EXPONENTS  0.7868272D+01 0.1881289D+01 0.5442493D+00 0.7868272D+01 0.1881289D+01
EXPONENTS  0.5442493D+00 0.7868272D+01 0.1881289D+01 0.5442493D+00 0.1687145D+00
EXPONENTS  0.1687145D+00 0.1687145D+00 0.1687145D+00 0.8000000D+00 0.8000000D+00
EXPONENTS  0.8000000D+00 0.8000000D+00 0.8000000D+00 0.8000000D+00 0.3047525D+04
EXPONENTS  0.4573695D+03 0.1039487D+03 0.2921016D+02 0.9286663D+01 0.3163927D+01
EXPONENTS  0.7868272D+01 0.1881289D+01 0.5442493D+00 0.7868272D+01 0.1881289D+01
EXPONENTS  0.5442493D+00 0.7868272D+01 0.1881289D+01 0.5442493D+00 0.7868272D+01
EXPONENTS  0.1881289D+01 0.5442493D+00 0.1687145D+00 0.1687145D+00 0.1687145D+00
EXPONENTS  0.1687145D+00 0.8000000D+00 0.8000000D+00 0.8000000D+00 0.8000000D+00
EXPONENTS  0.8000000D+00 0.8000000D+00 0.3047525D+04 0.4573695D+03 0.1039487D+03
EXPONENTS  0.2921016D+02 0.9286663D+01 0.3163927D+01 0.7868272D+01 0.1881289D+01
EXPONENTS  0.5442493D+00 0.7868272D+01 0.1881289D+01 0.5442493D+00 0.7868272D+01
EXPONENTS  0.1881289D+01 0.5442493D+00 0.7868272D+01 0.1881289D+01 0.5442493D+00
EXPONENTS  0.1687145D+00 0.1687145D+00 0.1687145D+00 0.1687145D+00 0.8000000D+00
EXPONENTS  0.8000000D+00 0.8000000D+00 0.8000000D+00 0.8000000D+00 0.8000000D+00
EXPONENTS  0.3047525D+04 0.4573695D+03 0.1039487D+03 0.2921016D+02 0.9286663D+01
EXPONENTS  0.3163927D+01 0.7868272D+01 0.1881289D+01 0.5442493D+00 0.7868272D+01
EXPONENTS  0.1881289D+01 0.5442493D+00 0.7868272D+01 0.1881289D+01 0.5442493D+00
EXPONENTS  0.7868272D+01 0.1881289D+01 0.5442493D+00 0.1687145D+00 0.1687145D+00
EXPONENTS  0.1687145D+00 0.1687145D+00 0.8000000D+00 0.8000000D+00 0.8000000D+00
EXPONENTS  0.8000000D+00 0.8000000D+00 0.8000000D+00 0.1873114D+02 0.2825394D+01
EXPONENTS  0.6401217D+00 0.1612778D+00 0.5484672D+04 0.8252349D+03 0.1880470D+03
EXPONENTS  0.5296450D+02 0.1689757D+02 0.5799635D+01 0.1553962D+02 0.3599934D+01
EXPONENTS  0.1013762D+01 0.1553962D+02 0.3599934D+01 0.1013762D+01 0.1553962D+02
EXPONENTS  0.3599934D+01 0.1013762D+01 0.1553962D+02 0.3599934D+01 0.1013762D+01
EXPONENTS  0.2700058D+00 0.2700058D+00 0.2700058D+00 0.2700058D+00 0.8000000D+00
EXPONENTS  0.8000000D+00 0.8000000D+00 0.8000000D+00 0.8000000D+00 0.8000000D+00
EXPONENTS  0.1873114D+02 0.2825394D+01 0.6401217D+00 0.1612778D+00 0.1873114D+02
EXPONENTS  0.2825394D+01 0.6401217D+00 0.1612778D+00 0.3047525D+04 0.4573695D+03
EXPONENTS  0.1039487D+03 0.2921016D+02 0.9286663D+01 0.3163927D+01 0.7868272D+01
EXPONENTS  0.1881289D+01 0.5442493D+00 0.7868272D+01 0.1881289D+01 0.5442493D+00
EXPONENTS  0.7868272D+01 0.1881289D+01 0.5442493D+00 0.7868272D+01 0.1881289D+01
EXPONENTS  0.5442493D+00 0.1687145D+00 0.1687145D+00 0.1687145D+00 0.1687145D+00
EXPONENTS  0.8000000D+00 0.8000000D+00 0.8000000D+00 0.8000000D+00 0.8000000D+00
EXPONENTS  0.8000000D+00 0.1873114D+02 0.2825394D+01 0.6401217D+00 0.1612778D+00
EXPONENTS  0.1873114D+02 0.2825394D+01 0.6401217D+00 0.1612778D+00 0.1873114D+02
EXPONENTS  0.2825394D+01 0.6401217D+00 0.1612778D+00 0.1873114D+02 0.2825394D+01
EXPONENTS  0.6401217D+00 0.1612778D+00 0.3047525D+04 0.4573695D+03 0.1039487D+03
EXPONENTS  0.2921016D+02 0.9286663D+01 0.3163927D+01 0.7868272D+01 0.1881289D+01
EXPONENTS  0.5442493D+00 0.7868272D+01 0.1881289D+01 0.5442493D+00 0.7868272D+01
EXPONENTS  0.1881289D+01 0.5442493D+00 0.7868272D+01 0.1881289D+01 0.5442493D+00
EXPONENTS  0.1687145D+00 0.1687145D+00 0.1687145D+00 0.1687145D+00 0.8000000D+00
EXPONENTS  0.8000000D+00 0.8000000D+00 0.8000000D+00 0.8000000D+00 0.8000000D+00
EXPONENTS  0.1873114D+02 0.2825394D+01 0.6401217D+00 0.1612778D+00 0.1873114D+02
EXPONENTS  0.2825394D+01 0.6401217D+00 0.1612778D+00 0.1873114D+02 0.2825394D+01
EXPONENTS  0.6401217D+00 0.1612778D+00
MO    1     MO 0.0        OCC NO =    1.0000000  ORB. ENERGY =  -18.998096
  0.44657698D-05  0.82384733D-05  0.13299450D-04  0.17311933D-04  0.14772304D-04
  0.51005214D-05 -0.75110694D-05 -0.34618450D-05  0.97073748D-05 -0.48574819D-04
 -0.37244090D-04 -0.18587411D-04  0.86766879D-04  0.66527339D-04  0.33201805D-04
  0.78680531D-07  0.60327241D-07  0.30107521D-07  0.19265320D-03 -0.25542776D-04
 -0.59886055D-04 -0.43581136D-07  0.30866481D-04  0.20125422D-04  0.35267031D-04
  0.28349847D-04 -0.45901027D-06  0.24275427D-06  0.29579014D-05  0.54567505D-05
  0.88088872D-05  0.11466554D-04  0.97844311D-05  0.33783289D-05 -0.51885798D-04
 -0.23914117D-04  0.67057680D-04 -0.18926690D-04 -0.14511785D-04 -0.72423980D-05
  0.14384560D-04  0.11029168D-04  0.55043280D-05  0.30553656D-06  0.23426605D-06
  0.11691518D-06 -0.12294712D-03  0.17717514D-03  0.11010612D-03  0.88594496D-06
 -0.10850763D-03 -0.51665613D-04  0.21255970D-04  0.18051882D-04 -0.13493481D-05
  0.29055288D-06 -0.25326838D-04 -0.46723070D-04 -0.75425522D-04 -0.98181619D-04
 -0.83778553D-04 -0.28926721D-04 -0.49989459D-04 -0.23040096D-04  0.64606834D-04
  0.50522553D-04  0.38737489D-04  0.19332722D-04  0.56898423D-03  0.43626102D-03
  0.21772482D-03  0.11332033D-05  0.86886845D-06  0.43362625D-06 -0.49272768D-04
 -0.67250307D-04 -0.69080331D-03 -0.16653415D-05 -0.12094550D-04 -0.13882361D-04
 -0.91365612D-04  0.92070242D-04  0.14616721D-05  0.15907781D-05  0.16822516D-04
  0.31034258D-04  0.50098914D-04  0.65213901D-04  0.55647140D-04  0.19213620D-04
 -0.10110305D-03 -0.46598302D-04  0.13066650D-03 -0.32782920D-04 -0.25135864D-04
 -0.12544558D-04 -0.84111542D-04 -0.64491395D-04 -0.32185726D-04 -0.19957368D-05
 -0.15302044D-05 -0.76367923D-06 -0.62381206D-03 -0.24364680D-03  0.23078569D-03
 -0.10012035D-05 -0.59165733D-04 -0.98407020D-04  0.74948268D-04 -0.33359346D-04
 -0.25923857D-05 -0.81493907D-06 -0.48141029D-05 -0.88810799D-05 -0.14336817D-04
 -0.18662275D-04 -0.15924553D-04 -0.54983656D-05  0.30318287D-04  0.13973671D-04
 -0.39183631D-04  0.19895019D-04  0.15254239D-04  0.76129341D-05  0.79522183D-04
  0.60972566D-04  0.30429584D-04  0.32678893D-06  0.25056102D-06  0.12504751D-06
  0.36571409D-03  0.52333448D-05  0.17925546D-03  0.12649790D-05 -0.51564085D-05
  0.71594696D-04 -0.63428054D-05 -0.67867955D-05 -0.20928219D-05 -0.98462903D-07
  0.66434694D-05  0.12255904D-04  0.19784829D-04  0.25753969D-04  0.21975908D-04
  0.75877530D-05 -0.24907510D-04 -0.11479849D-04  0.32190694D-04  0.18947241D-04
  0.14527542D-04  0.72502618D-05  0.42981592D-04  0.32955559D-04  0.16447134D-04
  0.20317999D-05  0.15578553D-05  0.77747897D-06 -0.11255998D-03 -0.65305150D-04
 -0.78489025D-04 -0.15072557D-05 -0.23119593D-04  0.19366761D-04  0.35243458D-04
 -0.64609060D-05 -0.48608932D-06 -0.69588175D-06 -0.48677304D-05 -0.82565920D-05
 -0.93998382D-05 -0.24468597D-04  0.82563341D+00  0.15196062D+01  0.24590097D+01
  0.32324371D+01  0.27724425D+01  0.94794518D+00 -0.15816972D-01 -0.70575020D-02
  0.20840898D-01 -0.28198614D-02 -0.21725512D-02 -0.95386700D-03 -0.13304719D-02
 -0.10250569D-02 -0.45005518D-03 -0.12599809D-04 -0.97074738D-05 -0.42621039D-05
  0.38121201D-02  0.90513067D-04 -0.36333867D-03  0.54258392D-06 -0.92691580D-02
 -0.91312295D-02 -0.91886704D-02 -0.66737320D-04 -0.62961628D-06 -0.84243956D-06
  0.87557869D-04  0.14851472D-03  0.16907876D-03 -0.18552710D-03 -0.20977220D-04
 -0.35581335D-04 -0.40508093D-04 -0.73581178D-04  0.60843717D-05  0.11224478D-04
  0.18119787D-04  0.23586579D-04  0.20126471D-04  0.69491867D-05 -0.21985812D-04
 -0.10133241D-04  0.28414665D-04  0.16717975D-04  0.12818283D-04  0.63972215D-05
  0.37077350D-05  0.28428560D-05  0.14187844D-05  0.45717423D-08  0.35053220D-08
  0.17494014D-08 -0.74821092D-04  0.24030628D-04 -0.22612109D-05 -0.74690491D-08
 -0.87025666D-05  0.22981268D-04  0.22488994D-04  0.29991576D-05 -0.54062974D-07
 -0.19466135D-06  0.30402274D-05  0.51568010D-05  0.58708357D-05  0.32873877D-05
  0.30911767D-05  0.52432208D-05  0.59692216D-05  0.32563674D-05  0.31956406D-05
  0.54204113D-05  0.61709466D-05  0.86977051D-05 -0.20899482D-05 -0.35449477D-05
 -0.40357977D-05 -0.11430787D-03  0.46696403D-05  0.86145745D-05  0.13906594D-04
  0.18102254D-04  0.15446686D-04  0.53333694D-05 -0.16863753D-04 -0.77724882D-05
  0.21794868D-04  0.21489751D-05  0.16476978D-05  0.82231670D-06 -0.31118701D-05
 -0.23859846D-05 -0.11907735D-05  0.15502236D-05  0.11886131D-05  0.59320126D-06
 -0.20614180D-04  0.56943127D-05 -0.29170804D-04 -0.16608417D-05  0.22604341D-04
 -0.80775066D-05  0.13319381D-04 -0.45871923D-04 -0.90604543D-05  0.12949620D-04
  0.24951532D-05  0.42322520D-05  0.48182694D-05  0.42165615D-05  0.42733431D-05
  0.72483987D-05  0.82520457D-05  0.74328654D-05  0.59124495D-07  0.10028633D-06
  0.11417245D-06 -0.95723208D-05
MO    2     MO 0.0        OCC NO =    1.0000000  ORB. ENERGY =  -10.038982
  0.32980913D-04  0.60843345D-04  0.98220024D-04  0.12785329D-03  0.10909744D-03
  0.37668725D-04 -0.94312258D-04 -0.43468434D-04  0.12189003D-03  0.61903149D-04
  0.47463408D-04  0.23687567D-04 -0.98760800D-04 -0.75723517D-04 -0.37791342D-04
  0.80223016D-06  0.61509920D-06  0.30697761D-06 -0.14255657D-02  0.41199335D-03
 -0.39095080D-03 -0.72227181D-06  0.10299916D-04  0.51212285D-04  0.50631186D-04
  0.19301940D-05  0.11188209D-05  0.25009103D-06  0.14569574D-02  0.26878018D-02
  0.43389456D-02  0.56480179D-02  0.48194639D-02  0.16640451D-02  0.30630772D-03
  0.14117695D-03 -0.39587490D-03  0.37175031D-03  0.28503456D-03  0.14225222D-03
 -0.56341443D-04 -0.43199045D-04 -0.21559351D-04  0.51232976D-06  0.39282197D-06
  0.19604569D-06  0.24105223D-02 -0.10070261D-02 -0.58138936D-03 -0.70889240D-05
 -0.24009187D-03 -0.41162127D-03 -0.36536743D-03  0.24381610D-03  0.35793529D-05
  0.16648498D-05  0.53259334D+00  0.98253072D+00  0.15861092D+01  0.20646429D+01
  0.17617636D+01  0.60829462D+00 -0.19649502D-01 -0.90564376D-02  0.25395196D-01
 -0.10850073D-03 -0.83191476D-04 -0.41518377D-04  0.15049387D-02  0.11538915D-02
  0.57587274D-03 -0.39733952D-05 -0.30465474D-05 -0.15204407D-05 -0.38139805D-02
 -0.44624937D-04  0.17998083D-02  0.53983369D-05 -0.99497885D-02 -0.90793065D-02
 -0.10329475D-01  0.16371918D-04  0.53268435D-05  0.11939789D-05  0.15940560D-02
  0.29407220D-02  0.47472372D-02  0.61794923D-02  0.52729720D-02  0.18206305D-02
  0.30089036D-03  0.13868009D-03 -0.38887346D-03 -0.39266530D-03 -0.30107085D-03
 -0.15025545D-03 -0.10926493D-03 -0.83777422D-04 -0.41810805D-04 -0.73148902D-06
 -0.56085939D-06 -0.27990814D-06  0.24967581D-02  0.11331007D-02 -0.37260959D-03
  0.62973539D-05 -0.25153691D-03 -0.44203133D-03 -0.36490871D-03 -0.21192489D-03
  0.13158103D-05 -0.20107958D-05  0.32585303D-04  0.60113521D-04  0.97041861D-04
  0.12631967D-03  0.10778880D-03  0.37216883D-04 -0.95931599D-04 -0.44214786D-04
  0.12398288D-03 -0.36469447D-04 -0.27962459D-04 -0.13955227D-04 -0.11682758D-03
 -0.89575975D-04 -0.44704690D-04 -0.34456277D-06 -0.26418888D-06 -0.13184877D-06
 -0.14188678D-02 -0.39716384D-03 -0.42076769D-03 -0.46017089D-05  0.11481713D-04
  0.47446961D-04  0.50977817D-04 -0.18431291D-04  0.49810316D-05  0.16217139D-05
 -0.61144408D-04 -0.11279949D-03 -0.18209336D-03 -0.23703145D-03 -0.20225936D-03
 -0.69835297D-04  0.12464930D-03  0.57450750D-04 -0.16109790D-03  0.32900501D-05
  0.25226017D-05  0.12589551D-05 -0.94537560D-04 -0.72485404D-04 -0.36175297D-04
 -0.32679554D-05 -0.25056609D-05 -0.12505004D-05  0.90300425D-03 -0.55956675D-04
  0.51825365D-03  0.41889281D-05  0.15613953D-04 -0.34312833D-04 -0.12894756D-03
  0.11518259D-05  0.12817996D-05  0.24188582D-05  0.27637719D-04  0.46878802D-04
  0.53369859D-04  0.15790613D-03  0.11853538D-03  0.21816838D-03  0.35303762D-03
  0.46407783D-03  0.39803686D-03  0.13609556D-03 -0.69384269D-03 -0.30959126D-03
  0.91422713D-03  0.63037956D-04  0.48567347D-04  0.21323681D-04  0.10308079D-03
  0.79418188D-04  0.34868862D-04  0.35584711D-05  0.27416102D-05  0.12037145D-05
 -0.16575121D-02 -0.39828115D-04  0.82088293D-03 -0.11430647D-05  0.78322131D-03
 -0.61790125D-03  0.98256087D-03  0.14395400D-03 -0.20212878D-05  0.53164695D-08
  0.37596463D-04  0.63770716D-04  0.72600707D-04 -0.61372853D-04  0.35899722D-04
  0.60892723D-04  0.69324213D-04  0.35430768D-03 -0.36309574D-04 -0.66984073D-04
 -0.10813306D-03 -0.14075712D-03 -0.12010831D-03 -0.41470511D-04  0.58263339D-04
  0.26853520D-04 -0.75300072D-04  0.15528805D-04  0.11906503D-04  0.59421794D-05
 -0.30937436D-04 -0.23720864D-04 -0.11838373D-04 -0.17520800D-06 -0.13433838D-06
 -0.67044269D-07 -0.80414008D-05  0.19542858D-04  0.59724403D-04  0.40511742D-06
 -0.43741758D-04 -0.32344893D-04 -0.42514148D-04 -0.11660559D-03 -0.57727960D-06
 -0.14432189D-07 -0.10210820D-04 -0.17319483D-04 -0.19717619D-04 -0.17945155D-04
 -0.10388390D-04 -0.17620676D-04 -0.20060517D-04 -0.17461821D-04  0.17095121D-05
  0.28996561D-05  0.33011560D-05  0.21837905D-04  0.39370221D-04  0.66779346D-04
  0.76025925D-04  0.33676162D-03 -0.36975133D-04 -0.68211901D-04 -0.11011516D-03
 -0.14333722D-03 -0.12230991D-03 -0.42230672D-04  0.56723471D-04  0.26143796D-04
 -0.73309933D-04 -0.15497797D-04 -0.11882727D-04 -0.59303138D-05 -0.35593784D-04
 -0.27291056D-04 -0.13620150D-04 -0.39102881D-05 -0.29981609D-05 -0.14962924D-05
 -0.25238523D-04 -0.28500898D-04  0.45609384D-04  0.77183942D-05 -0.54477262D-04
 -0.11494900D-04 -0.53489901D-04  0.93264585D-04  0.19039487D-04 -0.27201755D-04
 -0.75300384D-05 -0.12772370D-04 -0.14540892D-04 -0.14705530D-04 -0.10624393D-04
 -0.18020982D-04 -0.20516251D-04 -0.16265267D-04  0.17363645D-05  0.29452028D-05
  0.33530093D-05  0.16074004D-04
MO    3     MO 0.0        OCC NO =    1.0000000  ORB. ENERGY =  -10.011130
 -0.17904858D-04 -0.33030967D-04 -0.53322223D-04 -0.69409691D-04 -0.59227415D-04
 -0.20449803D-04  0.57841404D-04  0.26659050D-04 -0.74754760D-04  0.50120043D-04
  0.38428870D-04  0.19178699D-04 -0.43281526D-05 -0.33185529D-05 -0.16561905D-05
  0.17038110D-04  0.13063742D-04  0.65197227D-05  0.31448689D-03 -0.22808128D-03
  0.49874976D-04 -0.13600585D-04  0.27540609D-04  0.25598168D-05 -0.60901826D-04
  0.59623632D-04  0.81449616D-05  0.20734200D-05  0.17565908D-05  0.32405671D-05
  0.52312800D-05  0.68095722D-05  0.58106203D-05  0.20062676D-05 -0.16213573D-05
 -0.74728210D-06  0.20954570D-05  0.18499511D-04  0.14184252D-04  0.70789358D-05
  0.11471381D-04  0.87955272D-05  0.43895845D-05 -0.40688100D-05 -0.31197054D-05
 -0.15569516D-05 -0.12319022D-03  0.90450264D-04  0.13916812D-03  0.90312066D-05
  0.33280009D-05  0.53216611D-05 -0.13708890D-04 -0.59941017D-04 -0.71659077D-05
 -0.52133883D-05 -0.54934339D-06 -0.10134313D-05 -0.16359923D-05 -0.21295759D-05
 -0.18171710D-05 -0.62742547D-06  0.74879491D-04  0.34511889D-04 -0.96774939D-04
  0.35121037D-04  0.26928584D-04  0.13439251D-04 -0.12358020D-05 -0.94753461D-06
 -0.47288618D-06  0.15617512D-04  0.11974518D-04  0.59761237D-05  0.37360437D-03
 -0.18094346D-03 -0.22327143D-03 -0.14053296D-04 -0.51491834D-05 -0.36100513D-04
 -0.84300404D-04  0.67172822D-04  0.44420330D-05  0.40399574D-05 -0.79699482D-05
 -0.14702998D-04 -0.23735198D-04 -0.30896175D-04 -0.26363762D-04 -0.91027736D-05
  0.11498990D-04  0.52998740D-05 -0.14861400D-04  0.11732776D-03  0.89959482D-04
  0.44896086D-04  0.56454641D-04  0.43285838D-04  0.21602667D-04 -0.24612259D-04
 -0.18871119D-04 -0.94180112D-05 -0.26385226D-03 -0.17882177D-03 -0.13942072D-03
  0.14152086D-04 -0.63251245D-05  0.76575929D-04 -0.41738562D-04 -0.16879496D-03
 -0.88810419D-05 -0.15873770D-04  0.12945416D-02  0.23881765D-02  0.38552574D-02
  0.50183996D-02  0.42822095D-02  0.14785440D-02  0.48317143D-04  0.22269327D-04
 -0.62445518D-04  0.23612940D-03  0.18104904D-03  0.90356162D-04  0.18863695D-03
  0.14463485D-03  0.72182926D-04  0.20429541D-04  0.15664077D-04  0.78174720D-05
  0.86693339D-03 -0.32220691D-03 -0.29896888D-03 -0.87382404D-05 -0.30908433D-03
 -0.26764333D-03 -0.17322876D-03 -0.18285610D-03 -0.11109443D-04 -0.96970712D-05
 -0.16051292D-04 -0.29611499D-04 -0.47802141D-04 -0.62224184D-04 -0.53096009D-04
 -0.18332776D-04  0.14546962D-04  0.67046813D-05 -0.18800626D-04  0.95550946D-04
  0.73262405D-04  0.36563075D-04  0.86908918D-04  0.66636246D-04  0.33256157D-04
 -0.25476194D-04 -0.19533529D-04 -0.97486002D-05 -0.23031374D-03 -0.65934546D-04
 -0.10603888D-03  0.14946834D-04 -0.24986773D-04  0.47489838D-04 -0.53137407D-04
 -0.15987639D-03 -0.17513665D-04 -0.17668233D-05 -0.10390418D-04 -0.17624116D-04
 -0.20064433D-04 -0.44817851D-04 -0.15769119D-04 -0.29023597D-04 -0.46965659D-04
 -0.61737673D-04 -0.52952044D-04 -0.18105203D-04  0.53863217D-04  0.24033663D-04
 -0.70971727D-04 -0.65649414D-04 -0.50579334D-04 -0.22207052D-04  0.59648416D-04
  0.45955889D-04  0.20177111D-04 -0.10474658D-04 -0.80701592D-05 -0.35432346D-05
  0.15330994D-03  0.60229324D-04 -0.58200041D-04  0.59910510D-05 -0.66245529D-04
 -0.38349083D-04 -0.60952639D-04 -0.46242117D-04  0.12684858D-05 -0.91902303D-05
  0.30704209D-05  0.52080151D-05  0.59291411D-05  0.24884180D-04 -0.14194432D-04
 -0.24076444D-04 -0.27410180D-04 -0.18955831D-04 -0.90376317D-04 -0.16672666D-03
 -0.26914852D-03 -0.35035140D-03 -0.29895549D-03 -0.10322215D-03  0.24196760D-04
  0.11152265D-04 -0.31272114D-04 -0.11547677D-04 -0.88540265D-05 -0.44187798D-05
  0.11595869D-05  0.88909765D-06  0.44372204D-06 -0.89276853D-06 -0.68451828D-06
 -0.34162260D-06  0.12774031D-03 -0.38780924D-04  0.40615093D-04  0.43827282D-05
 -0.45785413D-05  0.39262883D-06 -0.15841055D-04 -0.29976687D-04 -0.48410973D-05
  0.70423659D-05 -0.33450823D-05 -0.56738928D-05 -0.64595264D-05 -0.32932002D-05
 -0.45349560D-05 -0.76921437D-05 -0.87572337D-05 -0.56063196D-05 -0.50057390D-05
 -0.84906809D-05 -0.96663401D-05  0.21049054D-04 -0.14325710D-04 -0.24299116D-04
 -0.27663685D-04 -0.53693099D-04  0.53256432D+00  0.98247719D+00  0.15860228D+01
  0.20645304D+01  0.17616676D+01  0.60826148D+00 -0.19989708D-01 -0.92132381D-02
  0.25834881D-01 -0.31314631D-03 -0.24010073D-03 -0.11982709D-03 -0.16980253D-03
 -0.13019381D-03 -0.64975837D-04  0.24157852D-04  0.18522709D-04  0.92441299D-05
 -0.33913019D-02 -0.15492483D-03 -0.10696261D-03 -0.85485431D-05 -0.10228224D-01
 -0.10117979D-01 -0.10065830D-01 -0.18786020D-03  0.28071284D-04  0.18673719D-04
 -0.53311239D-05 -0.90425952D-05 -0.10294675D-04  0.51752455D-03 -0.53376117D-05
 -0.90535997D-05 -0.10307203D-04  0.49787572D-03 -0.87500152D-05 -0.14841682D-04
 -0.16896730D-04  0.49770734D-03
MO    4     MO 0.0        OCC NO =    1.0000000  ORB. ENERGY =  -10.008665
  0.14024146D-02  0.25871811D-02  0.41765124D-02  0.54365782D-02  0.46390420D-02
  0.16017497D-02  0.46054198D-04  0.21226338D-04 -0.59520867D-04 -0.25490792D-03
 -0.19544723D-03 -0.97541864D-04  0.17525105D-03  0.13437139D-03  0.67060740D-04
  0.70551115D-07  0.54094120D-07  0.26996757D-07  0.87637796D-03  0.34562183D-03
 -0.30912155D-03 -0.97776246D-06 -0.32521914D-03 -0.26136673D-03 -0.17938698D-03
  0.18868605D-03  0.41381517D-06  0.33551176D-06 -0.33987948D-05 -0.62701127D-05
 -0.10121906D-04 -0.13175714D-04 -0.11242861D-04 -0.38818897D-05  0.13953084D-04
  0.64309639D-05 -0.18033094D-04 -0.12063258D-03 -0.92493413D-04 -0.46160695D-04
  0.37322445D-04  0.28616483D-04  0.14281631D-04 -0.54400168D-06 -0.41710599D-06
 -0.20816512D-06 -0.22891840D-03  0.19881454D-03 -0.14843776D-03  0.78717493D-06
 -0.19646722D-04  0.12071253D-03 -0.37342816D-04  0.13020638D-03 -0.25782245D-06
  0.14389922D-05 -0.21418846D-05 -0.39513588D-05 -0.63787182D-05 -0.83031958D-05
 -0.70851321D-05 -0.24463258D-05  0.77599862D-04  0.35765705D-04 -0.10029077D-03
 -0.40937465D-04 -0.31388252D-04 -0.15664937D-04 -0.11364074D-04 -0.87132512D-05
 -0.43485230D-05 -0.10569361D-05 -0.81039157D-06 -0.40444219D-06  0.38100876D-03
  0.21221213D-03 -0.18090682D-03  0.89166029D-06  0.40015993D-05 -0.41236654D-04
 -0.89450640D-04 -0.74931391D-04  0.75548199D-06  0.87553436D-07  0.18853244D-05
  0.34780553D-05  0.56146597D-05  0.73086186D-05  0.62364575D-05  0.21532989D-05
 -0.21014452D-05 -0.96855418D-06  0.27159270D-05 -0.19228051D-04 -0.14742850D-04
 -0.73577153D-05  0.95410271D-05  0.73154544D-05  0.36509245D-05  0.40243779D-06
  0.30856378D-06  0.15399495D-06 -0.14195961D-03 -0.99367252D-04  0.13618312D-03
  0.20652731D-06 -0.10110071D-05  0.62727093D-05 -0.15502280D-04  0.56862349D-04
  0.12716965D-05 -0.11363304D-05 -0.15359776D-04 -0.28335787D-04 -0.45742746D-04
 -0.59543464D-04 -0.50808546D-04 -0.17542970D-04  0.52884391D-04  0.24374368D-04
 -0.68348271D-04 -0.48085394D-04 -0.36868830D-04 -0.18400130D-04 -0.22948846D-04
 -0.17595720D-04 -0.87814972D-05  0.96859877D-06  0.74266010D-06  0.37063944D-06
  0.27204441D-03  0.19395826D-03  0.11941748D-03 -0.19697127D-05  0.32171776D-04
  0.12269820D-05 -0.55069067D-04 -0.42716051D-04  0.48568879D-05  0.28040727D-05
 -0.21676679D-04 -0.39989240D-04 -0.64555032D-04 -0.84031471D-04 -0.71704206D-04
 -0.24757739D-04  0.17278878D-04  0.79638190D-05 -0.22331380D-04 -0.10543986D-03
 -0.80844598D-04 -0.40347121D-04  0.70686834D-04  0.54198181D-04  0.27048691D-04
 -0.84596831D-06 -0.64863484D-06 -0.32371425D-06 -0.21791799D-03  0.21434026D-04
 -0.98010799D-04  0.71969328D-06 -0.59392266D-04  0.58316575D-04 -0.60960586D-04
  0.11448657D-03 -0.66703787D-06  0.38601875D-05 -0.75451352D-05 -0.12797977D-04
 -0.14570045D-04 -0.57744098D-04 -0.20553751D-04 -0.37829874D-04 -0.61215876D-04
 -0.80469983D-04 -0.69018637D-04 -0.23598644D-04  0.67403388D-04  0.30075260D-04
 -0.88812647D-04 -0.80302820D-05 -0.61868994D-05 -0.27163821D-05  0.61936753D-04
  0.47718929D-04  0.20951180D-04  0.35347934D-06  0.27233677D-06  0.11957051D-06
  0.16265257D-03 -0.28237092D-04 -0.50641068D-04 -0.28254327D-06 -0.66749185D-04
 -0.61658013D-04 -0.97166104D-04  0.47544687D-04  0.32824737D-06  0.44868152D-06
 -0.38146535D-05 -0.64703743D-05 -0.73662925D-05  0.12600779D-04 -0.13093256D-04
 -0.22208641D-04 -0.25283753D-04 -0.51730793D-04  0.53256384D+00  0.98247629D+00
  0.15860214D+01  0.20645286D+01  0.17616660D+01  0.60826092D+00 -0.19997031D-01
 -0.92166134D-02  0.25844346D-01  0.34182227D-03  0.26208763D-03  0.13080010D-03
 -0.10138915D-03 -0.77738770D-04 -0.38797095D-04  0.29172120D-05  0.22367331D-05
  0.11162866D-05 -0.34076618D-02  0.16919626D-03 -0.87960381D-04 -0.44731206D-06
 -0.10266595D-01 -0.10082888D-01 -0.10069492D-01  0.12982521D-03 -0.94918513D-06
  0.27141984D-06 -0.32350186D-05 -0.54872039D-05 -0.62469877D-05  0.50887829D-03
 -0.32281599D-05 -0.54755701D-05 -0.62337431D-05  0.50956468D-03 -0.10771323D-04
 -0.18270202D-04 -0.20799980D-04  0.50183110D-03 -0.17125428D-04 -0.29047967D-04
 -0.33070083D-04  0.55319906D-05  0.79904025D-04  0.14740732D-03  0.23796113D-03
  0.30975468D-03  0.26431423D-03  0.91261353D-04  0.18453587D-04  0.85052416D-05
 -0.23849585D-04  0.15733807D-04  0.12063685D-04  0.60206245D-05  0.70909256D-05
  0.54368720D-05  0.27133802D-05 -0.89311790D-05 -0.68478616D-05 -0.34175629D-05
  0.13509164D-03  0.39755380D-04  0.38226369D-04  0.50363800D-05 -0.50606355D-05
 -0.25222232D-05 -0.18997893D-04  0.23699989D-04 -0.74969448D-06 -0.44429139D-05
 -0.39301044D-05 -0.66662010D-05 -0.75892342D-05 -0.59003698D-05 -0.48498021D-05
 -0.82261823D-05 -0.93652178D-05  0.17346106D-05 -0.54576005D-05 -0.92571233D-05
 -0.10538908D-04  0.14502727D-04
MO    5     MO 0.0        OCC NO =    1.0000000  ORB. ENERGY =   -9.971185
  0.19191423D-01  0.35404428D-01  0.57153724D-01  0.74397166D-01  0.63483237D-01
  0.21919236D-01 -0.46221213D-03 -0.21303315D-03  0.59736719D-03  0.46344683D-03
  0.35534164D-03  0.17734038D-03  0.19076719D-03  0.14626818D-03  0.72998076D-04
  0.19166896D-05  0.14695960D-05  0.73343141D-06  0.15923561D-02 -0.84380689D-03
  0.75323528D-04 -0.34606388D-05 -0.72076630D-03 -0.75059080D-03 -0.60442445D-03
 -0.18844600D-03 -0.19592335D-06 -0.21252088D-05  0.21362322D-03  0.39409313D-03
  0.63618850D-03  0.82812840D-03  0.70664347D-03  0.24398701D-03 -0.43435782D-04
 -0.20019512D-04  0.56136802D-04 -0.34725253D-05 -0.26625121D-05 -0.13287802D-05
  0.52360447D-04  0.40146669D-04  0.20036002D-04  0.10547394D-05  0.80870725D-06
  0.40360160D-06 -0.78239399D-03  0.37650075D-03  0.23485482D-03  0.24684451D-05
  0.30913677D-04  0.79144193D-04  0.33872879D-04 -0.50687118D-05 -0.38727999D-06
  0.23909975D-06  0.50969723D-06  0.94029187D-06  0.15179226D-05  0.19758842D-05
  0.16860256D-05  0.58214412D-06  0.10655870D-03  0.49112805D-04 -0.13771743D-03
  0.21883099D-05  0.16778572D-05  0.83736834D-06  0.94185855D-05  0.72215739D-05
  0.36040715D-05 -0.48544024D-06 -0.37220478D-06 -0.18575627D-06  0.81899068D-03
  0.80037038D-05 -0.40145412D-03 -0.68867727D-06 -0.25838512D-05 -0.30548723D-04
 -0.97085150D-04  0.21059770D-05  0.10206643D-05  0.47524413D-06  0.28172222D-03
  0.51972249D-03  0.83899324D-03  0.10921199D-02  0.93190790D-03  0.32176540D-03
 -0.46588994D-04 -0.21472825D-04  0.60212041D-04 -0.27860602D-05 -0.21361742D-05
 -0.10661007D-05  0.50316693D-04  0.38579649D-04  0.19253949D-04  0.24560220D-05
  0.18831219D-05  0.93980980D-06 -0.79758418D-03 -0.41595257D-03  0.15379583D-03
 -0.26528949D-05  0.29579928D-04  0.80489410D-04  0.32706093D-04 -0.14731349D-04
 -0.53092185D-06 -0.11388855D-05  0.16665579D-01  0.30744739D-01  0.49631542D-01
  0.64605520D-01  0.55128008D-01  0.19034376D-01 -0.36915908D-03 -0.17014508D-03