 Generated by Multiwfn (http://sobereva.com/multiwfn)
GAUSSIAN             65 MOL ORBITALS    292 PRIMITIVES       19 NUCLEI
  C    1    (CENTRE  1)   2.39454011 -1.09306851  0.00135302  CHARGE =  6.0
  C    2    (CENTRE  2)   2.19454109  1.53529298  0.01189391  CHARGE =  6.0
  C    3    (CENTRE  3)  -0.17722765  2.67955251  0.00174986  CHARGE =  6.0
  C    4    (CENTRE  4)  -2.36612584  1.20892808 -0.01660127  CHARGE =  6.0
  C    5    (CENTRE  5)  -2.19936899 -1.42461126 -0.02169408  CHARGE =  6.0
  C    6    (CENTRE  6)   0.18908036 -2.54895875 -0.01724378  CHARGE =  6.0
  H    7    (CENTRE  7)   0.33528647 -4.59460052 -0.03121452  CHARGE =  1.0
  O    8    (CENTRE  8)  -0.24751398  5.26416117  0.00386257  CHARGE =  8.0
  H    9    (CENTRE  9)  -1.98252064  5.81037149 -0.00092033  CHARGE =  1.0
  H   10    (CENTRE 10)  -4.20742013  2.12116134 -0.03078556  CHARGE =  1.0
  C   11    (CENTRE 11)   4.96713760 -2.33016086  0.00306133  CHARGE =  6.0
  H   12    (CENTRE 12)   6.06949614 -1.76341315 -1.65219703  CHARGE =  1.0
  H   13    (CENTRE 13)   6.05439534 -1.78815912  1.67654798  CHARGE =  1.0
  H   14    (CENTRE 14)   4.81223664 -4.38704648 -0.01268954  CHARGE =  1.0
  H   15    (CENTRE 15)   3.86053883  2.72796897  0.01963423  CHARGE =  1.0
  C   16    (CENTRE 16)  -4.56764378 -3.01694350  0.01823772  CHARGE =  6.0
  H   17    (CENTRE 17)  -5.32704157 -3.16932341  1.93812009  CHARGE =  1.0
  H   18    (CENTRE 18)  -6.04923437 -2.19906995 -1.16641269  CHARGE =  1.0
  H   19    (CENTRE 19)  -4.19522233 -4.93136270 -0.65552334  CHARGE =  1.0
CENTRE ASSIGNMENTS    1  1  1  1  1  1  1  1  1  1  1  1  1  1  1  1  1  1  1  1
CENTRE ASSIGNMENTS    1  1  1  1  1  1  1  1  2  2  2  2  2  2  2  2  2  2  2  2
CENTRE ASSIGNMENTS    2  2  2  2  2  2  2  2  2  2  2  2  2  2  2  2  3  3  3  3
CENTRE ASSIGNMENTS    3  3  3  3  3  3  3  3  3  3  3  3  3  3  3  3  3  3  3  3
CENTRE ASSIGNMENTS    3  3  3  3  4  4  4  4  4  4  4  4  4  4  4  4  4  4  4  4
CENTRE ASSIGNMENTS    4  4  4  4  4  4  4  4  4  4  4  4  5  5  5  5  5  5  5  5
CENTRE ASSIGNMENTS    5  5  5  5  5  5  5  5  5  5  5  5  5  5  5  5  5  5  5  5
CENTRE ASSIGNMENTS    6  6  6  6  6  6  6  6  6  6  6  6  6  6  6  6  6  6  6  6
CENTRE ASSIGNMENTS    6  6  6  6  6  6  6  6  7  7  7  7  8  8  8  8  8  8  8  8
CENTRE ASSIGNMENTS    8  8  8  8  8  8  8  8  8  8  8  8  8  8  8  8  8  8  8  8
CENTRE ASSIGNMENTS    9  9  9  9 10 10 10 10 11 11 11 11 11 11 11 11 11 11 11 11
CENTRE ASSIGNMENTS   11 11 11 11 11 11 11 11 11 11 11 11 11 11 11 11 12 12 12 12
CENTRE ASSIGNMENTS   13 13 13 13 14 14 14 14 15 15 15 15 16 16 16 16 16 16 16 16
CENTRE ASSIGNMENTS   16 16 16 16 16 16 16 16 16 16 16 16 16 16 16 16 16 16 16 16
CENTRE ASSIGNMENTS   17 17 17 17 18 18 18 18 19 19 19 19
TYPE ASSIGNMENTS      1  1  1  1  1  1  1  1  1  2  2  2  3  3  3  4  4  4  1  2
TYPE ASSIGNMENTS      3  4  5  6  7  8  9 10  1  1  1  1  1  1  1  1  1  2  2  2
TYPE ASSIGNMENTS      3  3  3  4  4  4  1  2  3  4  5  6  7  8  9 10  1  1  1  1
TYPE ASSIGNMENTS      1  1  1  1  1  2  2  2  3  3  3  4  4  4  1  2  3  4  5  6
TYPE ASSIGNMENTS      7  8  9 10  1  1  1  1  1  1  1  1  1  2  2  2  3  3  3  4
TYPE ASSIGNMENTS      4  4  1  2  3  4  5  6  7  8  9 10  1  1  1  1  1  1  1  1
TYPE ASSIGNMENTS      1  2  2  2  3  3  3  4  4  4  1  2  3  4  5  6  7  8  9 10
TYPE ASSIGNMENTS      1  1  1  1  1  1  1  1  1  2  2  2  3  3  3  4  4  4  1  2
TYPE ASSIGNMENTS      3  4  5  6  7  8  9 10  1  1  1  1  1  1  1  1  1  1  1  1
TYPE ASSIGNMENTS      1  2  2  2  3  3  3  4  4  4  1  2  3  4  5  6  7  8  9 10
TYPE ASSIGNMENTS      1  1  1  1  1  1  1  1  1  1  1  1  1  1  1  1  1  2  2  2
TYPE ASSIGNMENTS      3  3  3  4  4  4  1  2  3  4  5  6  7  8  9 10  1  1  1  1
TYPE ASSIGNMENTS      1  1  1  1  1  1  1  1  1  1  1  1  1  1  1  1  1  1  1  1
TYPE ASSIGNMENTS      1  2  2  2  3  3  3  4  4  4  1  2  3  4  5  6  7  8  9 10
TYPE ASSIGNMENTS      1  1  1  1  1  1  1  1  1  1  1  1
EXPONENTS  0.3047525D+04 0.4573695D+03 0.1039487D+03 0.2921016D+02 0.9286663D+01
EXPONENTS  0.3163927D+01 0.7868272D+01 0.1881289D+01 0.5442493D+00 0.7868272D+01
EXPONENTS  0.1881289D+01 0.5442493D+00 0.7868272D+01 0.1881289D+01 0.5442493D+00
EXPONENTS  0.7868272D+01 0.1881289D+01 0.5442493D+00 0.1687145D+00 0.1687145D+00
EXPONENTS  0.1687145D+00 0.1687145D+00 0.8000000D+00 0.8000000D+00 0.8000000D+00
EXPONENTS  0.8000000D+00 0.8000000D+00 0.8000000D+00 0.3047525D+04 0.4573695D+03
EXPONENTS  0.1039487D+03 0.2921016D+02 0.9286663D+01 0.3163927D+01 0.7868272D+01
EXPONENTS  0.1881289D+01 0.5442493D+00 0.7868272D+01 0.1881289D+01 0.5442493D+00
EXPONENTS  0.7868272D+01 0.1881289D+01 0.5442493D+00 0.7868272D+01 0.1881289D+01
EXPONENTS  0.5442493D+00 0.1687145D+00 0.1687145D+00 0.1687145D+00 0.1687145D+00
EXPONENTS  0.8000000D+00 0.8000000D+00 0.8000000D+00 0.8000000D+00 0.8000000D+00
EXPONENTS  0.8000000D+00 0.3047525D+04 0.4573695D+03 0.1039487D+03 0.2921016D+02
EXPONENTS  0.9286663D+01 0.3163927D+01 0.7868272D+01 0.1881289D+01 0.5442493D+00
EXPONENTS  0.7868272D+01 0.1881289D+01 0.5442493D+00 0.7868272D+01 0.1881289D+01
EXPONENTS  0.5442493D+00 0.7868272D+01 0.1881289D+01 0.5442493D+00 0.1687145D+00
EXPONENTS  0.1687145D+00 0.1687145D+00 0.1687145D+00 0.8000000D+00 0.8000000D+00
EXPONENTS  0.8000000D+00 0.8000000D+00 0.8000000D+00 0.8000000D+00 0.3047525D+04
EXPONENTS  0.4573695D+03 0.1039487D+03 0.2921016D+02 0.9286663D+01 0.3163927D+01
EXPONENTS  0.7868272D+01 0.1881289D+01 0.5442493D+00 0.7868272D+01 0.1881289D+01
EXPONENTS  0.5442493D+00 0.7868272D+01 0.1881289D+01 0.5442493D+00 0.7868272D+01
EXPONENTS  0.1881289D+01 0.5442493D+00 0.1687145D+00 0.1687145D+00 0.1687145D+00
EXPONENTS  0.1687145D+00 0.8000000D+00 0.8000000D+00 0.8000000D+00 0.8000000D+00
EXPONENTS  0.8000000D+00 0.8000000D+00 0.3047525D+04 0.4573695D+03 0.1039487D+03
EXPONENTS  0.2921016D+02 0.9286663D+01 0.3163927D+01 0.7868272D+01 0.1881289D+01
EXPONENTS  0.5442493D+00 0.7868272D+01 0.1881289D+01 0.5442493D+00 0.7868272D+01
EXPONENTS  0.1881289D+01 0.5442493D+00 0.7868272D+01 0.1881289D+01 0.5442493D+00
EXPONENTS  0.1687145D+00 0.1687145D+00 0.1687145D+00 0.1687145D+00 0.8000000D+00
EXPONENTS  0.8000000D+00 0.8000000D+00 0.8000000D+00 0.8000000D+00 0.8000000D+00
EXPONENTS  0.3047525D+04 0.4573695D+03 0.1039487D+03 0.2921016D+02 0.9286663D+01
EXPONENTS  0.3163927D+01 0.7868272D+01 0.1881289D+01 0.5442493D+00 0.7868272D+01
EXPONENTS  0.1881289D+01 0.5442493D+00 0.7868272D+01 0.1881289D+01 0.5442493D+00
EXPONENTS  0.7868272D+01 0.1881289D+01 0.5442493D+00 0.1687145D+00 0.1687145D+00
EXPONENTS  0.1687145D+00 0.1687145D+00 0.8000000D+00 0.8000000D+00 0.8000000D+00
EXPONENTS  0.8000000D+00 0.8000000D+00 0.8000000D+00 0.1873114D+02 0.2825394D+01
EXPONENTS  0.6401217D+00 0.1612778D+00 0.5484672D+04 0.8252349D+03 0.1880470D+03
EXPONENTS  0.5296450D+02 0.1689757D+02 0.5799635D+01 0.1553962D+02 0.3599934D+01
EXPONENTS  0.1013762D+01 0.1553962D+02 0.3599934D+01 0.1013762D+01 0.1553962D+02
EXPONENTS  0.3599934D+01 0.1013762D+01 0.1553962D+02 0.3599934D+01 0.1013762D+01
EXPONENTS  0.2700058D+00 0.2700058D+00 0.2700058D+00 0.2700058D+00 0.8000000D+00
EXPONENTS  0.8000000D+00 0.8000000D+00 0.8000000D+00 0.8000000D+00 0.8000000D+00
EXPONENTS  0.1873114D+02 0.2825394D+01 0.6401217D+00 0.1612778D+00 0.1873114D+02
EXPONENTS  0.2825394D+01 0.6401217D+00 0.1612778D+00 0.3047525D+04 0.4573695D+03
EXPONENTS  0.1039487D+03 0.2921016D+02 0.9286663D+01 0.3163927D+01 0.7868272D+01
EXPONENTS  0.1881289D+01 0.5442493D+00 0.7868272D+01 0.1881289D+01 0.5442493D+00
EXPONENTS  0.7868272D+01 0.1881289D+01 0.5442493D+00 0.7868272D+01 0.1881289D+01
EXPONENTS  0.5442493D+00 0.1687145D+00 0.1687145D+00 0.1687145D+00 0.1687145D+00
EXPONENTS  0.8000000D+00 0.8000000D+00 0.8000000D+00 0.8000000D+00 0.8000000D+00
EXPONENTS  0.8000000D+00 0.1873114D+02 0.2825394D+01 0.6401217D+00 0.1612778D+00
EXPONENTS  0.1873114D+02 0.2825394D+01 0.6401217D+00 0.1612778D+00 0.1873114D+02
EXPONENTS  0.2825394D+01 0.6401217D+00 0.1612778D+00 0.1873114D+02 0.2825394D+01
EXPONENTS  0.6401217D+00 0.1612778D+00 0.3047525D+04 0.4573695D+03 0.1039487D+03
EXPONENTS  0.2921016D+02 0.9286663D+01 0.3163927D+01 0.7868272D+01 0.1881289D+01
EXPONENTS  0.5442493D+00 0.7868272D+01 0.1881289D+01 0.5442493D+00 0.7868272D+01
EXPONENTS  0.1881289D+01 0.5442493D+00 0.7868272D+01 0.1881289D+01 0.5442493D+00
EXPONENTS  0.1687145D+00 0.1687145D+00 0.1687145D+00 0.1687145D+00 0.8000000D+00
EXPONENTS  0.8000000D+00 0.8000000D+00 0.8000000D+00 0.8000000D+00 0.8000000D+00
EXPONENTS  0.1873114D+02 0.2825394D+01 0.6401217D+00 0.1612778D+00 0.1873114D+02
EXPONENTS  0.2825394D+01 0.6401217D+00 0.1612778D+00 0.1873114D+02 0.2825394D+01
EXPONENTS  0.6401217D+00 0.1612778D+00
MO    1     MO 0.0        OCC NO =    1.0000000  ORB. ENERGY =  -19.415785
  0.42064340D-05  0.77600494D-05  0.12527126D-04  0.16306596D-04  0.13914448D-04
  0.48043244D-05 -0.60159848D-05 -0.27727619D-05  0.77751137D-05 -0.50256303D-04
 -0.38533346D-04 -0.19230840D-04  0.89174310D-04  0.68373205D-04  0.34123021D-04
  0.61670090D-07  0.47284714D-07  0.23598386D-07  0.21142791D-03 -0.29731229D-04
 -0.54666533D-04 -0.16506456D-07  0.31018085D-04  0.22638818D-04  0.34642129D-04
  0.29142123D-04 -0.46966182D-06  0.28357947D-06  0.29789001D-05  0.54954890D-05
  0.88714233D-05  0.11547957D-04  0.98538927D-05  0.34023124D-05 -0.53224002D-04
 -0.24530894D-04  0.68787187D-04 -0.17071667D-04 -0.13089471D-04 -0.65325635D-05
  0.90217619D-05  0.69173148D-05  0.34522249D-05  0.29305595D-06  0.22469672D-06
  0.11213941D-06 -0.13639201D-03  0.18341936D-03  0.12239903D-03  0.94863076D-06
 -0.11049289D-03 -0.55443901D-04  0.20205150D-04  0.20883577D-04 -0.13635503D-05
  0.27910977D-06 -0.25769899D-04 -0.47540432D-04 -0.76744997D-04 -0.99899183D-04
 -0.85244154D-04 -0.29432758D-04 -0.57563893D-04 -0.26531146D-04  0.74396102D-04
  0.52614748D-04  0.40341651D-04  0.20133311D-04  0.58608691D-03  0.44937427D-03
  0.22426925D-03  0.11610934D-05  0.89025276D-06  0.44429852D-06 -0.39899008D-04
 -0.70810397D-04 -0.71191435D-03 -0.17496481D-05 -0.85038228D-05 -0.33784571D-04
 -0.96223398D-04  0.96760394D-04  0.15569923D-05  0.15314800D-05  0.17372208D-04
  0.32048332D-04  0.51735945D-04  0.67344828D-04  0.57465464D-04  0.19841444D-04
 -0.10465214D-03 -0.48234076D-04  0.13525338D-03 -0.35478720D-04 -0.27202832D-04
 -0.13576120D-04 -0.92203823D-04 -0.70696043D-04 -0.35282280D-04 -0.20723813D-05
 -0.15889705D-05 -0.79300767D-06 -0.65441030D-03 -0.25375840D-03  0.24391249D-03
 -0.99657004D-06 -0.59085350D-04 -0.10512373D-03  0.76141521D-04 -0.36359640D-04
 -0.25983486D-05 -0.88651882D-06 -0.53553582D-05 -0.98795901D-05 -0.15948722D-04
 -0.20760497D-04 -0.17714970D-04 -0.61165533D-05  0.32964466D-04  0.15193292D-04
 -0.42603577D-04  0.20501029D-04  0.15718889D-04  0.78448272D-05  0.82006387D-04
  0.62877296D-04  0.31380178D-04  0.33930098D-06  0.26015447D-06  0.12983531D-06
  0.38897125D-03  0.83618032D-05  0.19090749D-03  0.12537504D-05 -0.59503670D-05
  0.75738999D-04 -0.82894403D-05 -0.79603643D-05 -0.20647371D-05 -0.17916819D-07
  0.69410619D-05  0.12804904D-04  0.20671085D-04  0.26907611D-04  0.22960313D-04
  0.79276444D-05 -0.26043476D-04 -0.12003414D-04  0.33658826D-04  0.19490844D-04
  0.14944343D-04  0.74582744D-05  0.44491034D-04  0.34112903D-04  0.17024729D-04
  0.21251289D-05  0.16294141D-05  0.81319183D-06 -0.11998871D-03 -0.66411792D-04
 -0.85668494D-04 -0.15671842D-05 -0.23503405D-04  0.19707105D-04  0.36362129D-04
 -0.64650776D-05 -0.53090555D-06 -0.68462420D-06 -0.54757988D-05 -0.92879911D-05
 -0.10574050D-04 -0.26970928D-04  0.82559511D+00  0.15195357D+01  0.24588956D+01
  0.32322872D+01  0.27723139D+01  0.94790121D+00 -0.15888008D-01 -0.70891981D-02
  0.20934497D-01 -0.28535629D-02 -0.21985164D-02 -0.96526711D-03 -0.17122909D-02
 -0.13192278D-02 -0.57921207D-03 -0.12971747D-04 -0.99940320D-05 -0.43879184D-05
  0.38700229D-02  0.91117518D-04 -0.35517493D-03  0.58043626D-06 -0.93847819D-02
 -0.92472242D-02 -0.92296484D-02 -0.67158918D-04 -0.15360232D-05 -0.14506255D-05
  0.92126031D-04  0.15626318D-03  0.17790011D-03 -0.19297939D-03 -0.22332427D-04
 -0.37880022D-04 -0.43125067D-04 -0.76819473D-04  0.60978708D-05  0.11249381D-04
  0.18159989D-04  0.23638910D-04  0.20171125D-04  0.69646046D-05 -0.22101806D-04
 -0.10186702D-04  0.28564576D-04  0.16863492D-04  0.12929856D-04  0.64529043D-05
  0.26428874D-05  0.20263984D-05  0.10113148D-05  0.40384792D-08  0.30964497D-08
  0.15453454D-08 -0.74173008D-04  0.23706146D-04 -0.21012804D-05 -0.13604815D-07
 -0.86081624D-05  0.22781272D-04  0.22339098D-04  0.40992624D-05 -0.42845792D-07
 -0.20594874D-06  0.30158148D-05  0.51153928D-05  0.58236939D-05  0.33774320D-05
  0.30704980D-05  0.52081458D-05  0.59292899D-05  0.33456104D-05  0.32133996D-05
  0.54505339D-05  0.62052401D-05  0.90604203D-05 -0.31414249D-05 -0.53284512D-05
 -0.60662533D-05 -0.11935917D-03  0.46998302D-05  0.86702691D-05  0.13996503D-04
  0.18219288D-04  0.15546551D-04  0.53678505D-05 -0.17010946D-04 -0.78403294D-05
  0.21985102D-04  0.25720718D-05  0.19721015D-05  0.98421689D-06 -0.38139789D-05
 -0.29243171D-05 -0.14594392D-05  0.13228853D-05  0.10143045D-05  0.50620904D-06
 -0.18731262D-04  0.68734545D-05 -0.29836417D-04 -0.15435916D-05  0.23783791D-04
 -0.90571713D-05  0.13148500D-04 -0.47734094D-04 -0.95187963D-05  0.13445111D-04
  0.25148284D-05  0.42656250D-05  0.48562633D-05  0.41820490D-05  0.43214731D-05
  0.73300362D-05  0.83449872D-05  0.79347446D-05 -0.20992396D-07 -0.35607077D-07
 -0.40537399D-07 -0.97955774D-05
MO    2     MO 0.0        OCC NO =    1.0000000  ORB. ENERGY =  -10.483966
  0.31283383D-04  0.57711733D-04  0.93164631D-04  0.12127267D-03  0.10348219D-03
  0.35729913D-04 -0.92349719D-04 -0.42563901D-04  0.11935362D-03  0.70563205D-04
  0.54103390D-04  0.27001383D-04 -0.10697787D-03 -0.82023843D-04 -0.40935646D-04
  0.89986853D-06  0.68996211D-06  0.34433945D-06 -0.14244423D-02  0.39797304D-03
 -0.39077998D-03 -0.83063797D-06  0.10566552D-04  0.45854721D-04  0.46963491D-04
  0.51123358D-05  0.11823203D-05  0.22006523D-06  0.15387777D-02  0.28387444D-02
  0.45826137D-02  0.59652014D-02  0.50901171D-02  0.17574951D-02  0.29798027D-03
  0.13733884D-03 -0.38511243D-03  0.36737423D-03  0.28167926D-03  0.14057769D-03
 -0.50146683D-04 -0.38449296D-04 -0.19188893D-04  0.46878750D-06  0.35943652D-06
  0.17938401D-06  0.24299670D-02 -0.10030398D-02 -0.58225054D-03 -0.69973654D-05
 -0.27128470D-03 -0.40843210D-03 -0.37197700D-03  0.25652267D-03  0.32223008D-05
  0.20155830D-05  0.53254133D+00  0.98243477D+00  0.15859543D+01  0.20644413D+01
  0.17615915D+01  0.60823522D+00 -0.19923285D-01 -0.91826238D-02  0.25749036D-01
 -0.19792167D-04 -0.15175378D-04 -0.75735774D-05  0.94899079D-03  0.72762594D-03
  0.36313634D-03 -0.11470565D-05 -0.87949016D-06 -0.43892723D-06 -0.38580654D-02
 -0.54321652D-04  0.18101207D-02  0.51943056D-05 -0.10241459D-01 -0.95441454D-02
 -0.10417878D-01  0.73090005D-05  0.81538629D-06  0.28811690D-07  0.14846977D-02
  0.27389774D-02  0.44215588D-02  0.57555558D-02  0.49112262D-02  0.16957284D-02
  0.30329750D-03  0.13978954D-03 -0.39198447D-03 -0.37625455D-03 -0.28848812D-03
 -0.14397579D-03 -0.93783613D-04 -0.71907326D-04 -0.35886795D-04 -0.33804295D-06
 -0.25918989D-06 -0.12935392D-06  0.25123757D-02  0.11302069D-02 -0.38224012D-03
  0.62573592D-05 -0.25640849D-03 -0.42804227D-03 -0.36842352D-03 -0.21092302D-03
  0.12681010D-05 -0.22012904D-05  0.33080690D-04  0.61027414D-04  0.98517168D-04
  0.12824008D-03  0.10942749D-03  0.37782684D-04 -0.95504768D-04 -0.44018060D-04
  0.12343124D-03 -0.42205007D-04 -0.32360123D-04 -0.16149969D-04 -0.12542868D-03
 -0.96170755D-04 -0.47995947D-04 -0.56712217D-06 -0.43483331D-06 -0.21701230D-06
 -0.14228924D-02 -0.38440838D-03 -0.42475467D-03 -0.45646272D-05  0.11623851D-04
  0.39691010D-04  0.48898186D-04 -0.18243197D-04  0.50631190D-05  0.15306419D-05
 -0.62340723D-04 -0.11500646D-03 -0.18565609D-03 -0.24166906D-03 -0.20621665D-03
 -0.71201653D-04  0.12364192D-03  0.56986447D-04 -0.15979594D-03  0.24210405D-05
  0.18563003D-05  0.92642395D-06 -0.10053209D-03 -0.77081629D-04 -0.38469135D-04
 -0.33764928D-05 -0.25888805D-05 -0.12920328D-05  0.88223347D-03 -0.54212164D-04
  0.51258220D-03  0.41956889D-05  0.14968736D-04 -0.37140478D-04 -0.12975866D-03
  0.69916750D-06  0.13299288D-05  0.24084456D-05  0.27986696D-04  0.47470733D-04
  0.54043751D-04  0.15671293D-03  0.11330433D-03  0.20854045D-03  0.33745781D-03
  0.44359774D-03  0.38047120D-03  0.13008957D-03 -0.65846292D-03 -0.29380487D-03
  0.86760972D-03  0.60249662D-04  0.46419117D-04  0.20380492D-04  0.17987221D-06
  0.13858184D-06  0.60844892D-07  0.33958974D-05  0.26163559D-05  0.11487211D-05
 -0.16005760D-02 -0.34303317D-04  0.75743590D-03 -0.11442445D-05  0.73318647D-03
 -0.45599555D-03  0.92240226D-03  0.13188494D-03 -0.18206699D-05  0.53289296D-06
  0.36368286D-04  0.61687497D-04  0.70229035D-04 -0.58172460D-04  0.36440434D-04
  0.61809873D-04  0.70368356D-04  0.35100529D-03 -0.20985331D-04 -0.38713838D-04
 -0.62496138D-04 -0.81351402D-04 -0.69417299D-04 -0.23968125D-04  0.58760089D-04
  0.27082472D-04 -0.75942077D-04  0.11898483D-04  0.91230017D-05  0.45530172D-05
 -0.27448217D-04 -0.21045552D-04 -0.10503205D-04 -0.17594553D-06 -0.13490387D-06
 -0.67326487D-07  0.15214616D-05  0.16930911D-04  0.61287316D-04  0.43161445D-06
 -0.42988595D-04 -0.31866154D-04 -0.42262071D-04 -0.11934843D-03 -0.61988053D-06
  0.67711847D-08 -0.10438222D-04 -0.17705199D-04 -0.20156744D-04 -0.18066609D-04
 -0.10616976D-04 -0.18008401D-04 -0.20501928D-04 -0.17613625D-04  0.14276038D-05
  0.24214862D-05  0.27567765D-05  0.21424085D-04  0.38983054D-04  0.66122638D-04
  0.75278286D-04  0.33180289D-03 -0.20687653D-04 -0.38164680D-04 -0.61609627D-04
 -0.80197429D-04 -0.68432611D-04 -0.23628136D-04  0.56876447D-04  0.26214302D-04
 -0.73507640D-04 -0.13179918D-04 -0.10105525D-04 -0.50433652D-05 -0.32161889D-04
 -0.24659696D-04 -0.12306917D-04 -0.36129102D-05 -0.27701504D-05 -0.13824992D-05
 -0.18403980D-04 -0.27317281D-04  0.47858812D-04  0.73916439D-05 -0.54912734D-04
 -0.99262860D-05 -0.53091952D-04  0.96420158D-04  0.19355806D-04 -0.27703619D-04
 -0.77150059D-05 -0.13086110D-04 -0.14898074D-04 -0.14594412D-04 -0.10864435D-04
 -0.18428139D-04 -0.20979785D-04 -0.16795304D-04  0.15729316D-05  0.26679897D-05
  0.30374120D-05  0.16103859D-04
MO    3     MO 0.0        OCC NO =    1.0000000  ORB. ENERGY =  -10.411889
  0.11138799D-01  0.20548910D-01  0.33172311D-01  0.43180493D-01  0.36845993D-01
  0.12722036D-01 -0.15176101D-03 -0.69946510D-04  0.19613732D-03  0.42752008D-03
  0.32779528D-03  0.16359282D-03  0.16272600D-03  0.12476798D-03  0.62267964D-04
  0.27653758D-05  0.21203147D-05  0.10581857D-05  0.17106622D-02 -0.88811250D-03
  0.99508054D-04 -0.38516723D-05 -0.54992844D-03 -0.56884280D-03 -0.45908601D-03
 -0.18205865D-03 -0.95583283D-06 -0.22146123D-05  0.17390108D-03  0.32081354D-03
  0.51789252D-03  0.67414218D-03  0.57524674D-03  0.19861888D-03 -0.40670126D-04
 -0.18744824D-04  0.52562442D-04  0.64290841D-05  0.49294139D-05  0.24601230D-05
  0.70064099D-04  0.53720707D-04  0.26810398D-04  0.96406915D-06  0.73918707D-06
  0.36890616D-06 -0.82864308D-03  0.37788518D-03  0.24896271D-03  0.25758115D-05
  0.33041066D-04  0.72589301D-04  0.26121654D-04 -0.56252808D-05 -0.38236500D-07
  0.15552407D-06 -0.18582670D-06 -0.34281398D-06 -0.55340805D-06 -0.72037285D-06
 -0.61469546D-06 -0.21223957D-06  0.11009288D-03  0.50741709D-04 -0.14228505D-03
  0.29162319D-05  0.22359817D-05  0.11159116D-05  0.18768718D-04  0.14390663D-04
  0.71819492D-05 -0.39043367D-06 -0.29935977D-06 -0.14940151D-06  0.81368237D-03
  0.13005226D-04 -0.41667178D-03 -0.67291342D-06 -0.13927164D-05 -0.43798777D-04
 -0.10452595D-03  0.59030839D-05  0.96773383D-06  0.49997075D-06  0.48159650D-03
  0.88845151D-03  0.14342362D-02  0.18669494D-02  0.15930713D-02  0.55004924D-03
 -0.43879809D-04 -0.20224164D-04  0.56710667D-04 -0.18346924D-04 -0.14067258D-04
 -0.70205475D-05  0.85300486D-04  0.65403003D-04  0.32640682D-04  0.30272527D-05
  0.23211053D-05  0.11583942D-05 -0.79636372D-03 -0.40964452D-03  0.15595876D-03
 -0.27165572D-05  0.16487462D-04  0.48485903D-04  0.12009281D-04 -0.11700959D-04
 -0.62535680D-06 -0.12807781D-05  0.32748680D-01  0.60414919D-01  0.97528412D-01
  0.12695301D+00  0.10832924D+00  0.37403482D-01 -0.96015316D-03 -0.44253371D-03
  0.12409107D-02 -0.44011869D-03 -0.33745510D-03 -0.16841374D-03  0.11623564D-03
  0.89122114D-04  0.44478181D-04  0.12939994D-05  0.99215670D-06  0.49515573D-06
  0.15862853D-02  0.86070082D-03  0.20087239D-03  0.14932634D-05 -0.10131000D-02
 -0.96553033D-03 -0.88341908D-03  0.19486214D-03  0.23414092D-05 -0.18377803D-06
  0.53128312D+00  0.98011362D+00  0.15822073D+01  0.20595638D+01  0.17574295D+01
  0.60679817D+00 -0.20273853D-01 -0.93442002D-02  0.26202113D-01 -0.98337380D-04
 -0.75398866D-04 -0.37629318D-04  0.53009786D-03  0.40644542D-03  0.20284475D-03
 -0.68342954D-06 -0.52401043D-06 -0.26151793D-06 -0.39048615D-02  0.68286521D-04
 -0.92703836D-03 -0.39312398D-05 -0.10676650D-01 -0.10853761D-01 -0.10672372D-01
  0.17390238D-04 -0.56296039D-06  0.66355722D-06 -0.92105606D-04 -0.15622854D-03
 -0.17786067D-03  0.87230617D-04 -0.22677937D-04 -0.41739510D-04 -0.67542406D-04
 -0.88786383D-04 -0.76151564D-04 -0.26037513D-04  0.78241761D-04  0.34911322D-04
 -0.10309360D-03 -0.14391466D-04 -0.11087849D-04 -0.48681628D-05  0.33159430D-04
  0.25547553D-04  0.11216752D-04  0.11695188D-07  0.90105117D-08  0.39561000D-08
  0.24772852D-03  0.68835849D-05 -0.57786049D-04  0.36471634D-08 -0.77895871D-04
 -0.79108075D-04 -0.77462266D-04  0.44242976D-05 -0.23364308D-07  0.28318350D-07
 -0.18000926D-05 -0.30532978D-05 -0.34760716D-05  0.13922569D-04 -0.20520669D-04
 -0.34806939D-04 -0.39626469D-04 -0.11665036D-03 -0.49161416D-05 -0.90693212D-05
 -0.14640697D-04 -0.19057837D-04 -0.16262087D-04 -0.56149077D-05  0.54250172D-04
  0.25003855D-04 -0.70113418D-04 -0.34524608D-04 -0.26471280D-04 -0.13211024D-04
  0.37834543D-04  0.29009128D-04  0.14477588D-04  0.56803646D-06  0.43553433D-06
  0.21736215D-06  0.32531337D-03 -0.79940706D-04  0.70952917D-04  0.19378952D-06
  0.32571148D-04  0.30633668D-04 -0.34704887D-04 -0.33711400D-04 -0.15287244D-06
  0.11300961D-05 -0.64652251D-05 -0.10966245D-04 -0.12484683D-04 -0.52987097D-05
 -0.64953630D-05 -0.11017365D-04 -0.12542881D-04 -0.50671731D-05 -0.62981367D-05
 -0.10682832D-04 -0.12162026D-04 -0.12457849D-05 -0.21927442D-04 -0.37193092D-04
 -0.42343021D-04 -0.11919685D-03  0.36547850D-04  0.67423647D-04  0.10884267D-03
  0.14168082D-03  0.12089650D-03  0.41742656D-04  0.49324587D-04  0.22733657D-04
 -0.63747547D-04  0.97517713D-05  0.74770397D-05  0.37315668D-05  0.33539454D-04
  0.25715926D-04  0.12834049D-04  0.10387842D-05  0.79647386D-06  0.39749628D-06
  0.31937479D-03  0.75973605D-04  0.87753193D-04 -0.59851281D-05  0.20360116D-04
  0.35917783D-04 -0.29243729D-04  0.20508841D-04 -0.12174568D-05 -0.10294826D-04
 -0.82147671D-05 -0.13933800D-04 -0.15863139D-04  0.69060912D-05 -0.71885453D-05
 -0.12193133D-04 -0.13881451D-04 -0.18620809D-05 -0.70345312D-05 -0.11931896D-04
 -0.13584042D-04  0.45419861D-05
MO    4     MO 0.0        OCC NO =    1.0000000  ORB. ENERGY =  -10.407419
 -0.10810207D-02 -0.19942720D-02 -0.32193734D-02 -0.41906676D-02 -0.35759043D-02
 -0.12346738D-02 -0.22864417D-04 -0.10538189D-04  0.29550181D-04 -0.81267559D-05
 -0.62310810D-05 -0.31097461D-05 -0.24124769D-05 -0.18497342D-05 -0.92314702D-06
 -0.10206439D-05 -0.78256503D-06 -0.39055480D-06 -0.83333703D-03  0.36369644D-03
 -0.13513455D-03  0.23712865D-05  0.11769832D-03  0.88716148D-04  0.82543874D-04
  0.54673311D-04 -0.76707244D-06 -0.36367580D-06 -0.18870141D-03 -0.34811726D-03
 -0.56196919D-03 -0.73151691D-03 -0.62420471D-03 -0.21552289D-03  0.80752259D-04
  0.37218643D-04 -0.10436496D-03  0.39463614D-04  0.30258196D-04  0.15100961D-04
  0.21040460D-04  0.16132490D-04  0.80512431D-05  0.31902515D-06  0.24460825D-06
  0.12207666D-06  0.59089301D-03 -0.25810433D-03 -0.21374687D-03 -0.27094823D-05
 -0.12071521D-04 -0.82715072D-05 -0.75073710D-04 -0.41508528D-05  0.14130768D-05
  0.13944901D-05 -0.24124324D-04 -0.44504668D-04 -0.71844333D-04 -0.93519975D-04
 -0.79800764D-04 -0.27553286D-04 -0.45059679D-04 -0.20767965D-04  0.58235541D-04
  0.13211375D-04  0.10129644D-04  0.50554023D-05  0.15095185D-04  0.11574030D-04
  0.57762522D-05 -0.11839223D-07 -0.90775654D-08 -0.45303413D-08 -0.76474967D-03
  0.55931956D-04  0.32635000D-03  0.20775036D-05  0.52223414D-04  0.49743717D-04
  0.48848684D-04  0.58915388D-04 -0.55266661D-06  0.19528705D-06  0.10445071D-01
  0.19269117D-01  0.31106330D-01  0.40491199D-01  0.34551213D-01  0.11929704D-01
 -0.14770754D-03 -0.68078268D-04  0.19089857D-03 -0.81940197D-04 -0.62826545D-04
 -0.31354849D-04  0.45847650D-03  0.35153070D-03  0.17543846D-03  0.18184587D-05
  0.13942788D-05  0.69584284D-06  0.15851135D-02  0.42398066D-03 -0.41936387D-03
 -0.99096213D-07 -0.46507761D-03 -0.74352104D-03 -0.43631987D-03 -0.11544764D-05
 -0.19008425D-05  0.31106441D-06  0.53140734D+00  0.98034277D+00  0.15825772D+01
  0.20600453D+01  0.17578404D+01  0.60694004D+00 -0.19823345D-01 -0.91365615D-02
  0.25619872D-01  0.56649744D-03  0.43435431D-03  0.21677324D-03  0.13169577D-03
  0.10097596D-03  0.50394082D-04  0.11852583D-04  0.90878088D-05  0.45354535D-05
 -0.38142249D-02 -0.58134812D-03 -0.27528602D-03  0.42948418D-05 -0.10080888D-01
 -0.10032021D-01 -0.10391878D-01 -0.24198710D-03 -0.28615048D-04 -0.16866408D-04
 -0.32984180D-01 -0.60849372D-01 -0.98229754D-01 -0.12786595D+00 -0.10910825D+00
 -0.37672456D-01  0.15028348D-02  0.69265521D-03 -0.19422775D-02  0.43284691D-03
  0.33187956D-03  0.16563116D-03 -0.30758650D-03 -0.23583782D-03 -0.11769960D-03
  0.40212492D-05  0.30832388D-05  0.15387523D-05  0.19098337D-02 -0.31387334D-03
  0.58967921D-03 -0.94146374D-06  0.11711903D-03  0.36627304D-03  0.43147302D-03
  0.22059946D-03 -0.54659383D-06 -0.13573035D-05  0.73975523D-05  0.12547649D-04
  0.14285055D-04  0.91022869D-04  0.76506472D-06  0.14081275D-05  0.22786161D-05
  0.29953046D-05  0.25690554D-05  0.87840366D-06 -0.18295366D-05 -0.81633568D-06
  0.24106502D-05  0.35844934D-04  0.27616589D-04  0.12125170D-04  0.49534349D-04
  0.38163545D-04  0.16755852D-04  0.55510674D-06  0.42767982D-06  0.18777448D-06
 -0.74908457D-04 -0.32353865D-04 -0.19898547D-04 -0.63450302D-06  0.77467031D-06
  0.28541645D-04 -0.19796917D-04  0.55580082D-04  0.31225482D-07  0.11622596D-05
 -0.62593445D-05 -0.10617033D-04 -0.12087117D-04  0.10612678D-04  0.42781180D-05
  0.72564978D-05  0.82612663D-05  0.10813900D-03 -0.83749901D-05 -0.15450221D-04
 -0.24941448D-04 -0.32466354D-04 -0.27703599D-04 -0.95653870D-05  0.18168204D-04
  0.83737084D-05 -0.23480752D-04  0.32084428D-04  0.24600304D-04  0.12277276D-04
 -0.12825676D-04 -0.98339146D-05 -0.49078126D-05 -0.60863006D-06 -0.46665892D-06
 -0.23289551D-06 -0.77591256D-04  0.16118908D-05 -0.20832600D-04 -0.28706023D-06
  0.11994171D-04 -0.32244824D-04 -0.32520313D-04  0.21278505D-04  0.13352866D-05
 -0.59716252D-06  0.43837719D-06  0.74357069D-06  0.84652895D-06  0.28418192D-05
  0.47990703D-06  0.81401316D-06  0.92672521D-06  0.26361747D-05 -0.54461841D-05
 -0.92377590D-05 -0.10516862D-04  0.93889793D-05  0.17004253D-04  0.28842431D-04
  0.32836088D-04  0.10124573D-03  0.98094036D-03  0.18096434D-02  0.29213256D-02
  0.38026979D-02  0.32448490D-02  0.11203684D-02 -0.21073999D-05 -0.97129867D-06
  0.27236229D-05 -0.34057920D-03 -0.26113452D-03 -0.13032443D-03 -0.18172448D-03
 -0.13933480D-03 -0.69537831D-04  0.91742143D-04  0.70342056D-04  0.35105616D-04
  0.29262389D-03  0.16602047D-03  0.56818356D-04 -0.56872938D-04 -0.38984610D-03
 -0.26987022D-03 -0.47088037D-04 -0.34806116D-03  0.17645998D-04  0.23191932D-04
 -0.31588277D-04 -0.53579696D-04 -0.60998590D-04  0.11207456D-03 -0.19120099D-04
 -0.32431307D-04 -0.36921896D-04  0.20416773D-04 -0.16586923D-04 -0.28134561D-04
 -0.32030203D-04 -0.34017147D-04
MO    5     MO 0.0        OCC NO =    1.0000000  ORB. ENERGY =  -10.399076
  0.53113334D+00  0.97983729D+00  0.15817612D+01  0.20589831D+01  0.17569340D+01
  0.60662709D+00 -0.19744902D-01 -0.91004073D-02  0.25518492D-01 -0.55925655D-03
 -0.42880245D-03 -0.21400247D-03  0.77383220D-04  0.59332545D-04  0.29611098D-04
 -0.48320712D-05 -0.37049257D-05 -0.18490176D-05 -0.36628658D-02  0.57666529D-03
 -0.11993056D-03  0.38222521D-05 -0.10080215D-01 -0.99505309D-02 -0.10398915D-01
  0.19776599D-03  0.33612348D-05  0.49038703D-05  0.36667780D-01  0.67644895D-01
  0.10919983D+00  0.14214574D+00  0.12129322D+00  0.41879633D-01 -0.11493859D-02
 -0.52975093D-03  0.14854769D-02 -0.28739598D-04 -0.22035701D-04 -0.10997359D-04
  0.48770569D-03  0.37394179D-03  0.18662316D-03  0.10667530D-05  0.81791855D-06
  0.40819868D-06  0.13233450D-02 -0.31267113D-03 -0.42619371D-03 -0.35035260D-05
 -0.99236653D-03 -0.12741107D-02 -0.95622685D-03  0.76966304D-04  0.36036192D-06
 -0.12419851D-05 -0.11432570D-03 -0.21090860D-03 -0.34047187D-03 -0.44319321D-03
 -0.37817757D-03 -0.13057563D-03 -0.20492784D-04 -0.94451053D-05  0.26485061D-04
 -0.33645018D-04 -0.25796866D-04 -0.12874444D-04  0.28603235D-04  0.21931146D-04
  0.10945179D-04  0.52322803D-06  0.40117807D-06  0.20021597D-06 -0.63683617D-03
 -0.87765135D-04  0.25094186D-03 -0.26031375D-06  0.31981891D-04  0.25289013D-04
  0.30721810D-04 -0.59848330D-04  0.83511232D-06  0.30425220D-06 -0.33371138D-03
 -0.61563234D-03 -0.99382149D-03 -0.12936603D-02 -0.11038827D-02 -0.38114416D-03
  0.82598829D-04  0.38069725D-04 -0.10675148D-03 -0.47768048D-04 -0.36625509D-04
 -0.18278696D-04  0.12850266D-04  0.98527686D-05  0.49172221D-05 -0.18366238D-05
 -0.14082067D-05 -0.70279382D-06  0.50811378D-03  0.24827546D-03 -0.15446258D-03
  0.24117493D-05 -0.37060368D-05  0.46777500D-06 -0.68765017D-04  0.37396710D-05
  0.17667472D-05 -0.46969934D-06  0.44607975D-03  0.82293004D-03  0.13284642D-02
  0.17292657D-02  0.14755856D-02  0.50948424D-03 -0.65010486D-04 -0.29963274D-04