 Entering Link 1 = D:\Gaussian\G16W\l1.exe PID=     34364.
  
 Copyright (c) 1988,1990,1992,1993,1995,1998,2003,2009,2016,
            Gaussian, Inc.  All Rights Reserved.
  
 This is part of the Gaussian(R) 16 program.  It is based on
 the Gaussian(R) 09 system (copyright 2009, Gaussian, Inc.),
 the Gaussian(R) 03 system (copyright 2003, Gaussian, Inc.),
 the Gaussian(R) 98 system (copyright 1998, Gaussian, Inc.),
 the Gaussian(R) 94 system (copyright 1995, Gaussian, Inc.),
 the Gaussian 92(TM) system (copyright 1992, Gaussian, Inc.),
 the Gaussian 90(TM) system (copyright 1990, Gaussian, Inc.),
 the Gaussian 88(TM) system (copyright 1988, Gaussian, Inc.),
 the Gaussian 86(TM) system (copyright 1986, Carnegie Mellon
 University), and the Gaussian 82(TM) system (copyright 1983,
 Carnegie Mellon University). Gaussian is a federally registered
 trademark of Gaussian, Inc.
  
 This software contains proprietary and confidential information,
 including trade secrets, belonging to Gaussian, Inc.
  
 This software is provided under written license and may be
 used, copied, transmitted, or stored only in accord with that
 written license.
  
 The following legend is applicable only to US Government
 contracts under FAR:
  
                    RESTRICTED RIGHTS LEGEND
  
 Use, reproduction and disclosure by the US Government is
 subject to restrictions as set forth in subparagraphs (a)
 and (c) of the Commercial Computer Software - Restricted
 Rights clause in FAR 52.227-19.
  
 Gaussian, Inc.
 340 Quinnipiac St., Bldg. 40, Wallingford CT 06492
  
  
 ---------------------------------------------------------------
 Warning -- This program may not be used in any manner that
 competes with the business of Gaussian, Inc. or will provide
 assistance to any competitor of Gaussian, Inc.  The licensee
 of this program is prohibited from giving any competitor of
 Gaussian, Inc. access to this program.  By using this program,
 the user acknowledges that Gaussian, Inc. is engaged in the
 business of creating and licensing software in the field of
 computational chemistry and represents and warrants to the
 licensee that it is not a competitor of Gaussian, Inc. and that
 it will not use this program in any manner prohibited above.
 ---------------------------------------------------------------
  

 Cite this work as:
 Gaussian 16, Revision A.03,
 M. J. Frisch, G. W. Trucks, H. B. Schlegel, G. E. Scuseria, 
 M. A. Robb, J. R. Cheeseman, G. Scalmani, V. Barone, 
 G. A. Petersson, H. Nakatsuji, X. Li, M. Caricato, A. V. Marenich, 
 J. Bloino, B. G. Janesko, R. Gomperts, B. Mennucci, H. P. Hratchian, 
 J. V. Ortiz, A. F. Izmaylov, J. L. Sonnenberg, D. Williams-Young, 
 F. Ding, F. Lipparini, F. Egidi, J. Goings, B. Peng, A. Petrone, 
 T. Henderson, D. Ranasinghe, V. G. Zakrzewski, J. Gao, N. Rega, 
 G. Zheng, W. Liang, M. Hada, M. Ehara, K. Toyota, R. Fukuda, 
 J. Hasegawa, M. Ishida, T. Nakajima, Y. Honda, O. Kitao, H. Nakai, 
 T. Vreven, K. Throssell, J. A. Montgomery, Jr., J. E. Peralta, 
 F. Ogliaro, M. J. Bearpark, J. J. Heyd, E. N. Brothers, K. N. Kudin, 
 V. N. Staroverov, T. A. Keith, R. Kobayashi, J. Normand, 
 K. Raghavachari, A. P. Rendell, J. C. Burant, S. S. Iyengar, 
 J. Tomasi, M. Cossi, J. M. Millam, M. Klene, C. Adamo, R. Cammi, 
 J. W. Ochterski, R. L. Martin, K. Morokuma, O. Farkas, 
 J. B. Foresman, and D. J. Fox, Gaussian, Inc., Wallingford CT, 2016.
 
 ******************************************
 Gaussian 16:  EM64W-G16RevA.03 17-Dec-2016
                03-Dec-2025 
 ******************************************
 %nprocs=   4
 Will use up to    4 processors via shared memory.
 ------------------------------------
 #P B3LYP/6-31G* SCF=conver=7 out=wfn
 ------------------------------------
 1/38=1,172=1/1;
 2/12=2,17=6,18=5,40=1/2;
 3/5=1,6=6,7=1,11=2,25=1,30=1,74=-5/1,2,3;
 4//1;
 5/5=2,6=7,38=5/2;
 6/7=2,8=2,9=2,10=2,28=1/1;
 99/5=1,6=100,9=1/99;
 Leave Link    1 at Wed Dec 03 16:27:56 2025, MaxMem=           0 cpu:               0.0 elap:               0.1
 (Enter D:\Gaussian\G16W\l101.exe)
 ----------------------------------------------------
 Generated by Multiwfn (http://sobereva.com/multiwfn)
 ----------------------------------------------------
 Symbolic Z-matrix:
 Charge =  1 Multiplicity = 2
 C                     1.26714  -0.57843   0.00072 
 C                     1.1613    0.81244   0.00629 
 C                    -0.09379   1.41796   0.00093 
 C                    -1.2521    0.63974  -0.00879 
 C                    -1.16386  -0.75387  -0.01148 
 C                     0.10006  -1.34885  -0.00913 
 H                     0.17743  -2.43136  -0.01652 
 O                    -0.13098   2.78567   0.00204 
 H                    -1.04911   3.07472  -0.00049 
 H                    -2.22647   1.12247  -0.01629 
 C                     2.6285   -1.23307   0.00162 
 H                     3.21184  -0.93316  -0.87431 
 H                     3.20385  -0.94625   0.88719 
 H                     2.54653  -2.32153  -0.00672 
 H                     2.04291   1.44358   0.01039 
 C                    -2.41709  -1.5965    0.00965 
 H                    -2.81895  -1.67713   1.02561 
 H                    -3.20112  -1.1637   -0.61724 
 H                    -2.22002  -2.60957  -0.34689 
 
 ITRead=  0  0  0  0  0  0  0  0  0  0  0  0  0  0  0  0  0  0  0
 MicOpt= -1 -1 -1 -1 -1 -1 -1 -1 -1 -1 -1 -1 -1 -1 -1 -1 -1 -1 -1
 NAtoms=     19 NQM=       19 NQMF=       0 NMMI=      0 NMMIF=      0
                NMic=       0 NMicF=      0.
                    Isotopes and Nuclear Properties:
 (Nuclear quadrupole moments (NQMom) in fm**2, nuclear magnetic moments (NMagM)
  in nuclear magnetons)

  Atom         1           2           3           4           5           6           7           8           9          10
 IAtWgt=          12          12          12          12          12          12           1          16           1           1
 AtmWgt=  12.0000000  12.0000000  12.0000000  12.0000000  12.0000000  12.0000000   1.0078250  15.9949146   1.0078250   1.0078250
 NucSpn=           0           0           0           0           0           0           1           0           1           1
 AtZEff=   0.0000000   0.0000000   0.0000000   0.0000000   0.0000000   0.0000000   0.0000000   0.0000000   0.0000000   0.0000000
 NQMom=    0.0000000   0.0000000   0.0000000   0.0000000   0.0000000   0.0000000   0.0000000   0.0000000   0.0000000   0.0000000
 NMagM=    0.0000000   0.0000000   0.0000000   0.0000000   0.0000000   0.0000000   2.7928460   0.0000000   2.7928460   2.7928460
 AtZNuc=   6.0000000   6.0000000   6.0000000   6.0000000   6.0000000   6.0000000   1.0000000   8.0000000   1.0000000   1.0000000

  Atom        11          12          13          14          15          16          17          18          19
 IAtWgt=          12           1           1           1           1          12           1           1           1
 AtmWgt=  12.0000000   1.0078250   1.0078250   1.0078250   1.0078250  12.0000000   1.0078250   1.0078250   1.0078250
 NucSpn=           0           1           1           1           1           0           1           1           1
 AtZEff=   0.0000000   0.0000000   0.0000000   0.0000000   0.0000000   0.0000000   0.0000000   0.0000000   0.0000000
 NQMom=    0.0000000   0.0000000   0.0000000   0.0000000   0.0000000   0.0000000   0.0000000   0.0000000   0.0000000
 NMagM=    0.0000000   2.7928460   2.7928460   2.7928460   2.7928460   0.0000000   2.7928460   2.7928460   2.7928460
 AtZNuc=   6.0000000   1.0000000   1.0000000   1.0000000   1.0000000   6.0000000   1.0000000   1.0000000   1.0000000
 Leave Link  101 at Wed Dec 03 16:27:57 2025, MaxMem=   104857600 cpu:               1.0 elap:               0.1
 (Enter D:\Gaussian\G16W\l202.exe)
                          Input orientation:                          
 ---------------------------------------------------------------------
 Center     Atomic      Atomic             Coordinates (Angstroms)
 Number     Number       Type             X           Y           Z
 ---------------------------------------------------------------------
      1          6           0        1.267136   -0.578427    0.000716
      2          6           0        1.161301    0.812442    0.006294
      3          6           0       -0.093785    1.417958    0.000926
      4          6           0       -1.252100    0.639737   -0.008785
      5          6           0       -1.163856   -0.753872   -0.011480
      6          6           0        0.100057   -1.348851   -0.009125
      7          1           0        0.177426   -2.431358   -0.016518
      8          8           0       -0.130979    2.785674    0.002044
      9          1           0       -1.049105    3.074716   -0.000487
     10          1           0       -2.226471    1.122470   -0.016291
     11          6           0        2.628496   -1.233068    0.001620
     12          1           0        3.211839   -0.933158   -0.874305
     13          1           0        3.203848   -0.946253    0.887191
     14          1           0        2.546526   -2.321525   -0.006715
     15          1           0        2.042909    1.443579    0.010390
     16          6           0       -2.417093   -1.596498    0.009651
     17          1           0       -2.818949   -1.677134    1.025609
     18          1           0       -3.201117   -1.163698   -0.617239
     19          1           0       -2.220016   -2.609565   -0.346888
 ---------------------------------------------------------------------
                    Distance matrix (angstroms):
                    1          2          3          4          5
     1  C    0.000000
     2  C    1.394901   0.000000
     3  C    2.416125   1.393528   0.000000
     4  C    2.798314   2.419620   1.395498   0.000000
     5  C    2.437345   2.803571   2.421167   1.396403   0.000000
     6  C    1.398472   2.407834   2.773609   2.404748   1.396954
     7  H    2.149679   3.389804   3.858898   3.387511   2.147795
     8  O    3.643062   2.358739   1.368222   2.421172   3.687195
     9  H    4.325555   3.162882   1.912455   2.443440   3.830323
    10  H    3.885696   3.402003   2.153128   1.087422   2.156347
    11  C    1.510582   2.517299   3.799836   4.308890   3.822530
    12  H    2.161797   2.833245   4.149810   4.811432   4.463554
    13  H    2.161478   2.835663   4.153233   4.813898   4.463346
    14  H    2.162241   3.426480   4.577667   4.816496   4.027964
    15  H    2.165739   1.084243   2.136869   3.391698   3.887494
    16  C    3.822315   4.313688   3.805888   2.521566   1.510321
    17  H    4.353579   4.804101   4.249246   2.982093   2.160393
    18  H    4.548593   4.829556   4.086880   2.724199   2.164563
    19  H    4.050504   4.823710   4.567579   3.407219   2.161381
                    6          7          8          9         10
     6  C    0.000000
     7  H    1.085294   0.000000
     8  O    4.140990   5.226173   0.000000
     9  H    4.570404   5.641054   0.962552   0.000000
    10  H    3.394144   4.290503   2.675382   2.279848   0.000000
    11  C    2.531111   2.728364   4.874935   5.664076   5.396257
    12  H    3.256459   3.491141   5.076626   5.914580   5.876820
    13  H    3.255608   3.490194   5.082503   5.919778   5.880838
    14  H    2.632738   2.371665   5.766506   6.484444   5.885804
    15  H    3.401870   4.300685   2.554815   3.495894   4.281522
    16  C    2.529373   2.725657   4.942652   4.867416   2.725765
    17  H    3.114328   3.260850   5.309381   5.173519   3.045385
    18  H    3.361820   3.658194   5.040516   4.793297   2.556880
    19  H    2.661996   2.426650   5.796070   5.813955   3.746655
                   11         12         13         14         15
    11  C    0.000000
    12  H    1.094294   0.000000
    13  H    1.094317   1.761563   0.000000
    14  H    1.091571   1.767178   1.767063   0.000000
    15  H    2.739969   2.792483   2.797831   3.798675   0.000000
    16  C    5.058667   5.736399   5.726070   5.016318   5.397563
    17  H    5.560612   6.366599   6.068561   5.501750   5.865764
    18  H    5.862780   6.422245   6.582869   5.894803   5.889959
    19  H    5.052155   5.709077   5.805847   4.787338   5.893060
                   16         17         18         19
    16  C    0.000000
    17  H    1.095519   0.000000
    18  H    1.093161   1.763127   0.000000
    19  H    1.091908   1.764057   1.768101   0.000000
 Stoichiometry    C8H10O(1+,2)
 Framework group  C1[X(C8H10O)]
 Deg. of freedom    51
 Full point group                 C1      NOp   1
 Largest Abelian subgroup         C1      NOp   1
 Largest concise Abelian subgroup C1      NOp   1
                         Standard orientation:                         
 ---------------------------------------------------------------------
 Center     Atomic      Atomic             Coordinates (Angstroms)
 Number     Number       Type             X           Y           Z
 ---------------------------------------------------------------------
      1          6           0        1.267136   -0.578427    0.000716
      2          6           0        1.161301    0.812442    0.006294
      3          6           0       -0.093785    1.417958    0.000926
      4          6           0       -1.252100    0.639737   -0.008785
      5          6           0       -1.163856   -0.753872   -0.011480
      6          6           0        0.100057   -1.348851   -0.009125
      7          1           0        0.177426   -2.431358   -0.016518
      8          8           0       -0.130979    2.785674    0.002044
      9          1           0       -1.049105    3.074716   -0.000487
     10          1           0       -2.226471    1.122470   -0.016291
     11          6           0        2.628496   -1.233068    0.001620
     12          1           0        3.211839   -0.933158   -0.874305
     13          1           0        3.203848   -0.946253    0.887191
     14          1           0        2.546526   -2.321525   -0.006715
     15          1           0        2.042909    1.443579    0.010390
     16          6           0       -2.417093   -1.596498    0.009651
     17          1           0       -2.818949   -1.677134    1.025609
     18          1           0       -3.201117   -1.163698   -0.617239
     19          1           0       -2.220016   -2.609565   -0.346888
 ---------------------------------------------------------------------
 Rotational constants (GHZ):           1.7897464           1.7534047           0.8955346
 Leave Link  202 at Wed Dec 03 16:27:57 2025, MaxMem=   104857600 cpu:               0.0 elap:               0.0
 (Enter D:\Gaussian\G16W\l301.exe)
 Standard basis: 6-31G(d) (6D, 7F)
 Ernie: Thresh=  0.10000D-02 Tol=  0.10000D-05 Strict=F.
 There are   155 symmetry adapted cartesian basis functions of A   symmetry.
 There are   155 symmetry adapted basis functions of A   symmetry.
   155 basis functions,   292 primitive gaussians,   155 cartesian basis functions
    33 alpha electrons       32 beta electrons
       nuclear repulsion energy       421.8005378061 Hartrees.
 IExCor=  402 DFT=T Ex+Corr=B3LYP ExCW=0 ScaHFX=  0.200000
 ScaDFX=  0.800000  0.720000  1.000000  0.810000 ScalE2=  1.000000  1.000000
 IRadAn=      5 IRanWt=     -1 IRanGd=            0 ICorTp=0 IEmpDi=  4
 NAtoms=   19 NActive=   19 NUniq=   19 SFac= 1.00D+00 NAtFMM=   60 NAOKFM=F Big=F
 Integral buffers will be    131072 words long.
 Raffenetti 2 integral format.
 Two-electron integral symmetry is turned on.
 Leave Link  301 at Wed Dec 03 16:27:57 2025, MaxMem=   104857600 cpu:               0.0 elap:               0.1
 (Enter D:\Gaussian\G16W\l302.exe)
 NPDir=0 NMtPBC=     1 NCelOv=     1 NCel=       1 NClECP=     1 NCelD=      1
         NCelK=      1 NCelE2=     1 NClLst=     1 CellRange=     0.0.
 One-electron integrals computed using PRISM.
 One-electron integral symmetry used in STVInt
 NBasis=   155 RedAO= T EigKep=  4.04D-04  NBF=   155
 NBsUse=   155 1.00D-06 EigRej= -1.00D+00 NBFU=   155
 Precomputing XC quadrature grid using
 IXCGrd= 4 IRadAn=           5 IRanWt=          -1 IRanGd=           0 AccXCQ= 0.00D+00.
 Generated NRdTot=       0 NPtTot=           0 NUsed=           0 NTot=          32
 NSgBfM=   155   155   155   155   155 MxSgAt=    19 MxSgA2=    19.
 Leave Link  302 at Wed Dec 03 16:27:57 2025, MaxMem=   104857600 cpu:               0.0 elap:               0.3
 (Enter D:\Gaussian\G16W\l303.exe)
 DipDrv:  MaxL=1.
 Leave Link  303 at Wed Dec 03 16:27:57 2025, MaxMem=   104857600 cpu:               0.0 elap:               0.1
 (Enter D:\Gaussian\G16W\l401.exe)
 ExpMin= 1.61D-01 ExpMax= 5.48D+03 ExpMxC= 8.25D+02 IAcc=3 IRadAn=         5 AccDes= 0.00D+00
 Harris functional with IExCor=  402 and IRadAn=       5 diagonalized for initial guess.
 HarFok:  IExCor=  402 AccDes= 0.00D+00 IRadAn=         5 IDoV= 1 UseB2=F ITyADJ=14
 ICtDFT=  3500011 ScaDFX=  1.000000  1.000000  1.000000  1.000000
 FoFCou: FMM=F IPFlag=           0 FMFlag=      100000 FMFlg1=           0
         NFxFlg=           0 DoJE=T BraDBF=F KetDBF=T FulRan=T
         wScrn=  0.000000 ICntrl=       500 IOpCl=  0 I1Cent=   200000004 NGrid=           0
         NMat0=    1 NMatS0=      1 NMatT0=    0 NMatD0=    1 NMtDS0=    0 NMtDT0=    0
 Petite list used in FoFCou.
 Harris En= -385.848662090076    
 JPrj=0 DoOrth=F DoCkMO=F.
 Initial guess <Sx>= 0.0000 <Sy>= 0.0000 <Sz>= 0.5000 <S**2>= 0.7500 S= 0.5000
 Leave Link  401 at Wed Dec 03 16:27:58 2025, MaxMem=   104857600 cpu:               1.0 elap:               1.0
 (Enter D:\Gaussian\G16W\l502.exe)
 Integral symmetry usage will be decided dynamically.
 UHF open shell SCF:
 Using DIIS extrapolation, IDIIS=  1040.
 NGot=   104857600 LenX=   104806718 LenY=   104782252
 Requested convergence on RMS density matrix=1.00D-07 within 128 cycles.
 Requested convergence on MAX density matrix=1.00D-05.
 Requested convergence on             energy=1.00D-05.
 No special actions if energy rises.
 Fock matrices will be formed incrementally for  20 cycles.
 Integral accuracy reduced to 1.0D-05 until final iterations.

 Cycle   1  Pass 0  IDiag  1:
 FoFJK:  IHMeth= 1 ICntrl=       0 DoSepK=F KAlg= 0 I1Cent=           0 FoldK=F
 IRaf= 940000000 NMat=       1 IRICut=       1 DoRegI=T DoRafI=F ISym2E= 0 IDoP0=0 IntGTp=1.
 FoFCou: FMM=F IPFlag=           0 FMFlag=      100000 FMFlg1=           0
         NFxFlg=           0 DoJE=F BraDBF=F KetDBF=F FulRan=T
         wScrn=  0.000000 ICntrl=         0 IOpCl=  1 I1Cent=           0 NGrid=           0
         NMat0=    1 NMatS0=      1 NMatT0=    0 NMatD0=    1 NMtDS0=    0 NMtDT0=    0
 Symmetry not used in FoFCou.
 E= -385.625343029614    
 DIIS: error= 4.47D-02 at cycle   1 NSaved=   1.
 NSaved= 1 IEnMin= 1 EnMin= -385.625343029614     IErMin= 1 ErrMin= 4.47D-02
 ErrMax= 4.47D-02  0.00D+00 EMaxC= 1.00D-01 BMatC= 7.27D-01 BMatP= 7.27D-01
 IDIUse=3 WtCom= 5.53D-01 WtEn= 4.47D-01
 Coeff-Com:  0.100D+01
 Coeff-En:   0.100D+01
 Coeff:      0.100D+01
 Gap=     0.273 Goal=   None    Shift=    0.000
 Gap=     0.030 Goal=   None    Shift=    0.000
 GapD=    0.030 DampG=0.250 DampE=0.500 DampFc=0.2500 IDamp=-1.
 Damping current iteration by 2.50D-01
 RMSDP=5.61D-03 MaxDP=1.28D-01              OVMax= 2.89D-01

 Cycle   2  Pass 0  IDiag  1:
 RMSU=  1.37D-03    CP:  9.88D-01
 E= -385.691370513365     Delta-E=       -0.066027483751 Rises=F Damp=T
 DIIS: error= 2.18D-02 at cycle   2 NSaved=   2.
 NSaved= 2 IEnMin= 2 EnMin= -385.691370513365     IErMin= 2 ErrMin= 2.18D-02
 ErrMax= 2.18D-02  0.00D+00 EMaxC= 1.00D-01 BMatC= 2.07D-01 BMatP= 7.27D-01
 IDIUse=3 WtCom= 7.82D-01 WtEn= 2.18D-01
 Coeff-Com: -0.925D+00 0.192D+01
 Coeff-En:   0.000D+00 0.100D+01
 Coeff:     -0.723D+00 0.172D+01
 Gap=     0.238 Goal=   None    Shift=    0.000
 Gap=     0.057 Goal=   None    Shift=    0.000
 RMSDP=2.50D-03 MaxDP=4.53D-02 DE=-6.60D-02 OVMax= 2.50D-01

 Cycle   3  Pass 0  IDiag  1:
 RMSU=  1.92D-03    CP:  9.63D-01  2.07D+00
 E= -385.796703261008     Delta-E=       -0.105332747642 Rises=F Damp=F
 DIIS: error= 1.40D-02 at cycle   3 NSaved=   3.
 NSaved= 3 IEnMin= 3 EnMin= -385.796703261008     IErMin= 3 ErrMin= 1.40D-02
 ErrMax= 1.40D-02  0.00D+00 EMaxC= 1.00D-01 BMatC= 5.16D-02 BMatP= 2.07D-01
 IDIUse=3 WtCom= 8.60D-01 WtEn= 1.40D-01
 Coeff-Com: -0.443D+00 0.944D+00 0.499D+00
 Coeff-En:   0.000D+00 0.000D+00 0.100D+01
 Coeff:     -0.381D+00 0.813D+00 0.569D+00
 Gap=     0.236 Goal=   None    Shift=    0.000
 Gap=     0.058 Goal=   None    Shift=    0.000
 RMSDP=1.28D-03 MaxDP=3.65D-02 DE=-1.05D-01 OVMax= 1.45D-01

 Cycle   4  Pass 0  IDiag  1:
 RMSU=  9.59D-04    CP:  9.66D-01  2.17D+00  5.68D-01
 E= -385.801937135969     Delta-E=       -0.005233874961 Rises=F Damp=F
 DIIS: error= 1.07D-02 at cycle   4 NSaved=   4.
 NSaved= 4 IEnMin= 4 EnMin= -385.801937135969     IErMin= 4 ErrMin= 1.07D-02
 ErrMax= 1.07D-02  0.00D+00 EMaxC= 1.00D-01 BMatC= 3.27D-02 BMatP= 5.16D-02
 IDIUse=3 WtCom= 8.93D-01 WtEn= 1.07D-01
 Coeff-Com: -0.477D-01 0.124D+00 0.429D+00 0.494D+00
 Coeff-En:   0.000D+00 0.000D+00 0.417D+00 0.583D+00
 Coeff:     -0.426D-01 0.111D+00 0.428D+00 0.504D+00
 Gap=     0.233 Goal=   None    Shift=    0.000
 Gap=     0.061 Goal=   None    Shift=    0.000
 RMSDP=6.39D-04 MaxDP=2.00D-02 DE=-5.23D-03 OVMax= 7.75D-02

 Cycle   5  Pass 0  IDiag  1:
 RMSU=  2.21D-04    CP:  9.66D-01  2.07D+00  7.61D-01  5.28D-01
 E= -385.810965698857     Delta-E=       -0.009028562888 Rises=F Damp=F
 DIIS: error= 1.95D-03 at cycle   5 NSaved=   5.
 NSaved= 5 IEnMin= 5 EnMin= -385.810965698857     IErMin= 5 ErrMin= 1.95D-03
 ErrMax= 1.95D-03  0.00D+00 EMaxC= 1.00D-01 BMatC= 1.46D-03 BMatP= 3.27D-02
 IDIUse=3 WtCom= 9.80D-01 WtEn= 1.95D-02
 Coeff-Com:  0.596D-02 0.115D-02 0.208D+00 0.293D+00 0.493D+00
 Coeff-En:   0.000D+00 0.000D+00 0.000D+00 0.000D+00 0.100D+01
 Coeff:      0.584D-02 0.113D-02 0.204D+00 0.287D+00 0.503D+00
 Gap=     0.233 Goal=   None    Shift=    0.000
 Gap=     0.063 Goal=   None    Shift=    0.000
 RMSDP=1.47D-04 MaxDP=6.06D-03 DE=-9.03D-03 OVMax= 1.25D-02

 Cycle   6  Pass 0  IDiag  1:
 RMSU=  1.05D-04    CP:  9.66D-01  2.08D+00  7.46D-01  5.66D-01  5.90D-01
 E= -385.811309269665     Delta-E=       -0.000343570808 Rises=F Damp=F
 DIIS: error= 6.72D-04 at cycle   6 NSaved=   6.
 NSaved= 6 IEnMin= 6 EnMin= -385.811309269665     IErMin= 6 ErrMin= 6.72D-04
 ErrMax= 6.72D-04  0.00D+00 EMaxC= 1.00D-01 BMatC= 1.69D-04 BMatP= 1.46D-03
 IDIUse=3 WtCom= 9.93D-01 WtEn= 6.72D-03
 EnCoef did     1 forward-backward iterations
 Coeff-Com:  0.690D-02-0.113D-01 0.586D-01 0.923D-01 0.284D+00 0.569D+00
 Coeff-En:   0.000D+00 0.000D+00 0.000D+00 0.000D+00 0.457D-03 0.100D+01
 Coeff:      0.685D-02-0.113D-01 0.582D-01 0.917D-01 0.282D+00 0.572D+00
 Gap=     0.233 Goal=   None    Shift=    0.000
 Gap=     0.064 Goal=   None    Shift=    0.000
 RMSDP=5.21D-05 MaxDP=2.21D-03 DE=-3.44D-04 OVMax= 5.61D-03

 Cycle   7  Pass 0  IDiag  1:
 RMSU=  4.43D-05    CP:  9.65D-01  2.08D+00  7.51D-01  5.72D-01  6.85D-01
                    CP:  8.68D-01
 E= -385.811351491018     Delta-E=       -0.000042221353 Rises=F Damp=F
 DIIS: error= 2.32D-04 at cycle   7 NSaved=   7.
 NSaved= 7 IEnMin= 7 EnMin= -385.811351491018     IErMin= 7 ErrMin= 2.32D-04
 ErrMax= 2.32D-04  0.00D+00 EMaxC= 1.00D-01 BMatC= 3.34D-05 BMatP= 1.69D-04
 IDIUse=3 WtCom= 9.98D-01 WtEn= 2.32D-03
 Coeff-Com:  0.270D-02-0.674D-02-0.153D-01-0.181D-01 0.492D-01 0.332D+00
 Coeff-Com:  0.656D+00
 Coeff-En:   0.000D+00 0.000D+00 0.000D+00 0.000D+00 0.000D+00 0.000D+00
 Coeff-En:   0.100D+01
 Coeff:      0.270D-02-0.672D-02-0.153D-01-0.181D-01 0.491D-01 0.332D+00
 Coeff:      0.657D+00
 Gap=     0.233 Goal=   None    Shift=    0.000
 Gap=     0.064 Goal=   None    Shift=    0.000
 RMSDP=3.17D-05 MaxDP=1.25D-03 DE=-4.22D-05 OVMax= 4.86D-03

 Cycle   8  Pass 0  IDiag  1:
 RMSU=  2.46D-05    CP:  9.65D-01  2.08D+00  7.54D-01  5.74D-01  7.51D-01
                    CP:  9.86D-01  1.03D+00
 E= -385.811367362234     Delta-E=       -0.000015871217 Rises=F Damp=F
 DIIS: error= 1.05D-04 at cycle   8 NSaved=   8.
 NSaved= 8 IEnMin= 8 EnMin= -385.811367362234     IErMin= 8 ErrMin= 1.05D-04
 ErrMax= 1.05D-04  0.00D+00 EMaxC= 1.00D-01 BMatC= 4.69D-06 BMatP= 3.34D-05
 IDIUse=3 WtCom= 9.99D-01 WtEn= 1.05D-03
 Coeff-Com: -0.155D-02 0.216D-02-0.177D-01-0.285D-01-0.733D-01-0.774D-01
 Coeff-Com:  0.143D+00 0.105D+01
 Coeff-En:   0.000D+00 0.000D+00 0.000D+00 0.000D+00 0.000D+00 0.000D+00
 Coeff-En:   0.000D+00 0.100D+01
 Coeff:     -0.155D-02 0.216D-02-0.177D-01-0.284D-01-0.732D-01-0.773D-01
 Coeff:      0.143D+00 0.105D+01
 Gap=     0.232 Goal=   None    Shift=    0.000
 Gap=     0.065 Goal=   None    Shift=    0.000
 RMSDP=3.02D-05 MaxDP=1.21D-03 DE=-1.59D-05 OVMax= 5.55D-03

 Cycle   9  Pass 0  IDiag  1:
 RMSU=  1.10D-05    CP:  9.65D-01  2.08D+00  7.54D-01  5.78D-01  7.92D-01
                    CP:  1.10D+00  1.44D+00  1.60D+00
 E= -385.811374853328     Delta-E=       -0.000007491093 Rises=F Damp=F
 DIIS: error= 9.82D-05 at cycle   9 NSaved=   9.
 NSaved= 9 IEnMin= 9 EnMin= -385.811374853328     IErMin= 9 ErrMin= 9.82D-05
 ErrMax= 9.82D-05  0.00D+00 EMaxC= 1.00D-01 BMatC= 1.46D-06 BMatP= 4.69D-06
 IDIUse=1 WtCom= 1.00D+00 WtEn= 0.00D+00
 Coeff-Com: -0.805D-03 0.155D-02-0.428D-02-0.783D-02-0.405D-01-0.690D-01
 Coeff-Com: -0.442D-01 0.409D+00 0.756D+00
 Coeff:     -0.805D-03 0.155D-02-0.428D-02-0.783D-02-0.405D-01-0.690D-01
 Coeff:     -0.442D-01 0.409D+00 0.756D+00
 Gap=     0.232 Goal=   None    Shift=    0.000
 Gap=     0.065 Goal=   None    Shift=    0.000
 RMSDP=1.79D-05 MaxDP=8.97D-04 DE=-7.49D-06 OVMax= 4.14D-03

 Cycle  10  Pass 0  IDiag  1:
 RMSU=  9.49D-06    CP:  9.65D-01  2.09D+00  7.54D-01  5.78D-01  8.13D-01
                    CP:  1.16D+00  1.64D+00  1.97D+00  1.28D+00
 E= -385.811377480018     Delta-E=       -0.000002626690 Rises=F Damp=F
 DIIS: error= 8.52D-05 at cycle  10 NSaved=  10.
 NSaved=10 IEnMin=10 EnMin= -385.811377480018     IErMin=10 ErrMin= 8.52D-05
 ErrMax= 8.52D-05  0.00D+00 EMaxC= 1.00D-01 BMatC= 1.70D-06 BMatP= 1.46D-06
 IDIUse=1 WtCom= 1.00D+00 WtEn= 0.00D+00
 Coeff-Com:  0.448D-03-0.463D-03 0.522D-02 0.821D-02 0.734D-02 0.167D-01
 Coeff-Com: -0.800D-01-0.327D+00 0.615D+00 0.755D+00
 Coeff:      0.448D-03-0.463D-03 0.522D-02 0.821D-02 0.734D-02 0.167D-01
 Coeff:     -0.800D-01-0.327D+00 0.615D+00 0.755D+00
 Gap=     0.232 Goal=   None    Shift=    0.000
 Gap=     0.065 Goal=   None    Shift=    0.000
 RMSDP=1.70D-05 MaxDP=6.59D-04 DE=-2.63D-06 OVMax= 3.65D-03

 Cycle  11  Pass 0  IDiag  1:
 RMSU=  3.28D-06    CP:  9.65D-01  2.09D+00  7.54D-01  5.80D-01  8.30D-01
                    CP:  1.21D+00  1.80D+00  2.36D+00  2.02D+00  1.51D+00
 E= -385.811379715684     Delta-E=       -0.000002235666 Rises=F Damp=F
 DIIS: error= 4.67D-05 at cycle  11 NSaved=  11.
 NSaved=11 IEnMin=11 EnMin= -385.811379715684     IErMin=11 ErrMin= 4.67D-05
 ErrMax= 4.67D-05  0.00D+00 EMaxC= 1.00D-01 BMatC= 5.35D-07 BMatP= 1.46D-06
 IDIUse=1 WtCom= 1.00D+00 WtEn= 0.00D+00
 Coeff-Com:  0.723D-03-0.106D-02 0.489D-02 0.786D-02 0.191D-01 0.485D-01
 Coeff-Com: -0.215D-01-0.385D+00 0.228D+00-0.182D-01 0.112D+01
 Coeff:      0.723D-03-0.106D-02 0.489D-02 0.786D-02 0.191D-01 0.485D-01
 Coeff:     -0.215D-01-0.385D+00 0.228D+00-0.182D-01 0.112D+01
 Gap=     0.232 Goal=   None    Shift=    0.000
 Gap=     0.065 Goal=   None    Shift=    0.000
 RMSDP=1.72D-05 MaxDP=7.23D-04 DE=-2.24D-06 OVMax= 3.99D-03

 Cycle  12  Pass 0  IDiag  1:
 RMSU=  2.81D-06    CP:  9.65D-01  2.09D+00  7.54D-01  5.81D-01  8.46D-01
                    CP:  1.24D+00  1.97D+00  2.74D+00  2.75D+00  2.24D+00
                    CP:  1.60D+00
 E= -385.811381188949     Delta-E=       -0.000001473265 Rises=F Damp=F
 DIIS: error= 4.76D-05 at cycle  12 NSaved=  12.
 NSaved=12 IEnMin=12 EnMin= -385.811381188949     IErMin=11 ErrMin= 4.67D-05
 ErrMax= 4.76D-05  0.00D+00 EMaxC= 1.00D-01 BMatC= 4.92D-07 BMatP= 5.35D-07
 IDIUse=1 WtCom= 1.00D+00 WtEn= 0.00D+00
 Coeff-Com:  0.171D-03-0.323D-03-0.116D-02-0.231D-02-0.162D-02 0.126D-01
 Coeff-Com:  0.414D-01 0.502D-01-0.716D-01-0.992D+00 0.828D+00 0.114D+01
 Coeff:      0.171D-03-0.323D-03-0.116D-02-0.231D-02-0.162D-02 0.126D-01
 Coeff:      0.414D-01 0.502D-01-0.716D-01-0.992D+00 0.828D+00 0.114D+01
 Gap=     0.232 Goal=   None    Shift=    0.000
 Gap=     0.065 Goal=   None    Shift=    0.000
 RMSDP=1.91D-05 MaxDP=7.16D-04 DE=-1.47D-06 OVMax= 4.33D-03

 Cycle  13  Pass 0  IDiag  1:
 RMSU=  7.76D-06    CP:  9.65D-01  2.09D+00  7.53D-01  5.82D-01  8.63D-01
                    CP:  1.29D+00  2.13D+00  3.00D+00  3.00D+00  3.00D+00
                    CP:  2.99D+00  1.81D+00
 E= -385.811382296707     Delta-E=       -0.000001107758 Rises=F Damp=F
 DIIS: error= 2.17D-05 at cycle  13 NSaved=  13.
 NSaved=13 IEnMin=13 EnMin= -385.811382296707     IErMin=13 ErrMin= 2.17D-05
 ErrMax= 2.17D-05  0.00D+00 EMaxC= 1.00D-01 BMatC= 1.13D-07 BMatP= 4.92D-07
 IDIUse=1 WtCom= 1.00D+00 WtEn= 0.00D+00
 Coeff-Com: -0.123D-03 0.209D-03-0.160D-02-0.279D-02-0.943D-02-0.141D-01
 Coeff-Com:  0.959D-02 0.119D+00 0.453D-01-0.169D+00-0.216D+00-0.394D+00
 Coeff-Com:  0.163D+01
 Coeff:     -0.123D-03 0.209D-03-0.160D-02-0.279D-02-0.943D-02-0.141D-01
 Coeff:      0.959D-02 0.119D+00 0.453D-01-0.169D+00-0.216D+00-0.394D+00
 Coeff:      0.163D+01
 Gap=     0.232 Goal=   None    Shift=    0.000
 Gap=     0.065 Goal=   None    Shift=    0.000
 RMSDP=1.44D-05 MaxDP=5.00D-04 DE=-1.11D-06 OVMax= 3.31D-03

 Cycle  14  Pass 0  IDiag  1:
 RMSU=  7.39D-06    CP:  9.65D-01  2.09D+00  7.53D-01  5.83D-01  8.76D-01
                    CP:  1.32D+00  2.25D+00  3.00D+00  3.00D+00  3.00D+00
                    CP:  3.00D+00  2.86D+00  2.28D+00
 E= -385.811382689826     Delta-E=       -0.000000393119 Rises=F Damp=F
 DIIS: error= 1.04D-05 at cycle  14 NSaved=  14.
 NSaved=14 IEnMin=14 EnMin= -385.811382689826     IErMin=14 ErrMin= 1.04D-05
 ErrMax= 1.04D-05  0.00D+00 EMaxC= 1.00D-01 BMatC= 2.47D-08 BMatP= 1.13D-07
 IDIUse=1 WtCom= 1.00D+00 WtEn= 0.00D+00
 Coeff-Com: -0.824D-05 0.561D-04 0.518D-06-0.203D-03-0.290D-02-0.725D-02
 Coeff-Com: -0.737D-02 0.146D-01 0.626D-01 0.193D+00-0.261D+00-0.571D+00
 Coeff-Com:  0.622D+00 0.958D+00
 Coeff:     -0.824D-05 0.561D-04 0.518D-06-0.203D-03-0.290D-02-0.725D-02
 Coeff:     -0.737D-02 0.146D-01 0.626D-01 0.193D+00-0.261D+00-0.571D+00
 Coeff:      0.622D+00 0.958D+00
 Gap=     0.232 Goal=   None    Shift=    0.000
 Gap=     0.065 Goal=   None    Shift=    0.000
 RMSDP=6.40D-06 MaxDP=2.27D-04 DE=-3.93D-07 OVMax= 1.45D-03

 Initial convergence to 1.0D-05 achieved.  Increase integral accuracy.
 Cycle  15  Pass 1  IDiag  1:
 E= -385.811389612465     Delta-E=       -0.000006922638 Rises=F Damp=F
 DIIS: error= 1.53D-05 at cycle   1 NSaved=   1.
 NSaved= 1 IEnMin= 1 EnMin= -385.811389612465     IErMin= 1 ErrMin= 1.53D-05
 ErrMax= 1.53D-05  0.00D+00 EMaxC= 1.00D-01 BMatC= 8.73D-08 BMatP= 8.73D-08
 IDIUse=1 WtCom= 1.00D+00 WtEn= 0.00D+00
 Coeff-Com:  0.100D+01
 Coeff:      0.100D+01
 Gap=     0.232 Goal=   None    Shift=    0.000
 Gap=     0.065 Goal=   None    Shift=    0.000
 RMSDP=6.40D-06 MaxDP=2.27D-04 DE=-6.92D-06 OVMax= 7.17D-05

 Cycle  16  Pass 1  IDiag  1:
 RMSU=  4.83D-06    CP:  1.00D+00
 E= -385.811389623905     Delta-E=       -0.000000011441 Rises=F Damp=F
 DIIS: error= 5.02D-06 at cycle   2 NSaved=   2.
 NSaved= 2 IEnMin= 2 EnMin= -385.811389623905     IErMin= 2 ErrMin= 5.02D-06
 ErrMax= 5.02D-06  0.00D+00 EMaxC= 1.00D-01 BMatC= 1.45D-08 BMatP= 8.73D-08
 IDIUse=1 WtCom= 1.00D+00 WtEn= 0.00D+00
 Coeff-Com:  0.185D+00 0.815D+00
 Coeff:      0.185D+00 0.815D+00
 Gap=     0.232 Goal=   None    Shift=    0.000
 Gap=     0.065 Goal=   None    Shift=    0.000
 RMSDP=9.48D-07 MaxDP=3.12D-05 DE=-1.14D-08 OVMax= 7.64D-05

 Cycle  17  Pass 1  IDiag  1:
 RMSU=  9.43D-07    CP:  1.00D+00  9.82D-01
 E= -385.811389621614     Delta-E=        0.000000002292 Rises=F Damp=F
 DIIS: error= 7.39D-06 at cycle   3 NSaved=   3.
 NSaved= 3 IEnMin= 2 EnMin= -385.811389623905     IErMin= 2 ErrMin= 5.02D-06
 ErrMax= 7.39D-06  0.00D+00 EMaxC= 1.00D-01 BMatC= 2.55D-08 BMatP= 1.45D-08
 IDIUse=1 WtCom= 1.00D+00 WtEn= 0.00D+00
 Coeff-Com: -0.239D-02 0.573D+00 0.430D+00
 Coeff:     -0.239D-02 0.573D+00 0.430D+00
 Gap=     0.232 Goal=   None    Shift=    0.000
 Gap=     0.065 Goal=   None    Shift=    0.000
 RMSDP=5.77D-07 MaxDP=1.78D-05 DE= 2.29D-09 OVMax= 4.38D-05

 Cycle  18  Pass 1  IDiag  1:
 RMSU=  2.68D-07    CP:  1.00D+00  1.01D+00  4.75D-01
 E= -385.811389628452     Delta-E=       -0.000000006839 Rises=F Damp=F
 DIIS: error= 1.94D-06 at cycle   4 NSaved=   4.
 NSaved= 4 IEnMin= 4 EnMin= -385.811389628452     IErMin= 4 ErrMin= 1.94D-06
 ErrMax= 1.94D-06  0.00D+00 EMaxC= 1.00D-01 BMatC= 9.81D-10 BMatP= 1.45D-08
 IDIUse=1 WtCom= 1.00D+00 WtEn= 0.00D+00
 Coeff-Com: -0.719D-02 0.330D+00 0.260D+00 0.417D+00
 Coeff:     -0.719D-02 0.330D+00 0.260D+00 0.417D+00
 Gap=     0.232 Goal=   None    Shift=    0.000
 Gap=     0.065 Goal=   None    Shift=    0.000
 RMSDP=1.50D-07 MaxDP=6.45D-06 DE=-6.84D-09 OVMax= 1.83D-05

 Cycle  19  Pass 1  IDiag  1:
 RMSU=  1.45D-07    CP:  1.00D+00  1.01D+00  5.02D-01  8.84D-01
 E= -385.811389628827     Delta-E=       -0.000000000375 Rises=F Damp=F
 DIIS: error= 1.16D-06 at cycle   5 NSaved=   5.
 NSaved= 5 IEnMin= 5 EnMin= -385.811389628827     IErMin= 5 ErrMin= 1.16D-06
 ErrMax= 1.16D-06  0.00D+00 EMaxC= 1.00D-01 BMatC= 2.18D-10 BMatP= 9.81D-10
 IDIUse=1 WtCom= 1.00D+00 WtEn= 0.00D+00
 Coeff-Com: -0.263D-03-0.149D+00-0.124D+00 0.223D+00 0.105D+01
 Coeff:     -0.263D-03-0.149D+00-0.124D+00 0.223D+00 0.105D+01
 Gap=     0.232 Goal=   None    Shift=    0.000
 Gap=     0.065 Goal=   None    Shift=    0.000
 RMSDP=1.99D-07 MaxDP=8.20D-06 DE=-3.75D-10 OVMax= 4.02D-05

 Cycle  20  Pass 1  IDiag  1:
 RMSU=  7.52D-08    CP:  1.00D+00  1.01D+00  5.34D-01  1.48D+00  1.59D+00
 E= -385.811389629143     Delta-E=       -0.000000000316 Rises=F Damp=F
 DIIS: error= 4.30D-07 at cycle   6 NSaved=   6.
 NSaved= 6 IEnMin= 6 EnMin= -385.811389629143     IErMin= 6 ErrMin= 4.30D-07
 ErrMax= 4.30D-07  0.00D+00 EMaxC= 1.00D-01 BMatC= 7.62D-11 BMatP= 2.18D-10
 IDIUse=1 WtCom= 1.00D+00 WtEn= 0.00D+00
 Coeff-Com:  0.371D-02-0.293D+00-0.235D+00-0.284D-01 0.699D+00 0.854D+00
 Coeff:      0.371D-02-0.293D+00-0.235D+00-0.284D-01 0.699D+00 0.854D+00
 Gap=     0.232 Goal=   None    Shift=    0.000
 Gap=     0.065 Goal=   None    Shift=    0.000
 RMSDP=1.96D-07 MaxDP=8.31D-06 DE=-3.16D-10 OVMax= 4.15D-05

 Cycle  21  Pass 1  IDiag  1:
 RMSU=  4.18D-08    CP:  1.00D+00  1.02D+00  5.60D-01  2.02D+00  2.37D+00
                    CP:  1.57D+00
 E= -385.811389629339     Delta-E=       -0.000000000196 Rises=F Damp=F
 DIIS: error= 3.99D-07 at cycle   7 NSaved=   7.
 NSaved= 7 IEnMin= 7 EnMin= -385.811389629339     IErMin= 7 ErrMin= 3.99D-07
 ErrMax= 3.99D-07  0.00D+00 EMaxC= 1.00D-01 BMatC= 1.67D-11 BMatP= 7.62D-11
 IDIUse=1 WtCom= 1.00D+00 WtEn= 0.00D+00
 Coeff-Com:  0.821D-03-0.288D-01-0.141D-01-0.704D-01-0.880D-01 0.142D+00
 Coeff-Com:  0.106D+01
 Coeff:      0.821D-03-0.288D-01-0.141D-01-0.704D-01-0.880D-01 0.142D+00
 Coeff:      0.106D+01
 Gap=     0.232 Goal=   None    Shift=    0.000
 Gap=     0.065 Goal=   None    Shift=    0.000
 RMSDP=1.24D-07 MaxDP=4.98D-06 DE=-1.96D-10 OVMax= 2.91D-05

 Cycle  22  Pass 1  IDiag  1:
 RMSU=  3.09D-08    CP:  1.00D+00  1.02D+00  5.87D-01  2.31D+00  2.85D+00
                    CP:  2.15D+00  1.77D+00
 E= -385.811389629418     Delta-E=       -0.000000000079 Rises=F Damp=F
 DIIS: error= 2.84D-07 at cycle   8 NSaved=   8.
 NSaved= 8 IEnMin= 8 EnMin= -385.811389629418     IErMin= 8 ErrMin= 2.84D-07
 ErrMax= 2.84D-07  0.00D+00 EMaxC= 1.00D-01 BMatC= 1.49D-11 BMatP= 1.67D-11
 IDIUse=1 WtCom= 1.00D+00 WtEn= 0.00D+00
 Coeff-Com: -0.774D-03 0.769D-01 0.704D-01-0.354D-01-0.259D+00-0.249D+00
 Coeff-Com:  0.618D+00 0.779D+00
 Coeff:     -0.774D-03 0.769D-01 0.704D-01-0.354D-01-0.259D+00-0.249D+00
 Coeff:      0.618D+00 0.779D+00
 Gap=     0.232 Goal=   None    Shift=    0.000
 Gap=     0.065 Goal=   None    Shift=    0.000
 RMSDP=8.45D-08 MaxDP=2.92D-06 DE=-7.86D-11 OVMax= 1.90D-05

 SCF Done:  E(UB3LYP) =  -385.811389629     A.U. after   22 cycles
            NFock= 22  Conv=0.85D-07     -V/T= 2.0094
 <Sx>= 0.0000 <Sy>= 0.0000 <Sz>= 0.5000 <S**2>= 0.7637 S= 0.5068
 <L.S>= 0.000000000000E+00
 KE= 3.822341017468D+02 PE=-1.726785148538D+03 EE= 5.369391193553D+02
 Annihilation of the first spin contaminant:
 S**2 before annihilation     0.7637,   after     0.7501
 Leave Link  502 at Wed Dec 03 16:28:36 2025, MaxMem=   104857600 cpu:              38.0 elap:              37.7
 (Enter D:\Gaussian\G16W\l601.exe)
 Copying SCF densities to generalized density rwf, IOpCl= 1 IROHF=0.

 **********************************************************************

            Population analysis using the SCF density.

 **********************************************************************

 Orbital symmetries:
 Alpha Orbitals:
       Occupied  (A) (A) (A) (A) (A) (A) (A) (A) (A) (A) (A) (A)
                 (A) (A) (A) (A) (A) (A) (A) (A) (A) (A) (A) (A)
                 (A) (A) (A) (A) (A) (A) (A) (A) (A)
       Virtual   (A) (A) (A) (A) (A) (A) (A) (A) (A) (A) (A) (A)
                 (A) (A) (A) (A) (A) (A) (A) (A) (A) (A) (A) (A)
                 (A) (A) (A) (A) (A) (A) (A) (A) (A) (A) (A) (A)
                 (A) (A) (A) (A) (A) (A) (A) (A) (A) (A) (A) (A)
                 (A) (A) (A) (A) (A) (A) (A) (A) (A) (A) (A) (A)
                 (A) (A) (A) (A) (A) (A) (A) (A) (A) (A) (A) (A)
                 (A) (A) (A) (A) (A) (A) (A) (A) (A) (A) (A) (A)
                 (A) (A) (A) (A) (A) (A) (A) (A) (A) (A) (A) (A)
                 (A) (A) (A) (A) (A) (A) (A) (A) (A) (A) (A) (A)
                 (A) (A) (A) (A) (A) (A) (A) (A) (A) (A) (A) (A)
                 (A) (A)
 Beta  Orbitals:
       Occupied  (A) (A) (A) (A) (A) (A) (A) (A) (A) (A) (A) (A)
                 (A) (A) (A) (A) (A) (A) (A) (A) (A) (A) (A) (A)
                 (A) (A) (A) (A) (A) (A) (A) (A)
       Virtual   (A) (A) (A) (A) (A) (A) (A) (A) (A) (A) (A) (A)
                 (A) (A) (A) (A) (A) (A) (A) (A) (A) (A) (A) (A)
                 (A) (A) (A) (A) (A) (A) (A) (A) (A) (A) (A) (A)
                 (A) (A) (A) (A) (A) (A) (A) (A) (A) (A) (A) (A)
                 (A) (A) (A) (A) (A) (A) (A) (A) (A) (A) (A) (A)
                 (A) (A) (A) (A) (A) (A) (A) (A) (A) (A) (A) (A)
                 (A) (A) (A) (A) (A) (A) (A) (A) (A) (A) (A) (A)
                 (A) (A) (A) (A) (A) (A) (A) (A) (A) (A) (A) (A)
                 (A) (A) (A) (A) (A) (A) (A) (A) (A) (A) (A) (A)
                 (A) (A) (A) (A) (A) (A) (A) (A) (A) (A) (A) (A)
                 (A) (A) (A)
 The electronic state is 2-A.
 Alpha  occ. eigenvalues --  -19.41578 -10.48397 -10.41189 -10.40742 -10.39908
 Alpha  occ. eigenvalues --  -10.39506 -10.39365 -10.34359 -10.33698  -1.28777
 Alpha  occ. eigenvalues --   -1.07182  -0.97600  -0.96597  -0.87736  -0.86958
 Alpha  occ. eigenvalues --   -0.81789  -0.77332  -0.73095  -0.69911  -0.68166
 Alpha  occ. eigenvalues --   -0.63688  -0.60675  -0.60177  -0.60011  -0.59019
 Alpha  occ. eigenvalues --   -0.57251  -0.56558  -0.54007  -0.53941  -0.52515
 Alpha  occ. eigenvalues --   -0.52134  -0.45093  -0.43798
 Alpha virt. eigenvalues --   -0.20593  -0.20010  -0.10634  -0.07347  -0.05309
 Alpha virt. eigenvalues --   -0.03404  -0.02259  -0.01132  -0.00320   0.02019
 Alpha virt. eigenvalues --    0.02214   0.03599   0.04763   0.06736   0.07942
 Alpha virt. eigenvalues --    0.08461   0.12840   0.14718   0.18606   0.19911
 Alpha virt. eigenvalues --    0.23630   0.31013   0.31383   0.33878   0.36069
 Alpha virt. eigenvalues --    0.36719   0.38042   0.38176   0.39089   0.41524
 Alpha virt. eigenvalues --    0.42313   0.44038   0.45677   0.47003   0.48718
 Alpha virt. eigenvalues --    0.52598   0.55234   0.56814   0.57429   0.58785
 Alpha virt. eigenvalues --    0.59162   0.59965   0.65913   0.66276   0.68607
 Alpha virt. eigenvalues --    0.71483   0.72962   0.73996   0.74950   0.75498
 Alpha virt. eigenvalues --    0.75962   0.77179   0.80087   0.81504   0.82266
 Alpha virt. eigenvalues --    0.86032   0.90044   0.93563   0.99289   1.00575
 Alpha virt. eigenvalues --    1.02109   1.02900   1.06340   1.14049   1.15369
 Alpha virt. eigenvalues --    1.19733   1.20289   1.20781   1.22908   1.26447
 Alpha virt. eigenvalues --    1.27729   1.36473   1.51164   1.53524   1.56603
 Alpha virt. eigenvalues --    1.58003   1.65057   1.67697   1.68485   1.69478
 Alpha virt. eigenvalues --    1.71011   1.71810   1.72768   1.75089   1.76082
 Alpha virt. eigenvalues --    1.76192   1.88709   1.90669   1.92027   1.95689
 Alpha virt. eigenvalues --    2.00417   2.04462   2.06699   2.10331   2.12519
 Alpha virt. eigenvalues --    2.16172   2.17854   2.18612   2.19781   2.20494
 Alpha virt. eigenvalues --    2.23479   2.30543   2.34902   2.45488   2.47620
 Alpha virt. eigenvalues --    2.52520   2.58231   2.60036   2.67030   2.69468
 Alpha virt. eigenvalues --    2.78529   2.93425   3.21965   3.72694   3.89127
 Alpha virt. eigenvalues --    3.92161   3.96538   4.04466   4.08526   4.23312
 Alpha virt. eigenvalues --    4.24352   4.56323
  Beta  occ. eigenvalues --  -19.40986 -10.48087 -10.40755 -10.40560 -10.40023
  Beta  occ. eigenvalues --  -10.39255 -10.39252 -10.34355 -10.33693  -1.27561
  Beta  occ. eigenvalues --   -1.06327  -0.97335  -0.95368  -0.87372  -0.86497
  Beta  occ. eigenvalues --   -0.81338  -0.77036  -0.72710  -0.69535  -0.67775
  Beta  occ. eigenvalues --   -0.61047  -0.60286  -0.59899  -0.59780  -0.57609
  Beta  occ. eigenvalues --   -0.57128  -0.56427  -0.53893  -0.53837  -0.52338
  Beta  occ. eigenvalues --   -0.49742  -0.43074
  Beta virt. eigenvalues --   -0.36598  -0.18996  -0.17299  -0.10423  -0.07076
  Beta virt. eigenvalues --   -0.03701  -0.03164  -0.02209  -0.01085  -0.00208
  Beta virt. eigenvalues --    0.02216   0.02593   0.03797   0.04989   0.07078
  Beta virt. eigenvalues --    0.08195   0.08641   0.13266   0.14870   0.18931
  Beta virt. eigenvalues --    0.20399   0.23744   0.31617   0.32607   0.34212
  Beta virt. eigenvalues --    0.36215   0.37842   0.38218   0.38456   0.39359
  Beta virt. eigenvalues --    0.42171   0.42833   0.44324   0.46356   0.48238
  Beta virt. eigenvalues --    0.49292   0.52969   0.55472   0.56954   0.57658
  Beta virt. eigenvalues --    0.58844   0.59551   0.60329   0.66343   0.66483
  Beta virt. eigenvalues --    0.68833   0.71664   0.73105   0.74311   0.75466
  Beta virt. eigenvalues --    0.76077   0.76871   0.77575   0.80152   0.81604
  Beta virt. eigenvalues --    0.82310   0.86513   0.90119   0.93725   0.99912
  Beta virt. eigenvalues --    1.00811   1.02290   1.04148   1.06621   1.15171
  Beta virt. eigenvalues --    1.15633   1.20328   1.20836   1.21343   1.23362
  Beta virt. eigenvalues --    1.27415   1.28947   1.36607   1.52385   1.54010
  Beta virt. eigenvalues --    1.57294   1.58285   1.65881   1.67673   1.68963
  Beta virt. eigenvalues --    1.70447   1.71452   1.72428   1.73605   1.75448
  Beta virt. eigenvalues --    1.76720   1.77262   1.88981   1.90900   1.93016
  Beta virt. eigenvalues --    1.95997   2.00722   2.04848   2.07571   2.11604
  Beta virt. eigenvalues --    2.13199   2.16384   2.18069   2.18919   2.20110
  Beta virt. eigenvalues --    2.21191   2.24232   2.31557   2.35563   2.46605
  Beta virt. eigenvalues --    2.48067   2.53729   2.58411   2.60164   2.67289
  Beta virt. eigenvalues --    2.69673   2.79309   2.93637   3.22200   3.73529
  Beta virt. eigenvalues --    3.89713   3.92370   3.97457   4.04655   4.08824
  Beta virt. eigenvalues --    4.23884   4.24461   4.56841
          Condensed to atoms (all electrons):
               1          2          3          4          5          6
     1  C    4.663208   0.539210  -0.000430  -0.030716  -0.026353   0.483028
     2  C    0.539210   5.063032   0.447936  -0.095050  -0.027695  -0.045283
     3  C   -0.000430   0.447936   4.548660   0.430133   0.003961  -0.038741
     4  C   -0.030716  -0.095050   0.430133   5.160920   0.530303  -0.057470
     5  C   -0.026353  -0.027695   0.003961   0.530303   4.665601   0.462202
     6  C    0.483028  -0.045283  -0.038741  -0.057470   0.462202   5.065012
     7  H   -0.035462   0.005145   0.000210   0.005445  -0.038239   0.355726
     8  O    0.001980  -0.043622   0.304757  -0.048317   0.003518   0.000376
     9  H   -0.000144   0.005537  -0.023265  -0.001956   0.000503  -0.000001
    10  H    0.000135   0.004436  -0.044989   0.353446  -0.024916   0.005351
    11  C    0.352821  -0.057143   0.004909   0.000787   0.005933  -0.043851
    12  H   -0.024207  -0.004160  -0.000009   0.000009  -0.000183   0.000983
    13  H   -0.024403  -0.004233  -0.000026   0.000011  -0.000157   0.001025
    14  H   -0.032192   0.003878  -0.000173  -0.000003   0.000382  -0.002972
    15  H   -0.034335   0.357784  -0.036220   0.005428  -0.000059   0.004948
    16  C    0.005491   0.000706   0.004240  -0.048759   0.350246  -0.046919
    17  H   -0.000164   0.000014  -0.000168  -0.003880  -0.021638  -0.000440
    18  H   -0.000155   0.000003   0.000171  -0.004033  -0.026547   0.002570
    19  H    0.000330  -0.000002  -0.000133   0.003271  -0.030705  -0.002904
               7          8          9         10         11         12
     1  C   -0.035462   0.001980  -0.000144   0.000135   0.352821  -0.024207
     2  C    0.005145  -0.043622   0.005537   0.004436  -0.057143  -0.004160
     3  C    0.000210   0.304757  -0.023265  -0.044989   0.004909  -0.000009
     4  C    0.005445  -0.048317  -0.001956   0.353446   0.000787   0.000009
     5  C   -0.038239   0.003518   0.000503  -0.024916   0.005933  -0.000183
     6  C    0.355726   0.000376  -0.000001   0.005351  -0.043851   0.000983
     7  H    0.492890   0.000003  -0.000001  -0.000114  -0.006025   0.000095
     8  O    0.000003   8.064920   0.243269  -0.004051  -0.000052   0.000001
     9  H   -0.000001   0.243269   0.307966   0.005668   0.000003   0.000000
    10  H   -0.000114  -0.004051   0.005668   0.511043   0.000007   0.000000
    11  C   -0.006025  -0.000052   0.000003   0.000007   5.180816   0.368459
    12  H    0.000095   0.000001   0.000000   0.000000   0.368459   0.487388
    13  H    0.000086   0.000001   0.000000   0.000000   0.368717  -0.022774
    14  H    0.005171   0.000000   0.000000   0.000000   0.372826  -0.022757
    15  H   -0.000098  -0.001561  -0.000188  -0.000124  -0.005863   0.001360
    16  C   -0.005690  -0.000049  -0.000012  -0.006496  -0.000185   0.000002
    17  H    0.000267   0.000001   0.000000   0.000601   0.000002   0.000000
    18  H    0.000032   0.000000   0.000001   0.003030   0.000002   0.000000
    19  H    0.004374   0.000000   0.000000   0.000046  -0.000001   0.000000
              13         14         15         16         17         18
     1  C   -0.024403  -0.032192  -0.034335   0.005491  -0.000164  -0.000155
     2  C   -0.004233   0.003878   0.357784   0.000706   0.000014   0.000003
     3  C   -0.000026  -0.000173  -0.036220   0.004240  -0.000168   0.000171
     4  C    0.000011  -0.000003   0.005428  -0.048759  -0.003880  -0.004033
     5  C   -0.000157   0.000382  -0.000059   0.350246  -0.021638  -0.026547
     6  C    0.001025  -0.002972   0.004948  -0.046919  -0.000440   0.002570
     7  H    0.000086   0.005171  -0.000098  -0.005690   0.000267   0.000032
     8  O    0.000001   0.000000  -0.001561  -0.000049   0.000001   0.000000
     9  H    0.000000   0.000000  -0.000188  -0.000012   0.000000   0.000001
    10  H    0.000000   0.000000  -0.000124  -0.006496   0.000601   0.003030
    11  C    0.368717   0.372826  -0.005863  -0.000185   0.000002   0.000002
    12  H   -0.022774  -0.022757   0.001360   0.000002   0.000000   0.000000
    13  H    0.487335  -0.022773   0.001340   0.000002   0.000000   0.000000
    14  H   -0.022773   0.502295   0.000065  -0.000002   0.000000   0.000000
    15  H    0.001340   0.000065   0.483433   0.000008   0.000000   0.000000
    16  C    0.000002  -0.000002   0.000008   5.184439   0.364444   0.369946
    17  H    0.000000   0.000000   0.000000   0.364444   0.481101  -0.021917
    18  H    0.000000   0.000000   0.000000   0.369946  -0.021917   0.490697
    19  H    0.000000  -0.000001   0.000000   0.372343  -0.022554  -0.023245
              19
     1  C    0.000330
     2  C   -0.000002
     3  C   -0.000133
     4  C    0.003271
     5  C   -0.030705
     6  C   -0.002904
     7  H    0.004374
     8  O    0.000000
     9  H    0.000000
    10  H    0.000046
    11  C   -0.000001
    12  H    0.000000
    13  H    0.000000
    14  H   -0.000001
    15  H    0.000000
    16  C    0.372343
    17  H   -0.022554
    18  H   -0.023245
    19  H    0.496252
          Atomic-Atomic Spin Densities.
               1          2          3          4          5          6
     1  C   -0.099048  -0.022591  -0.003930   0.000385  -0.003407   0.011236
     2  C   -0.022591   0.188648   0.040479   0.000860  -0.001874  -0.009401
     3  C   -0.003930   0.040479   0.206520   0.034174  -0.003993  -0.007165
     4  C    0.000385   0.000860   0.034174   0.077898  -0.023757  -0.008666
     5  C   -0.003407  -0.001874  -0.003993  -0.023757  -0.017297   0.026530
     6  C    0.011236  -0.009401  -0.007165  -0.008666   0.026530   0.471880
     7  H    0.000150  -0.000052  -0.000015  -0.000070  -0.000033  -0.000291
     8  O    0.000154  -0.006488  -0.058549  -0.003845   0.000171   0.000082
     9  H   -0.000008  -0.000067   0.000674   0.000256  -0.000005   0.000003
    10  H   -0.000077   0.000093  -0.000590   0.000967   0.000293   0.000112
    11  C    0.006257   0.000340   0.000026  -0.000033   0.000087  -0.001951
    12  H    0.000903   0.000523   0.000026   0.000004  -0.000014  -0.000318
    13  H    0.000830   0.000496   0.000022   0.000005  -0.000008  -0.000279
    14  H    0.000288   0.000004  -0.000004   0.000000   0.000011  -0.000105
    15  H    0.000523   0.000651  -0.000561   0.000004  -0.000060   0.000078
    16  C    0.000053  -0.000022   0.000057   0.001415   0.001162  -0.003289
    17  H   -0.000011   0.000009   0.000025   0.000643  -0.000541  -0.000822
    18  H   -0.000007   0.000005   0.000024   0.000311  -0.000263  -0.000097
    19  H    0.000009   0.000000  -0.000002  -0.000019   0.000107  -0.000091
               7          8          9         10         11         12
     1  C    0.000150   0.000154  -0.000008  -0.000077   0.006257   0.000903
     2  C   -0.000052  -0.006488  -0.000067   0.000093   0.000340   0.000523
     3  C   -0.000015  -0.058549   0.000674  -0.000590   0.000026   0.000026
     4  C   -0.000070  -0.003845   0.000256   0.000967  -0.000033   0.000004
     5  C   -0.000033   0.000171  -0.000005   0.000293   0.000087  -0.000014
     6  C   -0.000291   0.000082   0.000003   0.000112  -0.001951  -0.000318
     7  H   -0.019271   0.000000   0.000000   0.000004   0.000249  -0.000002
     8  O    0.000000   0.272224  -0.002007   0.000029   0.000000  -0.000001
     9  H    0.000000  -0.002007  -0.005315  -0.000115   0.000000   0.000000
    10  H    0.000004   0.000029  -0.000115  -0.005423  -0.000001   0.000000
    11  C    0.000249   0.000000   0.000000  -0.000001   0.000600  -0.001022
    12  H   -0.000002  -0.000001   0.000000   0.000000  -0.001022  -0.000314
    13  H   -0.000006  -0.000001   0.000000   0.000000  -0.000942  -0.000147
    14  H   -0.000042   0.000000   0.000000   0.000000  -0.000155   0.000074
    15  H    0.000004  -0.000059   0.000005   0.000004   0.000112  -0.000012
    16  C    0.000228   0.000000   0.000000   0.000113   0.000000   0.000000
    17  H   -0.000008   0.000000   0.000000   0.000002   0.000000   0.000000
    18  H   -0.000003   0.000000   0.000000  -0.000055   0.000000   0.000000
    19  H   -0.000031   0.000000   0.000000   0.000001   0.000000   0.000000
              13         14         15         16         17         18
     1  C    0.000830   0.000288   0.000523   0.000053  -0.000011  -0.000007
     2  C    0.000496   0.000004   0.000651  -0.000022   0.000009   0.000005
     3  C    0.000022  -0.000004  -0.000561   0.000057   0.000025   0.000024
     4  C    0.000005   0.000000   0.000004   0.001415   0.000643   0.000311
     5  C   -0.000008   0.000011  -0.000060   0.001162  -0.000541  -0.000263
     6  C   -0.000279  -0.000105   0.000078  -0.003289  -0.000822  -0.000097
     7  H   -0.000006  -0.000042   0.000004   0.000228  -0.000008  -0.000003
     8  O   -0.000001   0.000000  -0.000059   0.000000   0.000000   0.000000
     9  H    0.000000   0.000000   0.000005   0.000000   0.000000   0.000000
    10  H    0.000000   0.000000   0.000004   0.000113   0.000002  -0.000055
    11  C   -0.000942  -0.000155   0.000112   0.000000   0.000000   0.000000
    12  H   -0.000147   0.000074  -0.000012   0.000000   0.000000   0.000000
    13  H   -0.000330   0.000067  -0.000012   0.000000   0.000000   0.000000
    14  H    0.000067  -0.000546  -0.000001   0.000000   0.000000   0.000000
    15  H   -0.000012  -0.000001  -0.009378   0.000000   0.000000   0.000000
    16  C    0.000000   0.000000   0.000000  -0.000677   0.001450   0.000185
    17  H    0.000000   0.000000   0.000000   0.001450   0.005954  -0.001096
    18  H    0.000000   0.000000   0.000000   0.000185  -0.001096   0.003374
    19  H    0.000000   0.000000   0.000000   0.000444  -0.000020   0.000140
              19
     1  C    0.000009
     2  C    0.000000
     3  C   -0.000002
     4  C   -0.000019
     5  C    0.000107
     6  C   -0.000091
     7  H   -0.000031
     8  O    0.000000
     9  H    0.000000
    10  H    0.000001
    11  C    0.000000
    12  H    0.000000
    13  H    0.000000
    14  H    0.000000
    15  H    0.000000
    16  C    0.000444
    17  H   -0.000020
    18  H    0.000140
    19  H   -0.000535
 Mulliken charges and spin densities:
               1          2
     1  C    0.162356  -0.108290
     2  C   -0.150492   0.191612
     3  C    0.399177   0.207217
     4  C   -0.199568   0.080533
     5  C    0.173844  -0.022891
     6  C   -0.142641   0.477445
     7  H    0.216186  -0.019188
     8  O   -0.521173   0.201712
     9  H    0.462618  -0.006580
    10  H    0.196927  -0.004643
    11  C   -0.542163   0.003567
    12  H    0.215793  -0.000299
    13  H    0.215850  -0.000306
    14  H    0.196255  -0.000408
    15  H    0.224083  -0.008702
    16  C   -0.543755   0.001118
    17  H    0.224331   0.005584
    18  H    0.209445   0.002517
    19  H    0.202927   0.000002
 Sum of Mulliken charges =   1.00000   1.00000
 Mulliken charges and spin densities with hydrogens summed into heavy atoms:
               1          2
     1  C    0.162356  -0.108290
     2  C    0.073590   0.182910
     3  C    0.399177   0.207217
     4  C   -0.002640   0.075890
     5  C    0.173844  -0.022891
     6  C    0.073545   0.458257
     8  O   -0.058555   0.195132
    11  C    0.085735   0.002554
    16  C    0.092948   0.009221
 Electronic spatial extent (au):  <R**2>=           1277.9421
 Charge=              1.0000 electrons
 Dipole moment (field-independent basis, Debye):
    X=             -1.5018    Y=              0.4238    Z=              0.0586  Tot=              1.5616
 Quadrupole moment (field-independent basis, Debye-Ang):
   XX=            -31.5929   YY=            -32.3224   ZZ=            -52.0056
   XY=             -4.8674   XZ=             -0.1541   YZ=             -0.1080
 Traceless Quadrupole moment (field-independent basis, Debye-Ang):
   XX=              7.0474   YY=              6.3179   ZZ=            -13.3653
   XY=             -4.8674   XZ=             -0.1541   YZ=             -0.1080
 Octapole moment (field-independent basis, Debye-Ang**2):
  XXX=             -0.9437  YYY=             22.6832  ZZZ=              0.8567  XYY=            -20.8181
  XXY=              1.2860  XXZ=              0.3087  XZZ=             -0.1449  YZZ=              3.0197
  YYZ=             -0.2995  XYZ=              0.6420
 Hexadecapole moment (field-independent basis, Debye-Ang**3):
 XXXX=           -718.2305 YYYY=           -579.9265 ZZZZ=            -61.9208 XXXY=             -7.1246
 XXXZ=              0.5724 YYYX=            -61.7675 YYYZ=              2.0684 ZZZX=             -2.2481
 ZZZY=             -1.4764 XXYY=           -204.7009 XXZZ=           -143.1705 YYZZ=           -131.6578
 XXYZ=             -2.1842 YYXZ=             -0.4088 ZZXY=              0.3969
 N-N= 4.218005378061D+02 E-N=-1.726785147687D+03  KE= 3.822341017468D+02
                          Isotropic Fermi Contact Couplings
        Atom                 a.u.       MegaHertz       Gauss      10(-4) cm-1
     1  C(13)             -0.01750     -19.66945      -7.01855      -6.56102
     2  C(13)              0.01574      17.69365       6.31353       5.90197
     3  C(13)              0.01211      13.61508       4.85820       4.54150
     4  C(13)              0.00414       4.65261       1.66017       1.55194
     5  C(13)             -0.00828      -9.30474      -3.32016      -3.10373
     6  C(13)              0.04619      51.93172      18.53053      17.32256
     7  H(1)              -0.00703     -31.43988     -11.21853     -10.48721
     8  O(17)              0.03920     -23.76355      -8.47943      -7.92667
     9  H(1)              -0.00345     -15.39901      -5.49475      -5.13656
    10  H(1)              -0.00169      -7.55193      -2.69472      -2.51905
    11  C(13)              0.00076       0.85847       0.30632       0.28636
    12  H(1)              -0.00065      -2.89539      -1.03315      -0.96580
    13  H(1)              -0.00065      -2.90529      -1.03668      -0.96910
    14  H(1)              -0.00021      -0.95296      -0.34004      -0.31787
    15  H(1)              -0.00322     -14.37998      -5.13114      -4.79665
    16  C(13)             -0.00110      -1.24010      -0.44250      -0.41365
    17  H(1)               0.00298      13.31903       4.75256       4.44275
    18  H(1)               0.00096       4.28456       1.52884       1.42918
    19  H(1)               0.00027       1.19728       0.42722       0.39937
 --------------------------------------------------------
       Center         ----  Spin Dipole Couplings  ----
                      3XX-RR        3YY-RR        3ZZ-RR
 --------------------------------------------------------
     1   Atom        0.034026      0.033412     -0.067439
     2   Atom       -0.097677     -0.107488      0.205165
     3   Atom       -0.136135     -0.129135      0.265270
     4   Atom       -0.043426     -0.050121      0.093548
     5   Atom       -0.003283     -0.011565      0.014848
     6   Atom       -0.245332     -0.237163      0.482495
     7   Atom       -0.030529      0.035920     -0.005391
     8   Atom       -0.446391     -0.442175      0.888566
     9   Atom        0.033657     -0.018047     -0.015610
    10   Atom        0.012871     -0.007226     -0.005645
    11   Atom        0.005725     -0.001961     -0.003764
    12   Atom        0.003186     -0.000999     -0.002186
    13   Atom        0.003154     -0.000991     -0.002163
    14   Atom        0.004298     -0.001193     -0.003105
    15   Atom        0.014747     -0.008689     -0.006058
    16   Atom        0.002834     -0.005951      0.003117
    17   Atom        0.002994     -0.001962     -0.001032
    18   Atom        0.003832     -0.001212     -0.002620
    19   Atom        0.002919      0.000636     -0.003555
 --------------------------------------------------------
                        XY            XZ            YZ
 --------------------------------------------------------
     1   Atom        0.005512      0.000366      0.000512
     2   Atom       -0.000961     -0.001577     -0.001080
     3   Atom       -0.001777     -0.003091     -0.001140
     4   Atom        0.002389     -0.002058      0.002012
     5   Atom       -0.004713     -0.000278      0.001537
     6   Atom       -0.001422     -0.002128     -0.004137
     7   Atom       -0.006261     -0.000190      0.000028
     8   Atom       -0.007694     -0.008288     -0.005530
     9   Atom       -0.023747      0.000211     -0.000164
    10   Atom       -0.003149      0.000235     -0.000014
    11   Atom       -0.001423      0.000029      0.000010
    12   Atom       -0.001233     -0.001362      0.000384
    13   Atom       -0.001242      0.001399     -0.000387
    14   Atom       -0.003677      0.000009     -0.000005
    15   Atom        0.011925      0.000122      0.000043
    16   Atom        0.002412     -0.000652      0.001684
    17   Atom        0.002079     -0.002717     -0.001059
    18   Atom        0.000650      0.001310      0.000014
    19   Atom        0.004369      0.000797      0.000620
 --------------------------------------------------------


 ---------------------------------------------------------------------------------
              Anisotropic Spin Dipole Couplings in Principal Axis System
 ---------------------------------------------------------------------------------

       Atom             a.u.   MegaHertz   Gauss  10(-4) cm-1        Axes

              Baa    -0.0674    -9.050    -3.229    -3.019 -0.0033 -0.0049  1.0000
     1 C(13)  Bbb     0.0282     3.784     1.350     1.262 -0.6872  0.7265  0.0013
              Bcc     0.0392     5.266     1.879     1.757  0.7265  0.6872  0.0058
 
              Baa    -0.1076   -14.437    -5.151    -4.816  0.0972  0.9953  0.0039
     2 C(13)  Bbb    -0.0976   -13.096    -4.673    -4.368  0.9953 -0.0972  0.0048
              Bcc     0.2052    27.533     9.824     9.184 -0.0052 -0.0034  1.0000
 
              Baa    -0.1366   -18.329    -6.540    -6.114  0.9724  0.2331  0.0081
     3 C(13)  Bbb    -0.1287   -17.272    -6.163    -5.761 -0.2331  0.9724  0.0010
              Bcc     0.2653    35.600    12.703    11.875 -0.0077 -0.0029  1.0000
 
              Baa    -0.0509    -6.835    -2.439    -2.280 -0.3077  0.9513 -0.0176
     4 C(13)  Bbb    -0.0427    -5.726    -2.043    -1.910  0.9514  0.3079  0.0098
              Bcc     0.0936    12.561     4.482     4.190 -0.0148  0.0137  0.9998
 
              Baa    -0.0138    -1.846    -0.659    -0.616  0.4090  0.9114 -0.0450
     5 C(13)  Bbb    -0.0012    -0.161    -0.057    -0.054  0.9120 -0.4065  0.0548
              Bcc     0.0150     2.007     0.716     0.669 -0.0316  0.0634  0.9975
 
              Baa    -0.2456   -32.955   -11.759   -10.993  0.9857  0.1684  0.0038
     6 C(13)  Bbb    -0.2369   -31.795   -11.345   -10.606 -0.1684  0.9857  0.0052
              Bcc     0.4825    64.750    23.104    21.598 -0.0029 -0.0057  1.0000
 
              Baa    -0.0311   -16.602    -5.924    -5.538  0.9956  0.0930  0.0072
     7 H(1)   Bbb    -0.0054    -2.876    -1.026    -0.959 -0.0071 -0.0018  1.0000
              Bcc     0.0365    19.477     6.950     6.497 -0.0930  0.9957  0.0011
 
              Baa    -0.4523    32.731    11.679    10.918  0.7952  0.6063  0.0074
     8 O(17)  Bbb    -0.4363    31.571    11.265    10.531 -0.6063  0.7953 -0.0005
              Bcc     0.8886   -64.301   -22.944   -21.449 -0.0062 -0.0041  1.0000
 
              Baa    -0.0273   -14.565    -5.197    -4.858  0.3630  0.9318  0.0065
     9 H(1)   Bbb    -0.0156    -8.329    -2.972    -2.778 -0.0065 -0.0045  1.0000
              Bcc     0.0429    22.895     8.169     7.637  0.9318 -0.3630  0.0044
 
              Baa    -0.0077    -4.113    -1.468    -1.372  0.1514  0.9884 -0.0104
    10 H(1)   Bbb    -0.0056    -3.013    -1.075    -1.005 -0.0106  0.0121  0.9999
              Bcc     0.0134     7.126     2.543     2.377  0.9884 -0.1512  0.0124
 
              Baa    -0.0038    -0.505    -0.180    -0.168 -0.0044 -0.0089  1.0000
    11 C(13)  Bbb    -0.0022    -0.297    -0.106    -0.099  0.1764  0.9843  0.0096
              Bcc     0.0060     0.802     0.286     0.268  0.9843 -0.1764  0.0027
 
              Baa    -0.0025    -1.343    -0.479    -0.448  0.2173 -0.0699  0.9736
    12 H(1)   Bbb    -0.0013    -0.713    -0.254    -0.238  0.2658  0.9640  0.0099
              Bcc     0.0039     2.056     0.734     0.686  0.9392 -0.2567 -0.2281
 
              Baa    -0.0025    -1.341    -0.478    -0.447 -0.2264  0.0621  0.9720
    13 H(1)   Bbb    -0.0013    -0.712    -0.254    -0.238  0.2666  0.9638  0.0005
              Bcc     0.0038     2.053     0.733     0.685  0.9368 -0.2592  0.2348
 
              Baa    -0.0031    -1.657    -0.591    -0.553  0.0049  0.0123  0.9999
    14 H(1)   Bbb    -0.0030    -1.620    -0.578    -0.540  0.4481  0.8939 -0.0132
              Bcc     0.0061     3.277     1.169     1.093  0.8940 -0.4482  0.0011
 
              Baa    -0.0137    -7.304    -2.606    -2.436 -0.3867  0.9222  0.0010
    15 H(1)   Bbb    -0.0061    -3.233    -1.153    -1.078 -0.0043 -0.0028  1.0000
              Bcc     0.0197    10.537     3.760     3.515  0.9222  0.3867  0.0050
 
              Baa    -0.0069    -0.925    -0.330    -0.308 -0.2480  0.9525 -0.1765
    16 C(13)  Bbb     0.0032     0.434     0.155     0.145  0.6406  0.2979  0.7077
              Bcc     0.0037     0.491     0.175     0.164  0.7267  0.0625 -0.6841
 
              Baa    -0.0027    -1.457    -0.520    -0.486 -0.2647  0.9494  0.1688
    17 H(1)   Bbb    -0.0024    -1.280    -0.457    -0.427  0.4588 -0.0299  0.8880
              Bcc     0.0051     2.737     0.977     0.913  0.8482  0.3125 -0.4277
 
              Baa    -0.0029    -1.538    -0.549    -0.513 -0.1975  0.0687  0.9779
    18 H(1)   Bbb    -0.0013    -0.684    -0.244    -0.228 -0.1028  0.9906 -0.0904
              Bcc     0.0042     2.222     0.793     0.741  0.9749  0.1184  0.1886
 
              Baa    -0.0037    -1.952    -0.696    -0.651 -0.0776 -0.0648  0.9949
    19 H(1)   Bbb    -0.0027    -1.461    -0.521    -0.487 -0.6116  0.7912  0.0038
              Bcc     0.0064     3.413     1.218     1.138  0.7874  0.6082  0.1010
 

 ---------------------------------------------------------------------------------

 No NMR shielding tensors so no spin-rotation constants.
 Leave Link  601 at Wed Dec 03 16:28:36 2025, MaxMem=   104857600 cpu:               0.0 elap:               0.3
 (Enter D:\Gaussian\G16W\l9999.exe)
 1|1|UNPC-PC-20250526LCFF|SP|UB3LYP|6-31G(d)|C8H10O1(1+,2)|ADMINISTRATO
 R|03-Dec-2025|0||#P B3LYP/6-31G* SCF=conver=7 out=wfn||Generated by Mu
 ltiwfn (http://sobereva.com/multiwfn)||1,2|C,0,1.267136,-0.578427,0.00
 0716|C,0,1.161301,0.812442,0.006294|C,0,-0.093785,1.417958,0.000926|C,
 0,-1.2521,0.639737,-0.008785|C,0,-1.163856,-0.753872,-0.01148|C,0,0.10
 0057,-1.348851,-0.009125|H,0,0.177426,-2.431358,-0.016518|O,0,-0.13097
 9,2.785674,0.002044|H,0,-1.049105,3.074716,-0.000487|H,0,-2.226471,1.1
 2247,-0.016291|C,0,2.628496,-1.233068,0.00162|H,0,3.211839,-0.933158,-
 0.874305|H,0,3.203848,-0.946253,0.887191|H,0,2.546526,-2.321525,-0.006
 715|H,0,2.042909,1.443579,0.01039|C,0,-2.417093,-1.596498,0.009651|H,0
 ,-2.818949,-1.677134,1.025609|H,0,-3.201117,-1.163698,-0.617239|H,0,-2
 .220016,-2.609565,-0.346888||Version=EM64W-G16RevA.03|State=2-A|HF=-38
 5.8113896|S2=0.76374|S2-1=0.|S2A=0.750099|RMSD=8.451e-008|Dipole=-0.59
 0862,0.1667162,0.0230442|Quadrupole=5.239562,4.6971965,-9.9367584,-3.6
 187952,-0.1145353,-0.0803096|PG=C01 [X(C8H10O1)]||@

 Writing a WFN file to "N-1.wfn"


 There ain't no surer way to find out whether you
 like people or hate them than to travel with them.
                                     -- Mark Twain
 Job cpu time:       0 days  0 hours  0 minutes 40.0 seconds.
 Elapsed time:       0 days  0 hours  0 minutes 39.7 seconds.
 File lengths (MBytes):  RWF=     29 Int=      0 D2E=      0 Chk=      3 Scr=      1
 Normal termination of Gaussian 16 at Wed Dec 03 16:28:36 2025.
