 Entering Link 1 = D:\Gaussian\G16W\l1.exe PID=     40388.
  
 Copyright (c) 1988,1990,1992,1993,1995,1998,2003,2009,2016,
            Gaussian, Inc.  All Rights Reserved.
  
 This is part of the Gaussian(R) 16 program.  It is based on
 the Gaussian(R) 09 system (copyright 2009, Gaussian, Inc.),
 the Gaussian(R) 03 system (copyright 2003, Gaussian, Inc.),
 the Gaussian(R) 98 system (copyright 1998, Gaussian, Inc.),
 the Gaussian(R) 94 system (copyright 1995, Gaussian, Inc.),
 the Gaussian 92(TM) system (copyright 1992, Gaussian, Inc.),
 the Gaussian 90(TM) system (copyright 1990, Gaussian, Inc.),
 the Gaussian 88(TM) system (copyright 1988, Gaussian, Inc.),
 the Gaussian 86(TM) system (copyright 1986, Carnegie Mellon
 University), and the Gaussian 82(TM) system (copyright 1983,
 Carnegie Mellon University). Gaussian is a federally registered
 trademark of Gaussian, Inc.
  
 This software contains proprietary and confidential information,
 including trade secrets, belonging to Gaussian, Inc.
  
 This software is provided under written license and may be
 used, copied, transmitted, or stored only in accord with that
 written license.
  
 The following legend is applicable only to US Government
 contracts under FAR:
  
                    RESTRICTED RIGHTS LEGEND
  
 Use, reproduction and disclosure by the US Government is
 subject to restrictions as set forth in subparagraphs (a)
 and (c) of the Commercial Computer Software - Restricted
 Rights clause in FAR 52.227-19.
  
 Gaussian, Inc.
 340 Quinnipiac St., Bldg. 40, Wallingford CT 06492
  
  
 ---------------------------------------------------------------
 Warning -- This program may not be used in any manner that
 competes with the business of Gaussian, Inc. or will provide
 assistance to any competitor of Gaussian, Inc.  The licensee
 of this program is prohibited from giving any competitor of
 Gaussian, Inc. access to this program.  By using this program,
 the user acknowledges that Gaussian, Inc. is engaged in the
 business of creating and licensing software in the field of
 computational chemistry and represents and warrants to the
 licensee that it is not a competitor of Gaussian, Inc. and that
 it will not use this program in any manner prohibited above.
 ---------------------------------------------------------------
  

 Cite this work as:
 Gaussian 16, Revision A.03,
 M. J. Frisch, G. W. Trucks, H. B. Schlegel, G. E. Scuseria, 
 M. A. Robb, J. R. Cheeseman, G. Scalmani, V. Barone, 
 G. A. Petersson, H. Nakatsuji, X. Li, M. Caricato, A. V. Marenich, 
 J. Bloino, B. G. Janesko, R. Gomperts, B. Mennucci, H. P. Hratchian, 
 J. V. Ortiz, A. F. Izmaylov, J. L. Sonnenberg, D. Williams-Young, 
 F. Ding, F. Lipparini, F. Egidi, J. Goings, B. Peng, A. Petrone, 
 T. Henderson, D. Ranasinghe, V. G. Zakrzewski, J. Gao, N. Rega, 
 G. Zheng, W. Liang, M. Hada, M. Ehara, K. Toyota, R. Fukuda, 
 J. Hasegawa, M. Ishida, T. Nakajima, Y. Honda, O. Kitao, H. Nakai, 
 T. Vreven, K. Throssell, J. A. Montgomery, Jr., J. E. Peralta, 
 F. Ogliaro, M. J. Bearpark, J. J. Heyd, E. N. Brothers, K. N. Kudin, 
 V. N. Staroverov, T. A. Keith, R. Kobayashi, J. Normand, 
 K. Raghavachari, A. P. Rendell, J. C. Burant, S. S. Iyengar, 
 J. Tomasi, M. Cossi, J. M. Millam, M. Klene, C. Adamo, R. Cammi, 
 J. W. Ochterski, R. L. Martin, K. Morokuma, O. Farkas, 
 J. B. Foresman, and D. J. Fox, Gaussian, Inc., Wallingford CT, 2016.
 
 ******************************************
 Gaussian 16:  EM64W-G16RevA.03 17-Dec-2016
                03-Dec-2025 
 ******************************************
 %nprocs=   4
 Will use up to    4 processors via shared memory.
 ------------------------------------
 #P B3LYP/6-31G* SCF=conver=7 out=wfn
 ------------------------------------
 1/38=1,172=1/1;
 2/12=2,17=6,18=5,40=1/2;
 3/5=1,6=6,7=1,11=2,25=1,30=1,74=-5/1,2,3;
 4//1;
 5/5=2,6=7,38=5/2;
 6/7=2,8=2,9=2,10=2,28=1/1;
 99/5=1,6=100,9=1/99;
 Leave Link    1 at Wed Dec 03 16:26:40 2025, MaxMem=           0 cpu:               0.0 elap:               0.1
 (Enter D:\Gaussian\G16W\l101.exe)
 ----------------------------------------------------
 Generated by Multiwfn (http://sobereva.com/multiwfn)
 ----------------------------------------------------
 Symbolic Z-matrix:
 Charge =  0 Multiplicity = 1
 C                     1.26714  -0.57843   0.00072 
 C                     1.1613    0.81244   0.00629 
 C                    -0.09379   1.41796   0.00093 
 C                    -1.2521    0.63974  -0.00879 
 C                    -1.16386  -0.75387  -0.01148 
 C                     0.10006  -1.34885  -0.00913 
 H                     0.17743  -2.43136  -0.01652 
 O                    -0.13098   2.78567   0.00204 
 H                    -1.04911   3.07472  -0.00049 
 H                    -2.22647   1.12247  -0.01629 
 C                     2.6285   -1.23307   0.00162 
 H                     3.21184  -0.93316  -0.87431 
 H                     3.20385  -0.94625   0.88719 
 H                     2.54653  -2.32153  -0.00672 
 H                     2.04291   1.44358   0.01039 
 C                    -2.41709  -1.5965    0.00965 
 H                    -2.81895  -1.67713   1.02561 
 H                    -3.20112  -1.1637   -0.61724 
 H                    -2.22002  -2.60957  -0.34689 
 
 ITRead=  0  0  0  0  0  0  0  0  0  0  0  0  0  0  0  0  0  0  0
 MicOpt= -1 -1 -1 -1 -1 -1 -1 -1 -1 -1 -1 -1 -1 -1 -1 -1 -1 -1 -1
 NAtoms=     19 NQM=       19 NQMF=       0 NMMI=      0 NMMIF=      0
                NMic=       0 NMicF=      0.
                    Isotopes and Nuclear Properties:
 (Nuclear quadrupole moments (NQMom) in fm**2, nuclear magnetic moments (NMagM)
  in nuclear magnetons)

  Atom         1           2           3           4           5           6           7           8           9          10
 IAtWgt=          12          12          12          12          12          12           1          16           1           1
 AtmWgt=  12.0000000  12.0000000  12.0000000  12.0000000  12.0000000  12.0000000   1.0078250  15.9949146   1.0078250   1.0078250
 NucSpn=           0           0           0           0           0           0           1           0           1           1
 AtZEff=   0.0000000   0.0000000   0.0000000   0.0000000   0.0000000   0.0000000   0.0000000   0.0000000   0.0000000   0.0000000
 NQMom=    0.0000000   0.0000000   0.0000000   0.0000000   0.0000000   0.0000000   0.0000000   0.0000000   0.0000000   0.0000000
 NMagM=    0.0000000   0.0000000   0.0000000   0.0000000   0.0000000   0.0000000   2.7928460   0.0000000   2.7928460   2.7928460
 AtZNuc=   6.0000000   6.0000000   6.0000000   6.0000000   6.0000000   6.0000000   1.0000000   8.0000000   1.0000000   1.0000000

  Atom        11          12          13          14          15          16          17          18          19
 IAtWgt=          12           1           1           1           1          12           1           1           1
 AtmWgt=  12.0000000   1.0078250   1.0078250   1.0078250   1.0078250  12.0000000   1.0078250   1.0078250   1.0078250
 NucSpn=           0           1           1           1           1           0           1           1           1
 AtZEff=   0.0000000   0.0000000   0.0000000   0.0000000   0.0000000   0.0000000   0.0000000   0.0000000   0.0000000
 NQMom=    0.0000000   0.0000000   0.0000000   0.0000000   0.0000000   0.0000000   0.0000000   0.0000000   0.0000000
 NMagM=    0.0000000   2.7928460   2.7928460   2.7928460   2.7928460   0.0000000   2.7928460   2.7928460   2.7928460
 AtZNuc=   6.0000000   1.0000000   1.0000000   1.0000000   1.0000000   6.0000000   1.0000000   1.0000000   1.0000000
 Leave Link  101 at Wed Dec 03 16:26:40 2025, MaxMem=   104857600 cpu:               0.0 elap:               0.1
 (Enter D:\Gaussian\G16W\l202.exe)
                          Input orientation:                          
 ---------------------------------------------------------------------
 Center     Atomic      Atomic             Coordinates (Angstroms)
 Number     Number       Type             X           Y           Z
 ---------------------------------------------------------------------
      1          6           0        1.267136   -0.578427    0.000716
      2          6           0        1.161301    0.812442    0.006294
      3          6           0       -0.093785    1.417958    0.000926
      4          6           0       -1.252100    0.639737   -0.008785
      5          6           0       -1.163856   -0.753872   -0.011480
      6          6           0        0.100057   -1.348851   -0.009125
      7          1           0        0.177426   -2.431358   -0.016518
      8          8           0       -0.130979    2.785674    0.002044
      9          1           0       -1.049105    3.074716   -0.000487
     10          1           0       -2.226471    1.122470   -0.016291
     11          6           0        2.628496   -1.233068    0.001620
     12          1           0        3.211839   -0.933158   -0.874305
     13          1           0        3.203848   -0.946253    0.887191
     14          1           0        2.546526   -2.321525   -0.006715
     15          1           0        2.042909    1.443579    0.010390
     16          6           0       -2.417093   -1.596498    0.009651
     17          1           0       -2.818949   -1.677134    1.025609
     18          1           0       -3.201117   -1.163698   -0.617239
     19          1           0       -2.220016   -2.609565   -0.346888
 ---------------------------------------------------------------------
                    Distance matrix (angstroms):
                    1          2          3          4          5
     1  C    0.000000
     2  C    1.394901   0.000000
     3  C    2.416125   1.393528   0.000000
     4  C    2.798314   2.419620   1.395498   0.000000
     5  C    2.437345   2.803571   2.421167   1.396403   0.000000
     6  C    1.398472   2.407834   2.773609   2.404748   1.396954
     7  H    2.149679   3.389804   3.858898   3.387511   2.147795
     8  O    3.643062   2.358739   1.368222   2.421172   3.687195
     9  H    4.325555   3.162882   1.912455   2.443440   3.830323
    10  H    3.885696   3.402003   2.153128   1.087422   2.156347
    11  C    1.510582   2.517299   3.799836   4.308890   3.822530
    12  H    2.161797   2.833245   4.149810   4.811432   4.463554
    13  H    2.161478   2.835663   4.153233   4.813898   4.463346
    14  H    2.162241   3.426480   4.577667   4.816496   4.027964
    15  H    2.165739   1.084243   2.136869   3.391698   3.887494
    16  C    3.822315   4.313688   3.805888   2.521566   1.510321
    17  H    4.353579   4.804101   4.249246   2.982093   2.160393
    18  H    4.548593   4.829556   4.086880   2.724199   2.164563
    19  H    4.050504   4.823710   4.567579   3.407219   2.161381
                    6          7          8          9         10
     6  C    0.000000
     7  H    1.085294   0.000000
     8  O    4.140990   5.226173   0.000000
     9  H    4.570404   5.641054   0.962552   0.000000
    10  H    3.394144   4.290503   2.675382   2.279848   0.000000
    11  C    2.531111   2.728364   4.874935   5.664076   5.396257
    12  H    3.256459   3.491141   5.076626   5.914580   5.876820
    13  H    3.255608   3.490194   5.082503   5.919778   5.880838
    14  H    2.632738   2.371665   5.766506   6.484444   5.885804
    15  H    3.401870   4.300685   2.554815   3.495894   4.281522
    16  C    2.529373   2.725657   4.942652   4.867416   2.725765
    17  H    3.114328   3.260850   5.309381   5.173519   3.045385
    18  H    3.361820   3.658194   5.040516   4.793297   2.556880
    19  H    2.661996   2.426650   5.796070   5.813955   3.746655
                   11         12         13         14         15
    11  C    0.000000
    12  H    1.094294   0.000000
    13  H    1.094317   1.761563   0.000000
    14  H    1.091571   1.767178   1.767063   0.000000
    15  H    2.739969   2.792483   2.797831   3.798675   0.000000
    16  C    5.058667   5.736399   5.726070   5.016318   5.397563
    17  H    5.560612   6.366599   6.068561   5.501750   5.865764
    18  H    5.862780   6.422245   6.582869   5.894803   5.889959
    19  H    5.052155   5.709077   5.805847   4.787338   5.893060
                   16         17         18         19
    16  C    0.000000
    17  H    1.095519   0.000000
    18  H    1.093161   1.763127   0.000000
    19  H    1.091908   1.764057   1.768101   0.000000
 Stoichiometry    C8H10O
 Framework group  C1[X(C8H10O)]
 Deg. of freedom    51
 Full point group                 C1      NOp   1
 Largest Abelian subgroup         C1      NOp   1
 Largest concise Abelian subgroup C1      NOp   1
                         Standard orientation:                         
 ---------------------------------------------------------------------
 Center     Atomic      Atomic             Coordinates (Angstroms)
 Number     Number       Type             X           Y           Z
 ---------------------------------------------------------------------
      1          6           0        1.267136   -0.578427    0.000716
      2          6           0        1.161301    0.812442    0.006294
      3          6           0       -0.093785    1.417958    0.000926
      4          6           0       -1.252100    0.639737   -0.008785
      5          6           0       -1.163856   -0.753872   -0.011480
      6          6           0        0.100057   -1.348851   -0.009125
      7          1           0        0.177426   -2.431358   -0.016518
      8          8           0       -0.130979    2.785674    0.002044
      9          1           0       -1.049105    3.074716   -0.000487
     10          1           0       -2.226471    1.122470   -0.016291
     11          6           0        2.628496   -1.233068    0.001620
     12          1           0        3.211839   -0.933158   -0.874305
     13          1           0        3.203848   -0.946253    0.887191
     14          1           0        2.546526   -2.321525   -0.006715
     15          1           0        2.042909    1.443579    0.010390
     16          6           0       -2.417093   -1.596498    0.009651
     17          1           0       -2.818949   -1.677134    1.025609
     18          1           0       -3.201117   -1.163698   -0.617239
     19          1           0       -2.220016   -2.609565   -0.346888
 ---------------------------------------------------------------------
 Rotational constants (GHZ):           1.7897464           1.7534047           0.8955346
 Leave Link  202 at Wed Dec 03 16:26:40 2025, MaxMem=   104857600 cpu:               0.0 elap:               0.0
 (Enter D:\Gaussian\G16W\l301.exe)
 Standard basis: 6-31G(d) (6D, 7F)
 Ernie: Thresh=  0.10000D-02 Tol=  0.10000D-05 Strict=F.
 There are   155 symmetry adapted cartesian basis functions of A   symmetry.
 There are   155 symmetry adapted basis functions of A   symmetry.
   155 basis functions,   292 primitive gaussians,   155 cartesian basis functions
    33 alpha electrons       33 beta electrons
       nuclear repulsion energy       421.8005378061 Hartrees.
 IExCor=  402 DFT=T Ex+Corr=B3LYP ExCW=0 ScaHFX=  0.200000
 ScaDFX=  0.800000  0.720000  1.000000  0.810000 ScalE2=  1.000000  1.000000
 IRadAn=      5 IRanWt=     -1 IRanGd=            0 ICorTp=0 IEmpDi=  4
 NAtoms=   19 NActive=   19 NUniq=   19 SFac= 1.00D+00 NAtFMM=   60 NAOKFM=F Big=F
 Integral buffers will be    131072 words long.
 Raffenetti 2 integral format.
 Two-electron integral symmetry is turned on.
 Leave Link  301 at Wed Dec 03 16:26:40 2025, MaxMem=   104857600 cpu:               0.0 elap:               0.1
 (Enter D:\Gaussian\G16W\l302.exe)
 NPDir=0 NMtPBC=     1 NCelOv=     1 NCel=       1 NClECP=     1 NCelD=      1
         NCelK=      1 NCelE2=     1 NClLst=     1 CellRange=     0.0.
 One-electron integrals computed using PRISM.
 One-electron integral symmetry used in STVInt
 NBasis=   155 RedAO= T EigKep=  4.04D-04  NBF=   155
 NBsUse=   155 1.00D-06 EigRej= -1.00D+00 NBFU=   155
 Precomputing XC quadrature grid using
 IXCGrd= 4 IRadAn=           5 IRanWt=          -1 IRanGd=           0 AccXCQ= 0.00D+00.
 Generated NRdTot=       0 NPtTot=           0 NUsed=           0 NTot=          32
 NSgBfM=   155   155   155   155   155 MxSgAt=    19 MxSgA2=    19.
 Leave Link  302 at Wed Dec 03 16:26:41 2025, MaxMem=   104857600 cpu:               1.0 elap:               0.4
 (Enter D:\Gaussian\G16W\l303.exe)
 DipDrv:  MaxL=1.
 Leave Link  303 at Wed Dec 03 16:26:41 2025, MaxMem=   104857600 cpu:               0.0 elap:               0.1
 (Enter D:\Gaussian\G16W\l401.exe)
 ExpMin= 1.61D-01 ExpMax= 5.48D+03 ExpMxC= 8.25D+02 IAcc=3 IRadAn=         5 AccDes= 0.00D+00
 Harris functional with IExCor=  402 and IRadAn=       5 diagonalized for initial guess.
 HarFok:  IExCor=  402 AccDes= 0.00D+00 IRadAn=         5 IDoV= 1 UseB2=F ITyADJ=14
 ICtDFT=  3500011 ScaDFX=  1.000000  1.000000  1.000000  1.000000
 FoFCou: FMM=F IPFlag=           0 FMFlag=      100000 FMFlg1=           0
         NFxFlg=           0 DoJE=T BraDBF=F KetDBF=T FulRan=T
         wScrn=  0.000000 ICntrl=       500 IOpCl=  0 I1Cent=   200000004 NGrid=           0
         NMat0=    1 NMatS0=      1 NMatT0=    0 NMatD0=    1 NMtDS0=    0 NMtDT0=    0
 Petite list used in FoFCou.
 Harris En= -386.158410804517    
 JPrj=0 DoOrth=F DoCkMO=F.
 Leave Link  401 at Wed Dec 03 16:26:42 2025, MaxMem=   104857600 cpu:               1.0 elap:               1.0
 (Enter D:\Gaussian\G16W\l502.exe)
 Keep R1 ints in memory in canonical form, NReq=77009775.
 FoFCou: FMM=F IPFlag=           0 FMFlag=           0 FMFlg1=           0
         NFxFlg=           0 DoJE=F BraDBF=F KetDBF=F FulRan=T
         wScrn=  0.000000 ICntrl=       600 IOpCl=  0 I1Cent=           0 NGrid=           0
         NMat0=    1 NMatS0=  12090 NMatT0=    0 NMatD0=    1 NMtDS0=    0 NMtDT0=    0
 Symmetry not used in FoFCou.
 Two-electron integral symmetry not used.
 Closed shell SCF:
 Using DIIS extrapolation, IDIIS=  1040.
 NGot=   104857600 LenX=    31716623 LenY=    31692157
 Requested convergence on RMS density matrix=1.00D-07 within 128 cycles.
 Requested convergence on MAX density matrix=1.00D-05.
 Requested convergence on             energy=1.00D-05.
 No special actions if energy rises.
 Integral accuracy reduced to 1.0D-05 until final iterations.

 Cycle   1  Pass 0  IDiag  1:
 E= -385.832708350542    
 DIIS: error= 4.86D-02 at cycle   1 NSaved=   1.
 NSaved= 1 IEnMin= 1 EnMin= -385.832708350542     IErMin= 1 ErrMin= 4.86D-02
 ErrMax= 4.86D-02  0.00D+00 EMaxC= 1.00D-01 BMatC= 2.56D-01 BMatP= 2.56D-01
 IDIUse=3 WtCom= 5.14D-01 WtEn= 4.86D-01
 Coeff-Com:  0.100D+01
 Coeff-En:   0.100D+01
 Coeff:      0.100D+01
 Gap=     0.224 Goal=   None    Shift=    0.000
 GapD=    0.224 DampG=1.000 DampE=0.500 DampFc=0.5000 IDamp=-1.
 Damping current iteration by 5.00D-01
 RMSDP=7.35D-03 MaxDP=1.38D-01              OVMax= 1.71D-01

 Cycle   2  Pass 0  IDiag  1:
 E= -385.959630138064     Delta-E=       -0.126921787522 Rises=F Damp=T
 DIIS: error= 8.02D-03 at cycle   2 NSaved=   2.
 NSaved= 2 IEnMin= 2 EnMin= -385.959630138064     IErMin= 2 ErrMin= 8.02D-03
 ErrMax= 8.02D-03  0.00D+00 EMaxC= 1.00D-01 BMatC= 1.03D-02 BMatP= 2.56D-01
 IDIUse=3 WtCom= 9.20D-01 WtEn= 8.02D-02
 Coeff-Com:  0.250D-01 0.975D+00
 Coeff-En:   0.387D-01 0.961D+00
 Coeff:      0.261D-01 0.974D+00
 Gap=     0.289 Goal=   None    Shift=    0.000
 RMSDP=1.90D-03 MaxDP=3.15D-02 DE=-1.27D-01 OVMax= 1.20D-01

 Cycle   3  Pass 0  IDiag  1:
 E= -386.095140096135     Delta-E=       -0.135509958071 Rises=F Damp=F
 DIIS: error= 7.29D-03 at cycle   3 NSaved=   3.
 NSaved= 3 IEnMin= 3 EnMin= -386.095140096135     IErMin= 3 ErrMin= 7.29D-03
 ErrMax= 7.29D-03  0.00D+00 EMaxC= 1.00D-01 BMatC= 5.25D-03 BMatP= 1.03D-02
 IDIUse=3 WtCom= 9.27D-01 WtEn= 7.29D-02
 Coeff-Com: -0.161D-01 0.392D+00 0.624D+00
 Coeff-En:   0.000D+00 0.000D+00 0.100D+01
 Coeff:     -0.149D-01 0.363D+00 0.651D+00
 Gap=     0.220 Goal=   None    Shift=    0.000
 RMSDP=9.29D-04 MaxDP=2.63D-02 DE=-1.36D-01 OVMax= 5.46D-02

 Cycle   4  Pass 0  IDiag  1:
 E= -386.096979995381     Delta-E=       -0.001839899246 Rises=F Damp=F
 DIIS: error= 6.90D-03 at cycle   4 NSaved=   4.
 NSaved= 4 IEnMin= 4 EnMin= -386.096979995381     IErMin= 4 ErrMin= 6.90D-03
 ErrMax= 6.90D-03  0.00D+00 EMaxC= 1.00D-01 BMatC= 3.49D-03 BMatP= 5.25D-03
 IDIUse=3 WtCom= 9.31D-01 WtEn= 6.90D-02
 Coeff-Com: -0.124D-01 0.678D-01 0.450D+00 0.494D+00
 Coeff-En:   0.000D+00 0.000D+00 0.424D+00 0.576D+00
 Coeff:     -0.115D-01 0.631D-01 0.448D+00 0.500D+00
 Gap=     0.218 Goal=   None    Shift=    0.000
 RMSDP=4.51D-04 MaxDP=1.04D-02 DE=-1.84D-03 OVMax= 2.93D-02

 Cycle   5  Pass 0  IDiag  1:
 E= -386.100840947136     Delta-E=       -0.003860951755 Rises=F Damp=F
 DIIS: error= 5.14D-04 at cycle   5 NSaved=   5.
 NSaved= 5 IEnMin= 5 EnMin= -386.100840947136     IErMin= 5 ErrMin= 5.14D-04
 ErrMax= 5.14D-04  0.00D+00 EMaxC= 1.00D-01 BMatC= 5.22D-05 BMatP= 3.49D-03
 IDIUse=3 WtCom= 9.95D-01 WtEn= 5.14D-03
 Coeff-Com: -0.389D-02 0.146D-01 0.183D+00 0.230D+00 0.577D+00
 Coeff-En:   0.000D+00 0.000D+00 0.000D+00 0.000D+00 0.100D+01
 Coeff:     -0.387D-02 0.145D-01 0.182D+00 0.229D+00 0.579D+00
 Gap=     0.217 Goal=   None    Shift=    0.000
 RMSDP=6.02D-05 MaxDP=1.56D-03 DE=-3.86D-03 OVMax= 2.96D-03

 Cycle   6  Pass 0  IDiag  1:
 E= -386.100882535312     Delta-E=       -0.000041588176 Rises=F Damp=F
 DIIS: error= 2.54D-04 at cycle   6 NSaved=   6.
 NSaved= 6 IEnMin= 6 EnMin= -386.100882535312     IErMin= 6 ErrMin= 2.54D-04
 ErrMax= 2.54D-04  0.00D+00 EMaxC= 1.00D-01 BMatC= 8.19D-06 BMatP= 5.22D-05
 IDIUse=3 WtCom= 9.97D-01 WtEn= 2.54D-03
 Coeff-Com: -0.570D-03-0.101D-03 0.450D-01 0.640D-01 0.325D+00 0.567D+00
 Coeff-En:   0.000D+00 0.000D+00 0.000D+00 0.000D+00 0.115D+00 0.885D+00
 Coeff:     -0.568D-03-0.101D-03 0.449D-01 0.638D-01 0.324D+00 0.568D+00
 Gap=     0.217 Goal=   None    Shift=    0.000
 RMSDP=2.15D-05 MaxDP=4.15D-04 DE=-4.16D-05 OVMax= 7.19D-04

 Cycle   7  Pass 0  IDiag  1:
 E= -386.100889937963     Delta-E=       -0.000007402651 Rises=F Damp=F
 DIIS: error= 3.81D-05 at cycle   7 NSaved=   7.
 NSaved= 7 IEnMin= 7 EnMin= -386.100889937963     IErMin= 7 ErrMin= 3.81D-05
 ErrMax= 3.81D-05  0.00D+00 EMaxC= 1.00D-01 BMatC= 1.08D-07 BMatP= 8.19D-06
 IDIUse=1 WtCom= 1.00D+00 WtEn= 0.00D+00
 Coeff-Com: -0.126D-03-0.371D-03 0.153D-01 0.220D-01 0.121D+00 0.230D+00
 Coeff-Com:  0.612D+00
 Coeff:     -0.126D-03-0.371D-03 0.153D-01 0.220D-01 0.121D+00 0.230D+00
 Coeff:      0.612D+00
 Gap=     0.217 Goal=   None    Shift=    0.000
 RMSDP=2.95D-06 MaxDP=9.09D-05 DE=-7.40D-06 OVMax= 1.77D-04

 Initial convergence to 1.0D-05 achieved.  Increase integral accuracy.
 Cycle   8  Pass 1  IDiag  1:
 E= -386.100892949559     Delta-E=       -0.000003011595 Rises=F Damp=F
 DIIS: error= 2.05D-05 at cycle   1 NSaved=   1.
 NSaved= 1 IEnMin= 1 EnMin= -386.100892949559     IErMin= 1 ErrMin= 2.05D-05
 ErrMax= 2.05D-05  0.00D+00 EMaxC= 1.00D-01 BMatC= 3.83D-08 BMatP= 3.83D-08
 IDIUse=1 WtCom= 1.00D+00 WtEn= 0.00D+00
 Coeff-Com:  0.100D+01
 Coeff:      0.100D+01
 Gap=     0.217 Goal=   None    Shift=    0.000
 RMSDP=2.95D-06 MaxDP=9.09D-05 DE=-3.01D-06 OVMax= 1.89D-04

 Cycle   9  Pass 1  IDiag  1:
 E= -386.100892898578     Delta-E=        0.000000050981 Rises=F Damp=F
 DIIS: error= 3.56D-05 at cycle   2 NSaved=   2.
 NSaved= 2 IEnMin= 1 EnMin= -386.100892949559     IErMin= 1 ErrMin= 2.05D-05
 ErrMax= 3.56D-05  0.00D+00 EMaxC= 1.00D-01 BMatC= 9.80D-08 BMatP= 3.83D-08
 IDIUse=1 WtCom= 1.00D+00 WtEn= 0.00D+00
 Coeff-Com:  0.618D+00 0.382D+00
 Coeff:      0.618D+00 0.382D+00
 Gap=     0.217 Goal=   None    Shift=    0.000
 RMSDP=1.96D-06 MaxDP=5.75D-05 DE= 5.10D-08 OVMax= 1.21D-04

 Cycle  10  Pass 1  IDiag  1:
 E= -386.100892984697     Delta-E=       -0.000000086119 Rises=F Damp=F
 DIIS: error= 1.39D-06 at cycle   3 NSaved=   3.
 NSaved= 3 IEnMin= 3 EnMin= -386.100892984697     IErMin= 3 ErrMin= 1.39D-06
 ErrMax= 1.39D-06  0.00D+00 EMaxC= 1.00D-01 BMatC= 5.34D-10 BMatP= 3.83D-08
 IDIUse=1 WtCom= 1.00D+00 WtEn= 0.00D+00
 Coeff-Com:  0.192D+00 0.136D+00 0.673D+00
 Coeff:      0.192D+00 0.136D+00 0.673D+00
 Gap=     0.217 Goal=   None    Shift=    0.000
 RMSDP=2.70D-07 MaxDP=8.08D-06 DE=-8.61D-08 OVMax= 1.47D-05

 Cycle  11  Pass 1  IDiag  1:
 E= -386.100892984891     Delta-E=       -0.000000000194 Rises=F Damp=F
 DIIS: error= 1.23D-06 at cycle   4 NSaved=   4.
 NSaved= 4 IEnMin= 4 EnMin= -386.100892984891     IErMin= 4 ErrMin= 1.23D-06
 ErrMax= 1.23D-06  0.00D+00 EMaxC= 1.00D-01 BMatC= 3.12D-10 BMatP= 5.34D-10
 IDIUse=1 WtCom= 1.00D+00 WtEn= 0.00D+00
 Coeff-Com: -0.703D-02 0.825D-02 0.447D+00 0.551D+00
 Coeff:     -0.703D-02 0.825D-02 0.447D+00 0.551D+00
 Gap=     0.217 Goal=   None    Shift=    0.000
 RMSDP=1.35D-07 MaxDP=3.97D-06 DE=-1.94D-10 OVMax= 8.87D-06

 Cycle  12  Pass 1  IDiag  1:
 E= -386.100892985208     Delta-E=       -0.000000000317 Rises=F Damp=F
 DIIS: error= 2.27D-07 at cycle   5 NSaved=   5.
 NSaved= 5 IEnMin= 5 EnMin= -386.100892985208     IErMin= 5 ErrMin= 2.27D-07
 ErrMax= 2.27D-07  0.00D+00 EMaxC= 1.00D-01 BMatC= 1.29D-11 BMatP= 3.12D-10
 IDIUse=1 WtCom= 1.00D+00 WtEn= 0.00D+00
 Coeff-Com: -0.956D-02 0.145D-02 0.241D+00 0.321D+00 0.446D+00
 Coeff:     -0.956D-02 0.145D-02 0.241D+00 0.321D+00 0.446D+00
 Gap=     0.217 Goal=   None    Shift=    0.000
 RMSDP=2.65D-08 MaxDP=5.70D-07 DE=-3.17D-10 OVMax= 1.61D-06

 SCF Done:  E(RB3LYP) =  -386.100892985     A.U. after   12 cycles
            NFock= 12  Conv=0.27D-07     -V/T= 2.0094
 KE= 3.824989789152D+02 PE=-1.740399950339D+03 EE= 5.499995406323D+02
 Leave Link  502 at Wed Dec 03 16:26:54 2025, MaxMem=   104857600 cpu:              12.0 elap:              12.4
 (Enter D:\Gaussian\G16W\l601.exe)
 Copying SCF densities to generalized density rwf, IOpCl= 0 IROHF=0.

 **********************************************************************

            Population analysis using the SCF density.

 **********************************************************************

 Orbital symmetries:
       Occupied  (A) (A) (A) (A) (A) (A) (A) (A) (A) (A) (A) (A)
                 (A) (A) (A) (A) (A) (A) (A) (A) (A) (A) (A) (A)
                 (A) (A) (A) (A) (A) (A) (A) (A) (A)
       Virtual   (A) (A) (A) (A) (A) (A) (A) (A) (A) (A) (A) (A)
                 (A) (A) (A) (A) (A) (A) (A) (A) (A) (A) (A) (A)
                 (A) (A) (A) (A) (A) (A) (A) (A) (A) (A) (A) (A)
                 (A) (A) (A) (A) (A) (A) (A) (A) (A) (A) (A) (A)
                 (A) (A) (A) (A) (A) (A) (A) (A) (A) (A) (A) (A)
                 (A) (A) (A) (A) (A) (A) (A) (A) (A) (A) (A) (A)
                 (A) (A) (A) (A) (A) (A) (A) (A) (A) (A) (A) (A)
                 (A) (A) (A) (A) (A) (A) (A) (A) (A) (A) (A) (A)
                 (A) (A) (A) (A) (A) (A) (A) (A) (A) (A) (A) (A)
                 (A) (A) (A) (A) (A) (A) (A) (A) (A) (A) (A) (A)
                 (A) (A)
 The electronic state is 1-A.
 Alpha  occ. eigenvalues --  -19.17223 -10.24144 -10.19273 -10.19088 -10.18071
 Alpha  occ. eigenvalues --  -10.17794 -10.17762 -10.17126 -10.17057  -1.05428
 Alpha  occ. eigenvalues --   -0.84860  -0.77626  -0.74561  -0.68521  -0.68084
 Alpha  occ. eigenvalues --   -0.60396  -0.57163  -0.51967  -0.49067  -0.46855
 Alpha  occ. eigenvalues --   -0.42258  -0.41322  -0.41012  -0.40029  -0.39771
 Alpha  occ. eigenvalues --   -0.39074  -0.39015  -0.35998  -0.34544  -0.32822
 Alpha  occ. eigenvalues --   -0.31145  -0.23151  -0.21284
 Alpha virt. eigenvalues --    0.00443   0.02446   0.07390   0.10251   0.12306
 Alpha virt. eigenvalues --    0.13636   0.14241   0.14490   0.16481   0.17715
 Alpha virt. eigenvalues --    0.18971   0.19551   0.21529   0.25180   0.25517
 Alpha virt. eigenvalues --    0.27546   0.32217   0.33936   0.38555   0.39604
 Alpha virt. eigenvalues --    0.41937   0.50850   0.51610   0.53744   0.55647
 Alpha virt. eigenvalues --    0.56163   0.56556   0.56905   0.57778   0.62156
 Alpha virt. eigenvalues --    0.63303   0.64115   0.65261   0.66528   0.68619
 Alpha virt. eigenvalues --    0.71210   0.73747   0.74401   0.76676   0.77149
 Alpha virt. eigenvalues --    0.78300   0.79160   0.84700   0.85218   0.87573
 Alpha virt. eigenvalues --    0.87988   0.89562   0.91298   0.91674   0.92425
 Alpha virt. eigenvalues --    0.95722   0.96370   0.96473   0.97707   1.01104
 Alpha virt. eigenvalues --    1.06813   1.08966   1.12731   1.18485   1.19815
 Alpha virt. eigenvalues --    1.22189   1.25598   1.26056   1.34394   1.36501
 Alpha virt. eigenvalues --    1.39869   1.40429   1.40736   1.42513   1.48703
 Alpha virt. eigenvalues --    1.50161   1.54769   1.73771   1.74326   1.78239
 Alpha virt. eigenvalues --    1.79604   1.85487   1.86859   1.88855   1.89628
 Alpha virt. eigenvalues --    1.90026   1.91407   1.91983   1.95771   1.96850
 Alpha virt. eigenvalues --    1.98449   2.09536   2.11271   2.13397   2.14871
 Alpha virt. eigenvalues --    2.19010   2.24736   2.27299   2.31425   2.32727
 Alpha virt. eigenvalues --    2.34593   2.36515   2.37361   2.39567   2.40999
 Alpha virt. eigenvalues --    2.44796   2.52718   2.56919   2.67786   2.68226
 Alpha virt. eigenvalues --    2.74731   2.79475   2.81070   2.88202   2.90881
 Alpha virt. eigenvalues --    3.00049   3.15183   3.43619   3.94757   4.10766
 Alpha virt. eigenvalues --    4.12882   4.19015   4.22888   4.26225   4.43753
 Alpha virt. eigenvalues --    4.45416   4.77988
          Condensed to atoms (all electrons):
               1          2          3          4          5          6
     1  C    4.623604   0.534262   0.002587  -0.039642  -0.013526   0.536612
     2  C    0.534262   5.077527   0.523159  -0.084176  -0.037636  -0.044892
     3  C    0.002587   0.523159   4.508440   0.482803   0.006762  -0.049274
     4  C   -0.039642  -0.084176   0.482803   5.214826   0.502744  -0.055119
     5  C   -0.013526  -0.037636   0.006762   0.502744   4.635092   0.539517
     6  C    0.536612  -0.044892  -0.049274  -0.055119   0.539517   5.060969
     7  H   -0.044781   0.006452   0.000393   0.006808  -0.047275   0.347959
     8  O    0.001841  -0.046785   0.275653  -0.055717   0.004068   0.000685
     9  H   -0.000113   0.006245  -0.032158  -0.004565   0.000642  -0.000035
    10  H    0.000486   0.005356  -0.049474   0.339211  -0.038031   0.006130
    11  C    0.343163  -0.069349   0.005732   0.001011   0.006791  -0.046216
    12  H   -0.025765  -0.002599  -0.000014   0.000013  -0.000193   0.000257
    13  H   -0.026332  -0.002784  -0.000052   0.000022  -0.000135   0.000402
    14  H   -0.028992   0.003885  -0.000155   0.000000   0.000073  -0.003198
    15  H   -0.049541   0.346961  -0.038762   0.007046   0.000190   0.005738
    16  C    0.006319   0.000956   0.004820  -0.057685   0.338231  -0.050439
    17  H   -0.000164   0.000031  -0.000129  -0.002561  -0.025184  -0.001612
    18  H   -0.000143   0.000004   0.000073  -0.003183  -0.027247   0.002171
    19  H    0.000094   0.000001  -0.000107   0.003174  -0.028323  -0.003074
               7          8          9         10         11         12
     1  C   -0.044781   0.001841  -0.000113   0.000486   0.343163  -0.025765
     2  C    0.006452  -0.046785   0.006245   0.005356  -0.069349  -0.002599
     3  C    0.000393   0.275653  -0.032158  -0.049474   0.005732  -0.000014
     4  C    0.006808  -0.055717  -0.004565   0.339211   0.001011   0.000013
     5  C   -0.047275   0.004068   0.000642  -0.038031   0.006791  -0.000193
     6  C    0.347959   0.000685  -0.000035   0.006130  -0.046216   0.000257
     7  H    0.628346   0.000003  -0.000001  -0.000184  -0.010596   0.000134
     8  O    0.000003   8.230160   0.243408  -0.005390  -0.000063   0.000000
     9  H   -0.000001   0.243408   0.373421   0.007604   0.000005   0.000000
    10  H   -0.000184  -0.005390   0.007604   0.634140   0.000010   0.000000
    11  C   -0.010596  -0.000063   0.000005   0.000010   5.217954   0.362982
    12  H    0.000134   0.000000   0.000000   0.000000   0.362982   0.561008
    13  H    0.000110   0.000000   0.000000   0.000000   0.363761  -0.032486
    14  H    0.007228   0.000000   0.000000   0.000000   0.364068  -0.027955
    15  H   -0.000163  -0.000934  -0.000354  -0.000195  -0.008658   0.001965
    16  C   -0.009945  -0.000064  -0.000016  -0.009769  -0.000250   0.000003
    17  H    0.000360   0.000000   0.000000   0.000877   0.000003   0.000000
    18  H    0.000051  -0.000001   0.000002   0.004276   0.000002   0.000000
    19  H    0.006144   0.000000   0.000000   0.000034  -0.000003   0.000000
              13         14         15         16         17         18
     1  C   -0.026332  -0.028992  -0.049541   0.006319  -0.000164  -0.000143
     2  C   -0.002784   0.003885   0.346961   0.000956   0.000031   0.000004
     3  C   -0.000052  -0.000155  -0.038762   0.004820  -0.000129   0.000073
     4  C    0.000022   0.000000   0.007046  -0.057685  -0.002561  -0.003183
     5  C   -0.000135   0.000073   0.000190   0.338231  -0.025184  -0.027247
     6  C    0.000402  -0.003198   0.005738  -0.050439  -0.001612   0.002171
     7  H    0.000110   0.007228  -0.000163  -0.009945   0.000360   0.000051
     8  O    0.000000   0.000000  -0.000934  -0.000064   0.000000  -0.000001
     9  H    0.000000   0.000000  -0.000354  -0.000016   0.000000   0.000002
    10  H    0.000000   0.000000  -0.000195  -0.009769   0.000877   0.004276
    11  C    0.363761   0.364068  -0.008658  -0.000250   0.000003   0.000002
    12  H   -0.032486  -0.027955   0.001965   0.000003   0.000000   0.000000
    13  H    0.560915  -0.028028   0.001935   0.000002   0.000000   0.000000
    14  H   -0.028028   0.559591   0.000065  -0.000003   0.000000   0.000000
    15  H    0.001935   0.000065   0.607493   0.000012   0.000000   0.000000
    16  C    0.000002  -0.000003   0.000012   5.217682   0.362038   0.363121
    17  H    0.000000   0.000000   0.000000   0.362038   0.563099  -0.032168
    18  H    0.000000   0.000000   0.000000   0.363121  -0.032168   0.565364
    19  H    0.000000  -0.000001   0.000000   0.365578  -0.029430  -0.027574
              19
     1  C    0.000094
     2  C    0.000001
     3  C   -0.000107
     4  C    0.003174
     5  C   -0.028323
     6  C   -0.003074
     7  H    0.006144
     8  O    0.000000
     9  H    0.000000
    10  H    0.000034
    11  C   -0.000003
    12  H    0.000000
    13  H    0.000000
    14  H   -0.000001
    15  H    0.000000
    16  C    0.365578
    17  H   -0.029430
    18  H   -0.027574
    19  H    0.556468
 Mulliken charges:
               1
     1  C    0.180030
     2  C   -0.216620
     3  C    0.359703
     4  C   -0.255011
     5  C    0.183440
     6  C   -0.246581
     7  H    0.108956
     8  O   -0.646865
     9  H    0.405915
    10  H    0.104920
    11  C   -0.530349
    12  H    0.162649
    13  H    0.162669
    14  H    0.153422
    15  H    0.127203
    16  C   -0.530592
    17  H    0.164838
    18  H    0.155254
    19  H    0.157018
 Sum of Mulliken charges =   0.00000
 Mulliken charges with hydrogens summed into heavy atoms:
               1
     1  C    0.180030
     2  C   -0.089417
     3  C    0.359703
     4  C   -0.150090
     5  C    0.183440
     6  C   -0.137625
     8  O   -0.240950
    11  C   -0.051609
    16  C   -0.053481
 Electronic spatial extent (au):  <R**2>=           1306.3095
 Charge=              0.0000 electrons
 Dipole moment (field-independent basis, Debye):
    X=             -1.2979    Y=             -0.3429    Z=              0.0345  Tot=              1.3428
 Quadrupole moment (field-independent basis, Debye-Ang):
   XX=            -46.9887   YY=            -50.9517   ZZ=            -56.1356
   XY=             -4.7053   XZ=             -0.0593   YZ=             -0.0515
 Traceless Quadrupole moment (field-independent basis, Debye-Ang):
   XX=              4.3700   YY=              0.4069   ZZ=             -4.7769
   XY=             -4.7053   XZ=             -0.0593   YZ=             -0.0515
 Octapole moment (field-independent basis, Debye-Ang**2):
  XXX=             -1.9607  YYY=             10.2210  ZZZ=              0.6035  XYY=            -16.7931
  XXY=             10.7507  XXZ=              0.0196  XZZ=             -0.1489  YZZ=              3.5986
  YYZ=             -0.3182  XYZ=              0.3053
 Hexadecapole moment (field-independent basis, Debye-Ang**3):
 XXXX=           -870.1683 YYYY=           -724.6183 ZZZZ=            -69.1219 XXXY=             -9.5407
 XXXZ=              0.9659 YYYX=            -57.7484 YYYZ=              1.6717 ZZZX=             -1.4964
 ZZZY=             -0.9957 XXYY=           -250.5603 XXZZ=           -157.7974 YYZZ=           -143.1752
 XXYZ=             -1.0886 YYXZ=              0.0364 ZZXY=             -0.4076
 N-N= 4.218005378061D+02 E-N=-1.740399954839D+03  KE= 3.824989789152D+02
 No NMR shielding tensors so no spin-rotation constants.
 Leave Link  601 at Wed Dec 03 16:26:54 2025, MaxMem=   104857600 cpu:               0.0 elap:               0.2
 (Enter D:\Gaussian\G16W\l9999.exe)
 1|1|UNPC-PC-20250526LCFF|SP|RB3LYP|6-31G(d)|C8H10O1|ADMINISTRATOR|03-D
 ec-2025|0||#P B3LYP/6-31G* SCF=conver=7 out=wfn||Generated by Multiwfn
  (http://sobereva.com/multiwfn)||0,1|C,0,1.267136,-0.578427,0.000716|C
 ,0,1.161301,0.812442,0.006294|C,0,-0.093785,1.417958,0.000926|C,0,-1.2
 521,0.639737,-0.008785|C,0,-1.163856,-0.753872,-0.01148|C,0,0.100057,-
 1.348851,-0.009125|H,0,0.177426,-2.431358,-0.016518|O,0,-0.130979,2.78
 5674,0.002044|H,0,-1.049105,3.074716,-0.000487|H,0,-2.226471,1.12247,-
 0.016291|C,0,2.628496,-1.233068,0.00162|H,0,3.211839,-0.933158,-0.8743
 05|H,0,3.203848,-0.946253,0.887191|H,0,2.546526,-2.321525,-0.006715|H,
 0,2.042909,1.443579,0.01039|C,0,-2.417093,-1.596498,0.009651|H,0,-2.81
 8949,-1.677134,1.025609|H,0,-3.201117,-1.163698,-0.617239|H,0,-2.22001
 6,-2.609565,-0.346888||Version=EM64W-G16RevA.03|State=1-A|HF=-386.1008
 93|RMSD=2.651e-008|Dipole=-0.5106188,-0.1348972,0.0135927|Quadrupole=3
 .2489696,0.302533,-3.5515026,-3.4982422,-0.0440701,-0.0382868|PG=C01 [
 X(C8H10O1)]||@

 Writing a WFN file to "N.wfn"


 This summer one third of the nation will be ill-housed
 ill-nourished and ill-clad. Only they call it a vacation.
 -- Jonas Salk
 Job cpu time:       0 days  0 hours  0 minutes 14.0 seconds.
 Elapsed time:       0 days  0 hours  0 minutes 14.4 seconds.
 File lengths (MBytes):  RWF=     15 Int=      0 D2E=      0 Chk=      3 Scr=      1
 Normal termination of Gaussian 16 at Wed Dec 03 16:26:54 2025.
