 Generated by Multiwfn (http://sobereva.com/multiwfn)
GAUSSIAN             33 MOL ORBITALS    292 PRIMITIVES       19 NUCLEI
  C    1    (CENTRE  1)   2.39454011 -1.09306851  0.00135302  CHARGE =  6.0
  C    2    (CENTRE  2)   2.19454109  1.53529298  0.01189391  CHARGE =  6.0
  C    3    (CENTRE  3)  -0.17722765  2.67955251  0.00174986  CHARGE =  6.0
  C    4    (CENTRE  4)  -2.36612584  1.20892808 -0.01660127  CHARGE =  6.0
  C    5    (CENTRE  5)  -2.19936899 -1.42461126 -0.02169408  CHARGE =  6.0
  C    6    (CENTRE  6)   0.18908036 -2.54895875 -0.01724378  CHARGE =  6.0
  H    7    (CENTRE  7)   0.33528647 -4.59460052 -0.03121452  CHARGE =  1.0
  O    8    (CENTRE  8)  -0.24751398  5.26416117  0.00386257  CHARGE =  8.0
  H    9    (CENTRE  9)  -1.98252064  5.81037149 -0.00092033  CHARGE =  1.0
  H   10    (CENTRE 10)  -4.20742013  2.12116134 -0.03078556  CHARGE =  1.0
  C   11    (CENTRE 11)   4.96713760 -2.33016086  0.00306133  CHARGE =  6.0
  H   12    (CENTRE 12)   6.06949614 -1.76341315 -1.65219703  CHARGE =  1.0
  H   13    (CENTRE 13)   6.05439534 -1.78815912  1.67654798  CHARGE =  1.0
  H   14    (CENTRE 14)   4.81223664 -4.38704648 -0.01268954  CHARGE =  1.0
  H   15    (CENTRE 15)   3.86053883  2.72796897  0.01963423  CHARGE =  1.0
  C   16    (CENTRE 16)  -4.56764378 -3.01694350  0.01823772  CHARGE =  6.0
  H   17    (CENTRE 17)  -5.32704157 -3.16932341  1.93812009  CHARGE =  1.0
  H   18    (CENTRE 18)  -6.04923437 -2.19906995 -1.16641269  CHARGE =  1.0
  H   19    (CENTRE 19)  -4.19522233 -4.93136270 -0.65552334  CHARGE =  1.0
CENTRE ASSIGNMENTS    1  1  1  1  1  1  1  1  1  1  1  1  1  1  1  1  1  1  1  1
CENTRE ASSIGNMENTS    1  1  1  1  1  1  1  1  2  2  2  2  2  2  2  2  2  2  2  2
CENTRE ASSIGNMENTS    2  2  2  2  2  2  2  2  2  2  2  2  2  2  2  2  3  3  3  3
CENTRE ASSIGNMENTS    3  3  3  3  3  3  3  3  3  3  3  3  3  3  3  3  3  3  3  3
CENTRE ASSIGNMENTS    3  3  3  3  4  4  4  4  4  4  4  4  4  4  4  4  4  4  4  4
CENTRE ASSIGNMENTS    4  4  4  4  4  4  4  4  4  4  4  4  5  5  5  5  5  5  5  5
CENTRE ASSIGNMENTS    5  5  5  5  5  5  5  5  5  5  5  5  5  5  5  5  5  5  5  5
CENTRE ASSIGNMENTS    6  6  6  6  6  6  6  6  6  6  6  6  6  6  6  6  6  6  6  6
CENTRE ASSIGNMENTS    6  6  6  6  6  6  6  6  7  7  7  7  8  8  8  8  8  8  8  8
CENTRE ASSIGNMENTS    8  8  8  8  8  8  8  8  8  8  8  8  8  8  8  8  8  8  8  8
CENTRE ASSIGNMENTS    9  9  9  9 10 10 10 10 11 11 11 11 11 11 11 11 11 11 11 11
CENTRE ASSIGNMENTS   11 11 11 11 11 11 11 11 11 11 11 11 11 11 11 11 12 12 12 12
CENTRE ASSIGNMENTS   13 13 13 13 14 14 14 14 15 15 15 15 16 16 16 16 16 16 16 16
CENTRE ASSIGNMENTS   16 16 16 16 16 16 16 16 16 16 16 16 16 16 16 16 16 16 16 16
CENTRE ASSIGNMENTS   17 17 17 17 18 18 18 18 19 19 19 19
TYPE ASSIGNMENTS      1  1  1  1  1  1  1  1  1  2  2  2  3  3  3  4  4  4  1  2
TYPE ASSIGNMENTS      3  4  5  6  7  8  9 10  1  1  1  1  1  1  1  1  1  2  2  2
TYPE ASSIGNMENTS      3  3  3  4  4  4  1  2  3  4  5  6  7  8  9 10  1  1  1  1
TYPE ASSIGNMENTS      1  1  1  1  1  2  2  2  3  3  3  4  4  4  1  2  3  4  5  6
TYPE ASSIGNMENTS      7  8  9 10  1  1  1  1  1  1  1  1  1  2  2  2  3  3  3  4
TYPE ASSIGNMENTS      4  4  1  2  3  4  5  6  7  8  9 10  1  1  1  1  1  1  1  1
TYPE ASSIGNMENTS      1  2  2  2  3  3  3  4  4  4  1  2  3  4  5  6  7  8  9 10
TYPE ASSIGNMENTS      1  1  1  1  1  1  1  1  1  2  2  2  3  3  3  4  4  4  1  2
TYPE ASSIGNMENTS      3  4  5  6  7  8  9 10  1  1  1  1  1  1  1  1  1  1  1  1
TYPE ASSIGNMENTS      1  2  2  2  3  3  3  4  4  4  1  2  3  4  5  6  7  8  9 10
TYPE ASSIGNMENTS      1  1  1  1  1  1  1  1  1  1  1  1  1  1  1  1  1  2  2  2
TYPE ASSIGNMENTS      3  3  3  4  4  4  1  2  3  4  5  6  7  8  9 10  1  1  1  1
TYPE ASSIGNMENTS      1  1  1  1  1  1  1  1  1  1  1  1  1  1  1  1  1  1  1  1
TYPE ASSIGNMENTS      1  2  2  2  3  3  3  4  4  4  1  2  3  4  5  6  7  8  9 10
TYPE ASSIGNMENTS      1  1  1  1  1  1  1  1  1  1  1  1
EXPONENTS  0.3047525D+04 0.4573695D+03 0.1039487D+03 0.2921016D+02 0.9286663D+01
EXPONENTS  0.3163927D+01 0.7868272D+01 0.1881289D+01 0.5442493D+00 0.7868272D+01
EXPONENTS  0.1881289D+01 0.5442493D+00 0.7868272D+01 0.1881289D+01 0.5442493D+00
EXPONENTS  0.7868272D+01 0.1881289D+01 0.5442493D+00 0.1687145D+00 0.1687145D+00
EXPONENTS  0.1687145D+00 0.1687145D+00 0.8000000D+00 0.8000000D+00 0.8000000D+00
EXPONENTS  0.8000000D+00 0.8000000D+00 0.8000000D+00 0.3047525D+04 0.4573695D+03
EXPONENTS  0.1039487D+03 0.2921016D+02 0.9286663D+01 0.3163927D+01 0.7868272D+01
EXPONENTS  0.1881289D+01 0.5442493D+00 0.7868272D+01 0.1881289D+01 0.5442493D+00
EXPONENTS  0.7868272D+01 0.1881289D+01 0.5442493D+00 0.7868272D+01 0.1881289D+01
EXPONENTS  0.5442493D+00 0.1687145D+00 0.1687145D+00 0.1687145D+00 0.1687145D+00
EXPONENTS  0.8000000D+00 0.8000000D+00 0.8000000D+00 0.8000000D+00 0.8000000D+00
EXPONENTS  0.8000000D+00 0.3047525D+04 0.4573695D+03 0.1039487D+03 0.2921016D+02
EXPONENTS  0.9286663D+01 0.3163927D+01 0.7868272D+01 0.1881289D+01 0.5442493D+00
EXPONENTS  0.7868272D+01 0.1881289D+01 0.5442493D+00 0.7868272D+01 0.1881289D+01
EXPONENTS  0.5442493D+00 0.7868272D+01 0.1881289D+01 0.5442493D+00 0.1687145D+00
EXPONENTS  0.1687145D+00 0.1687145D+00 0.1687145D+00 0.8000000D+00 0.8000000D+00
EXPONENTS  0.8000000D+00 0.8000000D+00 0.8000000D+00 0.8000000D+00 0.3047525D+04
EXPONENTS  0.4573695D+03 0.1039487D+03 0.2921016D+02 0.9286663D+01 0.3163927D+01
EXPONENTS  0.7868272D+01 0.1881289D+01 0.5442493D+00 0.7868272D+01 0.1881289D+01
EXPONENTS  0.5442493D+00 0.7868272D+01 0.1881289D+01 0.5442493D+00 0.7868272D+01
EXPONENTS  0.1881289D+01 0.5442493D+00 0.1687145D+00 0.1687145D+00 0.1687145D+00
EXPONENTS  0.1687145D+00 0.8000000D+00 0.8000000D+00 0.8000000D+00 0.8000000D+00
EXPONENTS  0.8000000D+00 0.8000000D+00 0.3047525D+04 0.4573695D+03 0.1039487D+03
EXPONENTS  0.2921016D+02 0.9286663D+01 0.3163927D+01 0.7868272D+01 0.1881289D+01
EXPONENTS  0.5442493D+00 0.7868272D+01 0.1881289D+01 0.5442493D+00 0.7868272D+01
EXPONENTS  0.1881289D+01 0.5442493D+00 0.7868272D+01 0.1881289D+01 0.5442493D+00
EXPONENTS  0.1687145D+00 0.1687145D+00 0.1687145D+00 0.1687145D+00 0.8000000D+00
EXPONENTS  0.8000000D+00 0.8000000D+00 0.8000000D+00 0.8000000D+00 0.8000000D+00
EXPONENTS  0.3047525D+04 0.4573695D+03 0.1039487D+03 0.2921016D+02 0.9286663D+01
EXPONENTS  0.3163927D+01 0.7868272D+01 0.1881289D+01 0.5442493D+00 0.7868272D+01
EXPONENTS  0.1881289D+01 0.5442493D+00 0.7868272D+01 0.1881289D+01 0.5442493D+00
EXPONENTS  0.7868272D+01 0.1881289D+01 0.5442493D+00 0.1687145D+00 0.1687145D+00
EXPONENTS  0.1687145D+00 0.1687145D+00 0.8000000D+00 0.8000000D+00 0.8000000D+00
EXPONENTS  0.8000000D+00 0.8000000D+00 0.8000000D+00 0.1873114D+02 0.2825394D+01
EXPONENTS  0.6401217D+00 0.1612778D+00 0.5484672D+04 0.8252349D+03 0.1880470D+03
EXPONENTS  0.5296450D+02 0.1689757D+02 0.5799635D+01 0.1553962D+02 0.3599934D+01
EXPONENTS  0.1013762D+01 0.1553962D+02 0.3599934D+01 0.1013762D+01 0.1553962D+02
EXPONENTS  0.3599934D+01 0.1013762D+01 0.1553962D+02 0.3599934D+01 0.1013762D+01
EXPONENTS  0.2700058D+00 0.2700058D+00 0.2700058D+00 0.2700058D+00 0.8000000D+00
EXPONENTS  0.8000000D+00 0.8000000D+00 0.8000000D+00 0.8000000D+00 0.8000000D+00
EXPONENTS  0.1873114D+02 0.2825394D+01 0.6401217D+00 0.1612778D+00 0.1873114D+02
EXPONENTS  0.2825394D+01 0.6401217D+00 0.1612778D+00 0.3047525D+04 0.4573695D+03
EXPONENTS  0.1039487D+03 0.2921016D+02 0.9286663D+01 0.3163927D+01 0.7868272D+01
EXPONENTS  0.1881289D+01 0.5442493D+00 0.7868272D+01 0.1881289D+01 0.5442493D+00
EXPONENTS  0.7868272D+01 0.1881289D+01 0.5442493D+00 0.7868272D+01 0.1881289D+01
EXPONENTS  0.5442493D+00 0.1687145D+00 0.1687145D+00 0.1687145D+00 0.1687145D+00
EXPONENTS  0.8000000D+00 0.8000000D+00 0.8000000D+00 0.8000000D+00 0.8000000D+00
EXPONENTS  0.8000000D+00 0.1873114D+02 0.2825394D+01 0.6401217D+00 0.1612778D+00
EXPONENTS  0.1873114D+02 0.2825394D+01 0.6401217D+00 0.1612778D+00 0.1873114D+02
EXPONENTS  0.2825394D+01 0.6401217D+00 0.1612778D+00 0.1873114D+02 0.2825394D+01
EXPONENTS  0.6401217D+00 0.1612778D+00 0.3047525D+04 0.4573695D+03 0.1039487D+03
EXPONENTS  0.2921016D+02 0.9286663D+01 0.3163927D+01 0.7868272D+01 0.1881289D+01
EXPONENTS  0.5442493D+00 0.7868272D+01 0.1881289D+01 0.5442493D+00 0.7868272D+01
EXPONENTS  0.1881289D+01 0.5442493D+00 0.7868272D+01 0.1881289D+01 0.5442493D+00
EXPONENTS  0.1687145D+00 0.1687145D+00 0.1687145D+00 0.1687145D+00 0.8000000D+00
EXPONENTS  0.8000000D+00 0.8000000D+00 0.8000000D+00 0.8000000D+00 0.8000000D+00
EXPONENTS  0.1873114D+02 0.2825394D+01 0.6401217D+00 0.1612778D+00 0.1873114D+02
EXPONENTS  0.2825394D+01 0.6401217D+00 0.1612778D+00 0.1873114D+02 0.2825394D+01
EXPONENTS  0.6401217D+00 0.1612778D+00
MO    1     MO 0.0        OCC NO =    2.0000000  ORB. ENERGY =  -19.172228
  0.43997370D-05  0.81166556D-05  0.13102799D-04  0.17055951D-04  0.14553874D-04
  0.50251029D-05 -0.73154291D-05 -0.33716746D-05  0.94545275D-05 -0.48305103D-04
 -0.37037289D-04 -0.18484203D-04  0.86376543D-04  0.66228054D-04  0.33052441D-04
  0.80773309D-07  0.61931850D-07  0.30908334D-07  0.19334676D-03 -0.26202189D-04
 -0.59213519D-04 -0.38704475D-07  0.30450490D-04  0.20615000D-04  0.34824556D-04
  0.29308462D-04 -0.45673441D-06  0.25474429D-06  0.27644363D-05  0.50998452D-05
  0.82327315D-05  0.10716570D-04  0.91444687D-05  0.31573653D-05 -0.51171699D-04
 -0.23584989D-04  0.66134772D-04 -0.18211012D-04 -0.13963049D-04 -0.69685402D-05
  0.12600003D-04  0.96608831D-05  0.48214578D-05  0.28285380D-06  0.21687435D-06
  0.10823550D-06 -0.12157975D-03  0.17583441D-03  0.11038615D-03  0.87896705D-06
 -0.10713509D-03 -0.53142227D-04  0.19549410D-04  0.21005454D-04 -0.13061311D-05
  0.30384734D-06 -0.25332525D-04 -0.46733562D-04 -0.75442459D-04 -0.98203665D-04
 -0.83797366D-04 -0.28933217D-04 -0.55546808D-04 -0.25601473D-04  0.71789203D-04
  0.51244674D-04  0.39291166D-04  0.19609046D-04  0.56630628D-03  0.43420773D-03
  0.21670009D-03  0.11385340D-05  0.87295566D-06  0.43566606D-06 -0.45859775D-04
 -0.68118147D-04 -0.68582236D-03 -0.16627621D-05 -0.11893830D-04 -0.33235406D-04
 -0.93048838D-04  0.93846836D-04  0.14529824D-05  0.15760992D-05  0.16772674D-04
  0.30942309D-04  0.49950481D-04  0.65020685D-04  0.55482268D-04  0.19156694D-04
 -0.10102681D-03 -0.46563164D-04  0.13056797D-03 -0.33410996D-04 -0.25617433D-04
 -0.12784894D-04 -0.86311626D-04 -0.66178280D-04 -0.33027600D-04 -0.19682064D-05
 -0.15090959D-05 -0.75314460D-06 -0.62572646D-03 -0.24237032D-03  0.23189026D-03
 -0.97498288D-06 -0.56596942D-04 -0.10131006D-03  0.73881292D-04 -0.35416442D-04
 -0.25310116D-05 -0.82310419D-06 -0.49409784D-05 -0.91151403D-05 -0.14714663D-04
 -0.19154119D-04 -0.16344244D-04 -0.56432748D-05  0.30758543D-04  0.14176584D-04
 -0.39752622D-04  0.19552227D-04  0.14991408D-04  0.74817631D-05  0.79136477D-04
  0.60676831D-04  0.30281991D-04  0.30572100D-06  0.23440747D-06  0.11698576D-06
  0.36737734D-03  0.54649287D-05  0.18141616D-03  0.12467255D-05 -0.57160668D-05
  0.72481383D-04 -0.71031001D-05 -0.80334196D-05 -0.20644181D-05 -0.75731893D-07
  0.66282619D-05  0.12227849D-04  0.19739540D-04  0.25695016D-04  0.21925603D-04
  0.75703839D-05 -0.24883833D-04 -0.11468936D-04  0.32160094D-04  0.19072638D-04
  0.14623689D-04  0.72982458D-05  0.42834511D-04  0.32842786D-04  0.16390852D-04
  0.20461198D-05  0.15688349D-05  0.78295855D-06 -0.11248981D-03 -0.65697197D-04
 -0.79317012D-04 -0.15124363D-05 -0.23121792D-04  0.19184956D-04  0.35085174D-04
 -0.64605699D-05 -0.49229128D-06 -0.68463152D-06 -0.49785665D-05 -0.84445911D-05
 -0.96138685D-05 -0.24812498D-04  0.82563511D+00  0.15196093D+01  0.24590148D+01
  0.32324437D+01  0.27724482D+01  0.94794713D+00 -0.15825598D-01 -0.70613508D-02
  0.20852264D-01 -0.28267895D-02 -0.21778889D-02 -0.95621055D-03 -0.15825026D-02
 -0.12192330D-02 -0.53530894D-03 -0.12425105D-04 -0.95728737D-05 -0.42030072D-05
  0.37981901D-02  0.89939463D-04 -0.34994259D-03  0.53892777D-06 -0.92606882D-02
 -0.91225979D-02 -0.91792753D-02 -0.67450044D-04 -0.66830814D-06 -0.81753484D-06
  0.88394721D-04  0.14993418D-03  0.17069476D-03 -0.18777903D-03 -0.21180423D-04
 -0.35926006D-04 -0.40900488D-04 -0.72590257D-04  0.60003894D-05  0.11069547D-04
  0.17869681D-04  0.23261015D-04  0.19848666D-04  0.68532674D-05 -0.21682773D-04
 -0.99935702D-05  0.28023014D-04  0.16565376D-04  0.12701280D-04  0.63388288D-05
  0.34207574D-05  0.26228198D-05  0.13089709D-05  0.48003789D-08  0.36806261D-08
  0.18368904D-08 -0.73833614D-04  0.23721459D-04 -0.19915393D-05 -0.86997530D-08
 -0.85680708D-05  0.22681326D-04  0.22172432D-04  0.27972756D-05 -0.52054236D-07
 -0.19836800D-06  0.29859872D-05  0.50647994D-05  0.57660951D-05  0.32381183D-05
  0.30373538D-05  0.51519269D-05  0.58652866D-05  0.32081194D-05  0.31705903D-05
  0.53779213D-05  0.61225733D-05  0.87954230D-05 -0.22234062D-05 -0.37713178D-05
 -0.42935120D-05 -0.11398902D-03  0.45901952D-05  0.84680139D-05  0.13670000D-04
  0.17794278D-04  0.15183890D-04  0.52426323D-05 -0.16574434D-04 -0.76391417D-05
  0.21420951D-04  0.24245791D-05  0.18590135D-05  0.92777802D-06 -0.33205780D-05
 -0.25460086D-05 -0.12706367D-05  0.14888410D-05  0.11415488D-05  0.56971286D-06
 -0.19454569D-04  0.61357705D-05 -0.29093281D-04 -0.16252166D-05  0.22924391D-04
 -0.84728871D-05  0.12968445D-04 -0.45795211D-04 -0.91337956D-05  0.12995277D-04
  0.24601168D-05  0.41728238D-05  0.47506124D-05  0.41446536D-05  0.42350678D-05
  0.71834765D-05  0.81781341D-05  0.74757298D-05  0.15856938D-07  0.26896369D-07
  0.30620565D-07 -0.96204304D-05
MO    2     MO 0.0        OCC NO =    2.0000000  ORB. ENERGY =  -10.241435
  0.39001005D-04  0.71949239D-04  0.11614838D-03  0.15119068D-03  0.12901128D-03
  0.44544495D-04 -0.92022420D-04 -0.42413049D-04  0.11893062D-03  0.68333028D-04
  0.52393432D-04  0.26147994D-04 -0.10414955D-03 -0.79855267D-04 -0.39853375D-04
  0.89466525D-06  0.68597257D-06  0.34234839D-06 -0.14236257D-02  0.39890481D-03
 -0.39222792D-03 -0.80890185D-06  0.11562513D-04  0.49567473D-04  0.47619422D-04
  0.41913362D-05  0.11788214D-05  0.26163699D-06  0.19600368D-02  0.36158852D-02
  0.58371598D-02  0.75982477D-02  0.64835985D-02  0.22386308D-02  0.28377209D-03
  0.13079030D-03 -0.36674965D-03  0.38242185D-03  0.29321682D-03  0.14633574D-03
 -0.56774494D-04 -0.43531081D-04 -0.21725060D-04  0.62214533D-06  0.47702158D-06
  0.23806720D-06  0.24141813D-02 -0.10007259D-02 -0.58781516D-03 -0.70552681D-05
 -0.27953377D-03 -0.42352000D-03 -0.37715273D-03  0.26369796D-03  0.31799876D-05
  0.20274160D-05  0.53256841D+00  0.98248472D+00  0.15860350D+01  0.20645463D+01
  0.17616811D+01  0.60826614D+00 -0.19754934D-01 -0.91050308D-02  0.25531457D-01
 -0.84465306D-04 -0.64762639D-04 -0.32321096D-04  0.11349425D-02  0.87020191D-03
  0.43429174D-03 -0.41260187D-05 -0.31635694D-05 -0.15788429D-05 -0.38216606D-02
 -0.45393796D-04  0.18133855D-02  0.54229009D-05 -0.10014646D-01 -0.92608611D-02
 -0.10388667D-01  0.21434958D-04  0.39245434D-05  0.12196453D-05  0.21475505D-02
  0.39618113D-02  0.63955918D-02  0.83251603D-02  0.71038743D-02  0.24527971D-02
  0.27705485D-03  0.12769433D-03 -0.35806823D-03 -0.40066784D-03 -0.30720668D-03
 -0.15331767D-03 -0.11064045D-03 -0.84832077D-04 -0.42337152D-04 -0.41648522D-06
 -0.31933445D-06 -0.15937027D-06  0.25016577D-02  0.11280593D-02 -0.37936129D-03
  0.62143691D-05 -0.28554638D-03 -0.45800575D-03 -0.37865593D-03 -0.23633127D-03
  0.11539206D-05 -0.22973803D-05  0.40214999D-04  0.74188820D-04  0.11976376D-03
  0.15589683D-03  0.13302705D-03  0.45931042D-04 -0.93873949D-04 -0.43266417D-04
  0.12132355D-03 -0.41955030D-04 -0.32168456D-04 -0.16054314D-04 -0.12272628D-03
 -0.94098729D-04 -0.46961861D-04 -0.55889931D-06 -0.42852854D-06 -0.21386578D-06
 -0.14170251D-02 -0.38416110D-03 -0.42051332D-03 -0.45152663D-05  0.12846253D-04
  0.45520775D-04  0.48232290D-04 -0.19916461D-04  0.50075413D-05  0.15538211D-05
 -0.61349034D-04 -0.11317699D-03 -0.18270275D-03 -0.23782470D-03 -0.20293624D-03
 -0.70069008D-04  0.12322988D-03  0.56796541D-04 -0.15926343D-03  0.35673789D-05
  0.27352399D-05  0.13650764D-05 -0.99271987D-04 -0.76115463D-04 -0.37986951D-04
 -0.32960078D-05 -0.25271697D-05 -0.12612348D-05  0.88170925D-03 -0.55423453D-04
  0.51146252D-03  0.41492057D-05  0.13822201D-04 -0.36178048D-04 -0.12905700D-03
  0.10170610D-05  0.13220288D-05  0.23810623D-05  0.27791840D-04  0.47140221D-04
  0.53667475D-04  0.15642557D-03  0.11740983D-03  0.21609676D-03  0.34968535D-03
  0.45967118D-03  0.39425730D-03  0.13480327D-03 -0.67817186D-03 -0.30259896D-03
  0.89357879D-03  0.61659658D-04  0.47505442D-04  0.20857448D-04  0.52823435D-04
  0.40697609D-04  0.17868443D-04  0.35461129D-05  0.27320888D-05  0.11995341D-05
 -0.16422289D-02 -0.37510265D-04  0.78989689D-03 -0.11830431D-05  0.75814469D-03
 -0.52030581D-03  0.95641455D-03  0.13894074D-03 -0.19359640D-05  0.29422682D-06
  0.37553384D-04  0.63697647D-04  0.72517519D-04 -0.59858440D-04  0.36125294D-04
  0.61275336D-04  0.69759804D-04  0.35177208D-03 -0.25874720D-04 -0.47733807D-04
 -0.77057165D-04 -0.10030553D-03 -0.85590893D-04 -0.29552478D-04  0.58291518D-04
  0.26866507D-04 -0.75336491D-04  0.12666236D-04  0.97116661D-05  0.48468020D-05
 -0.27462574D-04 -0.21056560D-04 -0.10508699D-04 -0.17900835D-06 -0.13725225D-06
 -0.68498492D-07 -0.60847069D-06  0.17542600D-04  0.60772624D-04  0.42400538D-06
 -0.43294582D-04 -0.31518809D-04 -0.41794377D-04 -0.11872613D-03 -0.60639657D-06
  0.20772130D-08 -0.10303263D-04 -0.17476284D-04 -0.19896131D-04 -0.18022471D-04
 -0.10484506D-04 -0.17783707D-04 -0.20246122D-04 -0.17557967D-04  0.14777557D-05
  0.25065533D-05  0.28536224D-05  0.21353409D-04  0.39665043D-04  0.67279420D-04
  0.76595242D-04  0.33457437D-03 -0.25758680D-04 -0.47519735D-04 -0.76711587D-04
 -0.99855693D-04 -0.85207044D-04 -0.29419945D-04  0.56826302D-04  0.26191191D-04
 -0.73442833D-04 -0.13042389D-04 -0.10000077D-04 -0.49907391D-05 -0.32211394D-04
 -0.24697654D-04 -0.12325860D-04 -0.35131400D-05 -0.26936529D-05 -0.13443216D-05
 -0.17834409D-04 -0.26885976D-04  0.47284290D-04  0.72991462D-05 -0.54444188D-04
 -0.10388973D-04 -0.52860333D-04  0.95317191D-04  0.19092357D-04 -0.27328859D-04
 -0.76769618D-05 -0.13021580D-04 -0.14824609D-04 -0.14525535D-04 -0.10757619D-04
 -0.18246958D-04 -0.20773516D-04 -0.16748840D-04  0.15230880D-05  0.25834455D-05
  0.29411614D-05  0.15779809D-04
MO    3     MO 0.0        OCC NO =    2.0000000  ORB. ENERGY =  -10.192733
  0.90605164D-03  0.16714883D-02  0.26983005D-02  0.35123855D-02  0.29971249D-02
  0.10348352D-02 -0.80222270D-04 -0.36974371D-04  0.10368000D-03  0.40378838D-05
  0.30959932D-05  0.15451176D-05  0.14929439D-04  0.11446947D-04  0.57128287D-05
 -0.77989687D-06 -0.59797545D-06 -0.29843166D-06 -0.68017692D-03  0.30319355D-03
 -0.14136294D-03  0.18470271D-05  0.55917387D-04  0.16925008D-04  0.32030134D-04
  0.38119253D-04 -0.70167262D-06 -0.45355940D-06 -0.86876446D-04 -0.16027008D-03
 -0.25872560D-03 -0.33678386D-03 -0.28737828D-03 -0.99224812D-04  0.74131126D-04
  0.34166968D-04 -0.95807745D-04  0.33398108D-04  0.25607551D-04  0.12779963D-04
  0.17158645D-04  0.13156161D-04  0.65658464D-05  0.19263403D-06  0.14769955D-06
  0.73712428D-07  0.54570739D-03 -0.23149459D-03 -0.19061038D-03 -0.24166382D-05
 -0.98718539D-05 -0.10136849D-05 -0.71675964D-04  0.14401162D-06  0.13797460D-05
  0.12991459D-05 -0.40893532D-04 -0.75440581D-04 -0.12178449D-03 -0.15852722D-03
 -0.13527156D-03 -0.46706020D-04 -0.35750279D-04 -0.16477271D-04  0.46203987D-04
  0.44152804D-05  0.33853570D-05  0.16895304D-05  0.54523316D-05  0.41805020D-05
  0.20863635D-05 -0.23740974D-06 -0.18203073D-06 -0.90846091D-07 -0.65232555D-03
  0.28677458D-04  0.29180839D-03  0.17799075D-05  0.62124885D-04  0.54798120D-04
  0.44670217D-04  0.68184912D-04 -0.26381263D-06  0.26352351D-06  0.97086071D-02
  0.17910484D-01  0.28913075D-01  0.37636233D-01  0.32115066D-01  0.11088560D-01
 -0.12628648D-03 -0.58205323D-04  0.16321380D-03 -0.77658428D-04 -0.59543557D-04
 -0.29716408D-04  0.47670847D-03  0.36550982D-03  0.18241502D-03  0.22984031D-05
  0.17622697D-05  0.87949611D-06  0.14700550D-02  0.33610291D-03 -0.41840413D-03
 -0.49253161D-06 -0.44860435D-03 -0.72417787D-03 -0.41267021D-03 -0.15407803D-04
 -0.19445979D-05 -0.79702997D-07  0.53236051D+00  0.98210120D+00  0.15854158D+01
  0.20637404D+01  0.17609934D+01  0.60802870D+00 -0.19827055D-01 -0.91382716D-02
  0.25624667D-01 -0.66273264D-06 -0.50814135D-06 -0.25359815D-06  0.93685955D-04
  0.71832448D-04  0.35849426D-04  0.21470946D-04  0.16462560D-04  0.82159712D-05
 -0.36787895D-02 -0.40397957D-03 -0.22811130D-03  0.39222152D-05 -0.10140849D-01
 -0.10054315D-01 -0.10422926D-01 -0.16324997D-03 -0.28596019D-04 -0.18795055D-04
  0.64282454D-02  0.11858858D-01  0.19143873D-01  0.24919635D-01  0.21263969D-01
  0.73419376D-02  0.88963880D-05  0.41003371D-05 -0.11497773D-04  0.38913684D-03
  0.29836544D-03  0.14890527D-03 -0.24616714D-03 -0.18874535D-03 -0.94197156D-04
  0.32912689D-05  0.25235362D-05  0.12594214D-05  0.15388286D-02 -0.30999973D-03
  0.49237897D-03 -0.94324542D-06 -0.58616739D-03 -0.41043143D-03 -0.35124585D-03
  0.15064800D-03  0.13170465D-07 -0.14042712D-05 -0.14143067D-06 -0.23989319D-06
 -0.27310991D-06  0.90800390D-04  0.17588921D-05  0.32373004D-05  0.52385631D-05
  0.68862378D-05  0.59062862D-05  0.20194596D-05 -0.55447907D-05 -0.24740748D-05
  0.73059760D-05  0.26902646D-04  0.20727039D-04  0.91002863D-05  0.47993966D-04
  0.36976763D-04  0.16234791D-04  0.62184445D-06  0.47909762D-06  0.21034966D-06
 -0.78763327D-04 -0.23922959D-04 -0.16083688D-04 -0.59280334D-06  0.55397647D-05
  0.27224588D-04 -0.13897089D-04  0.49505909D-04  0.71338557D-07  0.10986603D-05
 -0.50224695D-05 -0.85190588D-05 -0.96986474D-05  0.12431472D-04 -0.12135304D-05
 -0.20583772D-05 -0.23433896D-05  0.81153397D-04 -0.50532167D-05 -0.93221981D-05
 -0.15048918D-04 -0.19589220D-04 -0.16715517D-04 -0.57714663D-05  0.18823052D-04
  0.86755275D-05 -0.24327085D-04  0.37353584D-04  0.28640359D-04  0.14293546D-04
 -0.13098050D-04 -0.10042754D-04 -0.50120381D-05 -0.43243231D-06 -0.33156166D-06
 -0.16547251D-06 -0.70583216D-04  0.12564683D-05 -0.16243182D-04 -0.27544586D-06
  0.10258072D-04 -0.28398825D-04 -0.34298576D-04  0.22412786D-04  0.12167881D-05
 -0.42933934D-06  0.52087283D-06  0.88349890D-06  0.10058323D-05  0.27539850D-05
  0.55995495D-06  0.94978958D-06  0.10813019D-05  0.26341888D-05 -0.54607099D-05
 -0.92623976D-05 -0.10544912D-04  0.11145193D-04  0.14323686D-04  0.24295683D-04
  0.27659777D-04  0.90780666D-04  0.53711478D-02  0.99087189D-02  0.15995745D-01
  0.20821707D-01  0.17767200D-01  0.61345872D-02 -0.16712770D-03 -0.77029005D-04
  0.21599737D-03 -0.35560690D-03 -0.27265682D-03 -0.13607486D-03 -0.18681407D-03
 -0.14323718D-03 -0.71485393D-04  0.95613532D-04  0.73310392D-04  0.36587024D-04
  0.37343417D-03  0.18966097D-03  0.81958049D-04 -0.60496327D-04 -0.52643688D-03
 -0.37367186D-03 -0.13512402D-03 -0.40528103D-03  0.21213285D-04  0.20710382D-04
 -0.35215723D-04 -0.59732532D-04 -0.68003376D-04  0.11922238D-03 -0.23020477D-04
 -0.39047086D-04 -0.44453727D-04  0.21505340D-04 -0.19376514D-04 -0.32866235D-04
 -0.37417047D-04 -0.30370155D-04
MO    4     MO 0.0        OCC NO =    2.0000000  ORB. ENERGY =  -10.190881
  0.53239871D+00  0.98217166D+00  0.15855296D+01  0.20638884D+01  0.17611197D+01
  0.60807232D+00 -0.19830053D-01 -0.91396535D-02  0.25628542D-01 -0.38014618D-04
 -0.29147198D-04 -0.14546495D-04  0.51614475D-04  0.39574706D-04  0.19750552D-04
 -0.36813365D-05 -0.28226154D-05 -0.14086829D-05 -0.37031388D-02  0.46838171D-03
 -0.12242942D-03  0.34302932D-05 -0.10163080D-01 -0.10027329D-01 -0.10417722D-01
  0.13220332D-03  0.27256435D-05  0.41356892D-05  0.73809045D-02  0.13616328D-01
  0.21980975D-01  0.28612698D-01  0.24415267D-01  0.84300049D-02 -0.40396864D-04
 -0.18618878D-04  0.52209277D-04  0.10442261D-04  0.80064631D-05  0.39957862D-05
  0.48639765D-03  0.37293886D-03  0.18612263D-03  0.14659171D-05  0.11239723D-05
  0.56094094D-06  0.14551724D-02 -0.29140371D-03 -0.44617587D-03 -0.35921537D-05
 -0.41111266D-03 -0.66410330D-03 -0.36157316D-03  0.95229242D-04  0.34447301D-06
 -0.94185622D-06 -0.26917168D-04 -0.49656919D-04 -0.80161663D-04 -0.10434667D-03
 -0.89039201D-04 -0.30743096D-04 -0.35660588D-04 -0.16435933D-04  0.46088071D-04
 -0.78920066D-06 -0.60510901D-06 -0.30199181D-06  0.77146122D-05  0.59150753D-05
  0.29520371D-05  0.63767554D-06  0.48892916D-06  0.24400992D-06 -0.66445489D-03
 -0.83590164D-04  0.27815401D-03 -0.11093898D-06  0.70629785D-04  0.47597609D-04
  0.44459717D-04 -0.75052488D-04  0.11566061D-05  0.15304370D-06 -0.17037187D-03
 -0.31430283D-03 -0.50738221D-03 -0.66046088D-03 -0.56357247D-03 -0.19458803D-03
  0.75815036D-04  0.34943081D-04 -0.97984046D-04 -0.36705713D-04 -0.28143612D-04
 -0.14045635D-04  0.63079873D-05  0.48365646D-05  0.24137847D-05 -0.16937705D-05
 -0.12986758D-05 -0.64813023D-06  0.53559767D-03  0.25404122D-03 -0.15643403D-03
  0.24457536D-05 -0.73453456D-05  0.30063412D-05 -0.68272107D-04 -0.48508101D-05
  0.16820317D-05 -0.63937045D-06 -0.95398663D-03 -0.17599191D-02 -0.28410550D-02
 -0.36982095D-02 -0.31556889D-02 -0.10895835D-02 -0.12255479D-04 -0.56485391D-05
  0.15839093D-04 -0.43546927D-05 -0.33389022D-05 -0.16663462D-05  0.19606055D-04
  0.15032680D-04  0.75023607D-05  0.87362383D-06  0.66983934D-06  0.33429678D-06
 -0.67264227D-03 -0.29225370D-03 -0.18919480D-03 -0.38013058D-05  0.92721571D-04
  0.49068969D-04  0.68816746D-04 -0.26083227D-04  0.32939105D-05  0.24809747D-05
  0.69197522D-02  0.12765592D-01  0.20607623D-01  0.26825002D-01  0.22889823D-01
  0.79033057D-02 -0.51484161D-05 -0.23729003D-05  0.66538601D-05 -0.35100918D-03
 -0.26913158D-03 -0.13431552D-03 -0.30212288D-03 -0.23164866D-03 -0.11560892D-03
 -0.27353436D-05 -0.20972880D-05 -0.10466937D-05  0.15953459D-02  0.25867518D-03
  0.55266436D-03  0.42098077D-05 -0.56943041D-03 -0.44585628D-03 -0.36611415D-03
 -0.19646557D-03 -0.42096682D-05 -0.13914564D-05 -0.13666252D-05 -0.23180550D-05
 -0.26390236D-05  0.99793733D-04 -0.28718883D-05 -0.52858076D-05 -0.85534345D-05
 -0.11243729D-04 -0.96436810D-05 -0.32973383D-05  0.38530970D-05  0.17192444D-05
 -0.50769517D-05 -0.59711818D-04 -0.46004737D-04 -0.20198557D-04  0.23655877D-04
  0.18225578D-04  0.80020103D-05 -0.84489438D-06 -0.65094557D-06 -0.28580017D-06
 -0.43958623D-04  0.45251782D-04 -0.13659726D-04  0.35892551D-06 -0.25589611D-04
  0.65657983D-05 -0.23550471D-04 -0.60023402D-04  0.42501437D-06 -0.40989286D-06
  0.60480204D-05  0.10258587D-04  0.11679039D-04 -0.31634371D-05  0.14638852D-04
  0.24830264D-04  0.28268378D-04  0.90047107D-04  0.48570257D-02  0.89602640D-02
  0.14464644D-01  0.18828669D-01  0.16066537D-01  0.55473893D-02 -0.14689453D-03
 -0.67703555D-04  0.18984783D-03  0.40305528D-03  0.30903722D-03  0.15423123D-03
 -0.83420982D-04 -0.63961918D-04 -0.31921480D-04  0.21184599D-05  0.16243007D-05
  0.81063989D-06  0.37586838D-03 -0.21993117D-03  0.72216268D-05 -0.21443626D-05
 -0.56570814D-03 -0.31180524D-03 -0.13258116D-03  0.36020469D-03 -0.13434683D-06
 -0.19228550D-05 -0.29643308D-04 -0.50280661D-04 -0.57242755D-04  0.82115880D-04
 -0.29514098D-04 -0.50061497D-04 -0.56993245D-04  0.83592853D-04 -0.18613049D-04
 -0.31571254D-04 -0.35942756D-04 -0.61617491D-04  0.83521295D-06  0.14166793D-05
  0.16128393D-05  0.86376256D-04 -0.32487952D-04 -0.59933928D-04 -0.96751943D-04
 -0.12594228D-03 -0.10746678D-03 -0.37105696D-04  0.21293441D-04  0.98141276D-05
 -0.27519838D-04 -0.41767248D-04 -0.32024476D-04 -0.15982458D-04 -0.12685172D-04
 -0.97261855D-05 -0.48540482D-05 -0.79958169D-05 -0.61306852D-05 -0.30596416D-05
 -0.75664709D-04  0.22121300D-05 -0.24895236D-04  0.96554559D-05  0.10031357D-04
 -0.34746005D-04 -0.32321562D-04 -0.69169746D-05 -0.11958606D-04  0.16220912D-04
 -0.13599350D-05 -0.23067071D-05 -0.26261045D-05 -0.51892073D-05  0.30586006D-05
  0.51879655D-05  0.59063154D-05  0.10394941D-04 -0.60521983D-05 -0.10265674D-04
 -0.11687107D-04  0.71450440D-05
MO    5     MO 0.0        OCC NO =    2.0000000  ORB. ENERGY =  -10.180711
  0.41592030D-05  0.76729175D-05  0.12386468D-04  0.16123501D-04  0.13758212D-04
  0.47503801D-05  0.62583367D-04  0.28844616D-04 -0.80883315D-04  0.41114631D-04
  0.31524091D-04  0.15732731D-04 -0.43432697D-05 -0.33301437D-05 -0.16619751D-05
  0.17056155D-04  0.13077578D-04  0.65266279D-05  0.38074775D-03 -0.25412998D-03
  0.43092581D-04 -0.13563061D-04  0.30720630D-04  0.20769026D-05 -0.64465406D-04
  0.65952051D-04  0.80713829D-05  0.19752011D-05  0.13458047D-04  0.24827468D-04
  0.40079232D-04  0.52171251D-04  0.44517823D-04  0.15370935D-04 -0.46046374D-05
 -0.21222732D-05  0.59510755D-05  0.14357870D-04  0.11008704D-04  0.54941150D-05
  0.86206816D-05  0.66097919D-05  0.32987494D-05 -0.40337392D-05 -0.30928154D-05
 -0.15435316D-05 -0.13830732D-03  0.10413477D-03  0.15020349D-03  0.89877649D-05
  0.43657734D-05  0.58821894D-05 -0.11067021D-04 -0.58662243D-04 -0.70901419D-05
 -0.51284668D-05 -0.91243297D-05 -0.16832607D-04 -0.27173046D-04 -0.35371233D-04
 -0.30182337D-04 -0.10421236D-04  0.79502604D-04  0.36642678D-04 -0.10274989D-03
  0.31165180D-04  0.23895484D-04  0.11925521D-04 -0.82821732D-05 -0.63502451D-05
 -0.31692174D-05  0.15475182D-04  0.11865388D-04  0.59216600D-05  0.43782013D-03
 -0.19907399D-03 -0.24011696D-03 -0.14052756D-04 -0.94666989D-06 -0.31640712D-04
 -0.85926460D-04  0.72052738D-04  0.44270087D-05  0.40328948D-05 -0.76360204D-03
 -0.14086967D-02 -0.22740732D-02 -0.29601676D-02 -0.25259164D-02 -0.87213823D-03
  0.32025796D-04  0.14760660D-04 -0.41390431D-04  0.12934802D-03  0.99175857D-04
  0.49495704D-04  0.62116924D-04  0.47627317D-04  0.23769369D-04 -0.24296421D-04
 -0.18628955D-04 -0.92971539D-05 -0.34544688D-03 -0.22763420D-03 -0.13551355D-03
  0.13476732D-04  0.92433228D-05  0.97924951D-04 -0.21385234D-04 -0.17400394D-03
 -0.91896228D-05 -0.15287992D-04 -0.54685469D-02 -0.10088401D-01 -0.16285808D-01
 -0.21199282D-01 -0.18089386D-01 -0.62458303D-02  0.28462943D-03  0.13118544D-03