 Entering Link 1 = D:\Gaussian\G16W\l1.exe PID=     36816.
  
 Copyright (c) 1988,1990,1992,1993,1995,1998,2003,2009,2016,
            Gaussian, Inc.  All Rights Reserved.
  
 This is part of the Gaussian(R) 16 program.  It is based on
 the Gaussian(R) 09 system (copyright 2009, Gaussian, Inc.),
 the Gaussian(R) 03 system (copyright 2003, Gaussian, Inc.),
 the Gaussian(R) 98 system (copyright 1998, Gaussian, Inc.),
 the Gaussian(R) 94 system (copyright 1995, Gaussian, Inc.),
 the Gaussian 92(TM) system (copyright 1992, Gaussian, Inc.),
 the Gaussian 90(TM) system (copyright 1990, Gaussian, Inc.),
 the Gaussian 88(TM) system (copyright 1988, Gaussian, Inc.),
 the Gaussian 86(TM) system (copyright 1986, Carnegie Mellon
 University), and the Gaussian 82(TM) system (copyright 1983,
 Carnegie Mellon University). Gaussian is a federally registered
 trademark of Gaussian, Inc.
  
 This software contains proprietary and confidential information,
 including trade secrets, belonging to Gaussian, Inc.
  
 This software is provided under written license and may be
 used, copied, transmitted, or stored only in accord with that
 written license.
  
 The following legend is applicable only to US Government
 contracts under FAR:
  
                    RESTRICTED RIGHTS LEGEND
  
 Use, reproduction and disclosure by the US Government is
 subject to restrictions as set forth in subparagraphs (a)
 and (c) of the Commercial Computer Software - Restricted
 Rights clause in FAR 52.227-19.
  
 Gaussian, Inc.
 340 Quinnipiac St., Bldg. 40, Wallingford CT 06492
  
  
 ---------------------------------------------------------------
 Warning -- This program may not be used in any manner that
 competes with the business of Gaussian, Inc. or will provide
 assistance to any competitor of Gaussian, Inc.  The licensee
 of this program is prohibited from giving any competitor of
 Gaussian, Inc. access to this program.  By using this program,
 the user acknowledges that Gaussian, Inc. is engaged in the
 business of creating and licensing software in the field of
 computational chemistry and represents and warrants to the
 licensee that it is not a competitor of Gaussian, Inc. and that
 it will not use this program in any manner prohibited above.
 ---------------------------------------------------------------
  

 Cite this work as:
 Gaussian 16, Revision A.03,
 M. J. Frisch, G. W. Trucks, H. B. Schlegel, G. E. Scuseria, 
 M. A. Robb, J. R. Cheeseman, G. Scalmani, V. Barone, 
 G. A. Petersson, H. Nakatsuji, X. Li, M. Caricato, A. V. Marenich, 
 J. Bloino, B. G. Janesko, R. Gomperts, B. Mennucci, H. P. Hratchian, 
 J. V. Ortiz, A. F. Izmaylov, J. L. Sonnenberg, D. Williams-Young, 
 F. Ding, F. Lipparini, F. Egidi, J. Goings, B. Peng, A. Petrone, 
 T. Henderson, D. Ranasinghe, V. G. Zakrzewski, J. Gao, N. Rega, 
 G. Zheng, W. Liang, M. Hada, M. Ehara, K. Toyota, R. Fukuda, 
 J. Hasegawa, M. Ishida, T. Nakajima, Y. Honda, O. Kitao, H. Nakai, 
 T. Vreven, K. Throssell, J. A. Montgomery, Jr., J. E. Peralta, 
 F. Ogliaro, M. J. Bearpark, J. J. Heyd, E. N. Brothers, K. N. Kudin, 
 V. N. Staroverov, T. A. Keith, R. Kobayashi, J. Normand, 
 K. Raghavachari, A. P. Rendell, J. C. Burant, S. S. Iyengar, 
 J. Tomasi, M. Cossi, J. M. Millam, M. Klene, C. Adamo, R. Cammi, 
 J. W. Ochterski, R. L. Martin, K. Morokuma, O. Farkas, 
 J. B. Foresman, and D. J. Fox, Gaussian, Inc., Wallingford CT, 2016.
 
 ******************************************
 Gaussian 16:  EM64W-G16RevA.03 17-Dec-2016
                01-Dec-2025 
 ******************************************
 %nprocshared=14
 Will use up to   14 processors via shared memory.
 %mem=80GB
 %chk=P2.chk
 ---------------------------------------------------------
 # ub3lyp/6-311g(d,p) geom=connectivity temperature=823.15
 ---------------------------------------------------------
 1/38=1,57=2,112=823150,172=1/1;
 2/12=2,17=6,18=5,40=1/2;
 3/5=4,6=6,7=101,11=2,25=1,30=1,74=-5,116=2/1,2,3;
 4//1;
 5/5=2,38=5/2;
 6/7=2,8=2,9=2,10=2,28=1/1;
 99/5=1,9=1/99;
 -------------------
 Title Card Required
 -------------------
 Symbolic Z-matrix:
 Charge =  0 Multiplicity = 1
 C                     1.26714  -0.57843   0.00072 
 C                     1.1613    0.81244   0.00629 
 C                    -0.09379   1.41796   0.00093 
 C                    -1.2521    0.63974  -0.00879 
 C                    -1.16386  -0.75387  -0.01148 
 C                     0.10006  -1.34885  -0.00913 
 H                     0.17743  -2.43136  -0.01652 
 O                    -0.13098   2.78567   0.00204 
 H                    -1.04911   3.07472  -0.00049 
 H                    -2.22647   1.12247  -0.01629 
 C                     2.6285   -1.23307   0.00162 
 H                     3.21184  -0.93316  -0.87431 
 H                     3.20385  -0.94625   0.88719 
 H                     2.54653  -2.32153  -0.00672 
 H                     2.04291   1.44358   0.01039 
 C                    -2.41709  -1.5965    0.00965 
 H                    -2.81895  -1.67713   1.02561 
 H                    -3.20112  -1.1637   -0.61724 
 H                    -2.22002  -2.60957  -0.34689 
 
                          Input orientation:                          
 ---------------------------------------------------------------------
 Center     Atomic      Atomic             Coordinates (Angstroms)
 Number     Number       Type             X           Y           Z
 ---------------------------------------------------------------------
      1          6           0        1.267136   -0.578427    0.000716
      2          6           0        1.161301    0.812442    0.006294
      3          6           0       -0.093785    1.417958    0.000926
      4          6           0       -1.252100    0.639737   -0.008785
      5          6           0       -1.163856   -0.753872   -0.011480
      6          6           0        0.100057   -1.348851   -0.009125
      7          1           0        0.177426   -2.431358   -0.016518
      8          8           0       -0.130979    2.785674    0.002044
      9          1           0       -1.049105    3.074716   -0.000487
     10          1           0       -2.226471    1.122470   -0.016291
     11          6           0        2.628496   -1.233068    0.001620
     12          1           0        3.211839   -0.933158   -0.874305
     13          1           0        3.203848   -0.946253    0.887191
     14          1           0        2.546526   -2.321525   -0.006715
     15          1           0        2.042909    1.443579    0.010390
     16          6           0       -2.417093   -1.596498    0.009651
     17          1           0       -2.818949   -1.677134    1.025609
     18          1           0       -3.201117   -1.163698   -0.617239
     19          1           0       -2.220016   -2.609565   -0.346888
 ---------------------------------------------------------------------
                    Distance matrix (angstroms):
                    1          2          3          4          5
     1  C    0.000000
     2  C    1.394901   0.000000
     3  C    2.416125   1.393528   0.000000
     4  C    2.798314   2.419620   1.395498   0.000000
     5  C    2.437345   2.803571   2.421167   1.396403   0.000000
     6  C    1.398472   2.407834   2.773609   2.404748   1.396954
     7  H    2.149679   3.389804   3.858898   3.387511   2.147795
     8  O    3.643062   2.358739   1.368222   2.421172   3.687195
     9  H    4.325555   3.162882   1.912455   2.443440   3.830323
    10  H    3.885696   3.402003   2.153128   1.087422   2.156347
    11  C    1.510582   2.517299   3.799836   4.308890   3.822530
    12  H    2.161797   2.833245   4.149810   4.811432   4.463554
    13  H    2.161478   2.835663   4.153233   4.813898   4.463346
    14  H    2.162241   3.426480   4.577667   4.816496   4.027964
    15  H    2.165739   1.084243   2.136869   3.391698   3.887494
    16  C    3.822315   4.313688   3.805888   2.521566   1.510321
    17  H    4.353579   4.804101   4.249246   2.982093   2.160393
    18  H    4.548593   4.829556   4.086880   2.724199   2.164563
    19  H    4.050504   4.823710   4.567579   3.407219   2.161381
                    6          7          8          9         10
     6  C    0.000000
     7  H    1.085294   0.000000
     8  O    4.140990   5.226173   0.000000
     9  H    4.570404   5.641054   0.962552   0.000000
    10  H    3.394144   4.290503   2.675382   2.279848   0.000000
    11  C    2.531111   2.728364   4.874935   5.664076   5.396257
    12  H    3.256459   3.491141   5.076626   5.914580   5.876820
    13  H    3.255608   3.490194   5.082503   5.919778   5.880838
    14  H    2.632738   2.371665   5.766506   6.484444   5.885804
    15  H    3.401870   4.300685   2.554815   3.495894   4.281522
    16  C    2.529373   2.725657   4.942652   4.867416   2.725765
    17  H    3.114328   3.260850   5.309381   5.173519   3.045385
    18  H    3.361820   3.658194   5.040516   4.793297   2.556880
    19  H    2.661996   2.426650   5.796070   5.813955   3.746655
                   11         12         13         14         15
    11  C    0.000000
    12  H    1.094294   0.000000
    13  H    1.094317   1.761563   0.000000
    14  H    1.091571   1.767178   1.767063   0.000000
    15  H    2.739969   2.792483   2.797831   3.798675   0.000000
    16  C    5.058667   5.736399   5.726070   5.016318   5.397563
    17  H    5.560612   6.366599   6.068561   5.501750   5.865764
    18  H    5.862780   6.422245   6.582869   5.894803   5.889959
    19  H    5.052155   5.709077   5.805847   4.787338   5.893060
                   16         17         18         19
    16  C    0.000000
    17  H    1.095519   0.000000
    18  H    1.093161   1.763127   0.000000
    19  H    1.091908   1.764057   1.768101   0.000000
 Stoichiometry    C8H10O
 Framework group  C1[X(C8H10O)]
 Deg. of freedom    51
 Full point group                 C1      NOp   1
 Largest Abelian subgroup         C1      NOp   1
 Largest concise Abelian subgroup C1      NOp   1
                         Standard orientation:                         
 ---------------------------------------------------------------------
 Center     Atomic      Atomic             Coordinates (Angstroms)
 Number     Number       Type             X           Y           Z
 ---------------------------------------------------------------------
      1          6           0        1.267136   -0.578427    0.000716
      2          6           0        1.161301    0.812442    0.006294
      3          6           0       -0.093785    1.417958    0.000926
      4          6           0       -1.252100    0.639737   -0.008785
      5          6           0       -1.163856   -0.753872   -0.011480
      6          6           0        0.100057   -1.348851   -0.009125
      7          1           0        0.177426   -2.431358   -0.016518
      8          8           0       -0.130979    2.785674    0.002044
      9          1           0       -1.049105    3.074716   -0.000487
     10          1           0       -2.226471    1.122470   -0.016291
     11          6           0        2.628496   -1.233068    0.001620
     12          1           0        3.211839   -0.933158   -0.874305
     13          1           0        3.203848   -0.946253    0.887191
     14          1           0        2.546526   -2.321525   -0.006715
     15          1           0        2.042909    1.443579    0.010390
     16          6           0       -2.417093   -1.596498    0.009651
     17          1           0       -2.818949   -1.677134    1.025609
     18          1           0       -3.201117   -1.163698   -0.617239
     19          1           0       -2.220016   -2.609565   -0.346888
 ---------------------------------------------------------------------
 Rotational constants (GHZ):           1.7897464           1.7534047           0.8955346
 Standard basis: 6-311G(d,p) (5D, 7F)
 There are   231 symmetry adapted cartesian basis functions of A   symmetry.
 There are   222 symmetry adapted basis functions of A   symmetry.
   222 basis functions,   368 primitive gaussians,   231 cartesian basis functions
    33 alpha electrons       33 beta electrons
       nuclear repulsion energy       421.8005378061 Hartrees.
 NAtoms=   19 NActive=   19 NUniq=   19 SFac= 1.00D+00 NAtFMM=   60 NAOKFM=F Big=F
 Integral buffers will be    131072 words long.
 Raffenetti 2 integral format.
 Two-electron integral symmetry is turned on.
 One-electron integrals computed using PRISM.
 NBasis=   222 RedAO= T EigKep=  1.71D-04  NBF=   222
 NBsUse=   222 1.00D-06 EigRej= -1.00D+00 NBFU=   222
 ExpMin= 1.03D-01 ExpMax= 8.59D+03 ExpMxC= 1.30D+03 IAcc=3 IRadAn=         5 AccDes= 0.00D+00
 Harris functional with IExCor=  402 and IRadAn=       5 diagonalized for initial guess.
 HarFok:  IExCor=  402 AccDes= 0.00D+00 IRadAn=         5 IDoV= 1 UseB2=F ITyADJ=14
 ICtDFT=  3500011 ScaDFX=  1.000000  1.000000  1.000000  1.000000
 FoFCou: FMM=F IPFlag=           0 FMFlag=      100000 FMFlg1=           0
         NFxFlg=           0 DoJE=T BraDBF=F KetDBF=T FulRan=T
         wScrn=  0.000000 ICntrl=       500 IOpCl=  0 I1Cent=   200000004 NGrid=           0
         NMat0=    1 NMatS0=      1 NMatT0=    0 NMatD0=    1 NMtDS0=    0 NMtDT0=    0
 Petite list used in FoFCou.
 Initial guess <Sx>= 0.0000 <Sy>= 0.0000 <Sz>= 0.0000 <S**2>= 0.0000 S= 0.0000
 Requested convergence on RMS density matrix=1.00D-08 within 128 cycles.
 Requested convergence on MAX density matrix=1.00D-06.
 Requested convergence on             energy=1.00D-06.
 No special actions if energy rises.
 Integral accuracy reduced to 1.0D-05 until final iterations.
 Initial convergence to 1.0D-05 achieved.  Increase integral accuracy.
 SCF Done:  E(UB3LYP) =  -386.207108724     A.U. after   13 cycles
            NFock= 13  Conv=0.46D-08     -V/T= 2.0042
 <Sx>= 0.0000 <Sy>= 0.0000 <Sz>= 0.0000 <S**2>= 0.0000 S= 0.0000
 <L.S>= 0.000000000000E+00
 Annihilation of the first spin contaminant:
 S**2 before annihilation     0.0000,   after     0.0000

 **********************************************************************

            Population analysis using the SCF density.

 **********************************************************************

 Orbital symmetries:
 Alpha Orbitals:
       Occupied  (A) (A) (A) (A) (A) (A) (A) (A) (A) (A) (A) (A)
                 (A) (A) (A) (A) (A) (A) (A) (A) (A) (A) (A) (A)
                 (A) (A) (A) (A) (A) (A) (A) (A) (A)
       Virtual   (A) (A) (A) (A) (A) (A) (A) (A) (A) (A) (A) (A)
                 (A) (A) (A) (A) (A) (A) (A) (A) (A) (A) (A) (A)
                 (A) (A) (A) (A) (A) (A) (A) (A) (A) (A) (A) (A)
                 (A) (A) (A) (A) (A) (A) (A) (A) (A) (A) (A) (A)
                 (A) (A) (A) (A) (A) (A) (A) (A) (A) (A) (A) (A)
                 (A) (A) (A) (A) (A) (A) (A) (A) (A) (A) (A) (A)
                 (A) (A) (A) (A) (A) (A) (A) (A) (A) (A) (A) (A)
                 (A) (A) (A) (A) (A) (A) (A) (A) (A) (A) (A) (A)
                 (A) (A) (A) (A) (A) (A) (A) (A) (A) (A) (A) (A)
                 (A) (A) (A) (A) (A) (A) (A) (A) (A) (A) (A) (A)
                 (A) (A) (A) (A) (A) (A) (A) (A) (A) (A) (A) (A)
                 (A) (A) (A) (A) (A) (A) (A) (A) (A) (A) (A) (A)
                 (A) (A) (A) (A) (A) (A) (A) (A) (A) (A) (A) (A)
                 (A) (A) (A) (A) (A) (A) (A) (A) (A) (A) (A) (A)
                 (A) (A) (A) (A) (A) (A) (A) (A) (A) (A) (A) (A)
                 (A) (A) (A) (A) (A) (A) (A) (A) (A)
 Beta  Orbitals:
       Occupied  (A) (A) (A) (A) (A) (A) (A) (A) (A) (A) (A) (A)
                 (A) (A) (A) (A) (A) (A) (A) (A) (A) (A) (A) (A)
                 (A) (A) (A) (A) (A) (A) (A) (A) (A)
       Virtual   (A) (A) (A) (A) (A) (A) (A) (A) (A) (A) (A) (A)
                 (A) (A) (A) (A) (A) (A) (A) (A) (A) (A) (A) (A)
                 (A) (A) (A) (A) (A) (A) (A) (A) (A) (A) (A) (A)
                 (A) (A) (A) (A) (A) (A) (A) (A) (A) (A) (A) (A)
                 (A) (A) (A) (A) (A) (A) (A) (A) (A) (A) (A) (A)
                 (A) (A) (A) (A) (A) (A) (A) (A) (A) (A) (A) (A)
                 (A) (A) (A) (A) (A) (A) (A) (A) (A) (A) (A) (A)
                 (A) (A) (A) (A) (A) (A) (A) (A) (A) (A) (A) (A)
                 (A) (A) (A) (A) (A) (A) (A) (A) (A) (A) (A) (A)
                 (A) (A) (A) (A) (A) (A) (A) (A) (A) (A) (A) (A)
                 (A) (A) (A) (A) (A) (A) (A) (A) (A) (A) (A) (A)
                 (A) (A) (A) (A) (A) (A) (A) (A) (A) (A) (A) (A)
                 (A) (A) (A) (A) (A) (A) (A) (A) (A) (A) (A) (A)
                 (A) (A) (A) (A) (A) (A) (A) (A) (A) (A) (A) (A)
                 (A) (A) (A) (A) (A) (A) (A) (A) (A) (A) (A) (A)
                 (A) (A) (A) (A) (A) (A) (A) (A) (A)
 The electronic state is 1-A.
 Alpha  occ. eigenvalues --  -19.14489 -10.23098 -10.18199 -10.18013 -10.16791
 Alpha  occ. eigenvalues --  -10.16541 -10.16486 -10.15891 -10.15793  -1.06061
 Alpha  occ. eigenvalues --   -0.85632  -0.78287  -0.75230  -0.69111  -0.68687
 Alpha  occ. eigenvalues --   -0.61073  -0.57870  -0.52709  -0.49705  -0.47686
 Alpha  occ. eigenvalues --   -0.42890  -0.42010  -0.41520  -0.40752  -0.40398
 Alpha  occ. eigenvalues --   -0.39842  -0.39592  -0.36692  -0.35314  -0.33636
 Alpha  occ. eigenvalues --   -0.31986  -0.24004  -0.22184
 Alpha virt. eigenvalues --   -0.00809   0.01185   0.03279   0.05135   0.06224
 Alpha virt. eigenvalues --    0.08581   0.09397   0.10353   0.10613   0.12737
 Alpha virt. eigenvalues --    0.13245   0.15507   0.18158   0.21121   0.21667
 Alpha virt. eigenvalues --    0.23102   0.26146   0.26908   0.29485   0.31861
 Alpha virt. eigenvalues --    0.33168   0.33489   0.34461   0.35364   0.36534
 Alpha virt. eigenvalues --    0.38490   0.40760   0.42065   0.43411   0.45022
 Alpha virt. eigenvalues --    0.45238   0.47040   0.48205   0.48516   0.49938
 Alpha virt. eigenvalues --    0.50231   0.52025   0.54427   0.55015   0.56695
 Alpha virt. eigenvalues --    0.57377   0.58593   0.59050   0.60656   0.61221
 Alpha virt. eigenvalues --    0.61461   0.64072   0.64668   0.64742   0.67692
 Alpha virt. eigenvalues --    0.68775   0.71608   0.77385   0.78344   0.81482
 Alpha virt. eigenvalues --    0.83054   0.85750   0.87080   0.88233   0.89453
 Alpha virt. eigenvalues --    0.90788   0.91899   0.96179   0.99524   1.00036
 Alpha virt. eigenvalues --    1.02092   1.03047   1.05707   1.08954   1.10821
 Alpha virt. eigenvalues --    1.12018   1.18706   1.22840   1.29178   1.32530
 Alpha virt. eigenvalues --    1.37064   1.38124   1.39661   1.41531   1.42315
 Alpha virt. eigenvalues --    1.45721   1.45796   1.47413   1.48525   1.50064
 Alpha virt. eigenvalues --    1.50990   1.51646   1.54448   1.56289   1.56813
 Alpha virt. eigenvalues --    1.58131   1.58746   1.59075   1.60691   1.61269
 Alpha virt. eigenvalues --    1.66779   1.67616   1.68715   1.73297   1.75243
 Alpha virt. eigenvalues --    1.78822   1.80677   1.81472   1.84945   1.90400
 Alpha virt. eigenvalues --    1.90969   1.93183   1.94178   1.96220   1.96660
 Alpha virt. eigenvalues --    1.97447   1.99297   2.00112   2.01774   2.04794
 Alpha virt. eigenvalues --    2.08412   2.12286   2.14284   2.19661   2.22528
 Alpha virt. eigenvalues --    2.26625   2.29147   2.33075   2.35867   2.36270
 Alpha virt. eigenvalues --    2.37448   2.39078   2.42285   2.43952   2.47002
 Alpha virt. eigenvalues --    2.47521   2.50523   2.52292   2.54270   2.55147
 Alpha virt. eigenvalues --    2.55623   2.57530   2.58535   2.62233   2.63975
 Alpha virt. eigenvalues --    2.65682   2.68986   2.70182   2.74043   2.77042
 Alpha virt. eigenvalues --    2.77836   2.82310   2.85438   2.87409   2.88690
 Alpha virt. eigenvalues --    2.91062   2.94870   3.02465   3.07074   3.09634
 Alpha virt. eigenvalues --    3.16060   3.17322   3.17467   3.21129   3.33686
 Alpha virt. eigenvalues --    3.36281   3.41906   3.53972   3.59255   3.60488
 Alpha virt. eigenvalues --    3.64987   3.78699   3.78839   3.81148   3.82218
 Alpha virt. eigenvalues --    3.85855   4.01775   4.08793   4.12150   4.31373
 Alpha virt. eigenvalues --    4.34334   4.80984   4.84633   5.33796   5.70427
 Alpha virt. eigenvalues --   23.48745  23.88310  23.88757  23.93371  23.95162
 Alpha virt. eigenvalues --   24.07833  24.09081  24.17410  49.91023
  Beta  occ. eigenvalues --  -19.14489 -10.23098 -10.18199 -10.18013 -10.16791
  Beta  occ. eigenvalues --  -10.16541 -10.16486 -10.15891 -10.15793  -1.06061
  Beta  occ. eigenvalues --   -0.85632  -0.78287  -0.75230  -0.69111  -0.68687
  Beta  occ. eigenvalues --   -0.61073  -0.57870  -0.52709  -0.49705  -0.47686
  Beta  occ. eigenvalues --   -0.42890  -0.42010  -0.41520  -0.40752  -0.40398
  Beta  occ. eigenvalues --   -0.39842  -0.39592  -0.36692  -0.35314  -0.33636
  Beta  occ. eigenvalues --   -0.31986  -0.24004  -0.22184
  Beta virt. eigenvalues --   -0.00809   0.01185   0.03279   0.05135   0.06224
  Beta virt. eigenvalues --    0.08581   0.09397   0.10353   0.10613   0.12737
  Beta virt. eigenvalues --    0.13245   0.15507   0.18158   0.21121   0.21667
  Beta virt. eigenvalues --    0.23102   0.26146   0.26908   0.29485   0.31861
  Beta virt. eigenvalues --    0.33168   0.33489   0.34461   0.35364   0.36534
  Beta virt. eigenvalues --    0.38490   0.40760   0.42065   0.43411   0.45022
  Beta virt. eigenvalues --    0.45238   0.47040   0.48205   0.48516   0.49938
  Beta virt. eigenvalues --    0.50231   0.52025   0.54427   0.55015   0.56695
  Beta virt. eigenvalues --    0.57377   0.58593   0.59050   0.60656   0.61221
  Beta virt. eigenvalues --    0.61461   0.64072   0.64668   0.64742   0.67692
  Beta virt. eigenvalues --    0.68775   0.71608   0.77385   0.78344   0.81482
  Beta virt. eigenvalues --    0.83054   0.85750   0.87080   0.88233   0.89453
  Beta virt. eigenvalues --    0.90788   0.91899   0.96179   0.99524   1.00036
  Beta virt. eigenvalues --    1.02092   1.03047   1.05707   1.08954   1.10821
  Beta virt. eigenvalues --    1.12018   1.18706   1.22840   1.29178   1.32530
  Beta virt. eigenvalues --    1.37064   1.38124   1.39661   1.41531   1.42315
  Beta virt. eigenvalues --    1.45721   1.45796   1.47413   1.48525   1.50064
  Beta virt. eigenvalues --    1.50990   1.51646   1.54448   1.56289   1.56813
  Beta virt. eigenvalues --    1.58131   1.58746   1.59075   1.60691   1.61269
  Beta virt. eigenvalues --    1.66779   1.67616   1.68715   1.73297   1.75243
  Beta virt. eigenvalues --    1.78822   1.80677   1.81472   1.84945   1.90400
  Beta virt. eigenvalues --    1.90969   1.93183   1.94178   1.96220   1.96660
  Beta virt. eigenvalues --    1.97447   1.99297   2.00112   2.01774   2.04794
  Beta virt. eigenvalues --    2.08412   2.12286   2.14284   2.19661   2.22528
  Beta virt. eigenvalues --    2.26625   2.29147   2.33075   2.35867   2.36270
  Beta virt. eigenvalues --    2.37448   2.39078   2.42285   2.43952   2.47002
  Beta virt. eigenvalues --    2.47521   2.50523   2.52292   2.54270   2.55147
  Beta virt. eigenvalues --    2.55623   2.57530   2.58535   2.62233   2.63975
  Beta virt. eigenvalues --    2.65682   2.68986   2.70182   2.74043   2.77042
  Beta virt. eigenvalues --    2.77836   2.82310   2.85438   2.87409   2.88690
  Beta virt. eigenvalues --    2.91062   2.94870   3.02465   3.07074   3.09634
  Beta virt. eigenvalues --    3.16060   3.17322   3.17467   3.21129   3.33686
  Beta virt. eigenvalues --    3.36281   3.41906   3.53972   3.59255   3.60488
  Beta virt. eigenvalues --    3.64987   3.78699   3.78839   3.81148   3.82218
  Beta virt. eigenvalues --    3.85855   4.01775   4.08793   4.12150   4.31373
  Beta virt. eigenvalues --    4.34334   4.80984   4.84633   5.33796   5.70427
  Beta virt. eigenvalues --   23.48745  23.88310  23.88757  23.93371  23.95162
  Beta virt. eigenvalues --   24.07833  24.09081  24.17410  49.91023
          Condensed to atoms (all electrons):
               1          2          3          4          5          6
     1  C    4.990385   0.522459  -0.044842  -0.039686  -0.045849   0.544924
     2  C    0.522459   4.880829   0.526771  -0.068958  -0.033959  -0.064600
     3  C   -0.044842   0.526771   4.747578   0.428202  -0.006443  -0.039944
     4  C   -0.039686  -0.068958   0.428202   5.154256   0.417496  -0.069559
     5  C   -0.045849  -0.033959  -0.006443   0.417496   5.038591   0.549900
     6  C    0.544924  -0.064600  -0.039944  -0.069559   0.549900   4.831419
     7  H   -0.042242   0.008987  -0.000742   0.010040  -0.044432   0.411290
     8  O    0.002524  -0.052706   0.359251  -0.072339   0.006811   0.000466
     9  H   -0.000557   0.007172  -0.051392  -0.004729   0.001458  -0.000045
    10  H    0.000157   0.006010  -0.047598   0.397753  -0.025263   0.007505
    11  C    0.361312  -0.059879   0.005980  -0.000153   0.007781  -0.058485
    12  H   -0.035489  -0.004762   0.000215   0.000013  -0.000452   0.001114
    13  H   -0.036506  -0.004913   0.000142   0.000069  -0.000276   0.001010
    14  H   -0.035397   0.007068  -0.000417   0.000032   0.000603  -0.007719
    15  H   -0.043409   0.407550  -0.044304   0.011550  -0.001662   0.008331
    16  C    0.006558   0.000181   0.003261  -0.047059   0.349275  -0.055966
    17  H   -0.000297   0.000100  -0.000147  -0.003954  -0.034324  -0.002288
    18  H   -0.000349   0.000014   0.000476  -0.006137  -0.037592   0.004271
    19  H    0.000677   0.000018  -0.000215   0.005741  -0.035519  -0.007306
               7          8          9         10         11         12
     1  C   -0.042242   0.002524  -0.000557   0.000157   0.361312  -0.035489
     2  C    0.008987  -0.052706   0.007172   0.006010  -0.059879  -0.004762
     3  C   -0.000742   0.359251  -0.051392  -0.047598   0.005980   0.000215
     4  C    0.010040  -0.072339  -0.004729   0.397753  -0.000153   0.000013
     5  C   -0.044432   0.006811   0.001458  -0.025263   0.007781  -0.000452
     6  C    0.411290   0.000466  -0.000045   0.007505  -0.058485   0.001114
     7  H    0.597401   0.000012  -0.000011  -0.000370  -0.010420   0.000184
     8  O    0.000012   7.795815   0.325288  -0.004055  -0.000086  -0.000006
     9  H   -0.000011   0.325288   0.473572   0.005549   0.000030   0.000000
    10  H   -0.000370  -0.004055   0.005549   0.591538   0.000039  -0.000003
    11  C   -0.010420  -0.000086   0.000030   0.000039   4.809260   0.400674
    12  H    0.000184  -0.000006   0.000000  -0.000003   0.400674   0.573374
    13  H    0.000054  -0.000006   0.000000  -0.000002   0.402060  -0.030727
    14  H    0.004224   0.000002  -0.000002  -0.000001   0.407522  -0.027493
    15  H   -0.000300   0.004943  -0.000849  -0.000487  -0.007078   0.001102
    16  C   -0.008959  -0.000106  -0.000018  -0.007221  -0.000257   0.000018
    17  H    0.000320   0.000001   0.000002   0.000729   0.000011  -0.000001
    18  H    0.000033  -0.000013   0.000003   0.002406   0.000014   0.000000
    19  H    0.003495   0.000002   0.000000   0.000017  -0.000036  -0.000002
              13         14         15         16         17         18
     1  C   -0.036506  -0.035397  -0.043409   0.006558  -0.000297  -0.000349
     2  C   -0.004913   0.007068   0.407550   0.000181   0.000100   0.000014
     3  C    0.000142  -0.000417  -0.044304   0.003261  -0.000147   0.000476
     4  C    0.000069   0.000032   0.011550  -0.047059  -0.003954  -0.006137
     5  C   -0.000276   0.000603  -0.001662   0.349275  -0.034324  -0.037592
     6  C    0.001010  -0.007719   0.008331  -0.055966  -0.002288   0.004271
     7  H    0.000054   0.004224  -0.000300  -0.008959   0.000320   0.000033
     8  O   -0.000006   0.000002   0.004943  -0.000106   0.000001  -0.000013
     9  H    0.000000  -0.000002  -0.000849  -0.000018   0.000002   0.000003
    10  H   -0.000002  -0.000001  -0.000487  -0.007221   0.000729   0.002406
    11  C    0.402060   0.407522  -0.007078  -0.000257   0.000011   0.000014
    12  H   -0.030727  -0.027493   0.001102   0.000018  -0.000001   0.000000
    13  H    0.573056  -0.027368   0.001057   0.000010   0.000000  -0.000001
    14  H   -0.027368   0.574900   0.000094  -0.000040   0.000001   0.000002
    15  H    0.001057   0.000094   0.573755   0.000058  -0.000002  -0.000002
    16  C    0.000010  -0.000040   0.000058   4.811874   0.396995   0.405146
    17  H    0.000000   0.000001  -0.000002   0.396995   0.575615  -0.030670
    18  H   -0.000001   0.000002  -0.000002   0.405146  -0.030670   0.577574
    19  H    0.000005  -0.000003  -0.000003   0.407918  -0.027695  -0.027997
              19
     1  C    0.000677
     2  C    0.000018
     3  C   -0.000215
     4  C    0.005741
     5  C   -0.035519
     6  C   -0.007306
     7  H    0.003495
     8  O    0.000002
     9  H    0.000000
    10  H    0.000017
    11  C   -0.000036
    12  H   -0.000002
    13  H    0.000005
    14  H   -0.000003
    15  H   -0.000003
    16  C    0.407918
    17  H   -0.027695
    18  H   -0.027997
    19  H    0.570418
          Atomic-Atomic Spin Densities.
               1          2          3          4          5          6
     1  C    0.000000   0.000000   0.000000   0.000000   0.000000   0.000000
     2  C    0.000000   0.000000   0.000000   0.000000   0.000000   0.000000
     3  C    0.000000   0.000000   0.000000   0.000000   0.000000   0.000000
     4  C    0.000000   0.000000   0.000000   0.000000   0.000000   0.000000
     5  C    0.000000   0.000000   0.000000   0.000000   0.000000   0.000000
     6  C    0.000000   0.000000   0.000000   0.000000   0.000000   0.000000
     7  H    0.000000   0.000000   0.000000   0.000000   0.000000   0.000000
     8  O    0.000000   0.000000   0.000000   0.000000   0.000000   0.000000
     9  H    0.000000   0.000000   0.000000   0.000000   0.000000   0.000000
    10  H    0.000000   0.000000   0.000000   0.000000   0.000000   0.000000
    11  C    0.000000   0.000000   0.000000   0.000000   0.000000   0.000000
    12  H    0.000000   0.000000   0.000000   0.000000   0.000000   0.000000
    13  H    0.000000   0.000000   0.000000   0.000000   0.000000   0.000000
    14  H    0.000000   0.000000   0.000000   0.000000   0.000000   0.000000
    15  H    0.000000   0.000000   0.000000   0.000000   0.000000   0.000000
    16  C    0.000000   0.000000   0.000000   0.000000   0.000000   0.000000
    17  H    0.000000   0.000000   0.000000   0.000000   0.000000   0.000000
    18  H    0.000000   0.000000   0.000000   0.000000   0.000000   0.000000
    19  H    0.000000   0.000000   0.000000   0.000000   0.000000   0.000000
               7          8          9         10         11         12
     1  C    0.000000   0.000000   0.000000   0.000000   0.000000   0.000000
     2  C    0.000000   0.000000   0.000000   0.000000   0.000000   0.000000
     3  C    0.000000   0.000000   0.000000   0.000000   0.000000   0.000000
     4  C    0.000000   0.000000   0.000000   0.000000   0.000000   0.000000
     5  C    0.000000   0.000000   0.000000   0.000000   0.000000   0.000000
     6  C    0.000000   0.000000   0.000000   0.000000   0.000000   0.000000
     7  H    0.000000   0.000000   0.000000   0.000000   0.000000   0.000000
     8  O    0.000000   0.000000   0.000000   0.000000   0.000000   0.000000
     9  H    0.000000   0.000000   0.000000   0.000000   0.000000   0.000000
    10  H    0.000000   0.000000   0.000000   0.000000   0.000000   0.000000
    11  C    0.000000   0.000000   0.000000   0.000000   0.000000   0.000000
    12  H    0.000000   0.000000   0.000000   0.000000   0.000000   0.000000
    13  H    0.000000   0.000000   0.000000   0.000000   0.000000   0.000000
    14  H    0.000000   0.000000   0.000000   0.000000   0.000000   0.000000
    15  H    0.000000   0.000000   0.000000   0.000000   0.000000   0.000000
    16  C    0.000000   0.000000   0.000000   0.000000   0.000000   0.000000
    17  H    0.000000   0.000000   0.000000   0.000000   0.000000   0.000000
    18  H    0.000000   0.000000   0.000000   0.000000   0.000000   0.000000
    19  H    0.000000   0.000000   0.000000   0.000000   0.000000   0.000000
              13         14         15         16         17         18
     1  C    0.000000   0.000000   0.000000   0.000000   0.000000   0.000000
     2  C    0.000000   0.000000   0.000000   0.000000   0.000000   0.000000
     3  C    0.000000   0.000000   0.000000   0.000000   0.000000   0.000000
     4  C    0.000000   0.000000   0.000000   0.000000   0.000000   0.000000
     5  C    0.000000   0.000000   0.000000   0.000000   0.000000   0.000000
     6  C    0.000000   0.000000   0.000000   0.000000   0.000000   0.000000
     7  H    0.000000   0.000000   0.000000   0.000000   0.000000   0.000000
     8  O    0.000000   0.000000   0.000000   0.000000   0.000000   0.000000
     9  H    0.000000   0.000000   0.000000   0.000000   0.000000   0.000000
    10  H    0.000000   0.000000   0.000000   0.000000   0.000000   0.000000
    11  C    0.000000   0.000000   0.000000   0.000000   0.000000   0.000000
    12  H    0.000000   0.000000   0.000000   0.000000   0.000000   0.000000
    13  H    0.000000   0.000000   0.000000   0.000000   0.000000   0.000000
    14  H    0.000000   0.000000   0.000000   0.000000   0.000000   0.000000
    15  H    0.000000   0.000000   0.000000   0.000000   0.000000   0.000000
    16  C    0.000000   0.000000   0.000000   0.000000   0.000000   0.000000
    17  H    0.000000   0.000000   0.000000   0.000000   0.000000   0.000000
    18  H    0.000000   0.000000   0.000000   0.000000   0.000000   0.000000
    19  H    0.000000   0.000000   0.000000   0.000000   0.000000   0.000000
              19
     1  C    0.000000
     2  C    0.000000
     3  C    0.000000
     4  C    0.000000
     5  C    0.000000
     6  C    0.000000
     7  H    0.000000
     8  O    0.000000
     9  H    0.000000
    10  H    0.000000
    11  C    0.000000
    12  H    0.000000
    13  H    0.000000
    14  H    0.000000
    15  H    0.000000
    16  C    0.000000
    17  H    0.000000
    18  H    0.000000
    19  H    0.000000
 Mulliken charges and spin densities:
               1          2
     1  C   -0.104376   0.000000
     2  C   -0.077382   0.000000
     3  C    0.164165   0.000000
     4  C   -0.112580   0.000000
     5  C   -0.106143   0.000000
     6  C   -0.054319   0.000000
     7  H    0.071437   0.000000
     8  O   -0.365798   0.000000
     9  H    0.244527   0.000000
    10  H    0.073297   0.000000
    11  C   -0.258292   0.000000
    12  H    0.122240   0.000000
    13  H    0.122335   0.000000
    14  H    0.103991   0.000000
    15  H    0.089657   0.000000
    16  C   -0.261669   0.000000
    17  H    0.125602   0.000000
    18  H    0.112821   0.000000
    19  H    0.110486   0.000000
 Sum of Mulliken charges =   0.00000   0.00000
 Mulliken charges and spin densities with hydrogens summed into heavy atoms:
               1          2
     1  C   -0.104376   0.000000
     2  C    0.012275   0.000000
     3  C    0.164165   0.000000
     4  C   -0.039283   0.000000
     5  C   -0.106143   0.000000
     6  C    0.017117   0.000000
     8  O   -0.121271   0.000000
    11  C    0.090274   0.000000
    16  C    0.087240   0.000000
 Electronic spatial extent (au):  <R**2>=           1308.2544
 Charge=              0.0000 electrons
 Dipole moment (field-independent basis, Debye):
    X=             -1.2877    Y=             -0.3555    Z=              0.0325  Tot=              1.3363
 Quadrupole moment (field-independent basis, Debye-Ang):
   XX=            -47.6029   YY=            -51.6413   ZZ=            -57.4477
   XY=             -4.6746   XZ=             -0.0508   YZ=             -0.0473
 Traceless Quadrupole moment (field-independent basis, Debye-Ang):
   XX=              4.6277   YY=              0.5893   ZZ=             -5.2170
   XY=             -4.6746   XZ=             -0.0508   YZ=             -0.0473
 Octapole moment (field-independent basis, Debye-Ang**2):
  XXX=             -2.0777  YYY=             10.2407  ZZZ=              0.6762  XYY=            -16.7460
  XXY=             10.8903  XXZ=             -0.0421  XZZ=             -0.1357  YZZ=              3.9805
  YYZ=             -0.3762  XYZ=              0.3215
 Hexadecapole moment (field-independent basis, Debye-Ang**3):
 XXXX=           -885.7457 YYYY=           -737.1959 ZZZZ=            -75.5929 XXXY=             -9.8488
 XXXZ=              1.3074 YYYX=            -57.7403 YYYZ=              1.9580 ZZZX=             -1.6931
 ZZZY=             -1.1272 XXYY=           -254.8111 XXZZ=           -162.3388 YYZZ=           -147.2582
 XXYZ=             -1.1553 YYXZ=              0.0847 ZZXY=             -0.3322
 N-N= 4.218005378061D+02 E-N=-1.742566578294D+03  KE= 3.846069567375D+02
                          Isotropic Fermi Contact Couplings
        Atom                 a.u.       MegaHertz       Gauss      10(-4) cm-1
     1  C(13)              0.00000       0.00000       0.00000       0.00000
     2  C(13)              0.00000       0.00000       0.00000       0.00000
     3  C(13)              0.00000       0.00000       0.00000       0.00000
     4  C(13)              0.00000       0.00000       0.00000       0.00000
     5  C(13)              0.00000       0.00000       0.00000       0.00000
     6  C(13)              0.00000       0.00000       0.00000       0.00000
     7  H(1)               0.00000       0.00000       0.00000       0.00000
     8  O(17)              0.00000       0.00000       0.00000       0.00000
     9  H(1)               0.00000       0.00000       0.00000       0.00000
    10  H(1)               0.00000       0.00000       0.00000       0.00000
    11  C(13)              0.00000       0.00000       0.00000       0.00000
    12  H(1)               0.00000       0.00000       0.00000       0.00000
    13  H(1)               0.00000       0.00000       0.00000       0.00000
    14  H(1)               0.00000       0.00000       0.00000       0.00000
    15  H(1)               0.00000       0.00000       0.00000       0.00000
    16  C(13)              0.00000       0.00000       0.00000       0.00000
    17  H(1)               0.00000       0.00000       0.00000       0.00000
    18  H(1)               0.00000       0.00000       0.00000       0.00000
    19  H(1)               0.00000       0.00000       0.00000       0.00000
 --------------------------------------------------------
       Center         ----  Spin Dipole Couplings  ----
                      3XX-RR        3YY-RR        3ZZ-RR
 --------------------------------------------------------
     1   Atom        0.000000      0.000000      0.000000
     2   Atom        0.000000      0.000000      0.000000
     3   Atom        0.000000      0.000000      0.000000
     4   Atom        0.000000      0.000000      0.000000
     5   Atom        0.000000      0.000000      0.000000
     6   Atom        0.000000      0.000000      0.000000
     7   Atom        0.000000      0.000000      0.000000
     8   Atom        0.000000      0.000000      0.000000
     9   Atom        0.000000      0.000000      0.000000
    10   Atom        0.000000      0.000000      0.000000
    11   Atom        0.000000      0.000000      0.000000
    12   Atom        0.000000      0.000000      0.000000
    13   Atom        0.000000      0.000000      0.000000
    14   Atom        0.000000      0.000000      0.000000
    15   Atom        0.000000      0.000000      0.000000
    16   Atom        0.000000      0.000000      0.000000
    17   Atom        0.000000      0.000000      0.000000
    18   Atom        0.000000      0.000000      0.000000
    19   Atom        0.000000      0.000000      0.000000
 --------------------------------------------------------
                        XY            XZ            YZ
 --------------------------------------------------------
     1   Atom        0.000000      0.000000      0.000000
     2   Atom        0.000000      0.000000      0.000000
     3   Atom        0.000000      0.000000      0.000000
     4   Atom        0.000000      0.000000      0.000000
     5   Atom        0.000000      0.000000      0.000000
     6   Atom        0.000000      0.000000      0.000000
     7   Atom        0.000000      0.000000      0.000000
     8   Atom        0.000000      0.000000      0.000000
     9   Atom        0.000000      0.000000      0.000000
    10   Atom        0.000000      0.000000      0.000000
    11   Atom        0.000000      0.000000      0.000000
    12   Atom        0.000000      0.000000      0.000000
    13   Atom        0.000000      0.000000      0.000000
    14   Atom        0.000000      0.000000      0.000000
    15   Atom        0.000000      0.000000      0.000000
    16   Atom        0.000000      0.000000      0.000000
    17   Atom        0.000000      0.000000      0.000000
    18   Atom        0.000000      0.000000      0.000000
    19   Atom        0.000000      0.000000      0.000000
 --------------------------------------------------------


 ---------------------------------------------------------------------------------
              Anisotropic Spin Dipole Couplings in Principal Axis System
 ---------------------------------------------------------------------------------

       Atom             a.u.   MegaHertz   Gauss  10(-4) cm-1        Axes

              Baa     0.0000     0.000     0.000     0.000  1.0000  0.0000  0.0000
     1 C(13)  Bbb     0.0000     0.000     0.000     0.000  0.0000  1.0000  0.0000
              Bcc     0.0000     0.000     0.000     0.000  0.0000  0.0000  1.0000
 
              Baa     0.0000     0.000     0.000     0.000  1.0000  0.0000  0.0000
     2 C(13)  Bbb     0.0000     0.000     0.000     0.000  0.0000  1.0000  0.0000
              Bcc     0.0000     0.000     0.000     0.000  0.0000  0.0000  1.0000
 
              Baa     0.0000     0.000     0.000     0.000  1.0000  0.0000  0.0000
     3 C(13)  Bbb     0.0000     0.000     0.000     0.000  0.0000  1.0000  0.0000
              Bcc     0.0000     0.000     0.000     0.000  0.0000  0.0000  1.0000
 
              Baa     0.0000     0.000     0.000     0.000  1.0000  0.0000  0.0000
     4 C(13)  Bbb     0.0000     0.000     0.000     0.000  0.0000  1.0000  0.0000
              Bcc     0.0000     0.000     0.000     0.000  0.0000  0.0000  1.0000
 
              Baa     0.0000     0.000     0.000     0.000  1.0000  0.0000  0.0000
     5 C(13)  Bbb     0.0000     0.000     0.000     0.000  0.0000  1.0000  0.0000
              Bcc     0.0000     0.000     0.000     0.000  0.0000  0.0000  1.0000
 
              Baa     0.0000     0.000     0.000     0.000  1.0000  0.0000  0.0000
     6 C(13)  Bbb     0.0000     0.000     0.000     0.000  0.0000  1.0000  0.0000
              Bcc     0.0000     0.000     0.000     0.000  0.0000  0.0000  1.0000
 
              Baa     0.0000     0.000     0.000     0.000  1.0000  0.0000  0.0000
     7 H(1)   Bbb     0.0000     0.000     0.000     0.000  0.0000  1.0000  0.0000
              Bcc     0.0000     0.000     0.000     0.000  0.0000  0.0000  1.0000
 
              Baa     0.0000     0.000     0.000     0.000  1.0000  0.0000  0.0000
     8 O(17)  Bbb     0.0000     0.000     0.000     0.000  0.0000  1.0000  0.0000
              Bcc     0.0000     0.000     0.000     0.000  0.0000  0.0000  1.0000
 
              Baa     0.0000     0.000     0.000     0.000  1.0000  0.0000  0.0000
     9 H(1)   Bbb     0.0000     0.000     0.000     0.000  0.0000  1.0000  0.0000
              Bcc     0.0000     0.000     0.000     0.000  0.0000  0.0000  1.0000
 
              Baa     0.0000     0.000     0.000     0.000  1.0000  0.0000  0.0000
    10 H(1)   Bbb     0.0000     0.000     0.000     0.000  0.0000  1.0000  0.0000
              Bcc     0.0000     0.000     0.000     0.000  0.0000  0.0000  1.0000
 
              Baa     0.0000     0.000     0.000     0.000  1.0000  0.0000  0.0000
    11 C(13)  Bbb     0.0000     0.000     0.000     0.000  0.0000  1.0000  0.0000
              Bcc     0.0000     0.000     0.000     0.000  0.0000  0.0000  1.0000
 
              Baa     0.0000     0.000     0.000     0.000  1.0000  0.0000  0.0000
    12 H(1)   Bbb     0.0000     0.000     0.000     0.000  0.0000  1.0000  0.0000
              Bcc     0.0000     0.000     0.000     0.000  0.0000  0.0000  1.0000
 
              Baa     0.0000     0.000     0.000     0.000  1.0000  0.0000  0.0000
    13 H(1)   Bbb     0.0000     0.000     0.000     0.000  0.0000  1.0000  0.0000
              Bcc     0.0000     0.000     0.000     0.000  0.0000  0.0000  1.0000
 
              Baa     0.0000     0.000     0.000     0.000  1.0000  0.0000  0.0000
    14 H(1)   Bbb     0.0000     0.000     0.000     0.000  0.0000  1.0000  0.0000
              Bcc     0.0000     0.000     0.000     0.000  0.0000  0.0000  1.0000
 
              Baa     0.0000     0.000     0.000     0.000  1.0000  0.0000  0.0000
    15 H(1)   Bbb     0.0000     0.000     0.000     0.000  0.0000  1.0000  0.0000
              Bcc     0.0000     0.000     0.000     0.000  0.0000  0.0000  1.0000
 
              Baa     0.0000     0.000     0.000     0.000  1.0000  0.0000  0.0000
    16 C(13)  Bbb     0.0000     0.000     0.000     0.000  0.0000  1.0000  0.0000
              Bcc     0.0000     0.000     0.000     0.000  0.0000  0.0000  1.0000
 
              Baa     0.0000     0.000     0.000     0.000  1.0000  0.0000  0.0000
    17 H(1)   Bbb     0.0000     0.000     0.000     0.000  0.0000  1.0000  0.0000
              Bcc     0.0000     0.000     0.000     0.000  0.0000  0.0000  1.0000
 
              Baa     0.0000     0.000     0.000     0.000  1.0000  0.0000  0.0000
    18 H(1)   Bbb     0.0000     0.000     0.000     0.000  0.0000  1.0000  0.0000
              Bcc     0.0000     0.000     0.000     0.000  0.0000  0.0000  1.0000
 
              Baa     0.0000     0.000     0.000     0.000  1.0000  0.0000  0.0000
    19 H(1)   Bbb     0.0000     0.000     0.000     0.000  0.0000  1.0000  0.0000
              Bcc     0.0000     0.000     0.000     0.000  0.0000  0.0000  1.0000
 

 ---------------------------------------------------------------------------------

 1|1|UNPC-PC-20250526LCFF|SP|UB3LYP|6-311G(d,p)|C8H10O1|ADMINISTRATOR|0
 1-Dec-2025|0||# ub3lyp/6-311g(d,p) geom=connectivity temperature=823.1
 5||Title Card Required||0,1|C,0,1.267136,-0.578427,0.000716|C,0,1.1613
 01,0.812442,0.006294|C,0,-0.093785,1.417958,0.000926|C,0,-1.2521,0.639
 737,-0.008785|C,0,-1.163856,-0.753872,-0.01148|C,0,0.100057,-1.348851,
 -0.009125|H,0,0.177426,-2.431358,-0.016518|O,0,-0.130979,2.785674,0.00
 2044|H,0,-1.049105,3.074716,-0.000487|H,0,-2.226471,1.12247,-0.016291|
 C,0,2.628496,-1.233068,0.00162|H,0,3.211839,-0.933158,-0.874305|H,0,3.
 203848,-0.946253,0.887191|H,0,2.546526,-2.321525,-0.006715|H,0,2.04290
 9,1.443579,0.01039|C,0,-2.417093,-1.596498,0.009651|H,0,-2.818949,-1.6
 77134,1.025609|H,0,-3.201117,-1.163698,-0.617239|H,0,-2.220016,-2.6095
 65,-0.346888||Version=EM64W-G16RevA.03|State=1-A|HF=-386.2071087|S2=0.
 |S2-1=0.|S2A=0.|RMSD=4.592e-009|Dipole=-0.5066193,-0.1398554,0.0127787
 |Quadrupole=3.4406089,0.4381305,-3.8787394,-3.4754566,-0.0377978,-0.03
 51544|PG=C01 [X(C8H10O1)]||@


 THE POLHOLDE ROLLS WITHOUT SLIPPING ON THE HERPOLHOLDE LYING IN
 THE INVARIABLE PLANE.
 H.GOLDSTEIN, "CLASSICAL MECHANICS", PG 161
 Job cpu time:       0 days  0 hours  0 minutes 28.0 seconds.
 Elapsed time:       0 days  0 hours  0 minutes 28.2 seconds.
 File lengths (MBytes):  RWF=     52 Int=      0 D2E=      0 Chk=      5 Scr=      1
 Normal termination of Gaussian 16 at Mon Dec 01 21:52:18 2025.
