 Entering Link 1 = D:\Gaussian\G16W\l1.exe PID=     27868.
  
 Copyright (c) 1988,1990,1992,1993,1995,1998,2003,2009,2016,
            Gaussian, Inc.  All Rights Reserved.
  
 This is part of the Gaussian(R) 16 program.  It is based on
 the Gaussian(R) 09 system (copyright 2009, Gaussian, Inc.),
 the Gaussian(R) 03 system (copyright 2003, Gaussian, Inc.),
 the Gaussian(R) 98 system (copyright 1998, Gaussian, Inc.),
 the Gaussian(R) 94 system (copyright 1995, Gaussian, Inc.),
 the Gaussian 92(TM) system (copyright 1992, Gaussian, Inc.),
 the Gaussian 90(TM) system (copyright 1990, Gaussian, Inc.),
 the Gaussian 88(TM) system (copyright 1988, Gaussian, Inc.),
 the Gaussian 86(TM) system (copyright 1986, Carnegie Mellon
 University), and the Gaussian 82(TM) system (copyright 1983,
 Carnegie Mellon University). Gaussian is a federally registered
 trademark of Gaussian, Inc.
  
 This software contains proprietary and confidential information,
 including trade secrets, belonging to Gaussian, Inc.
  
 This software is provided under written license and may be
 used, copied, transmitted, or stored only in accord with that
 written license.
  
 The following legend is applicable only to US Government
 contracts under FAR:
  
                    RESTRICTED RIGHTS LEGEND
  
 Use, reproduction and disclosure by the US Government is
 subject to restrictions as set forth in subparagraphs (a)
 and (c) of the Commercial Computer Software - Restricted
 Rights clause in FAR 52.227-19.
  
 Gaussian, Inc.
 340 Quinnipiac St., Bldg. 40, Wallingford CT 06492
  
  
 ---------------------------------------------------------------
 Warning -- This program may not be used in any manner that
 competes with the business of Gaussian, Inc. or will provide
 assistance to any competitor of Gaussian, Inc.  The licensee
 of this program is prohibited from giving any competitor of
 Gaussian, Inc. access to this program.  By using this program,
 the user acknowledges that Gaussian, Inc. is engaged in the
 business of creating and licensing software in the field of
 computational chemistry and represents and warrants to the
 licensee that it is not a competitor of Gaussian, Inc. and that
 it will not use this program in any manner prohibited above.
 ---------------------------------------------------------------
  

 Cite this work as:
 Gaussian 16, Revision A.03,
 M. J. Frisch, G. W. Trucks, H. B. Schlegel, G. E. Scuseria, 
 M. A. Robb, J. R. Cheeseman, G. Scalmani, V. Barone, 
 G. A. Petersson, H. Nakatsuji, X. Li, M. Caricato, A. V. Marenich, 
 J. Bloino, B. G. Janesko, R. Gomperts, B. Mennucci, H. P. Hratchian, 
 J. V. Ortiz, A. F. Izmaylov, J. L. Sonnenberg, D. Williams-Young, 
 F. Ding, F. Lipparini, F. Egidi, J. Goings, B. Peng, A. Petrone, 
 T. Henderson, D. Ranasinghe, V. G. Zakrzewski, J. Gao, N. Rega, 
 G. Zheng, W. Liang, M. Hada, M. Ehara, K. Toyota, R. Fukuda, 
 J. Hasegawa, M. Ishida, T. Nakajima, Y. Honda, O. Kitao, H. Nakai, 
 T. Vreven, K. Throssell, J. A. Montgomery, Jr., J. E. Peralta, 
 F. Ogliaro, M. J. Bearpark, J. J. Heyd, E. N. Brothers, K. N. Kudin, 
 V. N. Staroverov, T. A. Keith, R. Kobayashi, J. Normand, 
 K. Raghavachari, A. P. Rendell, J. C. Burant, S. S. Iyengar, 
 J. Tomasi, M. Cossi, J. M. Millam, M. Klene, C. Adamo, R. Cammi, 
 J. W. Ochterski, R. L. Martin, K. Morokuma, O. Farkas, 
 J. B. Foresman, and D. J. Fox, Gaussian, Inc., Wallingford CT, 2016.
 
 ******************************************
 Gaussian 16:  EM64W-G16RevA.03 17-Dec-2016
                02-Dec-2025 
 ******************************************
 %nprocshared=14
 Will use up to   14 processors via shared memory.
 %mem=58371MB
 %chk=3.chk
 ---------------------------------------------------------
 # ub3lyp/6-311g(d,p) geom=connectivity temperature=823.15
 ---------------------------------------------------------
 1/38=1,57=2,112=823150,172=1/1;
 2/12=2,17=6,18=5,40=1/2;
 3/5=4,6=6,7=101,11=2,25=1,30=1,74=-5,116=2/1,2,3;
 4//1;
 5/5=2,38=5/2;
 6/7=2,8=2,9=2,10=2,28=1/1;
 99/5=1,9=1/99;
 -------------------
 Title Card Required
 -------------------
 Symbolic Z-matrix:
 Charge =  0 Multiplicity = 2
 C                    -1.94843   0.87453   0.00001 
 C                    -0.87486   1.74716   0.00001 
 C                     0.43042   1.25886  -0.00001 
 C                     0.64948  -0.14049  -0.00003 
 C                    -0.4112   -1.01828  -0.00004 
 C                    -1.75958  -0.53724  -0.00001 
 H                    -2.95889   1.26674   0.00002 
 H                    -1.02071   2.82082   0.00003 
 H                    -0.24328  -2.08746  -0.00006 
 O                     1.48476   2.11469  -0.00001 
 H                     2.28813   1.57641  -0.00001 
 O                     1.98158  -0.47582  -0.00006 
 C                     2.33243  -1.85347   0.00011 
 H                     3.42058  -1.88746   0.00019 
 H                     1.95151  -2.35782   0.89433 
 H                     1.95164  -2.35802  -0.89405 
 C                    -2.84488  -1.42086  -0.00002 
 H                    -3.86245  -1.05186  0. 
 H                    -2.69763  -2.4935   -0.00003 
 
                          Input orientation:                          
 ---------------------------------------------------------------------
 Center     Atomic      Atomic             Coordinates (Angstroms)
 Number     Number       Type             X           Y           Z
 ---------------------------------------------------------------------
      1          6           0       -1.948433    0.874527    0.000009
      2          6           0       -0.874855    1.747164    0.000010
      3          6           0        0.430422    1.258858   -0.000009
      4          6           0        0.649483   -0.140489   -0.000032
      5          6           0       -0.411197   -1.018283   -0.000036
      6          6           0       -1.759575   -0.537236   -0.000014
      7          1           0       -2.958886    1.266738    0.000024
      8          1           0       -1.020712    2.820817    0.000029
      9          1           0       -0.243277   -2.087456   -0.000060
     10          8           0        1.484759    2.114687   -0.000005
     11          1           0        2.288128    1.576405   -0.000008
     12          8           0        1.981581   -0.475822   -0.000064
     13          6           0        2.332431   -1.853471    0.000111
     14          1           0        3.420579   -1.887461    0.000186
     15          1           0        1.951514   -2.357820    0.894331
     16          1           0        1.951639   -2.358017   -0.894052
     17          6           0       -2.844879   -1.420862   -0.000015
     18          1           0       -3.862449   -1.051863   -0.000002
     19          1           0       -2.697634   -2.493503   -0.000033
 ---------------------------------------------------------------------
                    Distance matrix (angstroms):
                    1          2          3          4          5
     1  C    0.000000
     2  C    1.383497   0.000000
     3  C    2.409702   1.393625   0.000000
     4  C    2.789162   2.426281   1.416390   0.000000
     5  C    2.438406   2.804046   2.427693   1.376795   0.000000
     6  C    1.424339   2.449737   2.832321   2.441509   1.431618
     7  H    1.083903   2.138690   3.389317   3.873063   3.422286
     8  H    2.156087   1.083515   2.132019   3.399836   3.887184
     9  H    3.417733   3.886284   3.413457   2.141892   1.082279
    10  O    3.650316   2.388064   1.357965   2.404892   3.661987
    11  H    4.294308   3.167589   1.884651   2.373369   3.744164
    12  O    4.155533   3.619516   2.327060   1.373657   2.453498
    13  C    5.076196   4.821956   3.647496   2.401379   2.867932
    14  H    6.037787   5.626833   4.340549   3.275803   3.929119
    15  H    5.143682   5.063503   4.024168   2.722449   2.859485
    16  H    5.143855   5.063687   4.024326   2.722556   2.859571
    17  C    2.464229   3.730601   4.231843   3.721548   2.466755
    18  H    2.715591   4.093931   4.875261   4.603057   3.451415
    19  H    3.450352   4.615818   4.885176   4.091438   2.721042
                    6          7          8          9         10
     6  C    0.000000
     7  H    2.166257   0.000000
     8  H    3.438377   2.484287   0.000000
     9  H    2.168488   4.315686   4.969462   0.000000
    10  O    4.190274   4.523826   2.603076   4.543579   0.000000
    11  H    4.566331   5.256144   3.535107   4.453301   0.967031
    12  O    3.741660   5.238772   4.458878   2.747245   2.637720
    13  C    4.298487   6.142779   5.752611   2.586314   4.057687
    14  H    5.353233   7.116639   6.472476   3.669310   4.445738
    15  H    4.229251   6.168406   6.037564   2.385401   4.584868
    16  H    4.229380   6.168588   6.037762   2.385389   4.585017
    17  C    1.399528   2.690017   4.617296   2.685643   5.589801
    18  H    2.164930   2.488441   4.803449   3.764420   6.214473
    19  H    2.169547   3.769306   5.572617   2.487718   6.223169
                   11         12         13         14         15
    11  H    0.000000
    12  O    2.074996   0.000000
    13  C    3.430162   1.421623   0.000000
    14  H    3.644285   2.015798   1.088679   0.000000
    15  H    4.048614   2.083930   1.095032   1.782943   0.000000
    16  H    4.048730   2.083931   1.095033   1.782938   1.788383
    17  C    5.944020   4.918111   5.195353   6.282808   4.968212
    18  H    6.688602   5.872351   6.246528   7.330806   6.025572
    19  H    6.435991   5.095693   5.070621   6.148156   4.736335
                   16         17         18         19
    16  H    0.000000
    17  C    4.968314   0.000000
    18  H    6.025694   1.082409   0.000000
    19  H    4.736387   1.082700   1.853408   0.000000
 Stoichiometry    C8H9O2(2)
 Framework group  C1[X(C8H9O2)]
 Deg. of freedom    51
 Full point group                 C1      NOp   1
 Largest Abelian subgroup         C1      NOp   1
 Largest concise Abelian subgroup C1      NOp   1
                         Standard orientation:                         
 ---------------------------------------------------------------------
 Center     Atomic      Atomic             Coordinates (Angstroms)
 Number     Number       Type             X           Y           Z
 ---------------------------------------------------------------------
      1          6           0       -1.948433    0.874527    0.000009
      2          6           0       -0.874855    1.747164    0.000010
      3          6           0        0.430422    1.258858   -0.000009
      4          6           0        0.649483   -0.140489   -0.000032
      5          6           0       -0.411197   -1.018283   -0.000036
      6          6           0       -1.759575   -0.537236   -0.000014
      7          1           0       -2.958886    1.266739    0.000024
      8          1           0       -1.020711    2.820817    0.000029
      9          1           0       -0.243278   -2.087456   -0.000060
     10          8           0        1.484760    2.114686   -0.000005
     11          1           0        2.288128    1.576404   -0.000008
     12          8           0        1.981581   -0.475823   -0.000064
     13          6           0        2.332430   -1.853472    0.000111
     14          1           0        3.420578   -1.887462    0.000186
     15          1           0        1.951513   -2.357821    0.894331
     16          1           0        1.951638   -2.358018   -0.894052
     17          6           0       -2.844879   -1.420861   -0.000015
     18          1           0       -3.862449   -1.051862   -0.000002
     19          1           0       -2.697635   -2.493502   -0.000033
 ---------------------------------------------------------------------
 Rotational constants (GHZ):           1.9344685           1.2013948           0.7446429
 Standard basis: 6-311G(d,p) (5D, 7F)
 There are   244 symmetry adapted cartesian basis functions of A   symmetry.
 There are   234 symmetry adapted basis functions of A   symmetry.
   234 basis functions,   392 primitive gaussians,   244 cartesian basis functions
    37 alpha electrons       36 beta electrons
       nuclear repulsion energy       506.5101761177 Hartrees.
 NAtoms=   19 NActive=   19 NUniq=   19 SFac= 1.00D+00 NAtFMM=   60 NAOKFM=F Big=F
 Integral buffers will be    131072 words long.
 Raffenetti 2 integral format.
 Two-electron integral symmetry is turned on.
 One-electron integrals computed using PRISM.
 NBasis=   234 RedAO= T EigKep=  1.98D-04  NBF=   234
 NBsUse=   234 1.00D-06 EigRej= -1.00D+00 NBFU=   234
 ExpMin= 1.03D-01 ExpMax= 8.59D+03 ExpMxC= 1.30D+03 IAcc=3 IRadAn=         5 AccDes= 0.00D+00
 Harris functional with IExCor=  402 and IRadAn=       5 diagonalized for initial guess.
 HarFok:  IExCor=  402 AccDes= 0.00D+00 IRadAn=         5 IDoV= 1 UseB2=F ITyADJ=14
 ICtDFT=  3500011 ScaDFX=  1.000000  1.000000  1.000000  1.000000
 FoFCou: FMM=F IPFlag=           0 FMFlag=      100000 FMFlg1=           0
         NFxFlg=           0 DoJE=T BraDBF=F KetDBF=T FulRan=T
         wScrn=  0.000000 ICntrl=       500 IOpCl=  0 I1Cent=   200000004 NGrid=           0
         NMat0=    1 NMatS0=      1 NMatT0=    0 NMatD0=    1 NMtDS0=    0 NMtDT0=    0
 Petite list used in FoFCou.
 Initial guess <Sx>= 0.0000 <Sy>= 0.0000 <Sz>= 0.5000 <S**2>= 0.7500 S= 0.5000
 Requested convergence on RMS density matrix=1.00D-08 within 128 cycles.
 Requested convergence on MAX density matrix=1.00D-06.
 Requested convergence on             energy=1.00D-06.
 No special actions if energy rises.
 Integral accuracy reduced to 1.0D-05 until final iterations.
 Initial convergence to 1.0D-05 achieved.  Increase integral accuracy.
 SCF Done:  E(UB3LYP) =  -460.783900220     A.U. after   19 cycles
            NFock= 19  Conv=0.41D-08     -V/T= 2.0038
 <Sx>= 0.0000 <Sy>= 0.0000 <Sz>= 0.5000 <S**2>= 0.7809 S= 0.5153
 <L.S>= 0.000000000000E+00
 Annihilation of the first spin contaminant:
 S**2 before annihilation     0.7809,   after     0.7506

 **********************************************************************

            Population analysis using the SCF density.

 **********************************************************************

 Orbital symmetries:
 Alpha Orbitals:
       Occupied  (A) (A) (A) (A) (A) (A) (A) (A) (A) (A) (A) (A)
                 (A) (A) (A) (A) (A) (A) (A) (A) (A) (A) (A) (A)
                 (A) (A) (A) (A) (A) (A) (A) (A) (A) (A) (A) (A)
                 (A)
       Virtual   (A) (A) (A) (A) (A) (A) (A) (A) (A) (A) (A) (A)
                 (A) (A) (A) (A) (A) (A) (A) (A) (A) (A) (A) (A)
                 (A) (A) (A) (A) (A) (A) (A) (A) (A) (A) (A) (A)
                 (A) (A) (A) (A) (A) (A) (A) (A) (A) (A) (A) (A)
                 (A) (A) (A) (A) (A) (A) (A) (A) (A) (A) (A) (A)
                 (A) (A) (A) (A) (A) (A) (A) (A) (A) (A) (A) (A)
                 (A) (A) (A) (A) (A) (A) (A) (A) (A) (A) (A) (A)
                 (A) (A) (A) (A) (A) (A) (A) (A) (A) (A) (A) (A)
                 (A) (A) (A) (A) (A) (A) (A) (A) (A) (A) (A) (A)
                 (A) (A) (A) (A) (A) (A) (A) (A) (A) (A) (A) (A)
                 (A) (A) (A) (A) (A) (A) (A) (A) (A) (A) (A) (A)
                 (A) (A) (A) (A) (A) (A) (A) (A) (A) (A) (A) (A)
                 (A) (A) (A) (A) (A) (A) (A) (A) (A) (A) (A) (A)
                 (A) (A) (A) (A) (A) (A) (A) (A) (A) (A) (A) (A)
                 (A) (A) (A) (A) (A) (A) (A) (A) (A) (A) (A) (A)
                 (A) (A) (A) (A) (A) (A) (A) (A) (A) (A) (A) (A)
                 (A) (A) (A) (A) (A)
 Beta  Orbitals:
       Occupied  (A) (A) (A) (A) (A) (A) (A) (A) (A) (A) (A) (A)
                 (A) (A) (A) (A) (A) (A) (A) (A) (A) (A) (A) (A)
                 (A) (A) (A) (A) (A) (A) (A) (A) (A) (A) (A) (A)
       Virtual   (A) (A) (A) (A) (A) (A) (A) (A) (A) (A) (A) (A)
                 (A) (A) (A) (A) (A) (A) (A) (A) (A) (A) (A) (A)
                 (A) (A) (A) (A) (A) (A) (A) (A) (A) (A) (A) (A)
                 (A) (A) (A) (A) (A) (A) (A) (A) (A) (A) (A) (A)
                 (A) (A) (A) (A) (A) (A) (A) (A) (A) (A) (A) (A)
                 (A) (A) (A) (A) (A) (A) (A) (A) (A) (A) (A) (A)
                 (A) (A) (A) (A) (A) (A) (A) (A) (A) (A) (A) (A)
                 (A) (A) (A) (A) (A) (A) (A) (A) (A) (A) (A) (A)
                 (A) (A) (A) (A) (A) (A) (A) (A) (A) (A) (A) (A)
                 (A) (A) (A) (A) (A) (A) (A) (A) (A) (A) (A) (A)
                 (A) (A) (A) (A) (A) (A) (A) (A) (A) (A) (A) (A)
                 (A) (A) (A) (A) (A) (A) (A) (A) (A) (A) (A) (A)
                 (A) (A) (A) (A) (A) (A) (A) (A) (A) (A) (A) (A)
                 (A) (A) (A) (A) (A) (A) (A) (A) (A) (A) (A) (A)
                 (A) (A) (A) (A) (A) (A) (A) (A) (A) (A) (A) (A)
                 (A) (A) (A) (A) (A) (A) (A) (A) (A) (A) (A) (A)
                 (A) (A) (A) (A) (A) (A)
 The electronic state is 2-A.
 Alpha  occ. eigenvalues --  -19.16573 -19.14837 -10.23739 -10.23632 -10.23517
 Alpha  occ. eigenvalues --  -10.18044 -10.17559 -10.17217 -10.17003 -10.16497
 Alpha  occ. eigenvalues --   -1.08898  -1.05852  -0.85847  -0.77675  -0.76143
 Alpha  occ. eigenvalues --   -0.71706  -0.67397  -0.61505  -0.58810  -0.56016
 Alpha  occ. eigenvalues --   -0.52552  -0.49705  -0.48494  -0.45886  -0.45249
 Alpha  occ. eigenvalues --   -0.43627  -0.42272  -0.41352  -0.39180  -0.38026
 Alpha  occ. eigenvalues --   -0.36037  -0.35440  -0.34595  -0.34162  -0.26668
 Alpha  occ. eigenvalues --   -0.24302  -0.16717
 Alpha virt. eigenvalues --   -0.00251   0.02670   0.03900   0.04467   0.06717
 Alpha virt. eigenvalues --    0.07695   0.09683   0.09952   0.10607   0.12060
 Alpha virt. eigenvalues --    0.13211   0.14981   0.16137   0.19433   0.22476
 Alpha virt. eigenvalues --    0.25808   0.27598   0.28655   0.29714   0.31366
 Alpha virt. eigenvalues --    0.34018   0.35296   0.36231   0.38107   0.38352
 Alpha virt. eigenvalues --    0.39693   0.40370   0.41496   0.41639   0.42042
 Alpha virt. eigenvalues --    0.43598   0.45360   0.46064   0.47743   0.49931
 Alpha virt. eigenvalues --    0.50020   0.51863   0.52233   0.52476   0.55694
 Alpha virt. eigenvalues --    0.57385   0.57794   0.59903   0.60223   0.61761
 Alpha virt. eigenvalues --    0.63582   0.64220   0.65077   0.67629   0.69555
 Alpha virt. eigenvalues --    0.73045   0.74119   0.77935   0.79027   0.79312
 Alpha virt. eigenvalues --    0.80307   0.81430   0.86024   0.87509   0.89566
 Alpha virt. eigenvalues --    0.90675   0.93481   0.96007   0.97311   0.98364
 Alpha virt. eigenvalues --    0.99089   0.99630   1.03336   1.04673   1.07935
 Alpha virt. eigenvalues --    1.08546   1.09362   1.14686   1.17594   1.20781
 Alpha virt. eigenvalues --    1.21999   1.24246   1.31920   1.35857   1.37903
 Alpha virt. eigenvalues --    1.40014   1.41873   1.42677   1.43650   1.44938
 Alpha virt. eigenvalues --    1.48670   1.49612   1.49868   1.52388   1.54455
 Alpha virt. eigenvalues --    1.55393   1.57136   1.57561   1.59324   1.60323
 Alpha virt. eigenvalues --    1.63438   1.65597   1.66146   1.67005   1.68894
 Alpha virt. eigenvalues --    1.71421   1.74321   1.77946   1.80208   1.80849
 Alpha virt. eigenvalues --    1.81886   1.82580   1.88372   1.89675   1.90877
 Alpha virt. eigenvalues --    1.92202   1.94485   1.99352   2.00457   2.03236
 Alpha virt. eigenvalues --    2.05190   2.07280   2.08322   2.10068   2.11615
 Alpha virt. eigenvalues --    2.12969   2.20955   2.23729   2.24383   2.29678
 Alpha virt. eigenvalues --    2.30905   2.34233   2.37184   2.38447   2.39243
 Alpha virt. eigenvalues --    2.43138   2.46589   2.47913   2.51602   2.51649
 Alpha virt. eigenvalues --    2.53444   2.56311   2.59504   2.60986   2.62756
 Alpha virt. eigenvalues --    2.63290   2.66652   2.67183   2.69717   2.69826
 Alpha virt. eigenvalues --    2.71610   2.74240   2.82086   2.82452   2.86631
 Alpha virt. eigenvalues --    2.88918   2.95195   3.00751   3.01915   3.03836
 Alpha virt. eigenvalues --    3.04365   3.07897   3.08939   3.14029   3.15902
 Alpha virt. eigenvalues --    3.23330   3.28937   3.31317   3.34506   3.40943
 Alpha virt. eigenvalues --    3.42509   3.51737   3.54458   3.59963   3.61227
 Alpha virt. eigenvalues --    3.74295   3.77870   3.78597   3.84698   4.00574
 Alpha virt. eigenvalues --    4.04399   4.08951   4.13430   4.18023   4.36210
 Alpha virt. eigenvalues --    4.78890   4.82288   4.90288   5.31466   5.34206
 Alpha virt. eigenvalues --    5.67431   5.77132  23.47143  23.83904  23.85000
 Alpha virt. eigenvalues --   23.85595  23.97333  24.05219  24.10441  24.16612
 Alpha virt. eigenvalues --   49.88174  49.93224
  Beta  occ. eigenvalues --  -19.16604 -19.14640 -10.23765 -10.23738 -10.23130
  Beta  occ. eigenvalues --  -10.18284 -10.17283 -10.17169 -10.16841 -10.15523
  Beta  occ. eigenvalues --   -1.08834  -1.05558  -0.85476  -0.77135  -0.75877
  Beta  occ. eigenvalues --   -0.71304  -0.65913  -0.61303  -0.58312  -0.55814
  Beta  occ. eigenvalues --   -0.52409  -0.49498  -0.48509  -0.45721  -0.44967
  Beta  occ. eigenvalues --   -0.43469  -0.41244  -0.40988  -0.38950  -0.37695
  Beta  occ. eigenvalues --   -0.35338  -0.35208  -0.34433  -0.33400  -0.25014
  Beta  occ. eigenvalues --   -0.22632
  Beta virt. eigenvalues --   -0.07490   0.00579   0.03934   0.04553   0.04651
  Beta virt. eigenvalues --    0.06851   0.07895   0.09774   0.10005   0.10671
  Beta virt. eigenvalues --    0.12153   0.13344   0.15151   0.17034   0.19629
  Beta virt. eigenvalues --    0.22515   0.25973   0.27872   0.28771   0.29709
  Beta virt. eigenvalues --    0.31631   0.34261   0.35583   0.37159   0.38555
  Beta virt. eigenvalues --    0.39095   0.40292   0.40553   0.41615   0.42086
  Beta virt. eigenvalues --    0.43935   0.44470   0.45821   0.46170   0.47829
  Beta virt. eigenvalues --    0.50144   0.51625   0.52356   0.52490   0.52725
  Beta virt. eigenvalues --    0.55914   0.57540   0.57759   0.60083   0.60446
  Beta virt. eigenvalues --    0.61886   0.63700   0.64594   0.65399   0.68025
  Beta virt. eigenvalues --    0.69938   0.73356   0.74447   0.78156   0.79246
  Beta virt. eigenvalues --    0.79939   0.80680   0.81598   0.86470   0.87722
  Beta virt. eigenvalues --    0.89832   0.90898   0.93725   0.96080   0.97922
  Beta virt. eigenvalues --    0.98556   0.99773   0.99778   1.03525   1.05988
  Beta virt. eigenvalues --    1.08744   1.08747   1.10159   1.15362   1.18133
  Beta virt. eigenvalues --    1.20872   1.22207   1.24542   1.32001   1.36482
  Beta virt. eigenvalues --    1.38256   1.40146   1.41898   1.43100   1.43792
  Beta virt. eigenvalues --    1.44960   1.48845   1.49845   1.50877   1.52724
  Beta virt. eigenvalues --    1.54681   1.55731   1.57339   1.57718   1.59758
  Beta virt. eigenvalues --    1.60560   1.63796   1.65817   1.66069   1.67328
  Beta virt. eigenvalues --    1.69136   1.71552   1.74371   1.79294   1.81034
  Beta virt. eigenvalues --    1.81266   1.82783   1.82809   1.88619   1.90478
  Beta virt. eigenvalues --    1.91061   1.92914   1.94580   1.99428   2.01672
  Beta virt. eigenvalues --    2.03305   2.05535   2.07910   2.08414   2.10070
  Beta virt. eigenvalues --    2.11672   2.13225   2.21613   2.23839   2.25537
  Beta virt. eigenvalues --    2.29904   2.31024   2.34809   2.37262   2.38501
  Beta virt. eigenvalues --    2.39262   2.43182   2.46827   2.47963   2.51768
  Beta virt. eigenvalues --    2.52204   2.53581   2.56507   2.59631   2.61140
  Beta virt. eigenvalues --    2.63360   2.64771   2.66744   2.67253   2.70118
  Beta virt. eigenvalues --    2.70152   2.71748   2.76908   2.82147   2.83436
  Beta virt. eigenvalues --    2.86656   2.89861   2.95293   3.00771   3.01848
  Beta virt. eigenvalues --    3.04066   3.04908   3.08223   3.09472   3.14135
  Beta virt. eigenvalues --    3.16486   3.23404   3.29031   3.31475   3.34648
  Beta virt. eigenvalues --    3.41105   3.42652   3.51918   3.54718   3.60253
  Beta virt. eigenvalues --    3.61589   3.74288   3.78343   3.79553   3.84913
  Beta virt. eigenvalues --    4.00735   4.04638   4.09053   4.13599   4.18154
  Beta virt. eigenvalues --    4.37054   4.79529   4.82600   4.90356   5.31465
  Beta virt. eigenvalues --    5.34384   5.67593   5.77169  23.47279  23.84229
  Beta virt. eigenvalues --   23.85020  23.85740  23.97780  24.05635  24.10570
  Beta virt. eigenvalues --   24.16712  49.88230  49.93330
          Condensed to atoms (all electrons):
               1          2          3          4          5          6
     1  C    4.881887   0.543163  -0.053582  -0.044565  -0.064906   0.487796
     2  C    0.543163   4.847320   0.510538  -0.043518  -0.045384  -0.042980
     3  C   -0.053582   0.510538   4.914870   0.274570   0.005326  -0.045921
     4  C   -0.044565  -0.043518   0.274570   5.175614   0.340576   0.012690
     5  C   -0.064906  -0.045384   0.005326   0.340576   5.178909   0.404799
     6  C    0.487796  -0.042980  -0.045921   0.012690   0.404799   4.892593
     7  H    0.415450  -0.043344   0.010509  -0.001912   0.010444  -0.046801
     8  H   -0.040110   0.404794  -0.049981   0.015641  -0.002470   0.009046
     9  H    0.007064   0.000022   0.002921  -0.043924   0.406000  -0.024604
    10  O    0.004370  -0.057663   0.392741  -0.090776   0.007531  -0.000747
    11  H   -0.000309   0.005479  -0.047172  -0.021701   0.003654  -0.000502
    12  O    0.000209   0.002309  -0.066455   0.346924  -0.074689   0.005521
    13  C    0.000049  -0.000264   0.006975  -0.071761  -0.012085  -0.000446
    14  H   -0.000001   0.000025  -0.000232   0.004528   0.000927   0.000036
    15  H   -0.000019  -0.000053  -0.000330  -0.004787   0.004398  -0.000504
    16  H   -0.000019  -0.000053  -0.000331  -0.004790   0.004398  -0.000504
    17  C   -0.068370   0.006247   0.000170   0.005242  -0.070829   0.505161
    18  H   -0.010197   0.000518  -0.000032  -0.000399   0.007404  -0.031685
    19  H    0.007322  -0.000443  -0.000008   0.000720  -0.010892  -0.033524
               7          8          9         10         11         12
     1  C    0.415450  -0.040110   0.007064   0.004370  -0.000309   0.000209
     2  C   -0.043344   0.404794   0.000022  -0.057663   0.005479   0.002309
     3  C    0.010509  -0.049981   0.002921   0.392741  -0.047172  -0.066455
     4  C   -0.001912   0.015641  -0.043924  -0.090776  -0.021701   0.346924
     5  C    0.010444  -0.002470   0.406000   0.007531   0.003654  -0.074689
     6  C   -0.046801   0.009046  -0.024604  -0.000747  -0.000502   0.005521
     7  H    0.585741  -0.010240  -0.000367  -0.000115   0.000037   0.000010
     8  H   -0.010240   0.568188   0.000056   0.004017  -0.000823  -0.000139
     9  H   -0.000367   0.000056   0.558825  -0.000048   0.000027  -0.006323
    10  O   -0.000115   0.004017  -0.000048   7.765419   0.332716  -0.006273
    11  H    0.000037  -0.000823   0.000027   0.332716   0.446717   0.027229
    12  O    0.000010  -0.000139  -0.006323  -0.006273   0.027229   7.993841
    13  C   -0.000001   0.000024   0.005163  -0.000219  -0.001968   0.274473
    14  H    0.000000  -0.000001  -0.000030   0.000028  -0.000490  -0.022539
    15  H    0.000000   0.000001   0.000308  -0.000047   0.000327  -0.033396
    16  H    0.000000   0.000001   0.000309  -0.000047   0.000327  -0.033395
    17  C   -0.008806  -0.000247  -0.007210  -0.000002   0.000004  -0.000088
    18  H    0.003582  -0.000015  -0.000104   0.000000   0.000000   0.000002
    19  H   -0.000048   0.000019   0.004201   0.000000   0.000000   0.000004
              13         14         15         16         17         18
     1  C    0.000049  -0.000001  -0.000019  -0.000019  -0.068370  -0.010197
     2  C   -0.000264   0.000025  -0.000053  -0.000053   0.006247   0.000518
     3  C    0.006975  -0.000232  -0.000330  -0.000331   0.000170  -0.000032
     4  C   -0.071761   0.004528  -0.004787  -0.004790   0.005242  -0.000399
     5  C   -0.012085   0.000927   0.004398   0.004398  -0.070829   0.007404
     6  C   -0.000446   0.000036  -0.000504  -0.000504   0.505161  -0.031685
     7  H   -0.000001   0.000000   0.000000   0.000000  -0.008806   0.003582
     8  H    0.000024  -0.000001   0.000001   0.000001  -0.000247  -0.000015
     9  H    0.005163  -0.000030   0.000308   0.000309  -0.007210  -0.000104
    10  O   -0.000219   0.000028  -0.000047  -0.000047  -0.000002   0.000000
    11  H   -0.001968  -0.000490   0.000327   0.000327   0.000004   0.000000
    12  O    0.274473  -0.022539  -0.033396  -0.033395  -0.000088   0.000002
    13  C    4.717712   0.401882   0.401293   0.401295  -0.000033   0.000001
    14  H    0.401882   0.540010  -0.026659  -0.026663   0.000000   0.000000
    15  H    0.401293  -0.026659   0.590858  -0.049171  -0.000010   0.000000
    16  H    0.401295  -0.026663  -0.049171   0.590863  -0.000010   0.000000
    17  C   -0.000033   0.000000  -0.000010  -0.000010   5.012174   0.404987
    18  H    0.000001   0.000000   0.000000   0.000000   0.404987   0.566510
    19  H   -0.000021   0.000001  -0.000015  -0.000015   0.405154  -0.040042
              19
     1  C    0.007322
     2  C   -0.000443
     3  C   -0.000008
     4  C    0.000720
     5  C   -0.010892
     6  C   -0.033524
     7  H   -0.000048
     8  H    0.000019
     9  H    0.004201
    10  O    0.000000
    11  H    0.000000
    12  O    0.000004
    13  C   -0.000021
    14  H    0.000001
    15  H   -0.000015
    16  H   -0.000015
    17  C    0.405154
    18  H   -0.040042
    19  H    0.572983
          Atomic-Atomic Spin Densities.
               1          2          3          4          5          6
     1  C    0.293101  -0.008384  -0.016380  -0.000513   0.009069   0.012000
     2  C   -0.008384  -0.138504   0.017548  -0.000644  -0.000073   0.000926
     3  C   -0.016380   0.017548   0.298986   0.014815  -0.012398  -0.001579
     4  C   -0.000513  -0.000644   0.014815  -0.112142  -0.013079   0.002820
     5  C    0.009069  -0.000073  -0.012398  -0.013079   0.216474   0.015718
     6  C    0.012000   0.000926  -0.001579   0.002820   0.015718  -0.165468
     7  H    0.002053   0.000760  -0.000248  -0.000026  -0.000251   0.000774
     8  H   -0.000593   0.000302  -0.000206   0.000040  -0.000036   0.000069
     9  H   -0.000110  -0.000019  -0.000113   0.000001   0.001849   0.000560
    10  O    0.000376   0.000138  -0.048369   0.000608   0.000290   0.000008
    11  H   -0.000009  -0.000114  -0.000522   0.000322   0.000043  -0.000003
    12  O    0.000009   0.000001  -0.002677   0.012185   0.000416  -0.000024
    13  C    0.000001  -0.000007   0.000132   0.001505  -0.000451   0.000004
    14  H    0.000000   0.000000  -0.000005  -0.000023  -0.000001   0.000001
    15  H    0.000002   0.000001  -0.000013  -0.000761   0.000005   0.000028
    16  H    0.000002   0.000001  -0.000013  -0.000760   0.000005   0.000028
    17  C   -0.024324  -0.000031   0.000785  -0.000110  -0.020956  -0.044675
    18  H    0.001156  -0.000120   0.000005   0.000070  -0.000691  -0.005154
    19  H   -0.000675   0.000070  -0.000012  -0.000160   0.001085  -0.004689
               7          8          9         10         11         12
     1  C    0.002053  -0.000593  -0.000110   0.000376  -0.000009   0.000009
     2  C    0.000760   0.000302  -0.000019   0.000138  -0.000114   0.000001
     3  C   -0.000248  -0.000206  -0.000113  -0.048369  -0.000522  -0.002677
     4  C   -0.000026   0.000040   0.000001   0.000608   0.000322   0.012185
     5  C   -0.000251  -0.000036   0.001849   0.000290   0.000043   0.000416
     6  C    0.000774   0.000069   0.000560   0.000008  -0.000003  -0.000024
     7  H   -0.017876   0.000135   0.000008   0.000002  -0.000001   0.000000
     8  H    0.000135   0.005819  -0.000003  -0.000020   0.000001  -0.000001
     9  H    0.000008  -0.000003  -0.012832   0.000002   0.000004   0.000032
    10  O    0.000002  -0.000020   0.000002   0.099515   0.000446   0.000281
    11  H   -0.000001   0.000001   0.000004   0.000446  -0.001774   0.000031
    12  O    0.000000  -0.000001   0.000032   0.000281   0.000031  -0.016250
    13  C    0.000000   0.000000  -0.000152  -0.000007   0.000005  -0.001859
    14  H    0.000000   0.000000  -0.000016   0.000000  -0.000004  -0.000014
    15  H    0.000000   0.000000   0.000092   0.000003   0.000000   0.000585
    16  H    0.000000   0.000000   0.000092   0.000003   0.000000   0.000585
    17  C    0.000333  -0.000004   0.000287  -0.000001   0.000000  -0.000004
    18  H   -0.000129  -0.000002  -0.000030   0.000000   0.000000   0.000000
    19  H   -0.000046   0.000000  -0.000198   0.000000   0.000000   0.000000
              13         14         15         16         17         18
     1  C    0.000001   0.000000   0.000002   0.000002  -0.024324   0.001156
     2  C   -0.000007   0.000000   0.000001   0.000001  -0.000031  -0.000120
     3  C    0.000132  -0.000005  -0.000013  -0.000013   0.000785   0.000005
     4  C    0.001505  -0.000023  -0.000761  -0.000760  -0.000110   0.000070
     5  C   -0.000451  -0.000001   0.000005   0.000005  -0.020956  -0.000691
     6  C    0.000004   0.000001   0.000028   0.000028  -0.044675  -0.005154
     7  H    0.000000   0.000000   0.000000   0.000000   0.000333  -0.000129
     8  H    0.000000   0.000000   0.000000   0.000000  -0.000004  -0.000002
     9  H   -0.000152  -0.000016   0.000092   0.000092   0.000287  -0.000030
    10  O   -0.000007   0.000000   0.000003   0.000003  -0.000001   0.000000
    11  H    0.000005  -0.000004   0.000000   0.000000   0.000000   0.000000
    12  O   -0.001859  -0.000014   0.000585   0.000585  -0.000004   0.000000
    13  C   -0.000285   0.000034   0.000813   0.000812   0.000003   0.000000
    14  H    0.000034   0.000045   0.000004   0.000004   0.000000   0.000000
    15  H    0.000813   0.000004  -0.002792   0.001139  -0.000006   0.000000
    16  H    0.000812   0.000004   0.001139  -0.002792  -0.000006   0.000000
    17  C    0.000003   0.000000  -0.000006  -0.000006   0.821501   0.007723
    18  H    0.000000   0.000000   0.000000   0.000000   0.007723  -0.043577
    19  H    0.000001   0.000000   0.000000   0.000000   0.007697   0.004036
              19
     1  C   -0.000675
     2  C    0.000070
     3  C   -0.000012
     4  C   -0.000160
     5  C    0.001085
     6  C   -0.004689
     7  H   -0.000046
     8  H    0.000000
     9  H   -0.000198
    10  O    0.000000
    11  H    0.000000
    12  O    0.000000
    13  C    0.000001
    14  H    0.000000
    15  H    0.000000
    16  H    0.000000
    17  C    0.007697
    18  H    0.004036
    19  H   -0.043696
 Mulliken charges and spin densities:
               1          2
     1  C   -0.065230   0.266781
     2  C   -0.086713  -0.128149
     3  C    0.145424   0.249736
     4  C    0.151632  -0.095852
     5  C   -0.093109   0.197017
     6  C   -0.089426  -0.188655
     7  H    0.085860  -0.014511
     8  H    0.102240   0.005500
     9  H    0.097716  -0.010547
    10  O   -0.350884   0.053274
    11  H    0.256447  -0.001574
    12  O   -0.407223  -0.006704
    13  C   -0.122068   0.000547
    14  H    0.129179   0.000025
    15  H    0.117806  -0.000900
    16  H    0.117805  -0.000900
    17  C   -0.183532   0.748212
    18  H    0.099470  -0.036714
    19  H    0.094606  -0.036587
 Sum of Mulliken charges =   0.00000   1.00000
 Mulliken charges and spin densities with hydrogens summed into heavy atoms:
               1          2
     1  C    0.020630   0.252270
     2  C    0.015527  -0.122649
     3  C    0.145424   0.249736
     4  C    0.151632  -0.095852
     5  C    0.004607   0.186471
     6  C   -0.089426  -0.188655
    10  O   -0.094437   0.051700
    12  O   -0.407223  -0.006704
    13  C    0.242721  -0.001228
    17  C    0.010544   0.674911
 Electronic spatial extent (au):  <R**2>=           1513.6265
 Charge=              0.0000 electrons
 Dipole moment (field-independent basis, Debye):
    X=              1.5234    Y=             -2.1449    Z=              0.0002  Tot=              2.6308
 Quadrupole moment (field-independent basis, Debye-Ang):
   XX=            -52.0622   YY=            -56.0148   ZZ=            -62.8851
   XY=             -5.8012   XZ=              0.0005   YZ=             -0.0001
 Traceless Quadrupole moment (field-independent basis, Debye-Ang):
   XX=              4.9252   YY=              0.9726   ZZ=             -5.8978
   XY=             -5.8012   XZ=              0.0005   YZ=             -0.0001
 Octapole moment (field-independent basis, Debye-Ang**2):
  XXX=             32.8706  YYY=            -12.4973  ZZZ=              0.0001  XYY=              6.6901
  XXY=             -0.1145  XXZ=              0.0016  XZZ=             12.8065  YZZ=              1.5085
  YYZ=              0.0001  XYZ=             -0.0008
 Hexadecapole moment (field-independent basis, Debye-Ang**3):
 XXXX=          -1068.4295 YYYY=           -742.1230 ZZZZ=            -73.2876 XXXY=            -18.7344
 XXXZ=             -0.0012 YYYX=            -34.0379 YYYZ=              0.0038 ZZZX=             -0.0047
 ZZZY=              0.0021 XXYY=           -297.9627 XXZZ=           -226.6153 YYZZ=           -144.9633
 XXYZ=             -0.0006 YYXZ=             -0.0009 ZZXY=             -2.5291
 N-N= 5.065101761177D+02 E-N=-2.088433861290D+03  KE= 4.590526393973D+02
                          Isotropic Fermi Contact Couplings
        Atom                 a.u.       MegaHertz       Gauss      10(-4) cm-1
     1  C(13)              0.01893      21.27573       7.59171       7.09682
     2  C(13)             -0.01848     -20.77457      -7.41288      -6.92965
     3  C(13)              0.01792      20.14200       7.18717       6.71865
     4  C(13)             -0.01741     -19.56848      -6.98252      -6.52734
     5  C(13)              0.01502      16.88891       6.02638       5.63353
     6  C(13)             -0.03456     -38.85728     -13.86524     -12.96139
     7  H(1)              -0.00368     -16.45495      -5.87154      -5.48878
     8  H(1)               0.00133       5.96167       2.12727       1.98860
     9  H(1)              -0.00279     -12.45770      -4.44522      -4.15544
    10  O(17)              0.00973      -5.89546      -2.10365      -1.96651
    11  H(1)              -0.00098      -4.40163      -1.57061      -1.46823
    12  O(17)             -0.00292       1.76896       0.63121       0.59006
    13  C(13)             -0.00009      -0.09741      -0.03476      -0.03249
    14  H(1)               0.00002       0.08917       0.03182       0.02975
    15  H(1)              -0.00002      -0.10646      -0.03799      -0.03551
    16  H(1)              -0.00002      -0.10687      -0.03813      -0.03565
    17  C(13)              0.04301      48.34625      17.25114      16.12657
    18  H(1)              -0.00955     -42.70138     -15.23691     -14.24365
    19  H(1)              -0.00958     -42.79943     -15.27190     -14.27635
 --------------------------------------------------------
       Center         ----  Spin Dipole Couplings  ----
                      3XX-RR        3YY-RR        3ZZ-RR
 --------------------------------------------------------
     1   Atom       -0.144831     -0.144576      0.289406
     2   Atom        0.060344      0.048915     -0.109258
     3   Atom       -0.158153     -0.159212      0.317365
     4   Atom        0.045153      0.048950     -0.094103
     5   Atom       -0.106215     -0.107364      0.213579
     6   Atom        0.075813      0.072042     -0.147855
     7   Atom        0.010970     -0.006743     -0.004227
     8   Atom        0.006463     -0.001867     -0.004596
     9   Atom       -0.006855      0.010984     -0.004129
    10   Atom       -0.162575     -0.168208      0.330783
    11   Atom        0.011336     -0.005316     -0.006019
    12   Atom        0.032667      0.025689     -0.058357
    13   Atom        0.002102     -0.001918     -0.000184
    14   Atom        0.001149     -0.000410     -0.000739
    15   Atom        0.002095     -0.000804     -0.001291
    16   Atom        0.002095     -0.000804     -0.001291
    17   Atom       -0.398805     -0.396246      0.795051
    18   Atom        0.039091     -0.036831     -0.002260
    19   Atom       -0.047706      0.049673     -0.001967
 --------------------------------------------------------
                        XY            XZ            YZ
 --------------------------------------------------------
     1   Atom        0.000002      0.000005     -0.000006
     2   Atom        0.003693     -0.000002      0.000002
     3   Atom        0.003801      0.000004     -0.000009
     4   Atom        0.003103     -0.000002      0.000002
     5   Atom       -0.000161      0.000004     -0.000006
     6   Atom        0.015451     -0.000002      0.000003
     7   Atom       -0.012954      0.000000      0.000000
     8   Atom        0.000814      0.000000      0.000000
     9   Atom       -0.006780      0.000000      0.000000
    10   Atom       -0.004500      0.000001     -0.000005
    11   Atom       -0.008526      0.000000      0.000000
    12   Atom       -0.002045      0.000000     -0.000006
    13   Atom       -0.000777      0.000000      0.000000
    14   Atom       -0.000317      0.000000      0.000000
    15   Atom       -0.001398      0.000691     -0.000331
    16   Atom       -0.001398     -0.000690      0.000331
    17   Atom       -0.003838      0.000011     -0.000017
    18   Atom       -0.033059     -0.000001      0.000000
    19   Atom       -0.014756      0.000000      0.000001
 --------------------------------------------------------


 ---------------------------------------------------------------------------------
              Anisotropic Spin Dipole Couplings in Principal Axis System
 ---------------------------------------------------------------------------------

       Atom             a.u.   MegaHertz   Gauss  10(-4) cm-1        Axes

              Baa    -0.1448   -19.435    -6.935    -6.483  1.0000 -0.0067  0.0000
     1 C(13)  Bbb    -0.1446   -19.401    -6.923    -6.471  0.0067  1.0000  0.0000
              Bcc     0.2894    38.836    13.857    12.954  0.0000  0.0000  1.0000
 
              Baa    -0.1093   -14.661    -5.232    -4.891  0.0000  0.0000  1.0000
     2 C(13)  Bbb     0.0478     6.418     2.290     2.141 -0.2830  0.9591  0.0000
              Bcc     0.0614     8.244     2.942     2.750  0.9591  0.2830  0.0000
 
              Baa    -0.1625   -21.809    -7.782    -7.275 -0.6565  0.7543  0.0000
     3 C(13)  Bbb    -0.1548   -20.779    -7.414    -6.931  0.7543  0.6565  0.0000
              Bcc     0.3174    42.587    15.196    14.206  0.0000  0.0000  1.0000
 
              Baa    -0.0941   -12.628    -4.506    -4.212  0.0000  0.0000  1.0000
     4 C(13)  Bbb     0.0434     5.826     2.079     1.943  0.8723 -0.4889  0.0000
              Bcc     0.0507     6.802     2.427     2.269  0.4889  0.8723  0.0000
 
              Baa    -0.1074   -14.410    -5.142    -4.807  0.1365  0.9906  0.0000
     5 C(13)  Bbb    -0.1062   -14.250    -5.085    -4.753  0.9906 -0.1365  0.0000
              Bcc     0.2136    28.660    10.227     9.560  0.0000  0.0000  1.0000
 
              Baa    -0.1479   -19.841    -7.080    -6.618  0.0000  0.0000  1.0000
     6 C(13)  Bbb     0.0584     7.832     2.795     2.612 -0.6629  0.7487  0.0000
              Bcc     0.0895    12.009     4.285     4.006  0.7487  0.6629  0.0000
 
              Baa    -0.0136    -7.245    -2.585    -2.417  0.4667  0.8844  0.0000
     7 H(1)   Bbb    -0.0042    -2.255    -0.805    -0.752  0.0000  0.0000  1.0000
              Bcc     0.0178     9.500     3.390     3.169  0.8844 -0.4667  0.0000
 
              Baa    -0.0046    -2.452    -0.875    -0.818  0.0000  0.0000  1.0000
     8 H(1)   Bbb    -0.0019    -1.038    -0.370    -0.346 -0.0963  0.9954  0.0000
              Bcc     0.0065     3.491     1.246     1.164  0.9954  0.0963  0.0000
 
              Baa    -0.0091    -4.876    -1.740    -1.627  0.9477  0.3193  0.0000
     9 H(1)   Bbb    -0.0041    -2.203    -0.786    -0.735  0.0000  0.0000  1.0000
              Bcc     0.0133     7.080     2.526     2.361 -0.3193  0.9477  0.0000
 
              Baa    -0.1707    12.352     4.407     4.120  0.4845  0.8748  0.0000
    10 O(17)  Bbb    -0.1601    11.583     4.133     3.864  0.8748 -0.4845  0.0000
              Bcc     0.3308   -23.935    -8.541    -7.984  0.0000  0.0000  1.0000
 
              Baa    -0.0089    -4.753    -1.696    -1.585  0.3882  0.9216  0.0000
    11 H(1)   Bbb    -0.0060    -3.212    -1.146    -1.071  0.0000  0.0000  1.0000
              Bcc     0.0149     7.964     2.842     2.657  0.9216 -0.3882  0.0000
 
              Baa    -0.0584     4.223     1.507     1.409  0.0000  0.0001  1.0000
    12 O(17)  Bbb     0.0251    -1.819    -0.649    -0.607  0.2620  0.9651 -0.0001
              Bcc     0.0332    -2.404    -0.858    -0.802  0.9651 -0.2620  0.0000
 
              Baa    -0.0021    -0.277    -0.099    -0.092  0.1835  0.9830  0.0002
    13 C(13)  Bbb    -0.0002    -0.025    -0.009    -0.008 -0.0001 -0.0002  1.0000
              Bcc     0.0022     0.301     0.108     0.101  0.9830 -0.1835  0.0001
 
              Baa    -0.0007    -0.394    -0.141    -0.132  0.0000  0.0000  1.0000
    14 H(1)   Bbb    -0.0005    -0.252    -0.090    -0.084  0.1921  0.9814  0.0000
              Bcc     0.0012     0.646     0.230     0.215  0.9814 -0.1921  0.0000
 
              Baa    -0.0015    -0.779    -0.278    -0.260  0.0236  0.4905  0.8711
    15 H(1)   Bbb    -0.0013    -0.716    -0.256    -0.239  0.4123  0.7890 -0.4554
              Bcc     0.0028     1.495     0.533     0.499  0.9107 -0.3699  0.1836
 
              Baa    -0.0015    -0.779    -0.278    -0.260 -0.0237 -0.4905  0.8711
    16 H(1)   Bbb    -0.0013    -0.716    -0.256    -0.239  0.4123  0.7890  0.4555
              Bcc     0.0028     1.495     0.533     0.499  0.9107 -0.3699 -0.1836
 
              Baa    -0.4016   -53.887   -19.228   -17.975  0.8113  0.5847  0.0000
    17 C(13)  Bbb    -0.3935   -52.801   -18.841   -17.613 -0.5847  0.8113  0.0000
              Bcc     0.7951   106.688    38.069    35.587  0.0000  0.0000  1.0000
 
              Baa    -0.0492   -26.255    -9.368    -8.758  0.3506  0.9365  0.0000
    18 H(1)   Bbb    -0.0023    -1.206    -0.430    -0.402  0.0000  0.0000  1.0000
              Bcc     0.0515    27.461     9.799     9.160  0.9365 -0.3506  0.0000
 
              Baa    -0.0499   -26.621    -9.499    -8.880  0.9892  0.1466  0.0000
    19 H(1)   Bbb    -0.0020    -1.049    -0.374    -0.350  0.0000  0.0000  1.0000
              Bcc     0.0519    27.670     9.873     9.230 -0.1466  0.9892  0.0000
 

 ---------------------------------------------------------------------------------

 1|1|UNPC-PC-20250526LCFF|SP|UB3LYP|6-311G(d,p)|C8H9O2(2)|ADMINISTRATOR
 |02-Dec-2025|0||# ub3lyp/6-311g(d,p) geom=connectivity temperature=823
 .15||Title Card Required||0,2|C,0,-1.948433,0.874527,0.000009|C,0,-0.8
 74855,1.747164,0.00001|C,0,0.430422,1.258858,-0.000009|C,0,0.649483,-0
 .140489,-0.000032|C,0,-0.411197,-1.018283,-0.000036|C,0,-1.759575,-0.5
 37236,-0.000014|H,0,-2.958886,1.266738,0.000024|H,0,-1.020712,2.820817
 ,0.000029|H,0,-0.243277,-2.087456,-0.00006|O,0,1.484759,2.114687,-0.00
 0005|H,0,2.288128,1.576405,-0.000008|O,0,1.981581,-0.475822,-0.000064|
 C,0,2.332431,-1.853471,0.000111|H,0,3.420579,-1.887461,0.000186|H,0,1.
 951514,-2.35782,0.894331|H,0,1.951639,-2.358017,-0.894052|C,0,-2.84487
 9,-1.420862,-0.000015|H,0,-3.862449,-1.051863,-0.000002|H,0,-2.697634,
 -2.493503,-0.000033||Version=EM64W-G16RevA.03|State=2-A|HF=-460.783900
 2|S2=0.780872|S2-1=0.|S2A=0.750599|RMSD=4.141e-009|Dipole=0.5993476,-0
 .8438646,0.0000841|Quadrupole=3.6617561,0.7230929,-4.3848489,-4.313052
 ,0.0003684,-0.0001059|PG=C01 [X(C8H9O2)]||@


 SATCHEL PAIGE'S GUIDE TO LONGEVITY

    1.  AVOID FRIED MEATS, WHICH ANGRY UP THE BLOOD.

    2.  IF YOUR STOMACH DISPUTES YOU, LIE DOWN AND PACIFY IT WITH COOL
        THOUGHTS.

    3.  KEEP THE JUICES FLOWING BY JANGLING AROUND GENTLY AS YOU MOVE.

    4.  GO VERY LIGHT ON THE VICES, SUCH AS CARRYING ON IN SOCIETY.
        THE SOCIAL RUMBLE AIN'T RESTFUL.

    5.  AVOID RUNNING AT ALL TIMES.

    6.  DON'T LOOK BACK.  SOMETHING MAY BE GAINING ON YOU.
 Job cpu time:       0 days  0 hours  0 minutes 38.0 seconds.
 Elapsed time:       0 days  0 hours  0 minutes 37.9 seconds.
 File lengths (MBytes):  RWF=     57 Int=      0 D2E=      0 Chk=      5 Scr=      1
 Normal termination of Gaussian 16 at Tue Dec 02 12:11:40 2025.
