 Entering Link 1 = D:\Gaussian\G16W\l1.exe PID=     34392.
  
 Copyright (c) 1988,1990,1992,1993,1995,1998,2003,2009,2016,
            Gaussian, Inc.  All Rights Reserved.
  
 This is part of the Gaussian(R) 16 program.  It is based on
 the Gaussian(R) 09 system (copyright 2009, Gaussian, Inc.),
 the Gaussian(R) 03 system (copyright 2003, Gaussian, Inc.),
 the Gaussian(R) 98 system (copyright 1998, Gaussian, Inc.),
 the Gaussian(R) 94 system (copyright 1995, Gaussian, Inc.),
 the Gaussian 92(TM) system (copyright 1992, Gaussian, Inc.),
 the Gaussian 90(TM) system (copyright 1990, Gaussian, Inc.),
 the Gaussian 88(TM) system (copyright 1988, Gaussian, Inc.),
 the Gaussian 86(TM) system (copyright 1986, Carnegie Mellon
 University), and the Gaussian 82(TM) system (copyright 1983,
 Carnegie Mellon University). Gaussian is a federally registered
 trademark of Gaussian, Inc.
  
 This software contains proprietary and confidential information,
 including trade secrets, belonging to Gaussian, Inc.
  
 This software is provided under written license and may be
 used, copied, transmitted, or stored only in accord with that
 written license.
  
 The following legend is applicable only to US Government
 contracts under FAR:
  
                    RESTRICTED RIGHTS LEGEND
  
 Use, reproduction and disclosure by the US Government is
 subject to restrictions as set forth in subparagraphs (a)
 and (c) of the Commercial Computer Software - Restricted
 Rights clause in FAR 52.227-19.
  
 Gaussian, Inc.
 340 Quinnipiac St., Bldg. 40, Wallingford CT 06492
  
  
 ---------------------------------------------------------------
 Warning -- This program may not be used in any manner that
 competes with the business of Gaussian, Inc. or will provide
 assistance to any competitor of Gaussian, Inc.  The licensee
 of this program is prohibited from giving any competitor of
 Gaussian, Inc. access to this program.  By using this program,
 the user acknowledges that Gaussian, Inc. is engaged in the
 business of creating and licensing software in the field of
 computational chemistry and represents and warrants to the
 licensee that it is not a competitor of Gaussian, Inc. and that
 it will not use this program in any manner prohibited above.
 ---------------------------------------------------------------
  

 Cite this work as:
 Gaussian 16, Revision A.03,
 M. J. Frisch, G. W. Trucks, H. B. Schlegel, G. E. Scuseria, 
 M. A. Robb, J. R. Cheeseman, G. Scalmani, V. Barone, 
 G. A. Petersson, H. Nakatsuji, X. Li, M. Caricato, A. V. Marenich, 
 J. Bloino, B. G. Janesko, R. Gomperts, B. Mennucci, H. P. Hratchian, 
 J. V. Ortiz, A. F. Izmaylov, J. L. Sonnenberg, D. Williams-Young, 
 F. Ding, F. Lipparini, F. Egidi, J. Goings, B. Peng, A. Petrone, 
 T. Henderson, D. Ranasinghe, V. G. Zakrzewski, J. Gao, N. Rega, 
 G. Zheng, W. Liang, M. Hada, M. Ehara, K. Toyota, R. Fukuda, 
 J. Hasegawa, M. Ishida, T. Nakajima, Y. Honda, O. Kitao, H. Nakai, 
 T. Vreven, K. Throssell, J. A. Montgomery, Jr., J. E. Peralta, 
 F. Ogliaro, M. J. Bearpark, J. J. Heyd, E. N. Brothers, K. N. Kudin, 
 V. N. Staroverov, T. A. Keith, R. Kobayashi, J. Normand, 
 K. Raghavachari, A. P. Rendell, J. C. Burant, S. S. Iyengar, 
 J. Tomasi, M. Cossi, J. M. Millam, M. Klene, C. Adamo, R. Cammi, 
 J. W. Ochterski, R. L. Martin, K. Morokuma, O. Farkas, 
 J. B. Foresman, and D. J. Fox, Gaussian, Inc., Wallingford CT, 2016.
 
 ******************************************
 Gaussian 16:  EM64W-G16RevA.03 17-Dec-2016
                03-Dec-2025 
 ******************************************
 %nprocs=   4
 Will use up to    4 processors via shared memory.
 ------------------------------------
 #P B3LYP/6-31G* SCF=conver=7 out=wfn
 ------------------------------------
 1/38=1,172=1/1;
 2/12=2,17=6,18=5,40=1/2;
 3/5=1,6=6,7=1,11=2,25=1,30=1,74=-5/1,2,3;
 4//1;
 5/5=2,6=7,38=5/2;
 6/7=2,8=2,9=2,10=2,28=1/1;
 99/5=1,6=100,9=1/99;
 Leave Link    1 at Wed Dec 03 11:17:55 2025, MaxMem=           0 cpu:               0.0 elap:               0.1
 (Enter D:\Gaussian\G16W\l101.exe)
 ----------------------------------------------------
 Generated by Multiwfn (http://sobereva.com/multiwfn)
 ----------------------------------------------------
 Symbolic Z-matrix:
 Charge = -1 Multiplicity = 1
 C                    -1.94843   0.87453   0.00001 
 C                    -0.87486   1.74716   0.00001 
 C                     0.43042   1.25886  -0.00001 
 C                     0.64948  -0.14049  -0.00003 
 C                    -0.4112   -1.01828  -0.00004 
 C                    -1.75958  -0.53724  -0.00001 
 H                    -2.95889   1.26674   0.00002 
 H                    -1.02071   2.82082   0.00003 
 H                    -0.24328  -2.08746  -0.00006 
 O                     1.48476   2.11469  -0.00001 
 H                     2.28813   1.57641  -0.00001 
 O                     1.98158  -0.47582  -0.00006 
 C                     2.33243  -1.85347   0.00011 
 H                     3.42058  -1.88746   0.00019 
 H                     1.95151  -2.35782   0.89433 
 H                     1.95164  -2.35802  -0.89405 
 C                    -2.84488  -1.42086  -0.00002 
 H                    -3.86245  -1.05186  0. 
 H                    -2.69763  -2.4935   -0.00003 
 
 ITRead=  0  0  0  0  0  0  0  0  0  0  0  0  0  0  0  0  0  0  0
 MicOpt= -1 -1 -1 -1 -1 -1 -1 -1 -1 -1 -1 -1 -1 -1 -1 -1 -1 -1 -1
 NAtoms=     19 NQM=       19 NQMF=       0 NMMI=      0 NMMIF=      0
                NMic=       0 NMicF=      0.
                    Isotopes and Nuclear Properties:
 (Nuclear quadrupole moments (NQMom) in fm**2, nuclear magnetic moments (NMagM)
  in nuclear magnetons)

  Atom         1           2           3           4           5           6           7           8           9          10
 IAtWgt=          12          12          12          12          12          12           1           1           1          16
 AtmWgt=  12.0000000  12.0000000  12.0000000  12.0000000  12.0000000  12.0000000   1.0078250   1.0078250   1.0078250  15.9949146
 NucSpn=           0           0           0           0           0           0           1           1           1           0
 AtZEff=   0.0000000   0.0000000   0.0000000   0.0000000   0.0000000   0.0000000   0.0000000   0.0000000   0.0000000   0.0000000
 NQMom=    0.0000000   0.0000000   0.0000000   0.0000000   0.0000000   0.0000000   0.0000000   0.0000000   0.0000000   0.0000000
 NMagM=    0.0000000   0.0000000   0.0000000   0.0000000   0.0000000   0.0000000   2.7928460   2.7928460   2.7928460   0.0000000
 AtZNuc=   6.0000000   6.0000000   6.0000000   6.0000000   6.0000000   6.0000000   1.0000000   1.0000000   1.0000000   8.0000000

  Atom        11          12          13          14          15          16          17          18          19
 IAtWgt=           1          16          12           1           1           1          12           1           1
 AtmWgt=   1.0078250  15.9949146  12.0000000   1.0078250   1.0078250   1.0078250  12.0000000   1.0078250   1.0078250
 NucSpn=           1           0           0           1           1           1           0           1           1
 AtZEff=   0.0000000   0.0000000   0.0000000   0.0000000   0.0000000   0.0000000   0.0000000   0.0000000   0.0000000
 NQMom=    0.0000000   0.0000000   0.0000000   0.0000000   0.0000000   0.0000000   0.0000000   0.0000000   0.0000000
 NMagM=    2.7928460   0.0000000   0.0000000   2.7928460   2.7928460   2.7928460   0.0000000   2.7928460   2.7928460
 AtZNuc=   1.0000000   8.0000000   6.0000000   1.0000000   1.0000000   1.0000000   6.0000000   1.0000000   1.0000000
 Leave Link  101 at Wed Dec 03 11:17:55 2025, MaxMem=   104857600 cpu:               0.0 elap:               0.2
 (Enter D:\Gaussian\G16W\l202.exe)
                          Input orientation:                          
 ---------------------------------------------------------------------
 Center     Atomic      Atomic             Coordinates (Angstroms)
 Number     Number       Type             X           Y           Z
 ---------------------------------------------------------------------
      1          6           0       -1.948433    0.874527    0.000009
      2          6           0       -0.874855    1.747164    0.000010
      3          6           0        0.430422    1.258858   -0.000009
      4          6           0        0.649483   -0.140489   -0.000032
      5          6           0       -0.411197   -1.018283   -0.000036
      6          6           0       -1.759575   -0.537236   -0.000014
      7          1           0       -2.958886    1.266738    0.000024
      8          1           0       -1.020712    2.820817    0.000029
      9          1           0       -0.243277   -2.087456   -0.000060
     10          8           0        1.484759    2.114687   -0.000005
     11          1           0        2.288128    1.576405   -0.000008
     12          8           0        1.981581   -0.475822   -0.000064
     13          6           0        2.332431   -1.853471    0.000111
     14          1           0        3.420579   -1.887461    0.000186
     15          1           0        1.951514   -2.357820    0.894331
     16          1           0        1.951639   -2.358017   -0.894052
     17          6           0       -2.844879   -1.420862   -0.000015
     18          1           0       -3.862449   -1.051863   -0.000002
     19          1           0       -2.697634   -2.493503   -0.000033
 ---------------------------------------------------------------------
                    Distance matrix (angstroms):
                    1          2          3          4          5
     1  C    0.000000
     2  C    1.383497   0.000000
     3  C    2.409702   1.393625   0.000000
     4  C    2.789162   2.426281   1.416390   0.000000
     5  C    2.438406   2.804046   2.427693   1.376795   0.000000
     6  C    1.424339   2.449737   2.832321   2.441509   1.431618
     7  H    1.083903   2.138690   3.389317   3.873063   3.422286
     8  H    2.156087   1.083515   2.132019   3.399836   3.887184
     9  H    3.417733   3.886284   3.413457   2.141892   1.082279
    10  O    3.650316   2.388064   1.357965   2.404892   3.661987
    11  H    4.294308   3.167589   1.884651   2.373369   3.744164
    12  O    4.155533   3.619516   2.327060   1.373657   2.453498
    13  C    5.076196   4.821956   3.647496   2.401379   2.867932
    14  H    6.037787   5.626833   4.340549   3.275803   3.929119
    15  H    5.143682   5.063503   4.024168   2.722449   2.859485
    16  H    5.143855   5.063687   4.024326   2.722556   2.859571
    17  C    2.464229   3.730601   4.231843   3.721548   2.466755
    18  H    2.715591   4.093931   4.875261   4.603057   3.451415
    19  H    3.450352   4.615818   4.885176   4.091438   2.721042
                    6          7          8          9         10
     6  C    0.000000
     7  H    2.166257   0.000000
     8  H    3.438377   2.484287   0.000000
     9  H    2.168488   4.315686   4.969462   0.000000
    10  O    4.190274   4.523826   2.603076   4.543579   0.000000
    11  H    4.566331   5.256144   3.535107   4.453301   0.967031
    12  O    3.741660   5.238772   4.458878   2.747245   2.637720
    13  C    4.298487   6.142779   5.752611   2.586314   4.057687
    14  H    5.353233   7.116639   6.472476   3.669310   4.445738
    15  H    4.229251   6.168406   6.037564   2.385401   4.584868
    16  H    4.229380   6.168588   6.037762   2.385389   4.585017
    17  C    1.399528   2.690017   4.617296   2.685643   5.589801
    18  H    2.164930   2.488441   4.803449   3.764420   6.214473
    19  H    2.169547   3.769306   5.572617   2.487718   6.223169
                   11         12         13         14         15
    11  H    0.000000
    12  O    2.074996   0.000000
    13  C    3.430162   1.421623   0.000000
    14  H    3.644285   2.015798   1.088679   0.000000
    15  H    4.048614   2.083930   1.095032   1.782943   0.000000
    16  H    4.048730   2.083931   1.095033   1.782938   1.788383
    17  C    5.944020   4.918111   5.195353   6.282808   4.968212
    18  H    6.688602   5.872351   6.246528   7.330806   6.025572
    19  H    6.435991   5.095693   5.070621   6.148156   4.736335
                   16         17         18         19
    16  H    0.000000
    17  C    4.968314   0.000000
    18  H    6.025694   1.082409   0.000000
    19  H    4.736387   1.082700   1.853408   0.000000
 Stoichiometry    C8H9O2(1-)
 Framework group  C1[X(C8H9O2)]
 Deg. of freedom    51
 Full point group                 C1      NOp   1
 Largest Abelian subgroup         C1      NOp   1
 Largest concise Abelian subgroup C1      NOp   1
                         Standard orientation:                         
 ---------------------------------------------------------------------
 Center     Atomic      Atomic             Coordinates (Angstroms)
 Number     Number       Type             X           Y           Z
 ---------------------------------------------------------------------
      1          6           0       -1.948433    0.874527    0.000009
      2          6           0       -0.874855    1.747164    0.000010
      3          6           0        0.430422    1.258858   -0.000009
      4          6           0        0.649483   -0.140489   -0.000032
      5          6           0       -0.411197   -1.018283   -0.000036
      6          6           0       -1.759575   -0.537236   -0.000014
      7          1           0       -2.958886    1.266739    0.000024
      8          1           0       -1.020711    2.820817    0.000029
      9          1           0       -0.243278   -2.087456   -0.000060
     10          8           0        1.484760    2.114686   -0.000005
     11          1           0        2.288128    1.576404   -0.000008
     12          8           0        1.981581   -0.475823   -0.000064
     13          6           0        2.332430   -1.853472    0.000111
     14          1           0        3.420578   -1.887462    0.000186
     15          1           0        1.951513   -2.357821    0.894331
     16          1           0        1.951638   -2.358018   -0.894052
     17          6           0       -2.844879   -1.420861   -0.000015
     18          1           0       -3.862449   -1.051862   -0.000002
     19          1           0       -2.697635   -2.493502   -0.000033
 ---------------------------------------------------------------------
 Rotational constants (GHZ):           1.9344685           1.2013948           0.7446429
 Leave Link  202 at Wed Dec 03 11:17:55 2025, MaxMem=   104857600 cpu:               0.0 elap:               0.1
 (Enter D:\Gaussian\G16W\l301.exe)
 Standard basis: 6-31G(d) (6D, 7F)
 Ernie: Thresh=  0.10000D-02 Tol=  0.10000D-05 Strict=F.
 There are   168 symmetry adapted cartesian basis functions of A   symmetry.
 There are   168 symmetry adapted basis functions of A   symmetry.
   168 basis functions,   316 primitive gaussians,   168 cartesian basis functions
    37 alpha electrons       37 beta electrons
       nuclear repulsion energy       506.5101761177 Hartrees.
 IExCor=  402 DFT=T Ex+Corr=B3LYP ExCW=0 ScaHFX=  0.200000
 ScaDFX=  0.800000  0.720000  1.000000  0.810000 ScalE2=  1.000000  1.000000
 IRadAn=      5 IRanWt=     -1 IRanGd=            0 ICorTp=0 IEmpDi=  4
 NAtoms=   19 NActive=   19 NUniq=   19 SFac= 1.00D+00 NAtFMM=   60 NAOKFM=F Big=F
 Integral buffers will be    131072 words long.
 Raffenetti 2 integral format.
 Two-electron integral symmetry is turned on.
 Leave Link  301 at Wed Dec 03 11:17:55 2025, MaxMem=   104857600 cpu:               0.0 elap:               0.1
 (Enter D:\Gaussian\G16W\l302.exe)
 NPDir=0 NMtPBC=     1 NCelOv=     1 NCel=       1 NClECP=     1 NCelD=      1
         NCelK=      1 NCelE2=     1 NClLst=     1 CellRange=     0.0.
 One-electron integrals computed using PRISM.
 One-electron integral symmetry used in STVInt
 NBasis=   168 RedAO= T EigKep=  3.91D-04  NBF=   168
 NBsUse=   168 1.00D-06 EigRej= -1.00D+00 NBFU=   168
 Precomputing XC quadrature grid using
 IXCGrd= 4 IRadAn=           5 IRanWt=          -1 IRanGd=           0 AccXCQ= 0.00D+00.
 Generated NRdTot=       0 NPtTot=           0 NUsed=           0 NTot=          32
 NSgBfM=   168   168   168   168   168 MxSgAt=    19 MxSgA2=    19.
 Leave Link  302 at Wed Dec 03 11:17:56 2025, MaxMem=   104857600 cpu:               1.0 elap:               0.4
 (Enter D:\Gaussian\G16W\l303.exe)
 DipDrv:  MaxL=1.
 Leave Link  303 at Wed Dec 03 11:17:56 2025, MaxMem=   104857600 cpu:               0.0 elap:               0.1
 (Enter D:\Gaussian\G16W\l401.exe)
 ExpMin= 1.61D-01 ExpMax= 5.48D+03 ExpMxC= 8.25D+02 IAcc=3 IRadAn=         5 AccDes= 0.00D+00
 Harris functional with IExCor=  402 and IRadAn=       5 diagonalized for initial guess.
 HarFok:  IExCor=  402 AccDes= 0.00D+00 IRadAn=         5 IDoV= 1 UseB2=F ITyADJ=14
 ICtDFT=  3500011 ScaDFX=  1.000000  1.000000  1.000000  1.000000
 FoFCou: FMM=F IPFlag=           0 FMFlag=      100000 FMFlg1=           0
         NFxFlg=           0 DoJE=T BraDBF=F KetDBF=T FulRan=T
         wScrn=  0.000000 ICntrl=       500 IOpCl=  0 I1Cent=   200000004 NGrid=           0
         NMat0=    1 NMatS0=      1 NMatT0=    0 NMatD0=    1 NMtDS0=    0 NMtDT0=    0
 Petite list used in FoFCou.
 Harris En= -460.902858427082    
 JPrj=0 DoOrth=F DoCkMO=F.
 Leave Link  401 at Wed Dec 03 11:17:57 2025, MaxMem=   104857600 cpu:               1.0 elap:               1.1
 (Enter D:\Gaussian\G16W\l502.exe)
 Keep R1 ints in memory in canonical form, NReq=104755543.
 FoFCou: FMM=F IPFlag=           0 FMFlag=           0 FMFlg1=           0
         NFxFlg=           0 DoJE=F BraDBF=F KetDBF=F FulRan=T
         wScrn=  0.000000 ICntrl=       600 IOpCl=  0 I1Cent=           0 NGrid=           0
         NMat0=    1 NMatS0=  14196 NMatT0=    0 NMatD0=    1 NMtDS0=    0 NMtDT0=    0
 Symmetry not used in FoFCou.
 Two-electron integral symmetry not used.
 Closed shell SCF:
 Using DIIS extrapolation, IDIIS=  1040.
 NGot=   104857600 LenX=     4027843 LenY=     3999178
 Requested convergence on RMS density matrix=1.00D-07 within 128 cycles.
 Requested convergence on MAX density matrix=1.00D-05.
 Requested convergence on             energy=1.00D-05.
 No special actions if energy rises.
 Integral accuracy reduced to 1.0D-05 until final iterations.

 Cycle   1  Pass 0  IDiag  1:
 CalDSu:  requested number of processors reduced to:   3 ShMem   1 Linda.
 E= -460.255855913532    
 DIIS: error= 5.15D-02 at cycle   1 NSaved=   1.
 NSaved= 1 IEnMin= 1 EnMin= -460.255855913532     IErMin= 1 ErrMin= 5.15D-02
 ErrMax= 5.15D-02  0.00D+00 EMaxC= 1.00D-01 BMatC= 3.57D-01 BMatP= 3.57D-01
 IDIUse=3 WtCom= 4.85D-01 WtEn= 5.15D-01
 Coeff-Com:  0.100D+01
 Coeff-En:   0.100D+01
 Coeff:      0.100D+01
 Gap=     0.069 Goal=   None    Shift=    0.000
 GapD=    0.069 DampG=0.500 DampE=0.500 DampFc=0.2500 IDamp=-1.
 Damping current iteration by 2.50D-01
 RMSDP=6.55D-02 MaxDP=5.43D+00              OVMax= 9.93D-01

 Cycle   2  Pass 0  IDiag  1:
 CalDSu:  requested number of processors reduced to:   3 ShMem   1 Linda.
 E= -460.330947067922     Delta-E=       -0.075091154389 Rises=F Damp=T
 DIIS: error= 2.33D-02 at cycle   2 NSaved=   2.
 NSaved= 2 IEnMin= 2 EnMin= -460.330947067922     IErMin= 2 ErrMin= 2.33D-02
 ErrMax= 2.33D-02  0.00D+00 EMaxC= 1.00D-01 BMatC= 7.54D-02 BMatP= 3.57D-01
 IDIUse=3 WtCom= 7.67D-01 WtEn= 2.33D-01
 Coeff-Com: -0.493D+00 0.149D+01
 Coeff-En:   0.241D+00 0.759D+00
 Coeff:     -0.322D+00 0.132D+01
 Gap=    -0.025 Goal=   None    Shift=    0.000
 RMSDP=1.69D-02 MaxDP=1.40D+00 DE=-7.51D-02 OVMax= 8.44D-01

 Cycle   3  Pass 0  IDiag  1:
 CalDSu:  requested number of processors reduced to:   3 ShMem   1 Linda.
 E= -460.513963632177     Delta-E=       -0.183016564255 Rises=F Damp=F
 DIIS: error= 3.16D-02 at cycle   3 NSaved=   3.
 NSaved= 3 IEnMin= 3 EnMin= -460.513963632177     IErMin= 2 ErrMin= 2.33D-02
 ErrMax= 3.16D-02  0.00D+00 EMaxC= 1.00D-01 BMatC= 9.93D-02 BMatP= 7.54D-02
 IDIUse=2 WtCom= 0.00D+00 WtEn= 1.00D+00
 Coeff-En:   0.000D+00 0.146D-01 0.985D+00
 Coeff:      0.000D+00 0.146D-01 0.985D+00
 Gap=     0.058 Goal=   None    Shift=    0.000
 RMSDP=2.37D-02 MaxDP=1.39D+00 DE=-1.83D-01 OVMax= 9.96D-01

 Cycle   4  Pass 0  IDiag  1:
 CalDSu:  requested number of processors reduced to:   3 ShMem   1 Linda.
 E= -458.676238367721     Delta-E=        1.837725264456 Rises=F Damp=F
 DIIS: error= 8.93D-02 at cycle   4 NSaved=   4.
 NSaved= 4 IEnMin= 3 EnMin= -460.513963632177     IErMin= 2 ErrMin= 2.33D-02
 ErrMax= 8.93D-02  0.00D+00 EMaxC= 1.00D-01 BMatC= 1.11D+00 BMatP= 7.54D-02
 IDIUse=2 WtCom= 0.00D+00 WtEn= 1.00D+00
 Coeff-En:   0.000D+00 0.000D+00 0.905D+00 0.946D-01
 Coeff:      0.000D+00 0.000D+00 0.905D+00 0.946D-01
 Gap=    -0.061 Goal=   None    Shift=    0.000
 RMSDP=2.29D-02 MaxDP=1.38D+00 DE= 1.84D+00 OVMax= 9.87D-01

 Cycle   5  Pass 0  IDiag  1:
 CalDSu:  requested number of processors reduced to:   3 ShMem   1 Linda.
 E= -460.527386577782     Delta-E=       -1.851148210061 Rises=F Damp=F
 DIIS: error= 2.20D-02 at cycle   5 NSaved=   5.
 NSaved= 5 IEnMin= 5 EnMin= -460.527386577782     IErMin= 5 ErrMin= 2.20D-02
 ErrMax= 2.20D-02  0.00D+00 EMaxC= 1.00D-01 BMatC= 1.02D-01 BMatP= 7.54D-02
 IDIUse=2 WtCom= 0.00D+00 WtEn= 1.00D+00
 Coeff-En:   0.000D+00 0.000D+00 0.478D+00 0.000D+00 0.522D+00
 Coeff:      0.000D+00 0.000D+00 0.478D+00 0.000D+00 0.522D+00
 Gap=     0.141 Goal=   None    Shift=    0.000
 RMSDP=3.15D-03 MaxDP=7.88D-02 DE=-1.85D+00 OVMax= 2.67D-01

 Cycle   6  Pass 0  IDiag  1:
 CalDSu:  requested number of processors reduced to:   3 ShMem   1 Linda.
 E= -460.635370229064     Delta-E=       -0.107983651283 Rises=F Damp=F
 DIIS: error= 6.62D-03 at cycle   6 NSaved=   6.
 NSaved= 6 IEnMin= 6 EnMin= -460.635370229064     IErMin= 6 ErrMin= 6.62D-03
 ErrMax= 6.62D-03  0.00D+00 EMaxC= 1.00D-01 BMatC= 1.34D-02 BMatP= 7.54D-02
 IDIUse=3 WtCom= 9.34D-01 WtEn= 6.62D-02
 Coeff-Com: -0.817D-01 0.187D+00 0.258D+00-0.890D-02 0.271D+00 0.374D+00
 Coeff-En:   0.000D+00 0.000D+00 0.000D+00 0.000D+00 0.804D-01 0.920D+00
 Coeff:     -0.763D-01 0.175D+00 0.241D+00-0.831D-02 0.258D+00 0.410D+00
 Gap=     0.152 Goal=   None    Shift=    0.000
 RMSDP=9.92D-04 MaxDP=3.05D-02 DE=-1.08D-01 OVMax= 6.49D-02

 Cycle   7  Pass 0  IDiag  1:
 CalDSu:  requested number of processors reduced to:   3 ShMem   1 Linda.
 E= -460.649003348818     Delta-E=       -0.013633119754 Rises=F Damp=F
 DIIS: error= 1.86D-03 at cycle   7 NSaved=   7.
 NSaved= 7 IEnMin= 7 EnMin= -460.649003348818     IErMin= 7 ErrMin= 1.86D-03
 ErrMax= 1.86D-03  0.00D+00 EMaxC= 1.00D-01 BMatC= 8.57D-04 BMatP= 1.34D-02
 IDIUse=3 WtCom= 9.81D-01 WtEn= 1.86D-02
 Coeff-Com: -0.338D-01 0.460D-01-0.759D-02-0.238D-02 0.104D-01 0.203D+00
 Coeff-Com:  0.784D+00
 Coeff-En:   0.000D+00 0.000D+00 0.000D+00 0.000D+00 0.000D+00 0.000D+00
 Coeff-En:   0.100D+01
 Coeff:     -0.332D-01 0.451D-01-0.744D-02-0.233D-02 0.102D-01 0.199D+00
 Coeff:      0.788D+00
 Gap=     0.124 Goal=   None    Shift=    0.000
 RMSDP=2.37D-04 MaxDP=7.83D-03 DE=-1.36D-02 OVMax= 1.15D-02

 Cycle   8  Pass 0  IDiag  1:
 CalDSu:  requested number of processors reduced to:   3 ShMem   1 Linda.
 E= -460.649860669646     Delta-E=       -0.000857320828 Rises=F Damp=F
 DIIS: error= 5.38D-04 at cycle   8 NSaved=   8.
 NSaved= 8 IEnMin= 8 EnMin= -460.649860669646     IErMin= 8 ErrMin= 5.38D-04
 ErrMax= 5.38D-04  0.00D+00 EMaxC= 1.00D-01 BMatC= 7.40D-05 BMatP= 8.57D-04
 IDIUse=3 WtCom= 9.95D-01 WtEn= 5.38D-03
 Coeff-Com: -0.208D-01 0.266D-01-0.136D-01-0.655D-03-0.324D-02 0.105D+00
 Coeff-Com:  0.445D+00 0.462D+00
 Coeff-En:   0.000D+00 0.000D+00 0.000D+00 0.000D+00 0.000D+00 0.000D+00
 Coeff-En:   0.000D+00 0.100D+01
 Coeff:     -0.207D-01 0.265D-01-0.135D-01-0.652D-03-0.323D-02 0.104D+00
 Coeff:      0.443D+00 0.465D+00
 Gap=     0.125 Goal=   None    Shift=    0.000
 RMSDP=6.32D-05 MaxDP=2.04D-03 DE=-8.57D-04 OVMax= 4.10D-03

 Cycle   9  Pass 0  IDiag  1:
 CalDSu:  requested number of processors reduced to:   3 ShMem   1 Linda.
 E= -460.649931022568     Delta-E=       -0.000070352922 Rises=F Damp=F
 DIIS: error= 2.16D-04 at cycle   9 NSaved=   9.
 NSaved= 9 IEnMin= 9 EnMin= -460.649931022568     IErMin= 9 ErrMin= 2.16D-04
 ErrMax= 2.16D-04  0.00D+00 EMaxC= 1.00D-01 BMatC= 9.02D-06 BMatP= 7.40D-05
 IDIUse=3 WtCom= 9.98D-01 WtEn= 2.16D-03
 Coeff-Com: -0.910D-02 0.117D-01-0.831D-02-0.420D-03-0.238D-02 0.288D-01
 Coeff-Com:  0.107D+00 0.223D+00 0.649D+00
 Coeff-En:   0.000D+00 0.000D+00 0.000D+00 0.000D+00 0.000D+00 0.000D+00
 Coeff-En:   0.000D+00 0.000D+00 0.100D+01
 Coeff:     -0.908D-02 0.117D-01-0.829D-02-0.419D-03-0.237D-02 0.287D-01
 Coeff:      0.107D+00 0.223D+00 0.650D+00
 Gap=     0.125 Goal=   None    Shift=    0.000
 RMSDP=3.01D-05 MaxDP=5.83D-04 DE=-7.04D-05 OVMax= 2.07D-03

 Cycle  10  Pass 0  IDiag  1:
 CalDSu:  requested number of processors reduced to:   3 ShMem   1 Linda.
 E= -460.649943010289     Delta-E=       -0.000011987720 Rises=F Damp=F
 DIIS: error= 6.61D-05 at cycle  10 NSaved=  10.
 NSaved=10 IEnMin=10 EnMin= -460.649943010289     IErMin=10 ErrMin= 6.61D-05
 ErrMax= 6.61D-05  0.00D+00 EMaxC= 1.00D-01 BMatC= 1.71D-06 BMatP= 9.02D-06
 IDIUse=1 WtCom= 1.00D+00 WtEn= 0.00D+00
 Coeff-Com: -0.327D-02 0.435D-02-0.401D-02-0.273D-03-0.123D-02 0.247D-02
 Coeff-Com: -0.868D-02 0.649D-01 0.379D+00 0.567D+00
 Coeff:     -0.327D-02 0.435D-02-0.401D-02-0.273D-03-0.123D-02 0.247D-02
 Coeff:     -0.868D-02 0.649D-01 0.379D+00 0.567D+00
 Gap=     0.125 Goal=   None    Shift=    0.000
 RMSDP=1.23D-05 MaxDP=2.68D-04 DE=-1.20D-05 OVMax= 5.37D-04

 Cycle  11  Pass 0  IDiag  1:
 CalDSu:  requested number of processors reduced to:   3 ShMem   1 Linda.
 E= -460.649945018787     Delta-E=       -0.000002008499 Rises=F Damp=F
 DIIS: error= 2.31D-05 at cycle  11 NSaved=  11.
 NSaved=11 IEnMin=11 EnMin= -460.649945018787     IErMin=11 ErrMin= 2.31D-05
 ErrMax= 2.31D-05  0.00D+00 EMaxC= 1.00D-01 BMatC= 1.63D-07 BMatP= 1.71D-06
 IDIUse=1 WtCom= 1.00D+00 WtEn= 0.00D+00
 Coeff-Com: -0.113D-03 0.342D-03 0.369D-04-0.318D-04 0.448D-05-0.271D-02
 Coeff-Com: -0.240D-01-0.155D-01 0.127D-01 0.215D+00 0.814D+00
 Coeff:     -0.113D-03 0.342D-03 0.369D-04-0.318D-04 0.448D-05-0.271D-02
 Coeff:     -0.240D-01-0.155D-01 0.127D-01 0.215D+00 0.814D+00
 Gap=     0.125 Goal=   None    Shift=    0.000
 RMSDP=4.36D-06 MaxDP=9.18D-05 DE=-2.01D-06 OVMax= 2.33D-04

 Initial convergence to 1.0D-05 achieved.  Increase integral accuracy.
 Cycle  12  Pass 1  IDiag  1:
 CalDSu:  requested number of processors reduced to:   3 ShMem   1 Linda.
 E= -460.649952707947     Delta-E=       -0.000007689159 Rises=F Damp=F
 DIIS: error= 1.19D-05 at cycle   1 NSaved=   1.
 NSaved= 1 IEnMin= 1 EnMin= -460.649952707947     IErMin= 1 ErrMin= 1.19D-05
 ErrMax= 1.19D-05  0.00D+00 EMaxC= 1.00D-01 BMatC= 1.94D-08 BMatP= 1.94D-08
 IDIUse=1 WtCom= 1.00D+00 WtEn= 0.00D+00
 Coeff-Com:  0.100D+01
 Coeff:      0.100D+01
 Gap=     0.125 Goal=   None    Shift=    0.000
 RMSDP=4.36D-06 MaxDP=9.18D-05 DE=-7.69D-06 OVMax= 1.07D-04

 Cycle  13  Pass 1  IDiag  1:
 CalDSu:  requested number of processors reduced to:   3 ShMem   1 Linda.
 E= -460.649952685175     Delta-E=        0.000000022771 Rises=F Damp=F
 DIIS: error= 1.47D-05 at cycle   2 NSaved=   2.
 NSaved= 2 IEnMin= 1 EnMin= -460.649952707947     IErMin= 1 ErrMin= 1.19D-05
 ErrMax= 1.47D-05  0.00D+00 EMaxC= 1.00D-01 BMatC= 4.26D-08 BMatP= 1.94D-08
 IDIUse=1 WtCom= 1.00D+00 WtEn= 0.00D+00
 Coeff-Com:  0.607D+00 0.393D+00
 Coeff:      0.607D+00 0.393D+00
 Gap=     0.125 Goal=   None    Shift=    0.000
 RMSDP=1.61D-06 MaxDP=4.49D-05 DE= 2.28D-08 OVMax= 1.13D-04

 Cycle  14  Pass 1  IDiag  1:
 CalDSu:  requested number of processors reduced to:   3 ShMem   1 Linda.
 E= -460.649952727249     Delta-E=       -0.000000042073 Rises=F Damp=F
 DIIS: error= 3.02D-06 at cycle   3 NSaved=   3.
 NSaved= 3 IEnMin= 3 EnMin= -460.649952727249     IErMin= 3 ErrMin= 3.02D-06
 ErrMax= 3.02D-06  0.00D+00 EMaxC= 1.00D-01 BMatC= 1.43D-09 BMatP= 1.94D-08
 IDIUse=1 WtCom= 1.00D+00 WtEn= 0.00D+00
 Coeff-Com:  0.111D+00 0.170D+00 0.719D+00
 Coeff:      0.111D+00 0.170D+00 0.719D+00
 Gap=     0.125 Goal=   None    Shift=    0.000
 RMSDP=4.47D-07 MaxDP=1.25D-05 DE=-4.21D-08 OVMax= 2.82D-05

 Cycle  15  Pass 1  IDiag  1:
 CalDSu:  requested number of processors reduced to:   3 ShMem   1 Linda.
 E= -460.649952728351     Delta-E=       -0.000000001102 Rises=F Damp=F
 DIIS: error= 1.31D-06 at cycle   4 NSaved=   4.
 NSaved= 4 IEnMin= 4 EnMin= -460.649952728351     IErMin= 4 ErrMin= 1.31D-06
 ErrMax= 1.31D-06  0.00D+00 EMaxC= 1.00D-01 BMatC= 5.37D-10 BMatP= 1.43D-09
 IDIUse=1 WtCom= 1.00D+00 WtEn= 0.00D+00
 Coeff-Com: -0.554D-02 0.585D-01 0.462D+00 0.485D+00
 Coeff:     -0.554D-02 0.585D-01 0.462D+00 0.485D+00
 Gap=     0.125 Goal=   None    Shift=    0.000
 RMSDP=1.82D-07 MaxDP=4.41D-06 DE=-1.10D-09 OVMax= 1.38D-05

 Cycle  16  Pass 1  IDiag  1:
 CalDSu:  requested number of processors reduced to:   3 ShMem   1 Linda.
 E= -460.649952728865     Delta-E=       -0.000000000514 Rises=F Damp=F
 DIIS: error= 3.40D-07 at cycle   5 NSaved=   5.
 NSaved= 5 IEnMin= 5 EnMin= -460.649952728865     IErMin= 5 ErrMin= 3.40D-07
 ErrMax= 3.40D-07  0.00D+00 EMaxC= 1.00D-01 BMatC= 2.43D-11 BMatP= 5.37D-10
 IDIUse=1 WtCom= 1.00D+00 WtEn= 0.00D+00
 Coeff-Com: -0.907D-02 0.242D-01 0.223D+00 0.277D+00 0.485D+00
 Coeff:     -0.907D-02 0.242D-01 0.223D+00 0.277D+00 0.485D+00
 Gap=     0.125 Goal=   None    Shift=    0.000
 RMSDP=4.82D-08 MaxDP=1.21D-06 DE=-5.14D-10 OVMax= 3.86D-06

 SCF Done:  E(RB3LYP) =  -460.649952729     A.U. after   16 cycles
            NFock= 16  Conv=0.48D-07     -V/T= 2.0084
 KE= 4.567917427641D+02 PE=-2.099566448739D+03 EE= 6.756145771284D+02
 Leave Link  502 at Wed Dec 03 11:18:16 2025, MaxMem=   104857600 cpu:              19.0 elap:              19.0
 (Enter D:\Gaussian\G16W\l601.exe)
 Copying SCF densities to generalized density rwf, IOpCl= 0 IROHF=0.

 **********************************************************************

            Population analysis using the SCF density.

 **********************************************************************

 Orbital symmetries:
       Occupied  (A) (A) (A) (A) (A) (A) (A) (A) (A) (A) (A) (A)
                 (A) (A) (A) (A) (A) (A) (A) (A) (A) (A) (A) (A)
                 (A) (A) (A) (A) (A) (A) (A) (A) (A) (A) (A) (A)
                 (A)
       Virtual   (A) (A) (A) (A) (A) (A) (A) (A) (A) (A) (A) (A)
                 (A) (A) (A) (A) (A) (A) (A) (A) (A) (A) (A) (A)
                 (A) (A) (A) (A) (A) (A) (A) (A) (A) (A) (A) (A)
                 (A) (A) (A) (A) (A) (A) (A) (A) (A) (A) (A) (A)
                 (A) (A) (A) (A) (A) (A) (A) (A) (A) (A) (A) (A)
                 (A) (A) (A) (A) (A) (A) (A) (A) (A) (A) (A) (A)
                 (A) (A) (A) (A) (A) (A) (A) (A) (A) (A) (A) (A)
                 (A) (A) (A) (A) (A) (A) (A) (A) (A) (A) (A) (A)
                 (A) (A) (A) (A) (A) (A) (A) (A) (A) (A) (A) (A)
                 (A) (A) (A) (A) (A) (A) (A) (A) (A) (A) (A) (A)
                 (A) (A) (A) (A) (A) (A) (A) (A) (A) (A) (A)
 The electronic state is 1-A.
 Alpha  occ. eigenvalues --  -19.03306 -18.99077 -10.11785 -10.05880 -10.02926
 Alpha  occ. eigenvalues --   -9.99560  -9.98523  -9.98155  -9.97263  -9.92439
 Alpha  occ. eigenvalues --   -0.91852  -0.87335  -0.65069  -0.59697  -0.55535
 Alpha  occ. eigenvalues --   -0.53102  -0.45418  -0.43025  -0.39389  -0.37022
 Alpha  occ. eigenvalues --   -0.33713  -0.33469  -0.31596  -0.28405  -0.25066
 Alpha  occ. eigenvalues --   -0.23927  -0.23246  -0.21248  -0.20710  -0.18102
 Alpha  occ. eigenvalues --   -0.17054  -0.15755  -0.14393  -0.13921  -0.05541
 Alpha  occ. eigenvalues --   -0.03765   0.07692
 Alpha virt. eigenvalues --    0.20189   0.22155   0.22912   0.24454   0.26484
 Alpha virt. eigenvalues --    0.28723   0.28971   0.29186   0.30953   0.33397
 Alpha virt. eigenvalues --    0.36013   0.37682   0.38077   0.40405   0.45663
 Alpha virt. eigenvalues --    0.47204   0.51941   0.52457   0.56727   0.58676
 Alpha virt. eigenvalues --    0.64345   0.66762   0.67224   0.69035   0.71244
 Alpha virt. eigenvalues --    0.72272   0.74059   0.77000   0.77138   0.78544
 Alpha virt. eigenvalues --    0.78983   0.80524   0.81694   0.83564   0.84400
 Alpha virt. eigenvalues --    0.85572   0.87439   0.88050   0.90989   0.91486
 Alpha virt. eigenvalues --    0.96040   0.96209   1.00511   1.00948   1.02797
 Alpha virt. eigenvalues --    1.04958   1.05692   1.07074   1.08364   1.11536
 Alpha virt. eigenvalues --    1.12533   1.13811   1.15611   1.16740   1.18078
 Alpha virt. eigenvalues --    1.21754   1.22376   1.26654   1.28575   1.31209
 Alpha virt. eigenvalues --    1.34463   1.40128   1.43354   1.43549   1.47514
 Alpha virt. eigenvalues --    1.51693   1.52334   1.57190   1.57664   1.59630
 Alpha virt. eigenvalues --    1.63380   1.64736   1.67261   1.69074   1.69234
 Alpha virt. eigenvalues --    1.83175   1.89592   1.89879   1.93615   1.94207
 Alpha virt. eigenvalues --    1.98699   2.02333   2.04621   2.07080   2.10061
 Alpha virt. eigenvalues --    2.13095   2.13867   2.14214   2.14397   2.19577
 Alpha virt. eigenvalues --    2.22883   2.23931   2.26130   2.28706   2.29825
 Alpha virt. eigenvalues --    2.37856   2.40005   2.41245   2.48105   2.48343
 Alpha virt. eigenvalues --    2.50617   2.50958   2.55852   2.61898   2.62138
 Alpha virt. eigenvalues --    2.63999   2.64514   2.75976   2.77765   2.80986
 Alpha virt. eigenvalues --    2.84711   2.86547   2.88650   2.98470   3.02253
 Alpha virt. eigenvalues --    3.09004   3.11496   3.19111   3.23050   3.43462
 Alpha virt. eigenvalues --    3.63410   4.10388   4.28218   4.29528   4.35110
 Alpha virt. eigenvalues --    4.37079   4.43349   4.51272   4.59314   4.75847
 Alpha virt. eigenvalues --    5.12910
          Condensed to atoms (all electrons):
               1          2          3          4          5          6
     1  C    5.200467   0.500779  -0.031272  -0.055553  -0.029162   0.468540
     2  C    0.500779   4.979568   0.551319  -0.036295  -0.057612   0.001598
     3  C   -0.031272   0.551319   4.780504   0.452202  -0.047523  -0.031004
     4  C   -0.055553  -0.036295   0.452202   4.853790   0.404573   0.022437
     5  C   -0.029162  -0.057612  -0.047523   0.404573   5.454145   0.419341
     6  C    0.468540   0.001598  -0.031004   0.022437   0.419341   4.319825
     7  H    0.336473  -0.067006   0.005993   0.000109   0.009360  -0.036961
     8  H   -0.050146   0.323596  -0.046214   0.009006   0.000206   0.004025
     9  H    0.008200   0.000449   0.003085  -0.071218   0.330223  -0.026225
    10  O    0.003641  -0.050334   0.243538  -0.065475   0.006174  -0.000069
    11  H   -0.000055   0.005228  -0.045497  -0.014524   0.001608  -0.000129
    12  O    0.000349   0.003427  -0.050245   0.209783  -0.062823   0.002628
    13  C    0.000005  -0.000131   0.004579  -0.043251  -0.008060   0.000217
    14  H    0.000000   0.000006   0.000035   0.002766   0.000357   0.000007
    15  H   -0.000002  -0.000008  -0.000206  -0.000943   0.006268  -0.000160
    16  H   -0.000002  -0.000008  -0.000207  -0.000945   0.006265  -0.000160
    17  C   -0.092654   0.009710   0.000980   0.009578  -0.084497   0.568562
    18  H   -0.014005   0.000053   0.000024  -0.000318   0.006577  -0.008648
    19  H    0.006976  -0.000344   0.000017   0.000081  -0.015375  -0.008420
               7          8          9         10         11         12
     1  C    0.336473  -0.050146   0.008200   0.003641  -0.000055   0.000349
     2  C   -0.067006   0.323596   0.000449  -0.050334   0.005228   0.003427
     3  C    0.005993  -0.046214   0.003085   0.243538  -0.045497  -0.050245
     4  C    0.000109   0.009006  -0.071218  -0.065475  -0.014524   0.209783
     5  C    0.009360   0.000206   0.330223   0.006174   0.001608  -0.062823
     6  C   -0.036961   0.004025  -0.026225  -0.000069  -0.000129   0.002628
     7  H    0.732299  -0.008555  -0.000223  -0.000065   0.000007   0.000002
     8  H   -0.008555   0.719639   0.000023  -0.001389  -0.000526  -0.000071
     9  H   -0.000223   0.000023   0.711340  -0.000061  -0.000018  -0.007892
    10  O   -0.000065  -0.001389  -0.000061   8.335702   0.244376  -0.012844
    11  H    0.000007  -0.000526  -0.000018   0.244376   0.393429   0.030600
    12  O    0.000002  -0.000071  -0.007892  -0.012844   0.030600   8.302430
    13  C    0.000000   0.000005   0.005195   0.000291  -0.001745   0.266204
    14  H    0.000000   0.000000   0.000071   0.000013  -0.000136  -0.037106
    15  H    0.000000   0.000000   0.001433  -0.000020   0.000120  -0.038581
    16  H    0.000000   0.000000   0.001433  -0.000020   0.000120  -0.038582
    17  C   -0.016706  -0.000209  -0.016438  -0.000001   0.000000  -0.000058
    18  H    0.009537  -0.000009  -0.000019   0.000000   0.000000   0.000000
    19  H   -0.000004   0.000003   0.009836   0.000000   0.000000   0.000000
              13         14         15         16         17         18
     1  C    0.000005   0.000000  -0.000002  -0.000002  -0.092654  -0.014005
     2  C   -0.000131   0.000006  -0.000008  -0.000008   0.009710   0.000053
     3  C    0.004579   0.000035  -0.000206  -0.000207   0.000980   0.000024
     4  C   -0.043251   0.002766  -0.000943  -0.000945   0.009578  -0.000318
     5  C   -0.008060   0.000357   0.006268   0.006265  -0.084497   0.006577
     6  C    0.000217   0.000007  -0.000160  -0.000160   0.568562  -0.008648
     7  H    0.000000   0.000000   0.000000   0.000000  -0.016706   0.009537
     8  H    0.000005   0.000000   0.000000   0.000000  -0.000209  -0.000009
     9  H    0.005195   0.000071   0.001433   0.001433  -0.016438  -0.000019
    10  O    0.000291   0.000013  -0.000020  -0.000020  -0.000001   0.000000
    11  H   -0.001745  -0.000136   0.000120   0.000120   0.000000   0.000000
    12  O    0.266204  -0.037106  -0.038581  -0.038582  -0.000058   0.000000
    13  C    4.861758   0.376116   0.359213   0.359221  -0.000007   0.000000
    14  H    0.376116   0.614116  -0.037991  -0.037999   0.000000   0.000000
    15  H    0.359213  -0.037991   0.628707  -0.054290  -0.000012   0.000000
    16  H    0.359221  -0.037999  -0.054290   0.628719  -0.000012   0.000000
    17  C   -0.000007   0.000000  -0.000012  -0.000012   5.548088   0.331161
    18  H    0.000000   0.000000   0.000000   0.000000   0.331161   0.718069
    19  H   -0.000005   0.000000  -0.000001  -0.000001   0.326571  -0.062740
              19
     1  C    0.006976
     2  C   -0.000344
     3  C    0.000017
     4  C    0.000081
     5  C   -0.015375
     6  C   -0.008420
     7  H   -0.000004
     8  H    0.000003
     9  H    0.009836
    10  O    0.000000
    11  H    0.000000
    12  O    0.000000
    13  C   -0.000005
    14  H    0.000000
    15  H   -0.000001
    16  H   -0.000001
    17  C    0.326571
    18  H   -0.062740
    19  H    0.728440
 Mulliken charges:
               1
     1  C   -0.252579
     2  C   -0.163995
     3  C    0.209891
     4  C    0.324199
     5  C   -0.340046
     6  C    0.304596
     7  H    0.035739
     8  H    0.050616
     9  H    0.050805
    10  O   -0.703457
    11  H    0.387141
    12  O   -0.567222
    13  C   -0.179605
    14  H    0.119746
    15  H    0.136473
    16  H    0.136467
    17  C   -0.584055
    18  H    0.020318
    19  H    0.014967
 Sum of Mulliken charges =  -1.00000
 Mulliken charges with hydrogens summed into heavy atoms:
               1
     1  C   -0.216840
     2  C   -0.113378
     3  C    0.209891
     4  C    0.324199
     5  C   -0.289241
     6  C    0.304596
    10  O   -0.316316
    12  O   -0.567222
    13  C    0.213081
    17  C   -0.548770
 Electronic spatial extent (au):  <R**2>=           1548.2422
 Charge=             -1.0000 electrons
 Dipole moment (field-independent basis, Debye):
    X=              6.8094    Y=             -0.9274    Z=              0.0002  Tot=              6.8723
 Quadrupole moment (field-independent basis, Debye-Ang):
   XX=            -80.0638   YY=            -71.8110   ZZ=            -65.6467
   XY=            -12.2512   XZ=              0.0003   YZ=             -0.0002
 Traceless Quadrupole moment (field-independent basis, Debye-Ang):
   XX=             -7.5567   YY=              0.6962   ZZ=              6.8605
   XY=            -12.2512   XZ=              0.0003   YZ=             -0.0002
 Octapole moment (field-independent basis, Debye-Ang**2):
  XXX=             92.3246  YYY=             -7.9975  ZZZ=              0.0001  XYY=             20.4545
  XXY=             24.0910  XXZ=              0.0014  XZZ=             16.8230  YZZ=              3.1489
  YYZ=              0.0001  XYZ=             -0.0004
 Hexadecapole moment (field-independent basis, Debye-Ang**3):
 XXXX=          -1373.9578 YYYY=           -839.9393 ZZZZ=            -73.6049 XXXY=            -81.1979
 XXXZ=             -0.0034 YYYX=            -58.8882 YYYZ=              0.0032 ZZZX=             -0.0050
 ZZZY=              0.0022 XXYY=           -382.4446 XXZZ=           -242.2051 YYZZ=           -152.7173
 XXYZ=             -0.0004 YYXZ=             -0.0014 ZZXY=             -7.6808
 N-N= 5.065101761177D+02 E-N=-2.099566407484D+03  KE= 4.567917427641D+02
 No NMR shielding tensors so no spin-rotation constants.
 Leave Link  601 at Wed Dec 03 11:18:16 2025, MaxMem=   104857600 cpu:               0.0 elap:               0.2
 (Enter D:\Gaussian\G16W\l9999.exe)
 1|1|UNPC-PC-20250526LCFF|SP|RB3LYP|6-31G(d)|C8H9O2(1-)|ADMINISTRATOR|0
 3-Dec-2025|0||#P B3LYP/6-31G* SCF=conver=7 out=wfn||Generated by Multi
 wfn (http://sobereva.com/multiwfn)||-1,1|C,0,-1.948433,0.874527,0.0000
 09|C,0,-0.874855,1.747164,0.00001|C,0,0.430422,1.258858,-0.000009|C,0,
 0.649483,-0.140489,-0.000032|C,0,-0.411197,-1.018283,-0.000036|C,0,-1.
 759575,-0.537236,-0.000014|H,0,-2.958886,1.266738,0.000024|H,0,-1.0207
 12,2.820817,0.000029|H,0,-0.243277,-2.087456,-0.00006|O,0,1.484759,2.1
 14687,-0.000005|H,0,2.288128,1.576405,-0.000008|O,0,1.981581,-0.475822
 ,-0.000064|C,0,2.332431,-1.853471,0.000111|H,0,3.420579,-1.887461,0.00
 0186|H,0,1.951514,-2.35782,0.894331|H,0,1.951639,-2.358017,-0.894052|C
 ,0,-2.844879,-1.420862,-0.000015|H,0,-3.862449,-1.051863,-0.000002|H,0
 ,-2.697634,-2.493503,-0.000033||Version=EM64W-G16RevA.03|State=1-A|HF=
 -460.6499527|RMSD=4.816e-008|Dipole=2.6790211,-0.3648647,0.0000906|Qua
 drupole=-5.6181906,0.5175861,5.1006045,-9.1084676,0.0002534,-0.0001328
 |PG=C01 [X(C8H9O2)]||@

 Writing a WFN file to "N+1.wfn"


 MEN HAVE BECOME THE TOOLS OF THEIR TOOLS... THOREAU   
 Job cpu time:       0 days  0 hours  0 minutes 21.0 seconds.
 Elapsed time:       0 days  0 hours  0 minutes 21.3 seconds.
 File lengths (MBytes):  RWF=     15 Int=      0 D2E=      0 Chk=      3 Scr=      1
 Normal termination of Gaussian 16 at Wed Dec 03 11:18:16 2025.
