 Generated by Multiwfn (http://sobereva.com/multiwfn)
GAUSSIAN             37 MOL ORBITALS    316 PRIMITIVES       19 NUCLEI
  C    1    (CENTRE  1)  -3.68200434  1.65261744  0.00001683  CHARGE =  6.0
  C    2    (CENTRE  2)  -1.65323544  3.30166175  0.00001872  CHARGE =  6.0
  C    3    (CENTRE  3)   0.81338032  2.37889639 -0.00001719  CHARGE =  6.0
  C    4    (CENTRE  4)   1.22734481 -0.26548632 -0.00006065  CHARGE =  6.0
  C    5    (CENTRE  5)  -0.77705041 -1.92427596 -0.00006821  CHARGE =  6.0
  C    6    (CENTRE  6)  -3.32511526 -1.01522809 -0.00002664  CHARGE =  6.0
  H    7    (CENTRE  7)  -5.59148354  2.39378940  0.00004517  CHARGE =  1.0
  H    8    (CENTRE  8)  -1.92886460  5.33057196  0.00005462  CHARGE =  1.0
  H    9    (CENTRE  9)  -0.45972821 -3.94472020 -0.00011356  CHARGE =  1.0
  O   10    (CENTRE 10)   2.80578899  3.99617820 -0.00000963  CHARGE =  8.0
  H   11    (CENTRE 11)   4.32393607  2.97897218 -0.00001530  CHARGE =  1.0
  O   12    (CENTRE 12)   3.74464500 -0.89917462 -0.00012112  CHARGE =  8.0
  C   13    (CENTRE 13)   4.40765462 -3.50255413  0.00020958  CHARGE =  6.0
  H   14    (CENTRE 14)   6.46395630 -3.56678655  0.00035131  CHARGE =  1.0
  H   15    (CENTRE 15)   3.68782552 -4.45563539  1.69004047  CHARGE =  1.0
  H   16    (CENTRE 16)   3.68806174 -4.45600766 -1.68951360  CHARGE =  1.0
  C   17    (CENTRE 17)  -5.37604309 -2.68503860 -0.00002853  CHARGE =  6.0
  H   18    (CENTRE 18)  -7.29897149 -1.98773096 -0.00000396  CHARGE =  1.0
  H   19    (CENTRE 19)  -5.09779099 -4.71203641 -0.00006254  CHARGE =  1.0
CENTRE ASSIGNMENTS    1  1  1  1  1  1  1  1  1  1  1  1  1  1  1  1  1  1  1  1
CENTRE ASSIGNMENTS    1  1  1  1  1  1  1  1  2  2  2  2  2  2  2  2  2  2  2  2
CENTRE ASSIGNMENTS    2  2  2  2  2  2  2  2  2  2  2  2  2  2  2  2  3  3  3  3
CENTRE ASSIGNMENTS    3  3  3  3  3  3  3  3  3  3  3  3  3  3  3  3  3  3  3  3
CENTRE ASSIGNMENTS    3  3  3  3  4  4  4  4  4  4  4  4  4  4  4  4  4  4  4  4
CENTRE ASSIGNMENTS    4  4  4  4  4  4  4  4  4  4  4  4  5  5  5  5  5  5  5  5
CENTRE ASSIGNMENTS    5  5  5  5  5  5  5  5  5  5  5  5  5  5  5  5  5  5  5  5
CENTRE ASSIGNMENTS    6  6  6  6  6  6  6  6  6  6  6  6  6  6  6  6  6  6  6  6
CENTRE ASSIGNMENTS    6  6  6  6  6  6  6  6  7  7  7  7  8  8  8  8  9  9  9  9
CENTRE ASSIGNMENTS   10 10 10 10 10 10 10 10 10 10 10 10 10 10 10 10 10 10 10 10
CENTRE ASSIGNMENTS   10 10 10 10 10 10 10 10 11 11 11 11 12 12 12 12 12 12 12 12
CENTRE ASSIGNMENTS   12 12 12 12 12 12 12 12 12 12 12 12 12 12 12 12 12 12 12 12
CENTRE ASSIGNMENTS   13 13 13 13 13 13 13 13 13 13 13 13 13 13 13 13 13 13 13 13
CENTRE ASSIGNMENTS   13 13 13 13 13 13 13 13 14 14 14 14 15 15 15 15 16 16 16 16
CENTRE ASSIGNMENTS   17 17 17 17 17 17 17 17 17 17 17 17 17 17 17 17 17 17 17 17
CENTRE ASSIGNMENTS   17 17 17 17 17 17 17 17 18 18 18 18 19 19 19 19
TYPE ASSIGNMENTS      1  1  1  1  1  1  1  1  1  2  2  2  3  3  3  4  4  4  1  2
TYPE ASSIGNMENTS      3  4  5  6  7  8  9 10  1  1  1  1  1  1  1  1  1  2  2  2
TYPE ASSIGNMENTS      3  3  3  4  4  4  1  2  3  4  5  6  7  8  9 10  1  1  1  1
TYPE ASSIGNMENTS      1  1  1  1  1  2  2  2  3  3  3  4  4  4  1  2  3  4  5  6
TYPE ASSIGNMENTS      7  8  9 10  1  1  1  1  1  1  1  1  1  2  2  2  3  3  3  4
TYPE ASSIGNMENTS      4  4  1  2  3  4  5  6  7  8  9 10  1  1  1  1  1  1  1  1
TYPE ASSIGNMENTS      1  2  2  2  3  3  3  4  4  4  1  2  3  4  5  6  7  8  9 10
TYPE ASSIGNMENTS      1  1  1  1  1  1  1  1  1  2  2  2  3  3  3  4  4  4  1  2
TYPE ASSIGNMENTS      3  4  5  6  7  8  9 10  1  1  1  1  1  1  1  1  1  1  1  1
TYPE ASSIGNMENTS      1  1  1  1  1  1  1  1  1  2  2  2  3  3  3  4  4  4  1  2
TYPE ASSIGNMENTS      3  4  5  6  7  8  9 10  1  1  1  1  1  1  1  1  1  1  1  1
TYPE ASSIGNMENTS      1  2  2  2  3  3  3  4  4  4  1  2  3  4  5  6  7  8  9 10
TYPE ASSIGNMENTS      1  1  1  1  1  1  1  1  1  2  2  2  3  3  3  4  4  4  1  2
TYPE ASSIGNMENTS      3  4  5  6  7  8  9 10  1  1  1  1  1  1  1  1  1  1  1  1
TYPE ASSIGNMENTS      1  1  1  1  1  1  1  1  1  2  2  2  3  3  3  4  4  4  1  2
TYPE ASSIGNMENTS      3  4  5  6  7  8  9 10  1  1  1  1  1  1  1  1
EXPONENTS  0.3047525D+04 0.4573695D+03 0.1039487D+03 0.2921016D+02 0.9286663D+01
EXPONENTS  0.3163927D+01 0.7868272D+01 0.1881289D+01 0.5442493D+00 0.7868272D+01
EXPONENTS  0.1881289D+01 0.5442493D+00 0.7868272D+01 0.1881289D+01 0.5442493D+00
EXPONENTS  0.7868272D+01 0.1881289D+01 0.5442493D+00 0.1687145D+00 0.1687145D+00
EXPONENTS  0.1687145D+00 0.1687145D+00 0.8000000D+00 0.8000000D+00 0.8000000D+00
EXPONENTS  0.8000000D+00 0.8000000D+00 0.8000000D+00 0.3047525D+04 0.4573695D+03
EXPONENTS  0.1039487D+03 0.2921016D+02 0.9286663D+01 0.3163927D+01 0.7868272D+01
EXPONENTS  0.1881289D+01 0.5442493D+00 0.7868272D+01 0.1881289D+01 0.5442493D+00
EXPONENTS  0.7868272D+01 0.1881289D+01 0.5442493D+00 0.7868272D+01 0.1881289D+01
EXPONENTS  0.5442493D+00 0.1687145D+00 0.1687145D+00 0.1687145D+00 0.1687145D+00
EXPONENTS  0.8000000D+00 0.8000000D+00 0.8000000D+00 0.8000000D+00 0.8000000D+00
EXPONENTS  0.8000000D+00 0.3047525D+04 0.4573695D+03 0.1039487D+03 0.2921016D+02
EXPONENTS  0.9286663D+01 0.3163927D+01 0.7868272D+01 0.1881289D+01 0.5442493D+00
EXPONENTS  0.7868272D+01 0.1881289D+01 0.5442493D+00 0.7868272D+01 0.1881289D+01
EXPONENTS  0.5442493D+00 0.7868272D+01 0.1881289D+01 0.5442493D+00 0.1687145D+00
EXPONENTS  0.1687145D+00 0.1687145D+00 0.1687145D+00 0.8000000D+00 0.8000000D+00
EXPONENTS  0.8000000D+00 0.8000000D+00 0.8000000D+00 0.8000000D+00 0.3047525D+04
EXPONENTS  0.4573695D+03 0.1039487D+03 0.2921016D+02 0.9286663D+01 0.3163927D+01
EXPONENTS  0.7868272D+01 0.1881289D+01 0.5442493D+00 0.7868272D+01 0.1881289D+01
EXPONENTS  0.5442493D+00 0.7868272D+01 0.1881289D+01 0.5442493D+00 0.7868272D+01
EXPONENTS  0.1881289D+01 0.5442493D+00 0.1687145D+00 0.1687145D+00 0.1687145D+00
EXPONENTS  0.1687145D+00 0.8000000D+00 0.8000000D+00 0.8000000D+00 0.8000000D+00
EXPONENTS  0.8000000D+00 0.8000000D+00 0.3047525D+04 0.4573695D+03 0.1039487D+03
EXPONENTS  0.2921016D+02 0.9286663D+01 0.3163927D+01 0.7868272D+01 0.1881289D+01
EXPONENTS  0.5442493D+00 0.7868272D+01 0.1881289D+01 0.5442493D+00 0.7868272D+01
EXPONENTS  0.1881289D+01 0.5442493D+00 0.7868272D+01 0.1881289D+01 0.5442493D+00
EXPONENTS  0.1687145D+00 0.1687145D+00 0.1687145D+00 0.1687145D+00 0.8000000D+00
EXPONENTS  0.8000000D+00 0.8000000D+00 0.8000000D+00 0.8000000D+00 0.8000000D+00
EXPONENTS  0.3047525D+04 0.4573695D+03 0.1039487D+03 0.2921016D+02 0.9286663D+01
EXPONENTS  0.3163927D+01 0.7868272D+01 0.1881289D+01 0.5442493D+00 0.7868272D+01
EXPONENTS  0.1881289D+01 0.5442493D+00 0.7868272D+01 0.1881289D+01 0.5442493D+00
EXPONENTS  0.7868272D+01 0.1881289D+01 0.5442493D+00 0.1687145D+00 0.1687145D+00
EXPONENTS  0.1687145D+00 0.1687145D+00 0.8000000D+00 0.8000000D+00 0.8000000D+00
EXPONENTS  0.8000000D+00 0.8000000D+00 0.8000000D+00 0.1873114D+02 0.2825394D+01
EXPONENTS  0.6401217D+00 0.1612778D+00 0.1873114D+02 0.2825394D+01 0.6401217D+00
EXPONENTS  0.1612778D+00 0.1873114D+02 0.2825394D+01 0.6401217D+00 0.1612778D+00
EXPONENTS  0.5484672D+04 0.8252349D+03 0.1880470D+03 0.5296450D+02 0.1689757D+02
EXPONENTS  0.5799635D+01 0.1553962D+02 0.3599934D+01 0.1013762D+01 0.1553962D+02
EXPONENTS  0.3599934D+01 0.1013762D+01 0.1553962D+02 0.3599934D+01 0.1013762D+01
EXPONENTS  0.1553962D+02 0.3599934D+01 0.1013762D+01 0.2700058D+00 0.2700058D+00
EXPONENTS  0.2700058D+00 0.2700058D+00 0.8000000D+00 0.8000000D+00 0.8000000D+00
EXPONENTS  0.8000000D+00 0.8000000D+00 0.8000000D+00 0.1873114D+02 0.2825394D+01
EXPONENTS  0.6401217D+00 0.1612778D+00 0.5484672D+04 0.8252349D+03 0.1880470D+03
EXPONENTS  0.5296450D+02 0.1689757D+02 0.5799635D+01 0.1553962D+02 0.3599934D+01
EXPONENTS  0.1013762D+01 0.1553962D+02 0.3599934D+01 0.1013762D+01 0.1553962D+02
EXPONENTS  0.3599934D+01 0.1013762D+01 0.1553962D+02 0.3599934D+01 0.1013762D+01
EXPONENTS  0.2700058D+00 0.2700058D+00 0.2700058D+00 0.2700058D+00 0.8000000D+00
EXPONENTS  0.8000000D+00 0.8000000D+00 0.8000000D+00 0.8000000D+00 0.8000000D+00
EXPONENTS  0.3047525D+04 0.4573695D+03 0.1039487D+03 0.2921016D+02 0.9286663D+01
EXPONENTS  0.3163927D+01 0.7868272D+01 0.1881289D+01 0.5442493D+00 0.7868272D+01
EXPONENTS  0.1881289D+01 0.5442493D+00 0.7868272D+01 0.1881289D+01 0.5442493D+00
EXPONENTS  0.7868272D+01 0.1881289D+01 0.5442493D+00 0.1687145D+00 0.1687145D+00
EXPONENTS  0.1687145D+00 0.1687145D+00 0.8000000D+00 0.8000000D+00 0.8000000D+00
EXPONENTS  0.8000000D+00 0.8000000D+00 0.8000000D+00 0.1873114D+02 0.2825394D+01
EXPONENTS  0.6401217D+00 0.1612778D+00 0.1873114D+02 0.2825394D+01 0.6401217D+00
EXPONENTS  0.1612778D+00 0.1873114D+02 0.2825394D+01 0.6401217D+00 0.1612778D+00
EXPONENTS  0.3047525D+04 0.4573695D+03 0.1039487D+03 0.2921016D+02 0.9286663D+01
EXPONENTS  0.3163927D+01 0.7868272D+01 0.1881289D+01 0.5442493D+00 0.7868272D+01
EXPONENTS  0.1881289D+01 0.5442493D+00 0.7868272D+01 0.1881289D+01 0.5442493D+00
EXPONENTS  0.7868272D+01 0.1881289D+01 0.5442493D+00 0.1687145D+00 0.1687145D+00
EXPONENTS  0.1687145D+00 0.1687145D+00 0.8000000D+00 0.8000000D+00 0.8000000D+00
EXPONENTS  0.8000000D+00 0.8000000D+00 0.8000000D+00 0.1873114D+02 0.2825394D+01
EXPONENTS  0.6401217D+00 0.1612778D+00 0.1873114D+02 0.2825394D+01 0.6401217D+00
EXPONENTS  0.1612778D+00
MO    1     MO 0.0        OCC NO =    2.0000000  ORB. ENERGY =  -19.033060
  0.40337952D-05  0.74415645D-05  0.12012993D-04  0.15637347D-04  0.13343376D-04
  0.46071472D-05 -0.14579349D-04 -0.67196084D-05  0.18842483D-04  0.17265290D-04
  0.13237929D-04  0.66066545D-05 -0.39152168D-05 -0.30019399D-05 -0.14981784D-05
  0.16112861D-08  0.12354320D-08  0.61656715D-09 -0.13011908D-03 -0.97065783D-04
 -0.27970601D-04 -0.33677746D-09  0.90074013D-05 -0.85256861D-05  0.19755144D-04
 -0.12439416D-04 -0.79875046D-09 -0.70624467D-09  0.58429021D-05  0.10779013D-04
  0.17400670D-04  0.22650502D-04  0.19327714D-04  0.66733953D-05 -0.15679015D-04
 -0.72264436D-05  0.20263702D-04  0.62701772D-04  0.48075742D-04  0.23993165D-04
 -0.54256220D-04 -0.41600228D-04 -0.20761429D-04 -0.46701587D-09 -0.35807815D-09
 -0.17870609D-09  0.21310273D-03 -0.38882693D-04 -0.95295853D-04  0.52987370D-09
  0.22651520D-04  0.18086142D-04  0.36737471D-04  0.32336495D-05  0.38363548D-08
 -0.14569554D-08  0.12933004D-04  0.23858867D-04  0.38515609D-04  0.50135878D-04
  0.42781036D-04  0.14771264D-04 -0.68115001D-04 -0.31394142D-04  0.88032450D-04
  0.77009193D-04  0.59045765D-04  0.29467975D-04  0.45445355D-04  0.34844616D-04
  0.17389906D-04  0.32630294D-08  0.25018840D-08  0.12486154D-08 -0.81966743D-04
  0.29144823D-03  0.22221145D-03 -0.48560207D-08  0.19169862D-04  0.22563691D-05
  0.31258151D-04  0.14712747D-03  0.44615934D-08  0.14007143D-08 -0.27173148D-04
 -0.50129151D-04 -0.80923993D-04 -0.10533899D-03 -0.89885955D-04 -0.31035460D-04
 -0.25426618D-04 -0.11719105D-04  0.32861594D-04  0.57042152D-03  0.43736304D-03
  0.21827481D-03 -0.68028656D-04 -0.52160058D-04 -0.26031525D-04 -0.30046258D-07
 -0.23037565D-07 -0.11497359D-07  0.36919628D-04 -0.78045445D-03  0.65619571D-04
  0.21592378D-07  0.12436123D-03 -0.59963606D-04 -0.10000547D-03  0.62158053D-04
 -0.16555037D-07 -0.63498037D-08  0.13940656D-04  0.25717787D-04  0.41516483D-04
  0.54042125D-04  0.46114243D-04  0.15922140D-04 -0.92337291D-04 -0.42558173D-04
  0.11933756D-03 -0.95557672D-04 -0.73267562D-04 -0.36565648D-04 -0.78956014D-05
 -0.60538464D-05 -0.30212936D-05  0.39096441D-11  0.29976671D-11  0.14960460D-11
 -0.70190643D-03  0.11120307D-03 -0.35155423D-03 -0.10957212D-07 -0.95872504D-04
 -0.75706711D-04  0.58328868D-04 -0.29574844D-04 -0.20687035D-08 -0.14993270D-07
 -0.50101636D-05 -0.92427735D-05 -0.14920702D-04 -0.19422321D-04 -0.16573102D-04
 -0.57222938D-05  0.31300058D-04  0.14426168D-04 -0.40452481D-04  0.53751055D-04
  0.41212899D-04  0.20568125D-04 -0.16283268D-05 -0.12484977D-05 -0.62308787D-06
  0.87959291D-09  0.67441605D-09  0.33658088D-09  0.34165920D-03  0.19384035D-03
 -0.33801911D-04 -0.19076293D-08  0.66078707D-04 -0.35800045D-05 -0.76125988D-05
 -0.39665139D-04 -0.68415898D-09 -0.77255077D-09 -0.46450601D-05 -0.78789012D-05
 -0.89698505D-05 -0.25047322D-04  0.42565991D-05  0.72199978D-05  0.82197123D-05
  0.15141875D-04 -0.15564406D-04 -0.26400179D-04 -0.30055671D-04 -0.11721837D-03
  0.25722189D-04  0.47342559D-04  0.76609198D-04  0.10070493D-03  0.86374037D-04
  0.29532750D-04 -0.10438769D-03 -0.46577584D-04  0.13754423D-03 -0.22953072D-03
 -0.17684104D-03 -0.77642743D-04 -0.11013187D-03 -0.84850670D-04 -0.37254014D-04
 -0.12653913D-07 -0.97491580D-08 -0.42804055D-08 -0.30606030D-03  0.23454482D-03
  0.68412200D-04  0.42441280D-08  0.92386569D-04  0.70071584D-04  0.11724369D-03
 -0.18194365D-03 -0.30339042D-08 -0.52941026D-08 -0.71810809D-05 -0.12180472D-04
 -0.13867037D-04 -0.15769690D-03  0.82556957D+00  0.15194887D+01  0.24588196D+01
  0.32321872D+01  0.27722281D+01  0.94787188D+00 -0.15683189D-01 -0.69978085D-02
  0.20664622D-01 -0.16813264D-02 -0.12953713D-02 -0.56873779D-03 -0.22679249D-02
 -0.17473139D-02 -0.76716492D-03  0.38109322D-06  0.29361178D-06  0.12891139D-06
  0.41768004D-02 -0.31493581D-03  0.16380708D-03  0.11878269D-07 -0.94485244D-02
 -0.96478741D-02 -0.94507524D-02  0.29833447D-04 -0.96756378D-08  0.59778889D-07
  0.76407496D-05  0.14095691D-04  0.22754816D-04  0.29620009D-04  0.25274808D-04
  0.87267837D-05 -0.75017299D-04 -0.34575405D-04  0.96953044D-04 -0.65624155D-04
 -0.50316440D-04 -0.25111430D-04  0.57654313D-03  0.44205670D-03  0.22061728D-03
 -0.81589956D-07 -0.62558003D-07 -0.31220828D-07 -0.30528810D-03 -0.17021661D-05
 -0.12048347D-03  0.15194601D-07  0.37864959D-04  0.50828299D-03  0.26864888D-04
 -0.17847314D-03  0.90957390D-08 -0.13974174D-06  0.25072639D-04  0.42527941D-04
  0.48416558D-04  0.22808901D-04  0.13090835D-04  0.22204534D-04  0.25279077D-04
  0.11063555D-04  0.13093910D-04  0.22209750D-04  0.25285016D-04  0.11059333D-04
  0.34137189D-05  0.62976448D-05  0.10166351D-04  0.13233569D-04  0.11292228D-04
  0.38989350D-05 -0.12892177D-04 -0.59419928D-05  0.16661968D-04  0.78752008D-05
  0.60382044D-05  0.30134872D-05 -0.12277793D-04 -0.94138333D-05 -0.46981626D-05
 -0.13798578D-08 -0.10579874D-08 -0.52800989D-09  0.66446003D-05 -0.38087253D-04
  0.39133772D-04  0.11502574D-08 -0.15254361D-04  0.15352805D-04  0.16280336D-04
 -0.17105012D-04  0.94532961D-09 -0.23705718D-09 -0.45780080D-05 -0.77651681D-05
 -0.88403694D-05 -0.25532765D-04  0.65468440D-05  0.11104686D-04  0.12642293D-04
  0.24749300D-04
MO    2     MO 0.0        OCC NO =    2.0000000  ORB. ENERGY =  -18.990771
  0.19534867D-05  0.36038016D-05  0.58176532D-05  0.75728558D-05  0.64619316D-05
  0.22311497D-05  0.93016293D-06  0.42871125D-06 -0.12021511D-05  0.78634540D-04
  0.60291977D-04  0.30089922D-04  0.34597737D-04  0.26527350D-04  0.13239007D-04
 -0.68654680D-09 -0.52640054D-09 -0.26271076D-09  0.32169735D-03  0.12953483D-03
 -0.13334415D-04 -0.13358597D-08  0.57024916D-05  0.37701538D-04  0.27506475D-04
  0.21681262D-04  0.35401899D-09 -0.57471211D-09  0.70348023D-05  0.12977837D-04
  0.20950252D-04  0.27271004D-04  0.23270397D-04  0.80347088D-05 -0.63970789D-04
 -0.29484078D-04  0.82676433D-04 -0.15093976D-04 -0.11573104D-04 -0.57757898D-05
  0.99972322D-06  0.76652436D-06  0.38254938D-06 -0.90049898D-10 -0.69044550D-10
 -0.34458069D-10 -0.39913476D-03  0.11827036D-04  0.34575539D-03  0.48711019D-08
 -0.63360166D-04 -0.75030037D-04  0.31226276D-04  0.42118637D-04  0.23407864D-08
 -0.27392298D-08 -0.35595693D-04 -0.65667103D-04 -0.10600707D-03 -0.13798970D-03
 -0.11774686D-03 -0.40655162D-04 -0.26480198D-04 -0.12204699D-04  0.34223251D-04
  0.40557018D-03  0.31096549D-03  0.15519357D-03  0.39287682D-03  0.30123303D-03
  0.15033639D-03  0.23189125D-08  0.17779951D-08  0.88734414D-09  0.20131130D-03
 -0.60344254D-03 -0.67738247D-03 -0.44415971D-08 -0.12052465D-03 -0.33518831D-05
 -0.13414958D-03 -0.30509531D-04 -0.10982928D-08  0.34583478D-08  0.28032853D-04
  0.51715141D-04  0.83484272D-04  0.10867172D-03  0.92729773D-04  0.32017362D-04
 -0.12666079D-03 -0.58377842D-04  0.16369756D-03 -0.25460539D-05 -0.19521527D-05
 -0.97426100D-06 -0.47663225D-04 -0.36545137D-04 -0.18238585D-04 -0.60737162D-08
 -0.46569403D-08 -0.23241396D-08 -0.72281216D-03  0.57145946D-03 -0.22705394D-03
 -0.96716328D-08  0.74937494D-04 -0.75151054D-04  0.86328776D-04 -0.65206468D-04
 -0.69963215D-08 -0.39883446D-08 -0.61759421D-05 -0.11393407D-04 -0.18392492D-04
 -0.23941560D-04 -0.20429376D-04 -0.70537726D-05  0.33300789D-04  0.15348303D-04
 -0.43038244D-04  0.80114013D-04  0.61426344D-04  0.30656051D-04  0.61847191D-04
  0.47420504D-04  0.23666155D-04 -0.30616492D-08 -0.23474785D-08 -0.11715563D-08
  0.55447738D-03 -0.63394905D-04  0.28564782D-03  0.70345737D-08  0.18671891D-04
  0.31598602D-04 -0.87898660D-05  0.38111988D-04  0.46749291D-09  0.64098118D-09
  0.84984310D-05  0.15677946D-04  0.25309066D-04  0.32944884D-04  0.28111929D-04
  0.97063735D-05 -0.36866503D-04 -0.16991738D-04  0.47646606D-04  0.11377207D-04
  0.87233205D-05  0.43535483D-05  0.32498741D-04  0.24917973D-04  0.12435815D-04
  0.15581930D-08  0.11947235D-08  0.59625077D-09 -0.30082249D-03 -0.19181535D-03
 -0.76672223D-04 -0.39462610D-10 -0.18502712D-04 -0.22148057D-05  0.33390982D-04
  0.55393598D-04  0.10205365D-08 -0.10999270D-08  0.35587354D-05  0.60362888D-05
  0.68721015D-05  0.23111844D-04 -0.11059875D-04 -0.18759642D-04 -0.21357189D-04
 -0.14374506D-03  0.11966896D-04  0.20298121D-04  0.23108694D-04  0.92295652D-04
  0.82560477D+00  0.15195535D+01  0.24589244D+01  0.32323250D+01  0.27723463D+01
  0.94791230D+00 -0.15744489D-01 -0.70251605D-02  0.20745393D-01  0.58189604D-03
  0.44831953D-03  0.19683642D-03 -0.30449067D-02 -0.23459364D-02 -0.10299925D-02
 -0.87333677D-08 -0.67285890D-08 -0.29542130D-08  0.40543186D-02 -0.36425926D-03
 -0.19695610D-03 -0.55070014D-09 -0.92295418D-02 -0.93489442D-02 -0.92856571D-02
  0.14150355D-03  0.53856576D-09 -0.18002108D-08  0.85025153D-04  0.14421875D-03
  0.16418795D-03 -0.20507839D-03  0.45337559D-04  0.83445311D-04  0.13503026D-03
  0.17750106D-03  0.15224163D-03  0.52053999D-04 -0.16339315D-03 -0.72905704D-04
  0.21529152D-03 -0.18006647D-03 -0.13873151D-03 -0.60910606D-04 -0.14782805D-04
 -0.11389354D-04 -0.50005399D-05 -0.79781480D-08 -0.61467329D-08 -0.26987468D-08
 -0.48179178D-03  0.20709398D-03 -0.28326991D-05  0.79291469D-09  0.79428021D-04
  0.18249122D-03  0.16761122D-03  0.45522428D-04  0.62497452D-08 -0.19463359D-09
  0.10058935D-04  0.18556771D-04  0.29956383D-04  0.38994309D-04  0.33273915D-04
  0.11488683D-04 -0.31490404D-04 -0.14513898D-04  0.40698486D-04 -0.39844964D-04
 -0.30550591D-04 -0.15246886D-04  0.48048540D-04  0.36840573D-04  0.18386028D-04
 -0.83869977D-08 -0.64306179D-08 -0.32093290D-08 -0.49805494D-04  0.19723959D-04
 -0.24512134D-04  0.12257887D-08  0.30489453D-04  0.17507819D-04  0.40067118D-04
 -0.13970229D-04  0.97236223D-08 -0.26660617D-08 -0.50528427D-06 -0.85705775D-06
 -0.97572996D-06 -0.57325514D-05  0.45264419D-05  0.76777022D-05  0.87407926D-05
 -0.61331010D-05  0.45265779D-05  0.76779329D-05  0.87410553D-05 -0.61346251D-05
 -0.38592549D-06 -0.71195717D-06 -0.11493196D-05 -0.14960726D-05 -0.12766015D-05
 -0.44077982D-06 -0.42245108D-06 -0.19470732D-06  0.54597964D-06 -0.21520666D-04
 -0.16500682D-04 -0.82349968D-05 -0.49609973D-05 -0.38037781D-05 -0.18983518D-05
  0.17707346D-09  0.13576870D-09  0.67758096D-10 -0.87709532D-04 -0.52426698D-05
 -0.36908827D-04 -0.20836645D-09 -0.15891124D-05 -0.10769783D-04 -0.10109644D-05
 -0.52727082D-05  0.29518144D-09  0.47583959D-09  0.39160227D-05  0.66423157D-05
  0.75620416D-05  0.11687162D-04 -0.12032839D-05 -0.20409972D-05 -0.23236032D-05
 -0.12875639D-04
MO    3     MO 0.0        OCC NO =    2.0000000  ORB. ENERGY =  -10.117847
 -0.64647216D-05 -0.11926149D-04 -0.19252502D-04 -0.25061038D-04 -0.21384629D-04
 -0.73835984D-05  0.25063379D-04  0.11551688D-04 -0.32392140D-04  0.19347099D-04
  0.14834129D-04  0.74032698D-05  0.56471430D-04  0.43298711D-04  0.21609091D-04
  0.36199471D-08  0.27755458D-08  0.13851919D-08  0.22891392D-03  0.32900501D-04
 -0.32653541D-04 -0.29476590D-08  0.12468197D-05  0.11956632D-04 -0.24086859D-04
  0.61801168D-04 -0.17695173D-08  0.67626676D-10  0.88473188D-05  0.16321576D-04
  0.26348084D-04  0.34297376D-04  0.29266013D-04  0.10104851D-04 -0.32900369D-04
 -0.15163750D-04  0.42520738D-04 -0.92494787D-04 -0.70919136D-04 -0.35393619D-04
 -0.19022606D-05 -0.14585328D-05 -0.72791008D-06  0.36108505D-09  0.27685711D-09
  0.13817110D-09 -0.27594246D-03 -0.72824213D-05  0.19214950D-03  0.64234756D-08
 -0.66972246D-05 -0.92715258D-05  0.22352988D-04  0.44180343D-04  0.72358383D-08
 -0.27088536D-08 -0.31194976D-04 -0.57548640D-04 -0.92901349D-04 -0.12092995D-03
 -0.10318975D-03 -0.35628940D-04  0.10206096D-03  0.47039805D-04 -0.13190452D-03
  0.83571873D-04  0.64077612D-04  0.31979219D-04 -0.65146198D-04 -0.49949973D-04
 -0.24928537D-04  0.68813317D-08  0.52761687D-08  0.26331780D-08  0.71611176D-03
 -0.20327630D-03 -0.35602387D-03 -0.14218883D-07 -0.22078090D-04  0.44882039D-05
 -0.85387517D-04 -0.55526369D-04 -0.39940405D-08  0.98872286D-08 -0.17652349D-04
 -0.32565138D-04 -0.52570230D-04 -0.68430819D-04 -0.58392142D-04 -0.20161403D-04
  0.51634696D-04  0.23798384D-04 -0.66733154D-04 -0.45728516D-04 -0.35061725D-04
 -0.17498258D-04  0.21545469D-03  0.16519699D-03  0.82444875D-04 -0.20725845D-07
 -0.15891264D-07 -0.79308543D-08 -0.21848020D-03  0.21261592D-03 -0.56334554D-03
  0.11394206D-07  0.22094197D-03  0.14036933D-04 -0.50727936D-04 -0.77585183D-04
  0.58197705D-08 -0.37859949D-07  0.47512796D-05  0.87651831D-05  0.14149723D-04
  0.18418735D-04  0.15716740D-04  0.54266127D-05 -0.45151507D-04 -0.20810288D-04
  0.58354221D-04 -0.13026887D-03 -0.99881909D-04 -0.49848073D-04  0.32689397D-04
  0.25064157D-04  0.12508771D-04  0.56027776D-08  0.42958545D-08  0.21439325D-08
 -0.37132577D-03  0.74566762D-05 -0.74913251D-06 -0.76028817D-08 -0.14094697D-03
  0.50365544D-04  0.14974387D-05  0.43287894D-04  0.11015287D-08 -0.21675887D-07
 -0.11305696D-04 -0.20856802D-04 -0.33669345D-04 -0.43827483D-04 -0.37398070D-04
 -0.12912655D-04  0.37095408D-04  0.17097240D-04 -0.47942445D-04 -0.61821974D-04
 -0.47401168D-04 -0.23656505D-04 -0.20054598D-04 -0.15376594D-04 -0.76739979D-05
  0.27438782D-08  0.21038318D-08  0.10499595D-08  0.22665932D-04  0.18883085D-03
 -0.47377892D-04 -0.98633231D-09  0.48844867D-04 -0.35530098D-04 -0.50191545D-04
 -0.64997372D-04  0.13982794D-08 -0.84662521D-09 -0.36069118D-05 -0.61180051D-05
 -0.69651326D-05 -0.94347078D-06 -0.13505138D-04 -0.22907269D-04 -0.26079117D-04
 -0.55162193D-04  0.10098861D-04  0.17129580D-04  0.19501421D-04  0.42698679D-04
 -0.43241269D-04 -0.79587017D-04 -0.12878682D-03 -0.16929388D-03 -0.14520237D-03
 -0.49647158D-04  0.14302334D-03  0.63816737D-04 -0.18845168D-03  0.35063724D-04
  0.27014709D-04  0.11860912D-04 -0.23830293D-04 -0.18359956D-04 -0.80610097D-05
 -0.12214463D-07 -0.94105856D-08 -0.41317539D-08  0.38584562D-03 -0.56991254D-04
 -0.34783562D-04  0.56295467D-08 -0.13009675D-03 -0.16722660D-03 -0.16596963D-03
 -0.13654100D-04 -0.72396282D-08 -0.38699630D-08 -0.13622659D-05 -0.23106609D-05
 -0.26306057D-05 -0.39348244D-04 -0.59074958D-04 -0.10872946D-03 -0.17594479D-03
 -0.23128435D-03 -0.19837124D-03 -0.67826496D-04 -0.26292375D-04 -0.11731607D-04
  0.34643592D-04 -0.23788278D-03 -0.18327586D-03 -0.80467974D-04 -0.82149119D-04
 -0.63291468D-04 -0.27788363D-04 -0.19944203D-07 -0.15365933D-07 -0.67464724D-08
  0.20761408D-03  0.19162178D-03  0.15892913D-03 -0.11911022D-07 -0.18389350D-03
 -0.70992847D-03  0.12125453D-03  0.27424259D-03 -0.38463128D-07  0.23225577D-06
  0.53256061D+00  0.98247034D+00  0.15860118D+01  0.20645161D+01  0.17616553D+01
  0.60825724D+00 -0.19699436D-01 -0.90794523D-02  0.25459732D-01 -0.35592093D-03
 -0.27289760D-03 -0.13619503D-03  0.96000554D-03  0.73607136D-03  0.36735120D-03
 -0.14683461D-06 -0.11258347D-06 -0.56187041D-07 -0.26541261D-02  0.11206111D-03
  0.11988855D-04  0.24088158D-08 -0.10057098D-01 -0.98768576D-02 -0.10117569D-01
 -0.93461253D-04  0.40133735D-07 -0.66653905D-07 -0.48337437D-04 -0.81989443D-04
 -0.93342083D-04  0.40533647D-03 -0.93395085D-05 -0.15841574D-04 -0.18035072D-04
  0.48681078D-03 -0.93435967D-05 -0.15848508D-04 -0.18042967D-04  0.48681684D-03
 -0.32204167D-05 -0.59410400D-05 -0.95906806D-05 -0.12484216D-04 -0.10652805D-04
 -0.36781574D-05  0.12694456D-04  0.58508633D-05 -0.16406431D-04  0.24855689D-04
  0.19057765D-04  0.95111606D-05  0.23752175D-05  0.18211661D-05  0.90888954D-06
 -0.21017798D-08 -0.16115115D-08 -0.80425716D-09  0.10195160D-03 -0.84618366D-05
  0.73548501D-04  0.13366997D-08 -0.10639127D-04  0.21161711D-04 -0.15523560D-04
  0.25922183D-04  0.86267368D-09  0.41911056D-10 -0.99432678D-05 -0.16865664D-04
 -0.19200963D-04 -0.24363811D-04  0.47010626D-05  0.79738919D-05  0.90779941D-05
  0.29184292D-04
MO    4     MO 0.0        OCC NO =    2.0000000  ORB. ENERGY =  -10.058802
 -0.51620192D-04 -0.95229174D-04 -0.15372941D-03 -0.20011002D-03 -0.17075424D-03
 -0.58957336D-04  0.11278075D-03  0.51980546D-04 -0.14575888D-03 -0.60087979D-04
 -0.46071651D-04 -0.22992983D-04  0.29475528D-04  0.22599966D-04  0.11278967D-04
 -0.33801744D-10 -0.25917033D-10 -0.12934416D-10  0.88285166D-03  0.52875568D-03
 -0.68241859D-05 -0.57348632D-08 -0.20977188D-04 -0.95001559D-05 -0.11943117D-03
  0.25071329D-04 -0.19180577D-08  0.46535549D-08  0.27245801D-04  0.50263183D-04
  0.81140363D-04  0.10562064D-03  0.90126286D-04  0.31118441D-04 -0.29863176D-04
 -0.13763910D-04  0.38595441D-04 -0.12765711D-03 -0.97879374D-04 -0.48848668D-04
  0.10395976D-03  0.79709747D-04  0.39780750D-04  0.19821912D-08  0.15198185D-08
  0.75849593D-09 -0.12321336D-02  0.42497409D-04  0.55066605D-03  0.66085185D-08
  0.12263698D-03  0.16630281D-04 -0.30165440D-05 -0.86146459D-04 -0.53513751D-08
  0.28496178D-08  0.40422580D-02  0.74571767D-02  0.12038195D-01  0.15670154D-01
  0.13371370D-01  0.46168129D-02  0.15258879D-03  0.70328032D-04 -0.19720714D-03
 -0.67497712D-04 -0.51752964D-04 -0.25828356D-04  0.33745750D-03  0.25874101D-03
  0.12912990D-03  0.28798629D-08  0.22080962D-08  0.11019948D-08  0.18736732D-02
 -0.78856557D-03 -0.91704025D-03 -0.31141328D-08 -0.54730425D-03 -0.57880950D-03
 -0.39650055D-03  0.32235043D-03  0.71588779D-08 -0.12519535D-07  0.53255082D+00
  0.98245227D+00  0.15859826D+01  0.20644781D+01  0.17616229D+01  0.60824605D+00
 -0.19788612D-01 -0.91205532D-02  0.25574983D-01  0.15499981D-02  0.11884403D-02
  0.59311498D-03 -0.38710860D-03 -0.29681032D-03 -0.14812915D-03 -0.35683722D-07
 -0.27360015D-07 -0.13654565D-07 -0.37989530D-02  0.18414641D-02 -0.39158982D-03
 -0.30192907D-07 -0.91684236D-02 -0.99822830D-02 -0.10410013D-01 -0.30619369D-03
 -0.55903670D-07  0.17181518D-07  0.19934031D-02  0.36774395D-02  0.59365276D-02
  0.77275950D-02  0.65939708D-02  0.22767397D-02  0.34949133D-03  0.16108023D-03
 -0.45168579D-03 -0.14435948D-03 -0.11068570D-03 -0.55239919D-04 -0.33991605D-03
 -0.26062606D-03 -0.13007067D-03  0.10805527D-08  0.82849927D-09  0.41347920D-09
  0.29561639D-02 -0.14488941D-03  0.12608274D-02  0.22289014D-07 -0.37178060D-03
 -0.24053860D-03 -0.39358598D-03 -0.94493986D-04 -0.34186137D-08  0.83260233D-08
  0.42289086D-04  0.78015107D-04  0.12594057D-03  0.16393720D-03  0.13988791D-03
  0.48299935D-04 -0.12294340D-03 -0.56664500D-04  0.15889317D-03 -0.67942038D-04
 -0.52093645D-04 -0.25998380D-04 -0.22938676D-04 -0.17587922D-04 -0.87776055D-05
 -0.36358386D-08 -0.27877304D-08 -0.13912729D-08 -0.13950926D-02 -0.74582420D-03
 -0.71828611D-04  0.84678560D-08 -0.31008024D-04  0.53612004D-04  0.83357339D-04
  0.29594806D-04  0.37697897D-08 -0.14941679D-10  0.24336534D-04  0.41279369D-04
  0.46995102D-04  0.14862195D-03 -0.19636944D-04 -0.33307974D-04 -0.37919951D-04
 -0.10656073D-03  0.44296127D-04  0.75134615D-04  0.85538104D-04  0.32101742D-03
 -0.85358340D-04 -0.15710491D-03 -0.25422540D-03 -0.33418641D-03 -0.28662974D-03
 -0.98003576D-04  0.30804853D-03  0.13745065D-03 -0.40589362D-03  0.14979072D-03
  0.11540567D-03  0.50669306D-04  0.83078630D-05  0.64007606D-05  0.28102787D-05
  0.45083714D-08  0.34734571D-08  0.15250348D-08  0.88757165D-03 -0.23206460D-03
 -0.86039742D-04 -0.18043735D-08 -0.26980857D-03 -0.26812749D-03 -0.33085095D-03
  0.11439892D-03  0.26548504D-08  0.31339165D-08 -0.19498848D-05 -0.33073737D-05
 -0.37653281D-05  0.32697175D-04  0.13393927D-03  0.24651976D-03  0.39891551D-03
  0.52438561D-03  0.44976249D-03  0.15378143D-03 -0.75148623D-03 -0.33531169D-03
  0.99017991D-03 -0.13383440D-03 -0.10311219D-03 -0.45271807D-04  0.15900436D-03
  0.12250429D-03  0.53785980D-04  0.26756439D-07  0.20614394D-07  0.90508293D-08
 -0.18011751D-02  0.93545513D-03 -0.29743736D-03 -0.34379097D-07 -0.50534392D-03
  0.74870383D-03  0.10204319D-02  0.70843871D-03  0.10511419D-06  0.28157973D-09
  0.11416040D-04  0.21060365D-04  0.33997959D-04  0.44255241D-04  0.37763077D-04
  0.13038683D-04  0.46820475D-04  0.21579514D-04 -0.60511210D-04  0.10473864D-04
  0.80306947D-05  0.40078795D-05  0.11857046D-04  0.90912307D-05  0.45371613D-05
 -0.10690755D-07 -0.81969929D-08 -0.40908739D-08 -0.34082267D-04 -0.10846218D-03
 -0.40178375D-04  0.18099257D-07  0.50610222D-04 -0.62117587D-05  0.53930473D-04
 -0.29531122D-03 -0.10755499D-07  0.19889719D-07  0.21433163D-04  0.36354701D-04
  0.41388542D-04  0.43889924D-04 -0.18126867D-04 -0.30746598D-04 -0.35003915D-04
 -0.23717640D-04 -0.18115794D-04 -0.30727815D-04 -0.34982531D-04 -0.23707161D-04
 -0.16360859D-04 -0.30182591D-04 -0.48724060D-04 -0.63424249D-04 -0.54120027D-04
 -0.18686345D-04  0.48185290D-04  0.22208556D-04 -0.62275110D-04 -0.48753545D-04
 -0.37381126D-04 -0.18655802D-04  0.10982946D-04  0.84210261D-05  0.42026822D-05
  0.12790468D-08  0.98069197D-09  0.48943403D-09 -0.10550746D-03  0.10803661D-03
 -0.12382291D-03 -0.34470515D-08  0.47024211D-04 -0.68222799D-04 -0.59676926D-04
  0.49053903D-04 -0.32238576D-08 -0.12680082D-08  0.14318594D-04  0.24287046D-04