 Generated by Multiwfn (http://sobereva.com/multiwfn)
GAUSSIAN             36 MOL ORBITALS    316 PRIMITIVES       19 NUCLEI
  C    1    (CENTRE  1)  -3.68200434  1.65261744  0.00001683  CHARGE =  6.0
  C    2    (CENTRE  2)  -1.65323544  3.30166175  0.00001872  CHARGE =  6.0
  C    3    (CENTRE  3)   0.81338032  2.37889639 -0.00001719  CHARGE =  6.0
  C    4    (CENTRE  4)   1.22734481 -0.26548632 -0.00006065  CHARGE =  6.0
  C    5    (CENTRE  5)  -0.77705041 -1.92427596 -0.00006821  CHARGE =  6.0
  C    6    (CENTRE  6)  -3.32511526 -1.01522809 -0.00002664  CHARGE =  6.0
  H    7    (CENTRE  7)  -5.59148354  2.39378940  0.00004517  CHARGE =  1.0
  H    8    (CENTRE  8)  -1.92886460  5.33057196  0.00005462  CHARGE =  1.0
  H    9    (CENTRE  9)  -0.45972821 -3.94472020 -0.00011356  CHARGE =  1.0
  O   10    (CENTRE 10)   2.80578899  3.99617820 -0.00000963  CHARGE =  8.0
  H   11    (CENTRE 11)   4.32393607  2.97897218 -0.00001530  CHARGE =  1.0
  O   12    (CENTRE 12)   3.74464500 -0.89917462 -0.00012112  CHARGE =  8.0
  C   13    (CENTRE 13)   4.40765462 -3.50255413  0.00020958  CHARGE =  6.0
  H   14    (CENTRE 14)   6.46395630 -3.56678655  0.00035131  CHARGE =  1.0
  H   15    (CENTRE 15)   3.68782552 -4.45563539  1.69004047  CHARGE =  1.0
  H   16    (CENTRE 16)   3.68806174 -4.45600766 -1.68951360  CHARGE =  1.0
  C   17    (CENTRE 17)  -5.37604309 -2.68503860 -0.00002853  CHARGE =  6.0
  H   18    (CENTRE 18)  -7.29897149 -1.98773096 -0.00000396  CHARGE =  1.0
  H   19    (CENTRE 19)  -5.09779099 -4.71203641 -0.00006254  CHARGE =  1.0
CENTRE ASSIGNMENTS    1  1  1  1  1  1  1  1  1  1  1  1  1  1  1  1  1  1  1  1
CENTRE ASSIGNMENTS    1  1  1  1  1  1  1  1  2  2  2  2  2  2  2  2  2  2  2  2
CENTRE ASSIGNMENTS    2  2  2  2  2  2  2  2  2  2  2  2  2  2  2  2  3  3  3  3
CENTRE ASSIGNMENTS    3  3  3  3  3  3  3  3  3  3  3  3  3  3  3  3  3  3  3  3
CENTRE ASSIGNMENTS    3  3  3  3  4  4  4  4  4  4  4  4  4  4  4  4  4  4  4  4
CENTRE ASSIGNMENTS    4  4  4  4  4  4  4  4  4  4  4  4  5  5  5  5  5  5  5  5
CENTRE ASSIGNMENTS    5  5  5  5  5  5  5  5  5  5  5  5  5  5  5  5  5  5  5  5
CENTRE ASSIGNMENTS    6  6  6  6  6  6  6  6  6  6  6  6  6  6  6  6  6  6  6  6
CENTRE ASSIGNMENTS    6  6  6  6  6  6  6  6  7  7  7  7  8  8  8  8  9  9  9  9
CENTRE ASSIGNMENTS   10 10 10 10 10 10 10 10 10 10 10 10 10 10 10 10 10 10 10 10
CENTRE ASSIGNMENTS   10 10 10 10 10 10 10 10 11 11 11 11 12 12 12 12 12 12 12 12
CENTRE ASSIGNMENTS   12 12 12 12 12 12 12 12 12 12 12 12 12 12 12 12 12 12 12 12
CENTRE ASSIGNMENTS   13 13 13 13 13 13 13 13 13 13 13 13 13 13 13 13 13 13 13 13
CENTRE ASSIGNMENTS   13 13 13 13 13 13 13 13 14 14 14 14 15 15 15 15 16 16 16 16
CENTRE ASSIGNMENTS   17 17 17 17 17 17 17 17 17 17 17 17 17 17 17 17 17 17 17 17
CENTRE ASSIGNMENTS   17 17 17 17 17 17 17 17 18 18 18 18 19 19 19 19
TYPE ASSIGNMENTS      1  1  1  1  1  1  1  1  1  2  2  2  3  3  3  4  4  4  1  2
TYPE ASSIGNMENTS      3  4  5  6  7  8  9 10  1  1  1  1  1  1  1  1  1  2  2  2
TYPE ASSIGNMENTS      3  3  3  4  4  4  1  2  3  4  5  6  7  8  9 10  1  1  1  1
TYPE ASSIGNMENTS      1  1  1  1  1  2  2  2  3  3  3  4  4  4  1  2  3  4  5  6
TYPE ASSIGNMENTS      7  8  9 10  1  1  1  1  1  1  1  1  1  2  2  2  3  3  3  4
TYPE ASSIGNMENTS      4  4  1  2  3  4  5  6  7  8  9 10  1  1  1  1  1  1  1  1
TYPE ASSIGNMENTS      1  2  2  2  3  3  3  4  4  4  1  2  3  4  5  6  7  8  9 10
TYPE ASSIGNMENTS      1  1  1  1  1  1  1  1  1  2  2  2  3  3  3  4  4  4  1  2
TYPE ASSIGNMENTS      3  4  5  6  7  8  9 10  1  1  1  1  1  1  1  1  1  1  1  1
TYPE ASSIGNMENTS      1  1  1  1  1  1  1  1  1  2  2  2  3  3  3  4  4  4  1  2
TYPE ASSIGNMENTS      3  4  5  6  7  8  9 10  1  1  1  1  1  1  1  1  1  1  1  1
TYPE ASSIGNMENTS      1  2  2  2  3  3  3  4  4  4  1  2  3  4  5  6  7  8  9 10
TYPE ASSIGNMENTS      1  1  1  1  1  1  1  1  1  2  2  2  3  3  3  4  4  4  1  2
TYPE ASSIGNMENTS      3  4  5  6  7  8  9 10  1  1  1  1  1  1  1  1  1  1  1  1
TYPE ASSIGNMENTS      1  1  1  1  1  1  1  1  1  2  2  2  3  3  3  4  4  4  1  2
TYPE ASSIGNMENTS      3  4  5  6  7  8  9 10  1  1  1  1  1  1  1  1
EXPONENTS  0.3047525D+04 0.4573695D+03 0.1039487D+03 0.2921016D+02 0.9286663D+01
EXPONENTS  0.3163927D+01 0.7868272D+01 0.1881289D+01 0.5442493D+00 0.7868272D+01
EXPONENTS  0.1881289D+01 0.5442493D+00 0.7868272D+01 0.1881289D+01 0.5442493D+00
EXPONENTS  0.7868272D+01 0.1881289D+01 0.5442493D+00 0.1687145D+00 0.1687145D+00
EXPONENTS  0.1687145D+00 0.1687145D+00 0.8000000D+00 0.8000000D+00 0.8000000D+00
EXPONENTS  0.8000000D+00 0.8000000D+00 0.8000000D+00 0.3047525D+04 0.4573695D+03
EXPONENTS  0.1039487D+03 0.2921016D+02 0.9286663D+01 0.3163927D+01 0.7868272D+01
EXPONENTS  0.1881289D+01 0.5442493D+00 0.7868272D+01 0.1881289D+01 0.5442493D+00
EXPONENTS  0.7868272D+01 0.1881289D+01 0.5442493D+00 0.7868272D+01 0.1881289D+01
EXPONENTS  0.5442493D+00 0.1687145D+00 0.1687145D+00 0.1687145D+00 0.1687145D+00
EXPONENTS  0.8000000D+00 0.8000000D+00 0.8000000D+00 0.8000000D+00 0.8000000D+00
EXPONENTS  0.8000000D+00 0.3047525D+04 0.4573695D+03 0.1039487D+03 0.2921016D+02
EXPONENTS  0.9286663D+01 0.3163927D+01 0.7868272D+01 0.1881289D+01 0.5442493D+00
EXPONENTS  0.7868272D+01 0.1881289D+01 0.5442493D+00 0.7868272D+01 0.1881289D+01
EXPONENTS  0.5442493D+00 0.7868272D+01 0.1881289D+01 0.5442493D+00 0.1687145D+00
EXPONENTS  0.1687145D+00 0.1687145D+00 0.1687145D+00 0.8000000D+00 0.8000000D+00
EXPONENTS  0.8000000D+00 0.8000000D+00 0.8000000D+00 0.8000000D+00 0.3047525D+04
EXPONENTS  0.4573695D+03 0.1039487D+03 0.2921016D+02 0.9286663D+01 0.3163927D+01
EXPONENTS  0.7868272D+01 0.1881289D+01 0.5442493D+00 0.7868272D+01 0.1881289D+01
EXPONENTS  0.5442493D+00 0.7868272D+01 0.1881289D+01 0.5442493D+00 0.7868272D+01
EXPONENTS  0.1881289D+01 0.5442493D+00 0.1687145D+00 0.1687145D+00 0.1687145D+00
EXPONENTS  0.1687145D+00 0.8000000D+00 0.8000000D+00 0.8000000D+00 0.8000000D+00
EXPONENTS  0.8000000D+00 0.8000000D+00 0.3047525D+04 0.4573695D+03 0.1039487D+03
EXPONENTS  0.2921016D+02 0.9286663D+01 0.3163927D+01 0.7868272D+01 0.1881289D+01
EXPONENTS  0.5442493D+00 0.7868272D+01 0.1881289D+01 0.5442493D+00 0.7868272D+01
EXPONENTS  0.1881289D+01 0.5442493D+00 0.7868272D+01 0.1881289D+01 0.5442493D+00
EXPONENTS  0.1687145D+00 0.1687145D+00 0.1687145D+00 0.1687145D+00 0.8000000D+00
EXPONENTS  0.8000000D+00 0.8000000D+00 0.8000000D+00 0.8000000D+00 0.8000000D+00
EXPONENTS  0.3047525D+04 0.4573695D+03 0.1039487D+03 0.2921016D+02 0.9286663D+01
EXPONENTS  0.3163927D+01 0.7868272D+01 0.1881289D+01 0.5442493D+00 0.7868272D+01
EXPONENTS  0.1881289D+01 0.5442493D+00 0.7868272D+01 0.1881289D+01 0.5442493D+00
EXPONENTS  0.7868272D+01 0.1881289D+01 0.5442493D+00 0.1687145D+00 0.1687145D+00
EXPONENTS  0.1687145D+00 0.1687145D+00 0.8000000D+00 0.8000000D+00 0.8000000D+00
EXPONENTS  0.8000000D+00 0.8000000D+00 0.8000000D+00 0.1873114D+02 0.2825394D+01
EXPONENTS  0.6401217D+00 0.1612778D+00 0.1873114D+02 0.2825394D+01 0.6401217D+00
EXPONENTS  0.1612778D+00 0.1873114D+02 0.2825394D+01 0.6401217D+00 0.1612778D+00
EXPONENTS  0.5484672D+04 0.8252349D+03 0.1880470D+03 0.5296450D+02 0.1689757D+02
EXPONENTS  0.5799635D+01 0.1553962D+02 0.3599934D+01 0.1013762D+01 0.1553962D+02
EXPONENTS  0.3599934D+01 0.1013762D+01 0.1553962D+02 0.3599934D+01 0.1013762D+01
EXPONENTS  0.1553962D+02 0.3599934D+01 0.1013762D+01 0.2700058D+00 0.2700058D+00
EXPONENTS  0.2700058D+00 0.2700058D+00 0.8000000D+00 0.8000000D+00 0.8000000D+00
EXPONENTS  0.8000000D+00 0.8000000D+00 0.8000000D+00 0.1873114D+02 0.2825394D+01
EXPONENTS  0.6401217D+00 0.1612778D+00 0.5484672D+04 0.8252349D+03 0.1880470D+03
EXPONENTS  0.5296450D+02 0.1689757D+02 0.5799635D+01 0.1553962D+02 0.3599934D+01
EXPONENTS  0.1013762D+01 0.1553962D+02 0.3599934D+01 0.1013762D+01 0.1553962D+02
EXPONENTS  0.3599934D+01 0.1013762D+01 0.1553962D+02 0.3599934D+01 0.1013762D+01
EXPONENTS  0.2700058D+00 0.2700058D+00 0.2700058D+00 0.2700058D+00 0.8000000D+00
EXPONENTS  0.8000000D+00 0.8000000D+00 0.8000000D+00 0.8000000D+00 0.8000000D+00
EXPONENTS  0.3047525D+04 0.4573695D+03 0.1039487D+03 0.2921016D+02 0.9286663D+01
EXPONENTS  0.3163927D+01 0.7868272D+01 0.1881289D+01 0.5442493D+00 0.7868272D+01
EXPONENTS  0.1881289D+01 0.5442493D+00 0.7868272D+01 0.1881289D+01 0.5442493D+00
EXPONENTS  0.7868272D+01 0.1881289D+01 0.5442493D+00 0.1687145D+00 0.1687145D+00
EXPONENTS  0.1687145D+00 0.1687145D+00 0.8000000D+00 0.8000000D+00 0.8000000D+00
EXPONENTS  0.8000000D+00 0.8000000D+00 0.8000000D+00 0.1873114D+02 0.2825394D+01
EXPONENTS  0.6401217D+00 0.1612778D+00 0.1873114D+02 0.2825394D+01 0.6401217D+00
EXPONENTS  0.1612778D+00 0.1873114D+02 0.2825394D+01 0.6401217D+00 0.1612778D+00
EXPONENTS  0.3047525D+04 0.4573695D+03 0.1039487D+03 0.2921016D+02 0.9286663D+01
EXPONENTS  0.3163927D+01 0.7868272D+01 0.1881289D+01 0.5442493D+00 0.7868272D+01
EXPONENTS  0.1881289D+01 0.5442493D+00 0.7868272D+01 0.1881289D+01 0.5442493D+00
EXPONENTS  0.7868272D+01 0.1881289D+01 0.5442493D+00 0.1687145D+00 0.1687145D+00
EXPONENTS  0.1687145D+00 0.1687145D+00 0.8000000D+00 0.8000000D+00 0.8000000D+00
EXPONENTS  0.8000000D+00 0.8000000D+00 0.8000000D+00 0.1873114D+02 0.2825394D+01
EXPONENTS  0.6401217D+00 0.1612778D+00 0.1873114D+02 0.2825394D+01 0.6401217D+00
EXPONENTS  0.1612778D+00
MO    1     MO 0.0        OCC NO =    2.0000000  ORB. ENERGY =  -19.381110
  0.18147326D-05  0.33478273D-05  0.54044313D-05  0.70349637D-05  0.60029473D-05
  0.20726734D-05  0.13450471D-05  0.61993098D-06 -0.17383512D-05  0.78146410D-04
  0.59917711D-04  0.29903137D-04  0.34666447D-04  0.26580033D-04  0.13265299D-04
 -0.69421098D-09 -0.53227695D-09 -0.26564350D-09  0.32274255D-03  0.13041587D-03
 -0.13058395D-04 -0.13534245D-08  0.53694563D-05  0.38447914D-04  0.26549524D-04
  0.23078729D-04  0.35060231D-09 -0.54651990D-09  0.68904022D-05  0.12711447D-04
  0.20520216D-04  0.26711224D-04  0.22792736D-04  0.78697841D-05 -0.63311599D-04
 -0.29180258D-04  0.81824490D-04 -0.16807488D-04 -0.12886915D-04 -0.64314740D-05
 -0.52226570D-06 -0.40044021D-06 -0.19984773D-06 -0.90325904D-10 -0.69256174D-10
 -0.34563685D-10 -0.39844690D-03  0.12768113D-04  0.34433392D-03  0.48718039D-08
 -0.65519009D-04 -0.71973915D-04  0.29255577D-04  0.36491882D-04  0.23294021D-08
 -0.25908428D-08 -0.35593500D-04 -0.65663057D-04 -0.10600053D-03 -0.13798120D-03
 -0.11773961D-03 -0.40652657D-04 -0.34691989D-04 -0.15989506D-04  0.44836244D-04
  0.40084108D-03  0.30733952D-03  0.15338396D-03  0.38938858D-03  0.29855847D-03
  0.14900160D-03  0.24028335D-08  0.18423403D-08  0.91945694D-09  0.20962226D-03
 -0.59666389D-03 -0.67259661D-03 -0.45307533D-08 -0.14245387D-03 -0.16997171D-04
 -0.13451308D-03 -0.62609122D-04 -0.12602661D-08  0.33337955D-08  0.27824976D-04
  0.51331647D-04  0.82865194D-04  0.10786586D-03  0.92042135D-04  0.31779937D-04
 -0.12604351D-03 -0.58093336D-04  0.16289978D-03 -0.48958168D-05 -0.37538018D-05
 -0.18734102D-05 -0.50397967D-04 -0.38641965D-04 -0.19285049D-04 -0.60904833D-08
 -0.46697963D-08 -0.23305556D-08 -0.72449738D-03  0.56932347D-03 -0.22524515D-03
 -0.95681530D-08  0.75296014D-04 -0.76598172D-04  0.84564136D-04 -0.72464868D-04
 -0.71533654D-08 -0.38353009D-08 -0.63818240D-05 -0.11773219D-04 -0.19005626D-04
 -0.24739678D-04 -0.21110412D-04 -0.72889180D-05  0.34030960D-04  0.15684838D-04
 -0.43981924D-04  0.80478506D-04  0.61705814D-04  0.30795526D-04  0.61429786D-04
  0.47100463D-04  0.23506432D-04 -0.30345981D-08 -0.23267374D-08 -0.11612050D-08
  0.55658580D-03 -0.62596071D-04  0.28639058D-03  0.70065639D-08  0.20143324D-04
  0.30875726D-04 -0.10023036D-04  0.39518034D-04  0.40248768D-09  0.62429834D-09
  0.85503475D-05  0.15773722D-04  0.25463678D-04  0.33146142D-04  0.28283663D-04
  0.97656692D-05 -0.37120717D-04 -0.17108904D-04  0.47975154D-04  0.11487784D-04
  0.88081045D-05  0.43958615D-05  0.32514345D-04  0.24929938D-04  0.12441786D-04
  0.15271710D-08  0.11709378D-08  0.58438004D-09 -0.30165388D-03 -0.19249490D-03
 -0.77043210D-04 -0.16771147D-10 -0.18723819D-04 -0.23595197D-05  0.33553706D-04
  0.55700397D-04  0.10471068D-08 -0.11170440D-08  0.36111125D-05  0.61251304D-05
  0.69732444D-05  0.23473074D-04 -0.11226981D-04 -0.19043085D-04 -0.21679879D-04
 -0.14294872D-03  0.12011088D-04  0.20373079D-04  0.23194030D-04  0.92333338D-04
  0.82561729D+00  0.15195765D+01  0.24589617D+01  0.32323740D+01  0.27723884D+01
  0.94792667D+00 -0.15734438D-01 -0.70206757D-02  0.20732149D-01  0.29246770D-03
  0.22533060D-03  0.98932269D-04 -0.33193254D-02 -0.25573613D-02 -0.11228194D-02
 -0.21277707D-07 -0.16393326D-07 -0.71975533D-08  0.40259421D-02 -0.34846709D-03
 -0.18432672D-03 -0.27064145D-10 -0.91970493D-02 -0.93184925D-02 -0.92663468D-02
  0.14628786D-03  0.45629729D-09 -0.17866043D-08  0.86301620D-04  0.14638388D-03
  0.16665288D-03 -0.20828879D-03  0.37476742D-04  0.68977212D-04  0.11161815D-03
  0.14672518D-03  0.12584534D-03  0.43028658D-04 -0.16082976D-03 -0.71761926D-04
  0.21191393D-03 -0.17757912D-03 -0.13681514D-03 -0.60069217D-04 -0.20695324D-04
 -0.15944631D-04 -0.70005519D-05 -0.80541309D-08 -0.62052737D-08 -0.27244494D-08
 -0.47619272D-03  0.20541598D-03 -0.82052939D-06  0.75299293D-09  0.75614184D-04
  0.17767827D-03  0.16284963D-03  0.46030087D-04  0.62439139D-08  0.19625388D-09
  0.99992750D-05  0.18446710D-04  0.29778709D-04  0.38763032D-04  0.33076565D-04
  0.11420543D-04 -0.30970896D-04 -0.14274458D-04  0.40027069D-04 -0.39671821D-04
 -0.30417836D-04 -0.15180632D-04  0.49195086D-04  0.37719671D-04  0.18824760D-04
 -0.84648735D-08 -0.64903281D-08 -0.32391286D-08 -0.48783979D-04  0.19262434D-04
 -0.24127935D-04  0.11175578D-08  0.30421038D-04  0.18922418D-04  0.39857713D-04
 -0.15064406D-04  0.98322506D-08 -0.31102378D-08 -0.50683268D-06 -0.85968415D-06
 -0.97872002D-06 -0.55617339D-05  0.44550467D-05  0.75566024D-05  0.86029247D-05
 -0.62222729D-05  0.44551675D-05  0.75568073D-05  0.86031580D-05 -0.62238541D-05
 -0.45518600D-06 -0.83972929D-06 -0.13555834D-05 -0.17645669D-05 -0.15057081D-05
 -0.51988482D-06 -0.20718280D-06 -0.95490365D-07  0.26776495D-06 -0.21917842D-04
 -0.16805211D-04 -0.83869782D-05 -0.51666801D-05 -0.39614826D-05 -0.19770575D-05
  0.17991097D-09  0.13794432D-09  0.68843885D-10 -0.87750105D-04 -0.50358250D-05
 -0.36897335D-04 -0.21501881D-09 -0.16855436D-05 -0.10949955D-04 -0.13657428D-05
 -0.51043920D-05  0.28074339D-09  0.46980984D-09  0.39199562D-05  0.66489876D-05
  0.75696373D-05  0.11809523D-04 -0.12516650D-05 -0.21230607D-05 -0.24170295D-05
 -0.12821521D-04
MO    2     MO 0.0        OCC NO =    2.0000000  ORB. ENERGY =  -19.358758
  0.40632420D-05  0.74958880D-05  0.12100687D-04  0.15751500D-04  0.13440783D-04
  0.46407794D-05 -0.14828610D-04 -0.68344926D-05  0.19164631D-04  0.16680429D-04
  0.12789495D-04  0.63828545D-05 -0.44690084D-05 -0.34265522D-05 -0.17100897D-05
  0.15214714D-08  0.11665678D-08  0.58219908D-09 -0.13092298D-03 -0.97608180D-04
 -0.26150258D-04 -0.26655470D-09  0.87408054D-05 -0.88696148D-05  0.19675042D-04
 -0.12548387D-04 -0.78087492D-09 -0.77868062D-09  0.53764523D-05  0.99185048D-05
  0.16011542D-04  0.20842270D-04  0.17784747D-04  0.61406457D-05 -0.13931213D-04
 -0.64208833D-05  0.18004827D-04  0.62419771D-04  0.47859521D-04  0.23885255D-04
 -0.53046534D-04 -0.40672718D-04 -0.20298537D-04 -0.55696422D-09 -0.42704484D-09
 -0.21312530D-09  0.21715514D-03 -0.35421337D-04 -0.96304159D-04  0.46997337D-09
  0.24399343D-04  0.16791569D-04  0.34277244D-04  0.28073938D-05  0.36865893D-08
 -0.14429802D-08  0.12556626D-04  0.23164522D-04  0.37394722D-04  0.48676817D-04
  0.41536016D-04  0.14341388D-04 -0.67269477D-04 -0.31004440D-04  0.86939687D-04
  0.71245221D-04  0.54626317D-04  0.27262360D-04  0.50253469D-04  0.38531173D-04
  0.19229756D-04  0.36332980D-08  0.27857825D-08  0.13903007D-08 -0.89963366D-04
  0.28915199D-03  0.21763551D-03 -0.47683509D-08  0.16631749D-04  0.18761673D-07
  0.28440463D-04  0.15316819D-03  0.44315012D-08  0.10905830D-08 -0.26635729D-04
 -0.49137720D-04 -0.79323516D-04 -0.10325565D-03 -0.88108232D-04 -0.30421655D-04
 -0.35901049D-04 -0.16546761D-04  0.46398844D-04  0.56943702D-03  0.43660819D-03
  0.21789808D-03 -0.69676661D-04 -0.53423645D-04 -0.26662143D-04 -0.29933859D-07
 -0.22951385D-07 -0.11454349D-07  0.39733607D-04 -0.76080942D-03  0.69616559D-04
  0.20906367D-07  0.99101076D-04 -0.59363866D-04 -0.10085929D-03  0.74409370D-04
 -0.16166809D-07 -0.63042280D-08  0.13433654D-04  0.24782469D-04  0.40006589D-04
  0.52076692D-04  0.44437135D-04  0.15343075D-04 -0.90314821D-04 -0.41626018D-04
  0.11672370D-03 -0.95288837D-04 -0.73061437D-04 -0.36462777D-04 -0.57952560D-05
 -0.44434347D-05 -0.22175853D-05 -0.13807953D-09 -0.10587063D-09 -0.52836863D-10
 -0.68447575D-03  0.11288181D-03 -0.34474141D-03 -0.10606340D-07 -0.99183475D-04
 -0.70917462D-04  0.54696815D-04 -0.26925895D-04 -0.17615265D-08 -0.14291578D-07
 -0.50553849D-05 -0.93261979D-05 -0.15055375D-04 -0.19597625D-04 -0.16722689D-04
 -0.57739426D-05  0.31270804D-04  0.14412685D-04 -0.40414673D-04  0.52431027D-04
  0.40200786D-04  0.20063010D-04 -0.18925248D-05 -0.14510680D-05 -0.72418463D-06
  0.89361619D-09  0.68516822D-09  0.34194696D-09  0.33866008D-03  0.19282620D-03
 -0.31864563D-04 -0.19460136D-08  0.65139638D-04 -0.28726588D-05 -0.82029529D-05
 -0.41899599D-04 -0.83658070D-09 -0.62716413D-09 -0.47924222D-05 -0.81288551D-05
 -0.92544142D-05 -0.25429369D-04  0.41994001D-05  0.71229773D-05  0.81092579D-05
  0.15719173D-04 -0.15629791D-04 -0.26511084D-04 -0.30181933D-04 -0.11581405D-03
  0.31158443D-04  0.57348169D-04  0.92800162D-04  0.12198841D-03  0.10462875D-03
  0.35774347D-04 -0.10040873D-03 -0.44802181D-04  0.13230144D-03 -0.22666727D-03
 -0.17463491D-03 -0.76674132D-04 -0.10369599D-03 -0.79892174D-04 -0.35076967D-04
 -0.12247772D-07 -0.94362482D-08 -0.41430212D-08 -0.29559448D-03  0.23080307D-03
  0.66805213D-04  0.41103175D-08  0.87639218D-04  0.63091184D-04  0.11025381D-03
 -0.17998853D-03 -0.30485626D-08 -0.51475498D-08 -0.70632501D-05 -0.11980609D-04
 -0.13639500D-04 -0.15703371D-03  0.82557561D+00  0.15194998D+01  0.24588376D+01
  0.32322108D+01  0.27722484D+01  0.94787882D+00 -0.15684974D-01 -0.69986048D-02
  0.20666974D-01 -0.20963087D-02 -0.16150929D-02 -0.70911275D-03 -0.20100055D-02
 -0.15486009D-02 -0.67991919D-03  0.35950216D-06  0.27697703D-06  0.12160784D-06
  0.41531367D-02 -0.28342921D-03  0.13808259D-03  0.13599248D-07 -0.94338104D-02
 -0.96235427D-02 -0.94369058D-02  0.27470964D-04 -0.89035156D-08  0.57360742D-07
  0.82786662D-05  0.15272523D-04  0.24654587D-04  0.32092947D-04  0.27384969D-04
  0.94553718D-05 -0.72049248D-04 -0.33207432D-04  0.93117107D-04 -0.63622614D-04
 -0.48781785D-04 -0.24345529D-04  0.56858499D-03  0.43595491D-03  0.21757205D-03
 -0.80642683D-07 -0.61831695D-07 -0.30858349D-07 -0.31889255D-03 -0.40505265D-05
 -0.12615434D-03  0.16249047D-07  0.40669228D-04  0.51615693D-03  0.31819097D-04
 -0.19063531D-03  0.96191189D-08 -0.14029692D-06  0.26830746D-04  0.45510023D-04
  0.51811553D-04  0.25136427D-04  0.13736621D-04  0.23299908D-04  0.26526122D-04
  0.10807383D-04  0.13739782D-04  0.23305271D-04  0.26532227D-04  0.10803955D-04
  0.32782356D-05  0.60477045D-05  0.97628703D-05  0.12708356D-04  0.10844063D-04
  0.37441945D-05 -0.12324367D-04 -0.56802896D-05  0.15928125D-04  0.74567311D-05
  0.57173484D-05  0.28533576D-05 -0.11519522D-04 -0.88324387D-05 -0.44080059D-05
 -0.13157039D-08 -0.10087983D-08 -0.50346104D-09  0.83966197D-05 -0.36391664D-04
  0.38848050D-04  0.11303156D-08 -0.14787882D-04  0.15349951D-04  0.15538707D-04
 -0.16033416D-04  0.93213627D-09 -0.17418473D-09 -0.44920609D-05 -0.76193854D-05
 -0.86744010D-05 -0.24689852D-04  0.62645918D-05  0.10625933D-04  0.12097250D-04
  0.24506542D-04
MO    3     MO 0.0        OCC NO =    2.0000000  ORB. ENERGY =  -10.471729
  0.42001276D-04  0.77484153D-04  0.12508345D-03  0.16282148D-03  0.13893587D-03
  0.47971216D-04 -0.91186558D-04 -0.42027801D-04  0.11785034D-03 -0.15254620D-03
 -0.11696275D-03 -0.58372609D-04 -0.72514216D-04 -0.55599302D-04 -0.27747948D-04
  0.59493360D-09  0.45615735D-09  0.22765449D-09 -0.15407780D-02 -0.64076683D-03
  0.16456937D-03  0.92071462D-08  0.78787318D-04  0.27805795D-05  0.49553862D-04
  0.23108241D-04  0.17474869D-08 -0.43065237D-09  0.14737298D-02  0.27187438D-02
  0.43888954D-02  0.57130378D-02  0.48749455D-02  0.16832015D-02  0.29126106D-03
  0.13424196D-03 -0.37642846D-03 -0.24444193D-03 -0.18742257D-03 -0.93536996D-04
  0.24814709D-03  0.19026345D-03  0.94954797D-04  0.74062516D-08  0.56786440D-08
  0.28340413D-08  0.24939822D-02  0.26987685D-03 -0.12037824D-02 -0.20915848D-07
 -0.51423495D-03 -0.19804079D-03 -0.34993631D-03 -0.65359012D-04  0.14930103D-09
  0.32095129D-08  0.53256702D+00  0.98248216D+00  0.15860308D+01  0.20645409D+01
  0.17616765D+01  0.60826456D+00 -0.19748950D-01 -0.91022731D-02  0.25523724D-01
  0.75633328D-03  0.57990839D-03  0.28941493D-03  0.44808097D-03  0.34356007D-03
  0.17146055D-03 -0.74718381D-08 -0.57289315D-08 -0.28591384D-08 -0.38622492D-02
  0.14711749D-02  0.12613057D-02  0.79726288D-08 -0.95203523D-02 -0.97258457D-02
 -0.10390259D-01  0.69016213D-03 -0.32551328D-08  0.12734725D-07  0.39932840D-02
  0.73668292D-02  0.11892346D-01  0.15480302D-01  0.13209369D-01  0.45608778D-02
  0.20698055D-03  0.95397147D-04 -0.26750356D-03  0.10973420D-03  0.84137227D-04
  0.41990373D-04 -0.39550883D-03 -0.30325109D-03 -0.15134355D-03  0.25264418D-08
  0.19371154D-08  0.96675633D-09  0.25536806D-02 -0.11994382D-02  0.65405606D-03
  0.20591028D-07 -0.47210841D-03 -0.63738120D-03 -0.43276137D-03 -0.18022810D-03
  0.68330857D-08 -0.37045197D-08  0.42842878D-04  0.79036743D-04  0.12758981D-03
  0.16608402D-03  0.14171980D-03  0.48932440D-04 -0.67842716D-04 -0.31268646D-04
  0.87680547D-04 -0.59794824D-04 -0.45846879D-04 -0.22880806D-04 -0.11422095D-03
 -0.87577379D-04 -0.43707250D-04  0.68169627D-08  0.52268146D-08  0.26085468D-08
 -0.14338857D-02  0.72667263D-04 -0.73443855D-03 -0.16172411D-07  0.91085079D-04
  0.32582251D-04  0.28694832D-04  0.73995874D-04 -0.47162481D-09  0.10147257D-08
 -0.57013777D-04 -0.10517929D-03 -0.16979198D-03 -0.22101871D-03 -0.18859566D-03
 -0.65117551D-04  0.13564570D-03  0.62518979D-04 -0.17530974D-03 -0.10401600D-03
 -0.79752870D-04 -0.39802272D-04 -0.10237532D-03 -0.78494903D-04 -0.39174458D-04
 -0.34896563D-08 -0.26756471D-08 -0.13353354D-08  0.10142120D-02  0.55406928D-03
  0.47212969D-03  0.31966801D-08 -0.12605521D-04  0.22774000D-04 -0.12581253D-03
 -0.93057928D-04 -0.15654175D-08  0.40921608D-08 -0.19211489D-04 -0.32586321D-04
 -0.37098375D-04 -0.14044177D-03  0.46078400D-04  0.78157688D-04  0.88979765D-04
  0.36477133D-03 -0.24014888D-04 -0.40733795D-04 -0.46373986D-04 -0.21981523D-03
  0.13553239D-03  0.24945195D-03  0.40366034D-03  0.53062282D-03  0.45511211D-03
  0.15561056D-03 -0.73664428D-03 -0.32868924D-03  0.97062373D-03 -0.40028237D-05
 -0.30839599D-05 -0.13540245D-05  0.63938154D-04  0.49260901D-04  0.21628189D-04
  0.90352548D-09  0.69611767D-09  0.30563315D-09 -0.18473031D-02  0.63124759D-03
  0.50089212D-03  0.16123671D-08  0.79171450D-04  0.38420330D-03  0.10391327D-02
 -0.11355906D-02 -0.22646738D-08 -0.90277622D-08  0.45289514D-04  0.76819588D-04
  0.87456386D-04 -0.33525923D-04 -0.63330452D-04 -0.11656184D-03 -0.18861906D-03
 -0.24794503D-03 -0.21266101D-03 -0.72712412D-04  0.24931388D-03  0.11124337D-03
 -0.32850316D-03  0.43919492D-04  0.33837601D-04  0.14856530D-04 -0.48155039D-04
 -0.37100862D-04 -0.16289277D-04  0.15100789D-07  0.11634344D-07  0.51081037D-08
  0.72043278D-03 -0.20900633D-03  0.57097624D-04 -0.38702293D-08 -0.13061991D-03
 -0.21562118D-03 -0.24717086D-03 -0.79547547D-04 -0.23764229D-08  0.14348604D-07
 -0.22548755D-04 -0.41598050D-04 -0.67152151D-04 -0.87412148D-04 -0.74588944D-04
 -0.25753770D-04  0.59439238D-04  0.27395490D-04 -0.76819814D-04  0.50955006D-04
  0.39069067D-04  0.19498203D-04 -0.47200519D-04 -0.36190364D-04 -0.18061528D-04
  0.94711338D-08  0.72618647D-08  0.36241794D-08  0.11202158D-03 -0.78170359D-04
  0.42337706D-04 -0.31818623D-08 -0.24046308D-04 -0.42164858D-04 -0.40188921D-04
 -0.77539809D-04  0.13721569D-09  0.10120210D-07  0.36324190D-05  0.61612701D-05
  0.70143883D-05  0.33630489D-04 -0.12247611D-04 -0.20774266D-04 -0.23650768D-04
  0.18484219D-05 -0.12250453D-04 -0.20779087D-04 -0.23656256D-04  0.18587610D-05
  0.37943115D-05  0.69997639D-05  0.11299789D-04  0.14708968D-04  0.12551189D-04
  0.43336240D-05 -0.42168861D-06 -0.19435590D-06  0.54499422D-06  0.70145360D-04
  0.53783013D-04  0.26841493D-04  0.63942795D-04  0.49027279D-04  0.24468049D-04
  0.35922724D-09  0.27543266D-09  0.13746020D-09  0.34155394D-03  0.81692474D-04
  0.53485888D-04 -0.80056967D-09  0.28640186D-04  0.22866759D-04  0.13281122D-04
  0.15563826D-05 -0.13934075D-08 -0.12187810D-08 -0.22197695D-05 -0.37651492D-05
 -0.42864892D-05 -0.28876916D-05 -0.68365440D-05 -0.11596073D-04 -0.13201719D-04
 -0.70652652D-05
MO    4     MO 0.0        OCC NO =    2.0000000  ORB. ENERGY =  -10.442052
 -0.73744972D-04 -0.13604507D-03 -0.21961893D-03 -0.28587859D-03 -0.24394072D-03
 -0.84226869D-04  0.11504355D-03  0.53023468D-04 -0.14868334D-03 -0.67444370D-04
 -0.51712065D-04 -0.25807945D-04  0.33089159D-04  0.25370669D-04  0.12661742D-04
  0.20432690D-09  0.15666491D-09  0.78186770D-10  0.88776979D-03  0.53427014D-03
 -0.86616050D-05 -0.57799570D-08 -0.26490375D-04 -0.11963184D-04 -0.12312542D-03
  0.24681258D-04 -0.19237141D-08  0.44350078D-08 -0.13295335D-04 -0.24527298D-04
 -0.39594664D-04 -0.51540488D-04 -0.43979591D-04 -0.15185096D-04 -0.27564103D-04
 -0.12704270D-04  0.35624099D-04 -0.13129517D-03 -0.10066881D-03 -0.50240791D-04
  0.11151005D-03  0.85498833D-04  0.42669910D-04  0.21089445D-08  0.16170049D-08
  0.80699877D-09 -0.12738815D-02  0.31004156D-04  0.55801308D-03  0.69517697D-08
  0.13266603D-03  0.23896087D-04 -0.53447230D-05 -0.78459988D-04 -0.51036613D-08
  0.30138417D-08 -0.42911553D-02 -0.79163437D-02 -0.12779433D-01 -0.16635025D-01
 -0.14194697D-01 -0.49010877D-02  0.45236924D-03  0.20849657D-03 -0.58464615D-03
 -0.79434798D-04 -0.60905565D-04 -0.30396146D-04  0.37396418D-03  0.28673201D-03
  0.14309937D-03  0.41446703D-08  0.31778703D-08  0.15859800D-08  0.19964167D-02
 -0.81768062D-03 -0.94247850D-03 -0.37516742D-08 -0.40258082D-03 -0.53975385D-03
 -0.24142150D-03  0.32389672D-03  0.74041046D-08 -0.15646752D-07  0.53254299D+00
  0.98243783D+00  0.15859593D+01  0.20644478D+01  0.17615970D+01  0.60823711D+00
 -0.19830642D-01 -0.91399247D-02  0.25629303D-01  0.90803236D-03  0.69622162D-03
  0.34746338D-03  0.76285693D-04  0.58491031D-04  0.29191124D-04 -0.23914453D-07
 -0.18336086D-07 -0.91509918D-08 -0.38866468D-02  0.18900257D-02 -0.46170353D-03
 -0.30880395D-07 -0.93088427D-02 -0.99361588D-02 -0.10425638D-01 -0.24125350D-03
 -0.50225762D-07  0.17622493D-07  0.30148302D-02  0.55617730D-02  0.89784261D-02
  0.11687243D-01  0.99727456D-02  0.34433494D-02  0.30832293D-03  0.14210576D-03
 -0.39847937D-03 -0.14930408D-03 -0.11447690D-03 -0.57131994D-04 -0.35115210D-03
 -0.26924116D-03 -0.13437021D-03  0.99266649D-10  0.76111370D-10  0.37984908D-10
  0.29697928D-02 -0.16660345D-03  0.12836624D-02  0.23196618D-07 -0.40734583D-03
 -0.28196392D-03 -0.41401134D-03 -0.12225796D-03 -0.31589770D-08  0.76927851D-08
  0.57414723D-04  0.10591895D-03  0.17098603D-03  0.22257301D-03  0.18992195D-03
  0.65575485D-04 -0.12220994D-03 -0.56326451D-04  0.15794525D-03 -0.79901479D-04
 -0.61263386D-04 -0.30574723D-04 -0.26484591D-04 -0.20306705D-04 -0.10134469D-04
 -0.29964298D-08 -0.22974723D-08 -0.11465997D-08 -0.14221735D-02 -0.74992957D-03
 -0.64624840D-04  0.83111274D-08 -0.34067994D-04  0.52478993D-04  0.79321846D-04
  0.32044987D-04  0.36079225D-08  0.10073588D-09  0.25069281D-04  0.42522245D-04
  0.48410073D-04  0.15031190D-03 -0.18876819D-04 -0.32018658D-04 -0.36452110D-04
 -0.10590453D-03  0.46299497D-04  0.78532711D-04  0.89406715D-04  0.33537874D-03
 -0.86834510D-04 -0.15982185D-03 -0.25862193D-03 -0.33996576D-03 -0.29158666D-03
 -0.99698430D-04  0.31858102D-03  0.14215023D-03 -0.41977154D-03  0.14994915D-03
  0.11552774D-03  0.50722899D-04  0.28392010D-05  0.21874513D-05  0.96040894D-06
  0.39477432D-08  0.30415233D-08  0.13353926D-08  0.90959231D-03 -0.24130875D-03
 -0.93144921D-04 -0.15848100D-08 -0.25807456D-03 -0.27202455D-03 -0.34721934D-03
  0.13474435D-03  0.22101099D-08  0.31515340D-08 -0.31337923D-05 -0.53155049D-05
 -0.60515144D-05  0.33556677D-04  0.13341852D-03  0.24556129D-03  0.39736452D-03
  0.52234679D-03  0.44801381D-03  0.15318353D-03 -0.72676763D-03 -0.32428230D-03
  0.95760998D-03 -0.18665536D-03 -0.14380789D-03 -0.63139411D-04  0.15236496D-03
  0.11738898D-03  0.51540087D-04  0.25320792D-07  0.19508305D-07  0.85651967D-08
 -0.17888852D-02  0.87848090D-03 -0.27052273D-03 -0.31928256D-07 -0.33832619D-03
  0.71606870D-03  0.98248758D-03  0.62041207D-03  0.91830254D-07  0.22563299D-08
 -0.16112191D-04 -0.29723847D-04 -0.47983505D-04 -0.62460266D-04 -0.53297458D-04
 -0.18402331D-04  0.34410005D-04  0.15859540D-04 -0.44471805D-04 -0.11787291D-05
 -0.90377469D-06 -0.45104691D-06  0.29162798D-04  0.22360184D-04  0.11159299D-04
 -0.12664413D-07 -0.97102685D-08 -0.48461045D-08 -0.43993942D-04 -0.88913025D-04
 -0.39699611D-04  0.16296186D-07  0.53649527D-04  0.80562362D-05  0.59670199D-04
 -0.26955859D-03 -0.77527347D-08  0.16272179D-07  0.19025146D-04  0.32270249D-04
  0.36738538D-04  0.35991958D-04 -0.15602079D-04 -0.26464079D-04 -0.30128419D-04
 -0.20900606D-04 -0.15591541D-04 -0.26446204D-04 -0.30108068D-04 -0.20893115D-04
 -0.37046915D-04 -0.68344323D-04 -0.11032893D-03 -0.14361548D-03 -0.12254735D-03
 -0.42312656D-04  0.49767896D-04  0.22937978D-04 -0.64320484D-04 -0.43781845D-04
 -0.33569142D-04 -0.16753355D-04  0.12821111D-04  0.98304145D-05  0.49060658D-05
  0.11425516D-08  0.87603613D-09  0.43720343D-09 -0.97062553D-04  0.11002222D-03
 -0.12332062D-03 -0.33619636D-08  0.48872775D-04 -0.68246242D-04 -0.59478824D-04
  0.50517489D-04 -0.30579859D-08 -0.11069195D-08  0.14083799D-04  0.23888788D-04