 Entering Link 1 = D:\Gaussian\G16W\l1.exe PID=      4308.
  
 Copyright (c) 1988,1990,1992,1993,1995,1998,2003,2009,2016,
            Gaussian, Inc.  All Rights Reserved.
  
 This is part of the Gaussian(R) 16 program.  It is based on
 the Gaussian(R) 09 system (copyright 2009, Gaussian, Inc.),
 the Gaussian(R) 03 system (copyright 2003, Gaussian, Inc.),
 the Gaussian(R) 98 system (copyright 1998, Gaussian, Inc.),
 the Gaussian(R) 94 system (copyright 1995, Gaussian, Inc.),
 the Gaussian 92(TM) system (copyright 1992, Gaussian, Inc.),
 the Gaussian 90(TM) system (copyright 1990, Gaussian, Inc.),
 the Gaussian 88(TM) system (copyright 1988, Gaussian, Inc.),
 the Gaussian 86(TM) system (copyright 1986, Carnegie Mellon
 University), and the Gaussian 82(TM) system (copyright 1983,
 Carnegie Mellon University). Gaussian is a federally registered
 trademark of Gaussian, Inc.
  
 This software contains proprietary and confidential information,
 including trade secrets, belonging to Gaussian, Inc.
  
 This software is provided under written license and may be
 used, copied, transmitted, or stored only in accord with that
 written license.
  
 The following legend is applicable only to US Government
 contracts under FAR:
  
                    RESTRICTED RIGHTS LEGEND
  
 Use, reproduction and disclosure by the US Government is
 subject to restrictions as set forth in subparagraphs (a)
 and (c) of the Commercial Computer Software - Restricted
 Rights clause in FAR 52.227-19.
  
 Gaussian, Inc.
 340 Quinnipiac St., Bldg. 40, Wallingford CT 06492
  
  
 ---------------------------------------------------------------
 Warning -- This program may not be used in any manner that
 competes with the business of Gaussian, Inc. or will provide
 assistance to any competitor of Gaussian, Inc.  The licensee
 of this program is prohibited from giving any competitor of
 Gaussian, Inc. access to this program.  By using this program,
 the user acknowledges that Gaussian, Inc. is engaged in the
 business of creating and licensing software in the field of
 computational chemistry and represents and warrants to the
 licensee that it is not a competitor of Gaussian, Inc. and that
 it will not use this program in any manner prohibited above.
 ---------------------------------------------------------------
  

 Cite this work as:
 Gaussian 16, Revision A.03,
 M. J. Frisch, G. W. Trucks, H. B. Schlegel, G. E. Scuseria, 
 M. A. Robb, J. R. Cheeseman, G. Scalmani, V. Barone, 
 G. A. Petersson, H. Nakatsuji, X. Li, M. Caricato, A. V. Marenich, 
 J. Bloino, B. G. Janesko, R. Gomperts, B. Mennucci, H. P. Hratchian, 
 J. V. Ortiz, A. F. Izmaylov, J. L. Sonnenberg, D. Williams-Young, 
 F. Ding, F. Lipparini, F. Egidi, J. Goings, B. Peng, A. Petrone, 
 T. Henderson, D. Ranasinghe, V. G. Zakrzewski, J. Gao, N. Rega, 
 G. Zheng, W. Liang, M. Hada, M. Ehara, K. Toyota, R. Fukuda, 
 J. Hasegawa, M. Ishida, T. Nakajima, Y. Honda, O. Kitao, H. Nakai, 
 T. Vreven, K. Throssell, J. A. Montgomery, Jr., J. E. Peralta, 
 F. Ogliaro, M. J. Bearpark, J. J. Heyd, E. N. Brothers, K. N. Kudin, 
 V. N. Staroverov, T. A. Keith, R. Kobayashi, J. Normand, 
 K. Raghavachari, A. P. Rendell, J. C. Burant, S. S. Iyengar, 
 J. Tomasi, M. Cossi, J. M. Millam, M. Klene, C. Adamo, R. Cammi, 
 J. W. Ochterski, R. L. Martin, K. Morokuma, O. Farkas, 
 J. B. Foresman, and D. J. Fox, Gaussian, Inc., Wallingford CT, 2016.
 
 ******************************************
 Gaussian 16:  EM64W-G16RevA.03 17-Dec-2016
                03-Dec-2025 
 ******************************************
 %nprocs=   4
 Will use up to    4 processors via shared memory.
 ------------------------------------
 #P B3LYP/6-31G* SCF=conver=7 out=wfn
 ------------------------------------
 1/38=1,172=1/1;
 2/12=2,17=6,18=5,40=1/2;
 3/5=1,6=6,7=1,11=2,25=1,30=1,74=-5/1,2,3;
 4//1;
 5/5=2,6=7,38=5/2;
 6/7=2,8=2,9=2,10=2,28=1/1;
 99/5=1,6=100,9=1/99;
 Leave Link    1 at Wed Dec 03 11:18:28 2025, MaxMem=           0 cpu:               0.0 elap:               0.1
 (Enter D:\Gaussian\G16W\l101.exe)
 ----------------------------------------------------
 Generated by Multiwfn (http://sobereva.com/multiwfn)
 ----------------------------------------------------
 Symbolic Z-matrix:
 Charge =  1 Multiplicity = 1
 C                    -1.94843   0.87453   0.00001 
 C                    -0.87486   1.74716   0.00001 
 C                     0.43042   1.25886  -0.00001 
 C                     0.64948  -0.14049  -0.00003 
 C                    -0.4112   -1.01828  -0.00004 
 C                    -1.75958  -0.53724  -0.00001 
 H                    -2.95889   1.26674   0.00002 
 H                    -1.02071   2.82082   0.00003 
 H                    -0.24328  -2.08746  -0.00006 
 O                     1.48476   2.11469  -0.00001 
 H                     2.28813   1.57641  -0.00001 
 O                     1.98158  -0.47582  -0.00006 
 C                     2.33243  -1.85347   0.00011 
 H                     3.42058  -1.88746   0.00019 
 H                     1.95151  -2.35782   0.89433 
 H                     1.95164  -2.35802  -0.89405 
 C                    -2.84488  -1.42086  -0.00002 
 H                    -3.86245  -1.05186  0. 
 H                    -2.69763  -2.4935   -0.00003 
 
 ITRead=  0  0  0  0  0  0  0  0  0  0  0  0  0  0  0  0  0  0  0
 MicOpt= -1 -1 -1 -1 -1 -1 -1 -1 -1 -1 -1 -1 -1 -1 -1 -1 -1 -1 -1
 NAtoms=     19 NQM=       19 NQMF=       0 NMMI=      0 NMMIF=      0
                NMic=       0 NMicF=      0.
                    Isotopes and Nuclear Properties:
 (Nuclear quadrupole moments (NQMom) in fm**2, nuclear magnetic moments (NMagM)
  in nuclear magnetons)

  Atom         1           2           3           4           5           6           7           8           9          10
 IAtWgt=          12          12          12          12          12          12           1           1           1          16
 AtmWgt=  12.0000000  12.0000000  12.0000000  12.0000000  12.0000000  12.0000000   1.0078250   1.0078250   1.0078250  15.9949146
 NucSpn=           0           0           0           0           0           0           1           1           1           0
 AtZEff=   0.0000000   0.0000000   0.0000000   0.0000000   0.0000000   0.0000000   0.0000000   0.0000000   0.0000000   0.0000000
 NQMom=    0.0000000   0.0000000   0.0000000   0.0000000   0.0000000   0.0000000   0.0000000   0.0000000   0.0000000   0.0000000
 NMagM=    0.0000000   0.0000000   0.0000000   0.0000000   0.0000000   0.0000000   2.7928460   2.7928460   2.7928460   0.0000000
 AtZNuc=   6.0000000   6.0000000   6.0000000   6.0000000   6.0000000   6.0000000   1.0000000   1.0000000   1.0000000   8.0000000

  Atom        11          12          13          14          15          16          17          18          19
 IAtWgt=           1          16          12           1           1           1          12           1           1
 AtmWgt=   1.0078250  15.9949146  12.0000000   1.0078250   1.0078250   1.0078250  12.0000000   1.0078250   1.0078250
 NucSpn=           1           0           0           1           1           1           0           1           1
 AtZEff=   0.0000000   0.0000000   0.0000000   0.0000000   0.0000000   0.0000000   0.0000000   0.0000000   0.0000000
 NQMom=    0.0000000   0.0000000   0.0000000   0.0000000   0.0000000   0.0000000   0.0000000   0.0000000   0.0000000
 NMagM=    2.7928460   0.0000000   0.0000000   2.7928460   2.7928460   2.7928460   0.0000000   2.7928460   2.7928460
 AtZNuc=   1.0000000   8.0000000   6.0000000   1.0000000   1.0000000   1.0000000   6.0000000   1.0000000   1.0000000
 Leave Link  101 at Wed Dec 03 11:18:28 2025, MaxMem=   104857600 cpu:               0.0 elap:               0.1
 (Enter D:\Gaussian\G16W\l202.exe)
                          Input orientation:                          
 ---------------------------------------------------------------------
 Center     Atomic      Atomic             Coordinates (Angstroms)
 Number     Number       Type             X           Y           Z
 ---------------------------------------------------------------------
      1          6           0       -1.948433    0.874527    0.000009
      2          6           0       -0.874855    1.747164    0.000010
      3          6           0        0.430422    1.258858   -0.000009
      4          6           0        0.649483   -0.140489   -0.000032
      5          6           0       -0.411197   -1.018283   -0.000036
      6          6           0       -1.759575   -0.537236   -0.000014
      7          1           0       -2.958886    1.266738    0.000024
      8          1           0       -1.020712    2.820817    0.000029
      9          1           0       -0.243277   -2.087456   -0.000060
     10          8           0        1.484759    2.114687   -0.000005
     11          1           0        2.288128    1.576405   -0.000008
     12          8           0        1.981581   -0.475822   -0.000064
     13          6           0        2.332431   -1.853471    0.000111
     14          1           0        3.420579   -1.887461    0.000186
     15          1           0        1.951514   -2.357820    0.894331
     16          1           0        1.951639   -2.358017   -0.894052
     17          6           0       -2.844879   -1.420862   -0.000015
     18          1           0       -3.862449   -1.051863   -0.000002
     19          1           0       -2.697634   -2.493503   -0.000033
 ---------------------------------------------------------------------
                    Distance matrix (angstroms):
                    1          2          3          4          5
     1  C    0.000000
     2  C    1.383497   0.000000
     3  C    2.409702   1.393625   0.000000
     4  C    2.789162   2.426281   1.416390   0.000000
     5  C    2.438406   2.804046   2.427693   1.376795   0.000000
     6  C    1.424339   2.449737   2.832321   2.441509   1.431618
     7  H    1.083903   2.138690   3.389317   3.873063   3.422286
     8  H    2.156087   1.083515   2.132019   3.399836   3.887184
     9  H    3.417733   3.886284   3.413457   2.141892   1.082279
    10  O    3.650316   2.388064   1.357965   2.404892   3.661987
    11  H    4.294308   3.167589   1.884651   2.373369   3.744164
    12  O    4.155533   3.619516   2.327060   1.373657   2.453498
    13  C    5.076196   4.821956   3.647496   2.401379   2.867932
    14  H    6.037787   5.626833   4.340549   3.275803   3.929119
    15  H    5.143682   5.063503   4.024168   2.722449   2.859485
    16  H    5.143855   5.063687   4.024326   2.722556   2.859571
    17  C    2.464229   3.730601   4.231843   3.721548   2.466755
    18  H    2.715591   4.093931   4.875261   4.603057   3.451415
    19  H    3.450352   4.615818   4.885176   4.091438   2.721042
                    6          7          8          9         10
     6  C    0.000000
     7  H    2.166257   0.000000
     8  H    3.438377   2.484287   0.000000
     9  H    2.168488   4.315686   4.969462   0.000000
    10  O    4.190274   4.523826   2.603076   4.543579   0.000000
    11  H    4.566331   5.256144   3.535107   4.453301   0.967031
    12  O    3.741660   5.238772   4.458878   2.747245   2.637720
    13  C    4.298487   6.142779   5.752611   2.586314   4.057687
    14  H    5.353233   7.116639   6.472476   3.669310   4.445738
    15  H    4.229251   6.168406   6.037564   2.385401   4.584868
    16  H    4.229380   6.168588   6.037762   2.385389   4.585017
    17  C    1.399528   2.690017   4.617296   2.685643   5.589801
    18  H    2.164930   2.488441   4.803449   3.764420   6.214473
    19  H    2.169547   3.769306   5.572617   2.487718   6.223169
                   11         12         13         14         15
    11  H    0.000000
    12  O    2.074996   0.000000
    13  C    3.430162   1.421623   0.000000
    14  H    3.644285   2.015798   1.088679   0.000000
    15  H    4.048614   2.083930   1.095032   1.782943   0.000000
    16  H    4.048730   2.083931   1.095033   1.782938   1.788383
    17  C    5.944020   4.918111   5.195353   6.282808   4.968212
    18  H    6.688602   5.872351   6.246528   7.330806   6.025572
    19  H    6.435991   5.095693   5.070621   6.148156   4.736335
                   16         17         18         19
    16  H    0.000000
    17  C    4.968314   0.000000
    18  H    6.025694   1.082409   0.000000
    19  H    4.736387   1.082700   1.853408   0.000000
 Stoichiometry    C8H9O2(1+)
 Framework group  C1[X(C8H9O2)]
 Deg. of freedom    51
 Full point group                 C1      NOp   1
 Largest Abelian subgroup         C1      NOp   1
 Largest concise Abelian subgroup C1      NOp   1
                         Standard orientation:                         
 ---------------------------------------------------------------------
 Center     Atomic      Atomic             Coordinates (Angstroms)
 Number     Number       Type             X           Y           Z
 ---------------------------------------------------------------------
      1          6           0       -1.948433    0.874527    0.000009
      2          6           0       -0.874855    1.747164    0.000010
      3          6           0        0.430422    1.258858   -0.000009
      4          6           0        0.649483   -0.140489   -0.000032
      5          6           0       -0.411197   -1.018283   -0.000036
      6          6           0       -1.759575   -0.537236   -0.000014
      7          1           0       -2.958886    1.266739    0.000024
      8          1           0       -1.020711    2.820817    0.000029
      9          1           0       -0.243278   -2.087456   -0.000060
     10          8           0        1.484760    2.114686   -0.000005
     11          1           0        2.288128    1.576404   -0.000008
     12          8           0        1.981581   -0.475823   -0.000064
     13          6           0        2.332430   -1.853472    0.000111
     14          1           0        3.420578   -1.887462    0.000186
     15          1           0        1.951513   -2.357821    0.894331
     16          1           0        1.951638   -2.358018   -0.894052
     17          6           0       -2.844879   -1.420861   -0.000015
     18          1           0       -3.862449   -1.051862   -0.000002
     19          1           0       -2.697635   -2.493502   -0.000033
 ---------------------------------------------------------------------
 Rotational constants (GHZ):           1.9344685           1.2013948           0.7446429
 Leave Link  202 at Wed Dec 03 11:18:28 2025, MaxMem=   104857600 cpu:               0.0 elap:               0.1
 (Enter D:\Gaussian\G16W\l301.exe)
 Standard basis: 6-31G(d) (6D, 7F)
 Ernie: Thresh=  0.10000D-02 Tol=  0.10000D-05 Strict=F.
 There are   168 symmetry adapted cartesian basis functions of A   symmetry.
 There are   168 symmetry adapted basis functions of A   symmetry.
   168 basis functions,   316 primitive gaussians,   168 cartesian basis functions
    36 alpha electrons       36 beta electrons
       nuclear repulsion energy       506.5101761177 Hartrees.
 IExCor=  402 DFT=T Ex+Corr=B3LYP ExCW=0 ScaHFX=  0.200000
 ScaDFX=  0.800000  0.720000  1.000000  0.810000 ScalE2=  1.000000  1.000000
 IRadAn=      5 IRanWt=     -1 IRanGd=            0 ICorTp=0 IEmpDi=  4
 NAtoms=   19 NActive=   19 NUniq=   19 SFac= 1.00D+00 NAtFMM=   60 NAOKFM=F Big=F
 Integral buffers will be    131072 words long.
 Raffenetti 2 integral format.
 Two-electron integral symmetry is turned on.
 Leave Link  301 at Wed Dec 03 11:18:28 2025, MaxMem=   104857600 cpu:               0.0 elap:               0.1
 (Enter D:\Gaussian\G16W\l302.exe)
 NPDir=0 NMtPBC=     1 NCelOv=     1 NCel=       1 NClECP=     1 NCelD=      1
         NCelK=      1 NCelE2=     1 NClLst=     1 CellRange=     0.0.
 One-electron integrals computed using PRISM.
 One-electron integral symmetry used in STVInt
 NBasis=   168 RedAO= T EigKep=  3.91D-04  NBF=   168
 NBsUse=   168 1.00D-06 EigRej= -1.00D+00 NBFU=   168
 Precomputing XC quadrature grid using
 IXCGrd= 4 IRadAn=           5 IRanWt=          -1 IRanGd=           0 AccXCQ= 0.00D+00.
 Generated NRdTot=       0 NPtTot=           0 NUsed=           0 NTot=          32
 NSgBfM=   168   168   168   168   168 MxSgAt=    19 MxSgA2=    19.
 Leave Link  302 at Wed Dec 03 11:18:29 2025, MaxMem=   104857600 cpu:               1.0 elap:               0.4
 (Enter D:\Gaussian\G16W\l303.exe)
 DipDrv:  MaxL=1.
 Leave Link  303 at Wed Dec 03 11:18:29 2025, MaxMem=   104857600 cpu:               0.0 elap:               0.1
 (Enter D:\Gaussian\G16W\l401.exe)
 ExpMin= 1.61D-01 ExpMax= 5.48D+03 ExpMxC= 8.25D+02 IAcc=3 IRadAn=         5 AccDes= 0.00D+00
 Harris functional with IExCor=  402 and IRadAn=       5 diagonalized for initial guess.
 HarFok:  IExCor=  402 AccDes= 0.00D+00 IRadAn=         5 IDoV= 1 UseB2=F ITyADJ=14
 ICtDFT=  3500011 ScaDFX=  1.000000  1.000000  1.000000  1.000000
 FoFCou: FMM=F IPFlag=           0 FMFlag=      100000 FMFlg1=           0
         NFxFlg=           0 DoJE=T BraDBF=F KetDBF=T FulRan=T
         wScrn=  0.000000 ICntrl=       500 IOpCl=  0 I1Cent=   200000004 NGrid=           0
         NMat0=    1 NMatS0=      1 NMatT0=    0 NMatD0=    1 NMtDS0=    0 NMtDT0=    0
 Petite list used in FoFCou.
 Harris En= -460.433913458814    
 JPrj=0 DoOrth=F DoCkMO=F.
 Leave Link  401 at Wed Dec 03 11:18:30 2025, MaxMem=   104857600 cpu:               1.0 elap:               1.1
 (Enter D:\Gaussian\G16W\l502.exe)
 Keep R1 ints in memory in canonical form, NReq=104755543.
 FoFCou: FMM=F IPFlag=           0 FMFlag=           0 FMFlg1=           0
         NFxFlg=           0 DoJE=F BraDBF=F KetDBF=F FulRan=T
         wScrn=  0.000000 ICntrl=       600 IOpCl=  0 I1Cent=           0 NGrid=           0
         NMat0=    1 NMatS0=  14196 NMatT0=    0 NMatD0=    1 NMtDS0=    0 NMtDT0=    0
 Symmetry not used in FoFCou.
 Two-electron integral symmetry not used.
 Closed shell SCF:
 Using DIIS extrapolation, IDIIS=  1040.
 NGot=   104857600 LenX=     4027843 LenY=     3999178
 Requested convergence on RMS density matrix=1.00D-07 within 128 cycles.
 Requested convergence on MAX density matrix=1.00D-05.
 Requested convergence on             energy=1.00D-05.
 No special actions if energy rises.
 Integral accuracy reduced to 1.0D-05 until final iterations.

 Cycle   1  Pass 0  IDiag  1:
 CalDSu:  requested number of processors reduced to:   3 ShMem   1 Linda.
 E= -460.281699589305    
 DIIS: error= 2.82D-02 at cycle   1 NSaved=   1.
 NSaved= 1 IEnMin= 1 EnMin= -460.281699589305     IErMin= 1 ErrMin= 2.82D-02
 ErrMax= 2.82D-02  0.00D+00 EMaxC= 1.00D-01 BMatC= 1.55D-01 BMatP= 1.55D-01
 IDIUse=3 WtCom= 7.18D-01 WtEn= 2.82D-01
 Coeff-Com:  0.100D+01
 Coeff-En:   0.100D+01
 Coeff:      0.100D+01
 Gap=     0.115 Goal=   None    Shift=    0.000
 GapD=    0.115 DampG=1.000 DampE=0.500 DampFc=0.5000 IDamp=-1.
 Damping current iteration by 5.00D-01
 RMSDP=4.63D-03 MaxDP=1.12D-01              OVMax= 1.70D-01

 Cycle   2  Pass 0  IDiag  1:
 CalDSu:  requested number of processors reduced to:   3 ShMem   1 Linda.
 E= -460.340921935891     Delta-E=       -0.059222346586 Rises=F Damp=T
 DIIS: error= 7.54D-03 at cycle   2 NSaved=   2.
 NSaved= 2 IEnMin= 2 EnMin= -460.340921935891     IErMin= 2 ErrMin= 7.54D-03
 ErrMax= 7.54D-03  0.00D+00 EMaxC= 1.00D-01 BMatC= 1.62D-02 BMatP= 1.55D-01
 IDIUse=3 WtCom= 9.25D-01 WtEn= 7.54D-02
 Coeff-Com:  0.748D-01 0.925D+00
 Coeff-En:   0.148D+00 0.852D+00
 Coeff:      0.803D-01 0.920D+00
 Gap=     0.108 Goal=   None    Shift=    0.000
 RMSDP=1.93D-03 MaxDP=5.29D-02 DE=-5.92D-02 OVMax= 2.11D-01

 Cycle   3  Pass 0  IDiag  1:
 CalDSu:  requested number of processors reduced to:   3 ShMem   1 Linda.
 E= -460.398176948444     Delta-E=       -0.057255012553 Rises=F Damp=F
 DIIS: error= 1.29D-02 at cycle   3 NSaved=   3.
 NSaved= 3 IEnMin= 3 EnMin= -460.398176948444     IErMin= 2 ErrMin= 7.54D-03
 ErrMax= 1.29D-02  0.00D+00 EMaxC= 1.00D-01 BMatC= 2.33D-02 BMatP= 1.62D-02
 IDIUse=2 WtCom= 0.00D+00 WtEn= 1.00D+00
 Coeff-En:   0.000D+00 0.000D+00 0.100D+01
 Coeff:      0.000D+00 0.000D+00 0.100D+01
 Gap=     0.128 Goal=   None    Shift=    0.000
 RMSDP=3.24D-03 MaxDP=1.03D-01 DE=-5.73D-02 OVMax= 2.82D-01

 Cycle   4  Pass 0  IDiag  1:
 CalDSu:  requested number of processors reduced to:   3 ShMem   1 Linda.
 E= -460.263264714646     Delta-E=        0.134912233798 Rises=F Damp=F
 DIIS: error= 2.98D-02 at cycle   4 NSaved=   4.
 NSaved= 4 IEnMin= 3 EnMin= -460.398176948444     IErMin= 2 ErrMin= 7.54D-03
 ErrMax= 2.98D-02  0.00D+00 EMaxC= 1.00D-01 BMatC= 1.32D-01 BMatP= 1.62D-02
 IDIUse=2 WtCom= 0.00D+00 WtEn= 1.00D+00
 Coeff-En:   0.000D+00 0.000D+00 0.792D+00 0.208D+00
 Coeff:      0.000D+00 0.000D+00 0.792D+00 0.208D+00
 Gap=     0.118 Goal=   None    Shift=    0.000
 RMSDP=1.68D-03 MaxDP=5.52D-02 DE= 1.35D-01 OVMax= 1.43D-01

 Cycle   5  Pass 0  IDiag  1:
 CalDSu:  requested number of processors reduced to:   3 ShMem   1 Linda.
 E= -460.411881196250     Delta-E=       -0.148616481604 Rises=F Damp=F
 DIIS: error= 8.50D-03 at cycle   5 NSaved=   5.
 NSaved= 5 IEnMin= 5 EnMin= -460.411881196250     IErMin= 2 ErrMin= 7.54D-03
 ErrMax= 8.50D-03  0.00D+00 EMaxC= 1.00D-01 BMatC= 1.20D-02 BMatP= 1.62D-02
 IDIUse=3 WtCom= 9.15D-01 WtEn= 8.50D-02
 Coeff-Com:  0.113D-01-0.242D-02 0.370D+00-0.410D-01 0.662D+00
 Coeff-En:   0.000D+00 0.000D+00 0.381D+00 0.000D+00 0.619D+00
 Coeff:      0.104D-01-0.222D-02 0.371D+00-0.375D-01 0.658D+00
 Gap=     0.110 Goal=   None    Shift=    0.000
 RMSDP=6.79D-04 MaxDP=1.97D-02 DE=-1.49D-01 OVMax= 5.89D-02

 Cycle   6  Pass 0  IDiag  1:
 CalDSu:  requested number of processors reduced to:   3 ShMem   1 Linda.
 E= -460.425794420661     Delta-E=       -0.013913224412 Rises=F Damp=F
 DIIS: error= 8.18D-04 at cycle   6 NSaved=   6.
 NSaved= 6 IEnMin= 6 EnMin= -460.425794420661     IErMin= 6 ErrMin= 8.18D-04
 ErrMax= 8.18D-04  0.00D+00 EMaxC= 1.00D-01 BMatC= 1.10D-04 BMatP= 1.20D-02
 IDIUse=3 WtCom= 9.92D-01 WtEn= 8.18D-03
 Coeff-Com:  0.477D-02-0.686D-02 0.154D+00-0.539D-01 0.400D+00 0.501D+00
 Coeff-En:   0.000D+00 0.000D+00 0.000D+00 0.000D+00 0.000D+00 0.100D+01
 Coeff:      0.473D-02-0.680D-02 0.153D+00-0.535D-01 0.397D+00 0.505D+00
 Gap=     0.111 Goal=   None    Shift=    0.000
 RMSDP=5.97D-05 MaxDP=2.24D-03 DE=-1.39D-02 OVMax= 4.52D-03

 Cycle   7  Pass 0  IDiag  1:
 CalDSu:  requested number of processors reduced to:   3 ShMem   1 Linda.
 E= -460.425891847285     Delta-E=       -0.000097426624 Rises=F Damp=F
 DIIS: error= 2.13D-04 at cycle   7 NSaved=   7.
 NSaved= 7 IEnMin= 7 EnMin= -460.425891847285     IErMin= 7 ErrMin= 2.13D-04
 ErrMax= 2.13D-04  0.00D+00 EMaxC= 1.00D-01 BMatC= 5.79D-06 BMatP= 1.10D-04
 IDIUse=3 WtCom= 9.98D-01 WtEn= 2.13D-03
 Coeff-Com:  0.205D-02-0.306D-02 0.662D-01-0.287D-01 0.186D+00 0.273D+00
 Coeff-Com:  0.505D+00
 Coeff-En:   0.000D+00 0.000D+00 0.000D+00 0.000D+00 0.000D+00 0.000D+00
 Coeff-En:   0.100D+01
 Coeff:      0.205D-02-0.306D-02 0.661D-01-0.287D-01 0.186D+00 0.272D+00
 Coeff:      0.506D+00
 Gap=     0.111 Goal=   None    Shift=    0.000
 RMSDP=1.47D-05 MaxDP=4.54D-04 DE=-9.74D-05 OVMax= 5.83D-04

 Cycle   8  Pass 0  IDiag  1:
 CalDSu:  requested number of processors reduced to:   3 ShMem   1 Linda.
 E= -460.425896374168     Delta-E=       -0.000004526883 Rises=F Damp=F
 DIIS: error= 3.74D-05 at cycle   8 NSaved=   8.
 NSaved= 8 IEnMin= 8 EnMin= -460.425896374168     IErMin= 8 ErrMin= 3.74D-05
 ErrMax= 3.74D-05  0.00D+00 EMaxC= 1.00D-01 BMatC= 4.48D-07 BMatP= 5.79D-06
 IDIUse=1 WtCom= 1.00D+00 WtEn= 0.00D+00
 Coeff-Com:  0.438D-03-0.789D-03 0.928D-02-0.467D-02 0.250D-01 0.450D-01
 Coeff-Com:  0.220D+00 0.706D+00
 Coeff:      0.438D-03-0.789D-03 0.928D-02-0.467D-02 0.250D-01 0.450D-01
 Coeff:      0.220D+00 0.706D+00
 Gap=     0.111 Goal=   None    Shift=    0.000
 RMSDP=4.30D-06 MaxDP=1.34D-04 DE=-4.53D-06 OVMax= 3.97D-04

 Initial convergence to 1.0D-05 achieved.  Increase integral accuracy.
 Cycle   9  Pass 1  IDiag  1:
 CalDSu:  requested number of processors reduced to:   3 ShMem   1 Linda.
 E= -460.425900113029     Delta-E=       -0.000003738861 Rises=F Damp=F
 DIIS: error= 1.71D-05 at cycle   1 NSaved=   1.
 NSaved= 1 IEnMin= 1 EnMin= -460.425900113029     IErMin= 1 ErrMin= 1.71D-05
 ErrMax= 1.71D-05  0.00D+00 EMaxC= 1.00D-01 BMatC= 9.20D-08 BMatP= 9.20D-08
 IDIUse=1 WtCom= 1.00D+00 WtEn= 0.00D+00
 Coeff-Com:  0.100D+01
 Coeff:      0.100D+01
 Gap=     0.111 Goal=   None    Shift=    0.000
 RMSDP=4.30D-06 MaxDP=1.34D-04 DE=-3.74D-06 OVMax= 2.52D-04

 Cycle  10  Pass 1  IDiag  1:
 CalDSu:  requested number of processors reduced to:   3 ShMem   1 Linda.
 E= -460.425899958015     Delta-E=        0.000000155015 Rises=F Damp=F
 DIIS: error= 3.66D-05 at cycle   2 NSaved=   2.
 NSaved= 2 IEnMin= 1 EnMin= -460.425900113029     IErMin= 1 ErrMin= 1.71D-05
 ErrMax= 3.66D-05  0.00D+00 EMaxC= 1.00D-01 BMatC= 2.57D-07 BMatP= 9.20D-08
 IDIUse=1 WtCom= 1.00D+00 WtEn= 0.00D+00
 Coeff-Com:  0.629D+00 0.371D+00
 Coeff:      0.629D+00 0.371D+00
 Gap=     0.111 Goal=   None    Shift=    0.000
 RMSDP=2.96D-06 MaxDP=9.97D-05 DE= 1.55D-07 OVMax= 1.93D-04

 Cycle  11  Pass 1  IDiag  1:
 CalDSu:  requested number of processors reduced to:   3 ShMem   1 Linda.
 E= -460.425900197489     Delta-E=       -0.000000239474 Rises=F Damp=F
 DIIS: error= 5.92D-06 at cycle   3 NSaved=   3.
 NSaved= 3 IEnMin= 3 EnMin= -460.425900197489     IErMin= 3 ErrMin= 5.92D-06
 ErrMax= 5.92D-06  0.00D+00 EMaxC= 1.00D-01 BMatC= 3.94D-09 BMatP= 9.20D-08
 IDIUse=1 WtCom= 1.00D+00 WtEn= 0.00D+00
 Coeff-Com:  0.270D+00 0.191D+00 0.539D+00
 Coeff:      0.270D+00 0.191D+00 0.539D+00
 Gap=     0.111 Goal=   None    Shift=    0.000
 RMSDP=4.62D-07 MaxDP=1.34D-05 DE=-2.39D-07 OVMax= 2.47D-05

 Cycle  12  Pass 1  IDiag  1:
 CalDSu:  requested number of processors reduced to:   3 ShMem   1 Linda.
 E= -460.425900200713     Delta-E=       -0.000000003224 Rises=F Damp=F
 DIIS: error= 1.62D-06 at cycle   4 NSaved=   4.
 NSaved= 4 IEnMin= 4 EnMin= -460.425900200713     IErMin= 4 ErrMin= 1.62D-06
 ErrMax= 1.62D-06  0.00D+00 EMaxC= 1.00D-01 BMatC= 5.02D-10 BMatP= 3.94D-09
 IDIUse=1 WtCom= 1.00D+00 WtEn= 0.00D+00
 Coeff-Com:  0.161D-01 0.320D-01 0.280D+00 0.672D+00
 Coeff:      0.161D-01 0.320D-01 0.280D+00 0.672D+00
 Gap=     0.111 Goal=   None    Shift=    0.000
 RMSDP=1.79D-07 MaxDP=5.91D-06 DE=-3.22D-09 OVMax= 1.34D-05

 Cycle  13  Pass 1  IDiag  1:
 CalDSu:  requested number of processors reduced to:   3 ShMem   1 Linda.
 E= -460.425900201052     Delta-E=       -0.000000000338 Rises=F Damp=F
 DIIS: error= 1.17D-06 at cycle   5 NSaved=   5.
 NSaved= 5 IEnMin= 5 EnMin= -460.425900201052     IErMin= 5 ErrMin= 1.17D-06
 ErrMax= 1.17D-06  0.00D+00 EMaxC= 1.00D-01 BMatC= 1.42D-10 BMatP= 5.02D-10
 IDIUse=1 WtCom= 1.00D+00 WtEn= 0.00D+00
 Coeff-Com: -0.867D-02 0.898D-02 0.142D+00 0.442D+00 0.416D+00
 Coeff:     -0.867D-02 0.898D-02 0.142D+00 0.442D+00 0.416D+00
 Gap=     0.111 Goal=   None    Shift=    0.000
 RMSDP=9.40D-08 MaxDP=2.37D-06 DE=-3.38D-10 OVMax= 9.98D-06

 SCF Done:  E(RB3LYP) =  -460.425900201     A.U. after   13 cycles
            NFock= 13  Conv=0.94D-07     -V/T= 2.0095
 KE= 4.560755836753D+02 PE=-2.071457905293D+03 EE= 6.484462452990D+02
 Leave Link  502 at Wed Dec 03 11:18:46 2025, MaxMem=   104857600 cpu:              16.0 elap:              16.3
 (Enter D:\Gaussian\G16W\l601.exe)
 Copying SCF densities to generalized density rwf, IOpCl= 0 IROHF=0.

 **********************************************************************

            Population analysis using the SCF density.

 **********************************************************************

 Orbital symmetries:
       Occupied  (A) (A) (A) (A) (A) (A) (A) (A) (A) (A) (A) (A)
                 (A) (A) (A) (A) (A) (A) (A) (A) (A) (A) (A) (A)
                 (A) (A) (A) (A) (A) (A) (A) (A) (A) (A) (A) (A)
       Virtual   (A) (A) (A) (A) (A) (A) (A) (A) (A) (A) (A) (A)
                 (A) (A) (A) (A) (A) (A) (A) (A) (A) (A) (A) (A)
                 (A) (A) (A) (A) (A) (A) (A) (A) (A) (A) (A) (A)
                 (A) (A) (A) (A) (A) (A) (A) (A) (A) (A) (A) (A)
                 (A) (A) (A) (A) (A) (A) (A) (A) (A) (A) (A) (A)
                 (A) (A) (A) (A) (A) (A) (A) (A) (A) (A) (A) (A)
                 (A) (A) (A) (A) (A) (A) (A) (A) (A) (A) (A) (A)
                 (A) (A) (A) (A) (A) (A) (A) (A) (A) (A) (A) (A)
                 (A) (A) (A) (A) (A) (A) (A) (A) (A) (A) (A) (A)
                 (A) (A) (A) (A) (A) (A) (A) (A) (A) (A) (A) (A)
                 (A) (A) (A) (A) (A) (A) (A) (A) (A) (A) (A) (A)
 The electronic state is 1-A.
 Alpha  occ. eigenvalues --  -19.38111 -19.35876 -10.47173 -10.44205 -10.42205
 Alpha  occ. eigenvalues --  -10.40376 -10.39987 -10.38906 -10.38638 -10.38080
 Alpha  occ. eigenvalues --   -1.26641  -1.23115  -1.05568  -0.97360  -0.94475
 Alpha  occ. eigenvalues --   -0.88210  -0.86458  -0.79368  -0.77720  -0.74294
 Alpha  occ. eigenvalues --   -0.70054  -0.67790  -0.64981  -0.63621  -0.62669
 Alpha  occ. eigenvalues --   -0.61642  -0.59465  -0.59364  -0.58035  -0.56762
 Alpha  occ. eigenvalues --   -0.54136  -0.53371  -0.50854  -0.50287  -0.44603
 Alpha  occ. eigenvalues --   -0.41137
 Alpha virt. eigenvalues --   -0.30071  -0.17802  -0.15190  -0.09208  -0.05502
 Alpha virt. eigenvalues --   -0.03810  -0.03303  -0.02391  -0.01502   0.00274
 Alpha virt. eigenvalues --    0.02241   0.02473   0.02836   0.03063   0.05451
 Alpha virt. eigenvalues --    0.08268   0.10294   0.14596   0.15490   0.18278
 Alpha virt. eigenvalues --    0.20952   0.30062   0.31053   0.32395   0.32992
 Alpha virt. eigenvalues --    0.35377   0.36739   0.38080   0.39188   0.39705
 Alpha virt. eigenvalues --    0.40490   0.42844   0.43604   0.44872   0.45360
 Alpha virt. eigenvalues --    0.46296   0.46981   0.48578   0.53961   0.55133
 Alpha virt. eigenvalues --    0.58812   0.61232   0.64516   0.65252   0.68027
 Alpha virt. eigenvalues --    0.68921   0.70888   0.71906   0.74030   0.74513
 Alpha virt. eigenvalues --    0.76081   0.77099   0.77713   0.79997   0.82017
 Alpha virt. eigenvalues --    0.82791   0.84979   0.89505   0.91636   0.92784
 Alpha virt. eigenvalues --    0.93907   0.96380   1.03337   1.04490   1.10222
 Alpha virt. eigenvalues --    1.11670   1.13012   1.16839   1.17659   1.19477
 Alpha virt. eigenvalues --    1.21554   1.24250   1.27479   1.28598   1.33436
 Alpha virt. eigenvalues --    1.34549   1.46288   1.50555   1.52884   1.53797
 Alpha virt. eigenvalues --    1.55567   1.59779   1.64626   1.68172   1.68436
 Alpha virt. eigenvalues --    1.71330   1.72388   1.74614   1.76176   1.78512
 Alpha virt. eigenvalues --    1.83180   1.84949   1.87584   1.87771   1.93493
 Alpha virt. eigenvalues --    1.96167   1.98125   2.05503   2.05901   2.10037
 Alpha virt. eigenvalues --    2.11497   2.11562   2.13157   2.14594   2.21067
 Alpha virt. eigenvalues --    2.24684   2.26252   2.26375   2.38919   2.39382
 Alpha virt. eigenvalues --    2.42608   2.47211   2.47282   2.51169   2.59921
 Alpha virt. eigenvalues --    2.63762   2.71043   2.72470   2.78343   2.85632
 Alpha virt. eigenvalues --    3.04793   3.23658   3.75463   3.87301   3.91009
 Alpha virt. eigenvalues --    3.92861   4.01325   4.04601   4.16649   4.20967
 Alpha virt. eigenvalues --    4.36353   4.74664
          Condensed to atoms (all electrons):
               1          2          3          4          5          6
     1  C    4.966811   0.532280  -0.014381  -0.036135  -0.053134   0.452750
     2  C    0.532280   4.940523   0.501656  -0.055459  -0.037672  -0.022188
     3  C   -0.014381   0.501656   4.582714   0.387830  -0.042901  -0.022566
     4  C   -0.036135  -0.055459   0.387830   4.721012   0.449202   0.008731
     5  C   -0.053134  -0.037672  -0.042901   0.449202   5.220124   0.419254
     6  C    0.452750  -0.022188  -0.022566   0.008731   0.419254   4.570890
     7  H    0.362457  -0.031200   0.003670   0.000143   0.005152  -0.038451
     8  H   -0.030316   0.355186  -0.029251   0.005726   0.000067   0.003040
     9  H    0.005000   0.000108   0.002990  -0.035304   0.355726  -0.034684
    10  O    0.003112  -0.053925   0.341824  -0.057629   0.004890  -0.000140
    11  H   -0.000156   0.004930  -0.028837  -0.011319   0.001458  -0.000075
    12  O    0.000113   0.003632  -0.053776   0.274679  -0.062718   0.003096
    13  C    0.000023  -0.000165   0.004191  -0.039415  -0.001571   0.000288
    14  H    0.000000   0.000005  -0.000016   0.003096   0.000026   0.000000
    15  H   -0.000002  -0.000002  -0.000252  -0.006115   0.004929  -0.000059
    16  H   -0.000002  -0.000002  -0.000252  -0.006115   0.004927  -0.000059
    17  C   -0.047506   0.006297   0.000069   0.005268  -0.046209   0.507760
    18  H   -0.003971   0.000076   0.000007  -0.000123   0.003546  -0.024851
    19  H    0.003776  -0.000167   0.000005   0.000073  -0.004513  -0.023798
               7          8          9         10         11         12
     1  C    0.362457  -0.030316   0.005000   0.003112  -0.000156   0.000113
     2  C   -0.031200   0.355186   0.000108  -0.053925   0.004930   0.003632
     3  C    0.003670  -0.029251   0.002990   0.341824  -0.028837  -0.053776
     4  C    0.000143   0.005726  -0.035304  -0.057629  -0.011319   0.274679
     5  C    0.005152   0.000067   0.355726   0.004890   0.001458  -0.062718
     6  C   -0.038451   0.003040  -0.034684  -0.000140  -0.000075   0.003096
     7  H    0.492749  -0.004439  -0.000119  -0.000040   0.000003   0.000001
     8  H   -0.004439   0.476637   0.000010  -0.001644  -0.000177  -0.000044
     9  H   -0.000119   0.000010   0.504805  -0.000036  -0.000001  -0.006813
    10  O   -0.000040  -0.001644  -0.000036   8.088766   0.240938  -0.012248
    11  H    0.000003  -0.000177  -0.000001   0.240938   0.296717   0.029654
    12  O    0.000001  -0.000044  -0.006813  -0.012248   0.029654   8.227994
    13  C    0.000000   0.000002   0.007453   0.000212  -0.001054   0.222521
    14  H    0.000000   0.000000  -0.000148   0.000006  -0.000146  -0.028423
    15  H    0.000000   0.000000   0.001641  -0.000013   0.000100  -0.032046
    16  H    0.000000   0.000000   0.001642  -0.000013   0.000100  -0.032045
    17  C   -0.006822  -0.000135  -0.007158   0.000000   0.000000  -0.000045
    18  H    0.004373  -0.000005   0.000011   0.000000   0.000000   0.000000
    19  H    0.000020   0.000001   0.004431   0.000000   0.000000   0.000000
              13         14         15         16         17         18
     1  C    0.000023   0.000000  -0.000002  -0.000002  -0.047506  -0.003971
     2  C   -0.000165   0.000005  -0.000002  -0.000002   0.006297   0.000076
     3  C    0.004191  -0.000016  -0.000252  -0.000252   0.000069   0.000007
     4  C   -0.039415   0.003096  -0.006115  -0.006115   0.005268  -0.000123
     5  C   -0.001571   0.000026   0.004929   0.004927  -0.046209   0.003546
     6  C    0.000288   0.000000  -0.000059  -0.000059   0.507760  -0.024851
     7  H    0.000000   0.000000   0.000000   0.000000  -0.006822   0.004373
     8  H    0.000002   0.000000   0.000000   0.000000  -0.000135  -0.000005
     9  H    0.007453  -0.000148   0.001641   0.001642  -0.007158   0.000011
    10  O    0.000212   0.000006  -0.000013  -0.000013   0.000000   0.000000
    11  H   -0.001054  -0.000146   0.000100   0.000100   0.000000   0.000000
    12  O    0.222521  -0.028423  -0.032046  -0.032045  -0.000045   0.000000
    13  C    4.926564   0.387946   0.370120   0.370123  -0.000012   0.000000
    14  H    0.387946   0.467549  -0.025207  -0.025209   0.000000   0.000000
    15  H    0.370120  -0.025207   0.542508  -0.042281  -0.000006   0.000000
    16  H    0.370123  -0.025209  -0.042281   0.542505  -0.000006   0.000000
    17  C   -0.000012   0.000000  -0.000006  -0.000006   5.173532   0.357879
    18  H    0.000000   0.000000   0.000000   0.000000   0.357879   0.447642
    19  H   -0.000001   0.000000  -0.000002  -0.000002   0.355732  -0.025235
              19
     1  C    0.003776
     2  C   -0.000167
     3  C    0.000005
     4  C    0.000073
     5  C   -0.004513
     6  C   -0.023798
     7  H    0.000020
     8  H    0.000001
     9  H    0.004431
    10  O    0.000000
    11  H    0.000000
    12  O    0.000000
    13  C   -0.000001
    14  H    0.000000
    15  H   -0.000002
    16  H   -0.000002
    17  C    0.355732
    18  H   -0.025235
    19  H    0.451913
 Mulliken charges:
               1
     1  C   -0.140718
     2  C   -0.143910
     3  C    0.367277
     4  C    0.391853
     5  C   -0.220581
     6  C    0.201062
     7  H    0.212502
     8  H    0.225342
     9  H    0.200443
    10  O   -0.554060
    11  H    0.467867
    12  O   -0.533532
    13  C   -0.247224
    14  H    0.220523
    15  H    0.186688
    16  H    0.186691
    17  C   -0.298640
    18  H    0.240651
    19  H    0.237766
 Sum of Mulliken charges =   1.00000
 Mulliken charges with hydrogens summed into heavy atoms:
               1
     1  C    0.071785
     2  C    0.081431
     3  C    0.367277
     4  C    0.391853
     5  C   -0.020138
     6  C    0.201062
    10  O   -0.086192
    12  O   -0.533532
    13  C    0.346678
    17  C    0.179778
 Electronic spatial extent (au):  <R**2>=           1476.6439
 Charge=              1.0000 electrons
 Dipole moment (field-independent basis, Debye):
    X=             -2.8612    Y=             -2.5292    Z=              0.0002  Tot=              3.8189
 Quadrupole moment (field-independent basis, Debye-Ang):
   XX=            -24.2004   YY=            -39.2224   ZZ=            -57.7964
   XY=              0.2130   XZ=              0.0006   YZ=             -0.0001
 Traceless Quadrupole moment (field-independent basis, Debye-Ang):
   XX=             16.2060   YY=              1.1840   ZZ=            -17.3900
   XY=              0.2130   XZ=              0.0006   YZ=             -0.0001
 Octapole moment (field-independent basis, Debye-Ang**2):
  XXX=            -18.3534  YYY=            -13.8056  ZZZ=              0.0001  XYY=             -3.6258
  XXY=            -19.9583  XXZ=              0.0016  XZZ=              8.0199  YZZ=              0.5038
  YYZ=              0.0001  XYZ=             -0.0012
 Hexadecapole moment (field-independent basis, Debye-Ang**3):
 XXXX=           -762.3901 YYYY=           -628.6506 ZZZZ=            -60.7492 XXXY=             38.4063
 XXXZ=              0.0006 YYYX=             -9.4378 YYYZ=              0.0038 ZZZX=             -0.0043
 ZZZY=              0.0021 XXYY=           -208.7042 XXZZ=           -201.8274 YYZZ=           -130.1894
 XXYZ=             -0.0009 YYXZ=             -0.0003 ZZXY=              1.5864
 N-N= 5.065101761177D+02 E-N=-2.071457759453D+03  KE= 4.560755836753D+02
 No NMR shielding tensors so no spin-rotation constants.
 Leave Link  601 at Wed Dec 03 11:18:47 2025, MaxMem=   104857600 cpu:               1.0 elap:               0.2
 (Enter D:\Gaussian\G16W\l9999.exe)
 1|1|UNPC-PC-20250526LCFF|SP|RB3LYP|6-31G(d)|C8H9O2(1+)|ADMINISTRATOR|0
 3-Dec-2025|0||#P B3LYP/6-31G* SCF=conver=7 out=wfn||Generated by Multi
 wfn (http://sobereva.com/multiwfn)||1,1|C,0,-1.948433,0.874527,0.00000
 9|C,0,-0.874855,1.747164,0.00001|C,0,0.430422,1.258858,-0.000009|C,0,0
 .649483,-0.140489,-0.000032|C,0,-0.411197,-1.018283,-0.000036|C,0,-1.7
 59575,-0.537236,-0.000014|H,0,-2.958886,1.266738,0.000024|H,0,-1.02071
 2,2.820817,0.000029|H,0,-0.243277,-2.087456,-0.00006|O,0,1.484759,2.11
 4687,-0.000005|H,0,2.288128,1.576405,-0.000008|O,0,1.981581,-0.475822,
 -0.000064|C,0,2.332431,-1.853471,0.000111|H,0,3.420579,-1.887461,0.000
 186|H,0,1.951514,-2.35782,0.894331|H,0,1.951639,-2.358017,-0.894052|C,
 0,-2.844879,-1.420862,-0.000015|H,0,-3.862449,-1.051863,-0.000002|H,0,
 -2.697634,-2.493503,-0.000033||Version=EM64W-G16RevA.03|State=1-A|HF=-
 460.4259002|RMSD=9.401e-008|Dipole=-1.1257005,-0.9950694,0.0000782|Qua
 drupole=12.0487494,0.8802764,-12.9290257,0.1583512,0.0004566,-0.000102
 1|PG=C01 [X(C8H9O2)]||@

 Writing a WFN file to "N-1.wfn"


 MYSTERY IS THE WISDOM OF BLOCKHEADS... HORACE WALPOLE 
 Job cpu time:       0 days  0 hours  0 minutes 19.0 seconds.
 Elapsed time:       0 days  0 hours  0 minutes 18.4 seconds.
 File lengths (MBytes):  RWF=     15 Int=      0 D2E=      0 Chk=      3 Scr=      1
 Normal termination of Gaussian 16 at Wed Dec 03 11:18:47 2025.
