 Entering Link 1 = D:\Gaussian\G16W\l1.exe PID=     39304.
  
 Copyright (c) 1988,1990,1992,1993,1995,1998,2003,2009,2016,
            Gaussian, Inc.  All Rights Reserved.
  
 This is part of the Gaussian(R) 16 program.  It is based on
 the Gaussian(R) 09 system (copyright 2009, Gaussian, Inc.),
 the Gaussian(R) 03 system (copyright 2003, Gaussian, Inc.),
 the Gaussian(R) 98 system (copyright 1998, Gaussian, Inc.),
 the Gaussian(R) 94 system (copyright 1995, Gaussian, Inc.),
 the Gaussian 92(TM) system (copyright 1992, Gaussian, Inc.),
 the Gaussian 90(TM) system (copyright 1990, Gaussian, Inc.),
 the Gaussian 88(TM) system (copyright 1988, Gaussian, Inc.),
 the Gaussian 86(TM) system (copyright 1986, Carnegie Mellon
 University), and the Gaussian 82(TM) system (copyright 1983,
 Carnegie Mellon University). Gaussian is a federally registered
 trademark of Gaussian, Inc.
  
 This software contains proprietary and confidential information,
 including trade secrets, belonging to Gaussian, Inc.
  
 This software is provided under written license and may be
 used, copied, transmitted, or stored only in accord with that
 written license.
  
 The following legend is applicable only to US Government
 contracts under FAR:
  
                    RESTRICTED RIGHTS LEGEND
  
 Use, reproduction and disclosure by the US Government is
 subject to restrictions as set forth in subparagraphs (a)
 and (c) of the Commercial Computer Software - Restricted
 Rights clause in FAR 52.227-19.
  
 Gaussian, Inc.
 340 Quinnipiac St., Bldg. 40, Wallingford CT 06492
  
  
 ---------------------------------------------------------------
 Warning -- This program may not be used in any manner that
 competes with the business of Gaussian, Inc. or will provide
 assistance to any competitor of Gaussian, Inc.  The licensee
 of this program is prohibited from giving any competitor of
 Gaussian, Inc. access to this program.  By using this program,
 the user acknowledges that Gaussian, Inc. is engaged in the
 business of creating and licensing software in the field of
 computational chemistry and represents and warrants to the
 licensee that it is not a competitor of Gaussian, Inc. and that
 it will not use this program in any manner prohibited above.
 ---------------------------------------------------------------
  

 Cite this work as:
 Gaussian 16, Revision A.03,
 M. J. Frisch, G. W. Trucks, H. B. Schlegel, G. E. Scuseria, 
 M. A. Robb, J. R. Cheeseman, G. Scalmani, V. Barone, 
 G. A. Petersson, H. Nakatsuji, X. Li, M. Caricato, A. V. Marenich, 
 J. Bloino, B. G. Janesko, R. Gomperts, B. Mennucci, H. P. Hratchian, 
 J. V. Ortiz, A. F. Izmaylov, J. L. Sonnenberg, D. Williams-Young, 
 F. Ding, F. Lipparini, F. Egidi, J. Goings, B. Peng, A. Petrone, 
 T. Henderson, D. Ranasinghe, V. G. Zakrzewski, J. Gao, N. Rega, 
 G. Zheng, W. Liang, M. Hada, M. Ehara, K. Toyota, R. Fukuda, 
 J. Hasegawa, M. Ishida, T. Nakajima, Y. Honda, O. Kitao, H. Nakai, 
 T. Vreven, K. Throssell, J. A. Montgomery, Jr., J. E. Peralta, 
 F. Ogliaro, M. J. Bearpark, J. J. Heyd, E. N. Brothers, K. N. Kudin, 
 V. N. Staroverov, T. A. Keith, R. Kobayashi, J. Normand, 
 K. Raghavachari, A. P. Rendell, J. C. Burant, S. S. Iyengar, 
 J. Tomasi, M. Cossi, J. M. Millam, M. Klene, C. Adamo, R. Cammi, 
 J. W. Ochterski, R. L. Martin, K. Morokuma, O. Farkas, 
 J. B. Foresman, and D. J. Fox, Gaussian, Inc., Wallingford CT, 2016.
 
 ******************************************
 Gaussian 16:  EM64W-G16RevA.03 17-Dec-2016
                03-Dec-2025 
 ******************************************
 %nprocs=   4
 Will use up to    4 processors via shared memory.
 ------------------------------------
 #P B3LYP/6-31G* SCF=conver=7 out=wfn
 ------------------------------------
 1/38=1,172=1/1;
 2/12=2,17=6,18=5,40=1/2;
 3/5=1,6=6,7=1,11=2,25=1,30=1,74=-5/1,2,3;
 4//1;
 5/5=2,6=7,38=5/2;
 6/7=2,8=2,9=2,10=2,28=1/1;
 99/5=1,6=100,9=1/99;
 Leave Link    1 at Wed Dec 03 11:16:58 2025, MaxMem=           0 cpu:               0.0 elap:               0.1
 (Enter D:\Gaussian\G16W\l101.exe)
 ----------------------------------------------------
 Generated by Multiwfn (http://sobereva.com/multiwfn)
 ----------------------------------------------------
 Symbolic Z-matrix:
 Charge =  0 Multiplicity = 2
 C                    -1.94843   0.87453   0.00001 
 C                    -0.87486   1.74716   0.00001 
 C                     0.43042   1.25886  -0.00001 
 C                     0.64948  -0.14049  -0.00003 
 C                    -0.4112   -1.01828  -0.00004 
 C                    -1.75958  -0.53724  -0.00001 
 H                    -2.95889   1.26674   0.00002 
 H                    -1.02071   2.82082   0.00003 
 H                    -0.24328  -2.08746  -0.00006 
 O                     1.48476   2.11469  -0.00001 
 H                     2.28813   1.57641  -0.00001 
 O                     1.98158  -0.47582  -0.00006 
 C                     2.33243  -1.85347   0.00011 
 H                     3.42058  -1.88746   0.00019 
 H                     1.95151  -2.35782   0.89433 
 H                     1.95164  -2.35802  -0.89405 
 C                    -2.84488  -1.42086  -0.00002 
 H                    -3.86245  -1.05186  0. 
 H                    -2.69763  -2.4935   -0.00003 
 
 ITRead=  0  0  0  0  0  0  0  0  0  0  0  0  0  0  0  0  0  0  0
 MicOpt= -1 -1 -1 -1 -1 -1 -1 -1 -1 -1 -1 -1 -1 -1 -1 -1 -1 -1 -1
 NAtoms=     19 NQM=       19 NQMF=       0 NMMI=      0 NMMIF=      0
                NMic=       0 NMicF=      0.
                    Isotopes and Nuclear Properties:
 (Nuclear quadrupole moments (NQMom) in fm**2, nuclear magnetic moments (NMagM)
  in nuclear magnetons)

  Atom         1           2           3           4           5           6           7           8           9          10
 IAtWgt=          12          12          12          12          12          12           1           1           1          16
 AtmWgt=  12.0000000  12.0000000  12.0000000  12.0000000  12.0000000  12.0000000   1.0078250   1.0078250   1.0078250  15.9949146
 NucSpn=           0           0           0           0           0           0           1           1           1           0
 AtZEff=   0.0000000   0.0000000   0.0000000   0.0000000   0.0000000   0.0000000   0.0000000   0.0000000   0.0000000   0.0000000
 NQMom=    0.0000000   0.0000000   0.0000000   0.0000000   0.0000000   0.0000000   0.0000000   0.0000000   0.0000000   0.0000000
 NMagM=    0.0000000   0.0000000   0.0000000   0.0000000   0.0000000   0.0000000   2.7928460   2.7928460   2.7928460   0.0000000
 AtZNuc=   6.0000000   6.0000000   6.0000000   6.0000000   6.0000000   6.0000000   1.0000000   1.0000000   1.0000000   8.0000000

  Atom        11          12          13          14          15          16          17          18          19
 IAtWgt=           1          16          12           1           1           1          12           1           1
 AtmWgt=   1.0078250  15.9949146  12.0000000   1.0078250   1.0078250   1.0078250  12.0000000   1.0078250   1.0078250
 NucSpn=           1           0           0           1           1           1           0           1           1
 AtZEff=   0.0000000   0.0000000   0.0000000   0.0000000   0.0000000   0.0000000   0.0000000   0.0000000   0.0000000
 NQMom=    0.0000000   0.0000000   0.0000000   0.0000000   0.0000000   0.0000000   0.0000000   0.0000000   0.0000000
 NMagM=    2.7928460   0.0000000   0.0000000   2.7928460   2.7928460   2.7928460   0.0000000   2.7928460   2.7928460
 AtZNuc=   1.0000000   8.0000000   6.0000000   1.0000000   1.0000000   1.0000000   6.0000000   1.0000000   1.0000000
 Leave Link  101 at Wed Dec 03 11:16:59 2025, MaxMem=   104857600 cpu:               1.0 elap:               0.1
 (Enter D:\Gaussian\G16W\l202.exe)
                          Input orientation:                          
 ---------------------------------------------------------------------
 Center     Atomic      Atomic             Coordinates (Angstroms)
 Number     Number       Type             X           Y           Z
 ---------------------------------------------------------------------
      1          6           0       -1.948433    0.874527    0.000009
      2          6           0       -0.874855    1.747164    0.000010
      3          6           0        0.430422    1.258858   -0.000009
      4          6           0        0.649483   -0.140489   -0.000032
      5          6           0       -0.411197   -1.018283   -0.000036
      6          6           0       -1.759575   -0.537236   -0.000014
      7          1           0       -2.958886    1.266738    0.000024
      8          1           0       -1.020712    2.820817    0.000029
      9          1           0       -0.243277   -2.087456   -0.000060
     10          8           0        1.484759    2.114687   -0.000005
     11          1           0        2.288128    1.576405   -0.000008
     12          8           0        1.981581   -0.475822   -0.000064
     13          6           0        2.332431   -1.853471    0.000111
     14          1           0        3.420579   -1.887461    0.000186
     15          1           0        1.951514   -2.357820    0.894331
     16          1           0        1.951639   -2.358017   -0.894052
     17          6           0       -2.844879   -1.420862   -0.000015
     18          1           0       -3.862449   -1.051863   -0.000002
     19          1           0       -2.697634   -2.493503   -0.000033
 ---------------------------------------------------------------------
                    Distance matrix (angstroms):
                    1          2          3          4          5
     1  C    0.000000
     2  C    1.383497   0.000000
     3  C    2.409702   1.393625   0.000000
     4  C    2.789162   2.426281   1.416390   0.000000
     5  C    2.438406   2.804046   2.427693   1.376795   0.000000
     6  C    1.424339   2.449737   2.832321   2.441509   1.431618
     7  H    1.083903   2.138690   3.389317   3.873063   3.422286
     8  H    2.156087   1.083515   2.132019   3.399836   3.887184
     9  H    3.417733   3.886284   3.413457   2.141892   1.082279
    10  O    3.650316   2.388064   1.357965   2.404892   3.661987
    11  H    4.294308   3.167589   1.884651   2.373369   3.744164
    12  O    4.155533   3.619516   2.327060   1.373657   2.453498
    13  C    5.076196   4.821956   3.647496   2.401379   2.867932
    14  H    6.037787   5.626833   4.340549   3.275803   3.929119
    15  H    5.143682   5.063503   4.024168   2.722449   2.859485
    16  H    5.143855   5.063687   4.024326   2.722556   2.859571
    17  C    2.464229   3.730601   4.231843   3.721548   2.466755
    18  H    2.715591   4.093931   4.875261   4.603057   3.451415
    19  H    3.450352   4.615818   4.885176   4.091438   2.721042
                    6          7          8          9         10
     6  C    0.000000
     7  H    2.166257   0.000000
     8  H    3.438377   2.484287   0.000000
     9  H    2.168488   4.315686   4.969462   0.000000
    10  O    4.190274   4.523826   2.603076   4.543579   0.000000
    11  H    4.566331   5.256144   3.535107   4.453301   0.967031
    12  O    3.741660   5.238772   4.458878   2.747245   2.637720
    13  C    4.298487   6.142779   5.752611   2.586314   4.057687
    14  H    5.353233   7.116639   6.472476   3.669310   4.445738
    15  H    4.229251   6.168406   6.037564   2.385401   4.584868
    16  H    4.229380   6.168588   6.037762   2.385389   4.585017
    17  C    1.399528   2.690017   4.617296   2.685643   5.589801
    18  H    2.164930   2.488441   4.803449   3.764420   6.214473
    19  H    2.169547   3.769306   5.572617   2.487718   6.223169
                   11         12         13         14         15
    11  H    0.000000
    12  O    2.074996   0.000000
    13  C    3.430162   1.421623   0.000000
    14  H    3.644285   2.015798   1.088679   0.000000
    15  H    4.048614   2.083930   1.095032   1.782943   0.000000
    16  H    4.048730   2.083931   1.095033   1.782938   1.788383
    17  C    5.944020   4.918111   5.195353   6.282808   4.968212
    18  H    6.688602   5.872351   6.246528   7.330806   6.025572
    19  H    6.435991   5.095693   5.070621   6.148156   4.736335
                   16         17         18         19
    16  H    0.000000
    17  C    4.968314   0.000000
    18  H    6.025694   1.082409   0.000000
    19  H    4.736387   1.082700   1.853408   0.000000
 Stoichiometry    C8H9O2(2)
 Framework group  C1[X(C8H9O2)]
 Deg. of freedom    51
 Full point group                 C1      NOp   1
 Largest Abelian subgroup         C1      NOp   1
 Largest concise Abelian subgroup C1      NOp   1
                         Standard orientation:                         
 ---------------------------------------------------------------------
 Center     Atomic      Atomic             Coordinates (Angstroms)
 Number     Number       Type             X           Y           Z
 ---------------------------------------------------------------------
      1          6           0       -1.948433    0.874527    0.000009
      2          6           0       -0.874855    1.747164    0.000010
      3          6           0        0.430422    1.258858   -0.000009
      4          6           0        0.649483   -0.140489   -0.000032
      5          6           0       -0.411197   -1.018283   -0.000036
      6          6           0       -1.759575   -0.537236   -0.000014
      7          1           0       -2.958886    1.266739    0.000024
      8          1           0       -1.020711    2.820817    0.000029
      9          1           0       -0.243278   -2.087456   -0.000060
     10          8           0        1.484760    2.114686   -0.000005
     11          1           0        2.288128    1.576404   -0.000008
     12          8           0        1.981581   -0.475823   -0.000064
     13          6           0        2.332430   -1.853472    0.000111
     14          1           0        3.420578   -1.887462    0.000186
     15          1           0        1.951513   -2.357821    0.894331
     16          1           0        1.951638   -2.358018   -0.894052
     17          6           0       -2.844879   -1.420861   -0.000015
     18          1           0       -3.862449   -1.051862   -0.000002
     19          1           0       -2.697635   -2.493502   -0.000033
 ---------------------------------------------------------------------
 Rotational constants (GHZ):           1.9344685           1.2013948           0.7446429
 Leave Link  202 at Wed Dec 03 11:16:59 2025, MaxMem=   104857600 cpu:               0.0 elap:               0.1
 (Enter D:\Gaussian\G16W\l301.exe)
 Standard basis: 6-31G(d) (6D, 7F)
 Ernie: Thresh=  0.10000D-02 Tol=  0.10000D-05 Strict=F.
 There are   168 symmetry adapted cartesian basis functions of A   symmetry.
 There are   168 symmetry adapted basis functions of A   symmetry.
   168 basis functions,   316 primitive gaussians,   168 cartesian basis functions
    37 alpha electrons       36 beta electrons
       nuclear repulsion energy       506.5101761177 Hartrees.
 IExCor=  402 DFT=T Ex+Corr=B3LYP ExCW=0 ScaHFX=  0.200000
 ScaDFX=  0.800000  0.720000  1.000000  0.810000 ScalE2=  1.000000  1.000000
 IRadAn=      5 IRanWt=     -1 IRanGd=            0 ICorTp=0 IEmpDi=  4
 NAtoms=   19 NActive=   19 NUniq=   19 SFac= 1.00D+00 NAtFMM=   60 NAOKFM=F Big=F
 Integral buffers will be    131072 words long.
 Raffenetti 2 integral format.
 Two-electron integral symmetry is turned on.
 Leave Link  301 at Wed Dec 03 11:16:59 2025, MaxMem=   104857600 cpu:               0.0 elap:               0.1
 (Enter D:\Gaussian\G16W\l302.exe)
 NPDir=0 NMtPBC=     1 NCelOv=     1 NCel=       1 NClECP=     1 NCelD=      1
         NCelK=      1 NCelE2=     1 NClLst=     1 CellRange=     0.0.
 One-electron integrals computed using PRISM.
 One-electron integral symmetry used in STVInt
 NBasis=   168 RedAO= T EigKep=  3.91D-04  NBF=   168
 NBsUse=   168 1.00D-06 EigRej= -1.00D+00 NBFU=   168
 Precomputing XC quadrature grid using
 IXCGrd= 4 IRadAn=           5 IRanWt=          -1 IRanGd=           0 AccXCQ= 0.00D+00.
 Generated NRdTot=       0 NPtTot=           0 NUsed=           0 NTot=          32
 NSgBfM=   168   168   168   168   168 MxSgAt=    19 MxSgA2=    19.
 Leave Link  302 at Wed Dec 03 11:16:59 2025, MaxMem=   104857600 cpu:               0.0 elap:               0.4
 (Enter D:\Gaussian\G16W\l303.exe)
 DipDrv:  MaxL=1.
 Leave Link  303 at Wed Dec 03 11:16:59 2025, MaxMem=   104857600 cpu:               0.0 elap:               0.1
 (Enter D:\Gaussian\G16W\l401.exe)
 ExpMin= 1.61D-01 ExpMax= 5.48D+03 ExpMxC= 8.25D+02 IAcc=3 IRadAn=         5 AccDes= 0.00D+00
 Harris functional with IExCor=  402 and IRadAn=       5 diagonalized for initial guess.
 HarFok:  IExCor=  402 AccDes= 0.00D+00 IRadAn=         5 IDoV= 1 UseB2=F ITyADJ=14
 ICtDFT=  3500011 ScaDFX=  1.000000  1.000000  1.000000  1.000000
 FoFCou: FMM=F IPFlag=           0 FMFlag=      100000 FMFlg1=           0
         NFxFlg=           0 DoJE=T BraDBF=F KetDBF=T FulRan=T
         wScrn=  0.000000 ICntrl=       500 IOpCl=  0 I1Cent=   200000004 NGrid=           0
         NMat0=    1 NMatS0=      1 NMatT0=    0 NMatD0=    1 NMtDS0=    0 NMtDT0=    0
 Petite list used in FoFCou.
 Harris En= -460.668385942948    
 JPrj=0 DoOrth=F DoCkMO=F.
 Initial guess <Sx>= 0.0000 <Sy>= 0.0000 <Sz>= 0.5000 <S**2>= 0.7500 S= 0.5000
 Leave Link  401 at Wed Dec 03 11:17:00 2025, MaxMem=   104857600 cpu:               1.0 elap:               1.2
 (Enter D:\Gaussian\G16W\l502.exe)
 Integral symmetry usage will be decided dynamically.
 UHF open shell SCF:
 Using DIIS extrapolation, IDIIS=  1040.
 NGot=   104857600 LenX=   104798149 LenY=   104769484
 Requested convergence on RMS density matrix=1.00D-07 within 128 cycles.
 Requested convergence on MAX density matrix=1.00D-05.
 Requested convergence on             energy=1.00D-05.
 No special actions if energy rises.
 Fock matrices will be formed incrementally for  20 cycles.
 Integral accuracy reduced to 1.0D-05 until final iterations.

 Cycle   1  Pass 0  IDiag  1:
 FoFJK:  IHMeth= 1 ICntrl=       0 DoSepK=F KAlg= 0 I1Cent=           0 FoldK=F
 IRaf= 930000000 NMat=       1 IRICut=       1 DoRegI=T DoRafI=F ISym2E= 0 IDoP0=0 IntGTp=1.
 FoFCou: FMM=F IPFlag=           0 FMFlag=      100000 FMFlg1=           0
         NFxFlg=           0 DoJE=F BraDBF=F KetDBF=F FulRan=T
         wScrn=  0.000000 ICntrl=         0 IOpCl=  1 I1Cent=           0 NGrid=           0
         NMat0=    1 NMatS0=      1 NMatT0=    0 NMatD0=    1 NMtDS0=    0 NMtDT0=    0
 Symmetry not used in FoFCou.
 E= -460.416962714009    
 DIIS: error= 3.74D-02 at cycle   1 NSaved=   1.
 NSaved= 1 IEnMin= 1 EnMin= -460.416962714009     IErMin= 1 ErrMin= 3.74D-02
 ErrMax= 3.74D-02  0.00D+00 EMaxC= 1.00D-01 BMatC= 9.13D-01 BMatP= 9.13D-01
 IDIUse=3 WtCom= 6.26D-01 WtEn= 3.74D-01
 Coeff-Com:  0.100D+01
 Coeff-En:   0.100D+01
 Coeff:      0.100D+01
 Gap=     0.131 Goal=   None    Shift=    0.000
 Gap=     0.186 Goal=   None    Shift=    0.000
 GapD=    0.131 DampG=1.000 DampE=0.500 DampFc=0.5000 IDamp=-1.
 Damping current iteration by 5.00D-01
 RMSDP=6.59D-03 MaxDP=1.63D-01              OVMax= 3.21D-01

 Cycle   2  Pass 0  IDiag  1:
 RMSU=  3.25D-03    CP:  9.80D-01
 E= -460.516762724135     Delta-E=       -0.099800010126 Rises=F Damp=T
 DIIS: error= 7.96D-03 at cycle   2 NSaved=   2.
 NSaved= 2 IEnMin= 2 EnMin= -460.516762724135     IErMin= 2 ErrMin= 7.96D-03
 ErrMax= 7.96D-03  0.00D+00 EMaxC= 1.00D-01 BMatC= 7.96D-02 BMatP= 9.13D-01
 IDIUse=3 WtCom= 9.20D-01 WtEn= 7.96D-02
 Coeff-Com:  0.739D-01 0.926D+00
 Coeff-En:   0.142D+00 0.858D+00
 Coeff:      0.793D-01 0.921D+00
 Gap=     0.254 Goal=   None    Shift=    0.000
 Gap=     0.167 Goal=   None    Shift=    0.000
 RMSDP=2.44D-03 MaxDP=6.29D-02 DE=-9.98D-02 OVMax= 2.70D-01

 Cycle   3  Pass 0  IDiag  1:
 RMSU=  2.29D-03    CP:  9.69D-01  7.54D-01
 E= -460.622262752255     Delta-E=       -0.105500028120 Rises=F Damp=F
 DIIS: error= 1.45D-02 at cycle   3 NSaved=   3.
 NSaved= 3 IEnMin= 3 EnMin= -460.622262752255     IErMin= 2 ErrMin= 7.96D-03
 ErrMax= 1.45D-02  0.00D+00 EMaxC= 1.00D-01 BMatC= 1.15D-01 BMatP= 7.96D-02
 IDIUse=2 WtCom= 0.00D+00 WtEn= 1.00D+00
 Coeff-En:   0.000D+00 0.000D+00 0.100D+01
 Coeff:      0.000D+00 0.000D+00 0.100D+01
 Gap=     0.148 Goal=   None    Shift=    0.000
 Gap=     0.183 Goal=   None    Shift=    0.000
 RMSDP=3.58D-03 MaxDP=1.25D-01 DE=-1.06D-01 OVMax= 2.95D-01

 Cycle   4  Pass 0  IDiag  1:
 RMSU=  1.79D-03    CP:  9.73D-01  1.18D+00 -2.11D-01
 E= -460.501914919563     Delta-E=        0.120347832692 Rises=F Damp=F
 DIIS: error= 2.84D-02 at cycle   4 NSaved=   4.
 NSaved= 4 IEnMin= 3 EnMin= -460.622262752255     IErMin= 2 ErrMin= 7.96D-03
 ErrMax= 2.84D-02  0.00D+00 EMaxC= 1.00D-01 BMatC= 5.36D-01 BMatP= 7.96D-02
 IDIUse=2 WtCom= 0.00D+00 WtEn= 1.00D+00
 Coeff-En:   0.000D+00 0.000D+00 0.768D+00 0.232D+00
 Coeff:      0.000D+00 0.000D+00 0.768D+00 0.232D+00
 Gap=     0.158 Goal=   None    Shift=    0.000
 Gap=     0.172 Goal=   None    Shift=    0.000
 RMSDP=1.86D-03 MaxDP=6.66D-02 DE= 1.20D-01 OVMax= 1.48D-01

 Cycle   5  Pass 0  IDiag  1:
 RMSU=  3.35D-04    CP:  9.72D-01  9.34D-01  4.08D-01  5.33D-01
 E= -460.646133358551     Delta-E=       -0.144218438988 Rises=F Damp=F
 DIIS: error= 6.93D-03 at cycle   5 NSaved=   5.
 NSaved= 5 IEnMin= 5 EnMin= -460.646133358551     IErMin= 5 ErrMin= 6.93D-03
 ErrMax= 6.93D-03  0.00D+00 EMaxC= 1.00D-01 BMatC= 3.62D-02 BMatP= 7.96D-02
 IDIUse=3 WtCom= 9.31D-01 WtEn= 6.93D-02
 Coeff-Com: -0.201D-02 0.440D-02 0.253D+00-0.107D+00 0.851D+00
 Coeff-En:   0.000D+00 0.000D+00 0.279D+00 0.000D+00 0.721D+00
 Coeff:     -0.187D-02 0.410D-02 0.255D+00-0.994D-01 0.842D+00
 Gap=     0.167 Goal=   None    Shift=    0.000
 Gap=     0.152 Goal=   None    Shift=    0.000
 RMSDP=6.60D-04 MaxDP=1.95D-02 DE=-1.44D-01 OVMax= 4.63D-02

 Cycle   6  Pass 0  IDiag  1:
 RMSU=  1.49D-04    CP:  9.71D-01  8.67D-01  6.32D-01  3.54D-01  9.99D-01
 E= -460.656506967055     Delta-E=       -0.010373608504 Rises=F Damp=F
 DIIS: error= 5.45D-04 at cycle   6 NSaved=   6.
 NSaved= 6 IEnMin= 6 EnMin= -460.656506967055     IErMin= 6 ErrMin= 5.45D-04
 ErrMax= 5.45D-04  0.00D+00 EMaxC= 1.00D-01 BMatC= 3.32D-04 BMatP= 3.62D-02
 IDIUse=3 WtCom= 9.95D-01 WtEn= 5.45D-03
 Coeff-Com: -0.365D-02 0.524D-02 0.873D-01-0.823D-01 0.463D+00 0.531D+00
 Coeff-En:   0.000D+00 0.000D+00 0.000D+00 0.000D+00 0.000D+00 0.100D+01
 Coeff:     -0.363D-02 0.521D-02 0.868D-01-0.819D-01 0.460D+00 0.534D+00
 Gap=     0.167 Goal=   None    Shift=    0.000
 Gap=     0.152 Goal=   None    Shift=    0.000
 RMSDP=8.07D-05 MaxDP=2.90D-03 DE=-1.04D-02 OVMax= 5.91D-03

 Cycle   7  Pass 0  IDiag  1:
 RMSU=  6.78D-05    CP:  9.71D-01  8.67D-01  6.35D-01  3.58D-01  1.11D+00
                    CP:  8.53D-01
 E= -460.656624422740     Delta-E=       -0.000117455685 Rises=F Damp=F
 DIIS: error= 3.22D-04 at cycle   7 NSaved=   7.
 NSaved= 7 IEnMin= 7 EnMin= -460.656624422740     IErMin= 7 ErrMin= 3.22D-04
 ErrMax= 3.22D-04  0.00D+00 EMaxC= 1.00D-01 BMatC= 4.70D-05 BMatP= 3.32D-04
 IDIUse=3 WtCom= 9.97D-01 WtEn= 3.22D-03
 Coeff-Com:  0.926D-03-0.569D-02-0.655D-01 0.251D-01-0.218D+00 0.110D+00
 Coeff-Com:  0.115D+01
 Coeff-En:   0.000D+00 0.000D+00 0.000D+00 0.000D+00 0.000D+00 0.000D+00
 Coeff-En:   0.100D+01
 Coeff:      0.923D-03-0.567D-02-0.653D-01 0.250D-01-0.217D+00 0.110D+00
 Coeff:      0.115D+01
 Gap=     0.168 Goal=   None    Shift=    0.000
 Gap=     0.153 Goal=   None    Shift=    0.000
 RMSDP=6.69D-05 MaxDP=2.55D-03 DE=-1.17D-04 OVMax= 6.29D-03

 Cycle   8  Pass 0  IDiag  1:
 RMSU=  2.98D-05    CP:  9.71D-01  8.66D-01  6.43D-01  3.64D-01  1.17D+00
                    CP:  1.16D+00  1.35D+00
 E= -460.656671056954     Delta-E=       -0.000046634214 Rises=F Damp=F
 DIIS: error= 2.44D-04 at cycle   8 NSaved=   8.
 NSaved= 8 IEnMin= 8 EnMin= -460.656671056954     IErMin= 8 ErrMin= 2.44D-04
 ErrMax= 2.44D-04  0.00D+00 EMaxC= 1.00D-01 BMatC= 2.21D-05 BMatP= 4.70D-05
 IDIUse=3 WtCom= 9.98D-01 WtEn= 2.44D-03
 Coeff-Com:  0.129D-02-0.496D-02-0.566D-01 0.317D-01-0.221D+00-0.251D-01
 Coeff-Com:  0.694D+00 0.581D+00
 Coeff-En:   0.000D+00 0.000D+00 0.000D+00 0.000D+00 0.000D+00 0.000D+00
 Coeff-En:   0.000D+00 0.100D+01
 Coeff:      0.129D-02-0.495D-02-0.564D-01 0.317D-01-0.220D+00-0.250D-01
 Coeff:      0.692D+00 0.582D+00
 Gap=     0.169 Goal=   None    Shift=    0.000
 Gap=     0.154 Goal=   None    Shift=    0.000
 RMSDP=2.38D-05 MaxDP=9.36D-04 DE=-4.66D-05 OVMax= 1.86D-03

 Cycle   9  Pass 0  IDiag  1:
 RMSU=  1.25D-05    CP:  9.71D-01  8.66D-01  6.44D-01  3.65D-01  1.19D+00
                    CP:  1.24D+00  1.55D+00  8.42D-01
 E= -460.656679249595     Delta-E=       -0.000008192641 Rises=F Damp=F
 DIIS: error= 6.99D-05 at cycle   9 NSaved=   9.
 NSaved= 9 IEnMin= 9 EnMin= -460.656679249595     IErMin= 9 ErrMin= 6.99D-05
 ErrMax= 6.99D-05  0.00D+00 EMaxC= 1.00D-01 BMatC= 2.22D-06 BMatP= 2.21D-05
 IDIUse=1 WtCom= 1.00D+00 WtEn= 0.00D+00
 Coeff-Com: -0.279D-03 0.117D-02-0.391D-02 0.166D-02-0.105D-01-0.187D-01
 Coeff-Com: -0.599D-01 0.182D+00 0.909D+00
 Coeff:     -0.279D-03 0.117D-02-0.391D-02 0.166D-02-0.105D-01-0.187D-01
 Coeff:     -0.599D-01 0.182D+00 0.909D+00
 Gap=     0.169 Goal=   None    Shift=    0.000
 Gap=     0.154 Goal=   None    Shift=    0.000
 RMSDP=1.03D-05 MaxDP=5.03D-04 DE=-8.19D-06 OVMax= 8.61D-04

 Cycle  10  Pass 0  IDiag  1:
 RMSU=  6.08D-06    CP:  9.71D-01  8.67D-01  6.43D-01  3.66D-01  1.20D+00
                    CP:  1.26D+00  1.59D+00  1.03D+00  1.20D+00
 E= -460.656680601091     Delta-E=       -0.000001351495 Rises=F Damp=F
 DIIS: error= 3.24D-05 at cycle  10 NSaved=  10.
 NSaved=10 IEnMin=10 EnMin= -460.656680601091     IErMin=10 ErrMin= 3.24D-05
 ErrMax= 3.24D-05  0.00D+00 EMaxC= 1.00D-01 BMatC= 3.36D-07 BMatP= 2.22D-06
 IDIUse=1 WtCom= 1.00D+00 WtEn= 0.00D+00
 Coeff-Com: -0.213D-03 0.811D-03 0.413D-02-0.241D-02 0.178D-01-0.433D-02
 Coeff-Com: -0.918D-01 0.650D-02 0.342D+00 0.728D+00
 Coeff:     -0.213D-03 0.811D-03 0.413D-02-0.241D-02 0.178D-01-0.433D-02
 Coeff:     -0.918D-01 0.650D-02 0.342D+00 0.728D+00
 Gap=     0.169 Goal=   None    Shift=    0.000
 Gap=     0.154 Goal=   None    Shift=    0.000
 RMSDP=4.06D-06 MaxDP=1.44D-04 DE=-1.35D-06 OVMax= 3.71D-04

 Initial convergence to 1.0D-05 achieved.  Increase integral accuracy.
 Cycle  11  Pass 1  IDiag  1:
 E= -460.656684746194     Delta-E=       -0.000004145103 Rises=F Damp=F
 DIIS: error= 1.69D-05 at cycle   1 NSaved=   1.
 NSaved= 1 IEnMin= 1 EnMin= -460.656684746194     IErMin= 1 ErrMin= 1.69D-05
 ErrMax= 1.69D-05  0.00D+00 EMaxC= 1.00D-01 BMatC= 2.36D-07 BMatP= 2.36D-07
 IDIUse=1 WtCom= 1.00D+00 WtEn= 0.00D+00
 Coeff-Com:  0.100D+01
 Coeff:      0.100D+01
 Gap=     0.169 Goal=   None    Shift=    0.000
 Gap=     0.154 Goal=   None    Shift=    0.000
 RMSDP=4.06D-06 MaxDP=1.44D-04 DE=-4.15D-06 OVMax= 2.62D-04

 Cycle  12  Pass 1  IDiag  1:
 RMSU=  7.13D-06    CP:  1.00D+00
 E= -460.656684792107     Delta-E=       -0.000000045913 Rises=F Damp=F
 DIIS: error= 2.64D-05 at cycle   2 NSaved=   2.
 NSaved= 2 IEnMin= 2 EnMin= -460.656684792107     IErMin= 1 ErrMin= 1.69D-05
 ErrMax= 2.64D-05  0.00D+00 EMaxC= 1.00D-01 BMatC= 3.21D-07 BMatP= 2.36D-07
 IDIUse=1 WtCom= 1.00D+00 WtEn= 0.00D+00
 Coeff-Com:  0.548D+00 0.452D+00
 Coeff:      0.548D+00 0.452D+00
 Gap=     0.169 Goal=   None    Shift=    0.000
 Gap=     0.154 Goal=   None    Shift=    0.000
 RMSDP=2.00D-06 MaxDP=5.67D-05 DE=-4.59D-08 OVMax= 1.20D-04

 Cycle  13  Pass 1  IDiag  1:
 RMSU=  1.93D-06    CP:  1.00D+00  9.23D-01
 E= -460.656684874914     Delta-E=       -0.000000082807 Rises=F Damp=F
 DIIS: error= 6.97D-06 at cycle   3 NSaved=   3.
 NSaved= 3 IEnMin= 3 EnMin= -460.656684874914     IErMin= 3 ErrMin= 6.97D-06
 ErrMax= 6.97D-06  0.00D+00 EMaxC= 1.00D-01 BMatC= 2.61D-08 BMatP= 2.36D-07
 IDIUse=1 WtCom= 1.00D+00 WtEn= 0.00D+00
 Coeff-Com: -0.765D-01 0.154D+00 0.923D+00
 Coeff:     -0.765D-01 0.154D+00 0.923D+00
 Gap=     0.169 Goal=   None    Shift=    0.000
 Gap=     0.154 Goal=   None    Shift=    0.000
 RMSDP=1.19D-06 MaxDP=4.93D-05 DE=-8.28D-08 OVMax= 1.06D-04

 Cycle  14  Pass 1  IDiag  1:
 RMSU=  1.07D-06    CP:  1.00D+00  9.98D-01  1.02D+00
 E= -460.656684895144     Delta-E=       -0.000000020230 Rises=F Damp=F
 DIIS: error= 5.36D-06 at cycle   4 NSaved=   4.
 NSaved= 4 IEnMin= 4 EnMin= -460.656684895144     IErMin= 4 ErrMin= 5.36D-06
 ErrMax= 5.36D-06  0.00D+00 EMaxC= 1.00D-01 BMatC= 1.02D-08 BMatP= 2.61D-08
 IDIUse=1 WtCom= 1.00D+00 WtEn= 0.00D+00
 Coeff-Com: -0.121D+00 0.245D-01 0.492D+00 0.604D+00
 Coeff:     -0.121D+00 0.245D-01 0.492D+00 0.604D+00
 Gap=     0.169 Goal=   None    Shift=    0.000
 Gap=     0.154 Goal=   None    Shift=    0.000
 RMSDP=6.33D-07 MaxDP=2.35D-05 DE=-2.02D-08 OVMax= 6.24D-05

 Cycle  15  Pass 1  IDiag  1:
 RMSU=  4.93D-07    CP:  1.00D+00  1.02D+00  1.13D+00  1.28D+00
 E= -460.656684901319     Delta-E=       -0.000000006175 Rises=F Damp=F
 DIIS: error= 3.20D-06 at cycle   5 NSaved=   5.
 NSaved= 5 IEnMin= 5 EnMin= -460.656684901319     IErMin= 5 ErrMin= 3.20D-06
 ErrMax= 3.20D-06  0.00D+00 EMaxC= 1.00D-01 BMatC= 3.09D-09 BMatP= 1.02D-08
 IDIUse=1 WtCom= 1.00D+00 WtEn= 0.00D+00
 Coeff-Com: -0.130D-01-0.887D-01-0.385D+00 0.338D+00 0.115D+01
 Coeff:     -0.130D-01-0.887D-01-0.385D+00 0.338D+00 0.115D+01
 Gap=     0.169 Goal=   None    Shift=    0.000
 Gap=     0.154 Goal=   None    Shift=    0.000
 RMSDP=7.80D-07 MaxDP=2.95D-05 DE=-6.17D-09 OVMax= 7.75D-05

 Cycle  16  Pass 1  IDiag  1:
 RMSU=  1.91D-07    CP:  1.00D+00  1.05D+00  1.25D+00  1.92D+00  1.10D+00
 E= -460.656684905087     Delta-E=       -0.000000003768 Rises=F Damp=F
 DIIS: error= 1.53D-06 at cycle   6 NSaved=   6.
 NSaved= 6 IEnMin= 6 EnMin= -460.656684905087     IErMin= 6 ErrMin= 1.53D-06
 ErrMax= 1.53D-06  0.00D+00 EMaxC= 1.00D-01 BMatC= 1.35D-09 BMatP= 3.09D-09
 IDIUse=1 WtCom= 1.00D+00 WtEn= 0.00D+00
 Coeff-Com:  0.674D-02-0.637D-01-0.324D+00 0.150D+00 0.777D+00 0.454D+00
 Coeff:      0.674D-02-0.637D-01-0.324D+00 0.150D+00 0.777D+00 0.454D+00
 Gap=     0.169 Goal=   None    Shift=    0.000
 Gap=     0.154 Goal=   None    Shift=    0.000
 RMSDP=1.84D-07 MaxDP=9.86D-06 DE=-3.77D-09 OVMax= 1.98D-05

 Cycle  17  Pass 1  IDiag  1:
 RMSU=  7.59D-08    CP:  1.00D+00  1.06D+00  1.27D+00  2.01D+00  1.29D+00
                    CP:  6.25D-01
 E= -460.656684905540     Delta-E=       -0.000000000453 Rises=F Damp=F
 DIIS: error= 3.18D-07 at cycle   7 NSaved=   7.
 NSaved= 7 IEnMin= 7 EnMin= -460.656684905540     IErMin= 7 ErrMin= 3.18D-07
 ErrMax= 3.18D-07  0.00D+00 EMaxC= 1.00D-01 BMatC= 3.99D-11 BMatP= 1.35D-09
 IDIUse=1 WtCom= 1.00D+00 WtEn= 0.00D+00
 Coeff-Com:  0.313D-02-0.481D-02-0.301D-01 0.117D-02 0.444D-01 0.115D+00
 Coeff-Com:  0.871D+00
 Coeff:      0.313D-02-0.481D-02-0.301D-01 0.117D-02 0.444D-01 0.115D+00
 Coeff:      0.871D+00
 Gap=     0.169 Goal=   None    Shift=    0.000
 Gap=     0.154 Goal=   None    Shift=    0.000
 RMSDP=4.16D-08 MaxDP=1.66D-06 DE=-4.53D-10 OVMax= 3.56D-06

 SCF Done:  E(UB3LYP) =  -460.656684906     A.U. after   17 cycles
            NFock= 17  Conv=0.42D-07     -V/T= 2.0091
 <Sx>= 0.0000 <Sy>= 0.0000 <Sz>= 0.5000 <S**2>= 0.7825 S= 0.5161
 <L.S>= 0.000000000000E+00
 KE= 4.564918067719D+02 PE=-2.085791183535D+03 EE= 6.621325157396D+02
 Annihilation of the first spin contaminant:
 S**2 before annihilation     0.7825,   after     0.7507
 Leave Link  502 at Wed Dec 03 11:17:37 2025, MaxMem=   104857600 cpu:              37.0 elap:              36.8
 (Enter D:\Gaussian\G16W\l601.exe)
 Copying SCF densities to generalized density rwf, IOpCl= 1 IROHF=0.

 **********************************************************************

            Population analysis using the SCF density.

 **********************************************************************

 Orbital symmetries:
 Alpha Orbitals:
       Occupied  (A) (A) (A) (A) (A) (A) (A) (A) (A) (A) (A) (A)
                 (A) (A) (A) (A) (A) (A) (A) (A) (A) (A) (A) (A)
                 (A) (A) (A) (A) (A) (A) (A) (A) (A) (A) (A) (A)
                 (A)
       Virtual   (A) (A) (A) (A) (A) (A) (A) (A) (A) (A) (A) (A)
                 (A) (A) (A) (A) (A) (A) (A) (A) (A) (A) (A) (A)
                 (A) (A) (A) (A) (A) (A) (A) (A) (A) (A) (A) (A)
                 (A) (A) (A) (A) (A) (A) (A) (A) (A) (A) (A) (A)
                 (A) (A) (A) (A) (A) (A) (A) (A) (A) (A) (A) (A)
                 (A) (A) (A) (A) (A) (A) (A) (A) (A) (A) (A) (A)
                 (A) (A) (A) (A) (A) (A) (A) (A) (A) (A) (A) (A)
                 (A) (A) (A) (A) (A) (A) (A) (A) (A) (A) (A) (A)
                 (A) (A) (A) (A) (A) (A) (A) (A) (A) (A) (A) (A)
                 (A) (A) (A) (A) (A) (A) (A) (A) (A) (A) (A) (A)
                 (A) (A) (A) (A) (A) (A) (A) (A) (A) (A) (A)
 Beta  Orbitals:
       Occupied  (A) (A) (A) (A) (A) (A) (A) (A) (A) (A) (A) (A)
                 (A) (A) (A) (A) (A) (A) (A) (A) (A) (A) (A) (A)
                 (A) (A) (A) (A) (A) (A) (A) (A) (A) (A) (A) (A)
       Virtual   (A) (A) (A) (A) (A) (A) (A) (A) (A) (A) (A) (A)
                 (A) (A) (A) (A) (A) (A) (A) (A) (A) (A) (A) (A)
                 (A) (A) (A) (A) (A) (A) (A) (A) (A) (A) (A) (A)
                 (A) (A) (A) (A) (A) (A) (A) (A) (A) (A) (A) (A)
                 (A) (A) (A) (A) (A) (A) (A) (A) (A) (A) (A) (A)
                 (A) (A) (A) (A) (A) (A) (A) (A) (A) (A) (A) (A)
                 (A) (A) (A) (A) (A) (A) (A) (A) (A) (A) (A) (A)
                 (A) (A) (A) (A) (A) (A) (A) (A) (A) (A) (A) (A)
                 (A) (A) (A) (A) (A) (A) (A) (A) (A) (A) (A) (A)
                 (A) (A) (A) (A) (A) (A) (A) (A) (A) (A) (A) (A)
                 (A) (A) (A) (A) (A) (A) (A) (A) (A) (A) (A) (A)
 The electronic state is 2-A.
 Alpha  occ. eigenvalues --  -19.19102 -19.17522 -10.25043 -10.24618 -10.24542
 Alpha  occ. eigenvalues --  -10.19075 -10.18752 -10.18417 -10.18197 -10.17831
 Alpha  occ. eigenvalues --   -1.08159  -1.05158  -0.85047  -0.76977  -0.75430
 Alpha  occ. eigenvalues --   -0.71108  -0.66749  -0.60838  -0.58119  -0.55279
 Alpha  occ. eigenvalues --   -0.51788  -0.48964  -0.47868  -0.45225  -0.44573
 Alpha  occ. eigenvalues --   -0.42939  -0.41431  -0.40703  -0.38433  -0.37299
 Alpha  occ. eigenvalues --   -0.35166  -0.34639  -0.33829  -0.33343  -0.25762
 Alpha  occ. eigenvalues --   -0.23404  -0.15847
 Alpha virt. eigenvalues --    0.01023   0.04010   0.07569   0.09392   0.12153
 Alpha virt. eigenvalues --    0.13435   0.13647   0.15311   0.16032   0.16203
 Alpha virt. eigenvalues --    0.17907   0.19108   0.19801   0.22975   0.26947
 Alpha virt. eigenvalues --    0.28837   0.33225   0.34226   0.37489   0.39836
 Alpha virt. eigenvalues --    0.48458   0.49851   0.50447   0.50990   0.53743
 Alpha virt. eigenvalues --    0.53939   0.55783   0.56092   0.58326   0.59366
 Alpha virt. eigenvalues --    0.60853   0.61671   0.63399   0.64329   0.64453
 Alpha virt. eigenvalues --    0.66275   0.66940   0.72130   0.72816   0.75028
 Alpha virt. eigenvalues --    0.79225   0.82121   0.83683   0.83955   0.85819
 Alpha virt. eigenvalues --    0.86217   0.88707   0.90506   0.93181   0.93868
 Alpha virt. eigenvalues --    0.94684   0.94939   0.97397   0.99373   0.99841
 Alpha virt. eigenvalues --    1.03070   1.05989   1.09352   1.11131   1.11816
 Alpha virt. eigenvalues --    1.15287   1.22607   1.23550   1.26971   1.29641
 Alpha virt. eigenvalues --    1.33053   1.35237   1.36485   1.38470   1.40355
 Alpha virt. eigenvalues --    1.44324   1.46156   1.48687   1.50584   1.51316
 Alpha virt. eigenvalues --    1.66973   1.67207   1.71479   1.72858   1.75110
 Alpha virt. eigenvalues --    1.79457   1.83852   1.86579   1.87962   1.91466
 Alpha virt. eigenvalues --    1.92377   1.93814   1.94977   1.96562   2.01469
 Alpha virt. eigenvalues --    2.04689   2.06431   2.06688   2.10007   2.12390
 Alpha virt. eigenvalues --    2.18758   2.22505   2.23543   2.29075   2.30246
 Alpha virt. eigenvalues --    2.30861   2.31687   2.34519   2.42050   2.43397
 Alpha virt. eigenvalues --    2.44243   2.45025   2.57717   2.58679   2.62223
 Alpha virt. eigenvalues --    2.66435   2.66844   2.69699   2.79413   2.83373
 Alpha virt. eigenvalues --    2.90019   2.92196   2.98763   3.04504   3.24356
 Alpha virt. eigenvalues --    3.43767   3.93576   4.08495   4.10280   4.13300
 Alpha virt. eigenvalues --    4.19983   4.22869   4.34089   4.40179   4.56073
 Alpha virt. eigenvalues --    4.94030
  Beta  occ. eigenvalues --  -19.19133 -19.17340 -10.25042 -10.24751 -10.24165
  Beta  occ. eigenvalues --  -10.19320 -10.18475 -10.18365 -10.18043 -10.16869
  Beta  occ. eigenvalues --   -1.08096  -1.04877  -0.84676  -0.76439  -0.75158
  Beta  occ. eigenvalues --   -0.70693  -0.65234  -0.60639  -0.57635  -0.55085
  Beta  occ. eigenvalues --   -0.51647  -0.48765  -0.47893  -0.45081  -0.44275
  Beta  occ. eigenvalues --   -0.42778  -0.40428  -0.40338  -0.38210  -0.36996
  Beta  occ. eigenvalues --   -0.34537  -0.34370  -0.33677  -0.32510  -0.24077
  Beta  occ. eigenvalues --   -0.21689
  Beta virt. eigenvalues --   -0.06329   0.01902   0.06199   0.07647   0.09455
  Beta virt. eigenvalues --    0.12313   0.13707   0.13886   0.15358   0.16066
  Beta virt. eigenvalues --    0.16550   0.18870   0.19404   0.20108   0.23184
  Beta virt. eigenvalues --    0.27170   0.29161   0.33564   0.34263   0.37747
  Beta virt. eigenvalues --    0.40157   0.48514   0.49936   0.50704   0.51774
  Beta virt. eigenvalues --    0.53908   0.54594   0.56249   0.58432   0.58491
  Beta virt. eigenvalues --    0.59474   0.61480   0.61972   0.63617   0.64637
  Beta virt. eigenvalues --    0.66546   0.67479   0.67508   0.72180   0.72724
  Beta virt. eigenvalues --    0.75119   0.79562   0.82243   0.83857   0.84425
  Beta virt. eigenvalues --    0.85883   0.86453   0.88886   0.90622   0.93286
  Beta virt. eigenvalues --    0.94300   0.95260   0.95483   0.97601   0.99835
  Beta virt. eigenvalues --    1.00065   1.03712   1.06075   1.09451   1.11180
  Beta virt. eigenvalues --    1.12271   1.15815   1.22685   1.24057   1.27069
  Beta virt. eigenvalues --    1.29937   1.33751   1.35400   1.37559   1.38581
  Beta virt. eigenvalues --    1.40911   1.44710   1.46404   1.49316   1.50849
  Beta virt. eigenvalues --    1.51471   1.67281   1.70964   1.71835   1.73622
  Beta virt. eigenvalues --    1.75280   1.79738   1.84144   1.87008   1.88586
  Beta virt. eigenvalues --    1.91747   1.93352   1.95107   1.95413   1.96598
  Beta virt. eigenvalues --    2.01835   2.05573   2.07086   2.07103   2.10388
  Beta virt. eigenvalues --    2.12652   2.20281   2.22676   2.23720   2.29467
  Beta virt. eigenvalues --    2.30173   2.31301   2.32746   2.35201   2.43423
  Beta virt. eigenvalues --    2.44306   2.44695   2.45277   2.57956   2.59171
  Beta virt. eigenvalues --    2.62567   2.66757   2.67273   2.69995   2.79708
  Beta virt. eigenvalues --    2.83497   2.90283   2.92334   2.98870   3.04754
  Beta virt. eigenvalues --    3.24435   3.43875   3.93802   4.09105   4.10461
  Beta virt. eigenvalues --    4.14567   4.20376   4.23464   4.34241   4.40413
  Beta virt. eigenvalues --    4.56296   4.94252
          Condensed to atoms (all electrons):
               1          2          3          4          5          6
     1  C    5.055173   0.507831  -0.021899  -0.045412  -0.042439   0.494390
     2  C    0.507831   4.953325   0.543745  -0.046590  -0.048193  -0.012948
     3  C   -0.021899   0.543745   4.640929   0.427432  -0.041478  -0.028272
     4  C   -0.045412  -0.046590   0.427432   4.781249   0.425190   0.012852
     5  C   -0.042439  -0.048193  -0.041478   0.425190   5.302848   0.445380
     6  C    0.494390  -0.012948  -0.028272   0.012852   0.445380   4.462877
     7  H    0.355226  -0.046105   0.004611   0.000183   0.006894  -0.039614
     8  H   -0.040245   0.346263  -0.035525   0.007264   0.000131   0.003543
     9  H    0.006261   0.000287   0.003024  -0.049581   0.346735  -0.032488
    10  O    0.003393  -0.053253   0.298381  -0.062375   0.005560  -0.000082
    11  H   -0.000124   0.005209  -0.036721  -0.013027   0.001548  -0.000099
    12  O    0.000231   0.003504  -0.053035   0.244855  -0.063215   0.002944
    13  C    0.000017  -0.000154   0.004447  -0.040223  -0.004911   0.000231
    14  H    0.000000   0.000005   0.000018   0.002983   0.000146   0.000003
    15  H   -0.000003  -0.000005  -0.000216  -0.003897   0.005118  -0.000114
    16  H   -0.000003  -0.000005  -0.000216  -0.003898   0.005116  -0.000114
    17  C   -0.068347   0.007948   0.000471   0.007183  -0.062421   0.489258
    18  H   -0.007781   0.000064   0.000013  -0.000190   0.004807  -0.019795
    19  H    0.005094  -0.000232   0.000008   0.000069  -0.008604  -0.019249
               7          8          9         10         11         12
     1  C    0.355226  -0.040245   0.006261   0.003393  -0.000124   0.000231
     2  C   -0.046105   0.346263   0.000287  -0.053253   0.005209   0.003504
     3  C    0.004611  -0.035525   0.003024   0.298381  -0.036721  -0.053035
     4  C    0.000183   0.007264  -0.049581  -0.062375  -0.013027   0.244855
     5  C    0.006894   0.000131   0.346735   0.005560   0.001548  -0.063215
     6  C   -0.039614   0.003543  -0.032488  -0.000082  -0.000099   0.002944
     7  H    0.603952  -0.006187  -0.000170  -0.000053   0.000005   0.000002
     8  H   -0.006187   0.586479   0.000016  -0.001325  -0.000325  -0.000057
     9  H   -0.000170   0.000016   0.599669  -0.000048  -0.000009  -0.007268
    10  O   -0.000053  -0.001325  -0.000048   8.220581   0.244911  -0.012373
    11  H    0.000005  -0.000325  -0.000009   0.244911   0.344139   0.029918
    12  O    0.000002  -0.000057  -0.007268  -0.012373   0.029918   8.266228
    13  C    0.000000   0.000003   0.006249   0.000261  -0.001350   0.246332
    14  H    0.000000   0.000000  -0.000076   0.000009  -0.000145  -0.032669
    15  H    0.000000   0.000000   0.001474  -0.000018   0.000109  -0.035479
    16  H    0.000000   0.000000   0.001475  -0.000018   0.000109  -0.035479
    17  C   -0.010593  -0.000170  -0.010594  -0.000001   0.000000  -0.000052
    18  H    0.006502  -0.000007  -0.000009   0.000000   0.000000   0.000000
    19  H    0.000007   0.000002   0.006649   0.000000   0.000000   0.000000
              13         14         15         16         17         18
     1  C    0.000017   0.000000  -0.000003  -0.000003  -0.068347  -0.007781
     2  C   -0.000154   0.000005  -0.000005  -0.000005   0.007948   0.000064
     3  C    0.004447   0.000018  -0.000216  -0.000216   0.000471   0.000013
     4  C   -0.040223   0.002983  -0.003897  -0.003898   0.007183  -0.000190
     5  C   -0.004911   0.000146   0.005118   0.005116  -0.062421   0.004807
     6  C    0.000231   0.000003  -0.000114  -0.000114   0.489258  -0.019795
     7  H    0.000000   0.000000   0.000000   0.000000  -0.010593   0.006502
     8  H    0.000003   0.000000   0.000000   0.000000  -0.000170  -0.000007
     9  H    0.006249  -0.000076   0.001474   0.001475  -0.010594  -0.000009
    10  O    0.000261   0.000009  -0.000018  -0.000018  -0.000001   0.000000
    11  H   -0.001350  -0.000145   0.000109   0.000109   0.000000   0.000000
    12  O    0.246332  -0.032669  -0.035479  -0.035479  -0.000052   0.000000
    13  C    4.882595   0.385799   0.366615   0.366620  -0.000012   0.000000
    14  H    0.385799   0.535457  -0.031291  -0.031296   0.000000   0.000000
    15  H    0.366615  -0.031291   0.585321  -0.047583  -0.000003   0.000000
    16  H    0.366620  -0.031296  -0.047583   0.585325  -0.000003   0.000000
    17  C   -0.000012   0.000000  -0.000003  -0.000003   5.370015   0.354180
    18  H    0.000000   0.000000   0.000000   0.000000   0.354180   0.561771
    19  H   -0.000002   0.000000  -0.000002  -0.000002   0.350830  -0.039926
              19
     1  C    0.005094
     2  C   -0.000232
     3  C    0.000008
     4  C    0.000069
     5  C   -0.008604
     6  C   -0.019249
     7  H    0.000007
     8  H    0.000002
     9  H    0.006649
    10  O    0.000000
    11  H    0.000000
    12  O    0.000000
    13  C   -0.000002
    14  H    0.000000
    15  H   -0.000002
    16  H   -0.000002
    17  C    0.350830
    18  H   -0.039926
    19  H    0.569568
          Atomic-Atomic Spin Densities.
               1          2          3          4          5          6
     1  C    0.301885  -0.009673  -0.011923  -0.000500   0.005368   0.008486
     2  C   -0.009673  -0.141967   0.015063  -0.000262   0.000161  -0.000020
     3  C   -0.011923   0.015063   0.300349   0.010795  -0.010801  -0.000899
     4  C   -0.000500  -0.000262   0.010795  -0.115604  -0.013298   0.001004
     5  C    0.005368   0.000161  -0.010801  -0.013298   0.231533   0.011786
     6  C    0.008486  -0.000020  -0.000899   0.001004   0.011786  -0.176707
     7  H    0.000039   0.000748  -0.000003  -0.000027  -0.000020   0.000791
     8  H   -0.000643   0.001267  -0.000642   0.000013  -0.000015  -0.000004
     9  H    0.000017  -0.000022   0.000019   0.000509   0.000108   0.000666
    10  O    0.000271  -0.000167  -0.044660  -0.000010   0.000211   0.000000
    11  H   -0.000004  -0.000084  -0.000232   0.000335   0.000014   0.000000
    12  O    0.000002  -0.000015  -0.002425   0.012315   0.000397  -0.000038
    13  C    0.000000  -0.000002   0.000080   0.001100  -0.000293  -0.000002
    14  H    0.000000   0.000000  -0.000003  -0.000027   0.000005   0.000000
    15  H    0.000000   0.000000   0.000003  -0.000576  -0.000041   0.000011
    16  H    0.000000   0.000000   0.000003  -0.000576  -0.000041   0.000011
    17  C   -0.020604   0.000086   0.000402   0.000024  -0.017955  -0.038637
    18  H    0.000304  -0.000023  -0.000002   0.000018  -0.000077  -0.001982
    19  H   -0.000077   0.000016  -0.000003  -0.000035   0.000343  -0.001853
               7          8          9         10         11         12
     1  C    0.000039  -0.000643   0.000017   0.000271  -0.000004   0.000002
     2  C    0.000748   0.001267  -0.000022  -0.000167  -0.000084  -0.000015
     3  C   -0.000003  -0.000642   0.000019  -0.044660  -0.000232  -0.002425
     4  C   -0.000027   0.000013   0.000509  -0.000010   0.000335   0.012315
     5  C   -0.000020  -0.000015   0.000108   0.000211   0.000014   0.000397
     6  C    0.000791  -0.000004   0.000666   0.000000   0.000000  -0.000038
     7  H   -0.014320   0.000051   0.000002   0.000000   0.000000   0.000000
     8  H    0.000051   0.004941   0.000000  -0.000006   0.000001   0.000000
     9  H    0.000002   0.000000  -0.010825   0.000000   0.000001   0.000015
    10  O    0.000000  -0.000006   0.000000   0.096207  -0.000517   0.000256
    11  H    0.000000   0.000001   0.000001  -0.000517  -0.001410   0.000021
    12  O    0.000000   0.000000   0.000015   0.000256   0.000021  -0.016891
    13  C    0.000000   0.000000  -0.000055  -0.000007   0.000002  -0.001529
    14  H    0.000000   0.000000  -0.000007   0.000000  -0.000001  -0.000022
    15  H    0.000000   0.000000   0.000050   0.000000   0.000000   0.000539
    16  H    0.000000   0.000000   0.000050   0.000000   0.000000   0.000539
    17  C    0.000088  -0.000003   0.000105   0.000000   0.000000  -0.000002
    18  H   -0.000167   0.000000  -0.000009   0.000000   0.000000   0.000000
    19  H   -0.000010   0.000000  -0.000184   0.000000   0.000000   0.000000
              13         14         15         16         17         18
     1  C    0.000000   0.000000   0.000000   0.000000  -0.020604   0.000304
     2  C   -0.000002   0.000000   0.000000   0.000000   0.000086  -0.000023
     3  C    0.000080  -0.000003   0.000003   0.000003   0.000402  -0.000002
     4  C    0.001100  -0.000027  -0.000576  -0.000576   0.000024   0.000018
     5  C   -0.000293   0.000005  -0.000041  -0.000041  -0.017955  -0.000077
     6  C   -0.000002   0.000000   0.000011   0.000011  -0.038637  -0.001982
     7  H    0.000000   0.000000   0.000000   0.000000   0.000088  -0.000167
     8  H    0.000000   0.000000   0.000000   0.000000  -0.000003   0.000000
     9  H   -0.000055  -0.000007   0.000050   0.000050   0.000105  -0.000009
    10  O   -0.000007   0.000000   0.000000   0.000000   0.000000   0.000000
    11  H    0.000002  -0.000001   0.000000   0.000000   0.000000   0.000000
    12  O   -0.001529  -0.000022   0.000539   0.000539  -0.000002   0.000000
    13  C   -0.000107   0.000020   0.000775   0.000775   0.000000   0.000000
    14  H    0.000020   0.000073  -0.000005  -0.000004   0.000000   0.000000
    15  H    0.000775  -0.000005  -0.002679   0.000883   0.000000   0.000000
    16  H    0.000775  -0.000004   0.000883  -0.002679   0.000000   0.000000
    17  C    0.000000   0.000000   0.000000   0.000000   0.829900  -0.001334
    18  H    0.000000   0.000000   0.000000   0.000000  -0.001334  -0.035142
    19  H    0.000000   0.000000   0.000000   0.000000  -0.001277   0.001814
              19
     1  C   -0.000077
     2  C    0.000016
     3  C   -0.000003
     4  C   -0.000035
     5  C    0.000343
     6  C   -0.001853
     7  H   -0.000010
     8  H    0.000000
     9  H   -0.000184
    10  O    0.000000
    11  H    0.000000
    12  O    0.000000
    13  C    0.000000
    14  H    0.000000
    15  H    0.000000
    16  H    0.000000
    17  C   -0.001277
    18  H    0.001814
    19  H   -0.035458
 Mulliken charges and spin densities:
               1          2
     1  C   -0.201362   0.272948
     2  C   -0.160696  -0.134892
     3  C    0.294281   0.255122
     4  C    0.355933  -0.104800
     5  C   -0.278212   0.207385
     6  C    0.241297  -0.197387
     7  H    0.125339  -0.012828
     8  H    0.140139   0.004960
     9  H    0.128404  -0.009560
    10  O   -0.643551   0.051582
    11  H    0.425853  -0.001873
    12  O   -0.554385  -0.006837
    13  C   -0.212517   0.000759
    14  H    0.171056   0.000028
    15  H    0.159974  -0.001039
    16  H    0.159973  -0.001039
    17  C   -0.427686   0.750794
    18  H    0.140370  -0.036600
    19  H    0.135789  -0.036724
 Sum of Mulliken charges =   0.00000   1.00000
 Mulliken charges and spin densities with hydrogens summed into heavy atoms:
               1          2
     1  C   -0.076023   0.260120
     2  C   -0.020557  -0.129932
     3  C    0.294281   0.255122
     4  C    0.355933  -0.104800
     5  C   -0.149808   0.197825
     6  C    0.241297  -0.197387
    10  O   -0.217698   0.049709
    12  O   -0.554385  -0.006837
    13  C    0.278486  -0.001291
    17  C   -0.151527   0.677470
 Electronic spatial extent (au):  <R**2>=           1511.4982
 Charge=              0.0000 electrons
 Dipole moment (field-independent basis, Debye):
    X=              1.4708    Y=             -2.1449    Z=              0.0002  Tot=              2.6008
 Quadrupole moment (field-independent basis, Debye-Ang):
   XX=            -51.1689   YY=            -55.4357   ZZ=            -61.4949
   XY=             -5.6081   XZ=              0.0005   YZ=             -0.0002
 Traceless Quadrupole moment (field-independent basis, Debye-Ang):
   XX=              4.8643   YY=              0.5975   ZZ=             -5.4618
   XY=             -5.6081   XZ=              0.0005   YZ=             -0.0002
 Octapole moment (field-independent basis, Debye-Ang**2):
  XXX=             32.1245  YYY=            -12.5615  ZZZ=              0.0001  XYY=              6.4494
  XXY=             -0.1157  XXZ=              0.0015  XZZ=             11.6519  YZZ=              1.3702
  YYZ=              0.0001  XYZ=             -0.0008
 Hexadecapole moment (field-independent basis, Debye-Ang**3):
 XXXX=          -1052.0628 YYYY=           -733.0967 ZZZZ=            -66.6019 XXXY=            -16.2397
 XXXZ=             -0.0013 YYYX=            -32.8137 YYYZ=              0.0036 ZZZX=             -0.0046
 ZZZY=              0.0021 XXYY=           -292.9134 XXZZ=           -219.9209 YYZZ=           -140.8571
 XXYZ=             -0.0006 YYXZ=             -0.0009 ZZXY=             -2.1453
 N-N= 5.065101761177D+02 E-N=-2.085791172750D+03  KE= 4.564918067719D+02
                          Isotropic Fermi Contact Couplings
        Atom                 a.u.       MegaHertz       Gauss      10(-4) cm-1
     1  C(13)              0.03072      34.53475      12.32286      11.51955
     2  C(13)             -0.02063     -23.19751      -8.27745      -7.73786
     3  C(13)              0.02813      31.61999      11.28280      10.54729
     4  C(13)             -0.01825     -20.51468      -7.32015      -6.84296
     5  C(13)              0.02405      27.03508       9.64679       9.01793
     6  C(13)             -0.03462     -38.92208     -13.88836     -12.98301
     7  H(1)              -0.00412     -18.43127      -6.57674      -6.14801
     8  H(1)               0.00154       6.89874       2.46164       2.30117
     9  H(1)              -0.00314     -14.05364      -5.01469      -4.68779
    10  O(17)              0.01357      -8.22765      -2.93583      -2.74445
    11  H(1)              -0.00095      -4.25681      -1.51893      -1.41992
    12  O(17)             -0.00353       2.13829       0.76300       0.71326
    13  C(13)             -0.00005      -0.05137      -0.01833      -0.01714
    14  H(1)               0.00002       0.10508       0.03750       0.03505
    15  H(1)              -0.00005      -0.23235      -0.08291      -0.07750
    16  H(1)              -0.00005      -0.23278      -0.08306      -0.07765
    17  C(13)              0.07537      84.72514      30.23204      28.26126
    18  H(1)              -0.01087     -48.58562     -17.33656     -16.20642
    19  H(1)              -0.01088     -48.62908     -17.35206     -16.22091
 --------------------------------------------------------
       Center         ----  Spin Dipole Couplings  ----
                      3XX-RR        3YY-RR        3ZZ-RR
 --------------------------------------------------------
     1   Atom       -0.136048     -0.135291      0.271339
     2   Atom        0.057991      0.046823     -0.104814
     3   Atom       -0.147303     -0.148329      0.295632
     4   Atom        0.044036      0.047567     -0.091603
     5   Atom       -0.100818     -0.102631      0.203449
     6   Atom        0.073736      0.069902     -0.143638
     7   Atom        0.010567     -0.005713     -0.004854
     8   Atom        0.006236     -0.001867     -0.004369
     9   Atom       -0.006154      0.010788     -0.004635
    10   Atom       -0.143604     -0.149048      0.292653
    11   Atom        0.011149     -0.004998     -0.006151
    12   Atom        0.030861      0.023888     -0.054748
    13   Atom        0.002262     -0.001953     -0.000309
    14   Atom        0.001150     -0.000422     -0.000728
    15   Atom        0.002130     -0.000849     -0.001281
    16   Atom        0.002130     -0.000849     -0.001281
    17   Atom       -0.374747     -0.372260      0.747007
    18   Atom        0.039640     -0.035256     -0.004384
    19   Atom       -0.045834      0.050057     -0.004223
 --------------------------------------------------------
                        XY            XZ            YZ
 --------------------------------------------------------
     1   Atom        0.000497      0.000004     -0.000006
     2   Atom        0.003734     -0.000002      0.000002
     3   Atom        0.003795      0.000004     -0.000008
     4   Atom        0.003173     -0.000002      0.000002
     5   Atom        0.000097      0.000004     -0.000006
     6   Atom        0.014803     -0.000002      0.000003
     7   Atom       -0.012593      0.000000      0.000000
     8   Atom        0.000950      0.000000      0.000000
     9   Atom       -0.006825      0.000000      0.000000
    10   Atom       -0.003971      0.000000     -0.000004
    11   Atom       -0.008349      0.000000      0.000000
    12   Atom       -0.001844      0.000000     -0.000005
    13   Atom       -0.000736      0.000000      0.000000
    14   Atom       -0.000294      0.000000      0.000000
    15   Atom       -0.001412      0.000715     -0.000319
    16   Atom       -0.001412     -0.000715      0.000319
    17   Atom       -0.003574      0.000010     -0.000016
    18   Atom       -0.032434     -0.000001      0.000000
    19   Atom       -0.014417      0.000000      0.000001
 --------------------------------------------------------


 ---------------------------------------------------------------------------------
              Anisotropic Spin Dipole Couplings in Principal Axis System
 ---------------------------------------------------------------------------------

       Atom             a.u.   MegaHertz   Gauss  10(-4) cm-1        Axes

              Baa    -0.1363   -18.289    -6.526    -6.101  0.8960 -0.4441  0.0000
     1 C(13)  Bbb    -0.1350   -18.122    -6.466    -6.045  0.4441  0.8960  0.0000
              Bcc     0.2713    36.411    12.992    12.145  0.0000  0.0000  1.0000
 
              Baa    -0.1048   -14.065    -5.019    -4.692  0.0000  0.0000  1.0000
     2 C(13)  Bbb     0.0457     6.131     2.188     2.045 -0.2905  0.9569  0.0000
              Bcc     0.0591     7.934     2.831     2.646  0.9569  0.2905  0.0000
 
              Baa    -0.1516   -20.349    -7.261    -6.788 -0.6580  0.7530  0.0000
     3 C(13)  Bbb    -0.1440   -19.322    -6.894    -6.445  0.7530  0.6580  0.0000
              Bcc     0.2956    39.671    14.156    13.233  0.0000  0.0000  1.0000
 
              Baa    -0.0916   -12.292    -4.386    -4.100  0.0000  0.0000  1.0000
     4 C(13)  Bbb     0.0422     5.659     2.019     1.888  0.8621 -0.5068  0.0000
              Bcc     0.0494     6.633     2.367     2.213  0.5068  0.8621  0.0000
 
              Baa    -0.1026   -13.773    -4.914    -4.594 -0.0532  0.9986  0.0000
     5 C(13)  Bbb    -0.1008   -13.528    -4.827    -4.513  0.9986  0.0532  0.0000
              Bcc     0.2034    27.301     9.742     9.107  0.0000  0.0000  1.0000
 
              Baa    -0.1436   -19.275    -6.878    -6.429  0.0000  0.0000  1.0000
     6 C(13)  Bbb     0.0569     7.634     2.724     2.547 -0.6601  0.7511  0.0000
              Bcc     0.0867    11.640     4.154     3.883  0.7511  0.6601  0.0000
 
              Baa    -0.0126    -6.706    -2.393    -2.237  0.4781  0.8783  0.0000
     7 H(1)   Bbb    -0.0049    -2.590    -0.924    -0.864  0.0000  0.0000  1.0000
              Bcc     0.0174     9.296     3.317     3.101  0.8783 -0.4781  0.0000
 
              Baa    -0.0044    -2.331    -0.832    -0.778  0.0000  0.0000  1.0000
     8 H(1)   Bbb    -0.0020    -1.055    -0.376    -0.352 -0.1150  0.9934  0.0000
              Bcc     0.0063     3.386     1.208     1.129  0.9934  0.1150  0.0000
 
              Baa    -0.0086    -4.568    -1.630    -1.524  0.9431  0.3326  0.0000
     9 H(1)   Bbb    -0.0046    -2.473    -0.882    -0.825  0.0000  0.0000  1.0000
              Bcc     0.0132     7.041     2.512     2.348 -0.3326  0.9431  0.0000
 
              Baa    -0.1511    10.936     3.902     3.648  0.4662  0.8847  0.0000
    10 O(17)  Bbb    -0.1415    10.240     3.654     3.416  0.8847 -0.4662  0.0000
              Bcc     0.2927   -21.176    -7.556    -7.064  0.0000  0.0000  1.0000
 
              Baa    -0.0085    -4.556    -1.626    -1.520  0.3904  0.9206  0.0000
    11 H(1)   Bbb    -0.0062    -3.282    -1.171    -1.095  0.0000  0.0000  1.0000
              Bcc     0.0147     7.838     2.797     2.614  0.9206 -0.3904  0.0000
 
              Baa    -0.0547     3.962     1.414     1.321  0.0000  0.0001  1.0000
    12 O(17)  Bbb     0.0234    -1.695    -0.605    -0.566  0.2409  0.9706 -0.0001
              Bcc     0.0313    -2.266    -0.809    -0.756  0.9706 -0.2409  0.0000
 
              Baa    -0.0021    -0.279    -0.099    -0.093  0.1673  0.9859  0.0002
    13 C(13)  Bbb    -0.0003    -0.041    -0.015    -0.014 -0.0001 -0.0002  1.0000
              Bcc     0.0024     0.320     0.114     0.107  0.9859 -0.1673  0.0001
 
              Baa    -0.0007    -0.388    -0.139    -0.130  0.0000  0.0000  1.0000
    14 H(1)   Bbb    -0.0005    -0.254    -0.090    -0.085  0.1783  0.9840  0.0000
              Bcc     0.0012     0.642     0.229     0.214  0.9840 -0.1783  0.0000
 
              Baa    -0.0015    -0.775    -0.277    -0.259  0.0868  0.6166  0.7825
    15 H(1)   Bbb    -0.0014    -0.741    -0.264    -0.247  0.4006  0.6975 -0.5941
              Bcc     0.0028     1.516     0.541     0.506  0.9121 -0.3650  0.1865
 
              Baa    -0.0015    -0.775    -0.277    -0.259 -0.0868 -0.6164  0.7826
    16 H(1)   Bbb    -0.0014    -0.741    -0.264    -0.247  0.4006  0.6977  0.5939
              Bcc     0.0028     1.516     0.541     0.506  0.9121 -0.3651 -0.1864
 
              Baa    -0.3773   -50.628   -18.065   -16.888  0.8151  0.5794  0.0000
    17 C(13)  Bbb    -0.3697   -49.613   -17.703   -16.549 -0.5794  0.8151  0.0000
              Bcc     0.7470   100.241    35.769    33.437  0.0000  0.0000  1.0000
 
              Baa    -0.0473   -25.263    -9.015    -8.427  0.3494  0.9370  0.0000
    18 H(1)   Bbb    -0.0044    -2.339    -0.835    -0.780  0.0000  0.0000  1.0000
              Bcc     0.0517    27.602     9.849     9.207  0.9370 -0.3494  0.0000
 
              Baa    -0.0480   -25.586    -9.130    -8.535  0.9894  0.1455  0.0000
    19 H(1)   Bbb    -0.0042    -2.253    -0.804    -0.752  0.0000  0.0000  1.0000
              Bcc     0.0522    27.839     9.934     9.286 -0.1455  0.9894  0.0000
 

 ---------------------------------------------------------------------------------

 No NMR shielding tensors so no spin-rotation constants.
 Leave Link  601 at Wed Dec 03 11:17:38 2025, MaxMem=   104857600 cpu:               1.0 elap:               0.2
 (Enter D:\Gaussian\G16W\l9999.exe)
 1|1|UNPC-PC-20250526LCFF|SP|UB3LYP|6-31G(d)|C8H9O2(2)|ADMINISTRATOR|03
 -Dec-2025|0||#P B3LYP/6-31G* SCF=conver=7 out=wfn||Generated by Multiw
 fn (http://sobereva.com/multiwfn)||0,2|C,0,-1.948433,0.874527,0.000009
 |C,0,-0.874855,1.747164,0.00001|C,0,0.430422,1.258858,-0.000009|C,0,0.
 649483,-0.140489,-0.000032|C,0,-0.411197,-1.018283,-0.000036|C,0,-1.75
 9575,-0.537236,-0.000014|H,0,-2.958886,1.266738,0.000024|H,0,-1.020712
 ,2.820817,0.000029|H,0,-0.243277,-2.087456,-0.00006|O,0,1.484759,2.114
 687,-0.000005|H,0,2.288128,1.576405,-0.000008|O,0,1.981581,-0.475822,-
 0.000064|C,0,2.332431,-1.853471,0.000111|H,0,3.420579,-1.887461,0.0001
 86|H,0,1.951514,-2.35782,0.894331|H,0,1.951639,-2.358017,-0.894052|C,0
 ,-2.844879,-1.420862,-0.000015|H,0,-3.862449,-1.051863,-0.000002|H,0,-
 2.697634,-2.493503,-0.000033||Version=EM64W-G16RevA.03|State=2-A|HF=-4
 60.6566849|S2=0.782504|S2-1=0.|S2A=0.750668|RMSD=4.155e-008|Dipole=0.5
 786757,-0.8438722,0.0000842|Quadrupole=3.6164785,0.4442046,-4.0606832,
 -4.1694844,0.0003621,-0.0001148|PG=C01 [X(C8H9O2)]||@

 Writing a WFN file to "N.wfn"


 THE ENLIGHTENED ONE, BECAUSE HE SAW MANKIND DROWNING  
 IN THE GREAT SEA OF BIRTH, DEATH, AND SORROW, LONGED TO SAVE 
 THEM, FOR THIS HE WAS MOVED TO PITY.                         
 BECAUSE HE SAW MEN OF THE WORLD STRAYING IN FALSE PATHS, AND 
 NONE TO GUIDE THEM, FOR THIS HE WAS MOVED TO PITY.           
                     ..................                       
 BECAUSE HE SAW THE MEN OF THE WORLD PLOUGHING THEIR FIELDS,  
 SOWING THE SEED, TRAFFICKING, HUCKSTERING, BUYING, SELLING,  
 AND AT THE END WINNOWING NOTHING BUT BITTERNESS,             
 FOR THIS HE WAS MOVED TO PITY......                   
                   BUDAH'S PITY - UPSAKA SILA SUTRA           
 Job cpu time:       0 days  0 hours  0 minutes 40.0 seconds.
 Elapsed time:       0 days  0 hours  0 minutes 39.2 seconds.
 File lengths (MBytes):  RWF=     32 Int=      0 D2E=      0 Chk=      3 Scr=      1
 Normal termination of Gaussian 16 at Wed Dec 03 11:17:38 2025.
