 Generated by Multiwfn (http://sobereva.com/multiwfn)
GAUSSIAN             73 MOL ORBITALS    316 PRIMITIVES       19 NUCLEI
  C    1    (CENTRE  1)  -3.68200434  1.65261744  0.00001683  CHARGE =  6.0
  C    2    (CENTRE  2)  -1.65323544  3.30166175  0.00001872  CHARGE =  6.0
  C    3    (CENTRE  3)   0.81338032  2.37889639 -0.00001719  CHARGE =  6.0
  C    4    (CENTRE  4)   1.22734481 -0.26548632 -0.00006065  CHARGE =  6.0
  C    5    (CENTRE  5)  -0.77705041 -1.92427596 -0.00006821  CHARGE =  6.0
  C    6    (CENTRE  6)  -3.32511526 -1.01522809 -0.00002664  CHARGE =  6.0
  H    7    (CENTRE  7)  -5.59148354  2.39378940  0.00004517  CHARGE =  1.0
  H    8    (CENTRE  8)  -1.92886460  5.33057196  0.00005462  CHARGE =  1.0
  H    9    (CENTRE  9)  -0.45972821 -3.94472020 -0.00011356  CHARGE =  1.0
  O   10    (CENTRE 10)   2.80578899  3.99617820 -0.00000963  CHARGE =  8.0
  H   11    (CENTRE 11)   4.32393607  2.97897218 -0.00001530  CHARGE =  1.0
  O   12    (CENTRE 12)   3.74464500 -0.89917462 -0.00012112  CHARGE =  8.0
  C   13    (CENTRE 13)   4.40765462 -3.50255413  0.00020958  CHARGE =  6.0
  H   14    (CENTRE 14)   6.46395630 -3.56678655  0.00035131  CHARGE =  1.0
  H   15    (CENTRE 15)   3.68782552 -4.45563539  1.69004047  CHARGE =  1.0
  H   16    (CENTRE 16)   3.68806174 -4.45600766 -1.68951360  CHARGE =  1.0
  C   17    (CENTRE 17)  -5.37604309 -2.68503860 -0.00002853  CHARGE =  6.0
  H   18    (CENTRE 18)  -7.29897149 -1.98773096 -0.00000396  CHARGE =  1.0
  H   19    (CENTRE 19)  -5.09779099 -4.71203641 -0.00006254  CHARGE =  1.0
CENTRE ASSIGNMENTS    1  1  1  1  1  1  1  1  1  1  1  1  1  1  1  1  1  1  1  1
CENTRE ASSIGNMENTS    1  1  1  1  1  1  1  1  2  2  2  2  2  2  2  2  2  2  2  2
CENTRE ASSIGNMENTS    2  2  2  2  2  2  2  2  2  2  2  2  2  2  2  2  3  3  3  3
CENTRE ASSIGNMENTS    3  3  3  3  3  3  3  3  3  3  3  3  3  3  3  3  3  3  3  3
CENTRE ASSIGNMENTS    3  3  3  3  4  4  4  4  4  4  4  4  4  4  4  4  4  4  4  4
CENTRE ASSIGNMENTS    4  4  4  4  4  4  4  4  4  4  4  4  5  5  5  5  5  5  5  5
CENTRE ASSIGNMENTS    5  5  5  5  5  5  5  5  5  5  5  5  5  5  5  5  5  5  5  5
CENTRE ASSIGNMENTS    6  6  6  6  6  6  6  6  6  6  6  6  6  6  6  6  6  6  6  6
CENTRE ASSIGNMENTS    6  6  6  6  6  6  6  6  7  7  7  7  8  8  8  8  9  9  9  9
CENTRE ASSIGNMENTS   10 10 10 10 10 10 10 10 10 10 10 10 10 10 10 10 10 10 10 10
CENTRE ASSIGNMENTS   10 10 10 10 10 10 10 10 11 11 11 11 12 12 12 12 12 12 12 12
CENTRE ASSIGNMENTS   12 12 12 12 12 12 12 12 12 12 12 12 12 12 12 12 12 12 12 12
CENTRE ASSIGNMENTS   13 13 13 13 13 13 13 13 13 13 13 13 13 13 13 13 13 13 13 13
CENTRE ASSIGNMENTS   13 13 13 13 13 13 13 13 14 14 14 14 15 15 15 15 16 16 16 16
CENTRE ASSIGNMENTS   17 17 17 17 17 17 17 17 17 17 17 17 17 17 17 17 17 17 17 17
CENTRE ASSIGNMENTS   17 17 17 17 17 17 17 17 18 18 18 18 19 19 19 19
TYPE ASSIGNMENTS      1  1  1  1  1  1  1  1  1  2  2  2  3  3  3  4  4  4  1  2
TYPE ASSIGNMENTS      3  4  5  6  7  8  9 10  1  1  1  1  1  1  1  1  1  2  2  2
TYPE ASSIGNMENTS      3  3  3  4  4  4  1  2  3  4  5  6  7  8  9 10  1  1  1  1
TYPE ASSIGNMENTS      1  1  1  1  1  2  2  2  3  3  3  4  4  4  1  2  3  4  5  6
TYPE ASSIGNMENTS      7  8  9 10  1  1  1  1  1  1  1  1  1  2  2  2  3  3  3  4
TYPE ASSIGNMENTS      4  4  1  2  3  4  5  6  7  8  9 10  1  1  1  1  1  1  1  1
TYPE ASSIGNMENTS      1  2  2  2  3  3  3  4  4  4  1  2  3  4  5  6  7  8  9 10
TYPE ASSIGNMENTS      1  1  1  1  1  1  1  1  1  2  2  2  3  3  3  4  4  4  1  2
TYPE ASSIGNMENTS      3  4  5  6  7  8  9 10  1  1  1  1  1  1  1  1  1  1  1  1
TYPE ASSIGNMENTS      1  1  1  1  1  1  1  1  1  2  2  2  3  3  3  4  4  4  1  2
TYPE ASSIGNMENTS      3  4  5  6  7  8  9 10  1  1  1  1  1  1  1  1  1  1  1  1
TYPE ASSIGNMENTS      1  2  2  2  3  3  3  4  4  4  1  2  3  4  5  6  7  8  9 10
TYPE ASSIGNMENTS      1  1  1  1  1  1  1  1  1  2  2  2  3  3  3  4  4  4  1  2
TYPE ASSIGNMENTS      3  4  5  6  7  8  9 10  1  1  1  1  1  1  1  1  1  1  1  1
TYPE ASSIGNMENTS      1  1  1  1  1  1  1  1  1  2  2  2  3  3  3  4  4  4  1  2
TYPE ASSIGNMENTS      3  4  5  6  7  8  9 10  1  1  1  1  1  1  1  1
EXPONENTS  0.3047525D+04 0.4573695D+03 0.1039487D+03 0.2921016D+02 0.9286663D+01
EXPONENTS  0.3163927D+01 0.7868272D+01 0.1881289D+01 0.5442493D+00 0.7868272D+01
EXPONENTS  0.1881289D+01 0.5442493D+00 0.7868272D+01 0.1881289D+01 0.5442493D+00
EXPONENTS  0.7868272D+01 0.1881289D+01 0.5442493D+00 0.1687145D+00 0.1687145D+00
EXPONENTS  0.1687145D+00 0.1687145D+00 0.8000000D+00 0.8000000D+00 0.8000000D+00
EXPONENTS  0.8000000D+00 0.8000000D+00 0.8000000D+00 0.3047525D+04 0.4573695D+03
EXPONENTS  0.1039487D+03 0.2921016D+02 0.9286663D+01 0.3163927D+01 0.7868272D+01
EXPONENTS  0.1881289D+01 0.5442493D+00 0.7868272D+01 0.1881289D+01 0.5442493D+00
EXPONENTS  0.7868272D+01 0.1881289D+01 0.5442493D+00 0.7868272D+01 0.1881289D+01
EXPONENTS  0.5442493D+00 0.1687145D+00 0.1687145D+00 0.1687145D+00 0.1687145D+00
EXPONENTS  0.8000000D+00 0.8000000D+00 0.8000000D+00 0.8000000D+00 0.8000000D+00
EXPONENTS  0.8000000D+00 0.3047525D+04 0.4573695D+03 0.1039487D+03 0.2921016D+02
EXPONENTS  0.9286663D+01 0.3163927D+01 0.7868272D+01 0.1881289D+01 0.5442493D+00
EXPONENTS  0.7868272D+01 0.1881289D+01 0.5442493D+00 0.7868272D+01 0.1881289D+01
EXPONENTS  0.5442493D+00 0.7868272D+01 0.1881289D+01 0.5442493D+00 0.1687145D+00
EXPONENTS  0.1687145D+00 0.1687145D+00 0.1687145D+00 0.8000000D+00 0.8000000D+00
EXPONENTS  0.8000000D+00 0.8000000D+00 0.8000000D+00 0.8000000D+00 0.3047525D+04
EXPONENTS  0.4573695D+03 0.1039487D+03 0.2921016D+02 0.9286663D+01 0.3163927D+01
EXPONENTS  0.7868272D+01 0.1881289D+01 0.5442493D+00 0.7868272D+01 0.1881289D+01
EXPONENTS  0.5442493D+00 0.7868272D+01 0.1881289D+01 0.5442493D+00 0.7868272D+01
EXPONENTS  0.1881289D+01 0.5442493D+00 0.1687145D+00 0.1687145D+00 0.1687145D+00
EXPONENTS  0.1687145D+00 0.8000000D+00 0.8000000D+00 0.8000000D+00 0.8000000D+00
EXPONENTS  0.8000000D+00 0.8000000D+00 0.3047525D+04 0.4573695D+03 0.1039487D+03
EXPONENTS  0.2921016D+02 0.9286663D+01 0.3163927D+01 0.7868272D+01 0.1881289D+01
EXPONENTS  0.5442493D+00 0.7868272D+01 0.1881289D+01 0.5442493D+00 0.7868272D+01
EXPONENTS  0.1881289D+01 0.5442493D+00 0.7868272D+01 0.1881289D+01 0.5442493D+00
EXPONENTS  0.1687145D+00 0.1687145D+00 0.1687145D+00 0.1687145D+00 0.8000000D+00
EXPONENTS  0.8000000D+00 0.8000000D+00 0.8000000D+00 0.8000000D+00 0.8000000D+00
EXPONENTS  0.3047525D+04 0.4573695D+03 0.1039487D+03 0.2921016D+02 0.9286663D+01
EXPONENTS  0.3163927D+01 0.7868272D+01 0.1881289D+01 0.5442493D+00 0.7868272D+01
EXPONENTS  0.1881289D+01 0.5442493D+00 0.7868272D+01 0.1881289D+01 0.5442493D+00
EXPONENTS  0.7868272D+01 0.1881289D+01 0.5442493D+00 0.1687145D+00 0.1687145D+00
EXPONENTS  0.1687145D+00 0.1687145D+00 0.8000000D+00 0.8000000D+00 0.8000000D+00
EXPONENTS  0.8000000D+00 0.8000000D+00 0.8000000D+00 0.1873114D+02 0.2825394D+01
EXPONENTS  0.6401217D+00 0.1612778D+00 0.1873114D+02 0.2825394D+01 0.6401217D+00
EXPONENTS  0.1612778D+00 0.1873114D+02 0.2825394D+01 0.6401217D+00 0.1612778D+00
EXPONENTS  0.5484672D+04 0.8252349D+03 0.1880470D+03 0.5296450D+02 0.1689757D+02
EXPONENTS  0.5799635D+01 0.1553962D+02 0.3599934D+01 0.1013762D+01 0.1553962D+02
EXPONENTS  0.3599934D+01 0.1013762D+01 0.1553962D+02 0.3599934D+01 0.1013762D+01
EXPONENTS  0.1553962D+02 0.3599934D+01 0.1013762D+01 0.2700058D+00 0.2700058D+00
EXPONENTS  0.2700058D+00 0.2700058D+00 0.8000000D+00 0.8000000D+00 0.8000000D+00
EXPONENTS  0.8000000D+00 0.8000000D+00 0.8000000D+00 0.1873114D+02 0.2825394D+01
EXPONENTS  0.6401217D+00 0.1612778D+00 0.5484672D+04 0.8252349D+03 0.1880470D+03
EXPONENTS  0.5296450D+02 0.1689757D+02 0.5799635D+01 0.1553962D+02 0.3599934D+01
EXPONENTS  0.1013762D+01 0.1553962D+02 0.3599934D+01 0.1013762D+01 0.1553962D+02
EXPONENTS  0.3599934D+01 0.1013762D+01 0.1553962D+02 0.3599934D+01 0.1013762D+01
EXPONENTS  0.2700058D+00 0.2700058D+00 0.2700058D+00 0.2700058D+00 0.8000000D+00
EXPONENTS  0.8000000D+00 0.8000000D+00 0.8000000D+00 0.8000000D+00 0.8000000D+00
EXPONENTS  0.3047525D+04 0.4573695D+03 0.1039487D+03 0.2921016D+02 0.9286663D+01
EXPONENTS  0.3163927D+01 0.7868272D+01 0.1881289D+01 0.5442493D+00 0.7868272D+01
EXPONENTS  0.1881289D+01 0.5442493D+00 0.7868272D+01 0.1881289D+01 0.5442493D+00
EXPONENTS  0.7868272D+01 0.1881289D+01 0.5442493D+00 0.1687145D+00 0.1687145D+00
EXPONENTS  0.1687145D+00 0.1687145D+00 0.8000000D+00 0.8000000D+00 0.8000000D+00
EXPONENTS  0.8000000D+00 0.8000000D+00 0.8000000D+00 0.1873114D+02 0.2825394D+01
EXPONENTS  0.6401217D+00 0.1612778D+00 0.1873114D+02 0.2825394D+01 0.6401217D+00
EXPONENTS  0.1612778D+00 0.1873114D+02 0.2825394D+01 0.6401217D+00 0.1612778D+00
EXPONENTS  0.3047525D+04 0.4573695D+03 0.1039487D+03 0.2921016D+02 0.9286663D+01
EXPONENTS  0.3163927D+01 0.7868272D+01 0.1881289D+01 0.5442493D+00 0.7868272D+01
EXPONENTS  0.1881289D+01 0.5442493D+00 0.7868272D+01 0.1881289D+01 0.5442493D+00
EXPONENTS  0.7868272D+01 0.1881289D+01 0.5442493D+00 0.1687145D+00 0.1687145D+00
EXPONENTS  0.1687145D+00 0.1687145D+00 0.8000000D+00 0.8000000D+00 0.8000000D+00
EXPONENTS  0.8000000D+00 0.8000000D+00 0.8000000D+00 0.1873114D+02 0.2825394D+01
EXPONENTS  0.6401217D+00 0.1612778D+00 0.1873114D+02 0.2825394D+01 0.6401217D+00
EXPONENTS  0.1612778D+00
MO    1     MO 0.0        OCC NO =    1.0000000  ORB. ENERGY =  -19.191021
  0.40260412D-05  0.74272599D-05  0.11989900D-04  0.15607288D-04  0.13317727D-04
  0.45982911D-05 -0.14617670D-04 -0.67372708D-05  0.18892011D-04  0.16937440D-04
  0.12986555D-04  0.64812011D-05 -0.40819296D-05 -0.31297647D-05 -0.15619719D-05
  0.15773571D-08  0.12094174D-08  0.60358403D-09 -0.12989970D-03 -0.96886663D-04
 -0.27110202D-04 -0.30965818D-09  0.88596547D-05 -0.87119193D-05  0.19644636D-04
 -0.12440236D-04 -0.78902801D-09 -0.73212170D-09  0.56354954D-05  0.10396389D-04
  0.16782995D-04  0.21846472D-04  0.18641635D-04  0.64365084D-05 -0.14944936D-04
 -0.68881075D-05  0.19314972D-04  0.62299093D-04  0.47766993D-04  0.23839077D-04
 -0.53510529D-04 -0.41028480D-04 -0.20476087D-04 -0.50619953D-09 -0.38812169D-09
 -0.19369993D-09  0.21357486D-03 -0.37390502D-04 -0.95259721D-04  0.50752737D-09
  0.23412659D-04  0.17383693D-04  0.35577402D-04  0.31464789D-05  0.37578925D-08
 -0.14499676D-08  0.12711030D-04  0.23449368D-04  0.37854550D-04  0.49275377D-04
  0.42046768D-04  0.14517739D-04 -0.67515661D-04 -0.31117907D-04  0.87257858D-04
  0.74413402D-04  0.57055477D-04  0.28474682D-04  0.47597145D-04  0.36494472D-04
  0.18213299D-04  0.33680286D-08  0.25823907D-08  0.12887939D-08 -0.84582854D-04
  0.28911531D-03  0.21954383D-03 -0.48085881D-08  0.18083138D-04  0.12312801D-05
  0.29690853D-04  0.15025776D-03  0.44256904D-08  0.12776111D-08 -0.26925808D-04
 -0.49672859D-04 -0.80187396D-04 -0.10438016D-03 -0.89067782D-04 -0.30752965D-04
 -0.30745935D-04 -0.14170774D-04  0.39736328D-04  0.56839166D-03  0.43580668D-03
  0.21749808D-03 -0.68437745D-04 -0.52473722D-04 -0.26188065D-04 -0.29879761D-07
 -0.22909906D-07 -0.11433648D-07  0.38841725D-04 -0.76921585D-03  0.66620850D-04
  0.21248518D-07  0.11005547D-03 -0.59805431D-04 -0.10034041D-03  0.68710978D-04
 -0.16102967D-07 -0.63019163D-08  0.13674536D-04  0.25226849D-04  0.40723955D-04
  0.53010490D-04  0.45233947D-04  0.15618195D-04 -0.91230664D-04 -0.42048129D-04
  0.11790734D-03 -0.95260617D-04 -0.73039799D-04 -0.36451979D-04 -0.68099471D-05
 -0.52214355D-05 -0.26058623D-05 -0.32243433D-10 -0.24722220D-10 -0.12338120D-10
 -0.69238205D-03  0.11121102D-03 -0.34749828D-03 -0.10783201D-07 -0.97652648D-04
 -0.72972080D-04  0.56467895D-04 -0.28259056D-04 -0.19250639D-08 -0.14628413D-07
 -0.50104912D-05 -0.92433779D-05 -0.14921678D-04 -0.19423591D-04 -0.16574185D-04
 -0.57226679D-05  0.31163682D-04  0.14363312D-04 -0.40276227D-04  0.52983105D-04
  0.40624085D-04  0.20274265D-04 -0.18687555D-05 -0.14328432D-05 -0.71508917D-06
  0.87566757D-09  0.67140635D-09  0.33507882D-09  0.33894692D-03  0.19278224D-03
 -0.32767395D-04 -0.19102206D-08  0.65495087D-04 -0.32353199D-05 -0.78384049D-05
 -0.40788884D-04 -0.74547012D-09 -0.70852795D-09 -0.46874988D-05 -0.79508852D-05
 -0.90518017D-05 -0.25103170D-04  0.42234687D-05  0.71638023D-05  0.81557357D-05
  0.15311252D-04 -0.15527038D-04 -0.26336796D-04 -0.29983511D-04 -0.11626245D-03
  0.25246383D-04  0.46466823D-04  0.75192090D-04  0.98842107D-04  0.84776301D-04
  0.28986457D-04 -0.10185422D-03 -0.45447155D-04  0.13420606D-03 -0.22809688D-03
 -0.17573635D-03 -0.77157725D-04 -0.10687682D-03 -0.82342831D-04 -0.36152938D-04
 -0.12415418D-07 -0.95654103D-08 -0.41997303D-08 -0.29943276D-03  0.23261415D-03
  0.67316460D-04  0.41827453D-08  0.89432070D-04  0.66122794D-04  0.11331733D-03
 -0.18104557D-03 -0.30278791D-08 -0.52395431D-08 -0.71587068D-05 -0.12142522D-04
 -0.13823832D-04 -0.15751107D-03  0.82557466D+00  0.15194981D+01  0.24588347D+01
  0.32322071D+01  0.27722452D+01  0.94787773D+00 -0.15682696D-01 -0.69975884D-02
  0.20663972D-01 -0.19028455D-02 -0.14660399D-02 -0.64367048D-03 -0.21579158D-02
 -0.16625578D-02 -0.72995241D-03  0.37395086D-06  0.28810897D-06  0.12649536D-06
  0.41592206D-02 -0.29809495D-03  0.15243127D-03  0.12495011D-07 -0.94328544D-02
 -0.96285618D-02 -0.94405629D-02  0.27452615D-04 -0.92391753D-08  0.58114169D-07
  0.79262195D-05  0.14622327D-04  0.23604970D-04  0.30726657D-04  0.26219112D-04
  0.90528294D-05 -0.73743380D-04 -0.33988257D-04  0.95306619D-04 -0.64801668D-04
 -0.49685809D-04 -0.24796701D-04  0.57264076D-03  0.43906461D-03  0.21912401D-03
 -0.81126243D-07 -0.62202457D-07 -0.31043386D-07 -0.31097792D-03 -0.30116368D-05
 -0.12307719D-03  0.15695847D-07  0.38916214D-04  0.51068052D-03  0.29351438D-04
 -0.18433114D-03  0.93300989D-08 -0.13957464D-06  0.25908847D-04  0.43946308D-04
  0.50031318D-04  0.23862367D-04  0.13311767D-04  0.22579276D-04  0.25705707D-04
  0.10821050D-04  0.13314879D-04  0.22584555D-04  0.25711718D-04  0.10817258D-04
  0.33477110D-05  0.61758730D-05  0.99697740D-05  0.12977683D-04  0.11073881D-04
  0.38235449D-05 -0.12615887D-04 -0.58146507D-05  0.16304887D-04  0.77650360D-05
  0.59537371D-05  0.29713321D-05 -0.11885698D-04 -0.91131996D-05 -0.45481253D-05
 -0.13516606D-08 -0.10363676D-08 -0.51722008D-09  0.74700610D-05 -0.37225682D-04
  0.38933134D-04  0.11380464D-08 -0.14961690D-04  0.15326435D-04  0.15921150D-04
 -0.16511740D-04  0.93616055D-09 -0.21520949D-09 -0.45336520D-05 -0.76899318D-05
 -0.87547156D-05 -0.25102181D-04  0.64089575D-05  0.10870805D-04  0.12376027D-04
  0.24579736D-04
MO    2     MO 0.0        OCC NO =    1.0000000  ORB. ENERGY =  -19.175215
  0.17854620D-05  0.32938287D-05  0.53172609D-05  0.69214938D-05  0.59061232D-05
  0.20392424D-05  0.16775790D-05  0.77319462D-06 -0.21681184D-05  0.79352228D-04
  0.60842255D-04  0.30364549D-04  0.35015444D-04  0.26847621D-04  0.13398845D-04
 -0.69632032D-09 -0.53389425D-09 -0.26645065D-09  0.32900689D-03  0.13281803D-03
 -0.13292410D-04 -0.13738439D-08  0.58374239D-05  0.38401645D-04  0.26896459D-04
  0.22889290D-04  0.34562006D-09 -0.55844678D-09  0.70740076D-05  0.13050163D-04
  0.21067009D-04  0.27422986D-04  0.23400084D-04  0.80794866D-05 -0.64530030D-04
 -0.29741832D-04  0.83399201D-04 -0.17349919D-04 -0.13302818D-04 -0.66390383D-05
  0.15470372D-06  0.11861700D-06  0.59198197D-07 -0.81219066D-10 -0.62273628D-10
 -0.31078905D-10 -0.40648543D-03  0.12922927D-04  0.35038853D-03  0.49441558D-08
 -0.65282642D-04 -0.74759224D-04  0.30610127D-04  0.40080192D-04  0.23809168D-08
 -0.27142947D-08 -0.35783606D-04 -0.66013767D-04 -0.10656669D-03 -0.13871816D-03
 -0.11836846D-03 -0.40869785D-04 -0.30747304D-04 -0.14171404D-04  0.39738097D-04
  0.40887586D-03  0.31350007D-03  0.15645851D-03  0.39587684D-03  0.30353325D-03
  0.15148437D-03  0.23715637D-08  0.18183646D-08  0.90749139D-09  0.20762457D-03
 -0.60821560D-03 -0.68143144D-03 -0.45143342D-08 -0.12912307D-03 -0.79425537D-05
 -0.13651501D-03 -0.44437074D-04 -0.12215858D-08  0.34577508D-08  0.28210756D-04
  0.52043337D-04  0.84014083D-04  0.10936137D-03  0.93318258D-04  0.32220552D-04
 -0.12761930D-03 -0.58819617D-04  0.16493635D-03 -0.41470169D-05 -0.31796695D-05
 -0.15868779D-05 -0.50367073D-04 -0.38618277D-04 -0.19273227D-04 -0.61536445D-08
 -0.47182243D-08 -0.23547246D-08 -0.73218348D-03  0.57854954D-03 -0.22671600D-03
 -0.97152187D-08  0.75595385D-04 -0.76446221D-04  0.86178437D-04 -0.68929134D-04
 -0.71489496D-08 -0.39435096D-08 -0.64413716D-05 -0.11883073D-04 -0.19182964D-04
 -0.24970520D-04 -0.21307390D-04 -0.73569296D-05  0.34483083D-04  0.15893221D-04
 -0.44566252D-04  0.81171549D-04  0.62237195D-04  0.31060722D-04  0.62487218D-04
  0.47911235D-04  0.23911064D-04 -0.30799523D-08 -0.23615121D-08 -0.11785600D-08
  0.56506260D-03 -0.62911090D-04  0.29029510D-03  0.71093708D-08  0.19688129D-04
  0.31721297D-04 -0.98228815D-05  0.39369324D-04  0.43231579D-09  0.65716475D-09
  0.86528527D-05  0.15962824D-04  0.25768947D-04  0.33543512D-04  0.28622740D-04
  0.98827442D-05 -0.37564430D-04 -0.17313412D-04  0.48548613D-04  0.11683739D-04
  0.89583502D-05  0.44708446D-05  0.32940078D-04  0.25256363D-04  0.12604695D-04
  0.15571951D-08  0.11939585D-08  0.59586895D-09 -0.30580086D-03 -0.19500335D-03
 -0.78516325D-04 -0.32355653D-10 -0.18874563D-04 -0.23779882D-05  0.33920648D-04
  0.56043431D-04  0.10455909D-08 -0.11221183D-08  0.36300938D-05  0.61573261D-05
  0.70098982D-05  0.23882239D-04 -0.11429827D-04 -0.19387151D-04 -0.22071586D-04
 -0.14525709D-03  0.12091048D-04  0.20508707D-04  0.23348438D-04  0.93508885D-04
  0.82559451D+00  0.15195346D+01  0.24588938D+01  0.32322848D+01  0.27723119D+01
  0.94790051D+00 -0.15766294D-01 -0.70348898D-02  0.20774124D-01  0.43622353D-03
  0.33608672D-03  0.14756017D-03 -0.31825490D-02 -0.24519824D-02 -0.10765523D-02
 -0.15720613D-07 -0.12111885D-07 -0.53177699D-08  0.40682111D-02 -0.35878335D-03
 -0.19292508D-03 -0.27921994D-09 -0.92605829D-02 -0.93802559D-02 -0.92935378D-02
  0.14115505D-03  0.55143328D-09 -0.23145311D-08  0.86636906D-04  0.14695259D-03
  0.16730033D-03 -0.20836615D-03  0.44981398D-04  0.82789784D-04  0.13396950D-03
  0.17610665D-03  0.15104565D-03  0.51645075D-04 -0.16414776D-03 -0.73242409D-04
  0.21628582D-03 -0.18042344D-03 -0.13900653D-03 -0.61031356D-04 -0.18248556D-04
 -0.14059529D-04 -0.61728904D-05 -0.81030892D-08 -0.62429934D-08 -0.27410104D-08
 -0.48547906D-03  0.20859514D-03 -0.21769648D-05  0.76148908D-09  0.78815533D-04
  0.18240603D-03  0.16685934D-03  0.46696886D-04  0.63138556D-08  0.10890600D-10
  0.10105918D-04  0.18643445D-04  0.30096300D-04  0.39176441D-04  0.33429328D-04
  0.11542344D-04 -0.31457922D-04 -0.14498927D-04  0.40656506D-04 -0.40113978D-04
 -0.30756854D-04 -0.15349826D-04  0.49195014D-04  0.37719617D-04  0.18824732D-04
 -0.84639790D-08 -0.64896422D-08 -0.32387863D-08 -0.49600627D-04  0.19610367D-04
 -0.24580409D-04  0.11629910D-08  0.30731677D-04  0.18338825D-04  0.40310333D-04
 -0.14712026D-04  0.98928817D-08 -0.28641461D-08 -0.51416480D-06 -0.87212081D-06
 -0.99287872D-06 -0.56819974D-05  0.45296043D-05  0.76830662D-05  0.87468993D-05
 -0.63197713D-05  0.45297243D-05  0.76832697D-05  0.87471310D-05 -0.63213546D-05
 -0.45058039D-06 -0.83123283D-06 -0.13418675D-05 -0.17467128D-05 -0.14904732D-05
 -0.51462458D-06 -0.24156791D-06 -0.11133843D-06  0.31220458D-06 -0.22154898D-04
 -0.16986971D-04 -0.84776888D-05 -0.52921850D-05 -0.40577118D-05 -0.20250826D-05
  0.17900408D-09  0.13724898D-09  0.68496858D-10 -0.89157438D-04 -0.52369424D-05
 -0.37283375D-04 -0.21339104D-09 -0.16627575D-05 -0.10981340D-04 -0.13977534D-05
 -0.51421295D-05  0.28811936D-09  0.48212925D-09  0.39529197D-05  0.67049000D-05
  0.76332917D-05  0.11933459D-04 -0.12419569D-05 -0.21065940D-05 -0.23982829D-05
 -0.12886041D-04
MO    3     MO 0.0        OCC NO =    1.0000000  ORB. ENERGY =  -10.250426
 -0.76680162D-05 -0.14145993D-04 -0.22836018D-04 -0.29725710D-04 -0.25365003D-04
 -0.87579258D-05  0.25950288D-04  0.11960464D-04 -0.33538390D-04  0.19980180D-04
  0.15319535D-04  0.76455216D-05  0.58479890D-04  0.44838670D-04  0.22377639D-04
  0.37711042D-08  0.28914435D-08  0.14430330D-08  0.23637227D-03  0.34358297D-04
 -0.34604623D-04 -0.30438705D-08  0.13903364D-05  0.12281906D-04 -0.24749819D-04
  0.63488729D-04 -0.18184528D-08  0.79219610D-10  0.97865635D-05  0.18054299D-04
  0.29145236D-04  0.37938438D-04  0.32372937D-04  0.11177597D-04 -0.34662169D-04
 -0.15975762D-04  0.44797705D-04 -0.95587298D-04 -0.73290278D-04 -0.36576985D-04
 -0.18651556D-05 -0.14300830D-05 -0.71371166D-06  0.50634363D-09  0.38823218D-09
  0.19375507D-09 -0.28839465D-03 -0.97519362D-05  0.19844749D-03  0.66051837D-08
 -0.72687975D-05 -0.93272522D-05  0.23757211D-04  0.46057652D-04  0.75100197D-08
 -0.27398533D-08 -0.13524443D-03 -0.24949957D-03 -0.40276966D-03 -0.52428643D-03
 -0.44737456D-03 -0.15446768D-03  0.10851241D-03  0.50013270D-04 -0.14024243D-03
  0.88429104D-04  0.67801828D-04  0.33837864D-04 -0.68324529D-04 -0.52386915D-04
 -0.26144742D-04  0.69058748D-08  0.52949868D-08  0.26425695D-08  0.74403687D-03
 -0.21103919D-03 -0.36471044D-03 -0.14628275D-07 -0.19553098D-04  0.61203175D-05
 -0.85133039D-04 -0.55458278D-04 -0.39361772D-08  0.10140954D-07 -0.20669502D-03
 -0.38131195D-03 -0.61555572D-03 -0.80127064D-03 -0.68372569D-03 -0.23607405D-03
  0.62010211D-04  0.28580450D-04 -0.80142564D-04 -0.50020800D-04 -0.38352777D-04
 -0.19140724D-04  0.22289991D-03  0.17090551D-03  0.85293828D-04 -0.20857551D-07
 -0.15992247D-07 -0.79812520D-08 -0.21768134D-03  0.21551027D-03 -0.58658125D-03
  0.12053700D-07  0.22581821D-03  0.20094175D-04 -0.50484437D-04 -0.79545507D-04
  0.71975802D-08 -0.39296239D-07  0.28185676D-05  0.51997068D-05  0.83939390D-05
  0.10926415D-04  0.93235293D-05  0.32191906D-05 -0.47693822D-04 -0.21982039D-04
  0.61639931D-04 -0.13623621D-03 -0.10445728D-03 -0.52131504D-04  0.32020359D-04
  0.24551180D-04  0.12252760D-04  0.54816010D-08  0.42029439D-08  0.20975636D-08
 -0.39311179D-03  0.47137755D-05 -0.98391470D-06 -0.78118368D-08 -0.14759472D-03
  0.52846950D-04  0.23584377D-05  0.44445291D-04  0.93101426D-09 -0.22586642D-07
 -0.13830690D-04 -0.25514923D-04 -0.41188997D-04 -0.53615835D-04 -0.45750489D-04
 -0.15796545D-04  0.38406524D-04  0.17701532D-04 -0.49636943D-04 -0.63001754D-04
 -0.48305749D-04 -0.24107954D-04 -0.21037534D-04 -0.16130247D-04 -0.80501237D-05
  0.28700675D-08  0.22005858D-08  0.10982465D-08  0.23439725D-04  0.19430100D-03
 -0.49947220D-04 -0.10737111D-08  0.51086166D-04 -0.36505025D-04 -0.51538684D-04
 -0.67546266D-04  0.13462236D-08 -0.87699054D-09 -0.36396985D-05 -0.61736175D-05
 -0.70284453D-05 -0.67561488D-06 -0.13803104D-04 -0.23412677D-04 -0.26654506D-04
 -0.56895430D-04  0.10110375D-04  0.17149109D-04  0.19523655D-04  0.47450974D-04
 -0.44292873D-04 -0.81522531D-04 -0.13191884D-03 -0.17341101D-03 -0.14873362D-03
 -0.50854550D-04  0.14654138D-03  0.65386480D-04 -0.19308715D-03  0.34404028D-04
  0.26506449D-04  0.11637759D-04 -0.26679800D-04 -0.20555348D-04 -0.90249048D-05
 -0.13007744D-07 -0.10021765D-07 -0.44000948D-08  0.39610678D-03 -0.56546625D-04
 -0.35738827D-04  0.58739270D-08 -0.13343894D-03 -0.17134156D-03 -0.16945546D-03
 -0.15762415D-04 -0.74044730D-08 -0.41472711D-08 -0.17371418D-05 -0.29465214D-05
 -0.33545104D-05 -0.41764510D-04 -0.54638991D-04 -0.10056491D-03 -0.16273301D-03
 -0.21391710D-03 -0.18347545D-03 -0.62733372D-04 -0.52011030D-04 -0.23207220D-04
  0.68531232D-04 -0.24252576D-03 -0.18685302D-03 -0.82038541D-04 -0.10217837D-03
 -0.78722926D-04 -0.34563605D-04 -0.20103955D-07 -0.15489014D-07 -0.68005112D-08
  0.16598692D-03  0.18869759D-03  0.19517080D-03 -0.15588645D-07 -0.15828134D-03
 -0.75256248D-03  0.15436240D-03  0.29704161D-03 -0.41705712D-07  0.25349637D-06
  0.53255632D+00  0.98246242D+00  0.15859990D+01  0.20644994D+01  0.17616411D+01
  0.60825234D+00 -0.19715470D-01 -0.90868422D-02  0.25480454D-01 -0.52933467D-03
 -0.40586025D-03 -0.20255271D-03  0.11737774D-02  0.89997810D-03  0.44915215D-03
 -0.16544712D-06 -0.12685436D-06 -0.63309216D-07 -0.26248526D-02  0.12707732D-03
  0.10290901D-04  0.18042137D-08 -0.10072415D-01 -0.98515346D-02 -0.10140030D-01
 -0.11777620D-03  0.44439178D-07 -0.79208754D-07 -0.45756669D-04 -0.77611972D-04
 -0.88358487D-04  0.38922500D-03 -0.87704814D-05 -0.14876397D-04 -0.16936252D-04
  0.48382367D-03 -0.87739667D-05 -0.14882308D-04 -0.16942982D-04  0.48382787D-03
 -0.38708250D-05 -0.71409163D-05 -0.11527653D-04 -0.15005579D-04 -0.12804288D-04
 -0.44210129D-05  0.12819491D-04  0.59084917D-05 -0.16568027D-04  0.26420517D-04
  0.20257577D-04  0.10109951D-04  0.22667793D-05  0.17380226D-05  0.86739509D-06
 -0.22136448D-08 -0.16972824D-08 -0.84706289D-09  0.10419605D-03 -0.99064723D-05
  0.75691756D-04  0.14110632D-08 -0.11130534D-04  0.21776058D-04 -0.15570728D-04
  0.26199199D-04  0.93365131D-09  0.53804515D-10 -0.10327613D-04 -0.17517586D-04
 -0.19943152D-04 -0.25717649D-04  0.51187203D-05  0.86823184D-05  0.98845126D-05
  0.29678478D-04
MO    4     MO 0.0        OCC NO =    1.0000000  ORB. ENERGY =  -10.246181
 -0.48772273D-04 -0.89975320D-04 -0.14524807D-03 -0.18906982D-03 -0.16133362D-03
 -0.55704623D-04  0.76453586D-04  0.35237388D-04 -0.98809314D-04 -0.10887828D-03
 -0.83480957D-04 -0.41662848D-04  0.59953659D-05  0.45968663D-05  0.22941585D-05
  0.24851024D-09  0.19054189D-09  0.95093756D-10  0.33241524D-03  0.29047762D-03
  0.47452394D-04 -0.23917012D-08  0.21261228D-05 -0.10909416D-04 -0.97815404D-04
  0.30268563D-04 -0.12172477D-08  0.41444408D-08  0.70991323D-03  0.13096513D-02
  0.21141833D-02  0.27520384D-02  0.23483194D-02  0.81081824D-03  0.60278926D-04
  0.27782502D-04 -0.77905036D-04 -0.19002682D-03 -0.14570051D-03 -0.72714767D-04
  0.17671644D-03  0.13549496D-03  0.67621479D-04  0.41990785D-08  0.32195870D-08
  0.16067996D-08 -0.37883054D-03  0.12152414D-03  0.13198716D-03 -0.42654494D-09
 -0.33997190D-04 -0.45378939D-04 -0.12206518D-03 -0.11078331D-03 -0.53183662D-08
  0.40211186D-08  0.17228521D+00  0.31783258D+00  0.51308033D+00  0.66787814D+00
  0.56990162D+00  0.19677334D+00 -0.61989040D-02 -0.28570692D-02  0.80115203D-02
  0.22284152D-03  0.17086074D-03  0.85271486D-04  0.50256486D-03  0.38533486D-03
  0.19230910D-03 -0.52782680D-09 -0.40470411D-09 -0.20197572D-09  0.55150134D-03
 -0.29471139D-03 -0.46298360D-03 -0.30145633D-09 -0.36404886D-02 -0.37803534D-02
 -0.36836019D-02  0.53644790D-03  0.74951638D-08 -0.12275870D-07  0.50383591D+00
  0.92947887D+00  0.15004671D+01  0.19531623D+01  0.16666369D+01  0.57544968D+00
 -0.18567271D-01 -0.85576384D-02  0.23996511D-01  0.11901200D-02  0.91250851D-03
  0.45540570D-03 -0.32826953D-03 -0.25169626D-03 -0.12561407D-03 -0.28211486D-07
 -0.21630778D-07 -0.10795274D-07 -0.27808710D-02  0.13806969D-02 -0.17091768D-03
 -0.22057273D-07 -0.87845400D-02 -0.95219502D-02 -0.99598101D-02 -0.31367513D-03
 -0.50121339D-07  0.17337137D-07  0.25409385D-02  0.46875354D-02  0.75671356D-02
  0.98501622D-02  0.84051612D-02  0.29021002D-02  0.27905061D-03  0.12861417D-03
 -0.36064756D-03 -0.16805186D-03 -0.12885151D-03 -0.64305933D-04 -0.36964459D-03
 -0.28342003D-03 -0.14144646D-03  0.28803696D-08  0.22084847D-08  0.11021887D-08
  0.23362596D-02 -0.11666902D-03  0.95751293D-03  0.16045278D-07 -0.35495590D-03
 -0.24882892D-03 -0.37439088D-03 -0.95516104D-04 -0.32556589D-08  0.77987171D-08
  0.24928724D-04  0.45988628D-04  0.74239904D-04  0.96638297D-04  0.82461634D-04
  0.28472020D-04 -0.70165526D-04 -0.32339227D-04  0.90682568D-04 -0.10254946D-03
 -0.78628419D-04 -0.39241092D-04 -0.56008745D-04 -0.42943953D-04 -0.21432042D-04
 -0.43299110D-08 -0.33199011D-08 -0.16568633D-08 -0.99250742D-03 -0.52116815D-03
  0.90084211D-04  0.89475539D-08 -0.32035846D-04  0.59409631D-04  0.35745285D-04
 -0.22083567D-05  0.29040404D-08  0.14457171D-08  0.16812799D-04  0.28517690D-04
  0.32466382D-04  0.93968968D-04 -0.33260269D-05 -0.56415711D-05 -0.64227292D-05
  0.18908739D-04  0.34306454D-04  0.58190240D-04  0.66247532D-04  0.23458556D-03
 -0.38107362D-04 -0.70137889D-04 -0.11349634D-03 -0.14919412D-03 -0.12796293D-03
 -0.43752699D-04  0.60033589D-04  0.26786871D-04 -0.79101987D-04  0.13550887D-03
  0.10440228D-03  0.45838222D-04  0.22831404D-04  0.17590366D-04  0.77231182D-05
  0.44977318D-08  0.34652599D-08  0.15214357D-08  0.26336930D-03 -0.19821759D-04
  0.73999540D-04 -0.11760975D-08 -0.22825657D-03 -0.13261651D-03  0.10605230D-04
 -0.25418690D-03  0.14518080D-08  0.94965002D-10  0.11620980D-04  0.19711382D-04
  0.22440712D-04  0.20713126D-04  0.10675934D-03  0.19649418D-03  0.31796468D-03
  0.41797347D-03  0.35849341D-03  0.12257499D-03 -0.62164047D-03 -0.27737477D-03
  0.81909140D-03 -0.12858228D-03 -0.99065715D-04 -0.43495185D-04  0.13176912D-03
  0.10152101D-03  0.44573190D-04  0.29379624D-07  0.22635416D-07  0.99381669D-08
 -0.14742575D-02  0.79529659D-03 -0.25463103D-03 -0.32888249D-07 -0.44814926D-03
  0.62488152D-03  0.87150525D-03  0.61077866D-03  0.93301055D-07  0.59399576D-08
  0.22025637D-03  0.40632999D-03  0.65594259D-03  0.85384236D-03  0.72858523D-03
  0.25156297D-03  0.50750554D-04  0.23390884D-04 -0.65590480D-04  0.21451682D-04
  0.16447789D-04  0.82085996D-05  0.44720836D-05  0.34289100D-05  0.17112664D-05
 -0.77256835D-08 -0.59235641D-08 -0.29562736D-08 -0.41121562D-06 -0.12073137D-03
 -0.24027717D-04  0.15245620D-07  0.37650325D-04 -0.17277084D-04  0.36080647D-04
 -0.29556433D-03 -0.85857100D-08  0.20538985D-07  0.20453177D-04  0.34692459D-04
  0.39496139D-04  0.49841976D-04 -0.20187644D-04 -0.34242066D-04 -0.38983382D-04
 -0.20647963D-04 -0.20178390D-04 -0.34226368D-04 -0.38965510D-04 -0.20635874D-04
 -0.15303906D-04 -0.28232718D-04 -0.45576361D-04 -0.59326879D-04 -0.50623734D-04
 -0.17479159D-04  0.45804115D-04  0.21111075D-04 -0.59197657D-04 -0.21016517D-04
 -0.16114132D-04 -0.80420814D-05  0.31813791D-04  0.24392797D-04  0.12173715D-04
  0.12818705D-08  0.98285702D-09  0.49051454D-09  0.17155255D-04  0.12969426D-03
 -0.98287067D-04 -0.34726288D-08  0.53898339D-04 -0.57087332D-04 -0.51821137D-04
  0.47175052D-04 -0.34203552D-08 -0.15356967D-08  0.12594484D-04  0.21362629D-04