 Entering Link 1 = D:\Gaussian\G16W\l1.exe PID=     32452.
  
 Copyright (c) 1988,1990,1992,1993,1995,1998,2003,2009,2016,
            Gaussian, Inc.  All Rights Reserved.
  
 This is part of the Gaussian(R) 16 program.  It is based on
 the Gaussian(R) 09 system (copyright 2009, Gaussian, Inc.),
 the Gaussian(R) 03 system (copyright 2003, Gaussian, Inc.),
 the Gaussian(R) 98 system (copyright 1998, Gaussian, Inc.),
 the Gaussian(R) 94 system (copyright 1995, Gaussian, Inc.),
 the Gaussian 92(TM) system (copyright 1992, Gaussian, Inc.),
 the Gaussian 90(TM) system (copyright 1990, Gaussian, Inc.),
 the Gaussian 88(TM) system (copyright 1988, Gaussian, Inc.),
 the Gaussian 86(TM) system (copyright 1986, Carnegie Mellon
 University), and the Gaussian 82(TM) system (copyright 1983,
 Carnegie Mellon University). Gaussian is a federally registered
 trademark of Gaussian, Inc.
  
 This software contains proprietary and confidential information,
 including trade secrets, belonging to Gaussian, Inc.
  
 This software is provided under written license and may be
 used, copied, transmitted, or stored only in accord with that
 written license.
  
 The following legend is applicable only to US Government
 contracts under FAR:
  
                    RESTRICTED RIGHTS LEGEND
  
 Use, reproduction and disclosure by the US Government is
 subject to restrictions as set forth in subparagraphs (a)
 and (c) of the Commercial Computer Software - Restricted
 Rights clause in FAR 52.227-19.
  
 Gaussian, Inc.
 340 Quinnipiac St., Bldg. 40, Wallingford CT 06492
  
  
 ---------------------------------------------------------------
 Warning -- This program may not be used in any manner that
 competes with the business of Gaussian, Inc. or will provide
 assistance to any competitor of Gaussian, Inc.  The licensee
 of this program is prohibited from giving any competitor of
 Gaussian, Inc. access to this program.  By using this program,
 the user acknowledges that Gaussian, Inc. is engaged in the
 business of creating and licensing software in the field of
 computational chemistry and represents and warrants to the
 licensee that it is not a competitor of Gaussian, Inc. and that
 it will not use this program in any manner prohibited above.
 ---------------------------------------------------------------
  

 Cite this work as:
 Gaussian 16, Revision A.03,
 M. J. Frisch, G. W. Trucks, H. B. Schlegel, G. E. Scuseria, 
 M. A. Robb, J. R. Cheeseman, G. Scalmani, V. Barone, 
 G. A. Petersson, H. Nakatsuji, X. Li, M. Caricato, A. V. Marenich, 
 J. Bloino, B. G. Janesko, R. Gomperts, B. Mennucci, H. P. Hratchian, 
 J. V. Ortiz, A. F. Izmaylov, J. L. Sonnenberg, D. Williams-Young, 
 F. Ding, F. Lipparini, F. Egidi, J. Goings, B. Peng, A. Petrone, 
 T. Henderson, D. Ranasinghe, V. G. Zakrzewski, J. Gao, N. Rega, 
 G. Zheng, W. Liang, M. Hada, M. Ehara, K. Toyota, R. Fukuda, 
 J. Hasegawa, M. Ishida, T. Nakajima, Y. Honda, O. Kitao, H. Nakai, 
 T. Vreven, K. Throssell, J. A. Montgomery, Jr., J. E. Peralta, 
 F. Ogliaro, M. J. Bearpark, J. J. Heyd, E. N. Brothers, K. N. Kudin, 
 V. N. Staroverov, T. A. Keith, R. Kobayashi, J. Normand, 
 K. Raghavachari, A. P. Rendell, J. C. Burant, S. S. Iyengar, 
 J. Tomasi, M. Cossi, J. M. Millam, M. Klene, C. Adamo, R. Cammi, 
 J. W. Ochterski, R. L. Martin, K. Morokuma, O. Farkas, 
 J. B. Foresman, and D. J. Fox, Gaussian, Inc., Wallingford CT, 2016.
 
 ******************************************
 Gaussian 16:  EM64W-G16RevA.03 17-Dec-2016
                03-Dec-2025 
 ******************************************
 %nprocs=   4
 Will use up to    4 processors via shared memory.
 ------------------------------------
 #P B3LYP/6-31G* SCF=conver=7 out=wfn
 ------------------------------------
 1/38=1,172=1/1;
 2/12=2,17=6,18=5,40=1/2;
 3/5=1,6=6,7=1,11=2,25=1,30=1,74=-5/1,2,3;
 4//1;
 5/5=2,6=7,38=5/2;
 6/7=2,8=2,9=2,10=2,28=1/1;
 99/5=1,6=100,9=1/99;
 Leave Link    1 at Wed Dec 03 17:21:06 2025, MaxMem=           0 cpu:               0.0 elap:               0.1
 (Enter D:\Gaussian\G16W\l101.exe)
 ----------------------------------------------------
 Generated by Multiwfn (http://sobereva.com/multiwfn)
 ----------------------------------------------------
 Symbolic Z-matrix:
 Charge = -1 Multiplicity = 2
 C                     1.89986  -0.01934  -0.00009 
 C                     0.96939  -1.05574  -0.00009 
 C                    -0.40244  -0.7914   -0.00002 
 C                    -0.85243   0.55527   0.00002 
 C                     0.09746   1.58986   0. 
 C                     1.45143   1.31498  -0.00006 
 H                    -0.2523    2.61778   0. 
 O                    -3.16132   0.00414   0. 
 O                    -1.25957  -1.82043   0.00002 
 H                     1.28774  -2.09218  -0.00015 
 C                    -2.27305   0.85199   0.00003 
 H                    -2.54169   1.92563   0.00012 
 H                    -2.169    -1.44412   0.0001 
 H                     2.17321   2.12327  -0.0001 
 C                     3.37526  -0.33392   0.00009 
 H                     3.64929  -0.92041   0.88203 
 H                     3.64861  -0.92513  -0.87888 
 H                     3.97832   0.57527  -0.00253 
 
 ITRead=  0  0  0  0  0  0  0  0  0  0  0  0  0  0  0  0  0  0
 MicOpt= -1 -1 -1 -1 -1 -1 -1 -1 -1 -1 -1 -1 -1 -1 -1 -1 -1 -1
 NAtoms=     18 NQM=       18 NQMF=       0 NMMI=      0 NMMIF=      0
                NMic=       0 NMicF=      0.
                    Isotopes and Nuclear Properties:
 (Nuclear quadrupole moments (NQMom) in fm**2, nuclear magnetic moments (NMagM)
  in nuclear magnetons)

  Atom         1           2           3           4           5           6           7           8           9          10
 IAtWgt=          12          12          12          12          12          12           1          16          16           1
 AtmWgt=  12.0000000  12.0000000  12.0000000  12.0000000  12.0000000  12.0000000   1.0078250  15.9949146  15.9949146   1.0078250
 NucSpn=           0           0           0           0           0           0           1           0           0           1
 AtZEff=   0.0000000   0.0000000   0.0000000   0.0000000   0.0000000   0.0000000   0.0000000   0.0000000   0.0000000   0.0000000
 NQMom=    0.0000000   0.0000000   0.0000000   0.0000000   0.0000000   0.0000000   0.0000000   0.0000000   0.0000000   0.0000000
 NMagM=    0.0000000   0.0000000   0.0000000   0.0000000   0.0000000   0.0000000   2.7928460   0.0000000   0.0000000   2.7928460
 AtZNuc=   6.0000000   6.0000000   6.0000000   6.0000000   6.0000000   6.0000000   1.0000000   8.0000000   8.0000000   1.0000000

  Atom        11          12          13          14          15          16          17          18
 IAtWgt=          12           1           1           1          12           1           1           1
 AtmWgt=  12.0000000   1.0078250   1.0078250   1.0078250  12.0000000   1.0078250   1.0078250   1.0078250
 NucSpn=           0           1           1           1           0           1           1           1
 AtZEff=   0.0000000   0.0000000   0.0000000   0.0000000   0.0000000   0.0000000   0.0000000   0.0000000
 NQMom=    0.0000000   0.0000000   0.0000000   0.0000000   0.0000000   0.0000000   0.0000000   0.0000000
 NMagM=    0.0000000   2.7928460   2.7928460   2.7928460   0.0000000   2.7928460   2.7928460   2.7928460
 AtZNuc=   6.0000000   1.0000000   1.0000000   1.0000000   6.0000000   1.0000000   1.0000000   1.0000000
 Leave Link  101 at Wed Dec 03 17:21:06 2025, MaxMem=   104857600 cpu:               0.0 elap:               0.1
 (Enter D:\Gaussian\G16W\l202.exe)
                          Input orientation:                          
 ---------------------------------------------------------------------
 Center     Atomic      Atomic             Coordinates (Angstroms)
 Number     Number       Type             X           Y           Z
 ---------------------------------------------------------------------
      1          6           0        1.899863   -0.019337   -0.000094
      2          6           0        0.969390   -1.055743   -0.000091
      3          6           0       -0.402437   -0.791396   -0.000017
      4          6           0       -0.852429    0.555274    0.000019
      5          6           0        0.097462    1.589862    0.000002
      6          6           0        1.451428    1.314980   -0.000060
      7          1           0       -0.252304    2.617780    0.000002
      8          8           0       -3.161317    0.004136    0.000004
      9          8           0       -1.259569   -1.820430    0.000017
     10          1           0        1.287742   -2.092184   -0.000149
     11          6           0       -2.273050    0.851991    0.000029
     12          1           0       -2.541694    1.925634    0.000120
     13          1           0       -2.168995   -1.444120    0.000102
     14          1           0        2.173214    2.123274   -0.000099
     15          6           0        3.375258   -0.333924    0.000086
     16          1           0        3.649291   -0.920409    0.882027
     17          1           0        3.648608   -0.925132   -0.878882
     18          1           0        3.978316    0.575267   -0.002528
 ---------------------------------------------------------------------
                    Distance matrix (angstroms):
                    1          2          3          4          5
     1  C    0.000000
     2  C    1.392809   0.000000
     3  C    2.428304   1.397064   0.000000
     4  C    2.811635   2.431954   1.419864   0.000000
     5  C    2.416231   2.785585   2.433164   1.404516   0.000000
     6  C    1.407656   2.419233   2.806000   2.425883   1.381588
     7  H    3.403852   3.871344   3.412480   2.148041   1.085795
     8  O    5.061234   4.264514   2.871287   2.373756   3.624109
     9  O    3.636749   2.356481   1.339248   2.410339   3.670371
    10  H    2.161339   1.084232   2.132781   3.404316   3.869655
    11  C    4.262912   3.762030   2.489963   1.451277   2.482696
    12  H    4.848746   4.606118   3.458131   2.175202   2.660430
    13  H    4.311103   3.162325   1.883289   2.393935   3.787067
    14  H    2.159977   3.399315   3.889637   3.407806   2.143193
    15  C    1.508561   2.511817   3.805294   4.320186   3.800645
    16  H    2.156517   2.824591   4.148632   4.818824   4.437896
    17  H    2.156581   2.822683   4.147440   4.819067   4.439400
    18  H    2.161834   3.422548   4.588984   4.830787   4.011289
                    6          7          8          9         10
     6  C    0.000000
     7  H    2.144759   0.000000
     8  O    4.795386   3.910689   0.000000
     9  O    4.144913   4.551076   2.635467   0.000000
    10  H    3.411094   4.955351   4.918199   2.561766   0.000000
    11  C    3.753145   2.683547   1.227956   2.858142   4.620325
    12  H    4.039545   2.391730   2.018932   3.959399   5.550445
    13  H    4.551933   4.491407   1.755605   0.984208   3.516961
    14  H    1.083658   2.475414   5.740032   5.228461   4.307452
    15  C    2.533773   4.676726   6.545311   4.867373   2.729323
    16  H    3.256631   5.340336   6.929439   5.068026   2.779965
    17  H    3.258532   5.342450   6.929001   5.065987   2.776305
    18  H    2.632935   4.697873   7.162441   5.759758   3.788732
                   11         12         13         14         15
    11  C    0.000000
    12  H    1.106742   0.000000
    13  H    2.298468   3.390302   0.000000
    14  H    4.624438   4.719049   5.619705   0.000000
    15  C    5.771462   6.333713   5.654315   2.735458   0.000000
    16  H    6.244473   6.870663   5.908004   3.495848   1.094020
    17  H    6.244733   6.871634   5.906477   3.498832   1.093998
    18  H    6.257488   6.658380   6.470499   2.377967   1.091015
                   16         17         18
    16  H    0.000000
    17  H    1.760915   0.000000
    18  H    1.768542   1.768587   0.000000
 Stoichiometry    C8H8O2(1-,2)
 Framework group  C1[X(C8H8O2)]
 Deg. of freedom    48
 Full point group                 C1      NOp   1
 Largest Abelian subgroup         C1      NOp   1
 Largest concise Abelian subgroup C1      NOp   1
                         Standard orientation:                         
 ---------------------------------------------------------------------
 Center     Atomic      Atomic             Coordinates (Angstroms)
 Number     Number       Type             X           Y           Z
 ---------------------------------------------------------------------
      1          6           0        1.899863   -0.019337   -0.000094
      2          6           0        0.969390   -1.055743   -0.000091
      3          6           0       -0.402437   -0.791396   -0.000017
      4          6           0       -0.852429    0.555274    0.000019
      5          6           0        0.097462    1.589862    0.000002
      6          6           0        1.451428    1.314980   -0.000060
      7          1           0       -0.252304    2.617780    0.000002
      8          8           0       -3.161317    0.004136    0.000004
      9          8           0       -1.259569   -1.820430    0.000017
     10          1           0        1.287742   -2.092184   -0.000149
     11          6           0       -2.273050    0.851991    0.000029
     12          1           0       -2.541694    1.925634    0.000120
     13          1           0       -2.168995   -1.444120    0.000102
     14          1           0        2.173214    2.123274   -0.000099
     15          6           0        3.375258   -0.333924    0.000086
     16          1           0        3.649291   -0.920409    0.882027
     17          1           0        3.648608   -0.925132   -0.878882
     18          1           0        3.978316    0.575267   -0.002528
 ---------------------------------------------------------------------
 Rotational constants (GHZ):           3.0823363           0.9427718           0.7251907
 Leave Link  202 at Wed Dec 03 17:21:06 2025, MaxMem=   104857600 cpu:               0.0 elap:               0.0
 (Enter D:\Gaussian\G16W\l301.exe)
 Standard basis: 6-31G(d) (6D, 7F)
 Ernie: Thresh=  0.10000D-02 Tol=  0.10000D-05 Strict=F.
 There are   166 symmetry adapted cartesian basis functions of A   symmetry.
 There are   166 symmetry adapted basis functions of A   symmetry.
   166 basis functions,   312 primitive gaussians,   166 cartesian basis functions
    37 alpha electrons       36 beta electrons
       nuclear repulsion energy       492.6034097605 Hartrees.
 IExCor=  402 DFT=T Ex+Corr=B3LYP ExCW=0 ScaHFX=  0.200000
 ScaDFX=  0.800000  0.720000  1.000000  0.810000 ScalE2=  1.000000  1.000000
 IRadAn=      5 IRanWt=     -1 IRanGd=            0 ICorTp=0 IEmpDi=  4
 NAtoms=   18 NActive=   18 NUniq=   18 SFac= 1.00D+00 NAtFMM=   60 NAOKFM=F Big=F
 Integral buffers will be    131072 words long.
 Raffenetti 2 integral format.
 Two-electron integral symmetry is turned on.
 Leave Link  301 at Wed Dec 03 17:21:06 2025, MaxMem=   104857600 cpu:               0.0 elap:               0.1
 (Enter D:\Gaussian\G16W\l302.exe)
 NPDir=0 NMtPBC=     1 NCelOv=     1 NCel=       1 NClECP=     1 NCelD=      1
         NCelK=      1 NCelE2=     1 NClLst=     1 CellRange=     0.0.
 One-electron integrals computed using PRISM.
 One-electron integral symmetry used in STVInt
 NBasis=   166 RedAO= T EigKep=  3.96D-04  NBF=   166
 NBsUse=   166 1.00D-06 EigRej= -1.00D+00 NBFU=   166
 Precomputing XC quadrature grid using
 IXCGrd= 4 IRadAn=           5 IRanWt=          -1 IRanGd=           0 AccXCQ= 0.00D+00.
 Generated NRdTot=       0 NPtTot=           0 NUsed=           0 NTot=          32
 NSgBfM=   166   166   166   166   166 MxSgAt=    18 MxSgA2=    18.
 Leave Link  302 at Wed Dec 03 17:21:07 2025, MaxMem=   104857600 cpu:               1.0 elap:               0.3
 (Enter D:\Gaussian\G16W\l303.exe)
 DipDrv:  MaxL=1.
 Leave Link  303 at Wed Dec 03 17:21:07 2025, MaxMem=   104857600 cpu:               0.0 elap:               0.1
 (Enter D:\Gaussian\G16W\l401.exe)
 ExpMin= 1.61D-01 ExpMax= 5.48D+03 ExpMxC= 8.25D+02 IAcc=3 IRadAn=         5 AccDes= 0.00D+00
 Harris functional with IExCor=  402 and IRadAn=       5 diagonalized for initial guess.
 HarFok:  IExCor=  402 AccDes= 0.00D+00 IRadAn=         5 IDoV= 1 UseB2=F ITyADJ=14
 ICtDFT=  3500011 ScaDFX=  1.000000  1.000000  1.000000  1.000000
 FoFCou: FMM=F IPFlag=           0 FMFlag=      100000 FMFlg1=           0
         NFxFlg=           0 DoJE=T BraDBF=F KetDBF=T FulRan=T
         wScrn=  0.000000 ICntrl=       500 IOpCl=  0 I1Cent=   200000004 NGrid=           0
         NMat0=    1 NMatS0=      1 NMatT0=    0 NMatD0=    1 NMtDS0=    0 NMtDT0=    0
 Petite list used in FoFCou.
 Harris En= -460.328079488801    
 JPrj=0 DoOrth=F DoCkMO=F.
 Initial guess <Sx>= 0.0000 <Sy>= 0.0000 <Sz>= 0.5000 <S**2>= 0.7500 S= 0.5000
 Leave Link  401 at Wed Dec 03 17:21:08 2025, MaxMem=   104857600 cpu:               1.0 elap:               1.1
 (Enter D:\Gaussian\G16W\l502.exe)
 Integral symmetry usage will be decided dynamically.
 UHF open shell SCF:
 Using DIIS extrapolation, IDIIS=  1040.
 NGot=   104857600 LenX=   104799544 LenY=   104771547
 Requested convergence on RMS density matrix=1.00D-07 within 128 cycles.
 Requested convergence on MAX density matrix=1.00D-05.
 Requested convergence on             energy=1.00D-05.
 No special actions if energy rises.
 Fock matrices will be formed incrementally for  20 cycles.
 Integral accuracy reduced to 1.0D-05 until final iterations.

 Cycle   1  Pass 0  IDiag  1:
 FoFJK:  IHMeth= 1 ICntrl=       0 DoSepK=F KAlg= 0 I1Cent=           0 FoldK=F
 IRaf= 930000000 NMat=       1 IRICut=       1 DoRegI=T DoRafI=F ISym2E= 0 IDoP0=0 IntGTp=1.
 FoFCou: FMM=F IPFlag=           0 FMFlag=      100000 FMFlg1=           0
         NFxFlg=           0 DoJE=F BraDBF=F KetDBF=F FulRan=T
         wScrn=  0.000000 ICntrl=         0 IOpCl=  1 I1Cent=           0 NGrid=           0
         NMat0=    1 NMatS0=      1 NMatT0=    0 NMatD0=    1 NMtDS0=    0 NMtDT0=    0
 Symmetry not used in FoFCou.
 E= -459.772489446767    
 DIIS: error= 4.15D-02 at cycle   1 NSaved=   1.
 NSaved= 1 IEnMin= 1 EnMin= -459.772489446767     IErMin= 1 ErrMin= 4.15D-02
 ErrMax= 4.15D-02  0.00D+00 EMaxC= 1.00D-01 BMatC= 1.34D+00 BMatP= 1.34D+00
 IDIUse=3 WtCom= 5.85D-01 WtEn= 4.15D-01
 Coeff-Com:  0.100D+01
 Coeff-En:   0.100D+01
 Coeff:      0.100D+01
 Gap=     0.096 Goal=   None    Shift=    0.000
 Gap=     0.189 Goal=   None    Shift=    0.000
 GapD=    0.096 DampG=0.500 DampE=0.500 DampFc=0.2500 IDamp=-1.
 Damping current iteration by 2.50D-01
 RMSDP=1.00D-02 MaxDP=2.60D-01              OVMax= 2.07D-01

 Cycle   2  Pass 0  IDiag  1:
 RMSU=  2.49D-03    CP:  9.90D-01
 E= -459.896381438103     Delta-E=       -0.123891991336 Rises=F Damp=T
 DIIS: error= 2.22D-02 at cycle   2 NSaved=   2.
 NSaved= 2 IEnMin= 2 EnMin= -459.896381438103     IErMin= 2 ErrMin= 2.22D-02
 ErrMax= 2.22D-02  0.00D+00 EMaxC= 1.00D-01 BMatC= 3.30D-01 BMatP= 1.34D+00
 IDIUse=3 WtCom= 7.78D-01 WtEn= 2.22D-01
 Coeff-Com: -0.839D+00 0.184D+01
 Coeff-En:   0.000D+00 0.100D+01
 Coeff:     -0.653D+00 0.165D+01
 Gap=     0.145 Goal=   None    Shift=    0.000
 Gap=     0.210 Goal=   None    Shift=    0.000
 RMSDP=2.86D-03 MaxDP=5.55D-02 DE=-1.24D-01 OVMax= 1.47D-01

 Cycle   3  Pass 0  IDiag  1:
 RMSU=  2.06D-03    CP:  9.70D-01  1.76D+00
 E= -460.101293817423     Delta-E=       -0.204912379320 Rises=F Damp=F
 DIIS: error= 6.98D-03 at cycle   3 NSaved=   3.
 NSaved= 3 IEnMin= 3 EnMin= -460.101293817423     IErMin= 3 ErrMin= 6.98D-03
 ErrMax= 6.98D-03  0.00D+00 EMaxC= 1.00D-01 BMatC= 5.60D-02 BMatP= 3.30D-01
 IDIUse=3 WtCom= 9.30D-01 WtEn= 6.98D-02
 Coeff-Com: -0.348D+00 0.815D+00 0.533D+00
 Coeff-En:   0.000D+00 0.000D+00 0.100D+01
 Coeff:     -0.323D+00 0.758D+00 0.565D+00
 Gap=     0.099 Goal=   None    Shift=    0.000
 Gap=     0.193 Goal=   None    Shift=    0.000
 RMSDP=1.25D-03 MaxDP=2.67D-02 DE=-2.05D-01 OVMax= 4.61D-02

 Cycle   4  Pass 0  IDiag  1:
 RMSU=  9.90D-04    CP:  9.73D-01  1.61D+00  6.90D-01
 E= -460.111459869238     Delta-E=       -0.010166051815 Rises=F Damp=F
 DIIS: error= 3.87D-03 at cycle   4 NSaved=   4.
 NSaved= 4 IEnMin= 4 EnMin= -460.111459869238     IErMin= 4 ErrMin= 3.87D-03
 ErrMax= 3.87D-03  0.00D+00 EMaxC= 1.00D-01 BMatC= 1.51D-02 BMatP= 5.60D-02
 IDIUse=3 WtCom= 9.61D-01 WtEn= 3.87D-02
 Coeff-Com:  0.583D-03 0.450D-01 0.344D+00 0.611D+00
 Coeff-En:   0.000D+00 0.000D+00 0.211D+00 0.789D+00
 Coeff:      0.560D-03 0.433D-01 0.339D+00 0.617D+00
 Gap=     0.103 Goal=   None    Shift=    0.000
 Gap=     0.191 Goal=   None    Shift=    0.000
 RMSDP=4.85D-04 MaxDP=1.20D-02 DE=-1.02D-02 OVMax= 2.19D-02

 Cycle   5  Pass 0  IDiag  1:
 RMSU=  2.32D-04    CP:  9.73D-01  1.61D+00  7.86D-01  6.21D-01
 E= -460.114657554083     Delta-E=       -0.003197684845 Rises=F Damp=F
 DIIS: error= 1.23D-03 at cycle   5 NSaved=   5.
 NSaved= 5 IEnMin= 5 EnMin= -460.114657554083     IErMin= 5 ErrMin= 1.23D-03
 ErrMax= 1.23D-03  0.00D+00 EMaxC= 1.00D-01 BMatC= 1.08D-03 BMatP= 1.51D-02
 IDIUse=3 WtCom= 9.88D-01 WtEn= 1.23D-02
 Coeff-Com:  0.188D-01-0.181D-01 0.161D+00 0.348D+00 0.490D+00
 Coeff-En:   0.000D+00 0.000D+00 0.000D+00 0.000D+00 0.100D+01
 Coeff:      0.185D-01-0.178D-01 0.159D+00 0.344D+00 0.497D+00
 Gap=     0.102 Goal=   None    Shift=    0.000
 Gap=     0.192 Goal=   None    Shift=    0.000
 RMSDP=1.26D-04 MaxDP=4.49D-03 DE=-3.20D-03 OVMax= 7.01D-03

 Cycle   6  Pass 0  IDiag  1:
 RMSU=  8.19D-05    CP:  9.72D-01  1.62D+00  7.82D-01  6.77D-01  6.73D-01
 E= -460.114921052013     Delta-E=       -0.000263497929 Rises=F Damp=F
 DIIS: error= 4.54D-04 at cycle   6 NSaved=   6.
 NSaved= 6 IEnMin= 6 EnMin= -460.114921052013     IErMin= 6 ErrMin= 4.54D-04
 ErrMax= 4.54D-04  0.00D+00 EMaxC= 1.00D-01 BMatC= 7.66D-05 BMatP= 1.08D-03
 IDIUse=3 WtCom= 9.95D-01 WtEn= 4.54D-03
 Coeff-Com:  0.978D-02-0.161D-01 0.249D-01 0.633D-01 0.216D+00 0.702D+00
 Coeff-En:   0.000D+00 0.000D+00 0.000D+00 0.000D+00 0.000D+00 0.100D+01
 Coeff:      0.974D-02-0.160D-01 0.248D-01 0.631D-01 0.215D+00 0.704D+00
 Gap=     0.103 Goal=   None    Shift=    0.000
 Gap=     0.192 Goal=   None    Shift=    0.000
 RMSDP=5.27D-05 MaxDP=1.62D-03 DE=-2.63D-04 OVMax= 4.28D-03

 Cycle   7  Pass 0  IDiag  1:
 RMSU=  4.00D-05    CP:  9.72D-01  1.62D+00  7.87D-01  6.76D-01  7.99D-01
                    CP:  8.54D-01
 E= -460.114952156215     Delta-E=       -0.000031104203 Rises=F Damp=F
 DIIS: error= 1.79D-04 at cycle   7 NSaved=   7.
 NSaved= 7 IEnMin= 7 EnMin= -460.114952156215     IErMin= 7 ErrMin= 1.79D-04
 ErrMax= 1.79D-04  0.00D+00 EMaxC= 1.00D-01 BMatC= 1.83D-05 BMatP= 7.66D-05
 IDIUse=3 WtCom= 9.98D-01 WtEn= 1.79D-03
 Coeff-Com:  0.189D-02-0.466D-02-0.103D-01-0.220D-01 0.791D-02 0.315D+00
 Coeff-Com:  0.712D+00
 Coeff-En:   0.000D+00 0.000D+00 0.000D+00 0.000D+00 0.000D+00 0.000D+00
 Coeff-En:   0.100D+01
 Coeff:      0.189D-02-0.465D-02-0.103D-01-0.220D-01 0.790D-02 0.315D+00
 Coeff:      0.712D+00
 Gap=     0.103 Goal=   None    Shift=    0.000
 Gap=     0.193 Goal=   None    Shift=    0.000
 RMSDP=2.72D-05 MaxDP=1.02D-03 DE=-3.11D-05 OVMax= 2.49D-03

 Cycle   8  Pass 0  IDiag  1:
 RMSU=  1.96D-05    CP:  9.72D-01  1.61D+00  7.89D-01  6.80D-01  8.24D-01
                    CP:  1.06D+00  1.04D+00
 E= -460.114961552710     Delta-E=       -0.000009396495 Rises=F Damp=F
 DIIS: error= 9.35D-05 at cycle   8 NSaved=   8.
 NSaved= 8 IEnMin= 8 EnMin= -460.114961552710     IErMin= 8 ErrMin= 9.35D-05
 ErrMax= 9.35D-05  0.00D+00 EMaxC= 1.00D-01 BMatC= 6.80D-06 BMatP= 1.83D-05
 IDIUse=1 WtCom= 1.00D+00 WtEn= 0.00D+00
 Coeff-Com: -0.328D-02 0.447D-02-0.189D-01-0.473D-01-0.112D+00-0.136D+00
 Coeff-Com:  0.454D+00 0.859D+00
 Coeff:     -0.328D-02 0.447D-02-0.189D-01-0.473D-01-0.112D+00-0.136D+00
 Coeff:      0.454D+00 0.859D+00
 Gap=     0.103 Goal=   None    Shift=    0.000
 Gap=     0.193 Goal=   None    Shift=    0.000
 RMSDP=2.38D-05 MaxDP=9.20D-04 DE=-9.40D-06 OVMax= 2.07D-03

 Cycle   9  Pass 0  IDiag  1:
 RMSU=  8.79D-06    CP:  9.72D-01  1.61D+00  7.89D-01  6.83D-01  8.67D-01
                    CP:  1.18D+00  1.46D+00  1.08D+00
 E= -460.114966513361     Delta-E=       -0.000004960650 Rises=F Damp=F
 DIIS: error= 4.91D-05 at cycle   9 NSaved=   9.
 NSaved= 9 IEnMin= 9 EnMin= -460.114966513361     IErMin= 9 ErrMin= 4.91D-05
 ErrMax= 4.91D-05  0.00D+00 EMaxC= 1.00D-01 BMatC= 9.36D-07 BMatP= 6.80D-06
 IDIUse=1 WtCom= 1.00D+00 WtEn= 0.00D+00
 Coeff-Com: -0.184D-02 0.276D-02-0.740D-02-0.193D-01-0.531D-01-0.108D+00
 Coeff-Com:  0.120D+00 0.392D+00 0.675D+00
 Coeff:     -0.184D-02 0.276D-02-0.740D-02-0.193D-01-0.531D-01-0.108D+00
 Coeff:      0.120D+00 0.392D+00 0.675D+00
 Gap=     0.103 Goal=   None    Shift=    0.000
 Gap=     0.193 Goal=   None    Shift=    0.000
 RMSDP=7.02D-06 MaxDP=3.50D-04 DE=-4.96D-06 OVMax= 8.46D-04

 Initial convergence to 1.0D-05 achieved.  Increase integral accuracy.
 Cycle  10  Pass 1  IDiag  1:
 E= -460.114972930812     Delta-E=       -0.000006417451 Rises=F Damp=F
 DIIS: error= 2.24D-05 at cycle   1 NSaved=   1.
 NSaved= 1 IEnMin= 1 EnMin= -460.114972930812     IErMin= 1 ErrMin= 2.24D-05
 ErrMax= 2.24D-05  0.00D+00 EMaxC= 1.00D-01 BMatC= 3.75D-07 BMatP= 3.75D-07
 IDIUse=1 WtCom= 1.00D+00 WtEn= 0.00D+00
 Coeff-Com:  0.100D+01
 Coeff:      0.100D+01
 Gap=     0.103 Goal=   None    Shift=    0.000
 Gap=     0.193 Goal=   None    Shift=    0.000
 RMSDP=7.02D-06 MaxDP=3.50D-04 DE=-6.42D-06 OVMax= 4.72D-04

 Cycle  11  Pass 1  IDiag  1:
 RMSU=  1.09D-05    CP:  1.00D+00
 E= -460.114972970051     Delta-E=       -0.000000039239 Rises=F Damp=F
 DIIS: error= 3.19D-05 at cycle   2 NSaved=   2.
 NSaved= 2 IEnMin= 2 EnMin= -460.114972970051     IErMin= 1 ErrMin= 2.24D-05
 ErrMax= 3.19D-05  0.00D+00 EMaxC= 1.00D-01 BMatC= 6.48D-07 BMatP= 3.75D-07
 IDIUse=1 WtCom= 1.00D+00 WtEn= 0.00D+00
 Coeff-Com:  0.584D+00 0.416D+00
 Coeff:      0.584D+00 0.416D+00
 Gap=     0.103 Goal=   None    Shift=    0.000
 Gap=     0.193 Goal=   None    Shift=    0.000
 RMSDP=3.51D-06 MaxDP=1.16D-04 DE=-3.92D-08 OVMax= 2.62D-04

 Cycle  12  Pass 1  IDiag  1:
 RMSU=  3.31D-06    CP:  1.00D+00  8.95D-01
 E= -460.114973135029     Delta-E=       -0.000000164979 Rises=F Damp=F
 DIIS: error= 1.43D-05 at cycle   3 NSaved=   3.
 NSaved= 3 IEnMin= 3 EnMin= -460.114973135029     IErMin= 3 ErrMin= 1.43D-05
 ErrMax= 1.43D-05  0.00D+00 EMaxC= 1.00D-01 BMatC= 5.44D-08 BMatP= 3.75D-07
 IDIUse=1 WtCom= 1.00D+00 WtEn= 0.00D+00
 Coeff-Com:  0.388D-01 0.183D+00 0.778D+00
 Coeff:      0.388D-01 0.183D+00 0.778D+00
 Gap=     0.103 Goal=   None    Shift=    0.000
 Gap=     0.193 Goal=   None    Shift=    0.000
 RMSDP=1.81D-06 MaxDP=7.07D-05 DE=-1.65D-07 OVMax= 1.50D-04

 Cycle  13  Pass 1  IDiag  1:
 RMSU=  1.54D-06    CP:  1.00D+00  9.63D-01  8.21D-01
 E= -460.114973164120     Delta-E=       -0.000000029091 Rises=F Damp=F
 DIIS: error= 6.90D-06 at cycle   4 NSaved=   4.
 NSaved= 4 IEnMin= 4 EnMin= -460.114973164120     IErMin= 4 ErrMin= 6.90D-06
 ErrMax= 6.90D-06  0.00D+00 EMaxC= 1.00D-01 BMatC= 3.55D-08 BMatP= 5.44D-08
 IDIUse=1 WtCom= 1.00D+00 WtEn= 0.00D+00
 Coeff-Com: -0.141D+00 0.299D-02 0.555D+00 0.584D+00
 Coeff:     -0.141D+00 0.299D-02 0.555D+00 0.584D+00
 Gap=     0.103 Goal=   None    Shift=    0.000
 Gap=     0.193 Goal=   None    Shift=    0.000
 RMSDP=1.26D-06 MaxDP=4.54D-05 DE=-2.91D-08 OVMax= 1.27D-04

 Cycle  14  Pass 1  IDiag  1:
 RMSU=  1.04D-06    CP:  1.00D+00  9.83D-01  1.01D+00  1.15D+00
 E= -460.114973182546     Delta-E=       -0.000000018426 Rises=F Damp=F
 DIIS: error= 3.09D-06 at cycle   5 NSaved=   5.
 NSaved= 5 IEnMin= 5 EnMin= -460.114973182546     IErMin= 5 ErrMin= 3.09D-06
 ErrMax= 3.09D-06  0.00D+00 EMaxC= 1.00D-01 BMatC= 4.46D-09 BMatP= 3.55D-08
 IDIUse=1 WtCom= 1.00D+00 WtEn= 0.00D+00
 Coeff-Com: -0.635D-01-0.762D-01-0.103D+00 0.147D+00 0.110D+01
 Coeff:     -0.635D-01-0.762D-01-0.103D+00 0.147D+00 0.110D+01
 Gap=     0.103 Goal=   None    Shift=    0.000
 Gap=     0.193 Goal=   None    Shift=    0.000
 RMSDP=9.71D-07 MaxDP=4.02D-05 DE=-1.84D-08 OVMax= 1.02D-04

 Cycle  15  Pass 1  IDiag  1:
 RMSU=  3.46D-07    CP:  1.00D+00  1.00D+00  1.08D+00  1.67D+00  1.25D+00
 E= -460.114973188274     Delta-E=       -0.000000005728 Rises=F Damp=F
 DIIS: error= 1.95D-06 at cycle   6 NSaved=   6.
 NSaved= 6 IEnMin= 6 EnMin= -460.114973188274     IErMin= 6 ErrMin= 1.95D-06
 ErrMax= 1.95D-06  0.00D+00 EMaxC= 1.00D-01 BMatC= 3.60D-09 BMatP= 4.46D-09
 IDIUse=1 WtCom= 1.00D+00 WtEn= 0.00D+00
 Coeff-Com:  0.285D-02-0.576D-01-0.248D+00-0.920D-01 0.822D+00 0.573D+00
 Coeff:      0.285D-02-0.576D-01-0.248D+00-0.920D-01 0.822D+00 0.573D+00
 Gap=     0.103 Goal=   None    Shift=    0.000
 Gap=     0.193 Goal=   None    Shift=    0.000
 RMSDP=4.70D-07 MaxDP=1.83D-05 DE=-5.73D-09 OVMax= 4.69D-05

 Cycle  16  Pass 1  IDiag  1:
 RMSU=  1.27D-07    CP:  1.00D+00  1.01D+00  1.11D+00  1.84D+00  1.56D+00
                    CP:  6.47D-01
 E= -460.114973189829     Delta-E=       -0.000000001555 Rises=F Damp=F
 DIIS: error= 3.02D-07 at cycle   7 NSaved=   7.
 NSaved= 7 IEnMin= 7 EnMin= -460.114973189829     IErMin= 7 ErrMin= 3.02D-07
 ErrMax= 3.02D-07  0.00D+00 EMaxC= 1.00D-01 BMatC= 1.02D-10 BMatP= 3.60D-09
 IDIUse=1 WtCom= 1.00D+00 WtEn= 0.00D+00
 Coeff-Com:  0.469D-02-0.200D-01-0.888D-01-0.483D-01 0.273D+00 0.218D+00
 Coeff-Com:  0.662D+00
 Coeff:      0.469D-02-0.200D-01-0.888D-01-0.483D-01 0.273D+00 0.218D+00
 Coeff:      0.662D+00
 Gap=     0.103 Goal=   None    Shift=    0.000
 Gap=     0.193 Goal=   None    Shift=    0.000
 RMSDP=6.01D-08 MaxDP=2.07D-06 DE=-1.55D-09 OVMax= 5.27D-06

 SCF Done:  E(UB3LYP) =  -460.114973190     A.U. after   16 cycles
            NFock= 16  Conv=0.60D-07     -V/T= 2.0082
 <Sx>= 0.0000 <Sy>= 0.0000 <Sz>= 0.5000 <S**2>= 0.7651 S= 0.5075
 <L.S>= 0.000000000000E+00
 KE= 4.563791963902D+02 PE=-2.070959842600D+03 EE= 6.618622632596D+02
 Annihilation of the first spin contaminant:
 S**2 before annihilation     0.7651,   after     0.7501
 Leave Link  502 at Wed Dec 03 17:21:38 2025, MaxMem=   104857600 cpu:              30.0 elap:              30.3
 (Enter D:\Gaussian\G16W\l601.exe)
 Copying SCF densities to generalized density rwf, IOpCl= 1 IROHF=0.

 **********************************************************************

            Population analysis using the SCF density.

 **********************************************************************

 Orbital symmetries:
 Alpha Orbitals:
       Occupied  (A) (A) (A) (A) (A) (A) (A) (A) (A) (A) (A) (A)
                 (A) (A) (A) (A) (A) (A) (A) (A) (A) (A) (A) (A)
                 (A) (A) (A) (A) (A) (A) (A) (A) (A) (A) (A) (A)
                 (A)
       Virtual   (A) (A) (A) (A) (A) (A) (A) (A) (A) (A) (A) (A)
                 (A) (A) (A) (A) (A) (A) (A) (A) (A) (A) (A) (A)
                 (A) (A) (A) (A) (A) (A) (A) (A) (A) (A) (A) (A)
                 (A) (A) (A) (A) (A) (A) (A) (A) (A) (A) (A) (A)
                 (A) (A) (A) (A) (A) (A) (A) (A) (A) (A) (A) (A)
                 (A) (A) (A) (A) (A) (A) (A) (A) (A) (A) (A) (A)
                 (A) (A) (A) (A) (A) (A) (A) (A) (A) (A) (A) (A)
                 (A) (A) (A) (A) (A) (A) (A) (A) (A) (A) (A) (A)
                 (A) (A) (A) (A) (A) (A) (A) (A) (A) (A) (A) (A)
                 (A) (A) (A) (A) (A) (A) (A) (A) (A) (A) (A) (A)
                 (A) (A) (A) (A) (A) (A) (A) (A) (A)
 Beta  Orbitals:
       Occupied  (A) (A) (A) (A) (A) (A) (A) (A) (A) (A) (A) (A)
                 (A) (A) (A) (A) (A) (A) (A) (A) (A) (A) (A) (A)
                 (A) (A) (A) (A) (A) (A) (A) (A) (A) (A) (A) (A)
       Virtual   (A) (A) (A) (A) (A) (A) (A) (A) (A) (A) (A) (A)
                 (A) (A) (A) (A) (A) (A) (A) (A) (A) (A) (A) (A)
                 (A) (A) (A) (A) (A) (A) (A) (A) (A) (A) (A) (A)
                 (A) (A) (A) (A) (A) (A) (A) (A) (A) (A) (A) (A)
                 (A) (A) (A) (A) (A) (A) (A) (A) (A) (A) (A) (A)
                 (A) (A) (A) (A) (A) (A) (A) (A) (A) (A) (A) (A)
                 (A) (A) (A) (A) (A) (A) (A) (A) (A) (A) (A) (A)
                 (A) (A) (A) (A) (A) (A) (A) (A) (A) (A) (A) (A)
                 (A) (A) (A) (A) (A) (A) (A) (A) (A) (A) (A) (A)
                 (A) (A) (A) (A) (A) (A) (A) (A) (A) (A) (A) (A)
                 (A) (A) (A) (A) (A) (A) (A) (A) (A) (A)
 The electronic state is 2-A.
 Alpha  occ. eigenvalues --  -18.98417 -18.92103 -10.06369 -10.04260 -10.04049
 Alpha  occ. eigenvalues --  -10.01169 -10.00884 -10.00442 -10.00026  -9.99381
 Alpha  occ. eigenvalues --   -0.87973  -0.82562  -0.67483  -0.60714  -0.56221
 Alpha  occ. eigenvalues --   -0.53480  -0.44398  -0.42911  -0.40831  -0.33294
 Alpha  occ. eigenvalues --   -0.32176  -0.29679  -0.27881  -0.26754  -0.25102
 Alpha  occ. eigenvalues --   -0.23888  -0.23604  -0.23116  -0.20229  -0.18948
 Alpha  occ. eigenvalues --   -0.18880  -0.16181  -0.15454  -0.07651  -0.05592
 Alpha  occ. eigenvalues --   -0.04678   0.08056
 Alpha virt. eigenvalues --    0.18388   0.21757   0.23845   0.26259   0.28908
 Alpha virt. eigenvalues --    0.29382   0.30382   0.32047   0.32982   0.34726
 Alpha virt. eigenvalues --    0.36732   0.38982   0.41906   0.47130   0.47893
 Alpha virt. eigenvalues --    0.50319   0.54254   0.55374   0.58555   0.63878
 Alpha virt. eigenvalues --    0.66703   0.67509   0.69289   0.69640   0.73495
 Alpha virt. eigenvalues --    0.73894   0.74939   0.77131   0.77302   0.78784
 Alpha virt. eigenvalues --    0.80778   0.80833   0.83217   0.85934   0.87520
 Alpha virt. eigenvalues --    0.87555   0.88419   0.90358   0.91692   0.97728
 Alpha virt. eigenvalues --    0.99019   1.00857   1.01697   1.02170   1.02521
 Alpha virt. eigenvalues --    1.04207   1.05657   1.08938   1.12063   1.13842
 Alpha virt. eigenvalues --    1.14196   1.15404   1.17885   1.19500   1.24201
 Alpha virt. eigenvalues --    1.25438   1.26881   1.31373   1.35802   1.37933
 Alpha virt. eigenvalues --    1.42432   1.43363   1.45266   1.50097   1.50690
 Alpha virt. eigenvalues --    1.55763   1.58251   1.58723   1.61657   1.63446
 Alpha virt. eigenvalues --    1.66020   1.67143   1.73198   1.82995   1.90453
 Alpha virt. eigenvalues --    1.92582   1.94447   1.95402   1.95859   1.97686
 Alpha virt. eigenvalues --    2.01963   2.02645   2.05327   2.07971   2.09040
 Alpha virt. eigenvalues --    2.11697   2.12267   2.16194   2.20517   2.22925
 Alpha virt. eigenvalues --    2.23709   2.28935   2.30717   2.32382   2.44793
 Alpha virt. eigenvalues --    2.45051   2.48023   2.48751   2.50719   2.51268
 Alpha virt. eigenvalues --    2.55322   2.57186   2.58167   2.66367   2.68506
 Alpha virt. eigenvalues --    2.73456   2.80742   2.83054   2.86830   2.87273
 Alpha virt. eigenvalues --    2.95687   3.00927   3.04378   3.06919   3.10698
 Alpha virt. eigenvalues --    3.16012   3.22680   3.42681   3.62392   4.16454
 Alpha virt. eigenvalues --    4.19733   4.27058   4.30603   4.37850   4.39822
 Alpha virt. eigenvalues --    4.48936   4.62545   4.65043   4.97922
  Beta  occ. eigenvalues --  -18.98356 -18.91465 -10.06209 -10.04297 -10.03628
  Beta  occ. eigenvalues --  -10.01033 -10.00747 -10.00132 -10.00062  -9.99391
  Beta  occ. eigenvalues --   -0.87776  -0.81375  -0.67076  -0.60270  -0.55938
  Beta  occ. eigenvalues --   -0.53173  -0.43651  -0.42663  -0.40241  -0.33076
  Beta  occ. eigenvalues --   -0.31883  -0.29443  -0.27463  -0.26556  -0.24893
  Beta  occ. eigenvalues --   -0.23679  -0.22651  -0.22622  -0.20067  -0.18641
  Beta  occ. eigenvalues --   -0.16144  -0.16046  -0.14207  -0.05858  -0.05066
  Beta  occ. eigenvalues --   -0.03780
  Beta virt. eigenvalues --    0.15509   0.19241   0.23872   0.24550   0.26382
  Beta virt. eigenvalues --    0.29005   0.29544   0.31111   0.32127   0.33201
  Beta virt. eigenvalues --    0.34919   0.38102   0.39445   0.42258   0.47461
  Beta virt. eigenvalues --    0.48178   0.50533   0.54506   0.55526   0.59120
  Beta virt. eigenvalues --    0.64024   0.67131   0.67861   0.69972   0.70453
  Beta virt. eigenvalues --    0.73838   0.74034   0.75805   0.77559   0.77795
  Beta virt. eigenvalues --    0.79042   0.81063   0.81104   0.83691   0.86048
  Beta virt. eigenvalues --    0.87758   0.87966   0.89644   0.90668   0.91962
  Beta virt. eigenvalues --    0.98326   0.99176   1.01036   1.02004   1.02363
  Beta virt. eigenvalues --    1.02624   1.04445   1.05823   1.09080   1.12320
  Beta virt. eigenvalues --    1.14188   1.14710   1.15905   1.19681   1.19981
  Beta virt. eigenvalues --    1.24343   1.25683   1.27209   1.31612   1.36027
  Beta virt. eigenvalues --    1.38159   1.43039   1.43642   1.45451   1.50925
  Beta virt. eigenvalues --    1.51032   1.56461   1.58878   1.58937   1.61911
  Beta virt. eigenvalues --    1.64181   1.66321   1.67539   1.74806   1.83368
  Beta virt. eigenvalues --    1.90789   1.92833   1.94922   1.96193   1.96360
  Beta virt. eigenvalues --    1.98325   2.02314   2.03142   2.05569   2.08231
  Beta virt. eigenvalues --    2.09311   2.12425   2.12473   2.16287   2.21490
  Beta virt. eigenvalues --    2.23784   2.24098   2.29233   2.31515   2.32801
  Beta virt. eigenvalues --    2.45077   2.45880   2.48142   2.49284   2.51512
  Beta virt. eigenvalues --    2.52167   2.56074   2.57657   2.59042   2.66538
  Beta virt. eigenvalues --    2.69502   2.73692   2.81777   2.83631   2.87153
  Beta virt. eigenvalues --    2.88455   2.95852   3.01149   3.04589   3.07192
  Beta virt. eigenvalues --    3.10943   3.16547   3.23048   3.42863   3.62549
  Beta virt. eigenvalues --    4.17068   4.20221   4.27387   4.31083   4.38149
  Beta virt. eigenvalues --    4.39865   4.49494   4.62992   4.65526   4.98261
          Condensed to atoms (all electrons):
               1          2          3          4          5          6
     1  C    4.727921   0.489520  -0.003151  -0.024997  -0.032841   0.544925
     2  C    0.489520   5.157565   0.518137  -0.059721  -0.050180  -0.022020
     3  C   -0.003151   0.518137   4.709713   0.387771  -0.013489  -0.050315
     4  C   -0.024997  -0.059721   0.387771   5.093172   0.425466  -0.014542
     5  C   -0.032841  -0.050180  -0.013489   0.425466   5.167175   0.501163
     6  C    0.544925  -0.022020  -0.050315  -0.014542   0.501163   5.002223
     7  H    0.004074   0.001014   0.004896  -0.044403   0.333222  -0.053313
     8  O   -0.000029   0.000532  -0.003219  -0.070285   0.004495  -0.000075
     9  O    0.002345  -0.058885   0.295900  -0.050180   0.004740   0.000398
    10  H   -0.063649   0.325738  -0.040967   0.008626   0.000352   0.006611
    11  C    0.000341   0.007270  -0.058355   0.410970  -0.059114   0.005811
    12  H   -0.000038  -0.000185   0.005044  -0.123850  -0.003101   0.000102
    13  H   -0.000129   0.004829  -0.025763  -0.024075   0.000581  -0.000007
    14  H   -0.046744   0.007284   0.000587   0.003877  -0.053791   0.334257
    15  C    0.347749  -0.080346   0.007351   0.000252   0.009197  -0.058247
    16  H   -0.037177   0.000219   0.000041   0.000012  -0.000106   0.000558
    17  H   -0.037107   0.000207   0.000041   0.000012  -0.000107   0.000587
    18  H   -0.025914   0.003596  -0.000161   0.000036  -0.000109  -0.003461
               7          8          9         10         11         12
     1  C    0.004074  -0.000029   0.002345  -0.063649   0.000341  -0.000038
     2  C    0.001014   0.000532  -0.058885   0.325738   0.007270  -0.000185
     3  C    0.004896  -0.003219   0.295900  -0.040967  -0.058355   0.005044
     4  C   -0.044403  -0.070285  -0.050180   0.008626   0.410970  -0.123850
     5  C    0.333222   0.004495   0.004740   0.000352  -0.059114  -0.003101
     6  C   -0.053313  -0.000075   0.000398   0.006611   0.005811   0.000102
     7  H    0.704211   0.000111  -0.000073   0.000029  -0.009956   0.012182
     8  O    0.000111   8.240918  -0.038814   0.000013   0.417922  -0.063213
     9  O   -0.000073  -0.038814   8.358567   0.000629  -0.010581  -0.000544
    10  H    0.000029   0.000013   0.000629   0.716536  -0.000127   0.000005
    11  C   -0.009956   0.417922  -0.010581  -0.000127   4.901359   0.328952
    12  H    0.012182  -0.063213  -0.000544   0.000005   0.328952   0.838913
    13  H    0.000015   0.101435   0.192007   0.000005  -0.005927   0.003200
    14  H   -0.006457   0.000001   0.000003  -0.000202  -0.000114   0.000012
    15  C   -0.000278   0.000000  -0.000072  -0.012488  -0.000005   0.000000
    16  H    0.000004   0.000000  -0.000002   0.002706   0.000000   0.000000
    17  H    0.000004   0.000000  -0.000002   0.002739   0.000000   0.000000
    18  H   -0.000010   0.000000   0.000000   0.000097   0.000000   0.000000
              13         14         15         16         17         18
     1  C   -0.000129  -0.046744   0.347749  -0.037177  -0.037107  -0.025914
     2  C    0.004829   0.007284  -0.080346   0.000219   0.000207   0.003596
     3  C   -0.025763   0.000587   0.007351   0.000041   0.000041  -0.000161
     4  C   -0.024075   0.003877   0.000252   0.000012   0.000012   0.000036
     5  C    0.000581  -0.053791   0.009197  -0.000106  -0.000107  -0.000109
     6  C   -0.000007   0.334257  -0.058247   0.000558   0.000587  -0.003461
     7  H    0.000015  -0.006457  -0.000278   0.000004   0.000004  -0.000010
     8  O    0.101435   0.000001   0.000000   0.000000   0.000000   0.000000
     9  O    0.192007   0.000003  -0.000072  -0.000002  -0.000002   0.000000
    10  H    0.000005  -0.000202  -0.012488   0.002706   0.002739   0.000097
    11  C   -0.005927  -0.000114  -0.000005   0.000000   0.000000   0.000000
    12  H    0.003200   0.000012   0.000000   0.000000   0.000000   0.000000
    13  H    0.342726   0.000000   0.000004   0.000000   0.000000   0.000000
    14  H    0.000000   0.723764  -0.015235   0.000150   0.000149   0.009557
    15  C    0.000004  -0.015235   5.278949   0.345410   0.345445   0.351789
    16  H    0.000000   0.000150   0.345410   0.662144  -0.054600  -0.032745
    17  H    0.000000   0.000149   0.345445  -0.054600   0.661888  -0.032652
    18  H    0.000000   0.009557   0.351789  -0.032745  -0.032652   0.618120
          Atomic-Atomic Spin Densities.
               1          2          3          4          5          6
     1  C    0.390178  -0.055522  -0.013423   0.005381  -0.018083  -0.005710
     2  C   -0.055522  -0.020217   0.042504  -0.005153   0.005561   0.000150
     3  C   -0.013423   0.042504   0.132239  -0.038674   0.009163   0.002603
     4  C    0.005381  -0.005153  -0.038674   0.025497  -0.061103  -0.001568
     5  C   -0.018083   0.005561   0.009163  -0.061103   0.297802   0.016692
     6  C   -0.005710   0.000150   0.002603  -0.001568   0.016692  -0.134624
     7  H    0.000073  -0.000017  -0.000108   0.000244   0.001723   0.000561
     8  O   -0.000006   0.000045   0.002764  -0.008125   0.000699   0.000003
     9  O    0.000291  -0.002803  -0.019576   0.003384  -0.000130  -0.000013
    10  H   -0.000668   0.001559  -0.000592   0.000053  -0.000014  -0.000117
    11  C    0.000433  -0.001119  -0.012772   0.075248  -0.020111  -0.000449
    12  H   -0.000001   0.000013   0.000066  -0.000027   0.000257  -0.000002
    13  H   -0.000007  -0.000005   0.000188   0.000547  -0.000001   0.000001
    14  H   -0.000922   0.000005  -0.000011   0.000069  -0.000713   0.001261
    15  C    0.022114  -0.001266  -0.000316   0.000030  -0.000362  -0.001154
    16  H   -0.013897   0.002231   0.000128  -0.000022   0.000087   0.000226
    17  H   -0.013820   0.002216   0.000127  -0.000022   0.000086   0.000227
    18  H   -0.000946  -0.000025  -0.000001   0.000000   0.000003   0.000341
               7          8          9         10         11         12
     1  C    0.000073  -0.000006   0.000291  -0.000668   0.000433  -0.000001
     2  C   -0.000017   0.000045  -0.002803   0.001559  -0.001119   0.000013
     3  C   -0.000108   0.002764  -0.019576  -0.000592  -0.012772   0.000066
     4  C    0.000244  -0.008125   0.003384   0.000053   0.075248  -0.000027
     5  C    0.001723   0.000699  -0.000130  -0.000014  -0.020111   0.000257
     6  C    0.000561   0.000003  -0.000013  -0.000117  -0.000449  -0.000002
     7  H   -0.014978  -0.000001   0.000000   0.000000   0.000390  -0.000277
     8  O   -0.000001   0.358209  -0.000695   0.000000  -0.132635   0.000642
     9  O    0.000000  -0.000695   0.032301   0.000023   0.001997   0.000009
    10  H    0.000000   0.000000   0.000023  -0.000436  -0.000004   0.000000
    11  C    0.000390  -0.132635   0.001997  -0.000004   0.395910   0.004851
    12  H   -0.000277   0.000642   0.000009   0.000000   0.004851  -0.025697
    13  H   -0.000001  -0.002362   0.001776  -0.000006  -0.000149  -0.000121
    14  H    0.000077   0.000000   0.000000   0.000000  -0.000002   0.000000
    15  C    0.000002   0.000000   0.000002   0.000387   0.000001   0.000000
    16  H    0.000000   0.000000  -0.000001  -0.000017   0.000000   0.000000
    17  H    0.000000   0.000000  -0.000001  -0.000014   0.000000   0.000000
    18  H    0.000000   0.000000   0.000000   0.000000   0.000000   0.000000
              13         14         15         16         17         18
     1  C   -0.000007  -0.000922   0.022114  -0.013897  -0.013820  -0.000946
     2  C   -0.000005   0.000005  -0.001266   0.002231   0.002216  -0.000025
     3  C    0.000188  -0.000011  -0.000316   0.000128   0.000127  -0.000001
     4  C    0.000547   0.000069   0.000030  -0.000022  -0.000022   0.000000
     5  C   -0.000001  -0.000713  -0.000362   0.000087   0.000086   0.000003
     6  C    0.000001   0.001261  -0.001154   0.000226   0.000227   0.000341
     7  H   -0.000001   0.000077   0.000002   0.000000   0.000000   0.000000
     8  O   -0.002362   0.000000   0.000000   0.000000   0.000000   0.000000
     9  O    0.001776   0.000000   0.000002  -0.000001  -0.000001   0.000000
    10  H   -0.000006   0.000000   0.000387  -0.000017  -0.000014   0.000000
    11  C   -0.000149  -0.000002   0.000001   0.000000   0.000000   0.000000
    12  H   -0.000121   0.000000   0.000000   0.000000   0.000000   0.000000
    13  H   -0.003166   0.000000   0.000000   0.000000   0.000000   0.000000
    14  H    0.000000   0.004500   0.000371  -0.000005  -0.000004  -0.000030
    15  C    0.000000   0.000371  -0.032777  -0.007214  -0.007180   0.001562
    16  H    0.000000  -0.000005  -0.007214   0.053001  -0.016190  -0.000304
    17  H    0.000000  -0.000004  -0.007180  -0.016190   0.052736  -0.000234
    18  H    0.000000  -0.000030   0.001562  -0.000304  -0.000234   0.000278
 Mulliken charges and spin densities:
               1          2
     1  C    0.154900   0.295466
     2  C   -0.244575  -0.031842
     3  C    0.265939   0.104310
     4  C    0.081860  -0.004240
     5  C   -0.233552   0.231555
     6  C   -0.194656  -0.121571
     7  H    0.054728  -0.012313
     8  O   -0.589792   0.218538
     9  O   -0.695438   0.016565
    10  H    0.053347   0.000151
    11  C    0.071554   0.311589
    12  H    0.002520  -0.020289
    13  H    0.411098  -0.003306
    14  H    0.042901   0.004593
    15  C   -0.519475  -0.025800
    16  H    0.113386   0.018022
    17  H    0.113396   0.017927
    18  H    0.111859   0.000644
 Sum of Mulliken charges =  -1.00000   1.00000
 Mulliken charges and spin densities with hydrogens summed into heavy atoms:
               1          2
     1  C    0.154900   0.295466
     2  C   -0.191229  -0.031691
     3  C    0.265939   0.104310
     4  C    0.081860  -0.004240
     5  C   -0.178824   0.219242
     6  C   -0.151755  -0.116978
     8  O   -0.589792   0.218538
     9  O   -0.284340   0.013259
    11  C    0.074073   0.291300
    15  C   -0.180834   0.010793
 Electronic spatial extent (au):  <R**2>=           1561.3155
 Charge=             -1.0000 electrons
 Dipole moment (field-independent basis, Debye):
    X=              4.1491    Y=              0.5439    Z=              0.0002  Tot=              4.1846
 Quadrupole moment (field-independent basis, Debye-Ang):
   XX=            -87.8289   YY=            -66.7981   ZZ=            -63.1203
   XY=             -0.5106   XZ=             -0.0010   YZ=              0.0001
 Traceless Quadrupole moment (field-independent basis, Debye-Ang):
   XX=            -15.2465   YY=              5.7844   ZZ=              9.4621
   XY=             -0.5106   XZ=             -0.0010   YZ=              0.0001
 Octapole moment (field-independent basis, Debye-Ang**2):
  XXX=             31.4457  YYY=             -1.8099  ZZZ=              0.0028  XYY=             -3.2951
  XXY=             -4.5766  XXZ=             -0.0048  XZZ=             -7.8355  YZZ=             -5.3196
  YYZ=             -0.0023  XYZ=              0.0011
 Hexadecapole moment (field-independent basis, Debye-Ang**3):
 XXXX=          -1844.1617 YYYY=           -539.2277 ZZZZ=            -69.8332 XXXY=             40.0856
 XXXZ=             -0.0320 YYYX=              4.7910 YYYZ=              0.0030 ZZZX=              0.0075
 ZZZY=             -0.0009 XXYY=           -335.6800 XXZZ=           -268.3930 YYZZ=           -102.6110
 XXYZ=             -0.0002 YYXZ=             -0.0109 ZZXY=              3.4776
 N-N= 4.926034097605D+02 E-N=-2.070959825604D+03  KE= 4.563791963902D+02
                          Isotropic Fermi Contact Couplings
        Atom                 a.u.       MegaHertz       Gauss      10(-4) cm-1
     1  C(13)              0.03309      37.19622      13.27254      12.40732
     2  C(13)             -0.00975     -10.95843      -3.91024      -3.65534
     3  C(13)              0.01048      11.77613       4.20202       3.92810
     4  C(13)             -0.01075     -12.08079      -4.31073      -4.02972
     5  C(13)              0.02420      27.20296       9.70669       9.07393
     6  C(13)             -0.02012     -22.61877      -8.07094      -7.54481
     7  H(1)              -0.00362     -16.16592      -5.76840      -5.39237
     8  O(17)              0.04187     -25.37960      -9.05607      -8.46572
     9  O(17)              0.00306      -1.85332      -0.66131      -0.61820
    10  H(1)               0.00003       0.12403       0.04426       0.04137
    11  C(13)              0.02483      27.90853       9.95846       9.30928
    12  H(1)              -0.00560     -25.02192      -8.92844      -8.34641
    13  H(1)              -0.00039      -1.73984      -0.62082      -0.58035
    14  H(1)               0.00126       5.61783       2.00458       1.87391
    15  C(13)             -0.01054     -11.84534      -4.22671      -3.95118
    16  H(1)               0.00663      29.62277      10.57014       9.88109
    17  H(1)               0.00659      29.45296      10.50955       9.82445
    18  H(1)               0.00021       0.91825       0.32765       0.30630
 --------------------------------------------------------
       Center         ----  Spin Dipole Couplings  ----
                      3XX-RR        3YY-RR        3ZZ-RR
 --------------------------------------------------------
     1   Atom       -0.156143     -0.166018      0.322162
     2   Atom        0.009331      0.002277     -0.011608
     3   Atom       -0.057393     -0.064330      0.121723
     4   Atom       -0.003744     -0.020635      0.024378
     5   Atom       -0.117043     -0.120062      0.237106
     6   Atom        0.047306      0.043597     -0.090904
     7   Atom       -0.010109      0.013943     -0.003834
     8   Atom       -0.479181     -0.472590      0.951771
     9   Atom       -0.054013     -0.050557      0.104570
    10   Atom        0.001280      0.002230     -0.003510
    11   Atom       -0.166752     -0.173345      0.340097
    12   Atom       -0.017063      0.022376     -0.005313
    13   Atom        0.002453      0.007180     -0.009632
    14   Atom        0.003038      0.001388     -0.004426
    15   Atom        0.006213     -0.002991     -0.003221
    16   Atom        0.004096     -0.001747     -0.002350
    17   Atom        0.004086     -0.001735     -0.002351
    18   Atom        0.005458     -0.003227     -0.002231
 --------------------------------------------------------
                        XY            XZ            YZ
 --------------------------------------------------------
     1   Atom       -0.001692     -0.000029     -0.000005
     2   Atom        0.003484      0.000005     -0.000022
     3   Atom       -0.004051      0.000000      0.000001
     4   Atom       -0.001291     -0.000008      0.000003
     5   Atom        0.000218      0.000001      0.000001
     6   Atom       -0.007048     -0.000005      0.000000
     7   Atom       -0.007123      0.000000      0.000001
     8   Atom       -0.010459      0.000019     -0.000061
     9   Atom       -0.002198      0.000010      0.000008
    10   Atom       -0.002093     -0.000002      0.000003
    11   Atom        0.008585      0.000015     -0.000036
    12   Atom       -0.014700     -0.000001      0.000003
    13   Atom       -0.007868      0.000000      0.000000
    14   Atom       -0.003115     -0.000001      0.000000
    15   Atom       -0.001894     -0.000002      0.000000
    16   Atom       -0.003252      0.002024     -0.000603
    17   Atom       -0.003263     -0.002014      0.000602
    18   Atom        0.001878     -0.000005      0.000000
 --------------------------------------------------------


 ---------------------------------------------------------------------------------
              Anisotropic Spin Dipole Couplings in Principal Axis System
 ---------------------------------------------------------------------------------

       Atom             a.u.   MegaHertz   Gauss  10(-4) cm-1        Axes

              Baa    -0.1663   -22.316    -7.963    -7.444  0.1643  0.9864  0.0000
     1 C(13)  Bbb    -0.1559   -20.915    -7.463    -6.977  0.9864 -0.1643  0.0001
              Bcc     0.3222    43.231    15.426    14.420 -0.0001  0.0000  1.0000
 
              Baa    -0.0116    -1.558    -0.556    -0.520 -0.0005  0.0017  1.0000
     2 C(13)  Bbb     0.0008     0.114     0.041     0.038 -0.3799  0.9250 -0.0018
              Bcc     0.0108     1.444     0.515     0.482  0.9250  0.3799 -0.0002
 
              Baa    -0.0662    -8.883    -3.170    -2.963  0.4181  0.9084  0.0000
     3 C(13)  Bbb    -0.0555    -7.451    -2.659    -2.485  0.9084 -0.4181  0.0000
              Bcc     0.1217    16.334     5.828     5.448  0.0000  0.0000  1.0000
 
              Baa    -0.0207    -2.782    -0.993    -0.928  0.0758  0.9971 -0.0001
     4 C(13)  Bbb    -0.0036    -0.489    -0.175    -0.163  0.9971 -0.0758  0.0003
              Bcc     0.0244     3.271     1.167     1.091 -0.0003  0.0001  1.0000
 
              Baa    -0.1201   -16.113    -5.750    -5.375 -0.0715  0.9974  0.0000
     5 C(13)  Bbb    -0.1170   -15.704    -5.604    -5.238  0.9974  0.0715  0.0000
              Bcc     0.2371    31.817    11.353    10.613  0.0000  0.0000  1.0000
 
              Baa    -0.0909   -12.198    -4.353    -4.069  0.0000  0.0000  1.0000
     6 C(13)  Bbb     0.0382     5.121     1.827     1.708  0.6105  0.7920  0.0000
              Bcc     0.0527     7.077     2.525     2.361  0.7920 -0.6105  0.0000
 
              Baa    -0.0121    -6.435    -2.296    -2.146  0.9645  0.2642  0.0000
     7 H(1)   Bbb    -0.0038    -2.045    -0.730    -0.682  0.0000  0.0000  1.0000
              Bcc     0.0159     8.480     3.026     2.829 -0.2642  0.9645  0.0000
 
              Baa    -0.4869    35.228    12.570    11.751  0.8064  0.5914  0.0000
     8 O(17)  Bbb    -0.4649    33.641    12.004    11.222 -0.5914  0.8064  0.0000
              Bcc     0.9518   -68.869   -24.574   -22.972  0.0000  0.0000  1.0000
 
              Baa    -0.0551     3.986     1.422     1.329  0.8994  0.4371 -0.0001
     9 O(17)  Bbb    -0.0495     3.581     1.278     1.194 -0.4371  0.8994  0.0000
              Bcc     0.1046    -7.567    -2.700    -2.524  0.0001  0.0001  1.0000
 
              Baa    -0.0035    -1.873    -0.668    -0.625  0.0003 -0.0004  1.0000
    10 H(1)   Bbb    -0.0004    -0.209    -0.075    -0.070  0.7814  0.6240  0.0000
              Bcc     0.0039     2.082     0.743     0.694 -0.6240  0.7814  0.0005
 
              Baa    -0.1792   -24.053    -8.583    -8.023 -0.5664  0.8242  0.0001
    11 C(13)  Bbb    -0.1609   -21.585    -7.702    -7.200  0.8242  0.5664  0.0000
              Bcc     0.3401    45.638    16.285    15.223  0.0000 -0.0001  1.0000
 
              Baa    -0.0219   -11.706    -4.177    -3.905  0.9491  0.3148  0.0000
    12 H(1)   Bbb    -0.0053    -2.835    -1.011    -0.946  0.0000 -0.0001  1.0000
              Bcc     0.0273    14.540     5.188     4.850 -0.3148  0.9491  0.0001
 
              Baa    -0.0096    -5.139    -1.834    -1.714  0.0000  0.0000  1.0000
    13 H(1)   Bbb    -0.0034    -1.813    -0.647    -0.605  0.8024  0.5968  0.0000
              Bcc     0.0130     6.953     2.481     2.319 -0.5968  0.8024  0.0000
 
              Baa    -0.0044    -2.362    -0.843    -0.788  0.0001  0.0000  1.0000
    14 H(1)   Bbb    -0.0010    -0.539    -0.192    -0.180  0.6099  0.7925  0.0000
              Bcc     0.0054     2.900     1.035     0.967  0.7925 -0.6099 -0.0001
 
              Baa    -0.0034    -0.452    -0.161    -0.151  0.1940  0.9810  0.0046
    15 C(13)  Bbb    -0.0032    -0.432    -0.154    -0.144 -0.0007 -0.0045  1.0000
              Bcc     0.0066     0.884     0.315     0.295  0.9810 -0.1940 -0.0002
 
              Baa    -0.0033    -1.785    -0.637    -0.595  0.4576  0.7516 -0.4751
    16 H(1)   Bbb    -0.0027    -1.453    -0.518    -0.485  0.0030  0.5330  0.8461
              Bcc     0.0061     3.237     1.155     1.080  0.8891 -0.3886  0.2417
 
              Baa    -0.0033    -1.785    -0.637    -0.595  0.4585  0.7519  0.4737
    17 H(1)   Bbb    -0.0027    -1.451    -0.518    -0.484 -0.0040 -0.5313  0.8472
              Bcc     0.0061     3.236     1.155     1.079  0.8887 -0.3904 -0.2406
 
              Baa    -0.0036    -1.929    -0.688    -0.643 -0.2026  0.9793 -0.0006
    18 H(1)   Bbb    -0.0022    -1.191    -0.425    -0.397  0.0005  0.0007  1.0000
              Bcc     0.0058     3.120     1.113     1.041  0.9793  0.2026 -0.0006
 

 ---------------------------------------------------------------------------------

 No NMR shielding tensors so no spin-rotation constants.
 Leave Link  601 at Wed Dec 03 17:21:39 2025, MaxMem=   104857600 cpu:               1.0 elap:               0.3
 (Enter D:\Gaussian\G16W\l9999.exe)
 1|1|UNPC-PC-20250526LCFF|SP|UB3LYP|6-31G(d)|C8H8O2(1-,2)|ADMINISTRATOR
 |03-Dec-2025|0||#P B3LYP/6-31G* SCF=conver=7 out=wfn||Generated by Mul
 tiwfn (http://sobereva.com/multiwfn)||-1,2|C,0,1.899863,-0.019337,-0.0
 00094|C,0,0.96939,-1.055743,-0.000091|C,0,-0.402437,-0.791396,-0.00001
 7|C,0,-0.852429,0.555274,0.000019|C,0,0.097462,1.589862,0.000002|C,0,1
 .451428,1.31498,-0.00006|H,0,-0.252304,2.61778,0.000002|O,0,-3.161317,
 0.004136,0.000004|O,0,-1.259569,-1.82043,0.000017|H,0,1.287742,-2.0921
 84,-0.000149|C,0,-2.27305,0.851991,0.000029|H,0,-2.541694,1.925634,0.0
 0012|H,0,-2.168995,-1.44412,0.000102|H,0,2.173214,2.123274,-0.000099|C
 ,0,3.375258,-0.333924,0.000086|H,0,3.649291,-0.920409,0.882027|H,0,3.6
 48608,-0.925132,-0.878882|H,0,3.978316,0.575267,-0.002528||Version=EM6
 4W-G16RevA.03|State=2-A|HF=-460.1149732|S2=0.765077|S2-1=0.|S2A=0.7501
 48|RMSD=6.012e-008|Dipole=1.6323781,0.213998,0.0000708|Quadrupole=-11.
 3353833,4.3005283,7.0348549,-0.3796386,-0.0007787,0.0000685|PG=C01 [X(
 C8H8O2)]||@

 Writing a WFN file to "N+1.wfn"


 IT IS A PROFOUNDLY ERRONEOUS TRUISM ... THAT WE SHOULD CULTIVATE
 THE HABIT OF THINKING OF WHAT WE ARE DOING.
 THE PRECISE OPPOSITE IS THE CASE.
 CIVILIZATION ADVANCES BY EXTENDING THE NUMBER OF IMPORTANT OPERATIONS
 WHICH WE CAN PERFORM WITHOUT THINKING ABOUT THEM.

                                    -- ALFRED NORTH WHITEHEAD
 Job cpu time:       0 days  0 hours  0 minutes 33.0 seconds.
 Elapsed time:       0 days  0 hours  0 minutes 32.4 seconds.
 File lengths (MBytes):  RWF=     32 Int=      0 D2E=      0 Chk=      3 Scr=      1
 Normal termination of Gaussian 16 at Wed Dec 03 17:21:39 2025.
