 Generated by Multiwfn (http://sobereva.com/multiwfn)
GAUSSIAN             73 MOL ORBITALS    312 PRIMITIVES       18 NUCLEI
  C    1    (CENTRE  1)   3.59022074 -0.03654164 -0.00017777  CHARGE =  6.0
  C    2    (CENTRE  2)   1.83188161 -1.99506513 -0.00017210  CHARGE =  6.0
  C    3    (CENTRE  3)  -0.76049571 -1.49552170 -0.00003226  CHARGE =  6.0
  C    4    (CENTRE  4)  -1.61085735  1.04931579  0.00003577  CHARGE =  6.0
  C    5    (CENTRE  5)   0.18417649  3.00440376  0.00000365  CHARGE =  6.0
  C    6    (CENTRE  6)   2.74280141  2.48495206 -0.00011351  CHARGE =  6.0
  H    7    (CENTRE  7)  -0.47678545  4.94688725  0.00000365  CHARGE =  1.0
  O    8    (CENTRE  8)  -5.97402332  0.00781591  0.00000743  CHARGE =  8.0
  O    9    (CENTRE  9)  -2.38024045 -3.44011413  0.00003199  CHARGE =  8.0
  H   10    (CENTRE 10)   2.43347969 -3.95365477 -0.00028170  CHARGE =  1.0
  C   11    (CENTRE 11)  -4.29544197  1.61002966  0.00005467  CHARGE =  6.0
  H   12    (CENTRE 12)  -4.80310555  3.63892088  0.00022664  CHARGE =  1.0
  H   13    (CENTRE 13)  -4.09880652 -2.72899129  0.00019262  CHARGE =  1.0
  H   14    (CENTRE 14)   4.10677927  4.01240634 -0.00018721  CHARGE =  1.0
  C   15    (CENTRE 15)   6.37831322 -0.63102491  0.00016239  CHARGE =  6.0
  H   16    (CENTRE 16)   6.89616054 -1.73932094  1.66678933  CHARGE =  1.0
  H   17    (CENTRE 17)   6.89486985 -1.74824612 -1.66084641  CHARGE =  1.0
  H   18    (CENTRE 18)   7.51792768  1.08709707 -0.00477736  CHARGE =  1.0
CENTRE ASSIGNMENTS    1  1  1  1  1  1  1  1  1  1  1  1  1  1  1  1  1  1  1  1
CENTRE ASSIGNMENTS    1  1  1  1  1  1  1  1  2  2  2  2  2  2  2  2  2  2  2  2
CENTRE ASSIGNMENTS    2  2  2  2  2  2  2  2  2  2  2  2  2  2  2  2  3  3  3  3
CENTRE ASSIGNMENTS    3  3  3  3  3  3  3  3  3  3  3  3  3  3  3  3  3  3  3  3
CENTRE ASSIGNMENTS    3  3  3  3  4  4  4  4  4  4  4  4  4  4  4  4  4  4  4  4
CENTRE ASSIGNMENTS    4  4  4  4  4  4  4  4  4  4  4  4  5  5  5  5  5  5  5  5
CENTRE ASSIGNMENTS    5  5  5  5  5  5  5  5  5  5  5  5  5  5  5  5  5  5  5  5
CENTRE ASSIGNMENTS    6  6  6  6  6  6  6  6  6  6  6  6  6  6  6  6  6  6  6  6
CENTRE ASSIGNMENTS    6  6  6  6  6  6  6  6  7  7  7  7  8  8  8  8  8  8  8  8
CENTRE ASSIGNMENTS    8  8  8  8  8  8  8  8  8  8  8  8  8  8  8  8  8  8  8  8
CENTRE ASSIGNMENTS    9  9  9  9  9  9  9  9  9  9  9  9  9  9  9  9  9  9  9  9
CENTRE ASSIGNMENTS    9  9  9  9  9  9  9  9 10 10 10 10 11 11 11 11 11 11 11 11
CENTRE ASSIGNMENTS   11 11 11 11 11 11 11 11 11 11 11 11 11 11 11 11 11 11 11 11
CENTRE ASSIGNMENTS   12 12 12 12 13 13 13 13 14 14 14 14 15 15 15 15 15 15 15 15
CENTRE ASSIGNMENTS   15 15 15 15 15 15 15 15 15 15 15 15 15 15 15 15 15 15 15 15
CENTRE ASSIGNMENTS   16 16 16 16 17 17 17 17 18 18 18 18
TYPE ASSIGNMENTS      1  1  1  1  1  1  1  1  1  2  2  2  3  3  3  4  4  4  1  2
TYPE ASSIGNMENTS      3  4  5  6  7  8  9 10  1  1  1  1  1  1  1  1  1  2  2  2
TYPE ASSIGNMENTS      3  3  3  4  4  4  1  2  3  4  5  6  7  8  9 10  1  1  1  1
TYPE ASSIGNMENTS      1  1  1  1  1  2  2  2  3  3  3  4  4  4  1  2  3  4  5  6
TYPE ASSIGNMENTS      7  8  9 10  1  1  1  1  1  1  1  1  1  2  2  2  3  3  3  4
TYPE ASSIGNMENTS      4  4  1  2  3  4  5  6  7  8  9 10  1  1  1  1  1  1  1  1
TYPE ASSIGNMENTS      1  2  2  2  3  3  3  4  4  4  1  2  3  4  5  6  7  8  9 10
TYPE ASSIGNMENTS      1  1  1  1  1  1  1  1  1  2  2  2  3  3  3  4  4  4  1  2
TYPE ASSIGNMENTS      3  4  5  6  7  8  9 10  1  1  1  1  1  1  1  1  1  1  1  1
TYPE ASSIGNMENTS      1  2  2  2  3  3  3  4  4  4  1  2  3  4  5  6  7  8  9 10
TYPE ASSIGNMENTS      1  1  1  1  1  1  1  1  1  2  2  2  3  3  3  4  4  4  1  2
TYPE ASSIGNMENTS      3  4  5  6  7  8  9 10  1  1  1  1  1  1  1  1  1  1  1  1
TYPE ASSIGNMENTS      1  2  2  2  3  3  3  4  4  4  1  2  3  4  5  6  7  8  9 10
TYPE ASSIGNMENTS      1  1  1  1  1  1  1  1  1  1  1  1  1  1  1  1  1  1  1  1
TYPE ASSIGNMENTS      1  2  2  2  3  3  3  4  4  4  1  2  3  4  5  6  7  8  9 10
TYPE ASSIGNMENTS      1  1  1  1  1  1  1  1  1  1  1  1
EXPONENTS  0.3047525D+04 0.4573695D+03 0.1039487D+03 0.2921016D+02 0.9286663D+01
EXPONENTS  0.3163927D+01 0.7868272D+01 0.1881289D+01 0.5442493D+00 0.7868272D+01
EXPONENTS  0.1881289D+01 0.5442493D+00 0.7868272D+01 0.1881289D+01 0.5442493D+00
EXPONENTS  0.7868272D+01 0.1881289D+01 0.5442493D+00 0.1687145D+00 0.1687145D+00
EXPONENTS  0.1687145D+00 0.1687145D+00 0.8000000D+00 0.8000000D+00 0.8000000D+00
EXPONENTS  0.8000000D+00 0.8000000D+00 0.8000000D+00 0.3047525D+04 0.4573695D+03
EXPONENTS  0.1039487D+03 0.2921016D+02 0.9286663D+01 0.3163927D+01 0.7868272D+01
EXPONENTS  0.1881289D+01 0.5442493D+00 0.7868272D+01 0.1881289D+01 0.5442493D+00
EXPONENTS  0.7868272D+01 0.1881289D+01 0.5442493D+00 0.7868272D+01 0.1881289D+01
EXPONENTS  0.5442493D+00 0.1687145D+00 0.1687145D+00 0.1687145D+00 0.1687145D+00
EXPONENTS  0.8000000D+00 0.8000000D+00 0.8000000D+00 0.8000000D+00 0.8000000D+00
EXPONENTS  0.8000000D+00 0.3047525D+04 0.4573695D+03 0.1039487D+03 0.2921016D+02
EXPONENTS  0.9286663D+01 0.3163927D+01 0.7868272D+01 0.1881289D+01 0.5442493D+00
EXPONENTS  0.7868272D+01 0.1881289D+01 0.5442493D+00 0.7868272D+01 0.1881289D+01
EXPONENTS  0.5442493D+00 0.7868272D+01 0.1881289D+01 0.5442493D+00 0.1687145D+00
EXPONENTS  0.1687145D+00 0.1687145D+00 0.1687145D+00 0.8000000D+00 0.8000000D+00
EXPONENTS  0.8000000D+00 0.8000000D+00 0.8000000D+00 0.8000000D+00 0.3047525D+04
EXPONENTS  0.4573695D+03 0.1039487D+03 0.2921016D+02 0.9286663D+01 0.3163927D+01
EXPONENTS  0.7868272D+01 0.1881289D+01 0.5442493D+00 0.7868272D+01 0.1881289D+01
EXPONENTS  0.5442493D+00 0.7868272D+01 0.1881289D+01 0.5442493D+00 0.7868272D+01
EXPONENTS  0.1881289D+01 0.5442493D+00 0.1687145D+00 0.1687145D+00 0.1687145D+00
EXPONENTS  0.1687145D+00 0.8000000D+00 0.8000000D+00 0.8000000D+00 0.8000000D+00
EXPONENTS  0.8000000D+00 0.8000000D+00 0.3047525D+04 0.4573695D+03 0.1039487D+03
EXPONENTS  0.2921016D+02 0.9286663D+01 0.3163927D+01 0.7868272D+01 0.1881289D+01
EXPONENTS  0.5442493D+00 0.7868272D+01 0.1881289D+01 0.5442493D+00 0.7868272D+01
EXPONENTS  0.1881289D+01 0.5442493D+00 0.7868272D+01 0.1881289D+01 0.5442493D+00
EXPONENTS  0.1687145D+00 0.1687145D+00 0.1687145D+00 0.1687145D+00 0.8000000D+00
EXPONENTS  0.8000000D+00 0.8000000D+00 0.8000000D+00 0.8000000D+00 0.8000000D+00
EXPONENTS  0.3047525D+04 0.4573695D+03 0.1039487D+03 0.2921016D+02 0.9286663D+01
EXPONENTS  0.3163927D+01 0.7868272D+01 0.1881289D+01 0.5442493D+00 0.7868272D+01
EXPONENTS  0.1881289D+01 0.5442493D+00 0.7868272D+01 0.1881289D+01 0.5442493D+00
EXPONENTS  0.7868272D+01 0.1881289D+01 0.5442493D+00 0.1687145D+00 0.1687145D+00
EXPONENTS  0.1687145D+00 0.1687145D+00 0.8000000D+00 0.8000000D+00 0.8000000D+00
EXPONENTS  0.8000000D+00 0.8000000D+00 0.8000000D+00 0.1873114D+02 0.2825394D+01
EXPONENTS  0.6401217D+00 0.1612778D+00 0.5484672D+04 0.8252349D+03 0.1880470D+03
EXPONENTS  0.5296450D+02 0.1689757D+02 0.5799635D+01 0.1553962D+02 0.3599934D+01
EXPONENTS  0.1013762D+01 0.1553962D+02 0.3599934D+01 0.1013762D+01 0.1553962D+02
EXPONENTS  0.3599934D+01 0.1013762D+01 0.1553962D+02 0.3599934D+01 0.1013762D+01
EXPONENTS  0.2700058D+00 0.2700058D+00 0.2700058D+00 0.2700058D+00 0.8000000D+00
EXPONENTS  0.8000000D+00 0.8000000D+00 0.8000000D+00 0.8000000D+00 0.8000000D+00
EXPONENTS  0.5484672D+04 0.8252349D+03 0.1880470D+03 0.5296450D+02 0.1689757D+02
EXPONENTS  0.5799635D+01 0.1553962D+02 0.3599934D+01 0.1013762D+01 0.1553962D+02
EXPONENTS  0.3599934D+01 0.1013762D+01 0.1553962D+02 0.3599934D+01 0.1013762D+01
EXPONENTS  0.1553962D+02 0.3599934D+01 0.1013762D+01 0.2700058D+00 0.2700058D+00
EXPONENTS  0.2700058D+00 0.2700058D+00 0.8000000D+00 0.8000000D+00 0.8000000D+00
EXPONENTS  0.8000000D+00 0.8000000D+00 0.8000000D+00 0.1873114D+02 0.2825394D+01
EXPONENTS  0.6401217D+00 0.1612778D+00 0.3047525D+04 0.4573695D+03 0.1039487D+03
EXPONENTS  0.2921016D+02 0.9286663D+01 0.3163927D+01 0.7868272D+01 0.1881289D+01
EXPONENTS  0.5442493D+00 0.7868272D+01 0.1881289D+01 0.5442493D+00 0.7868272D+01
EXPONENTS  0.1881289D+01 0.5442493D+00 0.7868272D+01 0.1881289D+01 0.5442493D+00
EXPONENTS  0.1687145D+00 0.1687145D+00 0.1687145D+00 0.1687145D+00 0.8000000D+00
EXPONENTS  0.8000000D+00 0.8000000D+00 0.8000000D+00 0.8000000D+00 0.8000000D+00
EXPONENTS  0.1873114D+02 0.2825394D+01 0.6401217D+00 0.1612778D+00 0.1873114D+02
EXPONENTS  0.2825394D+01 0.6401217D+00 0.1612778D+00 0.1873114D+02 0.2825394D+01
EXPONENTS  0.6401217D+00 0.1612778D+00 0.3047525D+04 0.4573695D+03 0.1039487D+03
EXPONENTS  0.2921016D+02 0.9286663D+01 0.3163927D+01 0.7868272D+01 0.1881289D+01
EXPONENTS  0.5442493D+00 0.7868272D+01 0.1881289D+01 0.5442493D+00 0.7868272D+01
EXPONENTS  0.1881289D+01 0.5442493D+00 0.7868272D+01 0.1881289D+01 0.5442493D+00
EXPONENTS  0.1687145D+00 0.1687145D+00 0.1687145D+00 0.1687145D+00 0.8000000D+00
EXPONENTS  0.8000000D+00 0.8000000D+00 0.8000000D+00 0.8000000D+00 0.8000000D+00
EXPONENTS  0.1873114D+02 0.2825394D+01 0.6401217D+00 0.1612778D+00 0.1873114D+02
EXPONENTS  0.2825394D+01 0.6401217D+00 0.1612778D+00 0.1873114D+02 0.2825394D+01
EXPONENTS  0.6401217D+00 0.1612778D+00
MO    1     MO 0.0        OCC NO =    1.0000000  ORB. ENERGY =  -18.984169
  0.13323157D-05  0.24578623D-05  0.39677518D-05  0.51648339D-05  0.44071621D-05
  0.15216872D-05  0.62253752D-05  0.28692697D-05 -0.80457318D-05 -0.85258848D-04
 -0.65371077D-04 -0.32624749D-04 -0.46356129D-04 -0.35542940D-04 -0.17738418D-04
  0.28837878D-08  0.22111056D-08  0.11034967D-08  0.30658156D-03 -0.62575717D-04
 -0.39695674D-05  0.35656587D-08  0.17197163D-04  0.43902049D-04  0.23200326D-04
  0.18513409D-04  0.13531935D-07 -0.24826870D-08  0.66025056D-05  0.12180334D-04
  0.19662835D-04  0.25595169D-04  0.21840404D-04  0.75409667D-05 -0.66362666D-04
 -0.30586492D-04  0.85767717D-04  0.84244315D-05  0.64593197D-05  0.32236532D-05
  0.16352322D-04  0.12537923D-04  0.62573025D-05 -0.15852752D-09 -0.12154885D-09
 -0.60661395D-10 -0.30416035D-03  0.36723987D-04 -0.30706599D-03 -0.10297290D-07
 -0.93966991D-04 -0.64115132D-04  0.28592876D-04  0.17276213D-04  0.13644412D-07
 -0.57249760D-08 -0.35365579D-04 -0.65242587D-04 -0.10532176D-03 -0.13709764D-03
 -0.11698567D-03 -0.40392340D-04 -0.35552304D-04 -0.16386024D-04  0.45948123D-04
 -0.31590169D-03 -0.24221338D-03 -0.12088145D-03 -0.45819106D-03 -0.35131184D-03
 -0.17532923D-03  0.59330914D-08  0.45491181D-08  0.22703288D-08  0.18213460D-03
  0.41133632D-03  0.75710345D-03 -0.95882050D-08 -0.13817124D-03 -0.27341292D-04
 -0.15317845D-03 -0.14717267D-03 -0.26431810D-08  0.14464407D-07  0.99646705D-05
  0.18382871D-04  0.29675654D-04  0.38628884D-04  0.32962097D-04  0.11381020D-04
 -0.84707159D-04 -0.39041452D-04  0.10947631D-03  0.10876276D-03  0.83392383D-04
  0.41618644D-04  0.10689685D-04  0.81961728D-05  0.40904646D-05 -0.62360432D-08
 -0.47814024D-08 -0.23862549D-08 -0.53318905D-03 -0.49500557D-03  0.21888442D-03
  0.20556224D-07 -0.54722526D-04 -0.14186781D-03  0.35307716D-04  0.12198386D-04
  0.10528207D-07 -0.10984167D-07 -0.25914616D-05 -0.47807406D-05 -0.77175977D-05
 -0.10046019D-04 -0.85722862D-05 -0.29598044D-05  0.18386914D-04  0.84745118D-05
 -0.23763416D-04 -0.46041946D-04 -0.35302044D-04 -0.17618194D-04 -0.77363699D-04
 -0.59317578D-04 -0.29603629D-04  0.26025450D-08  0.19954664D-08  0.99587759D-09
  0.32070981D-03  0.60880083D-04 -0.17165835D-03 -0.55875108D-08  0.95022586D-05
  0.41530008D-04  0.20279981D-05  0.56418789D-04  0.12867141D-08  0.36370686D-08
  0.68139721D-05  0.12570448D-04  0.20292601D-04  0.26414937D-04  0.22539913D-04
  0.77824905D-05 -0.27562154D-04 -0.12703371D-04  0.35621579D-04  0.99806995D-06
  0.76525674D-06  0.38191674D-06 -0.29888141D-04 -0.22916331D-04 -0.11436855D-04
 -0.12169041D-09 -0.93304491D-10 -0.46565480D-10 -0.22577286D-03  0.73345412D-04
  0.75495441D-04 -0.29216321D-08 -0.92099668D-05  0.19224042D-06  0.31073812D-04
  0.43277824D-04  0.58539158D-08 -0.69203551D-09  0.66431478D-05  0.11268036D-04
  0.12828261D-04  0.56891632D-04  0.12502617D-05  0.23011490D-05  0.37236935D-05
  0.48948993D-05  0.41983267D-05  0.14354792D-05 -0.37054274D-04 -0.16533545D-04
  0.48823780D-04  0.51907844D-04  0.39992196D-04  0.17558728D-04  0.11133485D-03
  0.85777504D-04  0.37660944D-04 -0.23682653D-07 -0.18246207D-07 -0.80110678D-08
 -0.10682447D-03 -0.28682450D-04 -0.11482986D-03  0.80670339D-08 -0.22504585D-04
  0.39836973D-04  0.61785710D-04 -0.61512047D-04  0.71863794D-08 -0.10061262D-07
  0.82558036D+00  0.15195086D+01  0.24588517D+01  0.32322294D+01  0.27722644D+01
  0.94788428D+00 -0.15728492D-01 -0.70180223D-02  0.20724314D-01 -0.61889745D-03
 -0.47682712D-03 -0.20935279D-03  0.27549279D-02  0.21225234D-02  0.93190210D-03
  0.12345848D-06  0.95118100D-07  0.41761969D-07  0.41452436D-02  0.24699219D-03
  0.27189980D-03 -0.77189721D-08 -0.93245197D-02 -0.93893347D-02 -0.93734991D-02
  0.14846244D-03 -0.63806136D-08 -0.59577089D-08 -0.10356226D-04 -0.17566119D-04
 -0.19998406D-04 -0.13464620D-03  0.60665292D-05  0.11191562D-04  0.18066651D-04
  0.23517411D-04  0.20067450D-04  0.69288081D-05 -0.15920107D-04 -0.73375630D-05
  0.20575292D-04 -0.12552983D-03 -0.96248314D-04 -0.48034654D-04 -0.24719891D-04
 -0.18953644D-04 -0.94591969D-05 -0.46068326D-08 -0.35322270D-08 -0.17628288D-08
 -0.23651668D-03 -0.15495089D-03 -0.65491095D-04 -0.60631345D-08  0.15520567D-04
  0.55937370D-04  0.59299862D-05  0.27192245D-04  0.21900683D-08  0.10242324D-08
  0.12686896D-04  0.21519377D-04  0.24499051D-04  0.21225922D-04  0.83938070D-04
  0.14237485D-03  0.16208874D-03 -0.27719540D-03 -0.41496099D-05 -0.70385238D-05
 -0.80131106D-05 -0.28498458D-04  0.54937713D-05  0.10134935D-04  0.16360928D-04
  0.21297067D-04  0.18172826D-04  0.62746401D-05 -0.19507855D-04 -0.89911527D-05
  0.25212131D-04  0.57725425D-05  0.44260195D-05  0.22088939D-05 -0.39250234D-05
 -0.30094590D-05 -0.15019309D-05 -0.49063876D-08 -0.37619068D-08 -0.18774552D-08
 -0.46714478D-04  0.16034936D-04 -0.55106860D-06  0.20765332D-08 -0.31955519D-05
  0.19050103D-04  0.18978441D-04  0.10375487D-04 -0.36461631D-08 -0.15823052D-07
  0.24539981D-05  0.41624452D-05  0.47387968D-05  0.46839276D-05  0.24539809D-05
  0.41624160D-05  0.47387635D-05  0.46952681D-05  0.25333461D-05  0.42970345D-05
  0.48920219D-05  0.15446146D-05
MO    2     MO 0.0        OCC NO =    1.0000000  ORB. ENERGY =  -18.921030
 -0.27448421D-05 -0.50636977D-05 -0.81743782D-05 -0.10640612D-04 -0.90796532D-05
 -0.31349860D-05  0.10612011D-04  0.48910664D-05 -0.13715061D-04  0.43423054D-04
  0.33294044D-04  0.16616061D-04  0.15969427D-04  0.12244343D-04  0.61107855D-05
 -0.92218026D-08 -0.70706933D-08 -0.35287715D-08 -0.13017464D-04 -0.50806506D-04
  0.56393260D-04  0.16034658D-07 -0.39300851D-05  0.58891605D-05 -0.13247704D-04
 -0.16077158D-04  0.11909253D-07  0.12785795D-09  0.13528069D-05  0.24956646D-05
  0.40287765D-05  0.52442700D-05  0.44749451D-05  0.15450910D-05 -0.77761462D-05
 -0.35840187D-05  0.10049963D-04 -0.15872275D-04 -0.12169853D-04 -0.60736098D-05
 -0.23004578D-04 -0.17638451D-04 -0.88028233D-05  0.91151233D-08  0.69888984D-08
  0.34879501D-08 -0.92860203D-04  0.91568526D-04  0.72870997D-04 -0.96521377D-08
 -0.25501287D-04  0.74114942D-05  0.58387280D-05 -0.28039557D-04  0.42681549D-08
 -0.76823407D-08  0.90899255D-05  0.16769138D-04  0.27070588D-04  0.35237862D-04
  0.30068531D-04  0.10381941D-04 -0.20314456D-04 -0.93629142D-05  0.26254589D-04
 -0.27653991D-04 -0.21203326D-04 -0.10581946D-04 -0.62329853D-04 -0.47790578D-04
 -0.23850848D-04 -0.65345912D-08 -0.50103101D-08 -0.25004959D-08 -0.20481293D-03
  0.97946481D-04 -0.29251407D-03 -0.50596237D-08  0.83995177D-04  0.11245068D-04
  0.27606710D-04  0.13115080D-03  0.77094376D-08  0.34635807D-09 -0.16270129D-04
 -0.30015210D-04 -0.48453856D-04 -0.63072523D-04 -0.53819898D-04 -0.18582718D-04
  0.45982636D-04  0.21193355D-04 -0.59428379D-04  0.15374672D-04  0.11788323D-04
  0.58831995D-05  0.10692962D-03  0.81986848D-04  0.40917183D-04  0.12307532D-08
  0.94366347D-09  0.47095421D-09  0.33821705D-03 -0.96884750D-04 -0.37101213D-03
 -0.91921590D-08 -0.56676468D-04  0.13745945D-04 -0.70343557D-04 -0.20245677D-03
 -0.65097344D-10  0.57597779D-08  0.26218838D-06  0.48368636D-06  0.78081975D-06
  0.10163953D-05  0.86729196D-06  0.29945507D-06  0.10743391D-04  0.49516191D-05
 -0.13884857D-04 -0.12554952D-03 -0.96263406D-04 -0.48042186D-04 -0.25904686D-04
 -0.19862070D-04 -0.99125652D-05  0.36612061D-08  0.28071806D-08  0.14009799D-08
  0.31001974D-03  0.81626593D-04 -0.87104568D-04 -0.58145974D-09  0.58492809D-04
  0.16590427D-04  0.12843969D-04 -0.77632335D-05 -0.10725123D-07 -0.18337888D-08
  0.75221879D-05  0.13876968D-04  0.22401729D-04  0.29160395D-04  0.24882618D-04
  0.85913700D-05 -0.34495787D-04 -0.15899077D-04  0.44582671D-04  0.31657296D-04
  0.24272806D-04  0.12113832D-04 -0.23326467D-06 -0.17885256D-06 -0.89259961D-07
 -0.18492007D-08 -0.14178498D-08 -0.70760642D-09 -0.24124852D-03  0.87331679D-04
  0.35279685D-04 -0.76951819D-08 -0.35324819D-04  0.29124267D-05  0.31134776D-04
  0.14097632D-04  0.80601462D-08  0.63603898D-08  0.13970325D-04  0.23696315D-04
  0.26977417D-04  0.11119648D-04  0.82557367D+00  0.15194963D+01  0.24588318D+01
  0.32322032D+01  0.27722419D+01  0.94787658D+00 -0.15835653D-01 -0.70658374D-02
  0.20865513D-01  0.23867480D-02  0.18388607D-02  0.80735888D-03  0.21495850D-02
  0.16561394D-02  0.72713440D-03  0.69035383D-07  0.53188041D-07  0.23352415D-07
  0.41139556D-02  0.43071331D-03  0.22387197D-03  0.14045805D-07 -0.91419014D-02
 -0.92073099D-02 -0.93886269D-02  0.41310914D-03  0.27045010D-07 -0.82473923D-08
 -0.12997734D-05 -0.23922770D-05 -0.38711557D-05 -0.50887426D-05 -0.43645849D-05
 -0.14923257D-05  0.26452216D-04  0.11802927D-04 -0.34854203D-04  0.18766399D-03
  0.14458499D-03  0.63480597D-04  0.74886647D-04  0.57696124D-04  0.25331706D-04
 -0.44966605D-07 -0.34644345D-07 -0.15210733D-07  0.60480166D-04 -0.22428708D-03
 -0.50052937D-05  0.23024802D-07  0.14637465D-04 -0.78287121D-04 -0.27275608D-04
 -0.15766079D-03 -0.32090938D-07  0.25088249D-07  0.91563354D-05  0.15530878D-04
  0.17681356D-04  0.23197391D-04  0.28998146D-05  0.53495917D-05  0.86358997D-05
  0.11241375D-04  0.95922860D-05  0.33119858D-05 -0.21750871D-03 -0.10024956D-03
  0.28111024D-03 -0.95095889D-04 -0.72913496D-04 -0.36388945D-04 -0.76943809D-04
 -0.58995632D-04 -0.29442955D-04 -0.15006257D-07 -0.11505846D-07 -0.57422237D-08
 -0.70607650D-03  0.29673652D-03  0.50256061D-03  0.19686259D-07 -0.43309581D-03
 -0.50082052D-03 -0.59089755D-04 -0.72652293D-03 -0.19332715D-07 -0.13269499D-07
 -0.19402003D-04 -0.32909470D-04 -0.37466268D-04 -0.11847715D-03 -0.46515181D-04
 -0.78898552D-04 -0.89823212D-04 -0.20737807D-03  0.72694389D-06  0.12330344D-05
  0.14037661D-05 -0.18733487D-04  0.10919759D-05  0.20144823D-05  0.32519990D-05
  0.42331364D-05  0.36121430D-05  0.12471862D-05 -0.10337840D-05 -0.47647009D-06
  0.13360719D-05 -0.28267155D-04 -0.21673461D-04 -0.10816576D-04 -0.82280812D-06
 -0.63087708D-06 -0.31485188D-06  0.52978806D-07  0.40620788D-07  0.20272620D-07
  0.38874123D-04 -0.91716054D-05 -0.13807406D-05 -0.48522396D-07  0.12275559D-04
 -0.33165495D-05  0.13352051D-04  0.94439352D-05  0.34765879D-08  0.51212348D-07
 -0.66350532D-06 -0.11254306D-05 -0.12812630D-05 -0.15390798D-05 -0.66829700D-06
 -0.11335582D-05 -0.12905159D-05 -0.16150416D-05  0.44054067D-06  0.74724035D-06
  0.85070673D-06 -0.58562662D-05
MO    3     MO 0.0        OCC NO =    1.0000000  ORB. ENERGY =  -10.063689
  0.32916465D-04  0.60724451D-04  0.98028093D-04  0.12760345D-03  0.10888426D-03
  0.37595117D-04 -0.11768686D-03 -0.54241765D-04  0.15209957D-03  0.10944367D-03
  0.83914466D-04  0.41879200D-04  0.49683136D-04  0.38093877D-04  0.19011515D-04
 -0.60572019D-08 -0.46442782D-08 -0.23178203D-08 -0.16396706D-02  0.68513613D-03
  0.11661960D-03 -0.37387765D-07  0.16037451D-04  0.20585922D-04  0.63713225D-04
 -0.33457486D-05 -0.58762515D-07  0.22217464D-07  0.21520762D-02  0.39701603D-02
  0.64090698D-02  0.83427045D-02  0.71188449D-02  0.24579661D-02  0.29341973D-03
  0.13523688D-03 -0.37921834D-03  0.28064967D-03  0.21518437D-03  0.10739208D-03
 -0.18314829D-03 -0.14042649D-03 -0.70082661D-04  0.11801058D-07  0.90483028D-08
  0.45157372D-08  0.27292580D-02 -0.43118358D-03  0.12381107D-02  0.50330361D-07
 -0.45281390D-03 -0.23458379D-03 -0.38619473D-03 -0.17875713D-03  0.61725499D-08
  0.35142725D-07  0.53257314D+00  0.98249345D+00  0.15860491D+01  0.20645646D+01
  0.17616967D+01  0.60827155D+00 -0.19936043D-01 -0.91885039D-02  0.25765524D-01
 -0.84637225D-03 -0.64894456D-03 -0.32386882D-03 -0.91538186D-03 -0.70185675D-03
 -0.35027571D-03 -0.14582375D-07 -0.11180840D-07 -0.55800229D-08 -0.40607537D-02
 -0.13379765D-02 -0.17104597D-02  0.49874071D-07 -0.97656100D-02 -0.96484150D-02
 -0.10350989D-01  0.87927703D-03 -0.57543583D-07 -0.30106264D-07  0.15926624D-02
  0.29381512D-02  0.47430870D-02  0.61740900D-02  0.52683622D-02  0.18190389D-02
  0.22299716D-03  0.10277919D-03 -0.28820357D-03 -0.42209318D-03 -0.32363428D-03
 -0.16151619D-03  0.36242117D-03  0.27788157D-03  0.13868238D-03  0.60523417D-08
  0.46405517D-08  0.23159606D-08  0.22588960D-02  0.16416096D-02 -0.65253334D-03
 -0.54640999D-07 -0.28471720D-03 -0.45975465D-03 -0.30155552D-03 -0.62205894D-04
 -0.16417205D-07  0.20374409D-07  0.45565520D-04  0.84059487D-04  0.13569807D-03
  0.17663857D-03  0.15072602D-03  0.52042071D-04 -0.94531793D-04 -0.43569617D-04
  0.12217375D-03  0.10989599D-03  0.84261277D-04  0.42052283D-04  0.16911727D-03
  0.12966839D-03  0.64713617D-04  0.36366466D-08  0.27883499D-08  0.13915820D-08
 -0.15937400D-02 -0.31770621D-03  0.73767346D-03  0.13277721D-07  0.59482050D-04
 -0.53618252D-07  0.51136441D-04  0.17413806D-04 -0.59270052D-08 -0.80564646D-08
 -0.70598804D-04 -0.13024101D-03 -0.21024937D-03 -0.27368221D-03 -0.23353352D-03
 -0.80633514D-04  0.14180709D-03  0.65358760D-04 -0.18327278D-03  0.17863335D-04
  0.13696472D-04  0.68354995D-05  0.62329523D-04  0.47790325D-04  0.23850721D-04
 -0.35941435D-07 -0.27557613D-07 -0.13753180D-07  0.12058115D-02 -0.50713087D-03
 -0.38853694D-03  0.36990733D-07  0.80805364D-05 -0.18564564D-04 -0.13406048D-03
 -0.53848022D-04 -0.23814653D-07 -0.88917353D-08 -0.27274083D-04 -0.46262006D-04
 -0.52667659D-04 -0.22484348D-03 -0.19770010D-04 -0.36387372D-04 -0.58881637D-04
 -0.77401559D-04 -0.66386868D-04 -0.22698798D-04  0.48880452D-04  0.21810362D-04
 -0.64406292D-04 -0.74103374D-04 -0.57092655D-04 -0.25066751D-04 -0.47174466D-04
 -0.36345383D-04 -0.15957581D-04  0.11376071D-08  0.87646492D-09  0.38481531D-09
  0.66504026D-04 -0.49312616D-04  0.11092878D-04 -0.26591190D-09 -0.10621077D-03
 -0.66692651D-04 -0.12103062D-03 -0.74267111D-04  0.69163554D-09 -0.32484277D-08
  0.14840865D-03  0.27315114D-03  0.44201011D-03  0.58103466D-03  0.49835005D-03
  0.17039435D-03 -0.81716960D-03 -0.36461948D-03  0.10767262D-02  0.34076364D-04
  0.26254001D-04  0.11526921D-04 -0.10179835D-03 -0.78430139D-04 -0.34435055D-04
 -0.59077915D-08 -0.45516349D-08 -0.19984129D-08 -0.21135790D-02 -0.62224064D-03
 -0.69690103D-03  0.26289926D-07  0.35803545D-03  0.18375815D-03  0.11125428D-02
 -0.12705449D-02  0.73270164D-07  0.45944402D-07  0.48641078D-04  0.82504475D-04
  0.93928428D-04  0.37047764D-03 -0.52825589D-04 -0.97452897D-04 -0.15731919D-03
 -0.20478285D-03 -0.17474157D-03 -0.60334066D-04  0.87688093D-04  0.40415362D-04
 -0.11332889D-03  0.16098865D-03  0.12343588D-03  0.61603156D-04 -0.10565686D-04
 -0.81010981D-05 -0.40430157D-05  0.48260686D-08  0.37003233D-08  0.18467206D-08
  0.91405107D-03  0.35346713D-03 -0.64770675D-04  0.39355975D-08  0.16341630D-03
  0.63831751D-04 -0.69868013D-04  0.15284810D-04  0.18055523D-07  0.98957506D-08
 -0.19909398D-04 -0.33770107D-04 -0.38446074D-04  0.35666489D-04  0.49995296D-04
  0.84801485D-04  0.96543494D-04 -0.90615744D-04  0.28401626D-04  0.48174534D-04
  0.54845004D-04  0.17954310D-03 -0.45440081D-04 -0.83828076D-04 -0.13532451D-03
 -0.17615230D-03 -0.15031108D-03 -0.51898802D-04  0.59383870D-04  0.27369971D-04
 -0.76748256D-04  0.38995263D-04  0.29899095D-04  0.14921744D-04  0.41763209D-05
  0.32021379D-05  0.15980913D-05 -0.69042629D-07 -0.52937509D-07 -0.26419527D-07
 -0.42023773D-04 -0.17066797D-04 -0.71027191D-04  0.95019349D-07  0.22298441D-04
 -0.10018090D-03 -0.43384808D-04  0.54487920D-04  0.70637391D-07  0.32112398D-06
 -0.97897248D-05 -0.16605226D-04 -0.18904463D-04 -0.19042541D-04 -0.98118371D-05
 -0.16642733D-04 -0.18947163D-04 -0.19037489D-04  0.15869001D-05  0.26916830D-05
  0.30643860D-05  0.31056080D-04
MO    4     MO 0.0        OCC NO =    1.0000000  ORB. ENERGY =  -10.042602
  0.20688822D-02  0.38166836D-02  0.61613108D-02  0.80201960D-02  0.68436478D-02
  0.23629471D-02  0.19440827D-04  0.89602594D-05 -0.25125503D-04 -0.30380477D-03
 -0.23293823D-03 -0.11625250D-03  0.12966862D-04  0.99421676D-05  0.49618384D-05
  0.19748060D-06  0.15141560D-06  0.75566997D-07  0.86629698D-03  0.44671791D-03
  0.58375508D-04 -0.80583674D-07 -0.42875810D-03 -0.20473785D-03 -0.19666509D-03
  0.15120029D-04  0.13308749D-06 -0.28769874D-08  0.30774493D-05  0.56772930D-05
  0.91649112D-05  0.11929991D-04  0.10179883D-04  0.35148690D-05  0.13355199D-04
  0.61553991D-05 -0.17260382D-04 -0.12523285D-03 -0.96020608D-04 -0.47921013D-04
  0.39597601D-04  0.30360929D-04  0.15152232D-04 -0.21082868D-06 -0.16165006D-06
 -0.80674708D-07 -0.24853858D-03  0.28245141D-03  0.56234228D-05  0.12978178D-06
 -0.29545269D-04  0.13119444D-03 -0.37492063D-04  0.10160801D-03  0.16347681D-06
  0.48716781D-07  0.71908995D-05  0.13265805D-04  0.21415123D-04  0.27876127D-04
  0.23786750D-04  0.82129931D-05  0.74103276D-04  0.34154132D-04 -0.95771752D-04
 -0.28465717D-04 -0.21825707D-04 -0.10892557D-04  0.33684374D-04  0.25827042D-04
  0.12889504D-04  0.14219506D-06  0.10902615D-06  0.54411690D-07  0.33495304D-03
  0.31652568D-03 -0.25809230D-04 -0.12977444D-06  0.22423524D-04 -0.66211761D-04
 -0.87007989D-04 -0.19952903D-04 -0.52204810D-07  0.73072959D-08 -0.90563935D-06
 -0.16707278D-05 -0.26970726D-05 -0.35107872D-05 -0.29957611D-05 -0.10343643D-05
 -0.62869850D-06 -0.28976656D-06  0.81253569D-06 -0.82812858D-05 -0.63495647D-05
 -0.31688778D-05  0.22137863D-04  0.16973909D-04  0.84711702D-05 -0.56595751D-07
 -0.43394032D-07 -0.21656663D-07 -0.12597202D-03 -0.14077836D-03 -0.12200989D-03
  0.81491979D-07 -0.31958668D-04  0.28727170D-04 -0.19101184D-04 -0.66034244D-05
  0.36426319D-07 -0.18475113D-07 -0.20893985D-04 -0.38545322D-04 -0.62224101D-04
 -0.80997291D-04 -0.69115136D-04 -0.23863795D-04  0.68103679D-04  0.31388923D-04
 -0.88017817D-04 -0.14053675D-04 -0.10775466D-04 -0.53777129D-05  0.14558720D-04
  0.11162703D-04  0.55709711D-05  0.11721256D-06  0.89871158D-07  0.44852007D-07
  0.35681920D-03  0.34035626D-04 -0.16217563D-03 -0.97903691D-07  0.42137747D-04
 -0.28419065D-05 -0.71773222D-04 -0.29779089D-04 -0.73353005D-07  0.90833573D-07
 -0.19454332D-04 -0.35889444D-04 -0.57936691D-04 -0.75416357D-04 -0.64352914D-04
 -0.22219515D-04  0.14184813D-04  0.65377676D-05 -0.18332583D-04 -0.12829952D-03
 -0.98371937D-04 -0.49094491D-04  0.13095326D-04  0.10040665D-04  0.50109957D-05
 -0.23577421D-06 -0.18077671D-06 -0.90220247D-07 -0.22297284D-03  0.68068591D-04
  0.71982858D-04  0.13872531D-06 -0.66576040D-04  0.60532940D-04 -0.58892367D-04
  0.94927561D-04  0.12719100D-06 -0.10433775D-06  0.30184628D-05  0.51198842D-05
  0.58288072D-05  0.55634760D-04 -0.77610101D-05 -0.14284402D-04 -0.23114858D-04
 -0.30385128D-04 -0.26061148D-04 -0.89107490D-05  0.25861235D-04  0.11539233D-04
 -0.34075509D-04 -0.12353778D-04 -0.95179202D-05 -0.41788796D-05 -0.13328032D-04
 -0.10268530D-04 -0.45084379D-05 -0.10237816D-07 -0.78876855D-08 -0.34631188D-08
  0.67686590D-04  0.12998685D-04  0.17331514D-04  0.63326745D-08 -0.25511196D-04
 -0.23776996D-04 -0.34159158D-04  0.10349785D-04  0.16442679D-08  0.69965641D-08
 -0.20592231D-04 -0.37900698D-04 -0.61330484D-04 -0.80620638D-04 -0.69147852D-04
 -0.23642825D-04  0.68758923D-04  0.30680097D-04 -0.90598739D-04 -0.35665355D-04
 -0.27478233D-04 -0.12064424D-04 -0.44079012D-04 -0.33960502D-04 -0.14910490D-04
 -0.91074788D-07 -0.70168214D-07 -0.30807625D-07  0.16989200D-03  0.59385261D-06
  0.67213325D-04  0.53183740D-07 -0.93427960D-04 -0.32260662D-04 -0.95474471D-04
 -0.64964050D-05  0.37746231D-07  0.74142366D-07 -0.16773941D-04 -0.28451779D-04
 -0.32391345D-04  0.50857305D-05 -0.17539104D-03 -0.32356223D-03 -0.52232976D-03
 -0.67991815D-03 -0.58017539D-03 -0.20032062D-03  0.32412843D-04  0.14939050D-04
 -0.41890655D-04 -0.19152887D-04 -0.14685219D-04 -0.73289534D-05  0.33483601D-04
  0.25673102D-04  0.12812677D-04 -0.19630512D-07 -0.15051431D-07 -0.75117192D-08
 -0.29236319D-04  0.21366265D-04  0.26231802D-04 -0.13958458D-07 -0.47835212D-05
 -0.20573479D-04 -0.37306723D-04  0.46890728D-05 -0.43303704D-07  0.17182087D-07
 -0.25284747D-05 -0.42887717D-05 -0.48826150D-05 -0.27868305D-05 -0.50785966D-05
 -0.86142610D-05 -0.98070317D-05  0.14954406D-04 -0.85919237D-05 -0.14573529D-04
 -0.16591447D-04 -0.52722380D-04  0.53255533D+00  0.98246060D+00  0.15859960D+01
  0.20644956D+01  0.17616378D+01  0.60825121D+00 -0.20023037D-01 -0.92285994D-02
  0.25877956D-01  0.21452237D-03  0.16448215D-03  0.82088118D-04 -0.11373589D-03
 -0.87205470D-04 -0.43521641D-04  0.34337578D-06  0.26327877D-06  0.13139456D-06
 -0.33883914D-02  0.19191125D-03 -0.31223493D-04 -0.12273888D-06 -0.10270072D-01
 -0.10114223D-01 -0.10097730D-01  0.14138485D-03 -0.28230362D-06  0.33655666D-07
 -0.15951433D-05 -0.27056650D-05 -0.30803040D-05  0.50738079D-03 -0.15867620D-05
 -0.26914487D-05 -0.30641193D-05  0.50716607D-03 -0.10871316D-04 -0.18439809D-04
 -0.20993071D-04  0.49598721D-03
MO    5     MO 0.0        OCC NO =    1.0000000  ORB. ENERGY =  -10.040494
  0.26448318D-04  0.48791982D-04  0.78765387D-04  0.10252913D-03  0.87488293D-04
  0.30207605D-04 -0.42442483D-04 -0.19561702D-04  0.54853053D-04 -0.25358639D-04
 -0.19443396D-04 -0.97036171D-05 -0.12582842D-04 -0.96477249D-05 -0.48148909D-05