 Entering Link 1 = D:\Gaussian\G16W\l1.exe PID=     42692.
  
 Copyright (c) 1988,1990,1992,1993,1995,1998,2003,2009,2016,
            Gaussian, Inc.  All Rights Reserved.
  
 This is part of the Gaussian(R) 16 program.  It is based on
 the Gaussian(R) 09 system (copyright 2009, Gaussian, Inc.),
 the Gaussian(R) 03 system (copyright 2003, Gaussian, Inc.),
 the Gaussian(R) 98 system (copyright 1998, Gaussian, Inc.),
 the Gaussian(R) 94 system (copyright 1995, Gaussian, Inc.),
 the Gaussian 92(TM) system (copyright 1992, Gaussian, Inc.),
 the Gaussian 90(TM) system (copyright 1990, Gaussian, Inc.),
 the Gaussian 88(TM) system (copyright 1988, Gaussian, Inc.),
 the Gaussian 86(TM) system (copyright 1986, Carnegie Mellon
 University), and the Gaussian 82(TM) system (copyright 1983,
 Carnegie Mellon University). Gaussian is a federally registered
 trademark of Gaussian, Inc.
  
 This software contains proprietary and confidential information,
 including trade secrets, belonging to Gaussian, Inc.
  
 This software is provided under written license and may be
 used, copied, transmitted, or stored only in accord with that
 written license.
  
 The following legend is applicable only to US Government
 contracts under FAR:
  
                    RESTRICTED RIGHTS LEGEND
  
 Use, reproduction and disclosure by the US Government is
 subject to restrictions as set forth in subparagraphs (a)
 and (c) of the Commercial Computer Software - Restricted
 Rights clause in FAR 52.227-19.
  
 Gaussian, Inc.
 340 Quinnipiac St., Bldg. 40, Wallingford CT 06492
  
  
 ---------------------------------------------------------------
 Warning -- This program may not be used in any manner that
 competes with the business of Gaussian, Inc. or will provide
 assistance to any competitor of Gaussian, Inc.  The licensee
 of this program is prohibited from giving any competitor of
 Gaussian, Inc. access to this program.  By using this program,
 the user acknowledges that Gaussian, Inc. is engaged in the
 business of creating and licensing software in the field of
 computational chemistry and represents and warrants to the
 licensee that it is not a competitor of Gaussian, Inc. and that
 it will not use this program in any manner prohibited above.
 ---------------------------------------------------------------
  

 Cite this work as:
 Gaussian 16, Revision A.03,
 M. J. Frisch, G. W. Trucks, H. B. Schlegel, G. E. Scuseria, 
 M. A. Robb, J. R. Cheeseman, G. Scalmani, V. Barone, 
 G. A. Petersson, H. Nakatsuji, X. Li, M. Caricato, A. V. Marenich, 
 J. Bloino, B. G. Janesko, R. Gomperts, B. Mennucci, H. P. Hratchian, 
 J. V. Ortiz, A. F. Izmaylov, J. L. Sonnenberg, D. Williams-Young, 
 F. Ding, F. Lipparini, F. Egidi, J. Goings, B. Peng, A. Petrone, 
 T. Henderson, D. Ranasinghe, V. G. Zakrzewski, J. Gao, N. Rega, 
 G. Zheng, W. Liang, M. Hada, M. Ehara, K. Toyota, R. Fukuda, 
 J. Hasegawa, M. Ishida, T. Nakajima, Y. Honda, O. Kitao, H. Nakai, 
 T. Vreven, K. Throssell, J. A. Montgomery, Jr., J. E. Peralta, 
 F. Ogliaro, M. J. Bearpark, J. J. Heyd, E. N. Brothers, K. N. Kudin, 
 V. N. Staroverov, T. A. Keith, R. Kobayashi, J. Normand, 
 K. Raghavachari, A. P. Rendell, J. C. Burant, S. S. Iyengar, 
 J. Tomasi, M. Cossi, J. M. Millam, M. Klene, C. Adamo, R. Cammi, 
 J. W. Ochterski, R. L. Martin, K. Morokuma, O. Farkas, 
 J. B. Foresman, and D. J. Fox, Gaussian, Inc., Wallingford CT, 2016.
 
 ******************************************
 Gaussian 16:  EM64W-G16RevA.03 17-Dec-2016
                03-Dec-2025 
 ******************************************
 %nprocs=   4
 Will use up to    4 processors via shared memory.
 ------------------------------------
 #P B3LYP/6-31G* SCF=conver=7 out=wfn
 ------------------------------------
 1/38=1,172=1/1;
 2/12=2,17=6,18=5,40=1/2;
 3/5=1,6=6,7=1,11=2,25=1,30=1,74=-5/1,2,3;
 4//1;
 5/5=2,6=7,38=5/2;
 6/7=2,8=2,9=2,10=2,28=1/1;
 99/5=1,6=100,9=1/99;
 Leave Link    1 at Wed Dec 03 17:21:52 2025, MaxMem=           0 cpu:               0.0 elap:               0.1
 (Enter D:\Gaussian\G16W\l101.exe)
 ----------------------------------------------------
 Generated by Multiwfn (http://sobereva.com/multiwfn)
 ----------------------------------------------------
 Symbolic Z-matrix:
 Charge =  1 Multiplicity = 2
 C                     1.89986  -0.01934  -0.00009 
 C                     0.96939  -1.05574  -0.00009 
 C                    -0.40244  -0.7914   -0.00002 
 C                    -0.85243   0.55527   0.00002 
 C                     0.09746   1.58986   0. 
 C                     1.45143   1.31498  -0.00006 
 H                    -0.2523    2.61778   0. 
 O                    -3.16132   0.00414   0. 
 O                    -1.25957  -1.82043   0.00002 
 H                     1.28774  -2.09218  -0.00015 
 C                    -2.27305   0.85199   0.00003 
 H                    -2.54169   1.92563   0.00012 
 H                    -2.169    -1.44412   0.0001 
 H                     2.17321   2.12327  -0.0001 
 C                     3.37526  -0.33392   0.00009 
 H                     3.64929  -0.92041   0.88203 
 H                     3.64861  -0.92513  -0.87888 
 H                     3.97832   0.57527  -0.00253 
 
 ITRead=  0  0  0  0  0  0  0  0  0  0  0  0  0  0  0  0  0  0
 MicOpt= -1 -1 -1 -1 -1 -1 -1 -1 -1 -1 -1 -1 -1 -1 -1 -1 -1 -1
 NAtoms=     18 NQM=       18 NQMF=       0 NMMI=      0 NMMIF=      0
                NMic=       0 NMicF=      0.
                    Isotopes and Nuclear Properties:
 (Nuclear quadrupole moments (NQMom) in fm**2, nuclear magnetic moments (NMagM)
  in nuclear magnetons)

  Atom         1           2           3           4           5           6           7           8           9          10
 IAtWgt=          12          12          12          12          12          12           1          16          16           1
 AtmWgt=  12.0000000  12.0000000  12.0000000  12.0000000  12.0000000  12.0000000   1.0078250  15.9949146  15.9949146   1.0078250
 NucSpn=           0           0           0           0           0           0           1           0           0           1
 AtZEff=   0.0000000   0.0000000   0.0000000   0.0000000   0.0000000   0.0000000   0.0000000   0.0000000   0.0000000   0.0000000
 NQMom=    0.0000000   0.0000000   0.0000000   0.0000000   0.0000000   0.0000000   0.0000000   0.0000000   0.0000000   0.0000000
 NMagM=    0.0000000   0.0000000   0.0000000   0.0000000   0.0000000   0.0000000   2.7928460   0.0000000   0.0000000   2.7928460
 AtZNuc=   6.0000000   6.0000000   6.0000000   6.0000000   6.0000000   6.0000000   1.0000000   8.0000000   8.0000000   1.0000000

  Atom        11          12          13          14          15          16          17          18
 IAtWgt=          12           1           1           1          12           1           1           1
 AtmWgt=  12.0000000   1.0078250   1.0078250   1.0078250  12.0000000   1.0078250   1.0078250   1.0078250
 NucSpn=           0           1           1           1           0           1           1           1
 AtZEff=   0.0000000   0.0000000   0.0000000   0.0000000   0.0000000   0.0000000   0.0000000   0.0000000
 NQMom=    0.0000000   0.0000000   0.0000000   0.0000000   0.0000000   0.0000000   0.0000000   0.0000000
 NMagM=    0.0000000   2.7928460   2.7928460   2.7928460   0.0000000   2.7928460   2.7928460   2.7928460
 AtZNuc=   6.0000000   1.0000000   1.0000000   1.0000000   6.0000000   1.0000000   1.0000000   1.0000000
 Leave Link  101 at Wed Dec 03 17:21:52 2025, MaxMem=   104857600 cpu:               0.0 elap:               0.1
 (Enter D:\Gaussian\G16W\l202.exe)
                          Input orientation:                          
 ---------------------------------------------------------------------
 Center     Atomic      Atomic             Coordinates (Angstroms)
 Number     Number       Type             X           Y           Z
 ---------------------------------------------------------------------
      1          6           0        1.899863   -0.019337   -0.000094
      2          6           0        0.969390   -1.055743   -0.000091
      3          6           0       -0.402437   -0.791396   -0.000017
      4          6           0       -0.852429    0.555274    0.000019
      5          6           0        0.097462    1.589862    0.000002
      6          6           0        1.451428    1.314980   -0.000060
      7          1           0       -0.252304    2.617780    0.000002
      8          8           0       -3.161317    0.004136    0.000004
      9          8           0       -1.259569   -1.820430    0.000017
     10          1           0        1.287742   -2.092184   -0.000149
     11          6           0       -2.273050    0.851991    0.000029
     12          1           0       -2.541694    1.925634    0.000120
     13          1           0       -2.168995   -1.444120    0.000102
     14          1           0        2.173214    2.123274   -0.000099
     15          6           0        3.375258   -0.333924    0.000086
     16          1           0        3.649291   -0.920409    0.882027
     17          1           0        3.648608   -0.925132   -0.878882
     18          1           0        3.978316    0.575267   -0.002528
 ---------------------------------------------------------------------
                    Distance matrix (angstroms):
                    1          2          3          4          5
     1  C    0.000000
     2  C    1.392809   0.000000
     3  C    2.428304   1.397064   0.000000
     4  C    2.811635   2.431954   1.419864   0.000000
     5  C    2.416231   2.785585   2.433164   1.404516   0.000000
     6  C    1.407656   2.419233   2.806000   2.425883   1.381588
     7  H    3.403852   3.871344   3.412480   2.148041   1.085795
     8  O    5.061234   4.264514   2.871287   2.373756   3.624109
     9  O    3.636749   2.356481   1.339248   2.410339   3.670371
    10  H    2.161339   1.084232   2.132781   3.404316   3.869655
    11  C    4.262912   3.762030   2.489963   1.451277   2.482696
    12  H    4.848746   4.606118   3.458131   2.175202   2.660430
    13  H    4.311103   3.162325   1.883289   2.393935   3.787067
    14  H    2.159977   3.399315   3.889637   3.407806   2.143193
    15  C    1.508561   2.511817   3.805294   4.320186   3.800645
    16  H    2.156517   2.824591   4.148632   4.818824   4.437896
    17  H    2.156581   2.822683   4.147440   4.819067   4.439400
    18  H    2.161834   3.422548   4.588984   4.830787   4.011289
                    6          7          8          9         10
     6  C    0.000000
     7  H    2.144759   0.000000
     8  O    4.795386   3.910689   0.000000
     9  O    4.144913   4.551076   2.635467   0.000000
    10  H    3.411094   4.955351   4.918199   2.561766   0.000000
    11  C    3.753145   2.683547   1.227956   2.858142   4.620325
    12  H    4.039545   2.391730   2.018932   3.959399   5.550445
    13  H    4.551933   4.491407   1.755605   0.984208   3.516961
    14  H    1.083658   2.475414   5.740032   5.228461   4.307452
    15  C    2.533773   4.676726   6.545311   4.867373   2.729323
    16  H    3.256631   5.340336   6.929439   5.068026   2.779965
    17  H    3.258532   5.342450   6.929001   5.065987   2.776305
    18  H    2.632935   4.697873   7.162441   5.759758   3.788732
                   11         12         13         14         15
    11  C    0.000000
    12  H    1.106742   0.000000
    13  H    2.298468   3.390302   0.000000
    14  H    4.624438   4.719049   5.619705   0.000000
    15  C    5.771462   6.333713   5.654315   2.735458   0.000000
    16  H    6.244473   6.870663   5.908004   3.495848   1.094020
    17  H    6.244733   6.871634   5.906477   3.498832   1.093998
    18  H    6.257488   6.658380   6.470499   2.377967   1.091015
                   16         17         18
    16  H    0.000000
    17  H    1.760915   0.000000
    18  H    1.768542   1.768587   0.000000
 Stoichiometry    C8H8O2(1+,2)
 Framework group  C1[X(C8H8O2)]
 Deg. of freedom    48
 Full point group                 C1      NOp   1
 Largest Abelian subgroup         C1      NOp   1
 Largest concise Abelian subgroup C1      NOp   1
                         Standard orientation:                         
 ---------------------------------------------------------------------
 Center     Atomic      Atomic             Coordinates (Angstroms)
 Number     Number       Type             X           Y           Z
 ---------------------------------------------------------------------
      1          6           0        1.899863   -0.019337   -0.000094
      2          6           0        0.969390   -1.055743   -0.000091
      3          6           0       -0.402437   -0.791396   -0.000017
      4          6           0       -0.852429    0.555274    0.000019
      5          6           0        0.097462    1.589862    0.000002
      6          6           0        1.451428    1.314980   -0.000060
      7          1           0       -0.252304    2.617780    0.000002
      8          8           0       -3.161317    0.004136    0.000004
      9          8           0       -1.259569   -1.820430    0.000017
     10          1           0        1.287742   -2.092184   -0.000149
     11          6           0       -2.273050    0.851991    0.000029
     12          1           0       -2.541694    1.925634    0.000120
     13          1           0       -2.168995   -1.444120    0.000102
     14          1           0        2.173214    2.123274   -0.000099
     15          6           0        3.375258   -0.333924    0.000086
     16          1           0        3.649291   -0.920409    0.882027
     17          1           0        3.648608   -0.925132   -0.878882
     18          1           0        3.978316    0.575267   -0.002528
 ---------------------------------------------------------------------
 Rotational constants (GHZ):           3.0823363           0.9427718           0.7251907
 Leave Link  202 at Wed Dec 03 17:21:52 2025, MaxMem=   104857600 cpu:               0.0 elap:               0.1
 (Enter D:\Gaussian\G16W\l301.exe)
 Standard basis: 6-31G(d) (6D, 7F)
 Ernie: Thresh=  0.10000D-02 Tol=  0.10000D-05 Strict=F.
 There are   166 symmetry adapted cartesian basis functions of A   symmetry.
 There are   166 symmetry adapted basis functions of A   symmetry.
   166 basis functions,   312 primitive gaussians,   166 cartesian basis functions
    36 alpha electrons       35 beta electrons
       nuclear repulsion energy       492.6034097605 Hartrees.
 IExCor=  402 DFT=T Ex+Corr=B3LYP ExCW=0 ScaHFX=  0.200000
 ScaDFX=  0.800000  0.720000  1.000000  0.810000 ScalE2=  1.000000  1.000000
 IRadAn=      5 IRanWt=     -1 IRanGd=            0 ICorTp=0 IEmpDi=  4
 NAtoms=   18 NActive=   18 NUniq=   18 SFac= 1.00D+00 NAtFMM=   60 NAOKFM=F Big=F
 Integral buffers will be    131072 words long.
 Raffenetti 2 integral format.
 Two-electron integral symmetry is turned on.
 Leave Link  301 at Wed Dec 03 17:21:52 2025, MaxMem=   104857600 cpu:               0.0 elap:               0.1
 (Enter D:\Gaussian\G16W\l302.exe)
 NPDir=0 NMtPBC=     1 NCelOv=     1 NCel=       1 NClECP=     1 NCelD=      1
         NCelK=      1 NCelE2=     1 NClLst=     1 CellRange=     0.0.
 One-electron integrals computed using PRISM.
 One-electron integral symmetry used in STVInt
 NBasis=   166 RedAO= T EigKep=  3.96D-04  NBF=   166
 NBsUse=   166 1.00D-06 EigRej= -1.00D+00 NBFU=   166
 Precomputing XC quadrature grid using
 IXCGrd= 4 IRadAn=           5 IRanWt=          -1 IRanGd=           0 AccXCQ= 0.00D+00.
 Generated NRdTot=       0 NPtTot=           0 NUsed=           0 NTot=          32
 NSgBfM=   166   166   166   166   166 MxSgAt=    18 MxSgA2=    18.
 Leave Link  302 at Wed Dec 03 17:21:53 2025, MaxMem=   104857600 cpu:               1.0 elap:               0.4
 (Enter D:\Gaussian\G16W\l303.exe)
 DipDrv:  MaxL=1.
 Leave Link  303 at Wed Dec 03 17:21:53 2025, MaxMem=   104857600 cpu:               0.0 elap:               0.1
 (Enter D:\Gaussian\G16W\l401.exe)
 ExpMin= 1.61D-01 ExpMax= 5.48D+03 ExpMxC= 8.25D+02 IAcc=3 IRadAn=         5 AccDes= 0.00D+00
 Harris functional with IExCor=  402 and IRadAn=       5 diagonalized for initial guess.
 HarFok:  IExCor=  402 AccDes= 0.00D+00 IRadAn=         5 IDoV= 1 UseB2=F ITyADJ=14
 ICtDFT=  3500011 ScaDFX=  1.000000  1.000000  1.000000  1.000000
 FoFCou: FMM=F IPFlag=           0 FMFlag=      100000 FMFlg1=           0
         NFxFlg=           0 DoJE=T BraDBF=F KetDBF=T FulRan=T
         wScrn=  0.000000 ICntrl=       500 IOpCl=  0 I1Cent=   200000004 NGrid=           0
         NMat0=    1 NMatS0=      1 NMatT0=    0 NMatD0=    1 NMtDS0=    0 NMtDT0=    0
 Petite list used in FoFCou.
 Harris En= -459.831229011580    
 JPrj=0 DoOrth=F DoCkMO=F.
 Initial guess <Sx>= 0.0000 <Sy>= 0.0000 <Sz>= 0.5000 <S**2>= 0.7500 S= 0.5000
 Leave Link  401 at Wed Dec 03 17:21:54 2025, MaxMem=   104857600 cpu:               1.0 elap:               1.1
 (Enter D:\Gaussian\G16W\l502.exe)
 Integral symmetry usage will be decided dynamically.
 UHF open shell SCF:
 Using DIIS extrapolation, IDIIS=  1040.
 NGot=   104857600 LenX=   104799544 LenY=   104771547
 Requested convergence on RMS density matrix=1.00D-07 within 128 cycles.
 Requested convergence on MAX density matrix=1.00D-05.
 Requested convergence on             energy=1.00D-05.
 No special actions if energy rises.
 Fock matrices will be formed incrementally for  20 cycles.
 Integral accuracy reduced to 1.0D-05 until final iterations.

 Cycle   1  Pass 0  IDiag  1:
 FoFJK:  IHMeth= 1 ICntrl=       0 DoSepK=F KAlg= 0 I1Cent=           0 FoldK=F
 IRaf= 930000000 NMat=       1 IRICut=       1 DoRegI=T DoRafI=F ISym2E= 0 IDoP0=0 IntGTp=1.
 FoFCou: FMM=F IPFlag=           0 FMFlag=      100000 FMFlg1=           0
         NFxFlg=           0 DoJE=F BraDBF=F KetDBF=F FulRan=T
         wScrn=  0.000000 ICntrl=         0 IOpCl=  1 I1Cent=           0 NGrid=           0
         NMat0=    1 NMatS0=      1 NMatT0=    0 NMatD0=    1 NMtDS0=    0 NMtDT0=    0
 Symmetry not used in FoFCou.
 E= -459.648935754580    
 DIIS: error= 3.44D-02 at cycle   1 NSaved=   1.
 NSaved= 1 IEnMin= 1 EnMin= -459.648935754580     IErMin= 1 ErrMin= 3.44D-02
 ErrMax= 3.44D-02  0.00D+00 EMaxC= 1.00D-01 BMatC= 7.29D-01 BMatP= 7.29D-01
 IDIUse=3 WtCom= 6.56D-01 WtEn= 3.44D-01
 Coeff-Com:  0.100D+01
 Coeff-En:   0.100D+01
 Coeff:      0.100D+01
 Gap=     0.207 Goal=   None    Shift=    0.000
 Gap=     0.046 Goal=   None    Shift=    0.000
 GapD=    0.046 DampG=0.250 DampE=0.500 DampFc=0.2500 IDamp=-1.
 Damping current iteration by 2.50D-01
 RMSDP=6.06D-03 MaxDP=1.71D-01              OVMax= 2.27D-01

 Cycle   2  Pass 0  IDiag  1:
 RMSU=  1.49D-03    CP:  9.91D-01
 E= -459.706427669080     Delta-E=       -0.057491914500 Rises=F Damp=T
 DIIS: error= 1.61D-02 at cycle   2 NSaved=   2.
 NSaved= 2 IEnMin= 2 EnMin= -459.706427669080     IErMin= 2 ErrMin= 1.61D-02
 ErrMax= 1.61D-02  0.00D+00 EMaxC= 1.00D-01 BMatC= 1.79D-01 BMatP= 7.29D-01
 IDIUse=3 WtCom= 8.39D-01 WtEn= 1.61D-01
 Coeff-Com: -0.608D+00 0.161D+01
 Coeff-En:   0.000D+00 0.100D+01
 Coeff:     -0.510D+00 0.151D+01
 Gap=     0.214 Goal=   None    Shift=    0.000
 Gap=     0.093 Goal=   None    Shift=    0.000
 RMSDP=2.37D-03 MaxDP=4.38D-02 DE=-5.75D-02 OVMax= 2.01D-01

 Cycle   3  Pass 0  IDiag  1:
 RMSU=  2.02D-03    CP:  9.67D-01  1.71D+00
 E= -459.792914517748     Delta-E=       -0.086486848668 Rises=F Damp=F
 DIIS: error= 1.07D-02 at cycle   3 NSaved=   3.
 NSaved= 3 IEnMin= 3 EnMin= -459.792914517748     IErMin= 3 ErrMin= 1.07D-02
 ErrMax= 1.07D-02  0.00D+00 EMaxC= 1.00D-01 BMatC= 1.02D-01 BMatP= 1.79D-01
 IDIUse=3 WtCom= 8.93D-01 WtEn= 1.07D-01
 Coeff-Com: -0.412D+00 0.918D+00 0.494D+00
 Coeff-En:   0.000D+00 0.000D+00 0.100D+01
 Coeff:     -0.368D+00 0.820D+00 0.548D+00
 Gap=     0.203 Goal=   None    Shift=    0.000
 Gap=     0.071 Goal=   None    Shift=    0.000
 RMSDP=1.25D-03 MaxDP=4.92D-02 DE=-8.65D-02 OVMax= 6.97D-02

 Cycle   4  Pass 0  IDiag  1:
 RMSU=  8.56D-04    CP:  9.72D-01  1.99D+00  6.06D-01
 E= -459.811064085367     Delta-E=       -0.018149567620 Rises=F Damp=F
 DIIS: error= 4.87D-03 at cycle   4 NSaved=   4.
 NSaved= 4 IEnMin= 4 EnMin= -459.811064085367     IErMin= 4 ErrMin= 4.87D-03
 ErrMax= 4.87D-03  0.00D+00 EMaxC= 1.00D-01 BMatC= 2.26D-02 BMatP= 1.02D-01
 IDIUse=3 WtCom= 9.51D-01 WtEn= 4.87D-02
 Coeff-Com: -0.651D-01 0.148D+00 0.327D+00 0.590D+00
 Coeff-En:   0.000D+00 0.000D+00 0.204D+00 0.796D+00
 Coeff:     -0.619D-01 0.140D+00 0.321D+00 0.600D+00
 Gap=     0.195 Goal=   None    Shift=    0.000
 Gap=     0.072 Goal=   None    Shift=    0.000
 RMSDP=4.73D-04 MaxDP=1.82D-02 DE=-1.81D-02 OVMax= 3.36D-02

 Cycle   5  Pass 0  IDiag  1:
 RMSU=  2.33D-04    CP:  9.71D-01  1.87D+00  7.16D-01  6.47D-01
 E= -459.815510395887     Delta-E=       -0.004446310520 Rises=F Damp=F
 DIIS: error= 1.43D-03 at cycle   5 NSaved=   5.
 NSaved= 5 IEnMin= 5 EnMin= -459.815510395887     IErMin= 5 ErrMin= 1.43D-03
 ErrMax= 1.43D-03  0.00D+00 EMaxC= 1.00D-01 BMatC= 1.65D-03 BMatP= 2.26D-02
 IDIUse=3 WtCom= 9.86D-01 WtEn= 1.43D-02
 Coeff-Com: -0.787D-02 0.210D-01 0.155D+00 0.358D+00 0.475D+00
 Coeff-En:   0.000D+00 0.000D+00 0.000D+00 0.000D+00 0.100D+01
 Coeff:     -0.776D-02 0.207D-01 0.152D+00 0.352D+00 0.482D+00
 Gap=     0.193 Goal=   None    Shift=    0.000
 Gap=     0.071 Goal=   None    Shift=    0.000
 RMSDP=1.46D-04 MaxDP=4.39D-03 DE=-4.45D-03 OVMax= 1.25D-02

 Cycle   6  Pass 0  IDiag  1:
 RMSU=  1.02D-04    CP:  9.71D-01  1.87D+00  7.18D-01  6.71D-01  5.59D-01
 E= -459.815869807691     Delta-E=       -0.000359411803 Rises=F Damp=F
 DIIS: error= 6.88D-04 at cycle   6 NSaved=   6.
 NSaved= 6 IEnMin= 6 EnMin= -459.815869807691     IErMin= 6 ErrMin= 6.88D-04
 ErrMax= 6.88D-04  0.00D+00 EMaxC= 1.00D-01 BMatC= 1.89D-04 BMatP= 1.65D-03
 IDIUse=3 WtCom= 9.93D-01 WtEn= 6.88D-03
 Coeff-Com:  0.392D-02-0.723D-02 0.449D-01 0.125D+00 0.279D+00 0.554D+00
 Coeff-En:   0.000D+00 0.000D+00 0.000D+00 0.000D+00 0.316D-01 0.968D+00
 Coeff:      0.389D-02-0.718D-02 0.446D-01 0.124D+00 0.278D+00 0.557D+00
 Gap=     0.194 Goal=   None    Shift=    0.000
 Gap=     0.070 Goal=   None    Shift=    0.000
 RMSDP=5.34D-05 MaxDP=1.84D-03 DE=-3.59D-04 OVMax= 4.31D-03

 Cycle   7  Pass 0  IDiag  1:
 RMSU=  4.26D-05    CP:  9.71D-01  1.88D+00  7.20D-01  6.75D-01  6.74D-01
                    CP:  8.41D-01
 E= -459.815923707234     Delta-E=       -0.000053899543 Rises=F Damp=F
 DIIS: error= 3.14D-04 at cycle   7 NSaved=   7.
 NSaved= 7 IEnMin= 7 EnMin= -459.815923707234     IErMin= 7 ErrMin= 3.14D-04
 ErrMax= 3.14D-04  0.00D+00 EMaxC= 1.00D-01 BMatC= 3.05D-05 BMatP= 1.89D-04
 IDIUse=3 WtCom= 9.97D-01 WtEn= 3.14D-03
 Coeff-Com:  0.332D-02-0.748D-02-0.918D-02-0.995D-02 0.350D-01 0.285D+00
 Coeff-Com:  0.703D+00
 Coeff-En:   0.000D+00 0.000D+00 0.000D+00 0.000D+00 0.000D+00 0.000D+00
 Coeff-En:   0.100D+01
 Coeff:      0.331D-02-0.746D-02-0.915D-02-0.992D-02 0.349D-01 0.284D+00
 Coeff:      0.704D+00
 Gap=     0.194 Goal=   None    Shift=    0.000
 Gap=     0.070 Goal=   None    Shift=    0.000
 RMSDP=3.17D-05 MaxDP=1.49D-03 DE=-5.39D-05 OVMax= 4.71D-03

 Cycle   8  Pass 0  IDiag  1:
 RMSU=  2.64D-05    CP:  9.71D-01  1.88D+00  7.22D-01  6.81D-01  7.04D-01
                    CP:  9.82D-01  9.41D-01
 E= -459.815939220351     Delta-E=       -0.000015513117 Rises=F Damp=F
 DIIS: error= 2.05D-04 at cycle   8 NSaved=   8.
 NSaved= 8 IEnMin= 8 EnMin= -459.815939220351     IErMin= 8 ErrMin= 2.05D-04
 ErrMax= 2.05D-04  0.00D+00 EMaxC= 1.00D-01 BMatC= 1.36D-05 BMatP= 3.05D-05
 IDIUse=3 WtCom= 9.98D-01 WtEn= 2.05D-03
 Coeff-Com:  0.152D-02-0.361D-02-0.184D-01-0.397D-01-0.573D-01 0.360D-01
 Coeff-Com:  0.460D+00 0.621D+00
 Coeff-En:   0.000D+00 0.000D+00 0.000D+00 0.000D+00 0.000D+00 0.000D+00
 Coeff-En:   0.000D+00 0.100D+01
 Coeff:      0.151D-02-0.361D-02-0.184D-01-0.396D-01-0.572D-01 0.360D-01
 Coeff:      0.459D+00 0.622D+00
 Gap=     0.194 Goal=   None    Shift=    0.000
 Gap=     0.070 Goal=   None    Shift=    0.000
 RMSDP=2.16D-05 MaxDP=8.53D-04 DE=-1.55D-05 OVMax= 2.07D-03

 Cycle   9  Pass 0  IDiag  1:
 RMSU=  1.35D-05    CP:  9.71D-01  1.88D+00  7.22D-01  6.81D-01  7.35D-01
                    CP:  1.06D+00  1.24D+00  9.87D-01
 E= -459.815945946904     Delta-E=       -0.000006726554 Rises=F Damp=F
 DIIS: error= 1.29D-04 at cycle   9 NSaved=   9.
 NSaved= 9 IEnMin= 9 EnMin= -459.815945946904     IErMin= 9 ErrMin= 1.29D-04
 ErrMax= 1.29D-04  0.00D+00 EMaxC= 1.00D-01 BMatC= 4.62D-06 BMatP= 1.36D-05
 IDIUse=3 WtCom= 9.99D-01 WtEn= 1.29D-03
 Coeff-Com: -0.998D-03 0.178D-02-0.103D-01-0.279D-01-0.716D-01-0.120D+00
 Coeff-Com:  0.397D-01 0.463D+00 0.726D+00
 Coeff-En:   0.000D+00 0.000D+00 0.000D+00 0.000D+00 0.000D+00 0.000D+00
 Coeff-En:   0.000D+00 0.000D+00 0.100D+01
 Coeff:     -0.997D-03 0.178D-02-0.103D-01-0.279D-01-0.715D-01-0.120D+00
 Coeff:      0.396D-01 0.463D+00 0.727D+00
 Gap=     0.194 Goal=   None    Shift=    0.000
 Gap=     0.071 Goal=   None    Shift=    0.000
 RMSDP=1.75D-05 MaxDP=9.02D-04 DE=-6.73D-06 OVMax= 2.80D-03

 Cycle  10  Pass 0  IDiag  1:
 RMSU=  6.66D-06    CP:  9.71D-01  1.88D+00  7.22D-01  6.83D-01  7.49D-01
                    CP:  1.14D+00  1.44D+00  1.39D+00  8.47D-01
 E= -459.815949276582     Delta-E=       -0.000003329678 Rises=F Damp=F
 DIIS: error= 6.04D-05 at cycle  10 NSaved=  10.
 NSaved=10 IEnMin=10 EnMin= -459.815949276582     IErMin=10 ErrMin= 6.04D-05
 ErrMax= 6.04D-05  0.00D+00 EMaxC= 1.00D-01 BMatC= 1.17D-06 BMatP= 4.62D-06
 IDIUse=1 WtCom= 1.00D+00 WtEn= 0.00D+00
 Coeff-Com: -0.641D-03 0.128D-02-0.199D-02-0.639D-02-0.249D-01-0.601D-01
 Coeff-Com: -0.518D-01 0.790D-01 0.418D+00 0.647D+00
 Coeff:     -0.641D-03 0.128D-02-0.199D-02-0.639D-02-0.249D-01-0.601D-01
 Coeff:     -0.518D-01 0.790D-01 0.418D+00 0.647D+00
 Gap=     0.194 Goal=   None    Shift=    0.000
 Gap=     0.070 Goal=   None    Shift=    0.000
 RMSDP=6.47D-06 MaxDP=3.18D-04 DE=-3.33D-06 OVMax= 9.21D-04

 Initial convergence to 1.0D-05 achieved.  Increase integral accuracy.
 Cycle  11  Pass 1  IDiag  1:
 E= -459.815953718584     Delta-E=       -0.000004442002 Rises=F Damp=F
 DIIS: error= 2.09D-05 at cycle   1 NSaved=   1.
 NSaved= 1 IEnMin= 1 EnMin= -459.815953718584     IErMin= 1 ErrMin= 2.09D-05
 ErrMax= 2.09D-05  0.00D+00 EMaxC= 1.00D-01 BMatC= 3.80D-07 BMatP= 3.80D-07
 IDIUse=1 WtCom= 1.00D+00 WtEn= 0.00D+00
 Coeff-Com:  0.100D+01
 Coeff:      0.100D+01
 Gap=     0.194 Goal=   None    Shift=    0.000
 Gap=     0.070 Goal=   None    Shift=    0.000
 RMSDP=6.47D-06 MaxDP=3.18D-04 DE=-4.44D-06 OVMax= 4.23D-04

 Cycle  12  Pass 1  IDiag  1:
 RMSU=  8.46D-06    CP:  1.00D+00
 E= -459.815953774045     Delta-E=       -0.000000055461 Rises=F Damp=F
 DIIS: error= 2.85D-05 at cycle   2 NSaved=   2.
 NSaved= 2 IEnMin= 2 EnMin= -459.815953774045     IErMin= 1 ErrMin= 2.09D-05
 ErrMax= 2.85D-05  0.00D+00 EMaxC= 1.00D-01 BMatC= 5.41D-07 BMatP= 3.80D-07
 IDIUse=1 WtCom= 1.00D+00 WtEn= 0.00D+00
 Coeff-Com:  0.554D+00 0.446D+00
 Coeff:      0.554D+00 0.446D+00
 Gap=     0.194 Goal=   None    Shift=    0.000
 Gap=     0.070 Goal=   None    Shift=    0.000
 RMSDP=3.08D-06 MaxDP=1.70D-04 DE=-5.55D-08 OVMax= 5.22D-04

 Cycle  13  Pass 1  IDiag  1:
 RMSU=  2.95D-06    CP:  1.00D+00  8.98D-01
 E= -459.815953935384     Delta-E=       -0.000000161339 Rises=F Damp=F
 DIIS: error= 1.26D-05 at cycle   3 NSaved=   3.
 NSaved= 3 IEnMin= 3 EnMin= -459.815953935384     IErMin= 3 ErrMin= 1.26D-05
 ErrMax= 1.26D-05  0.00D+00 EMaxC= 1.00D-01 BMatC= 8.00D-08 BMatP= 3.80D-07
 IDIUse=1 WtCom= 1.00D+00 WtEn= 0.00D+00
 Coeff-Com: -0.477D-01 0.238D+00 0.810D+00
 Coeff:     -0.477D-01 0.238D+00 0.810D+00
 Gap=     0.194 Goal=   None    Shift=    0.000
 Gap=     0.070 Goal=   None    Shift=    0.000
 RMSDP=1.71D-06 MaxDP=9.35D-05 DE=-1.61D-07 OVMax= 2.48D-04

 Cycle  14  Pass 1  IDiag  1:
 RMSU=  1.50D-06    CP:  1.00D+00  9.90D-01  1.10D+00
 E= -459.815953983884     Delta-E=       -0.000000048500 Rises=F Damp=F
 DIIS: error= 6.37D-06 at cycle   4 NSaved=   4.
 NSaved= 4 IEnMin= 4 EnMin= -459.815953983884     IErMin= 4 ErrMin= 6.37D-06
 ErrMax= 6.37D-06  0.00D+00 EMaxC= 1.00D-01 BMatC= 2.28D-08 BMatP= 8.00D-08
 IDIUse=1 WtCom= 1.00D+00 WtEn= 0.00D+00
 Coeff-Com: -0.151D+00 0.880D-01 0.405D+00 0.658D+00
 Coeff:     -0.151D+00 0.880D-01 0.405D+00 0.658D+00
 Gap=     0.194 Goal=   None    Shift=    0.000
 Gap=     0.070 Goal=   None    Shift=    0.000
 RMSDP=1.13D-06 MaxDP=5.82D-05 DE=-4.85D-08 OVMax= 2.12D-04

 Cycle  15  Pass 1  IDiag  1:
 RMSU=  7.25D-07    CP:  1.00D+00  1.03D+00  1.26D+00  1.44D+00
 E= -459.815954002407     Delta-E=       -0.000000018523 Rises=F Damp=F
 DIIS: error= 4.38D-06 at cycle   5 NSaved=   5.
 NSaved= 5 IEnMin= 5 EnMin= -459.815954002407     IErMin= 5 ErrMin= 4.38D-06
 ErrMax= 4.38D-06  0.00D+00 EMaxC= 1.00D-01 BMatC= 1.15D-08 BMatP= 2.28D-08
 IDIUse=1 WtCom= 1.00D+00 WtEn= 0.00D+00
 Coeff-Com: -0.710D-01-0.250D-01-0.255D+00 0.433D+00 0.919D+00
 Coeff:     -0.710D-01-0.250D-01-0.255D+00 0.433D+00 0.919D+00
 Gap=     0.194 Goal=   None    Shift=    0.000
 Gap=     0.070 Goal=   None    Shift=    0.000
 RMSDP=1.35D-06 MaxDP=6.60D-05 DE=-1.85D-08 OVMax= 2.79D-04

 Cycle  16  Pass 1  IDiag  1:
 RMSU=  4.04D-07    CP:  1.00D+00  1.07D+00  1.45D+00  2.16D+00  1.17D+00
 E= -459.815954015613     Delta-E=       -0.000000013206 Rises=F Damp=F
 DIIS: error= 3.22D-06 at cycle   6 NSaved=   6.
 NSaved= 6 IEnMin= 6 EnMin= -459.815954015613     IErMin= 6 ErrMin= 3.22D-06
 ErrMax= 3.22D-06  0.00D+00 EMaxC= 1.00D-01 BMatC= 5.38D-09 BMatP= 1.15D-08
 IDIUse=1 WtCom= 1.00D+00 WtEn= 0.00D+00
 Coeff-Com:  0.664D-02-0.312D-01-0.368D+00 0.476D-01 0.707D+00 0.638D+00
 Coeff:      0.664D-02-0.312D-01-0.368D+00 0.476D-01 0.707D+00 0.638D+00
 Gap=     0.194 Goal=   None    Shift=    0.000
 Gap=     0.070 Goal=   None    Shift=    0.000
 RMSDP=7.78D-07 MaxDP=3.62D-05 DE=-1.32D-08 OVMax= 1.65D-04

 Cycle  17  Pass 1  IDiag  1:
 RMSU=  2.10D-07    CP:  1.00D+00  1.10D+00  1.56D+00  2.55D+00  1.56D+00
                    CP:  1.03D+00
 E= -459.815954019909     Delta-E=       -0.000000004296 Rises=F Damp=F
 DIIS: error= 1.20D-06 at cycle   7 NSaved=   7.
 NSaved= 7 IEnMin= 7 EnMin= -459.815954019909     IErMin= 7 ErrMin= 1.20D-06
 ErrMax= 1.20D-06  0.00D+00 EMaxC= 1.00D-01 BMatC= 8.40D-10 BMatP= 5.38D-09
 IDIUse=1 WtCom= 1.00D+00 WtEn= 0.00D+00
 Coeff-Com:  0.989D-02-0.884D-02-0.205D+00-0.178D-01 0.354D+00 0.349D+00
 Coeff-Com:  0.519D+00
 Coeff:      0.989D-02-0.884D-02-0.205D+00-0.178D-01 0.354D+00 0.349D+00
 Coeff:      0.519D+00
 Gap=     0.194 Goal=   None    Shift=    0.000
 Gap=     0.070 Goal=   None    Shift=    0.000
 RMSDP=2.04D-07 MaxDP=7.80D-06 DE=-4.30D-09 OVMax= 4.22D-05

 Cycle  18  Pass 1  IDiag  1:
 RMSU=  9.09D-08    CP:  1.00D+00  1.10D+00  1.58D+00  2.64D+00  1.63D+00
                    CP:  1.14D+00  1.32D+00
 E= -459.815954020533     Delta-E=       -0.000000000624 Rises=F Damp=F
 DIIS: error= 9.86D-07 at cycle   8 NSaved=   8.
 NSaved= 8 IEnMin= 8 EnMin= -459.815954020533     IErMin= 8 ErrMin= 9.86D-07
 ErrMax= 9.86D-07  0.00D+00 EMaxC= 1.00D-01 BMatC= 3.47D-10 BMatP= 8.40D-10
 IDIUse=1 WtCom= 1.00D+00 WtEn= 0.00D+00
 Coeff-Com:  0.914D-03 0.312D-01 0.122D+00-0.479D-01-0.257D+00-0.285D+00
 Coeff-Com:  0.194D+00 0.124D+01
 Coeff:      0.914D-03 0.312D-01 0.122D+00-0.479D-01-0.257D+00-0.285D+00
 Coeff:      0.194D+00 0.124D+01
 Gap=     0.194 Goal=   None    Shift=    0.000
 Gap=     0.070 Goal=   None    Shift=    0.000
 RMSDP=3.64D-07 MaxDP=1.41D-05 DE=-6.24D-10 OVMax= 8.61D-05

 Cycle  19  Pass 1  IDiag  1:
 RMSU=  6.17D-08    CP:  1.00D+00  1.11D+00  1.63D+00  2.77D+00  1.77D+00
                    CP:  1.46D+00  2.26D+00  1.61D+00
 E= -459.815954021314     Delta-E=       -0.000000000781 Rises=F Damp=F
 DIIS: error= 6.15D-07 at cycle   9 NSaved=   9.
 NSaved= 9 IEnMin= 9 EnMin= -459.815954021314     IErMin= 9 ErrMin= 6.15D-07
 ErrMax= 6.15D-07  0.00D+00 EMaxC= 1.00D-01 BMatC= 2.08D-10 BMatP= 3.47D-10
 IDIUse=1 WtCom= 1.00D+00 WtEn= 0.00D+00
 Coeff-Com: -0.356D-02 0.274D-01 0.152D+00-0.256D-01-0.296D+00-0.335D+00
 Coeff-Com: -0.186D+00 0.881D+00 0.785D+00
 Coeff:     -0.356D-02 0.274D-01 0.152D+00-0.256D-01-0.296D+00-0.335D+00
 Coeff:     -0.186D+00 0.881D+00 0.785D+00
 Gap=     0.194 Goal=   None    Shift=    0.000
 Gap=     0.070 Goal=   None    Shift=    0.000
 RMSDP=2.54D-07 MaxDP=9.05D-06 DE=-7.81D-10 OVMax= 5.68D-05

 Cycle  20  Pass 1  IDiag  1:
 RMSU=  3.66D-08    CP:  1.00D+00  1.12D+00  1.65D+00  2.86D+00  1.86D+00
                    CP:  1.67D+00  2.91D+00  2.35D+00  1.33D+00
 E= -459.815954021620     Delta-E=       -0.000000000305 Rises=F Damp=F
 DIIS: error= 2.39D-07 at cycle  10 NSaved=  10.
 NSaved=10 IEnMin=10 EnMin= -459.815954021620     IErMin=10 ErrMin= 2.39D-07
 ErrMax= 2.39D-07  0.00D+00 EMaxC= 1.00D-01 BMatC= 2.95D-11 BMatP= 2.08D-10
 IDIUse=1 WtCom= 1.00D+00 WtEn= 0.00D+00
 Coeff-Com: -0.134D-02-0.429D-02-0.325D-01 0.189D-01 0.720D-01 0.548D-01
 Coeff-Com: -0.150D+00-0.227D+00 0.733D-01 0.120D+01
 Coeff:     -0.134D-02-0.429D-02-0.325D-01 0.189D-01 0.720D-01 0.548D-01
 Coeff:     -0.150D+00-0.227D+00 0.733D-01 0.120D+01
 Gap=     0.194 Goal=   None    Shift=    0.000
 Gap=     0.070 Goal=   None    Shift=    0.000
 RMSDP=1.22D-07 MaxDP=5.10D-06 DE=-3.05D-10 OVMax= 2.68D-05

 Cycle  21  Pass 1  IDiag  1:
 RMSU=  5.77D-08    CP:  1.00D+00  1.12D+00  1.67D+00  2.90D+00  1.90D+00
                    CP:  1.78D+00  3.00D+00  2.73D+00  1.85D+00  1.46D+00
 E= -459.815954021707     Delta-E=       -0.000000000087 Rises=F Damp=F
 DIIS: error= 1.83D-07 at cycle  11 NSaved=  11.
 NSaved=11 IEnMin=11 EnMin= -459.815954021707     IErMin=11 ErrMin= 1.83D-07
 ErrMax= 1.83D-07  0.00D+00 EMaxC= 1.00D-01 BMatC= 1.90D-11 BMatP= 2.95D-11
 IDIUse=1 WtCom= 1.00D+00 WtEn= 0.00D+00
 Coeff-Com:  0.390D-03-0.112D-01-0.715D-01 0.206D-01 0.143D+00 0.143D+00
 Coeff-Com: -0.397D-01-0.439D+00-0.263D+00 0.794D+00 0.723D+00
 Coeff:      0.390D-03-0.112D-01-0.715D-01 0.206D-01 0.143D+00 0.143D+00
 Coeff:     -0.397D-01-0.439D+00-0.263D+00 0.794D+00 0.723D+00
 Gap=     0.194 Goal=   None    Shift=    0.000
 Gap=     0.070 Goal=   None    Shift=    0.000
 RMSDP=7.65D-08 MaxDP=2.56D-06 DE=-8.72D-11 OVMax= 1.63D-05

 SCF Done:  E(UB3LYP) =  -459.815954022     A.U. after   21 cycles
            NFock= 21  Conv=0.76D-07     -V/T= 2.0091
 <Sx>= 0.0000 <Sy>= 0.0000 <Sz>= 0.5000 <S**2>= 0.7675 S= 0.5087
 <L.S>= 0.000000000000E+00
 KE= 4.556750264579D+02 PE=-2.041864551986D+03 EE= 6.337701617456D+02
 Annihilation of the first spin contaminant:
 S**2 before annihilation     0.7675,   after     0.7502
 Leave Link  502 at Wed Dec 03 17:22:45 2025, MaxMem=   104857600 cpu:              51.0 elap:              50.8
 (Enter D:\Gaussian\G16W\l601.exe)
 Copying SCF densities to generalized density rwf, IOpCl= 1 IROHF=0.

 **********************************************************************

            Population analysis using the SCF density.

 **********************************************************************

 Orbital symmetries:
 Alpha Orbitals:
       Occupied  (A) (A) (A) (A) (A) (A) (A) (A) (A) (A) (A) (A)
                 (A) (A) (A) (A) (A) (A) (A) (A) (A) (A) (A) (A)
                 (A) (A) (A) (A) (A) (A) (A) (A) (A) (A) (A) (A)
       Virtual   (A) (A) (A) (A) (A) (A) (A) (A) (A) (A) (A) (A)
                 (A) (A) (A) (A) (A) (A) (A) (A) (A) (A) (A) (A)
                 (A) (A) (A) (A) (A) (A) (A) (A) (A) (A) (A) (A)
                 (A) (A) (A) (A) (A) (A) (A) (A) (A) (A) (A) (A)
                 (A) (A) (A) (A) (A) (A) (A) (A) (A) (A) (A) (A)
                 (A) (A) (A) (A) (A) (A) (A) (A) (A) (A) (A) (A)
                 (A) (A) (A) (A) (A) (A) (A) (A) (A) (A) (A) (A)
                 (A) (A) (A) (A) (A) (A) (A) (A) (A) (A) (A) (A)
                 (A) (A) (A) (A) (A) (A) (A) (A) (A) (A) (A) (A)
                 (A) (A) (A) (A) (A) (A) (A) (A) (A) (A) (A) (A)
                 (A) (A) (A) (A) (A) (A) (A) (A) (A) (A)
 Beta  Orbitals:
       Occupied  (A) (A) (A) (A) (A) (A) (A) (A) (A) (A) (A) (A)
                 (A) (A) (A) (A) (A) (A) (A) (A) (A) (A) (A) (A)
                 (A) (A) (A) (A) (A) (A) (A) (A) (A) (A) (A)
       Virtual   (A) (A) (A) (A) (A) (A) (A) (A) (A) (A) (A) (A)
                 (A) (A) (A) (A) (A) (A) (A) (A) (A) (A) (A) (A)
                 (A) (A) (A) (A) (A) (A) (A) (A) (A) (A) (A) (A)
                 (A) (A) (A) (A) (A) (A) (A) (A) (A) (A) (A) (A)
                 (A) (A) (A) (A) (A) (A) (A) (A) (A) (A) (A) (A)
                 (A) (A) (A) (A) (A) (A) (A) (A) (A) (A) (A) (A)
                 (A) (A) (A) (A) (A) (A) (A) (A) (A) (A) (A) (A)
                 (A) (A) (A) (A) (A) (A) (A) (A) (A) (A) (A) (A)
                 (A) (A) (A) (A) (A) (A) (A) (A) (A) (A) (A) (A)
                 (A) (A) (A) (A) (A) (A) (A) (A) (A) (A) (A) (A)
                 (A) (A) (A) (A) (A) (A) (A) (A) (A) (A) (A)
 The electronic state is 2-A.
 Alpha  occ. eigenvalues --  -19.42218 -19.34827 -10.50045 -10.46716 -10.42749
 Alpha  occ. eigenvalues --  -10.42467 -10.42072 -10.41899 -10.40864 -10.34892
 Alpha  occ. eigenvalues --   -1.30461  -1.23618  -1.08708  -0.99557  -0.97546
 Alpha  occ. eigenvalues --   -0.90336  -0.83184  -0.82551  -0.81144  -0.72988
 Alpha  occ. eigenvalues --   -0.71285  -0.68709  -0.65737  -0.65696  -0.63832
 Alpha  occ. eigenvalues --   -0.62619  -0.61014  -0.59503  -0.58614  -0.57356
 Alpha  occ. eigenvalues --   -0.55646  -0.54664  -0.54560  -0.46629  -0.46209
 Alpha  occ. eigenvalues --   -0.45506
 Alpha virt. eigenvalues --   -0.26090  -0.22133  -0.16059  -0.08109  -0.05820
 Alpha virt. eigenvalues --   -0.04982  -0.04386  -0.01955  -0.01045   0.00102
 Alpha virt. eigenvalues --    0.00959   0.03293   0.03721   0.05690   0.09473
 Alpha virt. eigenvalues --    0.10939   0.13522   0.16267   0.17367   0.19520
 Alpha virt. eigenvalues --    0.27713   0.28980   0.29622   0.33075   0.33722
 Alpha virt. eigenvalues --    0.34127   0.36053   0.37907   0.39179   0.40263
 Alpha virt. eigenvalues --    0.40957   0.41264   0.42522   0.45075   0.48114
 Alpha virt. eigenvalues --    0.50237   0.51375   0.52736   0.53283   0.57175
 Alpha virt. eigenvalues --    0.60169   0.62463   0.64435   0.66452   0.67067
 Alpha virt. eigenvalues --    0.68882   0.72330   0.73821   0.74778   0.75087
 Alpha virt. eigenvalues --    0.76243   0.77473   0.80618   0.80715   0.82435
 Alpha virt. eigenvalues --    0.86368   0.88114   0.89071   0.94681   0.98289
 Alpha virt. eigenvalues --    1.00688   1.01207   1.04835   1.08420   1.08660
 Alpha virt. eigenvalues --    1.12550   1.16454   1.18767   1.22159   1.22631
 Alpha virt. eigenvalues --    1.23399   1.26113   1.29461   1.32822   1.44680
 Alpha virt. eigenvalues --    1.49443   1.52290   1.54530   1.55133   1.56051
 Alpha virt. eigenvalues --    1.57293   1.63447   1.65559   1.67929   1.69818
 Alpha virt. eigenvalues --    1.70219   1.72012   1.74173   1.76784   1.81098
 Alpha virt. eigenvalues --    1.82752   1.83693   1.88903   1.90862   1.96506
 Alpha virt. eigenvalues --    2.04693   2.06294   2.07318   2.10378   2.11208
 Alpha virt. eigenvalues --    2.15204   2.17723   2.18177   2.18893   2.25846
 Alpha virt. eigenvalues --    2.27953   2.32690   2.39661   2.43131   2.46237
 Alpha virt. eigenvalues --    2.46428   2.55224   2.60891   2.64380   2.66065
 Alpha virt. eigenvalues --    2.70997   2.76592   2.82636   3.01318   3.21419
 Alpha virt. eigenvalues --    3.76519   3.79466   3.86634   3.91025   3.97495
 Alpha virt. eigenvalues --    4.04427   4.10080   4.21480   4.25775   4.56909
  Beta  occ. eigenvalues --  -19.41515 -19.34667 -10.49824 -10.46770 -10.42231
  Beta  occ. eigenvalues --  -10.42198 -10.42115 -10.42024 -10.40641 -10.34888
  Beta  occ. eigenvalues --   -1.29115  -1.23263  -1.07914  -0.99216  -0.96277
  Beta  occ. eigenvalues --   -0.90004  -0.82683  -0.82342  -0.80820  -0.72584
  Beta  occ. eigenvalues --   -0.71007  -0.68440  -0.65452  -0.63662  -0.63052
  Beta  occ. eigenvalues --   -0.62307  -0.60614  -0.58750  -0.57149  -0.57118
  Beta  occ. eigenvalues --   -0.55521  -0.54545  -0.52371  -0.45429  -0.45285
  Beta virt. eigenvalues --   -0.38242  -0.25144  -0.19571  -0.14866  -0.07896
  Beta virt. eigenvalues --   -0.05590  -0.04237  -0.03370  -0.01896  -0.00947
  Beta virt. eigenvalues --    0.00263   0.01317   0.03588   0.03876   0.05842
  Beta virt. eigenvalues --    0.09702   0.11236   0.13786   0.16656   0.17660
  Beta virt. eigenvalues --    0.19838   0.27982   0.29391   0.30440   0.33249
  Beta virt. eigenvalues --    0.34294   0.34439   0.36151   0.39001   0.39441
  Beta virt. eigenvalues --    0.40963   0.41003   0.41531   0.42739   0.46119
  Beta virt. eigenvalues --    0.48243   0.51300   0.51640   0.52960   0.53476
  Beta virt. eigenvalues --    0.57170   0.60827   0.62581   0.64562   0.66660
  Beta virt. eigenvalues --    0.67323   0.69015   0.72360   0.74221   0.74932
  Beta virt. eigenvalues --    0.76408   0.77128   0.77572   0.80650   0.81423
  Beta virt. eigenvalues --    0.82682   0.86617   0.88391   0.89236   0.95090
  Beta virt. eigenvalues --    0.98589   1.01418   1.01805   1.05045   1.08596
  Beta virt. eigenvalues --    1.09417   1.12973   1.17459   1.19194   1.22944
  Beta virt. eigenvalues --    1.23119   1.23711   1.27265   1.29723   1.32972
  Beta virt. eigenvalues --    1.44868   1.50690   1.52736   1.54773   1.55781
  Beta virt. eigenvalues --    1.56720   1.57992   1.63611   1.65870   1.68745
  Beta virt. eigenvalues --    1.70246   1.70901   1.72844   1.74603   1.77295
  Beta virt. eigenvalues --    1.81292   1.83451   1.84033   1.89994   1.91036
  Beta virt. eigenvalues --    1.96858   2.05655   2.06710   2.08545   2.11097
  Beta virt. eigenvalues --    2.11267   2.15384   2.17903   2.18618   2.19316
  Beta virt. eigenvalues --    2.26790   2.28768   2.33082   2.40485   2.43623
  Beta virt. eigenvalues --    2.46964   2.47045   2.55805   2.61110   2.64598
  Beta virt. eigenvalues --    2.66446   2.71186   2.76973   2.82956   3.01491
  Beta virt. eigenvalues --    3.21627   3.77070   3.79959   3.87196   3.91190
  Beta virt. eigenvalues --    3.98094   4.04686   4.10398   4.21978   4.26041
  Beta virt. eigenvalues --    4.57408
          Condensed to atoms (all electrons):
               1          2          3          4          5          6
     1  C    4.646995   0.525780  -0.000973  -0.019032  -0.032896   0.499183
     2  C    0.525780   5.080215   0.434325  -0.081638  -0.040173  -0.031725
     3  C   -0.000973   0.434325   4.637215   0.369474  -0.022877  -0.036571
     4  C   -0.019032  -0.081638   0.369474   5.160941   0.498616  -0.021972
     5  C   -0.032896  -0.040173  -0.022877   0.498616   5.007697   0.434423
     6  C    0.499183  -0.031725  -0.036571  -0.021972   0.434423   4.968505
     7  H    0.002908   0.000478   0.003120  -0.037314   0.360251  -0.029390
     8  O   -0.000014   0.000489  -0.001337  -0.051479   0.003174  -0.000080
     9  O    0.002361  -0.051766   0.343602  -0.049469   0.003719   0.000020
    10  H   -0.035683   0.357080  -0.034170   0.005781   0.000004   0.004715
    11  C   -0.000111   0.006366  -0.043295   0.263607  -0.029000   0.004956
    12  H   -0.000022  -0.000066   0.003671  -0.106016   0.003596   0.000263
    13  H   -0.000167   0.004751  -0.013088  -0.020132   0.000484   0.000027
    14  H   -0.030697   0.004895   0.000300   0.002670  -0.035004   0.361111
    15  C    0.359565  -0.057079   0.005124   0.000271   0.007090  -0.049444
    16  H   -0.024114  -0.004192  -0.000052   0.000018  -0.000209   0.001256
    17  H   -0.024156  -0.004188  -0.000049   0.000018  -0.000209   0.001279
    18  H   -0.031956   0.003817  -0.000172   0.000009   0.000364  -0.002913
               7          8          9         10         11         12
     1  C    0.002908  -0.000014   0.002361  -0.035683  -0.000111  -0.000022
     2  C    0.000478   0.000489  -0.051766   0.357080   0.006366  -0.000066
     3  C    0.003120  -0.001337   0.343602  -0.034170  -0.043295   0.003671
     4  C   -0.037314  -0.051479  -0.049469   0.005781   0.263607  -0.106016
     5  C    0.360251   0.003174   0.003719   0.000004  -0.029000   0.003596
     6  C   -0.029390  -0.000080   0.000020   0.004715   0.004956   0.000263
     7  H    0.472007   0.000101  -0.000040   0.000013  -0.002903   0.005815
     8  O    0.000101   7.974556  -0.032932   0.000009   0.464011  -0.042328
     9  O   -0.000040  -0.032932   8.102099  -0.000894  -0.004996  -0.000299
    10  H    0.000013   0.000009  -0.000894   0.475263  -0.000075   0.000002
    11  C   -0.002903   0.464011  -0.004996  -0.000075   4.723795   0.385828
    12  H    0.005815  -0.042328  -0.000299   0.000002   0.385828   0.551931
    13  H    0.000009   0.085325   0.191871   0.000082  -0.005890   0.001900
    14  H   -0.003163   0.000000   0.000002  -0.000088  -0.000065   0.000003
    15  C   -0.000144   0.000000  -0.000050  -0.005825  -0.000003   0.000000
    16  H    0.000002   0.000000   0.000001   0.001357   0.000000   0.000000
    17  H    0.000002   0.000000   0.000001   0.001373   0.000000   0.000000
    18  H   -0.000002   0.000000   0.000000   0.000076   0.000000   0.000000
              13         14         15         16         17         18
     1  C   -0.000167  -0.030697   0.359565  -0.024114  -0.024156  -0.031956
     2  C    0.004751   0.004895  -0.057079  -0.004192  -0.004188   0.003817
     3  C   -0.013088   0.000300   0.005124  -0.000052  -0.000049  -0.000172
     4  C   -0.020132   0.002670   0.000271   0.000018   0.000018   0.000009
     5  C    0.000484  -0.035004   0.007090  -0.000209  -0.000209   0.000364
     6  C    0.000027   0.361111  -0.049444   0.001256   0.001279  -0.002913
     7  H    0.000009  -0.003163  -0.000144   0.000002   0.000002  -0.000002
     8  O    0.085325   0.000000   0.000000   0.000000   0.000000   0.000000
     9  O    0.191871   0.000002  -0.000050   0.000001   0.000001   0.000000
    10  H    0.000082  -0.000088  -0.005825   0.001357   0.001373   0.000076
    11  C   -0.005890  -0.000065  -0.000003   0.000000   0.000000   0.000000
    12  H    0.001900   0.000003   0.000000   0.000000   0.000000   0.000000
    13  H    0.275017   0.000000   0.000002   0.000000   0.000000   0.000000
    14  H    0.000000   0.469228  -0.006238   0.000101   0.000099   0.004925
    15  C    0.000002  -0.006238   5.181305   0.367842   0.367891   0.373516
    16  H    0.000000   0.000101   0.367842   0.478475  -0.021388  -0.022098
    17  H    0.000000   0.000099   0.367891  -0.021388   0.478537  -0.022106
    18  H    0.000000   0.004925   0.373516  -0.022098  -0.022106   0.494701
          Atomic-Atomic Spin Densities.
               1          2          3          4          5          6
     1  C   -0.104374  -0.022283  -0.001896  -0.000474  -0.001943   0.009605
     2  C   -0.022283   0.166304   0.038823   0.000943  -0.001305  -0.008349
     3  C   -0.001896   0.038823   0.144115   0.034645  -0.003215  -0.005362
     4  C   -0.000474   0.000943   0.034645   0.190035  -0.027029  -0.010482
     5  C   -0.001943  -0.001305  -0.003215  -0.027029  -0.055219   0.028832
     6  C    0.009605  -0.008349  -0.005362  -0.010482   0.028832   0.416738
     7  H    0.000046  -0.000034   0.000037  -0.000030   0.001306  -0.000834
     8  O    0.000001  -0.000013  -0.000465  -0.003317   0.000052   0.000002
     9  O    0.000149  -0.006235  -0.060563  -0.005728   0.000168   0.000084
    10  H    0.000499   0.000488  -0.000534   0.000026  -0.000050   0.000060
    11  C   -0.000048  -0.000017  -0.001056   0.002502   0.001559  -0.000061
    12  H    0.000002  -0.000004   0.000083  -0.000378   0.000093  -0.000004
    13  H   -0.000002  -0.000054   0.001010  -0.000135  -0.000001   0.000000
    14  H    0.000048  -0.000017  -0.000034   0.000040  -0.000085  -0.000683
    15  C    0.006745   0.000321   0.000034  -0.000046   0.000074  -0.001810
    16  H    0.001048   0.000487   0.000015   0.000006  -0.000011  -0.000251
    17  H    0.001042   0.000484   0.000015   0.000006  -0.000011  -0.000248
    18  H    0.000280   0.000012  -0.000003   0.000001   0.000006  -0.000115
               7          8          9         10         11         12
     1  C    0.000046   0.000001   0.000149   0.000499  -0.000048   0.000002
     2  C   -0.000034  -0.000013  -0.006235   0.000488  -0.000017  -0.000004
     3  C    0.000037  -0.000465  -0.060563  -0.000534  -0.001056   0.000083
     4  C   -0.000030  -0.003317  -0.005728   0.000026   0.002502  -0.000378
     5  C    0.001306   0.000052   0.000168  -0.000050   0.001559   0.000093
     6  C   -0.000834   0.000002   0.000084   0.000060  -0.000061  -0.000004
     7  H    0.000295   0.000000   0.000000  -0.000001   0.000210  -0.000080
     8  O    0.000000   0.070322   0.001085   0.000000  -0.003129   0.000132
     9  O    0.000000   0.001085   0.323007  -0.000108   0.000176   0.000002
    10  H   -0.000001   0.000000  -0.000108  -0.008219   0.000003   0.000000
    11  C    0.000210  -0.003129   0.000176   0.000003  -0.040143   0.000979
    12  H   -0.000080   0.000132   0.000002   0.000000   0.000979  -0.000496
    13  H    0.000000   0.000052  -0.003234   0.000002   0.000163   0.000002
    14  H    0.000044   0.000000   0.000000   0.000003   0.000005   0.000000
    15  C    0.000001   0.000000   0.000000   0.000083   0.000000   0.000000
    16  H    0.000000   0.000000  -0.000001  -0.000011   0.000000   0.000000
    17  H    0.000000   0.000000  -0.000001  -0.000011   0.000000   0.000000
    18  H    0.000000   0.000000   0.000000  -0.000001   0.000000   0.000000
              13         14         15         16         17         18
     1  C   -0.000002   0.000048   0.006745   0.001048   0.001042   0.000280
     2  C   -0.000054  -0.000017   0.000321   0.000487   0.000484   0.000012
     3  C    0.001010  -0.000034   0.000034   0.000015   0.000015  -0.000003
     4  C   -0.000135   0.000040  -0.000046   0.000006   0.000006   0.000001
     5  C   -0.000001  -0.000085   0.000074  -0.000011  -0.000011   0.000006
     6  C    0.000000  -0.000683  -0.001810  -0.000251  -0.000248  -0.000115
     7  H    0.000000   0.000044   0.000001   0.000000   0.000000   0.000000
     8  O    0.000052   0.000000   0.000000   0.000000   0.000000   0.000000
     9  O   -0.003234   0.000000   0.000000  -0.000001  -0.000001   0.000000
    10  H    0.000002   0.000003   0.000083  -0.000011  -0.000011  -0.000001
    11  C    0.000163   0.000005   0.000000   0.000000   0.000000   0.000000
    12  H    0.000002   0.000000   0.000000   0.000000   0.000000   0.000000
    13  H   -0.004366   0.000000   0.000000   0.000000   0.000000   0.000000
    14  H    0.000000  -0.016836   0.000185  -0.000003  -0.000003  -0.000030
    15  C    0.000000   0.000185   0.001174  -0.001290  -0.001287  -0.000196
    16  H    0.000000  -0.000003  -0.001290  -0.001362   0.000060   0.000075
    17  H    0.000000  -0.000003  -0.001287   0.000060  -0.001344   0.000071
    18  H    0.000000  -0.000030  -0.000196   0.000075   0.000071  -0.000449
 Mulliken charges and spin densities:
               1          2
     1  C    0.163028  -0.111556
     2  C   -0.147368   0.169551
     3  C    0.355753   0.145648
     4  C    0.085648   0.180583
     5  C   -0.159051  -0.056779
     6  C   -0.103645   0.427123
     7  H    0.228251   0.000959
     8  O   -0.399496   0.064722
     9  O   -0.503231   0.248803
    10  H    0.230979  -0.007771
    11  C    0.237772  -0.038858
    12  H    0.195722   0.000332
    13  H    0.479808  -0.006564
    14  H    0.231921  -0.017367
    15  C   -0.543824   0.003990
    16  H    0.223000  -0.001239
    17  H    0.222896  -0.001227
    18  H    0.201838  -0.000350
 Sum of Mulliken charges =   1.00000   1.00000
 Mulliken charges and spin densities with hydrogens summed into heavy atoms:
               1          2
     1  C    0.163028  -0.111556
     2  C    0.083611   0.161780
     3  C    0.355753   0.145648
     4  C    0.085648   0.180583
     5  C    0.069201  -0.055820
     6  C    0.128276   0.409756
     8  O   -0.399496   0.064722
     9  O   -0.023423   0.242239
    11  C    0.433494  -0.038525
    15  C    0.103910   0.001174
 Electronic spatial extent (au):  <R**2>=           1499.2128
 Charge=              1.0000 electrons
 Dipole moment (field-independent basis, Debye):
    X=              3.3015    Y=              2.1601    Z=              0.0007  Tot=              3.9454
 Quadrupole moment (field-independent basis, Debye-Ang):
   XX=            -37.3546   YY=            -41.4756   ZZ=            -55.3869
   XY=             -1.6491   XZ=              0.0015   YZ=             -0.0003
 Traceless Quadrupole moment (field-independent basis, Debye-Ang):
   XX=              7.3844   YY=              3.2634   ZZ=            -10.6479
   XY=             -1.6491   XZ=              0.0015   YZ=             -0.0003
 Octapole moment (field-independent basis, Debye-Ang**2):
  XXX=             42.5857  YYY=             11.4712  ZZZ=              0.0078  XYY=             -2.9549
  XXY=              0.3577  XXZ=              0.0092  XZZ=             -5.4385  YZZ=             -4.2289
  YYZ=             -0.0053  XYZ=             -0.0017
 Hexadecapole moment (field-independent basis, Debye-Ang**3):
 XXXX=          -1264.2386 YYYY=           -393.7102 ZZZZ=            -57.0767 XXXY=              2.8388
 XXXZ=              0.0235 YYYX=              2.7933 YYYZ=              0.0081 ZZZX=              0.0282
 ZZZY=             -0.0043 XXYY=           -242.3882 XXZZ=           -229.6651 YYZZ=            -86.7863
 XXYZ=             -0.0119 YYXZ=             -0.0228 ZZXY=             -0.2255
 N-N= 4.926034097605D+02 E-N=-2.041864537054D+03  KE= 4.556750264579D+02
                          Isotropic Fermi Contact Couplings
        Atom                 a.u.       MegaHertz       Gauss      10(-4) cm-1
     1  C(13)             -0.01729     -19.44191      -6.93736      -6.48512
     2  C(13)              0.01432      16.10298       5.74594       5.37138
     3  C(13)              0.00464       5.21267       1.86001       1.73876
     4  C(13)              0.01582      17.78489       6.34609       5.93240
     5  C(13)             -0.01290     -14.49904      -5.17362      -4.83636
     6  C(13)              0.04186      47.05802      16.79147      15.69687
     7  H(1)               0.00029       1.30296       0.46493       0.43462
     8  O(17)              0.00717      -4.34597      -1.55075      -1.44966
     9  O(17)              0.04547     -27.56482      -9.83581      -9.19463
    10  H(1)              -0.00287     -12.80836      -4.57034      -4.27241
    11  C(13)             -0.00793      -8.91046      -3.17947      -2.97221
    12  H(1)               0.00003       0.13836       0.04937       0.04615
    13  H(1)              -0.00372     -16.61711      -5.92940      -5.54287
    14  H(1)              -0.00637     -28.47737     -10.16144      -9.49903
    15  C(13)              0.00115       1.28796       0.45958       0.42962
    16  H(1)              -0.00116      -5.18072      -1.84861      -1.72810
    17  H(1)              -0.00115      -5.15744      -1.84030      -1.72034
    18  H(1)              -0.00019      -0.84195      -0.30043      -0.28084
 --------------------------------------------------------
       Center         ----  Spin Dipole Couplings  ----
                      3XX-RR        3YY-RR        3ZZ-RR
 --------------------------------------------------------
     1   Atom        0.035255      0.042955     -0.078210
     2   Atom       -0.086817     -0.091731      0.178547
     3   Atom       -0.100989     -0.098421      0.199411
     4   Atom       -0.098774     -0.096362      0.195136
     5   Atom        0.017805      0.005462     -0.023267
     6   Atom       -0.215569     -0.216620      0.432189
     7   Atom        0.003501      0.002144     -0.005645
     8   Atom       -0.116242     -0.122274      0.238517
     9   Atom       -0.518158     -0.528823      1.046981
    10   Atom       -0.003557      0.009240     -0.005683
    11   Atom        0.020026      0.013863     -0.033890
    12   Atom        0.002794      0.000704     -0.003498
    13   Atom        0.038001     -0.019887     -0.018114
    14   Atom        0.000408      0.004318     -0.004725
    15   Atom        0.004391      0.000240     -0.004631
    16   Atom        0.002619     -0.000640     -0.001978
    17   Atom        0.002619     -0.000641     -0.001978
    18   Atom        0.005098     -0.002390     -0.002708
 --------------------------------------------------------
                        XY            XZ            YZ
 --------------------------------------------------------
     1   Atom       -0.001034      0.000000     -0.000008
     2   Atom       -0.004754     -0.000007     -0.000032
     3   Atom        0.006192      0.000028     -0.000009
     4   Atom       -0.002954     -0.000005     -0.000001
     5   Atom        0.000668     -0.000001     -0.000003
     6   Atom        0.004744      0.000026      0.000009
     7   Atom       -0.005346      0.000000      0.000000
     8   Atom       -0.000380      0.000032     -0.000048
     9   Atom        0.004695      0.000171     -0.000033
    10   Atom       -0.013117     -0.000002      0.000002
    11   Atom       -0.000415      0.000001      0.000001
    12   Atom       -0.002907      0.000000      0.000000
    13   Atom       -0.026009     -0.000006      0.000003
    14   Atom        0.030358      0.000001     -0.000001
    15   Atom       -0.002906     -0.000004     -0.000009
    16   Atom       -0.001323      0.001061     -0.000260
    17   Atom       -0.001322     -0.001056      0.000259
    18   Atom       -0.001642     -0.000005      0.000001
 --------------------------------------------------------


 ---------------------------------------------------------------------------------
              Anisotropic Spin Dipole Couplings in Principal Axis System
 ---------------------------------------------------------------------------------

       Atom             a.u.   MegaHertz   Gauss  10(-4) cm-1        Axes

              Baa    -0.0782   -10.495    -3.745    -3.501  0.0000  0.0001  1.0000
     1 C(13)  Bbb     0.0351     4.713     1.682     1.572  0.9914  0.1308  0.0000
              Bcc     0.0431     5.782     2.063     1.929 -0.1308  0.9914 -0.0001
 
              Baa    -0.0946   -12.698    -4.531    -4.236  0.5200  0.8541  0.0001
     2 C(13)  Bbb    -0.0839   -11.262    -4.018    -3.756  0.8541 -0.5200  0.0000
              Bcc     0.1785    23.959     8.549     7.992  0.0000 -0.0001  1.0000
 
              Baa    -0.1060   -14.228    -5.077    -4.746  0.7756 -0.6312 -0.0001
     3 C(13)  Bbb    -0.0934   -12.531    -4.471    -4.180  0.6312  0.7756  0.0000
              Bcc     0.1994    26.759     9.548     8.926  0.0001  0.0000  1.0000
 
              Baa    -0.1008   -13.521    -4.825    -4.510  0.8300  0.5577  0.0000
     4 C(13)  Bbb    -0.0944   -12.665    -4.519    -4.224 -0.5577  0.8300  0.0000
              Bcc     0.1951    26.185     9.344     8.735  0.0000  0.0000  1.0000
 
              Baa    -0.0233    -3.122    -1.114    -1.041  0.0000  0.0001  1.0000
     5 C(13)  Bbb     0.0054     0.728     0.260     0.243 -0.0539  0.9985 -0.0001
              Bcc     0.0178     2.394     0.854     0.799  0.9985  0.0539  0.0000
 
              Baa    -0.2209   -29.638   -10.576    -9.886 -0.6671  0.7450  0.0000
     6 C(13)  Bbb    -0.2113   -28.357   -10.119    -9.459  0.7450  0.6671  0.0000
              Bcc     0.4322    57.996    20.694    19.345  0.0000  0.0000  1.0000
 
              Baa    -0.0056    -3.012    -1.075    -1.005  0.0000  0.0000  1.0000
     7 H(1)   Bbb    -0.0026    -1.369    -0.489    -0.457  0.6611  0.7503  0.0000
              Bcc     0.0082     4.381     1.563     1.461  0.7503 -0.6611  0.0000
 
              Baa    -0.1223     8.849     3.158     2.952  0.0626  0.9980  0.0001
     8 O(17)  Bbb    -0.1162     8.409     3.001     2.805  0.9980 -0.0626 -0.0001
              Bcc     0.2385   -17.259    -6.158    -5.757  0.0001 -0.0001  1.0000
 
              Baa    -0.5306    38.394    13.700    12.807 -0.3532  0.9356  0.0001
     9 O(17)  Bbb    -0.5164    37.365    13.333    12.464  0.9356  0.3532 -0.0001
              Bcc     1.0470   -75.759   -27.033   -25.270  0.0001  0.0000  1.0000
 
              Baa    -0.0118    -6.271    -2.238    -2.092  0.8481  0.5299  0.0001
    10 H(1)   Bbb    -0.0057    -3.032    -1.082    -1.011  0.0000 -0.0001  1.0000
              Bcc     0.0174     9.303     3.319     3.103 -0.5299  0.8481  0.0001
 
              Baa    -0.0339    -4.548    -1.623    -1.517  0.0000  0.0000  1.0000
    11 C(13)  Bbb     0.0138     1.857     0.662     0.619  0.0669  0.9978  0.0000
              Bcc     0.0201     2.691     0.960     0.898  0.9978 -0.0669  0.0000
 
              Baa    -0.0035    -1.867    -0.666    -0.623  0.0000 -0.0001  1.0000
    12 H(1)   Bbb    -0.0013    -0.715    -0.255    -0.238  0.5752  0.8180  0.0001
              Bcc     0.0048     2.581     0.921     0.861  0.8180 -0.5752 -0.0001
 
              Baa    -0.0299   -15.930    -5.684    -5.314  0.3579  0.9338  0.0000
    13 H(1)   Bbb    -0.0181    -9.665    -3.449    -3.224  0.0001  0.0000  1.0000
              Bcc     0.0480    25.594     9.133     8.537  0.9338 -0.3579 -0.0001
 
              Baa    -0.0281   -14.971    -5.342    -4.994  0.7295 -0.6840  0.0000
    14 H(1)   Bbb    -0.0047    -2.521    -0.900    -0.841  0.0000  0.0000  1.0000
              Bcc     0.0328    17.492     6.241     5.835  0.6840  0.7295  0.0000
 
              Baa    -0.0046    -0.621    -0.222    -0.207  0.0012  0.0025  1.0000
    15 C(13)  Bbb    -0.0013    -0.168    -0.060    -0.056  0.4576  0.8892 -0.0027
              Bcc     0.0059     0.790     0.282     0.263  0.8892 -0.4576  0.0001
 
              Baa    -0.0022    -1.180    -0.421    -0.394 -0.2210 -0.0251  0.9749
    16 H(1)   Bbb    -0.0011    -0.587    -0.209    -0.196  0.3097  0.9461  0.0946
              Bcc     0.0033     1.767     0.630     0.589  0.9248 -0.3228  0.2014
 
              Baa    -0.0022    -1.179    -0.421    -0.393  0.2199  0.0245  0.9752
    17 H(1)   Bbb    -0.0011    -0.587    -0.209    -0.196  0.3098  0.9462 -0.0936
              Bcc     0.0033     1.766     0.630     0.589  0.9250 -0.3227 -0.2005
 
              Baa    -0.0027    -1.459    -0.521    -0.487  0.2052  0.9787  0.0039
    18 H(1)   Bbb    -0.0027    -1.445    -0.516    -0.482 -0.0002 -0.0039  1.0000
              Bcc     0.0054     2.904     1.036     0.969  0.9787 -0.2052 -0.0007
 

 ---------------------------------------------------------------------------------

 No NMR shielding tensors so no spin-rotation constants.
 Leave Link  601 at Wed Dec 03 17:22:45 2025, MaxMem=   104857600 cpu:               0.0 elap:               0.3
 (Enter D:\Gaussian\G16W\l9999.exe)
 1|1|UNPC-PC-20250526LCFF|SP|UB3LYP|6-31G(d)|C8H8O2(1+,2)|ADMINISTRATOR
 |03-Dec-2025|0||#P B3LYP/6-31G* SCF=conver=7 out=wfn||Generated by Mul
 tiwfn (http://sobereva.com/multiwfn)||1,2|C,0,1.899863,-0.019337,-0.00
 0094|C,0,0.96939,-1.055743,-0.000091|C,0,-0.402437,-0.791396,-0.000017
 |C,0,-0.852429,0.555274,0.000019|C,0,0.097462,1.589862,0.000002|C,0,1.
 451428,1.31498,-0.00006|H,0,-0.252304,2.61778,0.000002|O,0,-3.161317,0
 .004136,0.000004|O,0,-1.259569,-1.82043,0.000017|H,0,1.287742,-2.09218
 4,-0.000149|C,0,-2.27305,0.851991,0.000029|H,0,-2.541694,1.925634,0.00
 012|H,0,-2.168995,-1.44412,0.000102|H,0,2.173214,2.123274,-0.000099|C,
 0,3.375258,-0.333924,0.000086|H,0,3.649291,-0.920409,0.882027|H,0,3.64
 8608,-0.925132,-0.878882|H,0,3.978316,0.575267,-0.002528||Version=EM64
 W-G16RevA.03|State=2-A|HF=-459.815954|S2=0.767507|S2-1=0.|S2A=0.750198
 |RMSD=7.649e-008|Dipole=1.2988966,0.8498573,0.0002845|Quadrupole=5.490
 1489,2.4262721,-7.916421,-1.2260381,0.0011396,-0.0002373|PG=C01 [X(C8H
 8O2)]||@

 Writing a WFN file to "N-1.wfn"


  THE LARGE PRINT GIVETH,
  AND THE SMALL PRINT TAKETH AWAY.

                     -- TOM WAITS
 Job cpu time:       0 days  0 hours  0 minutes 53.0 seconds.
 Elapsed time:       0 days  0 hours  0 minutes 53.0 seconds.
 File lengths (MBytes):  RWF=     32 Int=      0 D2E=      0 Chk=      3 Scr=      1
 Normal termination of Gaussian 16 at Wed Dec 03 17:22:45 2025.
