 Generated by Multiwfn (http://sobereva.com/multiwfn)
GAUSSIAN             71 MOL ORBITALS    312 PRIMITIVES       18 NUCLEI
  C    1    (CENTRE  1)   3.59022074 -0.03654164 -0.00017777  CHARGE =  6.0
  C    2    (CENTRE  2)   1.83188161 -1.99506513 -0.00017210  CHARGE =  6.0
  C    3    (CENTRE  3)  -0.76049571 -1.49552170 -0.00003226  CHARGE =  6.0
  C    4    (CENTRE  4)  -1.61085735  1.04931579  0.00003577  CHARGE =  6.0
  C    5    (CENTRE  5)   0.18417649  3.00440376  0.00000365  CHARGE =  6.0
  C    6    (CENTRE  6)   2.74280141  2.48495206 -0.00011351  CHARGE =  6.0
  H    7    (CENTRE  7)  -0.47678545  4.94688725  0.00000365  CHARGE =  1.0
  O    8    (CENTRE  8)  -5.97402332  0.00781591  0.00000743  CHARGE =  8.0
  O    9    (CENTRE  9)  -2.38024045 -3.44011413  0.00003199  CHARGE =  8.0
  H   10    (CENTRE 10)   2.43347969 -3.95365477 -0.00028170  CHARGE =  1.0
  C   11    (CENTRE 11)  -4.29544197  1.61002966  0.00005467  CHARGE =  6.0
  H   12    (CENTRE 12)  -4.80310555  3.63892088  0.00022664  CHARGE =  1.0
  H   13    (CENTRE 13)  -4.09880652 -2.72899129  0.00019262  CHARGE =  1.0
  H   14    (CENTRE 14)   4.10677927  4.01240634 -0.00018721  CHARGE =  1.0
  C   15    (CENTRE 15)   6.37831322 -0.63102491  0.00016239  CHARGE =  6.0
  H   16    (CENTRE 16)   6.89616054 -1.73932094  1.66678933  CHARGE =  1.0
  H   17    (CENTRE 17)   6.89486985 -1.74824612 -1.66084641  CHARGE =  1.0
  H   18    (CENTRE 18)   7.51792768  1.08709707 -0.00477736  CHARGE =  1.0
CENTRE ASSIGNMENTS    1  1  1  1  1  1  1  1  1  1  1  1  1  1  1  1  1  1  1  1
CENTRE ASSIGNMENTS    1  1  1  1  1  1  1  1  2  2  2  2  2  2  2  2  2  2  2  2
CENTRE ASSIGNMENTS    2  2  2  2  2  2  2  2  2  2  2  2  2  2  2  2  3  3  3  3
CENTRE ASSIGNMENTS    3  3  3  3  3  3  3  3  3  3  3  3  3  3  3  3  3  3  3  3
CENTRE ASSIGNMENTS    3  3  3  3  4  4  4  4  4  4  4  4  4  4  4  4  4  4  4  4
CENTRE ASSIGNMENTS    4  4  4  4  4  4  4  4  4  4  4  4  5  5  5  5  5  5  5  5
CENTRE ASSIGNMENTS    5  5  5  5  5  5  5  5  5  5  5  5  5  5  5  5  5  5  5  5
CENTRE ASSIGNMENTS    6  6  6  6  6  6  6  6  6  6  6  6  6  6  6  6  6  6  6  6
CENTRE ASSIGNMENTS    6  6  6  6  6  6  6  6  7  7  7  7  8  8  8  8  8  8  8  8
CENTRE ASSIGNMENTS    8  8  8  8  8  8  8  8  8  8  8  8  8  8  8  8  8  8  8  8
CENTRE ASSIGNMENTS    9  9  9  9  9  9  9  9  9  9  9  9  9  9  9  9  9  9  9  9
CENTRE ASSIGNMENTS    9  9  9  9  9  9  9  9 10 10 10 10 11 11 11 11 11 11 11 11
CENTRE ASSIGNMENTS   11 11 11 11 11 11 11 11 11 11 11 11 11 11 11 11 11 11 11 11
CENTRE ASSIGNMENTS   12 12 12 12 13 13 13 13 14 14 14 14 15 15 15 15 15 15 15 15
CENTRE ASSIGNMENTS   15 15 15 15 15 15 15 15 15 15 15 15 15 15 15 15 15 15 15 15
CENTRE ASSIGNMENTS   16 16 16 16 17 17 17 17 18 18 18 18
TYPE ASSIGNMENTS      1  1  1  1  1  1  1  1  1  2  2  2  3  3  3  4  4  4  1  2
TYPE ASSIGNMENTS      3  4  5  6  7  8  9 10  1  1  1  1  1  1  1  1  1  2  2  2
TYPE ASSIGNMENTS      3  3  3  4  4  4  1  2  3  4  5  6  7  8  9 10  1  1  1  1
TYPE ASSIGNMENTS      1  1  1  1  1  2  2  2  3  3  3  4  4  4  1  2  3  4  5  6
TYPE ASSIGNMENTS      7  8  9 10  1  1  1  1  1  1  1  1  1  2  2  2  3  3  3  4
TYPE ASSIGNMENTS      4  4  1  2  3  4  5  6  7  8  9 10  1  1  1  1  1  1  1  1
TYPE ASSIGNMENTS      1  2  2  2  3  3  3  4  4  4  1  2  3  4  5  6  7  8  9 10
TYPE ASSIGNMENTS      1  1  1  1  1  1  1  1  1  2  2  2  3  3  3  4  4  4  1  2
TYPE ASSIGNMENTS      3  4  5  6  7  8  9 10  1  1  1  1  1  1  1  1  1  1  1  1
TYPE ASSIGNMENTS      1  2  2  2  3  3  3  4  4  4  1  2  3  4  5  6  7  8  9 10
TYPE ASSIGNMENTS      1  1  1  1  1  1  1  1  1  2  2  2  3  3  3  4  4  4  1  2
TYPE ASSIGNMENTS      3  4  5  6  7  8  9 10  1  1  1  1  1  1  1  1  1  1  1  1
TYPE ASSIGNMENTS      1  2  2  2  3  3  3  4  4  4  1  2  3  4  5  6  7  8  9 10
TYPE ASSIGNMENTS      1  1  1  1  1  1  1  1  1  1  1  1  1  1  1  1  1  1  1  1
TYPE ASSIGNMENTS      1  2  2  2  3  3  3  4  4  4  1  2  3  4  5  6  7  8  9 10
TYPE ASSIGNMENTS      1  1  1  1  1  1  1  1  1  1  1  1
EXPONENTS  0.3047525D+04 0.4573695D+03 0.1039487D+03 0.2921016D+02 0.9286663D+01
EXPONENTS  0.3163927D+01 0.7868272D+01 0.1881289D+01 0.5442493D+00 0.7868272D+01
EXPONENTS  0.1881289D+01 0.5442493D+00 0.7868272D+01 0.1881289D+01 0.5442493D+00
EXPONENTS  0.7868272D+01 0.1881289D+01 0.5442493D+00 0.1687145D+00 0.1687145D+00
EXPONENTS  0.1687145D+00 0.1687145D+00 0.8000000D+00 0.8000000D+00 0.8000000D+00
EXPONENTS  0.8000000D+00 0.8000000D+00 0.8000000D+00 0.3047525D+04 0.4573695D+03
EXPONENTS  0.1039487D+03 0.2921016D+02 0.9286663D+01 0.3163927D+01 0.7868272D+01
EXPONENTS  0.1881289D+01 0.5442493D+00 0.7868272D+01 0.1881289D+01 0.5442493D+00
EXPONENTS  0.7868272D+01 0.1881289D+01 0.5442493D+00 0.7868272D+01 0.1881289D+01
EXPONENTS  0.5442493D+00 0.1687145D+00 0.1687145D+00 0.1687145D+00 0.1687145D+00
EXPONENTS  0.8000000D+00 0.8000000D+00 0.8000000D+00 0.8000000D+00 0.8000000D+00
EXPONENTS  0.8000000D+00 0.3047525D+04 0.4573695D+03 0.1039487D+03 0.2921016D+02
EXPONENTS  0.9286663D+01 0.3163927D+01 0.7868272D+01 0.1881289D+01 0.5442493D+00
EXPONENTS  0.7868272D+01 0.1881289D+01 0.5442493D+00 0.7868272D+01 0.1881289D+01
EXPONENTS  0.5442493D+00 0.7868272D+01 0.1881289D+01 0.5442493D+00 0.1687145D+00
EXPONENTS  0.1687145D+00 0.1687145D+00 0.1687145D+00 0.8000000D+00 0.8000000D+00
EXPONENTS  0.8000000D+00 0.8000000D+00 0.8000000D+00 0.8000000D+00 0.3047525D+04
EXPONENTS  0.4573695D+03 0.1039487D+03 0.2921016D+02 0.9286663D+01 0.3163927D+01
EXPONENTS  0.7868272D+01 0.1881289D+01 0.5442493D+00 0.7868272D+01 0.1881289D+01
EXPONENTS  0.5442493D+00 0.7868272D+01 0.1881289D+01 0.5442493D+00 0.7868272D+01
EXPONENTS  0.1881289D+01 0.5442493D+00 0.1687145D+00 0.1687145D+00 0.1687145D+00
EXPONENTS  0.1687145D+00 0.8000000D+00 0.8000000D+00 0.8000000D+00 0.8000000D+00
EXPONENTS  0.8000000D+00 0.8000000D+00 0.3047525D+04 0.4573695D+03 0.1039487D+03
EXPONENTS  0.2921016D+02 0.9286663D+01 0.3163927D+01 0.7868272D+01 0.1881289D+01
EXPONENTS  0.5442493D+00 0.7868272D+01 0.1881289D+01 0.5442493D+00 0.7868272D+01
EXPONENTS  0.1881289D+01 0.5442493D+00 0.7868272D+01 0.1881289D+01 0.5442493D+00
EXPONENTS  0.1687145D+00 0.1687145D+00 0.1687145D+00 0.1687145D+00 0.8000000D+00
EXPONENTS  0.8000000D+00 0.8000000D+00 0.8000000D+00 0.8000000D+00 0.8000000D+00
EXPONENTS  0.3047525D+04 0.4573695D+03 0.1039487D+03 0.2921016D+02 0.9286663D+01
EXPONENTS  0.3163927D+01 0.7868272D+01 0.1881289D+01 0.5442493D+00 0.7868272D+01
EXPONENTS  0.1881289D+01 0.5442493D+00 0.7868272D+01 0.1881289D+01 0.5442493D+00
EXPONENTS  0.7868272D+01 0.1881289D+01 0.5442493D+00 0.1687145D+00 0.1687145D+00
EXPONENTS  0.1687145D+00 0.1687145D+00 0.8000000D+00 0.8000000D+00 0.8000000D+00
EXPONENTS  0.8000000D+00 0.8000000D+00 0.8000000D+00 0.1873114D+02 0.2825394D+01
EXPONENTS  0.6401217D+00 0.1612778D+00 0.5484672D+04 0.8252349D+03 0.1880470D+03
EXPONENTS  0.5296450D+02 0.1689757D+02 0.5799635D+01 0.1553962D+02 0.3599934D+01
EXPONENTS  0.1013762D+01 0.1553962D+02 0.3599934D+01 0.1013762D+01 0.1553962D+02
EXPONENTS  0.3599934D+01 0.1013762D+01 0.1553962D+02 0.3599934D+01 0.1013762D+01
EXPONENTS  0.2700058D+00 0.2700058D+00 0.2700058D+00 0.2700058D+00 0.8000000D+00
EXPONENTS  0.8000000D+00 0.8000000D+00 0.8000000D+00 0.8000000D+00 0.8000000D+00
EXPONENTS  0.5484672D+04 0.8252349D+03 0.1880470D+03 0.5296450D+02 0.1689757D+02
EXPONENTS  0.5799635D+01 0.1553962D+02 0.3599934D+01 0.1013762D+01 0.1553962D+02
EXPONENTS  0.3599934D+01 0.1013762D+01 0.1553962D+02 0.3599934D+01 0.1013762D+01
EXPONENTS  0.1553962D+02 0.3599934D+01 0.1013762D+01 0.2700058D+00 0.2700058D+00
EXPONENTS  0.2700058D+00 0.2700058D+00 0.8000000D+00 0.8000000D+00 0.8000000D+00
EXPONENTS  0.8000000D+00 0.8000000D+00 0.8000000D+00 0.1873114D+02 0.2825394D+01
EXPONENTS  0.6401217D+00 0.1612778D+00 0.3047525D+04 0.4573695D+03 0.1039487D+03
EXPONENTS  0.2921016D+02 0.9286663D+01 0.3163927D+01 0.7868272D+01 0.1881289D+01
EXPONENTS  0.5442493D+00 0.7868272D+01 0.1881289D+01 0.5442493D+00 0.7868272D+01
EXPONENTS  0.1881289D+01 0.5442493D+00 0.7868272D+01 0.1881289D+01 0.5442493D+00
EXPONENTS  0.1687145D+00 0.1687145D+00 0.1687145D+00 0.1687145D+00 0.8000000D+00
EXPONENTS  0.8000000D+00 0.8000000D+00 0.8000000D+00 0.8000000D+00 0.8000000D+00
EXPONENTS  0.1873114D+02 0.2825394D+01 0.6401217D+00 0.1612778D+00 0.1873114D+02
EXPONENTS  0.2825394D+01 0.6401217D+00 0.1612778D+00 0.1873114D+02 0.2825394D+01
EXPONENTS  0.6401217D+00 0.1612778D+00 0.3047525D+04 0.4573695D+03 0.1039487D+03
EXPONENTS  0.2921016D+02 0.9286663D+01 0.3163927D+01 0.7868272D+01 0.1881289D+01
EXPONENTS  0.5442493D+00 0.7868272D+01 0.1881289D+01 0.5442493D+00 0.7868272D+01
EXPONENTS  0.1881289D+01 0.5442493D+00 0.7868272D+01 0.1881289D+01 0.5442493D+00
EXPONENTS  0.1687145D+00 0.1687145D+00 0.1687145D+00 0.1687145D+00 0.8000000D+00
EXPONENTS  0.8000000D+00 0.8000000D+00 0.8000000D+00 0.8000000D+00 0.8000000D+00
EXPONENTS  0.1873114D+02 0.2825394D+01 0.6401217D+00 0.1612778D+00 0.1873114D+02
EXPONENTS  0.2825394D+01 0.6401217D+00 0.1612778D+00 0.1873114D+02 0.2825394D+01
EXPONENTS  0.6401217D+00 0.1612778D+00
MO    1     MO 0.0        OCC NO =    1.0000000  ORB. ENERGY =  -19.422179
  0.10335870D-05  0.19067662D-05  0.30781119D-05  0.40067871D-05  0.34189987D-05
  0.11804981D-05  0.80108369D-05  0.36921874D-05 -0.10353279D-04 -0.88633233D-04
 -0.67958341D-04 -0.33915975D-04 -0.47730537D-04 -0.36596749D-04 -0.18264343D-04
  0.32408011D-08  0.24848407D-08  0.12401097D-08  0.33163829D-03 -0.71643737D-04
 -0.63710406D-05  0.32452185D-08  0.18130410D-04  0.46172874D-04  0.22652490D-04
  0.20492582D-04  0.13031331D-07 -0.25266625D-08  0.68408468D-05  0.12620027D-04
  0.20372636D-04  0.26519119D-04  0.22628812D-04  0.78131849D-05 -0.68460032D-04
 -0.31553166D-04  0.88478372D-04  0.12106289D-04  0.92823347D-05  0.46325356D-05
  0.18938500D-04  0.14520841D-04  0.72469172D-05 -0.37619870D-09 -0.28844530D-09
 -0.14395442D-09 -0.32406031D-03  0.33906502D-04 -0.32706347D-03 -0.10610555D-07
 -0.96584816D-04 -0.66470887D-04  0.29034050D-04  0.17117895D-04  0.13893648D-07
 -0.58448916D-08 -0.36636561D-04 -0.67587300D-04 -0.10910686D-03 -0.14202471D-03
 -0.12118994D-03 -0.41843975D-04 -0.39133523D-04 -0.18036605D-04  0.50576523D-04
 -0.32425811D-03 -0.24862055D-03 -0.12407908D-03 -0.47206982D-03 -0.36195319D-03
 -0.18064001D-03  0.59206765D-08  0.45395992D-08  0.22655782D-08  0.20343798D-03
  0.42621880D-03  0.79349312D-03 -0.96015201D-08 -0.14819174D-03 -0.35261127D-04
 -0.16023796D-03 -0.17072186D-03 -0.26021066D-08  0.16863950D-07  0.10458318D-04
  0.19293555D-04  0.31145780D-04  0.40542551D-04  0.34595033D-04  0.11944833D-04
 -0.88587903D-04 -0.40830084D-04  0.11449182D-03  0.11647615D-03  0.89306528D-04
  0.44570216D-04  0.16730917D-04  0.12828206D-04  0.64021737D-05 -0.66410124D-08
 -0.50919071D-08 -0.25412185D-08 -0.56843848D-03 -0.52561882D-03  0.22708142D-03
  0.21545229D-07 -0.55826216D-04 -0.14928857D-03  0.35908747D-04  0.11396289D-04
  0.10832013D-07 -0.11179113D-07 -0.32187524D-05 -0.59379697D-05 -0.95857242D-05
 -0.12477765D-04 -0.10647299D-04 -0.36762566D-05  0.21398851D-04  0.98627107D-05
 -0.27656070D-04 -0.49254399D-04 -0.37765149D-04 -0.18847456D-04 -0.81341706D-04
 -0.62367661D-04 -0.31125834D-04  0.26613256D-08  0.20405357D-08  0.10183703D-08
  0.35006198D-03  0.64590967D-04 -0.18594983D-03 -0.58898465D-08  0.10114643D-04
  0.43914619D-04  0.52118345D-07  0.60088050D-04  0.10462776D-08  0.37826044D-08
  0.73000690D-05  0.13467202D-04  0.21740240D-04  0.28299332D-04  0.24147872D-04
  0.83376797D-05 -0.29548314D-04 -0.13618791D-04  0.38188511D-04  0.18026263D-05
  0.13821395D-05  0.68978447D-06 -0.31516889D-04 -0.24165152D-04 -0.12060104D-04
  0.44103103D-10  0.33815462D-10  0.16876286D-10 -0.24355137D-03  0.80917241D-04
  0.81838514D-04 -0.31389229D-08 -0.98287957D-05  0.31620391D-06  0.32829505D-04
  0.45024241D-04  0.61693698D-08 -0.11367688D-08  0.70967312D-05  0.12037399D-04
  0.13704154D-04  0.61295578D-04  0.66426619D-05  0.12226044D-04  0.19784047D-04
  0.26006683D-04  0.22305781D-04  0.76267254D-05 -0.36398474D-04 -0.16240928D-04
  0.47959679D-04  0.49070942D-04  0.37806516D-04  0.16599097D-04  0.11714705D-03
  0.90255486D-04  0.39627020D-04 -0.24346644D-07 -0.18757776D-07 -0.82356742D-08
 -0.10575756D-03 -0.27318282D-04 -0.11803190D-03  0.82906250D-08 -0.24751183D-04
  0.37920536D-04  0.60074204D-04 -0.62910525D-04  0.74264243D-08 -0.10193018D-07
  0.82553946D+00  0.15194333D+01  0.24587299D+01  0.32320693D+01  0.27721270D+01
  0.94783731D+00 -0.15789313D-01 -0.70451605D-02  0.20804453D-01 -0.59463106D-03
 -0.45813118D-03 -0.20114426D-03  0.30991104D-02  0.23876975D-02  0.10483278D-02
  0.15144251D-06  0.11667829D-06  0.51228054D-07  0.42276708D-02  0.25710512D-03
  0.26820049D-03 -0.92484932D-08 -0.94517873D-02 -0.95188508D-02 -0.94268259D-02
  0.15726265D-03  0.10272399D-07 -0.11076562D-07 -0.11665695D-04 -0.19787226D-04
 -0.22527057D-04 -0.14186462D-03  0.61079795D-05  0.11268030D-04  0.18190093D-04
  0.23678097D-04  0.20204563D-04  0.69761501D-05 -0.16828558D-04 -0.77562669D-05
  0.21749382D-04 -0.13127918D-03 -0.10065655D-03 -0.50234674D-04 -0.21310382D-04
 -0.16339449D-04 -0.81545302D-05 -0.48263215D-08 -0.37005172D-08 -0.18468174D-08
 -0.25354565D-03 -0.16227538D-03 -0.65799825D-04 -0.62382891D-08  0.14630715D-04
  0.54584889D-04  0.49962505D-05  0.29682895D-04  0.20546575D-08  0.95878753D-09
  0.13326051D-04  0.22603506D-04  0.25733292D-04  0.21497498D-04  0.88209702D-04
  0.14962035D-03  0.17033748D-03 -0.28296670D-03 -0.46830939D-05 -0.79434137D-05
 -0.90432957D-05 -0.31268580D-04  0.55856638D-05  0.10304459D-04  0.16634592D-04
  0.21653296D-04  0.18476797D-04  0.63795939D-05 -0.19884701D-04 -0.91648407D-05
  0.25699170D-04  0.62968594D-05  0.48280324D-05  0.24095266D-05 -0.30287847D-05
 -0.23222800D-05 -0.11589805D-05 -0.74669074D-08 -0.57251510D-08 -0.28572516D-08
 -0.45990627D-04  0.15808836D-04 -0.41974901D-06  0.36173286D-08 -0.38047402D-05
  0.19755877D-04  0.19229890D-04  0.10015054D-04 -0.29818349D-08 -0.15814842D-07
  0.24395895D-05  0.41380056D-05  0.47109731D-05  0.48271386D-05  0.24390401D-05
  0.41370737D-05  0.47099122D-05  0.48419327D-05  0.26201362D-05  0.44442469D-05
  0.50596180D-05  0.17150455D-05
MO    2     MO 0.0        OCC NO =    1.0000000  ORB. ENERGY =  -19.348270
 -0.26264813D-05 -0.48453451D-05 -0.78218894D-05 -0.10181776D-04 -0.86881278D-05
 -0.29998018D-05  0.10165705D-04  0.46853640D-05 -0.13138250D-04  0.41531375D-04
  0.31843624D-04  0.15892200D-04  0.15932067D-04  0.12215699D-04  0.60964898D-05
 -0.88114831D-08 -0.67560864D-08 -0.33717606D-08 -0.12645530D-04 -0.48551327D-04
  0.53240194D-04  0.15338952D-07 -0.37045540D-05  0.54525743D-05 -0.12532489D-04
 -0.15544134D-04  0.11419111D-07  0.11551299D-09  0.12739249D-05  0.23501428D-05
  0.37938591D-05  0.49384773D-05  0.42140116D-05  0.14549969D-05 -0.72876928D-05
 -0.33588910D-05  0.94186809D-05 -0.15879998D-04 -0.12175775D-04 -0.60765651D-05
 -0.21694019D-04 -0.16633598D-04 -0.83013312D-05  0.88306711D-08  0.67707985D-08
  0.33791030D-08 -0.85498967D-04  0.85995980D-04  0.70247194D-04 -0.91484777D-08
 -0.24194373D-04  0.71961550D-05  0.55279659D-05 -0.27228564D-04  0.39843322D-08
 -0.73362262D-08  0.87934522D-05  0.16222202D-04  0.26187664D-04  0.34088558D-04
  0.29087828D-04  0.10043328D-04 -0.20049594D-04 -0.92408396D-05  0.25912279D-04
 -0.25476781D-04 -0.19533979D-04 -0.97488248D-05 -0.61990957D-04 -0.47530734D-04
 -0.23721168D-04 -0.63682597D-08 -0.48827776D-08 -0.24368482D-08 -0.19752086D-03
  0.88954895D-04 -0.28119492D-03 -0.47066242D-08  0.80982790D-04  0.92388403D-05
  0.26520906D-04  0.12591407D-03  0.73613604D-08  0.11374442D-09 -0.15384842D-04
 -0.28382030D-04 -0.45817397D-04 -0.59640637D-04 -0.50891464D-04 -0.17571599D-04
  0.43625482D-04  0.20106945D-04 -0.56381972D-04  0.15124475D-04  0.11596488D-04
  0.57874602D-05  0.10402494D-03  0.79759722D-04  0.39805691D-04  0.11990151D-08
  0.91932870D-09  0.45880945D-09  0.31500856D-03 -0.84836636D-04 -0.35493907D-03
 -0.87839519D-08 -0.55551386D-04  0.17016127D-04 -0.67593485D-04 -0.20552957D-03
 -0.70913622D-09  0.59319378D-08  0.34771057D-06  0.64145810D-06  0.10355123D-05
  0.13479293D-05  0.11501905D-05  0.39713314D-06  0.96529481D-05  0.44490350D-05
 -0.12475558D-04 -0.12257443D-03 -0.93982296D-04 -0.46903753D-04 -0.25431746D-04
 -0.19499450D-04 -0.97315921D-05  0.35560877D-08  0.27265825D-08  0.13607558D-08
  0.29581031D-03  0.81174449D-04 -0.82284974D-04 -0.68132107D-09  0.55732788D-04
  0.16287059D-04  0.12844289D-04 -0.67577157D-05 -0.10321989D-07 -0.16364017D-08
  0.73559395D-05  0.13570272D-04  0.21906627D-04  0.28515919D-04  0.24332685D-04
  0.84014914D-05 -0.33647240D-04 -0.15507982D-04  0.43486001D-04  0.30150933D-04
  0.23117823D-04  0.11537414D-04 -0.27753420D-06 -0.21279562D-06 -0.10619993D-06
 -0.17244853D-08 -0.13222259D-08 -0.65988341D-09 -0.23349800D-03  0.85349083D-04
  0.33182468D-04 -0.74579641D-08 -0.34072393D-04  0.30699428D-05  0.30578970D-04
  0.13187018D-04  0.78022523D-08  0.61007238D-08  0.13759845D-04  0.23339301D-04
  0.26570969D-04  0.10040382D-04  0.82563432D+00  0.15196079D+01  0.24590124D+01
  0.32324406D+01  0.27724456D+01  0.94794622D+00 -0.15745641D-01 -0.70256743D-02
  0.20746910D-01  0.28032256D-02  0.21597342D-02  0.94823965D-03  0.22338714D-02
  0.17210775D-02  0.75564571D-03  0.44109513D-07  0.33984002D-07  0.14920807D-07
  0.40166317D-02  0.40629148D-03  0.22205264D-03  0.14972249D-07 -0.89741156D-02
 -0.90346737D-02 -0.93142040D-02  0.45205268D-03  0.28937357D-07 -0.32557268D-08
 -0.67174997D-05 -0.12363785D-04 -0.20006939D-04 -0.26299681D-04 -0.22557084D-04
 -0.77126499D-05  0.24407808D-04  0.10890716D-04 -0.32160431D-04  0.18264088D-03
  0.14071495D-03  0.61781444D-04  0.72433410D-04  0.55806038D-04  0.24501856D-04
 -0.43337749D-07 -0.33389399D-07 -0.14659745D-07  0.55417768D-04 -0.21643074D-03
 -0.63743398D-05  0.22240709D-07  0.14829840D-04 -0.76167020D-04 -0.25537873D-04
 -0.15039850D-03 -0.30887258D-07  0.24151719D-07  0.87585924D-05  0.14856231D-04
  0.16913293D-04  0.22295091D-04  0.15118798D-05  0.27891231D-05  0.45025094D-05
  0.58609294D-05  0.50011417D-05  0.17267740D-05 -0.21386438D-03 -0.98569899D-04
  0.27640028D-03 -0.60786561D-04 -0.46607280D-04 -0.23260299D-04 -0.41637028D-04
 -0.31924632D-04 -0.15932629D-04 -0.13294093D-07 -0.10193067D-07 -0.50870549D-08
 -0.67032449D-03  0.29630260D-03  0.48192879D-03  0.18603535D-07 -0.46156350D-03
 -0.52826879D-03 -0.53633906D-04 -0.78071100D-03 -0.21132538D-07 -0.16249606D-07
 -0.18374872D-04 -0.31167260D-04 -0.35482824D-04 -0.11269653D-03 -0.44280290D-04
 -0.75107753D-04 -0.85507522D-04 -0.20097801D-03  0.74322482D-06  0.12606500D-05
  0.14352054D-05 -0.18141485D-04  0.10607939D-05  0.19569577D-05  0.31591365D-05
  0.41122570D-05  0.35089963D-05  0.12115721D-05 -0.10517950D-05 -0.48477137D-06
  0.13593495D-05 -0.26983282D-04 -0.20689069D-04 -0.10325296D-04 -0.48805565D-06
 -0.37421012D-06 -0.18675708D-06  0.50680549D-07  0.38858630D-07  0.19393180D-07
  0.37004805D-04 -0.86889117D-05 -0.14509944D-05 -0.46369120D-07  0.11663065D-04
 -0.32011597D-05  0.12934110D-04  0.90225685D-05  0.35802744D-08  0.50290852D-07
 -0.65981399D-06 -0.11191694D-05 -0.12741348D-05 -0.14902682D-05 -0.66463936D-06
 -0.11273542D-05 -0.12834529D-05 -0.15628204D-05  0.47093743D-06  0.79879902D-06
  0.90940445D-06 -0.56074883D-05
MO    3     MO 0.0        OCC NO =    1.0000000  ORB. ENERGY =  -10.500449
  0.39603462D-04  0.73060655D-04  0.11794255D-03  0.15352616D-03  0.13100415D-03
  0.45232584D-04 -0.11593868D-03 -0.53436031D-04  0.14984021D-03  0.11432374D-03
  0.87656194D-04  0.43746584D-04  0.49547539D-04  0.37989910D-04  0.18959628D-04
 -0.66909002D-08 -0.51301579D-08 -0.25603084D-08 -0.16322248D-02  0.67700966D-03
  0.12299632D-03 -0.36954132D-07  0.15357287D-04  0.19099351D-04  0.62855189D-04
 -0.63558659D-05 -0.58737776D-07  0.22957993D-07  0.14453263D-02  0.26663448D-02
  0.43043072D-02  0.56029290D-02  0.47809895D-02  0.16507608D-02  0.31653298D-03
  0.14588976D-03 -0.40909012D-03  0.27423302D-03  0.21026448D-03  0.10493671D-03
 -0.18334206D-03 -0.14057506D-03 -0.70156807D-04  0.10770116D-07  0.82578416D-08
  0.41212417D-08  0.27236842D-02 -0.42295014D-03  0.12343049D-02  0.50066985D-07
 -0.44226677D-03 -0.22111252D-03 -0.37301046D-03 -0.16510937D-03  0.11545381D-07
  0.35186914D-07  0.53256919D+00  0.98248616D+00  0.15860373D+01  0.20645493D+01
  0.17616837D+01  0.60826703D+00 -0.19972278D-01 -0.92052048D-02  0.25812355D-01
 -0.70050127D-03 -0.53709994D-03 -0.26805051D-03 -0.68146354D-03 -0.52250302D-03
 -0.26076563D-03  0.11442895D-07  0.87736865D-08  0.43786844D-08 -0.40706473D-02
 -0.13302162D-02 -0.17122902D-02  0.47290442D-07 -0.98401421D-02 -0.97437950D-02
 -0.10369393D-01  0.80690725D-03 -0.31006297D-07 -0.42769540D-07  0.15126860D-02
  0.27906102D-02  0.45049102D-02  0.58640545D-02  0.50038084D-02  0.17276948D-02
  0.22355566D-03  0.10303660D-03 -0.28892538D-03 -0.42199070D-03 -0.32355571D-03
 -0.16147697D-03  0.36497911D-03  0.27984283D-03  0.13966119D-03  0.57233422D-08
  0.43882958D-08  0.21900671D-08  0.22652388D-02  0.16287859D-02 -0.65478790D-03
 -0.53528428D-07 -0.28952927D-03 -0.47502001D-03 -0.29875028D-03 -0.48515816D-04
 -0.16190757D-07  0.17954137D-07  0.30134188D-04  0.55591693D-04  0.89742230D-04
  0.11681772D-03  0.99680771D-04  0.34417375D-04 -0.91887460D-04 -0.42350846D-04
  0.11875619D-03  0.10892444D-03  0.83516352D-04  0.41680513D-04  0.17142640D-03
  0.13143889D-03  0.65597220D-04  0.35850009D-08  0.27487513D-08  0.13718195D-08
 -0.15806572D-02 -0.31487396D-03  0.72894081D-03  0.12887126D-07  0.61104193D-04
  0.19054357D-05  0.48294960D-04  0.17269374D-04 -0.59961564D-08 -0.77376296D-08
 -0.64209284D-04 -0.11845359D-03 -0.19122082D-03 -0.24891270D-03 -0.21239765D-03
 -0.73335806D-04  0.14042038D-03  0.64719626D-04 -0.18148059D-03  0.19686392D-04
  0.15094277D-04  0.75331022D-05  0.64132492D-04  0.49172727D-04  0.24540637D-04
 -0.36351820D-07 -0.27872270D-07 -0.13910216D-07  0.11902712D-02 -0.50373424D-03
 -0.38271313D-03  0.37000630D-07  0.70027472D-05 -0.20029685D-04 -0.13437470D-03
 -0.54367607D-04 -0.24037672D-07 -0.89115277D-08 -0.26778158D-04 -0.45420824D-04
 -0.51710003D-04 -0.22105983D-03 -0.18770720D-04 -0.34548146D-04 -0.55905421D-04
 -0.73489241D-04 -0.63031295D-04 -0.21551470D-04  0.46762451D-04  0.20865314D-04
 -0.61615553D-04 -0.70037795D-04 -0.53960346D-04 -0.23691498D-04 -0.51261579D-04
 -0.39494283D-04 -0.17340118D-04  0.91868176D-09  0.70779477D-09  0.31076003D-09
  0.64255137D-04 -0.49574689D-04  0.12561722D-04 -0.26666383D-09 -0.10279797D-03
 -0.64137695D-04 -0.11606442D-03 -0.72310174D-04  0.54088939D-09 -0.30460289D-08
  0.14598560D-03  0.26869144D-03  0.43479347D-03  0.57154818D-03  0.49021355D-03
  0.16761234D-03 -0.80216833D-03 -0.35792595D-03  0.10569601D-02  0.65744064D-04
  0.50652257D-04  0.22239069D-04 -0.58818107D-04 -0.45316180D-04 -0.19896244D-04
 -0.73427266D-08 -0.56571750D-08 -0.24838045D-08 -0.20843334D-02 -0.59990922D-03
 -0.67276461D-03  0.25823071D-07  0.37665301D-03  0.21854829D-03  0.10892890D-02
 -0.11710847D-02  0.68121008D-07  0.41747023D-07  0.49019675D-04  0.83146647D-04
  0.94659518D-04  0.36659476D-03 -0.17098976D-04 -0.31544273D-04 -0.50922237D-04
 -0.66285622D-04 -0.56561641D-04 -0.19529375D-04  0.85272526D-04  0.39302029D-04
 -0.11020699D-03  0.15904704D-03  0.12194718D-03  0.60860191D-04 -0.11693530D-04
 -0.89658575D-05 -0.44745913D-05  0.50383524D-08  0.38630890D-08  0.19279522D-08
  0.90296610D-03  0.34949064D-03 -0.61182771D-04  0.38136874D-08  0.16167123D-03
  0.63104380D-04 -0.68265169D-04  0.17301737D-04  0.17427251D-07  0.99464951D-08
 -0.19886670D-04 -0.33731556D-04 -0.38402184D-04  0.33955767D-04  0.49392611D-04
  0.83779217D-04  0.95379677D-04 -0.85794329D-04  0.28357266D-04  0.48099290D-04
  0.54759341D-04  0.17766760D-03 -0.21092486D-04 -0.38911517D-04 -0.62815254D-04
 -0.81766796D-04 -0.69771756D-04 -0.24090510D-04  0.58489972D-04  0.26957975D-04
 -0.75592975D-04  0.36187379D-04  0.27746187D-04  0.13847292D-04  0.32127673D-05
  0.24633462D-05  0.12293824D-05 -0.66652389D-07 -0.51104825D-07 -0.25504889D-07
 -0.37491221D-04 -0.18314144D-04 -0.70615621D-04  0.92692582D-07  0.22768012D-04
 -0.10044404D-03 -0.43170002D-04  0.55182874D-04  0.70539393D-07  0.32027784D-06
 -0.98300378D-05 -0.16673605D-04 -0.18982310D-04 -0.19052479D-04 -0.98517092D-05
 -0.16710363D-04 -0.19024158D-04 -0.19050100D-04  0.14099298D-05  0.23915078D-05
  0.27226471D-05  0.30762007D-04
MO    4     MO 0.0        OCC NO =    1.0000000  ORB. ENERGY =  -10.467163
  0.16322161D-04  0.30111200D-04  0.48608813D-04  0.63274232D-04  0.53992017D-04
  0.18642146D-04 -0.48416692D-04 -0.22315209D-04  0.62574176D-04 -0.33357841D-04
 -0.25576677D-04 -0.12764554D-04 -0.82578894D-05 -0.63316258D-05 -0.31599250D-05
  0.13914754D-07  0.10668951D-07  0.53245543D-08 -0.37251729D-03  0.23422849D-03
 -0.12024016D-03 -0.40080371D-07 -0.59252985D-05 -0.17377791D-04  0.28671982D-04
  0.20509294D-04 -0.36086146D-07  0.20647281D-08 -0.23839676D-04 -0.43979547D-04
 -0.70996625D-04 -0.92416511D-04 -0.78859177D-04 -0.27228179D-04  0.88744537D-04
  0.40902276D-04 -0.11469425D-03 -0.14768364D-04 -0.11323444D-04 -0.56511924D-05
  0.28922732D-04  0.22176116D-04  0.11067436D-04 -0.11849898D-07 -0.90857499D-08
 -0.45344260D-08  0.73864669D-03 -0.28893247D-03  0.14280654D-03  0.32676063D-07
  0.54824988D-04 -0.16352197D-05 -0.78040889D-04 -0.96392139D-05 -0.15366809D-07
  0.26734282D-07 -0.25494155D-05 -0.47031737D-05 -0.75923807D-05 -0.98830237D-05
 -0.84332020D-05 -0.29117820D-05  0.33761566D-04  0.15560675D-04 -0.43633756D-04
  0.14944738D-03  0.11458677D-03  0.57186830D-04 -0.47780267D-05 -0.36634878D-05
 -0.18283372D-05 -0.52444600D-08 -0.40211193D-08 -0.20068203D-08 -0.79833651D-04
 -0.56984619D-03  0.19702902D-03  0.21228975D-07 -0.19638940D-04  0.17586104D-03
 -0.44277707D-04 -0.97052219D-04  0.11135721D-08  0.61594476D-08  0.22188339D-02
  0.40933153D-02  0.66078801D-02  0.86014966D-02  0.73396726D-02  0.25342126D-02
 -0.37097272D-04 -0.17098099D-04  0.47944854D-04  0.36168857D-03  0.27731986D-03
  0.13840204D-03 -0.25807408D-03 -0.19787484D-03 -0.98753411D-04 -0.16064199D-07
 -0.12317009D-07 -0.61470507D-08  0.66503195D-03  0.16719350D-03  0.60209601D-03
  0.13793491D-07 -0.65796349D-03 -0.39399708D-03 -0.16713656D-03  0.28901942D-03
 -0.10913570D-07 -0.14443721D-07  0.16129857D-04  0.29756437D-04  0.48036115D-04
  0.62528749D-04  0.53355895D-04  0.18422508D-04 -0.35516198D-04 -0.16369383D-04
  0.45901459D-04  0.23233188D-03  0.17813735D-03  0.88903021D-04 -0.81120148D-05
 -0.62197784D-05 -0.31041054D-05  0.93126968D-08  0.71403853D-08  0.35635527D-08
 -0.93388134D-03 -0.13953150D-03  0.35002298D-03 -0.34451276D-08 -0.64794106D-04
  0.70553952D-04 -0.83713238D-05  0.83468601D-04  0.19292291D-07 -0.30770068D-08
 -0.36414149D-04 -0.67176995D-04 -0.10844450D-03 -0.14116252D-03 -0.12045423D-03
 -0.41589951D-04  0.10750696D-03  0.49549862D-04 -0.13894298D-03 -0.50326349D-04
 -0.38587053D-04 -0.19257644D-04  0.22898537D-04  0.17557145D-04  0.87622461D-05
 -0.64674540D-08 -0.49588335D-08 -0.24748055D-08  0.71826581D-03 -0.26187783D-03
 -0.21249007D-03  0.23584879D-07  0.69449579D-04 -0.11458619D-04 -0.96917003D-04
 -0.15949380D-04 -0.25682053D-07 -0.15406956D-07 -0.27039180D-04 -0.45863567D-04
 -0.52214051D-04 -0.96397748D-04 -0.63670538D-04 -0.11718778D-03 -0.18963195D-03
 -0.24927650D-03 -0.21380301D-03 -0.73102880D-04 -0.36443288D-03 -0.16260924D-03
  0.48018727D-03 -0.15629494D-03 -0.12041683D-03 -0.52869473D-04 -0.10935306D-03
 -0.84250635D-04 -0.36990567D-04 -0.12274104D-07 -0.94565352D-08 -0.41519283D-08
 -0.10930371D-02 -0.44788245D-03 -0.45874170D-03 -0.51804359D-08  0.59939419D-04
  0.61531865D-04  0.61662546D-03 -0.79161349D-03 -0.32723259D-08 -0.24543404D-07
  0.70712082D-05  0.13014798D-04  0.21060400D-04  0.27684485D-04  0.23744822D-04
  0.81187578D-05 -0.43000592D-04 -0.19186780D-04  0.56658819D-04 -0.47404126D-04
 -0.36522324D-04 -0.16035267D-04 -0.71361665D-04 -0.54980316D-04 -0.24139320D-04
 -0.15053289D-08 -0.11597747D-08 -0.50920358D-09 -0.19297877D-03  0.72950508D-04
 -0.10465090D-03 -0.18462498D-08  0.54339633D-04 -0.40370304D-04 -0.16740911D-04
  0.44885897D-04  0.14237914D-08 -0.10322371D-08 -0.51582856D-05 -0.87494287D-05
 -0.99609153D-05  0.50292587D-04  0.53249949D+00  0.98235758D+00  0.15858297D+01
  0.20642791D+01  0.17614531D+01  0.60818743D+00 -0.19520287D-01 -0.89968824D-02
  0.25228197D-01 -0.38181682D-03 -0.29275292D-03 -0.14610423D-03 -0.12202300D-02
 -0.93559499D-03 -0.46692747D-03 -0.35680154D-07 -0.27357279D-07 -0.13653200D-07
 -0.14400192D-02 -0.46010641D-03 -0.45070310D-03 -0.27465551D-07 -0.97328748D-02
 -0.99318291D-02 -0.10812747D-01  0.10497948D-02  0.36843953D-07  0.72479864D-07
 -0.33291804D-04 -0.56469201D-04 -0.64288190D-04  0.44627181D-03  0.27335426D-04
  0.46366057D-04  0.52786117D-04 -0.55227041D-05  0.83392388D-05  0.14144927D-04
  0.16103500D-04  0.95458006D-04 -0.10955271D-04 -0.20210337D-04 -0.32625750D-04
 -0.42469032D-04 -0.36238902D-04 -0.12512422D-04  0.21651089D-04  0.99789674D-05
 -0.27982066D-04  0.60926249D-04  0.46714383D-04  0.23313751D-04  0.11103946D-04
  0.85138011D-05  0.42489835D-05 -0.10942629D-06 -0.83901137D-07 -0.41872548D-07
 -0.62288910D-04  0.91483228D-05 -0.78944566D-05  0.10883538D-06 -0.19487516D-04
 -0.19265053D-04 -0.39775830D-04 -0.20490654D-04  0.78855610D-08 -0.21298293D-07
 -0.21151643D-05 -0.35877190D-05 -0.40844913D-05 -0.17511479D-05 -0.21153302D-05
 -0.35880004D-05 -0.40848117D-05 -0.15984251D-05 -0.67378774D-06 -0.11428715D-05
 -0.13011189D-05  0.13252478D-04
MO    5     MO 0.0        OCC NO =    1.0000000  ORB. ENERGY =  -10.427494
  0.15770635D-01  0.29093743D-01  0.46966322D-01  0.61136196D-01  0.52167627D-01
  0.18012228D-01 -0.33356461D-03 -0.15373962D-03  0.43110195D-03  0.22792960D-03
  0.17476196D-03  0.87218466D-04 -0.38522392D-03 -0.29536527D-03 -0.14740797D-03