 Entering Link 1 = D:\Gaussian\G16W\l1.exe PID=      6036.
  
 Copyright (c) 1988,1990,1992,1993,1995,1998,2003,2009,2016,
            Gaussian, Inc.  All Rights Reserved.
  
 This is part of the Gaussian(R) 16 program.  It is based on
 the Gaussian(R) 09 system (copyright 2009, Gaussian, Inc.),
 the Gaussian(R) 03 system (copyright 2003, Gaussian, Inc.),
 the Gaussian(R) 98 system (copyright 1998, Gaussian, Inc.),
 the Gaussian(R) 94 system (copyright 1995, Gaussian, Inc.),
 the Gaussian 92(TM) system (copyright 1992, Gaussian, Inc.),
 the Gaussian 90(TM) system (copyright 1990, Gaussian, Inc.),
 the Gaussian 88(TM) system (copyright 1988, Gaussian, Inc.),
 the Gaussian 86(TM) system (copyright 1986, Carnegie Mellon
 University), and the Gaussian 82(TM) system (copyright 1983,
 Carnegie Mellon University). Gaussian is a federally registered
 trademark of Gaussian, Inc.
  
 This software contains proprietary and confidential information,
 including trade secrets, belonging to Gaussian, Inc.
  
 This software is provided under written license and may be
 used, copied, transmitted, or stored only in accord with that
 written license.
  
 The following legend is applicable only to US Government
 contracts under FAR:
  
                    RESTRICTED RIGHTS LEGEND
  
 Use, reproduction and disclosure by the US Government is
 subject to restrictions as set forth in subparagraphs (a)
 and (c) of the Commercial Computer Software - Restricted
 Rights clause in FAR 52.227-19.
  
 Gaussian, Inc.
 340 Quinnipiac St., Bldg. 40, Wallingford CT 06492
  
  
 ---------------------------------------------------------------
 Warning -- This program may not be used in any manner that
 competes with the business of Gaussian, Inc. or will provide
 assistance to any competitor of Gaussian, Inc.  The licensee
 of this program is prohibited from giving any competitor of
 Gaussian, Inc. access to this program.  By using this program,
 the user acknowledges that Gaussian, Inc. is engaged in the
 business of creating and licensing software in the field of
 computational chemistry and represents and warrants to the
 licensee that it is not a competitor of Gaussian, Inc. and that
 it will not use this program in any manner prohibited above.
 ---------------------------------------------------------------
  

 Cite this work as:
 Gaussian 16, Revision A.03,
 M. J. Frisch, G. W. Trucks, H. B. Schlegel, G. E. Scuseria, 
 M. A. Robb, J. R. Cheeseman, G. Scalmani, V. Barone, 
 G. A. Petersson, H. Nakatsuji, X. Li, M. Caricato, A. V. Marenich, 
 J. Bloino, B. G. Janesko, R. Gomperts, B. Mennucci, H. P. Hratchian, 
 J. V. Ortiz, A. F. Izmaylov, J. L. Sonnenberg, D. Williams-Young, 
 F. Ding, F. Lipparini, F. Egidi, J. Goings, B. Peng, A. Petrone, 
 T. Henderson, D. Ranasinghe, V. G. Zakrzewski, J. Gao, N. Rega, 
 G. Zheng, W. Liang, M. Hada, M. Ehara, K. Toyota, R. Fukuda, 
 J. Hasegawa, M. Ishida, T. Nakajima, Y. Honda, O. Kitao, H. Nakai, 
 T. Vreven, K. Throssell, J. A. Montgomery, Jr., J. E. Peralta, 
 F. Ogliaro, M. J. Bearpark, J. J. Heyd, E. N. Brothers, K. N. Kudin, 
 V. N. Staroverov, T. A. Keith, R. Kobayashi, J. Normand, 
 K. Raghavachari, A. P. Rendell, J. C. Burant, S. S. Iyengar, 
 J. Tomasi, M. Cossi, J. M. Millam, M. Klene, C. Adamo, R. Cammi, 
 J. W. Ochterski, R. L. Martin, K. Morokuma, O. Farkas, 
 J. B. Foresman, and D. J. Fox, Gaussian, Inc., Wallingford CT, 2016.
 
 ******************************************
 Gaussian 16:  EM64W-G16RevA.03 17-Dec-2016
                03-Dec-2025 
 ******************************************
 %nprocs=   4
 Will use up to    4 processors via shared memory.
 ------------------------------------
 #P B3LYP/6-31G* SCF=conver=7 out=wfn
 ------------------------------------
 1/38=1,172=1/1;
 2/12=2,17=6,18=5,40=1/2;
 3/5=1,6=6,7=1,11=2,25=1,30=1,74=-5/1,2,3;
 4//1;
 5/5=2,6=7,38=5/2;
 6/7=2,8=2,9=2,10=2,28=1/1;
 99/5=1,6=100,9=1/99;
 Leave Link    1 at Wed Dec 03 17:20:39 2025, MaxMem=           0 cpu:               0.0 elap:               0.1
 (Enter D:\Gaussian\G16W\l101.exe)
 ----------------------------------------------------
 Generated by Multiwfn (http://sobereva.com/multiwfn)
 ----------------------------------------------------
 Symbolic Z-matrix:
 Charge =  0 Multiplicity = 1
 C                     1.89986  -0.01934  -0.00009 
 C                     0.96939  -1.05574  -0.00009 
 C                    -0.40244  -0.7914   -0.00002 
 C                    -0.85243   0.55527   0.00002 
 C                     0.09746   1.58986   0. 
 C                     1.45143   1.31498  -0.00006 
 H                    -0.2523    2.61778   0. 
 O                    -3.16132   0.00414   0. 
 O                    -1.25957  -1.82043   0.00002 
 H                     1.28774  -2.09218  -0.00015 
 C                    -2.27305   0.85199   0.00003 
 H                    -2.54169   1.92563   0.00012 
 H                    -2.169    -1.44412   0.0001 
 H                     2.17321   2.12327  -0.0001 
 C                     3.37526  -0.33392   0.00009 
 H                     3.64929  -0.92041   0.88203 
 H                     3.64861  -0.92513  -0.87888 
 H                     3.97832   0.57527  -0.00253 
 
 ITRead=  0  0  0  0  0  0  0  0  0  0  0  0  0  0  0  0  0  0
 MicOpt= -1 -1 -1 -1 -1 -1 -1 -1 -1 -1 -1 -1 -1 -1 -1 -1 -1 -1
 NAtoms=     18 NQM=       18 NQMF=       0 NMMI=      0 NMMIF=      0
                NMic=       0 NMicF=      0.
                    Isotopes and Nuclear Properties:
 (Nuclear quadrupole moments (NQMom) in fm**2, nuclear magnetic moments (NMagM)
  in nuclear magnetons)

  Atom         1           2           3           4           5           6           7           8           9          10
 IAtWgt=          12          12          12          12          12          12           1          16          16           1
 AtmWgt=  12.0000000  12.0000000  12.0000000  12.0000000  12.0000000  12.0000000   1.0078250  15.9949146  15.9949146   1.0078250
 NucSpn=           0           0           0           0           0           0           1           0           0           1
 AtZEff=   0.0000000   0.0000000   0.0000000   0.0000000   0.0000000   0.0000000   0.0000000   0.0000000   0.0000000   0.0000000
 NQMom=    0.0000000   0.0000000   0.0000000   0.0000000   0.0000000   0.0000000   0.0000000   0.0000000   0.0000000   0.0000000
 NMagM=    0.0000000   0.0000000   0.0000000   0.0000000   0.0000000   0.0000000   2.7928460   0.0000000   0.0000000   2.7928460
 AtZNuc=   6.0000000   6.0000000   6.0000000   6.0000000   6.0000000   6.0000000   1.0000000   8.0000000   8.0000000   1.0000000

  Atom        11          12          13          14          15          16          17          18
 IAtWgt=          12           1           1           1          12           1           1           1
 AtmWgt=  12.0000000   1.0078250   1.0078250   1.0078250  12.0000000   1.0078250   1.0078250   1.0078250
 NucSpn=           0           1           1           1           0           1           1           1
 AtZEff=   0.0000000   0.0000000   0.0000000   0.0000000   0.0000000   0.0000000   0.0000000   0.0000000
 NQMom=    0.0000000   0.0000000   0.0000000   0.0000000   0.0000000   0.0000000   0.0000000   0.0000000
 NMagM=    0.0000000   2.7928460   2.7928460   2.7928460   0.0000000   2.7928460   2.7928460   2.7928460
 AtZNuc=   6.0000000   1.0000000   1.0000000   1.0000000   6.0000000   1.0000000   1.0000000   1.0000000
 Leave Link  101 at Wed Dec 03 17:20:39 2025, MaxMem=   104857600 cpu:               0.0 elap:               0.1
 (Enter D:\Gaussian\G16W\l202.exe)
                          Input orientation:                          
 ---------------------------------------------------------------------
 Center     Atomic      Atomic             Coordinates (Angstroms)
 Number     Number       Type             X           Y           Z
 ---------------------------------------------------------------------
      1          6           0        1.899863   -0.019337   -0.000094
      2          6           0        0.969390   -1.055743   -0.000091
      3          6           0       -0.402437   -0.791396   -0.000017
      4          6           0       -0.852429    0.555274    0.000019
      5          6           0        0.097462    1.589862    0.000002
      6          6           0        1.451428    1.314980   -0.000060
      7          1           0       -0.252304    2.617780    0.000002
      8          8           0       -3.161317    0.004136    0.000004
      9          8           0       -1.259569   -1.820430    0.000017
     10          1           0        1.287742   -2.092184   -0.000149
     11          6           0       -2.273050    0.851991    0.000029
     12          1           0       -2.541694    1.925634    0.000120
     13          1           0       -2.168995   -1.444120    0.000102
     14          1           0        2.173214    2.123274   -0.000099
     15          6           0        3.375258   -0.333924    0.000086
     16          1           0        3.649291   -0.920409    0.882027
     17          1           0        3.648608   -0.925132   -0.878882
     18          1           0        3.978316    0.575267   -0.002528
 ---------------------------------------------------------------------
                    Distance matrix (angstroms):
                    1          2          3          4          5
     1  C    0.000000
     2  C    1.392809   0.000000
     3  C    2.428304   1.397064   0.000000
     4  C    2.811635   2.431954   1.419864   0.000000
     5  C    2.416231   2.785585   2.433164   1.404516   0.000000
     6  C    1.407656   2.419233   2.806000   2.425883   1.381588
     7  H    3.403852   3.871344   3.412480   2.148041   1.085795
     8  O    5.061234   4.264514   2.871287   2.373756   3.624109
     9  O    3.636749   2.356481   1.339248   2.410339   3.670371
    10  H    2.161339   1.084232   2.132781   3.404316   3.869655
    11  C    4.262912   3.762030   2.489963   1.451277   2.482696
    12  H    4.848746   4.606118   3.458131   2.175202   2.660430
    13  H    4.311103   3.162325   1.883289   2.393935   3.787067
    14  H    2.159977   3.399315   3.889637   3.407806   2.143193
    15  C    1.508561   2.511817   3.805294   4.320186   3.800645
    16  H    2.156517   2.824591   4.148632   4.818824   4.437896
    17  H    2.156581   2.822683   4.147440   4.819067   4.439400
    18  H    2.161834   3.422548   4.588984   4.830787   4.011289
                    6          7          8          9         10
     6  C    0.000000
     7  H    2.144759   0.000000
     8  O    4.795386   3.910689   0.000000
     9  O    4.144913   4.551076   2.635467   0.000000
    10  H    3.411094   4.955351   4.918199   2.561766   0.000000
    11  C    3.753145   2.683547   1.227956   2.858142   4.620325
    12  H    4.039545   2.391730   2.018932   3.959399   5.550445
    13  H    4.551933   4.491407   1.755605   0.984208   3.516961
    14  H    1.083658   2.475414   5.740032   5.228461   4.307452
    15  C    2.533773   4.676726   6.545311   4.867373   2.729323
    16  H    3.256631   5.340336   6.929439   5.068026   2.779965
    17  H    3.258532   5.342450   6.929001   5.065987   2.776305
    18  H    2.632935   4.697873   7.162441   5.759758   3.788732
                   11         12         13         14         15
    11  C    0.000000
    12  H    1.106742   0.000000
    13  H    2.298468   3.390302   0.000000
    14  H    4.624438   4.719049   5.619705   0.000000
    15  C    5.771462   6.333713   5.654315   2.735458   0.000000
    16  H    6.244473   6.870663   5.908004   3.495848   1.094020
    17  H    6.244733   6.871634   5.906477   3.498832   1.093998
    18  H    6.257488   6.658380   6.470499   2.377967   1.091015
                   16         17         18
    16  H    0.000000
    17  H    1.760915   0.000000
    18  H    1.768542   1.768587   0.000000
 Stoichiometry    C8H8O2
 Framework group  C1[X(C8H8O2)]
 Deg. of freedom    48
 Full point group                 C1      NOp   1
 Largest Abelian subgroup         C1      NOp   1
 Largest concise Abelian subgroup C1      NOp   1
                         Standard orientation:                         
 ---------------------------------------------------------------------
 Center     Atomic      Atomic             Coordinates (Angstroms)
 Number     Number       Type             X           Y           Z
 ---------------------------------------------------------------------
      1          6           0        1.899863   -0.019337   -0.000094
      2          6           0        0.969390   -1.055743   -0.000091
      3          6           0       -0.402437   -0.791396   -0.000017
      4          6           0       -0.852429    0.555274    0.000019
      5          6           0        0.097462    1.589862    0.000002
      6          6           0        1.451428    1.314980   -0.000060
      7          1           0       -0.252304    2.617780    0.000002
      8          8           0       -3.161317    0.004136    0.000004
      9          8           0       -1.259569   -1.820430    0.000017
     10          1           0        1.287742   -2.092184   -0.000149
     11          6           0       -2.273050    0.851991    0.000029
     12          1           0       -2.541694    1.925634    0.000120
     13          1           0       -2.168995   -1.444120    0.000102
     14          1           0        2.173214    2.123274   -0.000099
     15          6           0        3.375258   -0.333924    0.000086
     16          1           0        3.649291   -0.920409    0.882027
     17          1           0        3.648608   -0.925132   -0.878882
     18          1           0        3.978316    0.575267   -0.002528
 ---------------------------------------------------------------------
 Rotational constants (GHZ):           3.0823363           0.9427718           0.7251907
 Leave Link  202 at Wed Dec 03 17:20:39 2025, MaxMem=   104857600 cpu:               0.0 elap:               0.1
 (Enter D:\Gaussian\G16W\l301.exe)
 Standard basis: 6-31G(d) (6D, 7F)
 Ernie: Thresh=  0.10000D-02 Tol=  0.10000D-05 Strict=F.
 There are   166 symmetry adapted cartesian basis functions of A   symmetry.
 There are   166 symmetry adapted basis functions of A   symmetry.
   166 basis functions,   312 primitive gaussians,   166 cartesian basis functions
    36 alpha electrons       36 beta electrons
       nuclear repulsion energy       492.6034097605 Hartrees.
 IExCor=  402 DFT=T Ex+Corr=B3LYP ExCW=0 ScaHFX=  0.200000
 ScaDFX=  0.800000  0.720000  1.000000  0.810000 ScalE2=  1.000000  1.000000
 IRadAn=      5 IRanWt=     -1 IRanGd=            0 ICorTp=0 IEmpDi=  4
 NAtoms=   18 NActive=   18 NUniq=   18 SFac= 1.00D+00 NAtFMM=   60 NAOKFM=F Big=F
 Integral buffers will be    131072 words long.
 Raffenetti 2 integral format.
 Two-electron integral symmetry is turned on.
 Leave Link  301 at Wed Dec 03 17:20:39 2025, MaxMem=   104857600 cpu:               0.0 elap:               0.1
 (Enter D:\Gaussian\G16W\l302.exe)
 NPDir=0 NMtPBC=     1 NCelOv=     1 NCel=       1 NClECP=     1 NCelD=      1
         NCelK=      1 NCelE2=     1 NClLst=     1 CellRange=     0.0.
 One-electron integrals computed using PRISM.
 One-electron integral symmetry used in STVInt
 NBasis=   166 RedAO= T EigKep=  3.96D-04  NBF=   166
 NBsUse=   166 1.00D-06 EigRej= -1.00D+00 NBFU=   166
 Precomputing XC quadrature grid using
 IXCGrd= 4 IRadAn=           5 IRanWt=          -1 IRanGd=           0 AccXCQ= 0.00D+00.
 Generated NRdTot=       0 NPtTot=           0 NUsed=           0 NTot=          32
 NSgBfM=   166   166   166   166   166 MxSgAt=    18 MxSgA2=    18.
 Leave Link  302 at Wed Dec 03 17:20:39 2025, MaxMem=   104857600 cpu:               0.0 elap:               0.3
 (Enter D:\Gaussian\G16W\l303.exe)
 DipDrv:  MaxL=1.
 Leave Link  303 at Wed Dec 03 17:20:39 2025, MaxMem=   104857600 cpu:               0.0 elap:               0.1
 (Enter D:\Gaussian\G16W\l401.exe)
 ExpMin= 1.61D-01 ExpMax= 5.48D+03 ExpMxC= 8.25D+02 IAcc=3 IRadAn=         5 AccDes= 0.00D+00
 Harris functional with IExCor=  402 and IRadAn=       5 diagonalized for initial guess.
 HarFok:  IExCor=  402 AccDes= 0.00D+00 IRadAn=         5 IDoV= 1 UseB2=F ITyADJ=14
 ICtDFT=  3500011 ScaDFX=  1.000000  1.000000  1.000000  1.000000
 FoFCou: FMM=F IPFlag=           0 FMFlag=      100000 FMFlg1=           0
         NFxFlg=           0 DoJE=T BraDBF=F KetDBF=T FulRan=T
         wScrn=  0.000000 ICntrl=       500 IOpCl=  0 I1Cent=   200000004 NGrid=           0
         NMat0=    1 NMatS0=      1 NMatT0=    0 NMatD0=    1 NMtDS0=    0 NMtDT0=    0
 Petite list used in FoFCou.
 Harris En= -460.142200531253    
 JPrj=0 DoOrth=F DoCkMO=F.
 Leave Link  401 at Wed Dec 03 17:20:40 2025, MaxMem=   104857600 cpu:               1.0 elap:               1.1
 (Enter D:\Gaussian\G16W\l502.exe)
 Keep R1 ints in memory in canonical form, NReq=100039527.
 FoFCou: FMM=F IPFlag=           0 FMFlag=           0 FMFlg1=           0
         NFxFlg=           0 DoJE=F BraDBF=F KetDBF=F FulRan=T
         wScrn=  0.000000 ICntrl=       600 IOpCl=  0 I1Cent=           0 NGrid=           0
         NMat0=    1 NMatS0=  13861 NMatT0=    0 NMatD0=    1 NMtDS0=    0 NMtDT0=    0
 Symmetry not used in FoFCou.
 Two-electron integral symmetry not used.
 Closed shell SCF:
 Using DIIS extrapolation, IDIIS=  1040.
 NGot=   104857600 LenX=     8728953 LenY=     8700956
 Requested convergence on RMS density matrix=1.00D-07 within 128 cycles.
 Requested convergence on MAX density matrix=1.00D-05.
 Requested convergence on             energy=1.00D-05.
 No special actions if energy rises.
 Integral accuracy reduced to 1.0D-05 until final iterations.

 Cycle   1  Pass 0  IDiag  1:
 E= -459.890220267952    
 DIIS: error= 3.68D-02 at cycle   1 NSaved=   1.
 NSaved= 1 IEnMin= 1 EnMin= -459.890220267952     IErMin= 1 ErrMin= 3.68D-02
 ErrMax= 3.68D-02  0.00D+00 EMaxC= 1.00D-01 BMatC= 2.46D-01 BMatP= 2.46D-01
 IDIUse=3 WtCom= 6.32D-01 WtEn= 3.68D-01
 Coeff-Com:  0.100D+01
 Coeff-En:   0.100D+01
 Coeff:      0.100D+01
 Gap=     0.146 Goal=   None    Shift=    0.000
 GapD=    0.146 DampG=1.000 DampE=0.500 DampFc=0.5000 IDamp=-1.
 Damping current iteration by 5.00D-01
 RMSDP=6.75D-03 MaxDP=1.52D-01              OVMax= 1.95D-01

 Cycle   2  Pass 0  IDiag  1:
 E= -459.986011874907     Delta-E=       -0.095791606955 Rises=F Damp=T
 DIIS: error= 7.13D-03 at cycle   2 NSaved=   2.
 NSaved= 2 IEnMin= 2 EnMin= -459.986011874907     IErMin= 2 ErrMin= 7.13D-03
 ErrMax= 7.13D-03  0.00D+00 EMaxC= 1.00D-01 BMatC= 2.21D-02 BMatP= 2.46D-01
 IDIUse=3 WtCom= 9.29D-01 WtEn= 7.13D-02
 Coeff-Com:  0.112D+00 0.888D+00
 Coeff-En:   0.164D+00 0.836D+00
 Coeff:      0.116D+00 0.884D+00
 Gap=     0.158 Goal=   None    Shift=    0.000
 RMSDP=2.04D-03 MaxDP=4.79D-02 DE=-9.58D-02 OVMax= 1.60D-01

 Cycle   3  Pass 0  IDiag  1:
 E= -460.096302985964     Delta-E=       -0.110291111057 Rises=F Damp=F
 DIIS: error= 1.23D-02 at cycle   3 NSaved=   3.
 NSaved= 3 IEnMin= 3 EnMin= -460.096302985964     IErMin= 2 ErrMin= 7.13D-03
 ErrMax= 1.23D-02  0.00D+00 EMaxC= 1.00D-01 BMatC= 3.03D-02 BMatP= 2.21D-02
 IDIUse=2 WtCom= 0.00D+00 WtEn= 1.00D+00
 Coeff-En:   0.000D+00 0.000D+00 0.100D+01
 Coeff:      0.000D+00 0.000D+00 0.100D+01
 Gap=     0.171 Goal=   None    Shift=    0.000
 RMSDP=3.30D-03 MaxDP=1.22D-01 DE=-1.10D-01 OVMax= 1.42D-01

 Cycle   4  Pass 0  IDiag  1:
 E= -459.980182561354     Delta-E=        0.116120424610 Rises=F Damp=F
 DIIS: error= 3.05D-02 at cycle   4 NSaved=   4.
 NSaved= 4 IEnMin= 3 EnMin= -460.096302985964     IErMin= 2 ErrMin= 7.13D-03
 ErrMax= 3.05D-02  0.00D+00 EMaxC= 1.00D-01 BMatC= 1.72D-01 BMatP= 2.21D-02
 IDIUse=2 WtCom= 0.00D+00 WtEn= 1.00D+00
 Coeff-En:   0.000D+00 0.000D+00 0.789D+00 0.211D+00
 Coeff:      0.000D+00 0.000D+00 0.789D+00 0.211D+00
 Gap=     0.194 Goal=   None    Shift=    0.000
 RMSDP=1.77D-03 MaxDP=6.53D-02 DE= 1.16D-01 OVMax= 9.01D-02

 Cycle   5  Pass 0  IDiag  1:
 E= -460.112432759084     Delta-E=       -0.132250197730 Rises=F Damp=F
 DIIS: error= 7.88D-03 at cycle   5 NSaved=   5.
 NSaved= 5 IEnMin= 5 EnMin= -460.112432759084     IErMin= 2 ErrMin= 7.13D-03
 ErrMax= 7.88D-03  0.00D+00 EMaxC= 1.00D-01 BMatC= 1.20D-02 BMatP= 2.21D-02
 IDIUse=3 WtCom= 9.21D-01 WtEn= 7.88D-02
 Coeff-Com:  0.362D-02 0.108D-01 0.351D+00-0.305D-01 0.665D+00
 Coeff-En:   0.000D+00 0.000D+00 0.328D+00 0.000D+00 0.672D+00
 Coeff:      0.333D-02 0.999D-02 0.349D+00-0.281D-01 0.666D+00
 Gap=     0.166 Goal=   None    Shift=    0.000
 RMSDP=6.37D-04 MaxDP=2.07D-02 DE=-1.32D-01 OVMax= 3.25D-02

 Cycle   6  Pass 0  IDiag  1:
 E= -460.122626174834     Delta-E=       -0.010193415751 Rises=F Damp=F
 DIIS: error= 9.10D-04 at cycle   6 NSaved=   6.
 NSaved= 6 IEnMin= 6 EnMin= -460.122626174834     IErMin= 6 ErrMin= 9.10D-04
 ErrMax= 9.10D-04  0.00D+00 EMaxC= 1.00D-01 BMatC= 9.56D-05 BMatP= 1.20D-02
 IDIUse=3 WtCom= 9.91D-01 WtEn= 9.10D-03
 Coeff-Com: -0.129D-02 0.590D-02 0.151D+00-0.525D-01 0.437D+00 0.460D+00
 Coeff-En:   0.000D+00 0.000D+00 0.000D+00 0.000D+00 0.000D+00 0.100D+01
 Coeff:     -0.128D-02 0.584D-02 0.149D+00-0.520D-01 0.433D+00 0.465D+00
 Gap=     0.166 Goal=   None    Shift=    0.000
 RMSDP=7.05D-05 MaxDP=2.07D-03 DE=-1.02D-02 OVMax= 5.20D-03

 Cycle   7  Pass 0  IDiag  1:
 E= -460.122727321458     Delta-E=       -0.000101146624 Rises=F Damp=F
 DIIS: error= 1.18D-04 at cycle   7 NSaved=   7.
 NSaved= 7 IEnMin= 7 EnMin= -460.122727321458     IErMin= 7 ErrMin= 1.18D-04
 ErrMax= 1.18D-04  0.00D+00 EMaxC= 1.00D-01 BMatC= 3.99D-06 BMatP= 9.56D-05
 IDIUse=3 WtCom= 9.99D-01 WtEn= 1.18D-03
 Coeff-Com: -0.935D-03 0.296D-02 0.567D-01-0.279D-01 0.191D+00 0.236D+00
 Coeff-Com:  0.542D+00
 Coeff-En:   0.000D+00 0.000D+00 0.000D+00 0.000D+00 0.000D+00 0.000D+00
 Coeff-En:   0.100D+01
 Coeff:     -0.934D-03 0.296D-02 0.566D-01-0.279D-01 0.190D+00 0.236D+00
 Coeff:      0.543D+00
 Gap=     0.166 Goal=   None    Shift=    0.000
 RMSDP=1.44D-05 MaxDP=2.77D-04 DE=-1.01D-04 OVMax= 7.30D-04

 Cycle   8  Pass 0  IDiag  1:
 E= -460.122730949480     Delta-E=       -0.000003628022 Rises=F Damp=F
 DIIS: error= 3.53D-05 at cycle   8 NSaved=   8.
 NSaved= 8 IEnMin= 8 EnMin= -460.122730949480     IErMin= 8 ErrMin= 3.53D-05
 ErrMax= 3.53D-05  0.00D+00 EMaxC= 1.00D-01 BMatC= 3.71D-07 BMatP= 3.99D-06
 IDIUse=1 WtCom= 1.00D+00 WtEn= 0.00D+00
 Coeff-Com: -0.127D-03 0.286D-03 0.152D-01-0.806D-02 0.512D-01 0.639D-01
 Coeff-Com:  0.262D+00 0.615D+00
 Coeff:     -0.127D-03 0.286D-03 0.152D-01-0.806D-02 0.512D-01 0.639D-01
 Coeff:      0.262D+00 0.615D+00
 Gap=     0.166 Goal=   None    Shift=    0.000
 RMSDP=4.33D-06 MaxDP=1.24D-04 DE=-3.63D-06 OVMax= 2.37D-04

 Initial convergence to 1.0D-05 achieved.  Increase integral accuracy.
 Cycle   9  Pass 1  IDiag  1:
 E= -460.122734906241     Delta-E=       -0.000003956761 Rises=F Damp=F
 DIIS: error= 1.57D-05 at cycle   1 NSaved=   1.
 NSaved= 1 IEnMin= 1 EnMin= -460.122734906241     IErMin= 1 ErrMin= 1.57D-05
 ErrMax= 1.57D-05  0.00D+00 EMaxC= 1.00D-01 BMatC= 5.24D-08 BMatP= 5.24D-08
 IDIUse=1 WtCom= 1.00D+00 WtEn= 0.00D+00
 Coeff-Com:  0.100D+01
 Coeff:      0.100D+01
 Gap=     0.166 Goal=   None    Shift=    0.000
 RMSDP=4.33D-06 MaxDP=1.24D-04 DE=-3.96D-06 OVMax= 2.04D-04

 Cycle  10  Pass 1  IDiag  1:
 E= -460.122734824157     Delta-E=        0.000000082085 Rises=F Damp=F
 DIIS: error= 2.45D-05 at cycle   2 NSaved=   2.
 NSaved= 2 IEnMin= 1 EnMin= -460.122734906241     IErMin= 1 ErrMin= 1.57D-05
 ErrMax= 2.45D-05  0.00D+00 EMaxC= 1.00D-01 BMatC= 1.41D-07 BMatP= 5.24D-08
 IDIUse=1 WtCom= 1.00D+00 WtEn= 0.00D+00
 Coeff-Com:  0.623D+00 0.377D+00
 Coeff:      0.623D+00 0.377D+00
 Gap=     0.166 Goal=   None    Shift=    0.000
 RMSDP=2.31D-06 MaxDP=5.88D-05 DE= 8.21D-08 OVMax= 1.46D-04

 Cycle  11  Pass 1  IDiag  1:
 E= -460.122734954435     Delta-E=       -0.000000130279 Rises=F Damp=F
 DIIS: error= 3.18D-06 at cycle   3 NSaved=   3.
 NSaved= 3 IEnMin= 3 EnMin= -460.122734954435     IErMin= 3 ErrMin= 3.18D-06
 ErrMax= 3.18D-06  0.00D+00 EMaxC= 1.00D-01 BMatC= 2.61D-09 BMatP= 5.24D-08
 IDIUse=1 WtCom= 1.00D+00 WtEn= 0.00D+00
 Coeff-Com:  0.330D+00 0.216D+00 0.455D+00
 Coeff:      0.330D+00 0.216D+00 0.455D+00
 Gap=     0.166 Goal=   None    Shift=    0.000
 RMSDP=3.67D-07 MaxDP=1.03D-05 DE=-1.30D-07 OVMax= 1.78D-05

 Cycle  12  Pass 1  IDiag  1:
 E= -460.122734956694     Delta-E=       -0.000000002259 Rises=F Damp=F
 DIIS: error= 9.88D-07 at cycle   4 NSaved=   4.
 NSaved= 4 IEnMin= 4 EnMin= -460.122734956694     IErMin= 4 ErrMin= 9.88D-07
 ErrMax= 9.88D-07  0.00D+00 EMaxC= 1.00D-01 BMatC= 1.71D-10 BMatP= 2.61D-09
 IDIUse=1 WtCom= 1.00D+00 WtEn= 0.00D+00
 Coeff-Com:  0.741D-01 0.520D-01 0.224D+00 0.650D+00
 Coeff:      0.741D-01 0.520D-01 0.224D+00 0.650D+00
 Gap=     0.166 Goal=   None    Shift=    0.000
 RMSDP=1.15D-07 MaxDP=3.88D-06 DE=-2.26D-09 OVMax= 5.73D-06

 Cycle  13  Pass 1  IDiag  1:
 E= -460.122734956800     Delta-E=       -0.000000000106 Rises=F Damp=F
 DIIS: error= 6.27D-07 at cycle   5 NSaved=   5.
 NSaved= 5 IEnMin= 5 EnMin= -460.122734956800     IErMin= 5 ErrMin= 6.27D-07
 ErrMax= 6.27D-07  0.00D+00 EMaxC= 1.00D-01 BMatC= 7.76D-11 BMatP= 1.71D-10
 IDIUse=1 WtCom= 1.00D+00 WtEn= 0.00D+00
 Coeff-Com: -0.551D-02-0.136D-02 0.783D-01 0.460D+00 0.468D+00
 Coeff:     -0.551D-02-0.136D-02 0.783D-01 0.460D+00 0.468D+00
 Gap=     0.166 Goal=   None    Shift=    0.000
 RMSDP=5.00D-08 MaxDP=1.84D-06 DE=-1.06D-10 OVMax= 2.97D-06

 SCF Done:  E(RB3LYP) =  -460.122734957     A.U. after   13 cycles
            NFock= 13  Conv=0.50D-07     -V/T= 2.0091
 KE= 4.559522418024D+02 PE=-2.056624292548D+03 EE= 6.479459060287D+02
 Leave Link  502 at Wed Dec 03 17:20:53 2025, MaxMem=   104857600 cpu:              13.0 elap:              12.6
 (Enter D:\Gaussian\G16W\l601.exe)
 Copying SCF densities to generalized density rwf, IOpCl= 0 IROHF=0.

 **********************************************************************

            Population analysis using the SCF density.

 **********************************************************************

 Orbital symmetries:
       Occupied  (A) (A) (A) (A) (A) (A) (A) (A) (A) (A) (A) (A)
                 (A) (A) (A) (A) (A) (A) (A) (A) (A) (A) (A) (A)
                 (A) (A) (A) (A) (A) (A) (A) (A) (A) (A) (A) (A)
       Virtual   (A) (A) (A) (A) (A) (A) (A) (A) (A) (A) (A) (A)
                 (A) (A) (A) (A) (A) (A) (A) (A) (A) (A) (A) (A)
                 (A) (A) (A) (A) (A) (A) (A) (A) (A) (A) (A) (A)
                 (A) (A) (A) (A) (A) (A) (A) (A) (A) (A) (A) (A)
                 (A) (A) (A) (A) (A) (A) (A) (A) (A) (A) (A) (A)
                 (A) (A) (A) (A) (A) (A) (A) (A) (A) (A) (A) (A)
                 (A) (A) (A) (A) (A) (A) (A) (A) (A) (A) (A) (A)
                 (A) (A) (A) (A) (A) (A) (A) (A) (A) (A) (A) (A)
                 (A) (A) (A) (A) (A) (A) (A) (A) (A) (A) (A) (A)
                 (A) (A) (A) (A) (A) (A) (A) (A) (A) (A) (A) (A)
                 (A) (A) (A) (A) (A) (A) (A) (A) (A) (A)
 The electronic state is 1-A.
 Alpha  occ. eigenvalues --  -19.17337 -19.15761 -10.28338 -10.26632 -10.21807
 Alpha  occ. eigenvalues --  -10.21050 -10.20180 -10.19389 -10.19388 -10.19074
 Alpha  occ. eigenvalues --   -1.07235  -1.04455  -0.86783  -0.79406  -0.75155
 Alpha  occ. eigenvalues --   -0.71695  -0.63319  -0.62030  -0.60477  -0.52157
 Alpha  occ. eigenvalues --   -0.51188  -0.48451  -0.45920  -0.44316  -0.43780
 Alpha  occ. eigenvalues --   -0.43437  -0.42167  -0.40822  -0.38533  -0.38067
 Alpha  occ. eigenvalues --   -0.37572  -0.35025  -0.33677  -0.26792  -0.26018
 Alpha  occ. eigenvalues --   -0.23122
 Alpha virt. eigenvalues --   -0.06495  -0.00048   0.03761   0.09346   0.10839
 Alpha virt. eigenvalues --    0.12595   0.13555   0.14898   0.15649   0.16495
 Alpha virt. eigenvalues --    0.18397   0.19609   0.22709   0.23206   0.28847
 Alpha virt. eigenvalues --    0.29663   0.32395   0.35972   0.36835   0.38906
 Alpha virt. eigenvalues --    0.46244   0.48703   0.49504   0.51751   0.51957
 Alpha virt. eigenvalues --    0.54790   0.54951   0.57162   0.59006   0.59322
 Alpha virt. eigenvalues --    0.60098   0.61723   0.62233   0.65230   0.66736
 Alpha virt. eigenvalues --    0.69670   0.69740   0.71130   0.72322   0.74508
 Alpha virt. eigenvalues --    0.79732   0.80588   0.82254   0.84202   0.85589
 Alpha virt. eigenvalues --    0.86310   0.87137   0.90471   0.93654   0.94382
 Alpha virt. eigenvalues --    0.95718   0.96267   0.97107   0.98917   1.01521
 Alpha virt. eigenvalues --    1.05966   1.07318   1.07790   1.13718   1.17390
 Alpha virt. eigenvalues --    1.19889   1.22919   1.24771   1.26882   1.29754
 Alpha virt. eigenvalues --    1.32310   1.37937   1.38865   1.41019   1.42964
 Alpha virt. eigenvalues --    1.43954   1.48001   1.48188   1.51523   1.63234
 Alpha virt. eigenvalues --    1.71466   1.73356   1.74907   1.75352   1.76750
 Alpha virt. eigenvalues --    1.77948   1.82400   1.84721   1.87421   1.89880
 Alpha virt. eigenvalues --    1.90771   1.92400   1.93637   1.97480   2.00574
 Alpha virt. eigenvalues --    2.03487   2.04261   2.10108   2.11247   2.15039
 Alpha virt. eigenvalues --    2.25795   2.26289   2.29368   2.30338   2.31602
 Alpha virt. eigenvalues --    2.32478   2.37128   2.37384   2.38447   2.47582
 Alpha virt. eigenvalues --    2.48804   2.53584   2.60677   2.63889   2.67049
 Alpha virt. eigenvalues --    2.67393   2.76540   2.81525   2.85331   2.87026
 Alpha virt. eigenvalues --    2.91120   2.95562   3.03165   3.22341   3.42721
 Alpha virt. eigenvalues --    3.95911   4.00637   4.07926   4.11245   4.17920
 Alpha virt. eigenvalues --    4.22869   4.29397   4.42636   4.46129   4.78385
          Condensed to atoms (all electrons):
               1          2          3          4          5          6
     1  C    4.610585   0.527983   0.001433  -0.025143  -0.022585   0.541689
     2  C    0.527983   5.101670   0.489376  -0.066336  -0.050246  -0.030912
     3  C    0.001433   0.489376   4.598682   0.420051  -0.019840  -0.044385
     4  C   -0.025143  -0.066336   0.420051   5.146952   0.462103  -0.025010
     5  C   -0.022585  -0.050246  -0.019840   0.462103   5.028272   0.503474
     6  C    0.541689  -0.030912  -0.044385  -0.025010   0.503474   4.966217
     7  H    0.003481   0.000783   0.003499  -0.045412   0.351199  -0.036015
     8  O   -0.000017   0.000425  -0.003638  -0.059321   0.003541  -0.000071
     9  O    0.002287  -0.056310   0.329151  -0.058052   0.004428   0.000270
    10  H   -0.050496   0.347667  -0.035424   0.007405   0.000178   0.005463
    11  C   -0.000022   0.007144  -0.044722   0.318781  -0.040491   0.005187
    12  H   -0.000028  -0.000108   0.003722  -0.111436   0.002449   0.000192
    13  H   -0.000157   0.004985  -0.021528  -0.019443   0.000511  -0.000001
    14  H   -0.039117   0.006041   0.000465   0.003415  -0.043275   0.356760
    15  C    0.351455  -0.068261   0.006065   0.000281   0.008243  -0.053009
    16  H   -0.025452  -0.002744  -0.000065   0.000026  -0.000214   0.000680
    17  H   -0.025477  -0.002740  -0.000063   0.000026  -0.000214   0.000707
    18  H   -0.029817   0.003697  -0.000159   0.000020   0.000142  -0.002784
               7          8          9         10         11         12
     1  C    0.003481  -0.000017   0.002287  -0.050496  -0.000022  -0.000028
     2  C    0.000783   0.000425  -0.056310   0.347667   0.007144  -0.000108
     3  C    0.003499  -0.003638   0.329151  -0.035424  -0.044722   0.003722
     4  C   -0.045412  -0.059321  -0.058052   0.007405   0.318781  -0.111436
     5  C    0.351199   0.003541   0.004428   0.000178  -0.040491   0.002449
     6  C   -0.036015  -0.000071   0.000270   0.005463   0.005187   0.000192
     7  H    0.584442   0.000102  -0.000056   0.000021  -0.005718   0.008084
     8  O    0.000102   8.056712  -0.032150   0.000010   0.471424  -0.050410
     9  O   -0.000056  -0.032150   8.252324   0.000043  -0.008959  -0.000383
    10  H    0.000021   0.000010   0.000043   0.589978  -0.000112   0.000004
    11  C   -0.005718   0.471424  -0.008959  -0.000112   4.738461   0.364611
    12  H    0.008084  -0.050410  -0.000383   0.000004   0.364611   0.657655
    13  H    0.000006   0.079915   0.209318   0.000008  -0.006215   0.002064
    14  H   -0.004795   0.000000   0.000002  -0.000145  -0.000100   0.000004
    15  C   -0.000208   0.000000  -0.000061  -0.008510  -0.000004   0.000000
    16  H    0.000003   0.000000   0.000000   0.001930   0.000000   0.000000
    17  H    0.000003   0.000000   0.000000   0.001951   0.000000   0.000000
    18  H   -0.000006   0.000000   0.000000   0.000078   0.000000   0.000000
              13         14         15         16         17         18
     1  C   -0.000157  -0.039117   0.351455  -0.025452  -0.025477  -0.029817
     2  C    0.004985   0.006041  -0.068261  -0.002744  -0.002740   0.003697
     3  C   -0.021528   0.000465   0.006065  -0.000065  -0.000063  -0.000159
     4  C   -0.019443   0.003415   0.000281   0.000026   0.000026   0.000020
     5  C    0.000511  -0.043275   0.008243  -0.000214  -0.000214   0.000142
     6  C   -0.000001   0.356760  -0.053009   0.000680   0.000707  -0.002784
     7  H    0.000006  -0.004795  -0.000208   0.000003   0.000003  -0.000006
     8  O    0.079915   0.000000   0.000000   0.000000   0.000000   0.000000
     9  O    0.209318   0.000002  -0.000061   0.000000   0.000000   0.000000
    10  H    0.000008  -0.000145  -0.008510   0.001930   0.001951   0.000078
    11  C   -0.006215  -0.000100  -0.000004   0.000000   0.000000   0.000000
    12  H    0.002064   0.000004   0.000000   0.000000   0.000000   0.000000
    13  H    0.308649   0.000000   0.000003   0.000000   0.000000   0.000000
    14  H    0.000000   0.595485  -0.010286   0.000122   0.000120   0.006882
    15  C    0.000003  -0.010286   5.212573   0.364157   0.364179   0.366098
    16  H    0.000000   0.000122   0.364157   0.545161  -0.029634  -0.027057
    17  H    0.000000   0.000120   0.364179  -0.029634   0.545171  -0.027051
    18  H    0.000000   0.006882   0.366098  -0.027057  -0.027051   0.549767
 Mulliken charges:
               1
     1  C    0.179399
     2  C   -0.212114
     3  C    0.317381
     4  C    0.051094
     5  C   -0.187674
     6  C   -0.188452
     7  H    0.140589
     8  O   -0.466522
     9  O   -0.641852
    10  H    0.139951
    11  C    0.200737
    12  H    0.123579
    13  H    0.441886
    14  H    0.128422
    15  C   -0.532717
    16  H    0.173085
    17  H    0.173021
    18  H    0.160188
 Sum of Mulliken charges =   0.00000
 Mulliken charges with hydrogens summed into heavy atoms:
               1
     1  C    0.179399
     2  C   -0.072163
     3  C    0.317381
     4  C    0.051094
     5  C   -0.047085
     6  C   -0.060030
     8  O   -0.466522
     9  O   -0.199967
    11  C    0.324316
    15  C   -0.026423
 Electronic spatial extent (au):  <R**2>=           1527.9702
 Charge=              0.0000 electrons
 Dipole moment (field-independent basis, Debye):
    X=              2.7741    Y=              1.8743    Z=              0.0006  Tot=              3.3479
 Quadrupole moment (field-independent basis, Debye-Ang):
   XX=            -58.8258   YY=            -54.9225   ZZ=            -59.1486
   XY=             -3.3070   XZ=              0.0008   YZ=             -0.0002
 Traceless Quadrupole moment (field-independent basis, Debye-Ang):
   XX=             -1.1935   YY=              2.7098   ZZ=             -1.5163
   XY=             -3.3070   XZ=              0.0008   YZ=             -0.0002
 Octapole moment (field-independent basis, Debye-Ang**2):
  XXX=             29.6975  YYY=              7.0267  ZZZ=              0.0060  XYY=             -4.5137
  XXY=             -0.8433  XXZ=              0.0050  XZZ=             -7.2923  YZZ=             -4.5111
  YYZ=             -0.0038  XYZ=             -0.0007
 Hexadecapole moment (field-independent basis, Debye-Ang**3):
 XXXX=          -1506.8853 YYYY=           -469.2212 ZZZZ=            -63.0949 XXXY=             10.8686
 XXXZ=              0.0082 YYYX=             -4.1907 YYYZ=              0.0061 ZZZX=              0.0205
 ZZZY=             -0.0031 XXYY=           -287.1611 XXZZ=           -245.2673 YYZZ=            -94.9395
 XXYZ=             -0.0080 YYXZ=             -0.0171 ZZXY=             -0.3859
 N-N= 4.926034097605D+02 E-N=-2.056624283175D+03  KE= 4.559522418024D+02
 No NMR shielding tensors so no spin-rotation constants.
 Leave Link  601 at Wed Dec 03 17:20:53 2025, MaxMem=   104857600 cpu:               0.0 elap:               0.2
 (Enter D:\Gaussian\G16W\l9999.exe)
 1|1|UNPC-PC-20250526LCFF|SP|RB3LYP|6-31G(d)|C8H8O2|ADMINISTRATOR|03-De
 c-2025|0||#P B3LYP/6-31G* SCF=conver=7 out=wfn||Generated by Multiwfn 
 (http://sobereva.com/multiwfn)||0,1|C,0,1.899863,-0.019337,-0.000094|C
 ,0,0.96939,-1.055743,-0.000091|C,0,-0.402437,-0.791396,-0.000017|C,0,-
 0.852429,0.555274,0.000019|C,0,0.097462,1.589862,0.000002|C,0,1.451428
 ,1.31498,-0.00006|H,0,-0.252304,2.61778,0.000002|O,0,-3.161317,0.00413
 6,0.000004|O,0,-1.259569,-1.82043,0.000017|H,0,1.287742,-2.092184,-0.0
 00149|C,0,-2.27305,0.851991,0.000029|H,0,-2.541694,1.925634,0.00012|H,
 0,-2.168995,-1.44412,0.000102|H,0,2.173214,2.123274,-0.000099|C,0,3.37
 5258,-0.333924,0.000086|H,0,3.649291,-0.920409,0.882027|H,0,3.648608,-
 0.925132,-0.878882|H,0,3.978316,0.575267,-0.002528||Version=EM64W-G16R
 evA.03|State=1-A|HF=-460.122735|RMSD=4.996e-008|Dipole=1.0914257,0.737
 3961,0.000225|Quadrupole=-0.8873098,2.014674,-1.1273642,-2.458692,0.00
 05867,-0.0001301|PG=C01 [X(C8H8O2)]||@

 Writing a WFN file to "N.wfn"


 WE MIGHT AS WELL ATTEMPT TO INTRODUCE A NEW PLANET 
 INTO THE SOLAR SYSTEM, OR TO ANNIHILATE ONE ALREADYIN EXISTENCE, 
 AS TO CREATE OR DESTROY A PARTICLE OF HYDROGEN.
 ALL THE CHANGES WE CAN PRODUCE CONSIST IN SEPARATING PARTICLES
 THAT ARE IN A STATE OF ... COMBINATION, AND JOINING 
 THOSE THAT WERE PREVIOUSLY AT A DISTANCE.

                                    -- JOHN DALTON, 1810
 Job cpu time:       0 days  0 hours  0 minutes 14.0 seconds.
 Elapsed time:       0 days  0 hours  0 minutes 14.6 seconds.
 File lengths (MBytes):  RWF=     15 Int=      0 D2E=      0 Chk=      3 Scr=      1
 Normal termination of Gaussian 16 at Wed Dec 03 17:20:53 2025.
