 Generated by Multiwfn (http://sobereva.com/multiwfn)
GAUSSIAN             36 MOL ORBITALS    312 PRIMITIVES       18 NUCLEI
  C    1    (CENTRE  1)   3.59022074 -0.03654164 -0.00017777  CHARGE =  6.0
  C    2    (CENTRE  2)   1.83188161 -1.99506513 -0.00017210  CHARGE =  6.0
  C    3    (CENTRE  3)  -0.76049571 -1.49552170 -0.00003226  CHARGE =  6.0
  C    4    (CENTRE  4)  -1.61085735  1.04931579  0.00003577  CHARGE =  6.0
  C    5    (CENTRE  5)   0.18417649  3.00440376  0.00000365  CHARGE =  6.0
  C    6    (CENTRE  6)   2.74280141  2.48495206 -0.00011351  CHARGE =  6.0
  H    7    (CENTRE  7)  -0.47678545  4.94688725  0.00000365  CHARGE =  1.0
  O    8    (CENTRE  8)  -5.97402332  0.00781591  0.00000743  CHARGE =  8.0
  O    9    (CENTRE  9)  -2.38024045 -3.44011413  0.00003199  CHARGE =  8.0
  H   10    (CENTRE 10)   2.43347969 -3.95365477 -0.00028170  CHARGE =  1.0
  C   11    (CENTRE 11)  -4.29544197  1.61002966  0.00005467  CHARGE =  6.0
  H   12    (CENTRE 12)  -4.80310555  3.63892088  0.00022664  CHARGE =  1.0
  H   13    (CENTRE 13)  -4.09880652 -2.72899129  0.00019262  CHARGE =  1.0
  H   14    (CENTRE 14)   4.10677927  4.01240634 -0.00018721  CHARGE =  1.0
  C   15    (CENTRE 15)   6.37831322 -0.63102491  0.00016239  CHARGE =  6.0
  H   16    (CENTRE 16)   6.89616054 -1.73932094  1.66678933  CHARGE =  1.0
  H   17    (CENTRE 17)   6.89486985 -1.74824612 -1.66084641  CHARGE =  1.0
  H   18    (CENTRE 18)   7.51792768  1.08709707 -0.00477736  CHARGE =  1.0
CENTRE ASSIGNMENTS    1  1  1  1  1  1  1  1  1  1  1  1  1  1  1  1  1  1  1  1
CENTRE ASSIGNMENTS    1  1  1  1  1  1  1  1  2  2  2  2  2  2  2  2  2  2  2  2
CENTRE ASSIGNMENTS    2  2  2  2  2  2  2  2  2  2  2  2  2  2  2  2  3  3  3  3
CENTRE ASSIGNMENTS    3  3  3  3  3  3  3  3  3  3  3  3  3  3  3  3  3  3  3  3
CENTRE ASSIGNMENTS    3  3  3  3  4  4  4  4  4  4  4  4  4  4  4  4  4  4  4  4
CENTRE ASSIGNMENTS    4  4  4  4  4  4  4  4  4  4  4  4  5  5  5  5  5  5  5  5
CENTRE ASSIGNMENTS    5  5  5  5  5  5  5  5  5  5  5  5  5  5  5  5  5  5  5  5
CENTRE ASSIGNMENTS    6  6  6  6  6  6  6  6  6  6  6  6  6  6  6  6  6  6  6  6
CENTRE ASSIGNMENTS    6  6  6  6  6  6  6  6  7  7  7  7  8  8  8  8  8  8  8  8
CENTRE ASSIGNMENTS    8  8  8  8  8  8  8  8  8  8  8  8  8  8  8  8  8  8  8  8
CENTRE ASSIGNMENTS    9  9  9  9  9  9  9  9  9  9  9  9  9  9  9  9  9  9  9  9
CENTRE ASSIGNMENTS    9  9  9  9  9  9  9  9 10 10 10 10 11 11 11 11 11 11 11 11
CENTRE ASSIGNMENTS   11 11 11 11 11 11 11 11 11 11 11 11 11 11 11 11 11 11 11 11
CENTRE ASSIGNMENTS   12 12 12 12 13 13 13 13 14 14 14 14 15 15 15 15 15 15 15 15
CENTRE ASSIGNMENTS   15 15 15 15 15 15 15 15 15 15 15 15 15 15 15 15 15 15 15 15
CENTRE ASSIGNMENTS   16 16 16 16 17 17 17 17 18 18 18 18
TYPE ASSIGNMENTS      1  1  1  1  1  1  1  1  1  2  2  2  3  3  3  4  4  4  1  2
TYPE ASSIGNMENTS      3  4  5  6  7  8  9 10  1  1  1  1  1  1  1  1  1  2  2  2
TYPE ASSIGNMENTS      3  3  3  4  4  4  1  2  3  4  5  6  7  8  9 10  1  1  1  1
TYPE ASSIGNMENTS      1  1  1  1  1  2  2  2  3  3  3  4  4  4  1  2  3  4  5  6
TYPE ASSIGNMENTS      7  8  9 10  1  1  1  1  1  1  1  1  1  2  2  2  3  3  3  4
TYPE ASSIGNMENTS      4  4  1  2  3  4  5  6  7  8  9 10  1  1  1  1  1  1  1  1
TYPE ASSIGNMENTS      1  2  2  2  3  3  3  4  4  4  1  2  3  4  5  6  7  8  9 10
TYPE ASSIGNMENTS      1  1  1  1  1  1  1  1  1  2  2  2  3  3  3  4  4  4  1  2
TYPE ASSIGNMENTS      3  4  5  6  7  8  9 10  1  1  1  1  1  1  1  1  1  1  1  1
TYPE ASSIGNMENTS      1  2  2  2  3  3  3  4  4  4  1  2  3  4  5  6  7  8  9 10
TYPE ASSIGNMENTS      1  1  1  1  1  1  1  1  1  2  2  2  3  3  3  4  4  4  1  2
TYPE ASSIGNMENTS      3  4  5  6  7  8  9 10  1  1  1  1  1  1  1  1  1  1  1  1
TYPE ASSIGNMENTS      1  2  2  2  3  3  3  4  4  4  1  2  3  4  5  6  7  8  9 10
TYPE ASSIGNMENTS      1  1  1  1  1  1  1  1  1  1  1  1  1  1  1  1  1  1  1  1
TYPE ASSIGNMENTS      1  2  2  2  3  3  3  4  4  4  1  2  3  4  5  6  7  8  9 10
TYPE ASSIGNMENTS      1  1  1  1  1  1  1  1  1  1  1  1
EXPONENTS  0.3047525D+04 0.4573695D+03 0.1039487D+03 0.2921016D+02 0.9286663D+01
EXPONENTS  0.3163927D+01 0.7868272D+01 0.1881289D+01 0.5442493D+00 0.7868272D+01
EXPONENTS  0.1881289D+01 0.5442493D+00 0.7868272D+01 0.1881289D+01 0.5442493D+00
EXPONENTS  0.7868272D+01 0.1881289D+01 0.5442493D+00 0.1687145D+00 0.1687145D+00
EXPONENTS  0.1687145D+00 0.1687145D+00 0.8000000D+00 0.8000000D+00 0.8000000D+00
EXPONENTS  0.8000000D+00 0.8000000D+00 0.8000000D+00 0.3047525D+04 0.4573695D+03
EXPONENTS  0.1039487D+03 0.2921016D+02 0.9286663D+01 0.3163927D+01 0.7868272D+01
EXPONENTS  0.1881289D+01 0.5442493D+00 0.7868272D+01 0.1881289D+01 0.5442493D+00
EXPONENTS  0.7868272D+01 0.1881289D+01 0.5442493D+00 0.7868272D+01 0.1881289D+01
EXPONENTS  0.5442493D+00 0.1687145D+00 0.1687145D+00 0.1687145D+00 0.1687145D+00
EXPONENTS  0.8000000D+00 0.8000000D+00 0.8000000D+00 0.8000000D+00 0.8000000D+00
EXPONENTS  0.8000000D+00 0.3047525D+04 0.4573695D+03 0.1039487D+03 0.2921016D+02
EXPONENTS  0.9286663D+01 0.3163927D+01 0.7868272D+01 0.1881289D+01 0.5442493D+00
EXPONENTS  0.7868272D+01 0.1881289D+01 0.5442493D+00 0.7868272D+01 0.1881289D+01
EXPONENTS  0.5442493D+00 0.7868272D+01 0.1881289D+01 0.5442493D+00 0.1687145D+00
EXPONENTS  0.1687145D+00 0.1687145D+00 0.1687145D+00 0.8000000D+00 0.8000000D+00
EXPONENTS  0.8000000D+00 0.8000000D+00 0.8000000D+00 0.8000000D+00 0.3047525D+04
EXPONENTS  0.4573695D+03 0.1039487D+03 0.2921016D+02 0.9286663D+01 0.3163927D+01
EXPONENTS  0.7868272D+01 0.1881289D+01 0.5442493D+00 0.7868272D+01 0.1881289D+01
EXPONENTS  0.5442493D+00 0.7868272D+01 0.1881289D+01 0.5442493D+00 0.7868272D+01
EXPONENTS  0.1881289D+01 0.5442493D+00 0.1687145D+00 0.1687145D+00 0.1687145D+00
EXPONENTS  0.1687145D+00 0.8000000D+00 0.8000000D+00 0.8000000D+00 0.8000000D+00
EXPONENTS  0.8000000D+00 0.8000000D+00 0.3047525D+04 0.4573695D+03 0.1039487D+03
EXPONENTS  0.2921016D+02 0.9286663D+01 0.3163927D+01 0.7868272D+01 0.1881289D+01
EXPONENTS  0.5442493D+00 0.7868272D+01 0.1881289D+01 0.5442493D+00 0.7868272D+01
EXPONENTS  0.1881289D+01 0.5442493D+00 0.7868272D+01 0.1881289D+01 0.5442493D+00
EXPONENTS  0.1687145D+00 0.1687145D+00 0.1687145D+00 0.1687145D+00 0.8000000D+00
EXPONENTS  0.8000000D+00 0.8000000D+00 0.8000000D+00 0.8000000D+00 0.8000000D+00
EXPONENTS  0.3047525D+04 0.4573695D+03 0.1039487D+03 0.2921016D+02 0.9286663D+01
EXPONENTS  0.3163927D+01 0.7868272D+01 0.1881289D+01 0.5442493D+00 0.7868272D+01
EXPONENTS  0.1881289D+01 0.5442493D+00 0.7868272D+01 0.1881289D+01 0.5442493D+00
EXPONENTS  0.7868272D+01 0.1881289D+01 0.5442493D+00 0.1687145D+00 0.1687145D+00
EXPONENTS  0.1687145D+00 0.1687145D+00 0.8000000D+00 0.8000000D+00 0.8000000D+00
EXPONENTS  0.8000000D+00 0.8000000D+00 0.8000000D+00 0.1873114D+02 0.2825394D+01
EXPONENTS  0.6401217D+00 0.1612778D+00 0.5484672D+04 0.8252349D+03 0.1880470D+03
EXPONENTS  0.5296450D+02 0.1689757D+02 0.5799635D+01 0.1553962D+02 0.3599934D+01
EXPONENTS  0.1013762D+01 0.1553962D+02 0.3599934D+01 0.1013762D+01 0.1553962D+02
EXPONENTS  0.3599934D+01 0.1013762D+01 0.1553962D+02 0.3599934D+01 0.1013762D+01
EXPONENTS  0.2700058D+00 0.2700058D+00 0.2700058D+00 0.2700058D+00 0.8000000D+00
EXPONENTS  0.8000000D+00 0.8000000D+00 0.8000000D+00 0.8000000D+00 0.8000000D+00
EXPONENTS  0.5484672D+04 0.8252349D+03 0.1880470D+03 0.5296450D+02 0.1689757D+02
EXPONENTS  0.5799635D+01 0.1553962D+02 0.3599934D+01 0.1013762D+01 0.1553962D+02
EXPONENTS  0.3599934D+01 0.1013762D+01 0.1553962D+02 0.3599934D+01 0.1013762D+01
EXPONENTS  0.1553962D+02 0.3599934D+01 0.1013762D+01 0.2700058D+00 0.2700058D+00
EXPONENTS  0.2700058D+00 0.2700058D+00 0.8000000D+00 0.8000000D+00 0.8000000D+00
EXPONENTS  0.8000000D+00 0.8000000D+00 0.8000000D+00 0.1873114D+02 0.2825394D+01
EXPONENTS  0.6401217D+00 0.1612778D+00 0.3047525D+04 0.4573695D+03 0.1039487D+03
EXPONENTS  0.2921016D+02 0.9286663D+01 0.3163927D+01 0.7868272D+01 0.1881289D+01
EXPONENTS  0.5442493D+00 0.7868272D+01 0.1881289D+01 0.5442493D+00 0.7868272D+01
EXPONENTS  0.1881289D+01 0.5442493D+00 0.7868272D+01 0.1881289D+01 0.5442493D+00
EXPONENTS  0.1687145D+00 0.1687145D+00 0.1687145D+00 0.1687145D+00 0.8000000D+00
EXPONENTS  0.8000000D+00 0.8000000D+00 0.8000000D+00 0.8000000D+00 0.8000000D+00
EXPONENTS  0.1873114D+02 0.2825394D+01 0.6401217D+00 0.1612778D+00 0.1873114D+02
EXPONENTS  0.2825394D+01 0.6401217D+00 0.1612778D+00 0.1873114D+02 0.2825394D+01
EXPONENTS  0.6401217D+00 0.1612778D+00 0.3047525D+04 0.4573695D+03 0.1039487D+03
EXPONENTS  0.2921016D+02 0.9286663D+01 0.3163927D+01 0.7868272D+01 0.1881289D+01
EXPONENTS  0.5442493D+00 0.7868272D+01 0.1881289D+01 0.5442493D+00 0.7868272D+01
EXPONENTS  0.1881289D+01 0.5442493D+00 0.7868272D+01 0.1881289D+01 0.5442493D+00
EXPONENTS  0.1687145D+00 0.1687145D+00 0.1687145D+00 0.1687145D+00 0.8000000D+00
EXPONENTS  0.8000000D+00 0.8000000D+00 0.8000000D+00 0.8000000D+00 0.8000000D+00
EXPONENTS  0.1873114D+02 0.2825394D+01 0.6401217D+00 0.1612778D+00 0.1873114D+02
EXPONENTS  0.2825394D+01 0.6401217D+00 0.1612778D+00 0.1873114D+02 0.2825394D+01
EXPONENTS  0.6401217D+00 0.1612778D+00
MO    1     MO 0.0        OCC NO =    2.0000000  ORB. ENERGY =  -19.173374
  0.14196854D-05  0.26190424D-05  0.42279465D-05  0.55035301D-05  0.46961722D-05
  0.16214754D-05  0.57529446D-05  0.26515269D-05 -0.74351583D-05 -0.85074436D-04
 -0.65229682D-04 -0.32554183D-04 -0.46083649D-04 -0.35334019D-04 -0.17634152D-04
  0.28485607D-08  0.21840957D-08  0.10900168D-08  0.30398265D-03 -0.61290911D-04
 -0.34840963D-05  0.34452256D-08  0.16546237D-04  0.44178711D-04  0.23388168D-04
  0.17973794D-04  0.13337473D-07 -0.24044605D-08  0.63658732D-05  0.11743793D-04
  0.18958123D-04  0.24677843D-04  0.21057649D-04  0.72707000D-05 -0.65067086D-04
 -0.29989361D-04  0.84093297D-04  0.76671997D-05  0.58787224D-05  0.29338945D-05
  0.16528499D-04  0.12673004D-04  0.63247174D-05  0.87863444D-10  0.67368116D-10
  0.33621412D-10 -0.29601460D-03  0.34798949D-04 -0.30510963D-03 -0.10234193D-07
 -0.93323890D-04 -0.62850416D-04  0.27379733D-04  0.15694056D-04  0.13521754D-07
 -0.56449168D-08 -0.35501282D-04 -0.65492933D-04 -0.10572590D-03 -0.13762371D-03
 -0.11743456D-03 -0.40547331D-04 -0.38469795D-04 -0.17730693D-04  0.49718715D-04
 -0.31034180D-03 -0.23795041D-03 -0.11875393D-03 -0.45335385D-03 -0.34760297D-03
 -0.17347825D-03  0.58812872D-08  0.45093980D-08  0.22505056D-08  0.18829004D-03
  0.40318287D-03  0.75872444D-03 -0.89200150D-08 -0.14707239D-03 -0.37551390D-04
 -0.15351788D-03 -0.16566674D-03 -0.22732097D-08  0.14834445D-07  0.10137026D-04
  0.18700834D-04  0.30188944D-04  0.39297035D-04  0.33532232D-04  0.11577874D-04
 -0.85341598D-04 -0.39333865D-04  0.11029626D-03  0.10881054D-03  0.83429018D-04
  0.41636927D-04  0.11945341D-04  0.91589297D-05  0.45709478D-05 -0.62379562D-08
 -0.47828692D-08 -0.23869869D-08 -0.53936142D-03 -0.49384353D-03  0.22303609D-03
  0.20462424D-07 -0.52602626D-04 -0.14328413D-03  0.35258277D-04  0.10103597D-04
  0.10254115D-07 -0.10728385D-07 -0.26943025D-05 -0.49704620D-05 -0.80238669D-05
 -0.10444691D-04 -0.89124734D-05 -0.30772629D-05  0.18645270D-04  0.85935879D-05
 -0.24097318D-04 -0.46460238D-04 -0.35622764D-04 -0.17778256D-04 -0.76774916D-04
 -0.58866136D-04 -0.29378328D-04  0.27071247D-08  0.20756515D-08  0.10358956D-08
  0.31964663D-03  0.62028052D-04 -0.17207054D-03 -0.56249465D-08  0.93581442D-05
  0.41109605D-04  0.15168293D-05  0.56898378D-04  0.11351001D-08  0.36088270D-08
  0.68071402D-05  0.12557844D-04  0.20272255D-04  0.26388452D-04  0.22517314D-04
  0.77746874D-05 -0.27564416D-04 -0.12704414D-04  0.35624503D-04  0.15706175D-05
  0.12042499D-05  0.60100510D-06 -0.30021939D-04 -0.23018918D-04 -0.11488054D-04
 -0.27933702D-09 -0.21417791D-09 -0.10688979D-09 -0.22621060D-03  0.73289114D-04
  0.75161574D-04 -0.28606067D-08 -0.94101876D-05  0.22817701D-06  0.31037089D-04
  0.43440956D-04  0.58798851D-08 -0.76114047D-09  0.68002730D-05  0.11534550D-04
  0.13131678D-04  0.57268985D-04  0.50835912D-05  0.93565216D-05  0.15140618D-04
  0.19902766D-04  0.17070487D-04  0.58366894D-05 -0.37019691D-04 -0.16518114D-04
  0.48778212D-04  0.50088585D-04  0.38590555D-04  0.16943332D-04  0.11187074D-03
  0.86190371D-04  0.37842215D-04 -0.23629752D-07 -0.18205450D-07 -0.79931731D-08
 -0.10692595D-03 -0.28323753D-04 -0.11427574D-03  0.80073577D-08 -0.22561908D-04
  0.39176683D-04  0.60672152D-04 -0.60832336D-04  0.72027323D-08 -0.99422750D-08
  0.82559103D+00  0.15195282D+01  0.24588835D+01  0.32322712D+01  0.27723002D+01
  0.94789652D+00 -0.15719050D-01 -0.70138094D-02  0.20711873D-01 -0.62930621D-03
 -0.48484651D-03 -0.21287373D-03  0.29781234D-02  0.22944835D-02  0.10074018D-02
  0.14136426D-06  0.10891354D-06  0.47818911D-07  0.41212661D-02  0.24988748D-03
  0.26015161D-03 -0.87716024D-08 -0.92924871D-02 -0.93586712D-02 -0.93550964D-02
  0.15711666D-03 -0.79941144D-08 -0.79303605D-08 -0.10351178D-04 -0.17557558D-04
 -0.19988659D-04 -0.13424058D-03  0.60286753D-05  0.11121729D-04  0.17953919D-04
  0.23370667D-04  0.19942233D-04  0.68855738D-05 -0.16167521D-04 -0.74515958D-05
  0.20895053D-04 -0.12512138D-03 -0.95935142D-04 -0.47878359D-04 -0.23392965D-04
 -0.17936242D-04 -0.89514416D-05 -0.46483560D-08 -0.35640645D-08 -0.17787180D-08
 -0.23604122D-03 -0.15462434D-03 -0.66254001D-04 -0.60458797D-08  0.14851152D-04
  0.54815883D-04  0.55798541D-05  0.26743033D-04  0.21982271D-08  0.93040233D-09
  0.12791144D-04  0.21696202D-04  0.24700359D-04  0.21577728D-04  0.84564395D-04
  0.14343722D-03  0.16329820D-03 -0.27469721D-03 -0.40977773D-05 -0.69506059D-05
 -0.79130191D-05 -0.28336168D-04  0.54427824D-05  0.10040871D-04  0.16209079D-04
  0.21099404D-04  0.18004160D-04  0.62164037D-05 -0.19329582D-04 -0.89089868D-05
  0.24981729D-04  0.59214594D-05  0.45401995D-05  0.22658778D-05 -0.37017947D-05
 -0.28383014D-05 -0.14165113D-05 -0.53971881D-08 -0.41382215D-08 -0.20652626D-08
 -0.46720957D-04  0.15899834D-04 -0.91047927D-06  0.24719677D-08 -0.30179064D-05
  0.18663344D-04  0.18897760D-04  0.10559899D-04 -0.31115222D-08 -0.13629812D-07
  0.24078916D-05  0.40842399D-05  0.46497628D-05  0.46155537D-05  0.24075824D-05
  0.40837155D-05  0.46491658D-05  0.46269409D-05  0.25762935D-05  0.43698814D-05
  0.49749555D-05  0.16922583D-05
MO    2     MO 0.0        OCC NO =    2.0000000  ORB. ENERGY =  -19.157610
 -0.26338403D-05 -0.48589211D-05 -0.78438052D-05 -0.10210304D-04 -0.87124707D-05
 -0.30082068D-05  0.10194640D-04  0.46987001D-05 -0.13175645D-04  0.41688993D-04
  0.31964476D-04  0.15952514D-04  0.15324081D-04  0.11749533D-04  0.58638405D-05
 -0.88106293D-08 -0.67554317D-08 -0.33714339D-08 -0.12912974D-04 -0.48977751D-04
  0.52356360D-04  0.15338980D-07 -0.35903494D-05  0.53364419D-05 -0.12612812D-04
 -0.14921447D-04  0.11421909D-07  0.79822741D-11  0.13947547D-05  0.25730501D-05
  0.41537007D-05  0.54068841D-05  0.46137040D-05  0.15930011D-05 -0.78144785D-05
 -0.36016860D-05  0.10099503D-04 -0.15068187D-04 -0.11553330D-04 -0.57659215D-05
 -0.21460655D-04 -0.16454669D-04 -0.82120332D-05  0.86723211D-08  0.66493858D-08
  0.33185095D-08 -0.88361732D-04  0.86468650D-04  0.69062429D-04 -0.91618453D-08
 -0.24938127D-04  0.74532975D-05  0.60338861D-05 -0.26838220D-04  0.41354441D-08
 -0.73748457D-08  0.86717834D-05  0.15997747D-04  0.25825324D-04  0.33616898D-04
  0.28685360D-04  0.99043656D-05 -0.19022711D-04 -0.87675500D-05  0.24585125D-04
 -0.27660040D-04 -0.21207965D-04 -0.10584261D-04 -0.61663313D-04 -0.47279517D-04
 -0.23595793D-04 -0.64081164D-08 -0.49133372D-08 -0.24520996D-08 -0.19056783D-03
  0.89264709D-04 -0.27954274D-03 -0.47308410D-08  0.82918190D-04  0.10487406D-04
  0.26043963D-04  0.12548898D-03  0.71749879D-08  0.24282591D-09 -0.15331407D-04
 -0.28283452D-04 -0.45658260D-04 -0.59433489D-04 -0.50714704D-04 -0.17510568D-04
  0.43684236D-04  0.20134024D-04 -0.56457906D-04  0.12249824D-04  0.93923878D-05
  0.46874598D-05  0.10128773D-03  0.77661009D-04  0.38758286D-04  0.96233698D-09
  0.73785896D-09  0.36824333D-09  0.31992081D-03 -0.85616324D-04 -0.34880018D-03
 -0.86392712D-08 -0.53206345D-04  0.16137887D-04 -0.66756975D-04 -0.20182959D-03
 -0.62898938D-09  0.55856719D-08  0.50239432D-06  0.92681942D-06  0.14961739D-05
  0.19475739D-05  0.16618683D-05  0.57380320D-06  0.88883104D-05  0.40966141D-05
 -0.11487334D-04 -0.12060496D-03 -0.92472232D-04 -0.46150124D-04 -0.24827065D-04
 -0.19035819D-04 -0.95002079D-05  0.35781894D-08  0.27435287D-08  0.13692131D-08
  0.28933824D-03  0.81711868D-04 -0.80409356D-04 -0.70380042D-09  0.54678291D-04
  0.16193158D-04  0.13289722D-04 -0.76645770D-05 -0.10073599D-07 -0.16092599D-08
  0.71885750D-05  0.13261517D-04  0.21408201D-04  0.27867116D-04  0.23779061D-04
  0.82103383D-05 -0.32950621D-04 -0.15186911D-04  0.42585684D-04  0.29665474D-04
  0.22745604D-04  0.11351650D-04  0.42127982D-06  0.32301064D-06  0.16120495D-06
 -0.15478981D-08 -0.11868301D-08 -0.59231139D-09 -0.23062374D-03  0.84419097D-04
  0.31969881D-04 -0.74671070D-08 -0.33549764D-04  0.28791104D-05  0.29802484D-04
  0.12950777D-04  0.76415724D-08  0.61559141D-08  0.13648011D-04  0.23149610D-04
  0.26355013D-04  0.10134166D-04  0.82563990D+00  0.15196182D+01  0.24590290D+01
  0.32324625D+01  0.27724643D+01  0.94795263D+00 -0.15732755D-01 -0.70199247D-02
  0.20729932D-01  0.25674359D-02  0.19780709D-02  0.86847967D-03  0.22819201D-02
  0.17580964D-02  0.77189903D-03  0.50481340D-07  0.38893151D-07  0.17076188D-07
  0.40060430D-02  0.41339395D-03  0.21527315D-03  0.14713562D-07 -0.89564194D-02
 -0.90189953D-02 -0.93120096D-02  0.44284213D-03  0.25533830D-07  0.13254220D-08
 -0.50052114D-05 -0.92122608D-05 -0.14907177D-04 -0.19595901D-04 -0.16807291D-04
 -0.57466981D-05  0.25217763D-04  0.11252117D-04 -0.33227652D-04  0.18259540D-03
  0.14067991D-03  0.61766058D-04  0.74706448D-04  0.57557290D-04  0.25270751D-04
 -0.43865803D-07 -0.33796237D-07 -0.14838368D-07  0.57505544D-04 -0.21825348D-03
 -0.68191840D-05  0.22540957D-07  0.15865716D-04 -0.77401634D-04 -0.26024012D-04
 -0.15305692D-03 -0.31434265D-07  0.24588483D-07  0.86973739D-05  0.14752392D-04
  0.16795077D-04  0.22019510D-04  0.18411003D-05  0.33964706D-05  0.54829567D-05
  0.71371805D-05  0.60901690D-05  0.21027890D-05 -0.21073405D-03 -0.97127129D-04
  0.27235461D-03 -0.65814226D-04 -0.50462174D-04 -0.25184161D-04 -0.46563697D-04
 -0.35702090D-04 -0.17817845D-04 -0.13585985D-07 -0.10416872D-07 -0.51987490D-08
 -0.67167052D-03  0.28996990D-03  0.48012102D-03  0.18595413D-07 -0.45309164D-03
 -0.51580994D-03 -0.51669644D-04 -0.75890372D-03 -0.19872761D-07 -0.15848566D-07
 -0.18386058D-04 -0.31186234D-04 -0.35504426D-04 -0.11288279D-03 -0.45178742D-04
 -0.76631697D-04 -0.87242478D-04 -0.20341679D-03  0.80729724D-06  0.13693289D-05
  0.15589326D-05 -0.17684241D-04  0.10478417D-05  0.19330632D-05  0.31205635D-05
  0.40620464D-05  0.34661516D-05  0.11967788D-05 -0.99181153D-06 -0.45712503D-06
  0.12818263D-05 -0.27119500D-04 -0.20793512D-04 -0.10377420D-04 -0.62883778D-06
 -0.48215293D-06 -0.24062810D-06  0.50888917D-07  0.39018394D-07  0.19472913D-07
  0.37304728D-04 -0.87091744D-05 -0.10867356D-05 -0.46537834D-07  0.11628504D-04
 -0.30124783D-05  0.12780186D-04  0.86182167D-05  0.31333084D-08  0.48111867D-07
 -0.64237095D-06 -0.10895827D-05 -0.12404514D-05 -0.14365759D-05 -0.64693356D-06
 -0.10973218D-05 -0.12492620D-05 -0.15088438D-05  0.41384046D-06  0.70195175D-06
  0.79914725D-06 -0.57582998D-05
MO    3     MO 0.0        OCC NO =    2.0000000  ORB. ENERGY =  -10.283375
  0.13398518D-04  0.24717649D-04  0.39901949D-04  0.51940482D-04  0.44320907D-04
  0.15302944D-04 -0.44814840D-04 -0.20655119D-04  0.57919109D-04 -0.29456560D-04
 -0.22585422D-04 -0.11271708D-04 -0.11140095D-04 -0.85415180D-05 -0.42628161D-05
  0.13044730D-07  0.10001872D-07  0.49916349D-08 -0.34637233D-03  0.21558252D-03
 -0.11850553D-03 -0.37949184D-07 -0.62293016D-05 -0.15428344D-04  0.25627681D-04
  0.23643846D-04 -0.34180035D-07  0.13784015D-08 -0.21054592D-04 -0.38841611D-04
 -0.62702403D-04 -0.81619898D-04 -0.69646407D-04 -0.24047231D-04  0.82781176D-04
  0.38153768D-04 -0.10698715D-03 -0.58699328D-05 -0.45006921D-05 -0.22461608D-05
  0.25169165D-04  0.19298120D-04  0.96311142D-05 -0.12203106D-07 -0.93565676D-08
 -0.46695830D-08  0.67119579D-03 -0.27098335D-03  0.12419830D-03  0.30636370D-07
  0.49426315D-04 -0.19178283D-05 -0.74479732D-04 -0.87970853D-05 -0.14205931D-07
  0.25094551D-07 -0.90696125D-05 -0.16731664D-04 -0.27010094D-04 -0.35159117D-04
 -0.30001338D-04 -0.10358741D-04  0.37070971D-04  0.17085977D-04 -0.47910862D-04
  0.13228686D-03  0.10142917D-03  0.50620265D-04  0.60080529D-05  0.46065939D-05
  0.22990132D-05 -0.48686897D-08 -0.37330024D-08 -0.18630298D-08 -0.28927186D-04
 -0.51862408D-03  0.21371305D-03  0.19570182D-07 -0.20430794D-04  0.17047992D-03
 -0.43905640D-04 -0.99440621D-04  0.28818871D-09  0.62614780D-08  0.11252606D-02
  0.20758861D-02  0.33511239D-02  0.43621676D-02  0.37222455D-02  0.12852019D-02
  0.19781748D-04  0.91173896D-05 -0.25566112D-04  0.33949486D-03  0.26030312D-03
  0.12990950D-03 -0.25412110D-03 -0.19484394D-03 -0.97240784D-04 -0.16665641D-07
 -0.12778156D-07 -0.63771956D-08  0.66093879D-03  0.10917023D-03  0.61450298D-03
  0.15625416D-07 -0.54346971D-03 -0.36469389D-03 -0.14392605D-03  0.25946058D-03
 -0.11333930D-07 -0.15079162D-07  0.73124862D-05  0.13490109D-04  0.21777219D-04
  0.28347469D-04  0.24188946D-04  0.83518618D-05 -0.32782757D-04 -0.15109543D-04
  0.42368735D-04  0.22685370D-03  0.17393703D-03  0.86806768D-04 -0.10015342D-04
 -0.76791292D-05 -0.38324237D-05  0.94278778D-08  0.72286987D-08  0.36076273D-08
 -0.89107871D-03 -0.12394951D-03  0.32915052D-03 -0.40306650D-08 -0.65251057D-04
  0.67753612D-04 -0.10026118D-04  0.79715659D-04  0.19420964D-07 -0.23080047D-08
 -0.29650531D-04 -0.54699440D-04 -0.88301856D-04 -0.11494278D-03 -0.98080882D-04
 -0.33864972D-04  0.10493915D-03  0.48366357D-04 -0.13562431D-03 -0.45223278D-04
 -0.34674341D-04 -0.17304926D-04  0.24790145D-04  0.19007511D-04  0.94860802D-05
 -0.56067653D-08 -0.42989120D-08 -0.21454584D-08  0.68122175D-03 -0.24907237D-03
 -0.20590235D-03  0.22284984D-07  0.68020697D-04 -0.12104738D-04 -0.96350120D-04
 -0.12987688D-04 -0.25244574D-07 -0.14459754D-07 -0.25141372D-04 -0.42644526D-04
 -0.48549286D-04 -0.89498182D-04 -0.62748349D-04 -0.11549046D-03 -0.18688536D-03
 -0.24566604D-03 -0.21070633D-03 -0.72044074D-04 -0.36892132D-03 -0.16461197D-03
  0.48610136D-03 -0.16452366D-03 -0.12675661D-03 -0.55652979D-04 -0.13469960D-03
 -0.10377878D-03 -0.45564476D-04 -0.15442179D-07 -0.11897366D-07 -0.52235847D-08
 -0.11091194D-02 -0.45778625D-03 -0.46439798D-03 -0.44854229D-08  0.67444143D-04
  0.38896131D-04  0.62045491D-03 -0.82782100D-03 -0.42154630D-08 -0.26882406D-07
  0.30778660D-05  0.56649164D-05  0.91669041D-05  0.12050152D-04  0.10335345D-04
  0.35338301D-05 -0.28732598D-04 -0.12820429D-04  0.37858899D-04 -0.45502582D-04
 -0.35057287D-04 -0.15392037D-04 -0.66428523D-04 -0.51179596D-04 -0.22470599D-04
 -0.20597708D-08 -0.15869424D-08 -0.69675318D-09 -0.14644068D-03  0.73781504D-04
 -0.93389205D-04 -0.18316477D-08  0.37603410D-04 -0.51150619D-04 -0.28395278D-04
  0.45811281D-04  0.10459204D-08 -0.10444477D-08 -0.53019193D-05 -0.89930586D-05
 -0.10238279D-04  0.45827852D-04  0.53250568D+00  0.98236900D+00  0.15858482D+01
  0.20643031D+01  0.17614736D+01  0.60819450D+00 -0.19525305D-01 -0.89991950D-02
  0.25234682D-01 -0.74678100D-03 -0.57258431D-03 -0.28575970D-03 -0.99453929D-03
 -0.76254965D-03 -0.38056572D-03 -0.20657265D-07 -0.15838681D-07 -0.79046116D-08
 -0.14931378D-02 -0.46014193D-03 -0.47975198D-03 -0.30061115D-07 -0.97673053D-02
 -0.99269220D-02 -0.10791741D-01  0.10886406D-02  0.36693358D-07  0.71279647D-07
 -0.37870450D-04 -0.64235451D-04 -0.73129790D-04  0.47373250D-03  0.26148495D-04
  0.44352796D-04  0.50494091D-04 -0.83021903D-05  0.81430885D-05  0.13812219D-04
  0.15724724D-04  0.93100738D-04 -0.11498541D-04 -0.21212563D-04 -0.34243654D-04
 -0.44575063D-04 -0.38035982D-04 -0.13132911D-04  0.21221444D-04  0.97809441D-05
 -0.27426788D-04  0.56894812D-04  0.43623333D-04  0.21771100D-04  0.10083261D-04
  0.77312049D-05  0.38584131D-05 -0.10260312D-06 -0.78669563D-07 -0.39261625D-07
 -0.55355400D-04  0.79552587D-05 -0.55599737D-05  0.10207574D-06 -0.18583824D-04
 -0.17740331D-04 -0.38887394D-04 -0.21510377D-04  0.58058016D-08 -0.29611010D-07
 -0.19848717D-05 -0.33667180D-05 -0.38328895D-05 -0.14899761D-05 -0.19840473D-05
 -0.33653197D-05 -0.38312976D-05 -0.13436221D-05 -0.94093187D-06 -0.15959985D-05
 -0.18169879D-05  0.11668734D-04
MO    4     MO 0.0        OCC NO =    2.0000000  ORB. ENERGY =  -10.266320
  0.48923730D-04  0.90254728D-04  0.14569912D-03  0.18965696D-03  0.16183463D-03
  0.55877607D-04 -0.11512134D-03 -0.53059320D-04  0.14878387D-03  0.11362948D-03
  0.87123876D-04  0.43480920D-04  0.48012299D-04  0.36812786D-04  0.18372160D-04
 -0.67040650D-08 -0.51402518D-08 -0.25653459D-08 -0.16326181D-02  0.67526712D-03
  0.12073624D-03 -0.36670301D-07  0.17374938D-04  0.22204623D-04  0.62357262D-04
 -0.26656172D-05 -0.58423769D-07  0.22686641D-07  0.17587147D-02  0.32444853D-02
  0.52376052D-02  0.68178058D-02  0.58176460D-02  0.20086934D-02  0.30358396D-03
  0.13992157D-03 -0.39235469D-03  0.29685029D-03  0.22760598D-03  0.11359133D-03
 -0.18738409D-03 -0.14367424D-03 -0.71703514D-04  0.10517985D-07  0.80645236D-08
  0.40247625D-08  0.27211345D-02 -0.42340117D-03  0.12337859D-02  0.49932937D-07
 -0.47269482D-03 -0.22910743D-03 -0.37769749D-03 -0.16509348D-03  0.11357569D-07
  0.35320534D-07  0.53259497D+00  0.98253372D+00  0.15861141D+01  0.20646493D+01
  0.17617689D+01  0.60829648D+00 -0.19827788D-01 -0.91386093D-02  0.25625614D-01
 -0.75280821D-03 -0.57720558D-03 -0.28806604D-03 -0.79423370D-03 -0.60896803D-03
 -0.30391773D-03 -0.33279123D-08 -0.25516321D-08 -0.12734432D-08 -0.40402769D-02
 -0.13431768D-02 -0.17129940D-02  0.48937871D-07 -0.96284802D-02 -0.95267530D-02
 -0.10333372D-01  0.84216546D-03 -0.59451355D-07 -0.33056457D-07  0.17759632D-02
  0.32763053D-02  0.52889725D-02  0.68846707D-02  0.58747020D-02  0.20283934D-02
  0.21281873D-03  0.98087956D-04 -0.27504887D-03 -0.42979462D-03 -0.32953925D-03
 -0.16446318D-03  0.37702303D-03  0.28907735D-03  0.14426986D-03  0.63839260D-08
  0.48947895D-08  0.24428430D-08  0.22572631D-02  0.16383751D-02 -0.64247610D-03
 -0.54051535D-07 -0.29659545D-03 -0.49371577D-03 -0.30160044D-03 -0.43336235D-04
 -0.15950278D-07  0.18249129D-07  0.33740196D-04  0.62244074D-04  0.10048124D-03
  0.13079671D-03  0.11160907D-03  0.38535930D-04 -0.92547419D-04 -0.42655021D-04
  0.11960913D-03  0.10965194D-03  0.84074154D-04  0.41958895D-04  0.17070451D-03
  0.13088539D-03  0.65320983D-04  0.34883504D-08  0.26746458D-08  0.13348357D-08
 -0.15916444D-02 -0.31103728D-03  0.73347896D-03  0.12976485D-07  0.62315514D-04
  0.29218501D-05  0.49375493D-04  0.17599301D-04 -0.59334424D-08 -0.77949744D-08
 -0.63172612D-04 -0.11654113D-03 -0.18813352D-03 -0.24489395D-03 -0.20896845D-03
 -0.72151784D-04  0.14056920D-03  0.64788215D-04 -0.18167292D-03  0.18794491D-04
  0.14410423D-04  0.71918113D-05  0.65328654D-04  0.50089868D-04  0.24998355D-04
 -0.35752467D-07 -0.27412724D-07 -0.13680870D-07  0.11915844D-02 -0.50298379D-03
 -0.38510162D-03  0.36669174D-07  0.67404760D-05 -0.20505379D-04 -0.13446662D-03
 -0.53299004D-04 -0.23871517D-07 -0.87562714D-08 -0.26658300D-04 -0.45217523D-04
 -0.51478551D-04 -0.22195777D-03 -0.19110984D-04 -0.35174412D-04 -0.56918839D-04
 -0.74821407D-04 -0.64173886D-04 -0.21942141D-04  0.47420454D-04  0.21158914D-04
 -0.62482557D-04 -0.72841917D-04 -0.56120770D-04 -0.24640041D-04 -0.48260788D-04
 -0.37182336D-04 -0.16325048D-04  0.74589677D-09  0.57467325D-09  0.25231251D-09
  0.63052583D-04 -0.49818651D-04  0.10755521D-04 -0.22292979D-09 -0.10402173D-03
 -0.65361191D-04 -0.11902482D-03 -0.74172145D-04  0.68582234D-09 -0.32439819D-08
  0.14903635D-03  0.27430645D-03  0.44387961D-03  0.58349218D-03  0.50045785D-03
  0.17111504D-03 -0.81571163D-03 -0.36396894D-03  0.10748052D-02  0.36634409D-04
  0.28224837D-04  0.12392224D-04 -0.95301856D-04 -0.73424942D-04 -0.32237504D-04
 -0.58099300D-08 -0.44762378D-08 -0.19653095D-08 -0.21204439D-02 -0.61650313D-03
 -0.69360582D-03  0.26369223D-07  0.36804674D-03  0.19876982D-03  0.11146972D-02
 -0.12320603D-02  0.72294969D-07  0.44550482D-07  0.48951942D-04  0.83031759D-04
  0.94528723D-04  0.36726390D-03 -0.87700984D-05 -0.16179119D-04 -0.26118115D-04
 -0.33998025D-04 -0.29010576D-04 -0.10016655D-04  0.85878677D-04  0.39581404D-04
 -0.11099039D-03  0.16119925D-03  0.12359736D-03  0.61683746D-04 -0.13355043D-04
 -0.10239800D-04 -0.51103779D-05  0.50100462D-08  0.38413856D-08  0.19171206D-08
  0.91025588D-03  0.35095978D-03 -0.65278893D-04  0.38427584D-08  0.16474475D-03
  0.64099906D-04 -0.68129486D-04  0.14418031D-04  0.18036076D-07  0.97113582D-08
 -0.19811281D-04 -0.33603682D-04 -0.38256604D-04  0.35495146D-04  0.50878514D-04
  0.86299590D-04  0.98249033D-04 -0.90111254D-04  0.28417376D-04  0.48201248D-04
  0.54875417D-04  0.17817642D-03 -0.25218474D-04 -0.46523161D-04 -0.75102807D-04
 -0.97761540D-04 -0.83420099D-04 -0.28802955D-04  0.58606647D-04  0.27011750D-04
 -0.75743767D-04  0.35764300D-04  0.27421797D-04  0.13685398D-04  0.32804601D-05
  0.25152488D-05  0.12552854D-05 -0.65454708D-07 -0.50186519D-07 -0.25046590D-07
 -0.36457196D-04 -0.18390251D-04 -0.69908510D-04  0.91697873D-07  0.22495194D-04
 -0.10002304D-03 -0.43106487D-04  0.54298405D-04  0.69753664D-07  0.31686361D-06
 -0.97985101D-05 -0.16620128D-04 -0.18921428D-04 -0.18992797D-04 -0.98198114D-05
 -0.16656259D-04 -0.18962562D-04 -0.18990799D-04  0.13362713D-05  0.22665691D-05
  0.25804088D-05  0.30344933D-04
MO    5     MO 0.0        OCC NO =    2.0000000  ORB. ENERGY =  -10.218070
  0.53246293D+00  0.98229014D+00  0.15857209D+01  0.20641374D+01  0.17613322D+01
  0.60814568D+00 -0.19808489D-01 -0.91297146D-02  0.25600673D-01 -0.88354702D-04
 -0.67744781D-04 -0.33809394D-04  0.92106933D-05  0.70621754D-05  0.35245205D-05